/*--------------------------------*- C++ -*----------------------------------*\
| =========                 |                                                 |
| \\      /  F ield         | foam-extend: Open Source CFD                    |
|  \\    /   O peration     | Version:     3.1                                |
|   \\  /    A nd           | Web:         http://www.extend-project.de       |
|    \\/     M anipulation  |                                                 |
\*---------------------------------------------------------------------------*/
FoamFile
{
    version     2.0;
    format      ascii;
    class       volScalarField;
    location    "11.5";
    object      pd;
}
// * * * * * * * * * * * * * * * * * * * * * * * * * * * * * * * * * * * * * //

dimensions      [1 -1 -2 0 0 0 0];

internalField   nonuniform List<scalar> 
119952
(
5695.452
4874.904
4733.156
4904.816
5075.902
5042.911
5071.3
5112.386
5161.851
5213.976
5267.377
5320.969
5373.312
5424.904
5475.754
5525.947
5575.622
5623.73
5663.9
5649.887
5942.313
5861.968
5862.377
6197.727
6151.053
6167.521
6212.006
6287.836
6458.108
7982.307
3553.776
3511.348
3516.179
3518.646
3522.764
3527.443
3531.907
3543.126
3553.655
3541.541
3547.781
3572.795
3582.528
3594.597
3606.08
3618.889
3632.623
3646.446
3662.241
3698.571
3709.916
3711.397
3726.85
3748.959
3774.229
3803.619
3837.697
3876.173
3923.241
3959.466
4012.516
4073.625
4139.073
4209.774
4286.049
4368.258
4461.459
4593.105
4778.784
4739.846
4798.878
4907.014
4988.556
5040.113
5076.828
5123.387
5174.19
5225.424
5277.452
5328.703
5380.285
5430.519
5479.022
5526.865
5574.418
5621.655
5669.292
5722.198
5790.504
5863.331
5915.35
6020.098
6129.042
6167.48
6200.652
6220.457
6179.695
6036.959
6000.297
6025.619
6031.632
6037.926
6045.655
6055.971
6069.239
6087.535
6113.141
6148.435
6196.116
6258.978
6340.782
6445.957
6578.913
6732.149
6871.085
6903.71
6782.484
6632.424
6682.506
6721.462
6781.237
6833.292
6867.293
6892.141
6907.614
6916.054
6922.951
6932.227
6946.223
6965.628
6990.361
7019.768
7052.868
7088.911
7126.924
7166.175
7206.063
7246.12
7285.984
7325.378
7364.09
7401.954
7438.827
7474.598
7509.197
7542.546
7574.734
7605.311
7634.645
7662.653
7689.068
7713.67
7736.589
7757.791
7777.299
7795.06
7811.089
7825.406
7838.086
7849.189
7858.833
7867.172
7874.13
7879.851
7884.683
7888.756
7892.216
7895.186
7897.976
7900.499
7902.952
7905.441
7908.066
7911.018
7914.419
7917.985
7921.97
7926.445
7931.446
7936.998
7943.107
7949.779
7956.994
7964.748
7973.019
7981.781
7991.002
8000.642
8010.656
8020.995
8031.602
8042.413
8053.342
8064.38
8075.17
8085.846
8098.835
8113.254
8121.54
8131.653
8141.656
8151.066
8159.755
8167.609
8174.493
8180.265
8184.924
8187.704
8189.271
8189.14
8187.251
8183.569
8178.082
8170.949
8162.352
8152.291
8141.504
8130.533
8119.862
8109.783
8100.35
8091.398
8082.601
8073.625
8064.22
8054.292
8043.814
8032.748
8020.835
8007.769
7992.524
7971.927
7947.054
7968.606
7983.524
7996.475
8011.33
8033.133
8064.688
8056.271
7999.374
8030.711
8065.937
8089.593
8107.43
8123.476
8139.981
8155.378
8165.812
8162.589
8139.359
8138.664
8150.606
8162.684
8172.847
8181.11
8188.118
8194.194
8199.215
8203.303
8206.721
8209.975
8213.86
8218.952
8224.865
8230.707
8235.561
8250.583
8243.463
8238.42
8233.45
8225.782
8215.073
8201.852
8185.797
8167.08
8145.885
8122.478
8097.241
8070.661
8043.468
8016.217
7989.689
7964.574
7941.469
7920.897
7903.293
7888.966
7878.15
7870.798
7867
7866.535
7869.222
7874.728
7882.661
7892.598
7904.1
7916.741
7930.124
7943.895
7957.751
7971.438
7984.749
7997.524
8009.647
8021.038
8031.645
8041.44
8050.417
8058.592
8066.006
8072.703
8078.475
8082.893
8086.42
8089.348
8091.638
8093.328
8094.491
8095.303
8095.696
8093.522
8092.621
8091.87
8090.189
8088.208
8085.968
8083.498
8080.812
8077.926
8074.858
8071.63
8068.263
8064.776
8061.189
8057.52
8053.782
8049.99
8046.153
8042.28
8038.376
8034.448
8030.498
8026.53
8022.544
8018.541
8014.523
8010.489
8006.441
8002.379
7998.302
7994.211
7990.105
7985.985
7981.851
7977.702
7973.54
7969.365
7965.178
7960.978
7956.766
7952.542
7948.308
7944.064
7939.81
7935.547
7931.275
7926.996
7922.71
7918.417
7914.117
7909.811
7905.497
7901.176
7896.846
7892.506
7888.151
7883.778
7879.388
7874.982
7870.555
7866.105
7861.627
7857.116
7852.564
7847.967
7843.317
7838.605
7833.823
7828.957
7823.994
7818.918
7813.708
7808.335
7802.767
7796.957
7790.861
7784.405
7777.436
7769.795
7761.184
7751.131
7739.211
7727.557
7730.503
7773.148
6296.315
6152.142
5982.033
5816.432
5652.338
5491.524
5335.143
5183.788
5038.328
4890.308
4758.287
4640.092
4523.785
4418.341
4320.951
4231.552
4150.489
4074.26
3990.869
3949.432
3885.911
3825.923
3778.595
3737.36
3701.049
3669.778
3642.444
3620.429
3604.674
3575.675
3560.909
3549.536
3538.789
3530.894
3524.826
3520.308
3519.222
3526.708
3510.776
3505.881
3511.166
3516.832
3522.83
3530.066
3538.289
3547.28
3556.241
3563.814
3578.232
3590.833
3601.689
3612.767
3624.429
3636.519
3649.782
3670.364
3669.823
3685.453
3705.995
3726.777
3747.87
3771.53
3799.544
3832.403
3870.162
3913.274
3962.524
4016.239
4074.317
4138.122
4208.906
4288.117
4375.848
4471.707
4573.016
4669.644
4747.952
4815.536
4889.054
4963.435
5030.401
5089.231
5144.347
5198.677
5252.655
5305.561
5356.66
5406.029
5455.236
5498.803
5543.26
5587.901
5633.527
5681.739
5734.763
5793.733
5856.447
5920.576
5988.443
6053.721
6103.512
6134.784
6146.922
6136.549
6104.533
6079.935
6075.574
6072.934
6072.088
6072.056
6068.291
6069.517
6077.871
6095.269
6124.08
6165.606
6222.165
6297.447
6385.529
6485.142
6585.525
6657.848
6686.277
6683.842
6657.144
6653.274
6750.423
6812.437
6883.07
6941.318
6943.588
6928.65
6920.867
6922.44
6931.124
6946.141
6967.29
6993.743
7024.433
7059.036
7095.998
7134.541
7174.021
7213.873
7253.685
7293.148
7332.024
7370.13
7407.322
7443.487
7478.534
7512.395
7545.007
7576.319
7606.281
7634.735
7661.742
7687.266
7711.187
7733.453
7754.042
7772.949
7790.164
7805.703
7819.604
7831.92
7842.726
7852.115
7860.193
7867.08
7872.893
7877.834
7882.076
7885.769
7889.047
7892.059
7894.927
7897.766
7900.676
7903.748
7907.089
7910.74
7915.044
7919.664
7924.69
7930.222
7936.327
7942.934
7950.072
7957.741
7965.923
7974.6
7983.74
7993.311
8003.264
8013.556
8024.133
8034.933
8045.907
8056.979
8068.103
8079.309
8090.39
8102.174
8112.656
8121.657
8131.307
8140.904
8149.704
8157.717
8164.787
8170.776
8175.547
8178.943
8180.842
8181.145
8179.761
8176.656
8171.848
8165.398
8157.456
8148.247
8138.113
8127.622
8117.264
8107.333
8097.859
8088.693
8079.545
8070.109
8060.252
8050.063
8039.504
8028.748
8017.849
8006.808
7995.61
7984.291
7973.971
7968.673
7973.313
7983.315
7993.705
8005.715
8017.909
8030.898
8030.342
8025.17
8041.817
8065.734
8087.331
8106.442
8124.667
8140.752
8152.548
8159.192
8153.927
8144.847
8146.955
8155.443
8165.396
8175.057
8183.716
8191.364
8197.803
8203.19
8207.687
8210.968
8213.544
8216.773
8221.487
8227.294
8233.055
8238.375
8248.724
8249.242
8243.241
8236.009
8227.72
8217.117
8203.451
8186.739
8167.311
8145.366
8121.126
8094.993
8067.53
8039.419
8011.426
7984.378
7958.963
7935.723
7915.139
7897.619
7883.467
7872.875
7865.899
7862.488
7862.481
7865.621
7871.557
7879.887
7890.169
7901.949
7914.793
7928.296
7942.107
7955.935
7969.54
7982.721
7995.328
8007.257
8018.439
8028.828
8038.399
8047.146
8055.069
8062.17
8068.429
8073.79
8078.207
8081.784
8084.665
8086.919
8088.587
8089.716
8090.335
8090.459
8090.099
8088.958
8087.435
8085.702
8083.742
8081.533
8079.092
8076.444
8073.61
8070.605
8067.45
8064.164
8060.765
8057.272
8053.7
8050.061
8046.368
8042.63
8038.854
8035.047
8031.213
8027.355
8023.476
8019.577
8015.658
8011.722
8007.768
8003.797
7999.808
7995.802
7991.779
7987.739
7983.681
7979.607
7975.517
7971.41
7967.288
7963.151
7958.998
7954.831
7950.651
7946.456
7942.249
7938.03
7933.799
7929.557
7925.305
7921.043
7916.772
7912.492
7908.203
7903.905
7899.598
7895.28
7890.949
7886.606
7882.246
7877.871
7873.479
7869.068
7864.634
7860.173
7855.68
7851.151
7846.58
7841.959
7837.281
7832.537
7827.715
7822.805
7817.787
7812.649
7807.363
7801.912
7796.212
7790.277
7784.119
7777.527
7770.545
7763.313
7756.254
7750.189
7746.587
7745.518
7746.814
3884.443
3915.503
3963.46
4026.764
4105.525
4199.144
4307.419
4429.822
4565.947
4714.729
4873.123
5043.885
5220.781
5403.448
5590.228
5778.713
5965.465
6147.914
6327.101
6516.944
6674.874
6821.073
6953.056
7067.124
7160.748
7231.908
7279.349
7301.722
7304.469
7278.663
7227.579
7154.539
7061.353
6950.279
6823.988
6685.309
6537.407
6383.391
6213.883
6053.857
5890.208
5727.075
5565.82
5407.772
5254.224
5106.378
4965.917
4832.497
4703.699
4586.284
4475.598
4373.051
4278.917
4192.559
4114.351
4052.394
3944.722
3886.387
3839.044
3793.145
3749.404
3710.025
3675.949
3646.857
3622.039
3600.149
3580.949
3565.488
3552.04
3539.945
3529.872
3522.246
3516.899
3513.459
3511.361
3510.003
3510.155
3511.221
3513.318
3517.099
3522.682
3529.765
3538.043
3547.382
3557.758
3569.132
3581.022
3592.926
3604.874
3616.83
3628.472
3639.631
3649.985
3660.404
3671.428
3684.829
3700.266
3716.395
3734.401
3755.948
3782.183
3813.407
3849.907
3891.62
3938.01
3989.439
4046.572
4110.279
4181.148
4258.993
4343.615
4434.146
4527.658
4623.291
4711.221
4788.375
4865.04
4944.155
5020.179
5088.859
5151.56
5211.298
5268.972
5323.911
5375.294
5422.806
5465.803
5510.661
5552.034
5592.284
5632.971
5675.789
5722.401
5774.135
5830.838
5888.936
5946.254
6002.231
6051.401
6090.714
6118.297
6134.259
6135.231
6128.944
6124.433
6120.052
6111.416
6097.787
6081.153
6067.517
6060.615
6063.401
6078.582
6107.258
6149.372
6204.694
6273.346
6349.121
6429.413
6503.363
6550.054
6566.524
6576.07
6620.873
6714.177
6810.804
6876.931
6903.143
6921.899
6937.31
6938.973
6934.336
6936.473
6948.31
6968.158
6994.12
7025.153
7060.04
7097.713
7136.187
7175.579
7215.255
7254.776
7293.849
7332.272
7369.884
7406.558
7442.193
7476.71
7510.046
7542.143
7572.938
7602.377
7630.39
7656.952
7682.027
7705.541
7727.44
7747.695
7766.289
7783.225
7798.532
7812.251
7824.427
7835.121
7844.431
7852.473
7859.37
7865.265
7870.332
7874.733
7878.618
7882.128
7885.398
7888.55
7891.701
7894.958
7898.408
7902.134
7906.209
7910.707
7915.593
7920.931
7926.653
7933.273
7940.275
7947.773
7955.802
7964.346
7973.381
7982.875
7992.79
8003.078
8013.688
8024.565
8035.641
8046.873
8058.183
8069.554
8080.952
8092.359
8103.537
8114.579
8125.411
8135.353
8144.341
8152.56
8159.952
8166.321
8171.487
8175.291
8177.596
8178.289
8177.273
8174.456
8169.867
8163.602
8155.785
8146.605
8136.355
8125.462
8114.5
8104.107
8094.688
8085.833
8077.204
8068.409
8058.909
8048.479
8037.379
8026.21
8015.55
8005.58
7996.228
7987.725
7980.691
7975.965
7974.795
7977.38
7982.968
7989.802
7996.739
7999.019
7992.329
7991.193
8004.061
8030.4
8051.167
8067.872
8083.802
8099.425
8114.011
8127.022
8135.448
8140.764
8143.926
8149.565
8157.724
8166.002
8173.89
8181.609
8188.908
8195.703
8201.654
8206.801
8212.01
8217.772
8224.533
8231.589
8237.558
8241.829
8245.937
8249.798
8249.204
8245.948
8240.464
8232.589
8222.05
8208.389
8191.583
8171.888
8149.47
8124.575
8097.63
8069.219
8040.061
8011.042
7983.068
7956.836
7932.824
7911.517
7893.345
7878.632
7867.586
7860.282
7856.664
7856.603
7859.777
7865.84
7874.371
7884.901
7896.948
7910.05
7923.783
7937.782
7951.763
7965.499
7978.755
7991.389
8003.322
8014.492
8024.856
8034.39
8043.083
8050.932
8057.938
8064.096
8069.399
8073.843
8077.482
8080.413
8082.708
8084.412
8085.566
8086.219
8086.344
8085.921
8085.001
8083.719
8082.13
8080.255
8078.115
8075.74
8073.158
8070.392
8067.461
8064.385
8061.183
8057.871
8054.468
8050.987
8047.441
8043.84
8040.194
8036.509
8032.791
8029.045
8025.273
8021.478
8017.661
8013.823
8009.964
8006.086
8002.189
7998.271
7994.335
7990.379
7986.403
7982.408
7978.395
7974.362
7970.311
7966.242
7962.156
7958.052
7953.931
7949.794
7945.641
7941.472
7937.289
7933.091
7928.88
7924.656
7920.42
7916.172
7911.912
7907.642
7903.361
7899.068
7894.764
7890.448
7886.118
7881.773
7877.414
7873.038
7868.645
7864.231
7859.793
7855.327
7850.83
7846.295
7841.718
7837.091
7832.407
7827.657
7822.831
7817.916
7812.899
7807.762
7802.489
7797.057
7791.445
7785.638
7779.679
7773.56
7767.545
7761.849
7756.893
7752.992
7750.565
7749.434
4011.748
3975.773
3944.776
3913.797
3887.949
3868.393
3860.335
3866.894
3885.611
3885.635
3869.726
3866.232
3881.74
3913.046
3960.222
4021.59
4097.613
4187.744
4291.842
4410.044
4540.286
4683.35
4837.66
5001.412
5173.033
5350.679
5532.365
5715.848
5898.745
6078.998
6256.072
6460.625
6623.433
6766.952
6893.454
7001.899
7089.94
7156.173
7199.682
7220
7217.214
7189.084
7135.471
7058.579
6961.126
6845.927
6716.009
6574.521
6424.458
6268.61
6109.178
5948.259
5786.688
5625.679
5466.701
5311.155
5160.134
5015.242
4877.943
4748.15
4625.643
4511.294
4405.451
4307.889
4218.269
4136.024
4060.55
3990.418
3922.258
3864.642
3816.338
3770.892
3728.066
3689.891
3657.159
3629.477
3605.86
3585.685
3568.637
3553.642
3540.346
3529.127
3520.093
3513.211
3508.334
3505.132
3503.371
3503.177
3503.827
3504.78
3507.146
3511.543
3517.745
3525.319
3534.059
3544.018
3555.23
3567.423
3580.334
3593.698
3606.929
3619.478
3630.886
3641.069
3650.2
3659.014
3668.105
3677.967
3689.221
3702.321
3718.051
3737.325
3760.911
3789.266
3822.645
3860.998
3904.278
3952.97
4007.767
4069.247
4137.754
4213.211
4295.297
4383.434
4475.769
4570.339
4662.195
4749.31
4835.044
4921.003
5004.394
5082.28
5154.469
5222.133
5285.696
5344.625
5398.286
5446.612
5490.134
5530.678
5567.666
5602.265
5636.253
5671.949
5711.286
5755.441
5804.239
5855.399
5906.896
5958.02
6007.659
6054.956
6097.708
6132.93
6156.916
6170.299
6175.229
6170.354
6154.133
6128.225
6096.267
6064.662
6039.116
6023.557
6020.371
6030.714
6054.844
6092.002
6141.162
6201.248
6271.194
6340.836
6391.696
6431.285
6481.39
6553.718
6648.9
6738.44
6803.417
6856.523
6902.321
6926.93
6935.502
6941.209
6948.843
6961.063
6978.889
7002.538
7031.942
7066.399
7103.835
7142.728
7181.839
7221.044
7260.058
7298.586
7336.427
7373.436
7409.497
7444.521
7478.436
7511.183
7542.708
7572.956
7601.875
7629.409
7655.507
7680.126
7703.21
7724.72
7744.615
7762.859
7779.445
7794.405
7807.806
7819.709
7830.15
7839.207
7847.019
7853.733
7859.497
7864.473
7868.822
7872.692
7876.225
7879.553
7882.799
7886.075
7889.479
7893.096
7897.006
7901.277
7905.974
7911.137
7916.822
7923.145
7929.647
7936.865
7944.673
7953.032
7961.926
7971.333
7981.22
7991.546
8002.261
8013.308
8024.627
8036.151
8047.821
8059.567
8071.328
8083.053
8094.638
8106.047
8117.079
8127.488
8137.158
8146.052
8154.116
8161.202
8167.131
8171.735
8174.843
8176.321
8176.081
8174.057
8170.197
8164.554
8157.26
8148.468
8138.401
8127.403
8115.918
8104.468
8093.899
8084.941
8076.388
8068.193
8060.174
8051.071
8040.26
8027.191
8012.082
8001.714
7995.077
7989.011
7982.728
7978.017
7975.066
7973.593
7973.102
7976.901
7983.357
7972.663
7885.788
7875.532
7882.39
7933.245
8014.127
8037.699
8049.296
8061.988
8076.033
8090.44
8104.695
8117.302
8126.927
8134.4
8143.689
8153.425
8162.556
8170.858
8178.496
8185.719
8192.791
8199.83
8206.817
8213.533
8219.926
8226.004
8232.517
8239.978
8247.723
8252.676
8254.958
8254.817
8252.025
8246.387
8237.966
8226.731
8212.379
8194.79
8174.159
8150.723
8124.754
8096.689
8067.126
8036.779
8006.552
7977.567
7950.602
7925.95
7904.079
7885.475
7870.495
7859.359
7852.15
7848.818
7849.128
7852.832
7859.532
7868.764
7880.014
7892.759
7906.498
7920.778
7935.19
7949.487
7963.516
7977.007
7989.768
8001.768
8012.964
8023.318
8032.811
8041.434
8049.189
8056.082
8062.119
8067.312
8071.68
8075.271
8078.155
8080.391
8082.03
8083.118
8083.721
8083.833
8083.448
8082.613
8081.413
8079.892
8078.058
8075.94
8073.581
8071.013
8068.263
8065.352
8062.302
8059.131
8055.859
8052.5
8049.067
8045.574
8042.029
8038.441
8034.815
8031.158
8027.472
8023.76
8020.025
8016.267
8012.486
8008.685
8004.862
8001.018
7997.153
7993.266
7989.359
7985.43
7981.48
7977.51
7973.519
7969.508
7965.478
7961.428
7957.359
7953.271
7949.166
7945.042
7940.901
7936.744
7932.57
7928.381
7924.178
7919.96
7915.729
7911.485
7907.229
7902.96
7898.68
7894.387
7890.081
7885.762
7881.429
7877.081
7872.718
7868.339
7863.94
7859.52
7855.076
7850.604
7846.101
7841.561
7836.98
7832.352
7827.67
7822.927
7818.114
7813.222
7808.243
7803.166
7797.988
7792.704
7787.317
7781.924
7776.499
7771.245
7766.345
7762.062
7758.502
7755.784
7753.232
4455.794
4420.24
4384.704
4347.085
4307.149
4263.019
4221.769
4179.894
4138.447
4097.146
4056.881
4018.787
3981.602
3946.906
3915.951
3888.298
3864.259
3849.775
3842.687
3839.14
3835.044
3834.732
3843.54
3864.543
3899.268
3947.949
4009.891
4085.656
4176.572
4281.767
4400.821
4532.947
4677.064
4832.205
4997.228
5170.149
5348.937
5531.486
5715.532
5898.677
6078.768
6251.902
6407.703
6563.748
6705.208
6831.097
6938.985
7026.604
7092.85
7136.281
7155.91
7151.623
7122.679
7068.795
6991.313
6892.743
6776.093
6644.687
6502.05
6351.467
6195.822
6037.059
5877.147
5717.577
5558.798
5401.797
5247.64
5097.195
4952.861
4816.214
4687.233
4566.424
4454.694
4352.051
4257.932
4171.564
4092.4
4019.311
3952.327
3891.141
3836.353
3787.799
3743.553
3703.104
3667.234
3636.459
3610.625
3588.947
3570.569
3554.689
3540.609
3528.308
3517.991
3509.621
3503.117
3498.471
3495.581
3494.242
3494.177
3494.917
3496.562
3499.751
3504.737
3511.361
3519.254
3528.339
3538.907
3551.133
3564.857
3579.683
3594.981
3609.883
3623.549
3635.263
3644.742
3652.157
3658.174
3663.824
3670.049
3677.528
3687.018
3699.109
3714.518
3733.89
3757.69
3786.288
3820.024
3859.072
3903.673
3954.792
4013.053
4078.656
4151.758
4232.172
4319.348
4411.852
4507.652
4604.478
4700.749
4796.405
4891.502
4984.546
5073.402
5156.821
5234.461
5306.035
5370.906
5428.464
5478.642
5521.969
5559.373
5591.141
5618.557
5643.414
5668.657
5696.681
5728.773
5765.518
5806.67
5851.092
5898.95
5953.287
6013.575
6075.847
6133.381
6180.923
6214.757
6231.706
6229.231
6206.378
6166.246
6115.272
6061.826
6012.934
5973.852
5946.779
5933.453
5935.333
5951.969
5983.137
6028.737
6087.543
6153.722
6218.383
6284.593
6359.648
6446.681
6544.52
6639.545
6724.45
6801.331
6862.84
6904.72
6932.179
6951.096
6966.794
6983.243
7002.058
7024.468
7051.211
7083.023
7118.794
7156.224
7194.178
7232.258
7270.17
7307.7
7344.592
7380.677
7415.842
7450.002
7483.087
7515.041
7545.81
7575.342
7603.584
7630.477
7655.964
7679.994
7702.518
7723.489
7742.87
7760.64
7776.803
7791.363
7804.314
7815.743
7825.763
7834.447
7841.912
7848.316
7853.816
7858.571
7862.74
7866.476
7869.919
7873.202
7876.445
7879.755
7883.229
7886.95
7890.994
7895.425
7900.299
7905.668
7911.581
7918.038
7924.965
7932.496
7940.626
7949.336
7958.618
7968.454
7978.811
7989.647
8000.899
8012.508
8024.41
8036.531
8048.799
8061.133
8073.448
8085.669
8097.684
8109.407
8120.603
8131.177
8141.044
8150.088
8158.162
8165.105
8170.762
8174.977
8177.573
8178.423
8177.467
8174.625
8169.852
8163.259
8155.028
8145.299
8134.228
8122.139
8109.437
8096.627
8085.142
8076.518
8063.395
8053.155
8050.385
8046.638
8035.481
8014.967
7993.329
7983.922
7985.979
7984.433
7979.433
7975.065
7971.467
7969.718
7906.129
7827.276
7834.686
7842.639
7851.418
7856.926
7911.763
7999.954
8021.781
8026.145
8032.752
8041.614
8052.38
8065.182
8079.859
8094.226
8106.226
8117.056
8129.158
8141.687
8153.274
8163.085
8171.789
8179.992
8187.868
8195.412
8202.582
8209.5
8216.594
8224.008
8231.615
8239.061
8246.243
8252.859
8257.779
8259.101
8256.497
8250.49
8241.488
8229.525
8214.412
8195.981
8174.376
8149.899
8122.851
8093.648
8062.892
8031.329
7999.817
7969.6
7941.727
7916.438
7894.044
7875.096
7859.992
7848.964
7842.093
7839.305
7840.331
7844.899
7852.578
7862.853
7875.154
7888.893
7903.498
7918.551
7933.591
7948.317
7962.617
7976.328
7989.332
8001.543
8012.883
8023.315
8032.825
8041.413
8049.089
8055.87
8061.774
8066.828
8071.068
8074.54
8077.299
8079.398
8080.885
8081.811
8082.221
8082.14
8081.604
8080.669
8079.455
8078.018
8076.265
8074.166
8071.797
8069.216
8066.455
8063.541
8060.495
8057.338
8054.086
8050.756
8047.359
8043.906
8040.406
8036.866
8033.291
8029.686
8026.053
8022.396
8018.714
8015.009
8011.281
8007.531
8003.758
7999.963
7996.145
7992.305
7988.441
7984.555
7980.646
7976.715
7972.762
7968.787
7964.792
7960.776
7956.739
7952.682
7948.605
7944.509
7940.394
7936.26
7932.109
7927.941
7923.757
7919.557
7915.343
7911.114
7906.872
7902.616
7898.347
7894.065
7889.77
7885.462
7881.14
7876.804
7872.453
7868.087
7863.703
7859.301
7854.878
7850.432
7845.96
7841.458
7836.925
7832.355
7827.744
7823.088
7818.382
7813.622
7808.806
7803.932
7799.006
7794.038
7789.063
7784.091
7779.189
7774.553
7770.259
7766.468
7763.147
7760.364
7757.438
4806.656
4766.209
4729.685
4694.38
4661.721
4625.208
4593.114
4560.688
4527.549
4493.663
4459.218
4424.483
4387.73
4350.243
4310.042
4263.864
4222.358
4180.968
4139.591
4098.466
4057.8
4018.335
3980.324
3944.051
3910.383
3880.962
3855.896
3835.479
3820.163
3809.314
3803.073
3803.84
3813.745
3834.434
3867.151
3913.008
3973.28
4047.827
4136.647
4239.775
4356.87
4487.217
4629.784
4783.311
4946.456
5117.395
5294.285
5474.996
5657.315
5838.627
6016.342
6187.337
6348.355
6501.522
6641.241
6765.439
6871.22
6956.098
7018.822
7058.379
7074.03
7065.567
7032.879
6975.987
6895.802
6794.489
6675.079
6541.138
6396.629
6244.968
6089.477
5932.537
5775.227
5619.027
5464.268
5311.205
5161.134
5014.986
4873.553
4737.764
4609.56
4491.083
4382.926
4284.526
4194.956
4113.173
4038.496
3970.206
3908.113
3851.483
3799.599
3752.483
3709.923
3671.706
3638.12
3609.585
3586.258
3567.245
3551.155
3537.064
3524.437
3513.244
3503.663
3495.706
3489.464
3485.176
3482.81
3482.006
3482.328
3483.57
3486.08
3490.14
3495.583
3502.518
3510.678
3520.093
3531.466
3545.263
3561.347
3578.959
3597.065
3614.59
3630.375
3643.128
3651.977
3656.853
3658.703
3659.653
3661.558
3664.573
3669.355
3676.137
3685.976
3699.697
3717.632
3740.21
3768.244
3801.95
3840.763
3887.048
3941.67
4004.62
4075.734
4154.621
4241.075
4334.505
4432.889
4535.075
4640.186
4746.827
4853.808
4959.509
5061.711
5158.413
5248.231
5330.119
5403.049
5466.221
5519.471
5563.133
5597.541
5623.296
5641.566
5654.573
5665.441
5676.979
5691.131
5709.589
5734.969
5768.976
5813.906
5876.711
5957.087
6047.667
6135.969
6212.286
6268.682
6298.833
6299.341
6269.984
6214.041
6139.992
6059.458
5981.464
5912.928
5856.846
5814.949
5789.465
5781.305
5790.162
5815.515
5864.336
5935.773
6019.203
6110.515
6210.752
6317.912
6429.908
6540.165
6642.977
6734.669
6811.737
6874.94
6924.464
6961.885
6990.516
7014.285
7036.35
7058.84
7083.69
7112.147
7144.209
7178.631
7214.148
7250.137
7286.222
7322.046
7357.421
7392.114
7425.973
7458.906
7490.839
7521.71
7551.463
7580.04
7607.384
7633.429
7658.113
7681.374
7703.155
7723.401
7742.081
7759.208
7774.79
7788.818
7801.229
7812.054
7821.471
7829.634
7836.669
7842.705
7847.881
7852.355
7856.288
7859.835
7863.138
7866.328
7869.525
7872.832
7876.344
7880.141
7884.294
7888.859
7893.885
7899.411
7905.47
7912.095
7919.302
7927.133
7935.59
7944.676
7954.386
7964.702
7975.606
7987.055
7998.965
8011.264
8023.888
8036.758
8049.787
8062.88
8075.937
8088.852
8101.502
8113.743
8125.486
8136.543
8146.797
8156.102
8164.303
8171.252
8176.818
8180.829
8183.072
8183.425
8181.808
8178.045
8172.115
8164.263
8154.769
8143.749
8131.201
8117.462
8102.854
8087.452
8071.238
8042.9
7999.083
8021.437
8045.51
8043.955
8031.89
8013.87
7985.747
7975.689
7979.006
7979.502
7975.846
7963.401
7845.054
7817.248
7876.447
7975.742
8009.697
8015.188
8017.913
8018.747
8017.297
8014.454
8012.545
8013.103
8016.525
8022.53
8030.929
8041.289
8053.064
8066.4
8082.272
8099.001
8114.053
8127.492
8140.386
8152.454
8163.115
8172.63
8181.161
8189.033
8196.621
8204.178
8211.829
8219.558
8227.382
8234.994
8241.997
8248.3
8253.929
8257.498
8256.918
8251.929
8242.949
8230.419
8214.541
8195.364
8172.996
8147.627
8119.535
8089.153
8057.105
8024.204
7991.412
7959.961
7931.05
7905.016
7882.116
7862.898
7847.796
7837.05
7830.734
7828.751
7830.719
7836.4
7845.321
7856.906
7870.496
7885.464
7901.074
7916.781
7932.387
7947.679
7962.407
7976.449
7989.763
8002.201
8013.679
8024.17
8033.675
8042.21
8049.796
8056.461
8062.237
8067.162
8071.28
8074.64
8077.291
8079.278
8080.646
8081.433
8081.658
8081.365
8080.639
8079.538
8078.136
8076.525
8074.691
8072.556
8070.145
8067.527
8064.741
8061.813
8058.765
8055.617
8052.384
8049.08
8045.716
8042.303
8038.847
8035.355
8031.832
8028.279
8024.701
8021.097
8017.469
8013.818
8010.143
8006.444
8002.721
7998.974
7995.203
7991.407
7987.586
7983.741
7979.872
7975.979
7972.063
7968.124
7964.163
7960.179
7956.174
7952.146
7948.097
7944.028
7939.937
7935.827
7931.698
7927.551
7923.386
7919.204
7915.006
7910.793
7906.565
7902.322
7898.066
7893.797
7889.513
7885.217
7880.906
7876.582
7872.244
7867.892
7863.524
7859.14
7854.738
7850.318
7845.878
7841.416
7836.93
7832.419
7827.88
7823.312
7818.714
7814.087
7809.432
7804.754
7800.066
7795.382
7790.746
7786.15
7781.677
7777.519
7773.676
7770.222
7767.103
7764.405
7761.503
4976.569
4965.558
4932.045
4887.528
4841.848
4800.05
4761.309
4725.604
4692.352
4658.989
4622.024
4590.241
4558.507
4526.134
4492.845
4458.605
4423.29
4386.567
4348.474
4309.584
4270.704
4229.928
4188.647
4147.067
4105.557
4064.247
4023.438
3983.516
3944.489
3906.707
3871.674
3841.28
3815.577
3794.717
3779.667
3771.647
3772.02
3782.041
3802.903
3835.49
3880.87
3939.78
4012.661
4099.714
4200.981
4316.163
4444.606
4585.346
4737.09
4898.474
5067.463
5242.196
5420.078
5598.602
5776.017
5949.627
6117.123
6276.619
6426.055
6561.928
6681.133
6780.941
6859.262
6914.925
6947.333
6956.209
6941.535
6903.393
6842.021
6758.061
6653.328
6530.828
6394.042
6247.588
6094.911
5939.533
5784.944
5631.921
5480.862
5332.715
5186.904
5042.726
4901.423
4764.134
4631.967
4507.772
4393.891
4290.92
4198.252
4114.683
4039.03
3970.582
3908.653
3852.372
3800.664
3752.681
3708.389
3668.095
3632.106
3600.899
3575.031
3555.265
3540.141
3527.312
3515.831
3505.053
3494.995
3485.983
3478.099
3471.816
3467.922
3466.398
3466.589
3467.76
3469.5
3472.598
3477.616
3483.682
3491.198
3499.41
3508.772
3521.076
3537.087
3556.581
3578.296
3600.648
3622.215
3641.411
3656.113
3664.375
3665.642
3661.347
3655.725
3651.961
3649.927
3649.174
3649.851
3652.905
3659.413
3669.723
3684.383
3705.155
3733.025
3763.622
3804.24
3855.42
3916.205
3985.804
4063.146
4148.22
4242.378
4343.502
4451.667
4566.556
4686.004
4807.713
4929.125
5047.411
5159.928
5264.507
5359.357
5442.882
5513.877
5571.823
5616.589
5648.224
5666.743
5672.845
5669.697
5661.142
5650.144
5639.72
5633.007
5636.857
5654.657
5694.181
5769.982
5882.194
6012.875
6142.434
6255.004
6338.306
6384.83
6388.969
6350.487
6274.247
6170.792
6054.893
5941.315
5837.819
5747.879
5673.869
5618.248
5581.675
5556.766
5566.097
5615.744
5697.856
5798.05
5913.098
6040.174
6174.253
6309.576
6438.844
6557.786
6665.173
6760.484
6842.918
6911.684
6967.774
7012.446
7047.946
7076.77
7101.771
7126.105
7151.9
7180.287
7210.906
7242.975
7275.941
7309.302
7342.713
7375.852
7408.539
7440.571
7471.818
7502.19
7531.614
7560.022
7587.346
7613.517
7638.46
7662.101
7684.369
7705.198
7724.539
7742.363
7758.672
7773.439
7786.59
7798.151
7808.223
7816.92
7824.422
7830.88
7836.401
7841.125
7845.213
7848.834
7852.141
7855.277
7858.369
7861.527
7864.852
7868.431
7872.336
7876.628
7881.352
7886.549
7892.244
7898.461
7905.269
7912.72
7920.841
7929.639
7939.125
7949.298
7960.144
7971.632
7983.721
7996.356
8009.461
8022.953
8036.737
8050.71
8064.76
8078.766
8092.603
8106.13
8119.202
8131.682
8143.393
8154.185
8163.896
8172.373
8179.468
8185.033
8188.873
8190.835
8190.691
8188.067
8182.449
8175.064
8165.95
8155.187
8142.665
8128.42
8112.896
8095.778
8070.97
7985.415
7865.386
7962.214
8043.119
8052.919
8040.707
8026.91
8013.51
7998.474
7983.032
7974.392
7971.787
7970.673
7974.567
7981.447
7992.549
7998.514
8000.963
8008.984
8013.377
8013.987
8012.602
8008.964
8004.298
8000.767
7999.765
8001.327
8005.239
8011.461
8020.14
8031.383
8044.975
8060.157
8076.292
8094.544
8112.785
8128.023
8140.906
8152.667
8163.918
8173.596
8182.15
8190.147
8197.797
8205.289
8212.765
8220.264
8227.696
8234.84
8240.941
8245.858
8249.622
8251.316
8248.899
8241.169
8228.884
8212.766
8193.081
8170.032
8143.844
8114.805
8083.331
8050.053
8015.856
7981.82
7949.244
7919.326
7892.469
7869.076
7849.679
7834.712
7824.411
7818.841
7817.95
7820.966
7827.947
7838.309
7851.413
7866.44
7882.429
7898.717
7915.039
7931.271
7947.22
7962.552
7977.065
7990.662
8003.246
8014.767
8025.221
8034.631
8043.035
8050.47
8056.972
8062.584
8067.351
8071.321
8074.547
8077.076
8078.952
8080.218
8080.915
8081.086
8080.79
8080.06
8078.9
8077.343
8075.474
8073.357
8071.024
8068.508
8065.831
8063.011
8060.068
8057.02
8053.884
8050.674
8047.401
8044.076
8040.707
8037.3
8033.86
8030.391
8026.895
8023.373
8019.827
8016.256
8012.66
8009.039
8005.393
8001.722
7998.024
7994.3
7990.549
7986.772
7982.968
7979.139
7975.285
7971.405
7967.502
7963.575
7959.624
7955.65
7951.652
7947.632
7943.588
7939.522
7935.436
7931.329
7927.202
7923.056
7918.893
7914.712
7910.515
7906.303
7902.075
7897.833
7893.576
7889.306
7885.021
7880.723
7876.412
7872.087
7867.748
7863.396
7859.03
7854.65
7850.256
7845.847
7841.424
7836.985
7832.532
7828.065
7823.584
7819.091
7814.59
7810.088
7805.593
7801.12
7796.687
7792.325
7788.063
7783.943
7780.12
7776.599
7773.426
7770.533
7767.982
7765.205
4967.67
4943.804
4892.374
4853.223
4814.802
4778.834
4745.113
4713.139
4682.295
4652.271
4623.007
4592.911
4562.203
4530.592
4498.033
4464.266
4429.171
4392.6
4354.401
4314.894
4275.161
4234.39
4192.839
4150.929
4108.849
4066.393
4023.352
3980.119
3937.596
3896.455
3857.85
3823.619
3794.78
3771.586
3754.958
3745.975
3745.733
3755.246
3775.447
3807.392
3851.845
3909.492
3980.862
4066.274
4165.776
4279.085
4405.562
4544.292
4693.869
4852.878
5018.828
5188.98
5361.464
5534.697
5707.388
5877.428
6041.395
6196.358
6339.534
6468.051
6578.816
6669.213
6737.418
6782.662
6804.903
6804.465
6781.776
6736.99
6670.401
6582.497
6474.463
6349.485
6210.761
6062.887
5910.063
5755.591
5603.123
5455.105
5311.831
5172.383
5034.936
4897.854
4762.562
4631.39
4505.704
4387.408
4278.892
4181.937
4096.02
4019.283
3950.558
3889.533
3835.571
3786.936
3741.709
3698.537
3657.482