/*--------------------------------*- C++ -*----------------------------------*\
| =========                 |                                                 |
| \\      /  F ield         | foam-extend: Open Source CFD                    |
|  \\    /   O peration     | Version:     3.1                                |
|   \\  /    A nd           | Web:         http://www.extend-project.de       |
|    \\/     M anipulation  |                                                 |
\*---------------------------------------------------------------------------*/
FoamFile
{
    version     2.0;
    format      ascii;
    class       surfaceScalarField;
    location    "11.5";
    object      phi;
}
// * * * * * * * * * * * * * * * * * * * * * * * * * * * * * * * * * * * * * //

dimensions      [0 3 -1 0 0 0 0];

internalField   nonuniform List<scalar> 
275122
(
-0.0003011231
0.0003024813
-2.804018e-07
-1.077863e-06
-0.0002617337
0.000245633
1.097417e-06
1.500331e-05
-0.000248406
0.0002526063
-3.046038e-07
-3.895738e-06
-0.0002672486
0.0002723093
-3.722102e-07
-4.688476e-06
-0.000284614
0.0002853982
-3.848919e-07
-3.993516e-07
-0.000281426
0.0002798384
-3.369957e-07
1.924591e-06
-0.0002753793
0.0002740446
-2.852341e-07
1.619886e-06
-0.0002704052
0.0002693387
-2.569106e-07
1.32346e-06
-0.0002666038
0.0002658457
-2.295608e-07
9.876312e-07
-0.0002639354
0.0002634051
-2.031494e-07
7.334209e-07
-0.0002620244
0.0002616138
-1.794956e-07
5.901793e-07
-0.0002604543
0.0002600883
-1.603371e-07
5.264149e-07
-0.0002590216
0.0002586829
-1.434313e-07
4.821495e-07
-0.000257698
0.0002573836
-1.274292e-07
4.41865e-07
-0.0002564625
0.0002561601
-1.104696e-07
4.128708e-07
-0.0002552249
0.000254909
-9.184894e-08
4.077045e-07
-0.0002539039
0.0002535659
-7.347527e-08
4.114798e-07
-0.000252427
0.0002520611
-6.210274e-08
4.280259e-07
-0.0002508656
0.0002506405
-9.381298e-08
3.188985e-07
-0.000250684
0.0002516657
-3.834995e-07
-5.981681e-07
-0.0002819084
0.0002938026
-8.428684e-07
-1.105135e-05
-0.0002970793
0.0002961421
-4.10318e-08
9.782773e-07
-0.0002923341
0.0002909148
2.064374e-07
1.212837e-06
-0.0003028705
0.0003065434
8.054887e-07
-4.478454e-06
-0.0002833289
0.0002769021
3.967729e-07
6.030038e-06
-0.0002657617
0.0002639155
-3.342326e-07
2.18049e-06
-0.0002611054
0.0002603465
-3.07864e-07
1.066679e-06
-0.000258453
0.0002569942
-2.867609e-07
1.745637e-06
-0.0002449239
0.0002303742
-3.013889e-07
1.485103e-05
-0.0001716717
0.0001760852
3.723689e-09
-4.417158e-06
-0.0002475635
0.0002600625
-6.638948e-08
-1.243257e-05
-0.0002955284
0.0003072763
7.240572e-09
-1.175509e-05
-0.000343017
0.0003550655
7.779891e-09
-1.205627e-05
-0.0003915866
0.0004039051
8.284923e-09
-1.232671e-05
-0.0004412557
0.0004538334
8.598873e-09
-1.258635e-05
-0.0004920575
0.0005048847
8.460103e-09
-1.283573e-05
-0.0005437218
0.0005567324
6.420398e-09
-1.301698e-05
-0.0005959522
0.0006090772
5.966376e-09
-1.313096e-05
-0.0006484936
0.0006616719
9.349341e-09
-1.318767e-05
-0.0007006937
0.0007150111
2.106043e-07
-1.452801e-05
1.153297e-05
-0.0004851352
0.0004867695
2.959771e-10
-1.31676e-05
1.171221e-05
-0.0004915632
0.000493052
-9.549868e-10
-1.320007e-05
1.197526e-05
-0.0004972344
0.0004985487
-1.521986e-09
-1.3288e-05
1.226537e-05
-0.0005022286
0.0005033541
-1.549295e-09
-1.338942e-05
1.265549e-05
-0.0005063959
0.0005072993
-1.545599e-09
-1.355737e-05
1.298961e-05
-0.0005098094
0.0005105599
-1.11905e-09
-1.373898e-05
1.325902e-05
-0.0005127379
0.0005134114
-1.392944e-09
-1.39311e-05
1.34735e-05
-0.0005154034
0.0005160628
-8.488622e-10
-1.413201e-05
1.40599e-05
-0.0005179181
0.0005176324
-6.197472e-10
-1.377362e-05
1.240488e-05
-0.002110213
0.00211857
3.913115e-12
-5.865371e-05
1.276783e-05
1.238327e-05
1.274077e-05
1.325157e-05
-0.002125268
0.002130854
-6.18579e-11
-5.955388e-05
1.376021e-05
1.322558e-05
1.373067e-05
1.356458e-05
-0.002135592
0.002139998
-2.68668e-10
-5.91616e-05
1.383565e-05
1.354039e-05
1.381453e-05
1.362094e-05
-0.002144617
0.002148912
-1.693217e-10
-5.912729e-05
1.382187e-05
1.359385e-05
1.379589e-05
1.372161e-05
-0.002153054
0.00215672
-1.093335e-10
-5.871305e-05
1.382512e-05
1.369831e-05
1.38026e-05
1.37002e-05
-0.002160232
0.00216324
-8.722456e-11
-5.786186e-05
1.374983e-05
1.367673e-05
1.372723e-05
1.356067e-05
-0.002166086
0.002168319
-6.629467e-11
-5.644807e-05
1.356826e-05
1.35391e-05
1.35474e-05
1.32448e-05
-0.0021704
0.002171895
-6.090039e-11
-5.435673e-05
1.320643e-05
1.322381e-05
1.318682e-05
1.305256e-05
-0.00217298
0.0021728
-7.062488e-11
-5.158305e-05
1.284954e-05
1.303263e-05
1.282794e-05
1.187221e-05
-0.002171954
0.002173542
-7.580872e-11
-4.88082e-05
1.175266e-05
1.185018e-05
1.174526e-05
1.187033e-05
-0.002172276
0.002169457
-8.241655e-11
-4.4527e-05
1.181179e-05
1.186219e-05
1.180202e-05
1.107833e-05
-0.002166369
0.002162237
-8.15052e-11
-3.979197e-05
1.088833e-05
1.107391e-05
1.088336e-05
1.026421e-05
-0.002157634
0.002152121
-7.526686e-11
-3.513428e-05
1.006419e-05
1.025897e-05
1.005958e-05
9.38686e-06
-0.002146135
0.002139261
-6.190367e-11
-3.028216e-05
9.196225e-06
9.38113e-06
9.191612e-06
8.44703e-06
-0.002131903
0.002123793
-5.266051e-11
-2.524564e-05
8.24112e-06
8.432862e-06
8.234543e-06
7.471127e-06
-0.002115216
0.002105875
-4.564438e-11
-2.002484e-05
7.24727e-06
7.425082e-06
7.222709e-06
6.601642e-06
-0.002096052
0.002085449
-2.45774e-11
-1.503436e-05
6.385818e-06
6.410984e-06
6.238696e-06
6.376724e-06
-0.002073982
0.002060921
-1.08385e-11
-1.082801e-05
6.324698e-06
5.631784e-06
5.555751e-06
8.968154e-06
-0.002043763
0.002018095
-2.206785e-11
-5.912139e-06
9.520019e-06
6.969184e-06
6.123246e-06
-1.411018e-05
-0.001986242
0.001985838
-4.007625e-11
1.451412e-05
-1.883943e-05
-0.001987022
0.001975619
-3.077476e-11
3.024288e-05
-8.000799e-06
-0.001957939
0.00193895
4.211119e-12
2.698973e-05
-1.021689e-05
-0.001920308
0.00190155
6.969436e-11
2.897489e-05
-1.722608e-05
-0.001882597
0.001865531
8.090554e-11
3.429198e-05
-2.297784e-05
-0.001850736
0.001835762
2.62e-11
3.795114e-05
-2.050665e-05
-0.001820476
0.001805394
-3.932665e-11
3.55879e-05
-1.666457e-05
-0.001790683
0.001776649
-6.896472e-11
3.069881e-05
-1.247757e-05
-0.001763171
0.001750663
-6.734815e-11
2.498561e-05
-8.16332e-06
-0.001738895
0.001728386
-4.393977e-11
1.867273e-05
-4.078247e-06
-0.001718835
0.001710739
-6.599032e-12
1.217424e-05
-2.135593e-07
-0.0017037
0.001698178
2.56792e-11
5.73567e-06
3.142428e-06
-0.001693837
0.001691189
4.743584e-11
-4.937091e-07
6.588327e-06
-0.001689513
0.001689594
5.285803e-11
-6.669321e-06
9.732988e-06
-0.001690704
0.001693537
4.501394e-11
-1.256592e-05
1.266375e-05
-0.001697378
0.001702999
2.972923e-11
-1.828427e-05
1.553246e-05
-0.001709569
0.001717983
1.245938e-11
-2.394679e-05
1.84318e-05
-0.001727283
0.001738503
-5.656398e-12
-2.965166e-05
2.170898e-05
-0.001750338
0.001764062
-3.705192e-11
-3.543359e-05
2.562611e-05
-0.001777371
0.001792746
-8.236073e-11
-4.100098e-05
3.235918e-05
-0.001805292
0.001817671
-1.585511e-10
-4.473844e-05
2.040152e-05
-0.001835569
0.001853253
-1.877532e-10
-3.808528e-05
1.436434e-05
-0.001869789
0.001883809
-2.820183e-10
-2.838355e-05
5.869568e-06
-0.001893224
0.001902713
-1.468365e-10
-1.535818e-05
-1.996243e-05
-0.001913018
0.001922468
-2.289453e-10
1.051247e-05
-3.725048e-05
-0.001930601
0.001932093
-4.654696e-10
3.575914e-05
-5.059932e-05
-0.001927714
0.001920145
-6.563936e-10
5.816937e-05
-6.745157e-05
-0.001906801
0.001894723
-7.841041e-10
7.953041e-05
-8.442267e-05
-0.001875826
0.00186348
-8.026681e-10
9.676999e-05
-1.806218e-05
-0.001860165
0.001829561
-3.900046e-10
9.426103e-05
-1.394844e-05
-1.789493e-05
-1.375123e-05
-9.362575e-06
-0.001797446
0.001771722
3.129474e-10
6.230144e-05
-9.108475e-06
-9.185795e-06
-8.920923e-06
-5.804462e-06
-0.001748131
0.001726535
9.34757e-10
4.326139e-05
-5.151013e-06
-5.680867e-06
-5.029884e-06
-2.521843e-06
-0.00170742
0.001692428
1.157098e-09
2.408657e-05
-2.111053e-06
-2.427418e-06
-2.035836e-06
-1.440607e-07
-0.001680666
0.001672769
1.031258e-09
7.846124e-06
1.478041e-07
-1.316783e-07
1.775853e-07
1.769981e-06
-0.001667666
0.00166571
7.335555e-10
-5.690971e-06
2.038154e-06
1.782371e-06
2.055979e-06
3.214548e-06
-0.001665863
0.00166869
4.235283e-10
-1.605573e-05
3.382944e-06
3.2299e-06
3.400588e-06
4.022152e-06
-0.001673036
0.001679303
1.828392e-10
-2.25095e-05
4.082481e-06
4.038141e-06
4.099186e-06
4.265551e-06
-0.001686661
0.001695209
2.824292e-11
-2.561294e-05
4.255634e-06
4.277153e-06
4.265806e-06
4.114166e-06
-0.001704382
0.001714099
-5.207115e-11
-2.604334e-05
4.046188e-06
4.116674e-06
4.049579e-06
3.620977e-06
-0.001724062
0.001733882
-7.83393e-11
-2.404472e-05
3.494848e-06
3.618818e-06
3.490943e-06
2.679106e-06
-0.001743598
0.001752349
-7.422446e-11
-1.901009e-05
2.453726e-06
2.677202e-06
2.448399e-06
1.107545e-06
-0.001760447
0.001766768
-5.341013e-11
-1.012861e-05
7.934554e-07
1.110391e-06
7.967384e-07
-1.05453e-06
-0.001771926
0.001774372
-2.054133e-11
2.556134e-06
-1.470155e-06
-1.031125e-06
-1.445574e-06
-4.273743e-06
-0.001774893
0.001771637
3.382102e-11
2.162868e-05
-5.005386e-06
-4.195535e-06
-4.897796e-06
-9.619048e-06
-0.001764861
0.001753768
1.10783e-10
5.119953e-05
-1.093477e-05
-9.199938e-06
-1.035308e-05
-1.857864e-05
-0.001739204
0.001722332
2.5339e-10
9.305139e-05
-2.145286e-05
-1.703311e-05
-1.911507e-05
-3.407586e-05
-0.001703082
0.001681874
3.567862e-10
0.0001626685
-4.12691e-05
-3.161056e-05
-3.450521e-05
-5.94866e-05
-0.001669968
0.001653733
3.537312e-10
0.0002562438
-5.928648e-05
-5.984208e-05
-6.139406e-05
-5.773954e-05
-0.001623124
0.001567706
-3.977673e-11
0.0002896685
-5.172152e-05
-6.510422e-05
-5.968554e-05
-3.506684e-05
-0.00146735
0.001333786
-2.178031e-10
0.0002635149
-3.034643e-05
-3.498027e-05
-2.955652e-05
-6.070527e-06
-0.001179835
0.001027873
4.831386e-10
0.0001732426
-4.613619e-06
-5.951861e-06
-4.644663e-06
-1.577709e-06
-0.0009018101
0.000813598
4.404669e-10
9.618623e-05
-2.208087e-06
-1.758465e-06
-2.430319e-06
-2.811958e-06
-0.0007567652
0.0007192375
2.063053e-10
4.946234e-05
-3.058959e-06
-2.922151e-06
-3.141765e-06
-4.445226e-06
-0.0006915173
0.0006672335
-2.447589e-10
4.225603e-05
-4.521441e-06
-4.468373e-06
-4.53693e-06
-4.024995e-06
0.0006301061
-5.55605e-10
3.277237e-05
-3.857966e-06
-4.027102e-06
-3.858756e-06
-0.0006471091
-3.112621e-06
-0.0006157656
0.0006027416
-5.916372e-10
2.535865e-05
-3.055676e-06
-3.111481e-06
-3.054345e-06
-2.971504e-06
-0.0005903066
0.0005782362
-4.732779e-10
2.396986e-05
-2.979482e-06
-2.969949e-06
-2.977987e-06
-3.004978e-06
-0.0005662189
0.0005545487
-3.277068e-10
2.36217e-05
-2.971858e-06
-3.00365e-06
-2.970682e-06
-2.712225e-06
-0.0005433834
0.0005332342
-2.125108e-10
2.083374e-05
-2.630828e-06
-2.711255e-06
-2.630014e-06
-2.180165e-06
-0.0005239408
0.0005159659
-1.362357e-10
1.648891e-05
-2.077298e-06
-2.179548e-06
-2.076809e-06
-1.561039e-06
-0.0005089213
0.000503219
-8.92333e-11
1.173209e-05
-1.453996e-06
-1.560824e-06
-1.453817e-06
-9.353173e-07
-0.0004984043
0.0004948773
-5.976547e-11
7.070487e-06
-8.363226e-07
-9.354221e-07
-8.363872e-07
-3.511371e-07
-0.0004921729
0.0004906371
-4.062531e-11
2.781178e-06
-2.712543e-07
-3.514361e-07
-2.715187e-07
1.546459e-07
-0.0004898188
0.0004900658
-2.786472e-11
-9.977835e-07
2.212363e-07
1.542271e-07
2.207117e-07
5.740403e-07
-0.000490899
0.0004926273
-1.887642e-11
-4.136342e-06
6.307079e-07
5.733801e-07
6.299813e-07
9.148074e-07
-0.0004948413
0.0004977916
-1.106122e-11
-6.700938e-06
9.613401e-07
9.139729e-07
9.604564e-07
1.187485e-06
-0.0005011354
0.0005050894
-4.441648e-12
-8.775162e-06
1.224114e-06
1.186516e-06
1.223104e-06
1.401747e-06
-0.0005093704
0.0005141623
9.879987e-13
-1.045491e-05
1.430903e-06
1.400651e-06
1.429779e-06
1.571859e-06
-0.000519227
0.0005247258
5.280843e-12
-1.183048e-05
1.595168e-06
1.570674e-06
1.593966e-06
1.707966e-06
-0.0005304558
0.0005365606
8.463839e-12
-1.297151e-05
1.726589e-06
1.706704e-06
1.725388e-06
1.817616e-06
-0.0005428642
0.0005494971
1.033145e-11
-1.392985e-05
1.832221e-06
1.816107e-06
1.830999e-06
1.905671e-06
-0.0005563048
0.0005634041
1.082568e-11
-1.474364e-05
1.918051e-06
1.904162e-06
1.916394e-06
1.975636e-06
-0.0005706595
0.0005781809
1.040764e-11
-1.543936e-05
1.984942e-06
1.974234e-06
1.983111e-06
2.029982e-06
-0.0005858445
0.0005937531
9.49473e-12
-1.603887e-05
2.036747e-06
2.028392e-06
2.035081e-06
2.0718e-06
-0.0006017984
0.00061007
8.51908e-12
-1.656963e-05
2.078866e-06
2.070145e-06
2.077202e-06
2.115485e-06
-0.0006184555
0.000627045
7.826145e-12
-1.706012e-05
2.121551e-06
2.113757e-06
2.11979e-06
2.150669e-06
-0.0006357429
0.0006446352
7.521707e-12
-1.750201e-05
2.156016e-06
2.148847e-06
2.154166e-06
2.1808e-06
-0.0006536293
0.0006627906
7.619909e-12
-1.790647e-05
2.193798e-06
2.178838e-06
2.191762e-06
2.20031e-06
-0.0006719602
0.0006813091
8.027838e-12
-1.831748e-05
2.285673e-06
2.198306e-06
2.284264e-06
2.289183e-06
-0.0006910887
0.0007005471
8.239228e-12
-1.854481e-05
2.252209e-06
2.291168e-06
2.253786e-06
2.158032e-06
-0.0007104852
0.0007203453
8.531573e-12
-1.861449e-05
2.218024e-06
2.15947e-06
2.218812e-06
2.237424e-06
-0.0007301745
0.0007401878
8.881856e-12
-1.893037e-05
2.222284e-06
2.23641e-06
2.22094e-06
2.189045e-06
-0.0007502901
0.0007604695
9.178438e-12
-1.894065e-05
2.193143e-06
2.187355e-06
2.191705e-06
2.164975e-06
-0.0007706804
0.000780963
9.152893e-12
-1.893131e-05
2.16075e-06
2.163574e-06
2.159418e-06
2.128897e-06
-0.0007912741
0.0008016138
8.805318e-12
-1.884834e-05
2.126547e-06
2.127727e-06
2.125389e-06
2.086727e-06
-0.0008119616
0.0008223115
8.314199e-12
-1.868214e-05
2.080487e-06
2.085648e-06
2.079398e-06
2.018086e-06
-0.0008326715
0.0008430133
7.739453e-12
-1.839324e-05
2.00845e-06
2.017216e-06
2.007722e-06
1.936315e-06
-0.0008533473
0.0008636244
7.174757e-12
-1.799594e-05
1.924791e-06
1.934588e-06
1.923182e-06
1.837013e-06
-0.0008738772
0.000884044
6.563538e-12
-1.74874e-05
1.822808e-06
1.83704e-06
1.823711e-06
1.725857e-06
-0.0008941626
0.000904153
5.821619e-12
-1.686351e-05
1.711455e-06
1.725367e-06
1.710408e-06
1.598661e-06
-0.0009140897
0.0009238601
5.064743e-12
-1.612961e-05
1.581918e-06
1.598878e-06
1.579798e-06
1.459696e-06
-0.0009335513
0.0009430423
4.386482e-12
-1.528859e-05
1.439453e-06
1.459351e-06
1.439108e-06
1.301415e-06
-0.0009524393
0.000961599
3.826028e-12
-1.431969e-05
1.278974e-06
1.300942e-06
1.278592e-06
1.110851e-06
-0.0009706441
0.0009794582
3.593455e-12
-1.318419e-05
1.074562e-06
1.110458e-06
1.074134e-06
8.78261e-07
-0.000988211
0.0009966945
3.072431e-12
-1.195421e-05
8.573375e-07
8.780358e-07
8.571244e-07
7.081334e-07
-0.001005017
0.001013021
2.903562e-12
-1.079423e-05
6.869443e-07
7.07977e-07
6.868004e-07
5.363848e-07
-0.001020863
0.00102838
2.988498e-12
-9.618064e-06
5.139446e-07
5.362591e-07
5.138497e-07
3.58533e-07
-0.001035731
0.001042751
3.228453e-12
-8.407012e-06
3.353394e-07
3.584467e-07
3.352661e-07
1.769271e-07
-0.001049595
0.001056095
3.67521e-12
-7.160169e-06
1.534166e-07
1.768879e-07
1.533954e-07
6.939839e-09
-0.001062395
0.001068326
4.366503e-12
-5.894755e-06
-2.519565e-08
7.011012e-09
-2.514193e-08
-1.880866e-07
-0.001074092
0.001079509
4.912468e-12
-4.620562e-06
-2.10034e-07
-1.880805e-07
-2.100521e-07
-3.635531e-07
-0.001084727
0.001089594
5.81404e-12
-3.368935e-06
-3.8537e-07
-3.635941e-07
-3.85391e-07
-5.321826e-07
-0.001094258
0.001098574
6.22653e-12
-2.14415e-06
-5.535317e-07
-5.32182e-07
-5.534863e-07
-6.92502e-07
-0.001102685
0.001106456
6.613045e-12
-9.604672e-07
-7.127277e-07
-6.92431e-07
-7.125848e-07
-8.408384e-07
0.001113233
7.862829e-12
1.72344e-07
-0.001110002
-8.608965e-07
-8.406587e-07
-8.609822e-07
-9.523493e-07
-0.001116247
0.001118906
-1.149458e-12
1.179207e-06
-9.669179e-07
-9.521858e-07
-9.666676e-07
-1.083778e-06
-0.001121396
0.001123607
7.887032e-12
2.146004e-06
-1.094745e-06
-1.083788e-06
-1.094777e-06
-1.192873e-06
-0.001125634
0.001127345
1.002059e-11
3.083779e-06
-1.204867e-06
-1.192817e-06
-1.204787e-06
-1.289776e-06
-0.001128879
0.001130136
1.107188e-11
3.922903e-06
-1.300101e-06
-1.289646e-06
-1.299971e-06
-1.368071e-06
-0.001131227
0.00113206
1.128808e-11
4.658093e-06
-1.377278e-06
-1.367935e-06
-1.377115e-06
-1.432978e-06
-0.001132742
0.001133193
1.222688e-11
5.293188e-06
-1.439437e-06
-1.432825e-06
-1.439282e-06
-1.481027e-06
-0.001133505
0.001133607
1.324856e-11
5.830512e-06
-1.48557e-06
-1.480881e-06
-1.485402e-06
-1.518209e-06
-0.001133584
0.001133387
1.344388e-11
6.277491e-06
-1.521908e-06
-1.518037e-06
-1.521714e-06
-1.541289e-06
-0.001133072
0.001132603
1.292594e-11
6.638283e-06
-1.54357e-06
-1.541109e-06
-1.543383e-06
-1.554634e-06
-0.001132039
0.00113135
1.162317e-11
6.909311e-06
-1.555643e-06
-1.554465e-06
-1.555472e-06
-1.556988e-06
-0.001130582
0.001129721
1.004289e-11
7.089056e-06
-1.556841e-06
-1.556808e-06
-1.556649e-06
-1.549238e-06
-0.001128799
0.001127815
8.733738e-12
7.178388e-06
-1.548124e-06
-1.549074e-06
-1.547927e-06
-1.53188e-06
-0.001126791
0.001125738
7.206516e-12
7.176102e-06
-1.529706e-06
-1.531697e-06
-1.529559e-06
-1.504847e-06
-0.001124665
0.001123596
5.380132e-12
7.081777e-06
-1.501635e-06
-1.504662e-06
-1.501432e-06
-1.468281e-06
-0.001122527
0.001121498
3.702803e-12
6.893006e-06
-1.463952e-06
-1.468045e-06
-1.463689e-06
-1.422447e-06
-0.001120491
0.001119557
2.009447e-12
6.61121e-06
-1.416724e-06
-1.422206e-06
-1.416469e-06
-1.367411e-06
-0.001118667
0.001117889
2.481445e-14
6.233119e-06
-1.36013e-06
-1.367307e-06
-1.360081e-06
-1.30395e-06
-0.001117176
0.001116613
-2.066141e-12
5.758786e-06
-1.294356e-06
-1.303862e-06
-1.294315e-06
-1.233658e-06
-0.001116136
0.001115849
-3.45687e-12
5.19171e-06
-1.218623e-06
-1.233565e-06
-1.218526e-06
-1.148689e-06
-0.001115663
0.001115724
-4.473676e-12
4.518266e-06
-1.140957e-06
-1.148554e-06
-1.140911e-06
-1.059842e-06
-0.001115893
0.001116335
-4.938491e-12
3.760924e-06
-1.041627e-06
-1.059642e-06
-1.041667e-06
-9.580693e-07
-0.001116905
0.001117894
-5.675845e-12
2.800664e-06
-9.368661e-07
-9.578733e-07
-9.368411e-07
-8.228314e-07
-0.001119013
0.001120539
-6.14033e-12
1.693433e-06
-7.869121e-07
-8.234097e-07
-7.865911e-07
-2.800237e-07
-0.001121268
0.00112192
-5.470068e-12
1.278428e-07
-1.089208e-07
-2.807034e-07
-1.108713e-07
7.292153e-08
-0.0002790235
0.0002788959
-1.384638e-11
5.469927e-08
-2.658554e-07
-0.000278388
0.0002783897
-1.233239e-11
2.641501e-07
-3.19788e-07
-0.0002788362
0.0002791199
6.915098e-12
3.606577e-08
-3.072244e-07
-0.000280255
0.0002807184
2.830677e-11
-1.562064e-07
-2.683996e-07
-0.000282304
0.0002828944
4.304673e-11
-3.220535e-07
-2.201329e-07
-0.0002848119
0.0002855029
5.764515e-11
-4.708866e-07
-1.672815e-07
-0.0002877008
0.0002884815
8.613631e-11
-6.134183e-07
-1.15998e-07
-0.0002909397
0.000291806
1.255584e-10
-7.504739e-07
-6.943436e-08
-0.0002945222
0.000295477
1.441976e-10
-8.854697e-07
-1.071826e-08
-0.000298435
0.0002994804
1.709839e-10
-1.034896e-06
5.190538e-08
-0.0003026879
0.0003037995
1.887878e-10
-1.163731e-06
8.975749e-08
-0.0003072567
0.0003084489
2.019549e-10
-1.28219e-06
1.185827e-07
-0.0003121221
0.0003133835
2.587119e-10
-1.380302e-06
1.271487e-07
-0.0003172454
0.0003185617
2.641906e-10
-1.443701e-06
1.107988e-07
-0.0003225675
0.0003239213
2.815422e-10
-1.46493e-06
6.731695e-08
-0.0003280145
0.0003293829
2.975671e-10
-1.436046e-06
-1.951777e-08
-0.0003334843
0.0003348392
2.558889e-10
-1.335643e-06
-1.813766e-07
-0.0003389036
0.0003402356
2.96258e-10
-1.15088e-06
-3.232549e-07
-0.0003441476
0.0003454112
2.938562e-10
-9.406438e-07
-4.711128e-07
-0.000349086
0.0003502604
2.93357e-10
-7.036067e-07
-6.067448e-07
-0.0003536534
0.0003547339
2.911253e-10
-4.740367e-07
-7.107198e-07
-0.0003578611
0.0003588651
2.839884e-10
-2.935736e-07
-7.716725e-07
-0.0003618055
0.0003627678
2.827402e-10
-1.909052e-07
-7.906176e-07
-0.0003656436
0.0003666083
2.886904e-10
-1.74425e-07
-7.80842e-07
-0.0003695534
0.0003705617
3.052575e-10
-2.27739e-07
-7.650236e-07
-0.0003736779
0.000374752
3.07103e-10
-3.093271e-07
-7.652054e-07
-0.0003780718
0.000379211
3.076436e-10
-3.743084e-07
-7.945217e-07
-0.0003827058
0.0003838919
3.262286e-10
-3.918667e-07
-8.576021e-07
-0.0003874941
0.0003887024
3.434733e-10
-3.510259e-07
-9.534743e-07
-0.0003923376
0.0003935438
3.599442e-10
-2.530579e-07
-1.080072e-06
-0.0003971356
0.0003983128
3.619759e-10
-9.741262e-08
-1.239883e-06
-0.0004017721
0.000402881
3.219236e-10
1.306324e-07
-1.415255e-06
-0.0004060736
0.0004070806
2.830049e-10
4.078892e-07
-1.570036e-06
-0.0004099231
0.0004108176
2.345306e-10
6.752439e-07
-1.599076e-06
-0.0004133732
0.0004142428
1.90586e-10
7.293012e-07
3.775828e-07
-0.000416684
0.0004166751
2.143277e-10
-3.689459e-07
1.248392e-06
-0.0004164597
0.0004164242
1.243375e-10
-1.213004e-06
1.136872e-06
-0.0004159979
0.0004157368
1.100324e-10
-8.759283e-07
7.947557e-07
-0.0004146165
0.0004140867
-1.193357e-11
-2.64971e-07
3.187112e-07
-0.0004119358
0.0004109222
-3.097583e-10
6.952249e-07
-3.790935e-07
-0.0004067721
0.0004049598
-2.671594e-09
2.194063e-06
-3.090764e-06
-0.0003976264
0.0003942404
-9.348384e-09
6.486087e-06
-1.166725e-05
-0.0003850368
0.000382695
1.020426e-08
1.399886e-05
-3.65164e-06
-0.000372594
0.0003682867
5.983267e-09
7.953002e-06
1.202271e-06
-0.0003545672
0.000350182
-5.809643e-09
3.188753e-06
9.083838e-07
-0.0003379056
0.0003338836
-7.707182e-09
3.121312e-06
2.86887e-07
-0.0003219929
0.0003181193
-1.780082e-09
3.588467e-06
-1.517695e-07
-0.0003072234
0.0003038947
4.448901e-09
3.475998e-06
-1.272889e-07
-0.0002948819
0.0002921646
4.24315e-09
2.840269e-06
3.259451e-09
-0.0002846661
0.0002823232
1.273569e-09
2.338373e-06
-3.650029e-07
-0.0002754888
0.000273204
-1.644005e-09
2.651384e-06
-1.370196e-06
-0.0002661525
0.0002636647
-5.868268e-09
3.863834e-06
-5.204042e-06
-0.000256858
0.0002548652
-1.613108e-09
7.198513e-06
-3.231568e-06
-0.0002482845
0.0002458093
4.360482e-09
5.702316e-06
8.163964e-08
-0.0002386367
0.0002364969
6.040026e-10
2.057532e-06
6.661818e-07
-0.0002308189
0.0002291579
-1.386221e-09
9.961753e-07
4.837351e-07
-0.0002244261
0.000222878
-1.227823e-09
1.065542e-06
2.491321e-07
-0.0002181752
0.0002165865
-6.983245e-11
1.339655e-06
1.139736e-07
-0.0002118288
0.0002102756
1.00588e-09
1.43819e-06
1.049754e-07
-0.0002058386
0.0002044543
1.019387e-09
1.27829e-06
1.353476e-07
-0.0002005893
0.0001993911
5.577445e-10
1.062324e-06
1.804968e-07
-0.0001960166
0.0001949715
1.060144e-10
8.644704e-07
2.485372e-07
-0.0001920459
0.0001911469
-9.23753e-11
6.50573e-07
3.415593e-07
-0.0001886415
0.000187882
-1.427784e-10
4.180533e-07
4.827654e-07
-0.0001858269
0.0001852336
-1.188687e-10
1.105846e-07
6.776076e-07
-0.0001837614
0.0001834071
-7.237197e-11
-3.232386e-07
9.201826e-07
-0.0001827145
0.0001826022
-5.122168e-11
-8.078948e-07
1.070657e-06
-0.0001825181
0.0001825664
-3.581725e-11
-1.118997e-06
1.100785e-06
-0.000182822
0.0001829334
-5.815707e-12
-1.212216e-06
1.045692e-06
-0.0001832666
0.0001833193
1.173273e-10
-1.09853e-06
9.652248e-07
-0.0001820858
0.0007479814
-3.635268e-11
-2.913267e-06
-1.168145e-08
9.6856e-07
-2.451179e-08
-0.0001820919
-0.0001913918
-0.0001913962
3.333663e-07
-0.0007494891
0.0007485322
-3.341541e-11
-8.169517e-07
5.667503e-07
3.188485e-07
5.549472e-07
3.481162e-07
-0.0007473453
0.0007452939
-3.09842e-11
7.1292e-07
3.297096e-07
3.394906e-07
3.211128e-07
1.591115e-07
-0.0007427467
0.0007392218
-3.082438e-11
2.897852e-06
1.608823e-07
1.524248e-07
1.546166e-07
-2.437567e-08
-0.0007350961
0.0007301068
-3.361429e-11
5.090763e-06
-2.185584e-08
-2.906327e-08
-2.611897e-08
-1.808554e-07
-0.0007245999
0.0007183927
-3.598032e-11
6.94878e-06
-1.868728e-07
-1.840419e-07
-1.898269e-07
-3.36212e-07
-0.0007117605
0.0007044775
-3.498047e-11
8.647648e-06
-3.42959e-07
-3.392979e-07
-3.461403e-07
-4.831857e-07
-0.0006968121
0.0006885713
-3.095059e-11
1.019328e-05
-4.906683e-07
-4.856995e-07
-4.929183e-07
-6.153269e-07
-0.0006800031
0.0006709594
-2.645437e-11
1.152188e-05
-6.218752e-07
-6.17296e-07
-6.236776e-07
-7.294674e-07
-0.0006616732
0.0006520465
-2.386273e-11
1.256536e-05
-7.384176e-07
-7.309492e-07
-7.398245e-07
-8.576407e-07
-0.0006422973
0.0006323723
-2.361087e-11
1.338676e-05
-8.726876e-07
-8.582778e-07
-8.732121e-07
-9.884087e-07
-0.0006224295
0.0006124337
-2.394131e-11
1.397348e-05
-1.00032e-06
-9.88625e-07
-1.000378e-06
-1.089514e-06
-0.0006024743
0.0005925946
-2.347214e-11
1.426784e-05
-1.105036e-06
-1.089018e-06
-1.104579e-06
-1.155852e-06
-0.000582855
0.000573301
-2.117997e-11
1.418147e-05
-1.157646e-06
-1.156114e-06
-1.157833e-06
-1.145488e-06
-0.0005639154
0.0005548299
-1.772747e-11
1.365568e-05
-1.139802e-06
-1.145311e-06
-1.139581e-06
-1.083646e-06
-0.0005459777
0.0005375377
-1.359107e-11
1.27508e-05
-1.071938e-06
-1.083463e-06
-1.071766e-06
-9.787214e-07
-0.0005293865
0.0005217355
-9.294225e-12
1.15317e-05
-9.618093e-07
-9.785244e-07
-9.616319e-07
-8.374021e-07
-0.0005144144
0.0005076609
-5.302266e-12
1.006152e-05
-8.167492e-07
-8.372643e-07
-8.166045e-07
-6.661473e-07
-0.0005012735
0.0004955022
-1.62673e-12
8.393026e-06
-6.447853e-07
-6.6605e-07
-6.446859e-07
-4.743245e-07
-0.0004901253
0.0004854032
1.472041e-12
6.571885e-06
-4.506183e-07
-4.742704e-07
-4.505585e-07
-2.608987e-07
-0.0004810912
0.0004774497
4.025816e-12
4.634224e-06
-2.354948e-07
-2.608976e-07
-2.354797e-07
-3.786224e-08
-0.0004742343
0.0004717094
6.179128e-12
2.630481e-06
-1.494177e-08
-3.786094e-08
-1.494037e-08
2.05471e-07
-0.0004695927
0.0004681416
8.291802e-12
5.704495e-07
2.348524e-07
2.05456e-07
2.348345e-07
4.433928e-07
-0.0004670894
0.0004667014
9.203832e-12
-1.447623e-06
4.744858e-07
4.432444e-07
4.743931e-07
6.849926e-07
-0.0004666896
0.0004673175
1.027697e-11
-3.427187e-06
7.148314e-07
6.847763e-07
7.146425e-07
9.164078e-07
-0.0004682931
0.0004698708
1.0777e-11
-5.300203e-06
9.451367e-07
9.16104e-07
9.448421e-07
1.136422e-06
-0.0004717666
0.0004742156
1.07751e-11
-7.048265e-06
1.16362e-06
1.136013e-06
1.163238e-06
1.342014e-06
-0.0004769509
0.0004801833
1.040962e-11
-8.650075e-06
1.367262e-06
1.341534e-06
1.366808e-06
1.530829e-06
-0.0004836686
0.0004875914
9.696094e-12
-1.009095e-05
1.553819e-06
1.530284e-06
1.553291e-06
1.701435e-06
-0.000491733
0.0004962515
8.665223e-12
-1.136425e-05
1.722048e-06
1.700815e-06
1.721427e-06
1.853365e-06
-0.0005009557
0.0005059784
7.36959e-12
-1.247114e-05
1.871541e-06
1.852675e-06
1.870848e-06
1.986982e-06
-0.0005111555
0.0005165965
5.960896e-12
-1.341909e-05
2.0028e-06
1.986249e-06
2.002051e-06
2.103259e-06
-0.000522163
0.0005279443
4.650772e-12
-1.422009e-05
2.117025e-06
2.102339e-06
2.116141e-06
2.203142e-06
-0.0005338259
0.0005398786
3.288713e-12
-1.488739e-05
2.215151e-06
2.20218e-06
2.214219e-06
2.28827e-06
-0.0005460086
0.0005522702
2.116737e-12
-1.543337e-05
2.298596e-06
2.287301e-06
2.297646e-06
2.360088e-06
-0.0005585888
0.0005650044
1.236069e-12
-1.58717e-05
2.368923e-06
2.359104e-06
2.367947e-06
2.420501e-06
-0.0005714598
0.0005779839
5.854461e-13
-1.621924e-05
2.428086e-06
2.419492e-06
2.427078e-06
2.471332e-06
-0.0005845339
0.0005911292
1.012606e-13
-1.64917e-05
2.477865e-06
2.470317e-06
2.476854e-06
2.513923e-06
-0.0005977391
0.0006043747
-4.737514e-13
-1.670047e-05
2.519524e-06
2.512909e-06
2.518516e-06
2.549111e-06
-0.0006110152
0.0006176643
-9.69891e-13
-1.685291e-05
2.553865e-06
2.548062e-06
2.552823e-06
2.577272e-06
-0.0006243099
0.0006309482
-1.408409e-12
-1.695311e-05
2.581202e-06
2.576219e-06
2.580138e-06
2.598324e-06
-0.0006375752
0.0006441797
-1.791076e-12
-1.70019e-05
2.601435e-06
2.597268e-06
2.600359e-06
2.611293e-06
-0.0006507648
0.0006573114
-2.107554e-12
-1.699392e-05
2.613465e-06
2.610204e-06
2.612369e-06
2.611875e-06
-0.0006638294
0.0006702919
-2.287936e-12
-1.690887e-05
2.612374e-06
2.610794e-06
2.611289e-06
2.581729e-06
-0.000676721
0.0006831062
-2.379083e-12
-1.669455e-05
2.574013e-06
2.580668e-06
2.572927e-06
2.476073e-06
-0.0006895202
0.0006959718
-2.38697e-12
-1.629012e-05
2.444114e-06
2.475178e-06
2.443153e-06
2.372386e-06
-0.000702447
0.0007088519
-2.274304e-12
-1.58769e-05
2.364807e-06
2.371183e-06
2.36361e-06
2.3413e-06
-0.0007152104
0.0007214874
-2.146361e-12
-1.56367e-05
2.339774e-06
2.340093e-06
2.338589e-06
2.315401e-06
-0.0007277219
0.0007338729
-2.024319e-12
-1.540602e-05
2.313245e-06
2.314245e-06
2.312099e-06
2.288941e-06
-0.0007399797
0.0007460003
-2.799603e-12
-1.517044e-05
2.287111e-06
2.287821e-06
2.285993e-06
2.26351e-06
-0.0007519759
0.0007578607
-4.878059e-12
-1.493516e-05
2.262762e-06
2.262417e-06
2.261677e-06
2.242486e-06
-0.0007636918
0.0007694155
-1.213983e-11
-1.47057e-05
2.249556e-06
2.241413e-06
2.248532e-06
2.214229e-06
-0.0007750426
0.0007805764
-5.840858e-11
-1.445924e-05
2.24967e-06
2.213093e-06
2.248512e-06
2.084765e-06
-0.0007859911
0.0007916668
-1.181048e-11
-1.414709e-05
2.15221e-06
2.083107e-06
2.151378e-06
2.057421e-06
-0.0007979311
0.0008030019
7.983283e-12
-1.330826e-05
2.061678e-06
2.057362e-06
2.061025e-06
2.035775e-06
-0.0008079287
0.0008130747
1.107876e-12
-1.31258e-05
1.951398e-06
2.03845e-06
1.954159e-06
1.962341e-06
-0.0008182626
0.0008233826
-6.067257e-13
-1.291305e-05
1.931971e-06
1.964762e-06
1.934025e-06
1.9348e-06
-0.0008284685
0.0008334911
-3.640597e-13
-1.273372e-05
1.919241e-06
1.936471e-06
1.920681e-06
1.917353e-06
-0.0008384705
0.0008433614
4.674597e-13
-1.255051e-05
1.911413e-06
1.91844e-06
1.912379e-06
1.903742e-06
-0.0008481996
0.0008529431
-7.063245e-14
-1.235275e-05
1.900231e-06
1.90446e-06
1.900857e-06
1.885753e-06
-0.0008576348
0.0008622294
-3.805086e-13
-1.2132e-05
1.882537e-06
1.886189e-06
1.882921e-06
1.86198e-06
-0.0008667712
0.0008712141
-1.999246e-13
-1.188405e-05
1.85837e-06
1.862242e-06
1.858596e-06
1.833112e-06
-0.0008756041
0.0008798943
-1.306357e-13
-1.161457e-05
1.828967e-06
1.833211e-06
1.829042e-06
1.800867e-06
-0.0008841316
0.0008882689
-1.198367e-13
-1.133167e-05
1.7963e-06
1.800857e-06
1.796272e-06
1.766468e-06
-0.0008923541
0.0008963409
3.306329e-14
-1.104295e-05
1.761667e-06
1.766382e-06
1.761566e-06
1.731061e-06
-0.0009002767
0.0009041166
2.807179e-13
-1.075408e-05
1.72618e-06
1.730911e-06
1.72602e-06
1.695595e-06
-0.0009079069
0.0009116043
4.610854e-13
-1.046958e-05
1.69071e-06
1.695396e-06
1.690505e-06
1.660642e-06
-0.0009152539
0.0009188139
5.253219e-13