/*--------------------------------*- C++ -*----------------------------------*\
| =========                 |                                                 |
| \\      /  F ield         | foam-extend: Open Source CFD                    |
|  \\    /   O peration     | Version:     3.1                                |
|   \\  /    A nd           | Web:         http://www.extend-project.de       |
|    \\/     M anipulation  |                                                 |
\*---------------------------------------------------------------------------*/
FoamFile
{
    version     2.0;
    format      ascii;
    class       volScalarField;
    location    "10.5";
    object      omega;
}
// * * * * * * * * * * * * * * * * * * * * * * * * * * * * * * * * * * * * * //

dimensions      [0 0 -1 0 0 0 0];

internalField   nonuniform List<scalar> 
119952
(
301.4559
370.6002
345.3901
301.0386
270.4943
271.3702
275.8232
281.9371
288.8542
296.1664
303.6428
311.1282
318.5153
325.7868
333.1037
340.8143
349.3014
358.7755
369.2375
380.8658
326.6302
322.0188
322.6746
274.8153
265.1342
259.0448
254.2427
249.7235
241.9129
176.9099
786.7179
647.7586
545.4401
474.2189
421.9824
381.8687
349.6516
322.9633
300.2523
274.7554
227.6341
195.4242
173.5632
157.7582
145.6408
135.8776
127.7226
120.7081
114.5695
90.41951
86.64
82.97062
79.47883
76.24251
73.30511
70.68066
68.36439
66.34854
64.6434
63.27093
62.03729
60.9566
60.02441
59.21388
58.47869
57.749
56.92928
55.94273
55.87052
55.47626
54.40797
53.32048
52.15061
51.04858
49.92797
48.84324
47.85661
47.00991
46.33892
45.87157
45.62225
45.58865
45.74748
46.05543
46.46002
46.90882
47.3395
47.66785
47.827
48.05816
47.971
47.74357
47.61927
47.50668
47.37915
47.51941
48.38926
49.70272
49.59889
49.18112
48.61041
48.00135
47.37812
46.75753
46.14371
45.53512
44.92579
44.3085
43.67977
43.03848
42.38134
41.70472
41.00886
40.29593
39.56914
38.83378
38.09786
37.371
36.65861
35.97112
35.32444
34.73564
34.20954
33.74806
33.35398
33.0324
32.78713
32.61819
32.52544
32.51049
32.57747
32.73283
32.9842
33.3404
33.81719
34.45337
35.34714
36.72434
38.91547
41.83161
44.92168
48.01529
51.01966
53.65317
55.57384
56.51732
56.37783
55.40453
53.77236
51.65479
49.36707
47.18728
45.27955
43.71847
42.52604
41.69553
41.20246
41.00934
41.07467
41.35483
41.80847
42.39719
43.08594
43.84162
44.6328
45.43351
46.2262
47.02028
47.85023
48.72815
49.67428
50.82754
52.34541
54.19712
56.48098
59.44176
63.40557
69.01443
78.12132
96.0785
130.747
165.5258
176.3809
152.8817
119.2958
94.86682
78.78564
70.07235
65.12293
61.71867
59.09414
56.88701
54.88557
52.95553
50.96667
48.78934
46.39227
49.22623
52.34918
52.02809
50.59858
48.94344
47.37043
45.98886
44.85822
44.01007
43.47605
43.25913
43.27809
43.44638
43.70943
44.05104
44.47828
44.99554
45.59251
46.24764
46.9384
47.64778
48.36459
49.08167
49.79414
50.49788
51.18906
51.8647
52.52148
53.15797
53.77466
54.37344
54.95605
55.52321
56.07025
56.55999
56.44922
56.06108
56.07483
55.95066
55.76266
55.52968
55.25945
54.95732
54.62812
54.27654
53.90629
53.52246
53.12703
52.7236
52.31469
51.90209
51.48713
51.0709
50.65438
50.23846
49.82389
49.41131
49.00125
48.59409
48.19009
47.78932
47.39193
46.99854
46.6084
46.22179
45.839
45.46028
45.08517
44.71068
44.3226
35.5203
33.99486
32.57039
31.32052
30.28678
29.45872
28.8064
28.29475
27.89095
27.56743
27.3025
27.07979
26.88736
26.71661
26.56148
26.41774
26.28256
26.15401
26.03086
25.91231
25.79795
25.6876
25.58126
25.47905
25.38117
25.2879
25.19954
25.1164
25.03884
24.9672
24.90182
24.84304
24.79116
24.74648
24.70923
24.67959
24.65763
24.64328
24.63637
24.63662
24.64369
24.65729
24.67733
24.70443
24.74155
24.79254
24.85234
24.91565
24.98131
25.04783
25.1141
25.17966
25.24582
25.31765
25.44346
25.47823
25.49268
25.48606
25.45846
25.41297
25.35316
25.28311
25.20649
25.12634
25.04469
24.96249
24.88008
24.79813
24.71631
24.63408
24.55072
24.46552
24.37776
24.28672
24.19189
24.09294
23.98968
23.882
23.76989
23.65344
23.53291
23.40861
23.28089
23.15015
23.01685
22.88145
22.74444
22.60627
22.46735
22.32809
22.18891
22.05016
21.91219
21.77529
21.63971
21.50569
21.37342
21.24306
21.11474
20.98858
20.86467
20.74308
20.62385
20.50701
20.39256
20.28048
20.17076
20.06335
19.95818
19.85518
19.75428
19.65541
19.55848
19.46342
19.37015
19.27857
19.1886
19.10014
19.01311
18.92743
18.843
18.75971
18.67744
18.59608
18.51546
18.43541
18.3557
18.27608
18.19618
18.11558
18.03354
17.94897
17.86003
17.76331
17.65084
17.50554
17.28842
16.9571
16.91181
637.417
584.2815
545.8964
504.0578
465.3441
431.349
401.7637
375.9172
352.2671
281.3999
210.6819
175.8739
157.1785
145.9627
138.2371
132.2076
127.0689
122.4315
97.13196
92.13155
87.43355
83.21623
79.55787
76.4328
73.76609
71.47303
69.47676
67.70264
66.16127
64.6642
63.13362
61.59667
60.08522
58.62747
57.24001
55.92978
54.69589
53.87986
53.32097
52.58926
51.75669
50.87493
49.97644
49.086
48.22017
47.38997
46.60359
45.85991
45.15102
44.47911
43.83486
43.20994
42.59916
41.9985
41.40668
40.83823
37.11979
36.6101
36.12604
35.66257
35.21936
34.79864
34.40519
34.04464
33.72158
33.43888
33.20227
33.01176
32.86051
32.73441
32.62464
32.52509
32.43149
32.34004
32.25786
32.18043
32.0263
31.78381
31.48969
31.14173
30.73646
30.28496
29.80914
29.33066
28.86945
28.44335
28.06703
27.75137
27.50321
27.32556
27.2182
27.17898
27.20406
27.28723
27.42134
27.59991
27.81095
28.03403
28.27971
28.55158
28.80164
29.00413
29.14721
29.18989
29.07724
28.87011
28.60841
28.29778
27.95683
27.60221
27.24853
26.90651
26.58293
26.28128
26.00233
25.74446
25.50395
25.27566
25.05344
24.83041
24.59923
24.35273
24.08461
23.79041
23.46867
23.12174
22.75106
22.35796
21.94933
21.53472
21.12538
20.73378
20.37275
20.05467
19.79075
19.59058
19.46163
19.40853
19.43234
19.5303
19.69709
19.92784
20.22196
20.58474
21.02373
21.54397
22.15549
22.88381
23.75138
24.70083
25.67212
26.59464
27.38643
27.96759
28.28243
28.3016
28.03801
27.54638
26.89086
26.1348
25.35936
24.63554
24.0153
23.5289
23.18672
22.98345
22.90296
22.92227
23.01473
23.15337
23.31433
23.48162
23.64496
23.79642
23.93061
24.04586
24.14438
24.23293
24.3248
24.44746
24.66319
25.05379
25.69688
26.7475
28.50061
31.57223
37.33557
47.16436
60.199
74.64102
87.86205
96.34737
99.66805
99.21219
94.22991
84.88286
73.72074
63.35079
54.9891
48.74494
44.22315
40.97538
38.56324
36.70832
35.83619
34.26186
32.70445
31.06544
29.35071
27.61915
25.94261
24.38655
23.00535
21.83799
20.89848
20.17825
19.65682
19.30612
19.09211
18.98002
18.93923
18.9431
18.96815
18.99525
19.01061
19.00536
18.97441
18.91539
18.82798
18.71345
18.57451
18.41536
18.24156
18.05945
17.87544
17.69522
17.5231
17.36124
17.20849
17.06288
16.93933
16.84557
16.77095
16.70066
16.63353
16.56887
16.50568
16.44284
16.37926
16.31401
16.24639
16.17595
16.10244
16.02569
15.94568
15.86257
15.77664
15.68822
15.59763
15.50521
15.4113
15.3162
15.22023
15.12365
15.02671
14.92964
14.83262
14.73583
14.63943
14.5436
14.44843
14.35389
14.25971
14.16849
12.95691
12.83183
12.72043
12.61329
12.50666
12.39988
12.29342
12.18806
12.08452
11.98339
11.88512
11.78997
11.69813
11.60965
11.52454
11.44276
11.36423
11.28889
11.21664
11.1474
11.08111
11.0177
10.95714
10.89938
10.84441
10.79223
10.74283
10.69623
10.65247
10.61158
10.57359
10.53858
10.50657
10.47763
10.4518
10.42914
10.40965
10.39338
10.38034
10.37052
10.36394
10.36065
10.36072
10.36426
10.37136
10.38188
10.39521
10.41099
10.42912
10.44945
10.47176
10.49582
10.52175
10.55127
10.58307
10.61196
10.63962
10.66755
10.69586
10.7242
10.7522
10.77952
10.80584
10.83099
10.8548
10.87699
10.89734
10.91565
10.93178
10.94561
10.95699
10.96577
10.97177
10.97483
10.97481
10.97162
10.96514
10.9553
10.94205
10.92539
10.90533
10.88192
10.85524
10.82542
10.7926
10.75694
10.71865
10.67793
10.63501
10.59011
10.54348
10.49535
10.44595
10.39552
10.34427
10.29241
10.24014
10.18763
10.13504
10.08253
10.03022
9.978228
9.926656
9.875584
9.825078
9.77519
9.725958
9.677405
9.629542
9.58237
9.535882
9.490062
9.444888
9.400334
9.356373
9.31297
9.270095
9.227712
9.18579
9.144289
9.103182
9.062419
9.021977
8.98179
8.941835
8.902014
8.862299
8.822526
8.782643
8.742344
8.701473
8.659382
8.615566
8.568603
8.517296
8.460055
8.398896
8.342969
8.294228
553.8717
487.9179
434.0249
394.4175
364.3324
341.0164
322.5441
307.8354
295.9673
279.4387
179.2321
167.5559
158.0515
150.0447
143.1225
136.9567
130.9586
123.3876
107.4723
75.52347
73.85759
72.76795
71.86789
71.23677
70.72325
70.22367
69.72828
68.99509
65.48659
62.85957
62.4419
62.14943
61.86039
61.55463
61.22633
60.87178
60.4878
60.04789
60.11937
59.04192
57.9389
57.01643
56.24772
55.57718
54.96293
54.37835
53.80905
53.25286
52.6556
52.00328
51.3065
50.5928
49.8856
49.199
48.53751
47.90176
45.01711
44.47326
43.95477
43.44878
42.94961
42.45512
41.96531
41.48078
41.00301
40.53196
40.06589
39.60578
39.15154
38.70071
38.25236
37.80648
37.36386
36.92603
36.49484
36.07133
35.65809
35.25909
34.87451
34.50356
34.14585
33.80112
33.46912
33.14932
32.84127
32.54521
32.2596
31.98196
31.70972
31.44078
31.17229
30.90295
30.62839
30.34007
30.10339
29.85648
29.60113
29.34174
29.08367
28.83259
28.59414
28.37369
28.17527
28.00062
27.85015
27.72385
27.62291
27.55367
27.51536
27.50001
27.49721
27.49646
27.48378
27.44759
27.36759
27.22642
27.02614
26.77052
26.4632
26.11175
25.73002
25.33442
24.94077
24.56311
24.21303
23.89947
23.62889
23.40556
23.23186
23.10888
23.03707
23.01627
23.04512
23.12109
23.24166
23.39885
23.58509
23.79387
24.00423
24.18869
24.32159
24.38364
24.3536
24.23372
24.04217
23.79283
23.49839
23.17383
22.83456
22.49457
22.16536
21.85542
21.57033
21.31293
21.08382
20.88174
20.70385
20.54582
20.40198
20.26555
20.12904
19.98469
19.82505
19.64379
19.43669
19.20406
18.94586
18.66372
18.36554
18.06291
17.77032
17.50372
17.27905
17.11081
17.01074
16.98629
17.0392
17.16474
17.35189
17.58614
17.8549
18.14863
18.45882
18.77806
19.10582
19.45279
19.83799
20.28066
20.76292
21.25511
21.71621
22.09947
22.36163
22.47128
22.41976
22.22549
21.93358
21.58697
21.23026
20.90688
20.65127
20.48524
20.41795
20.4473
20.55997
20.7339
20.94054
21.15089
21.34516
21.51242
21.64829
21.74879
21.81201
21.84035
21.83765
21.80711
21.75239
21.68415
21.63399
21.67131
21.86247
22.28467
23.07626
24.52428
27.18134
31.73897
38.46135
47.01571
56.25992
64.46643
70.64289
74.9429
77.3163
77.32165
74.99447
70.42644
64.16725
57.27085
50.77413
45.2674
40.92786
37.61956
35.26821
33.45062
32.02537
30.85467
29.80389
28.75709
27.63063
26.38942
25.05126
23.66512
22.29163
20.99543
19.82755
18.81461
17.96561
17.27476
16.72537
16.29399
15.95421
15.68075
15.45188
15.25034
15.06336
14.88248
14.70288
14.52271
14.34234
14.16383
13.99044
13.82601
13.67434
13.53867
13.42124
13.32312
13.24453
13.18561
13.14623
13.12473
13.11802
13.11779
13.11851
13.11681
13.11021
13.09687
13.07544
13.04499
13.00507
12.95562
12.89685
12.82912
12.75313
12.66971
12.5797
12.48392
12.38314
12.27816
12.16974
12.0586
11.94544
11.83088
11.7155
11.59978
11.48415
11.36894
11.25448
11.14103
11.02883
10.91809
10.80957
10.70063
10.62306
10.53699
10.44656
10.35342
10.25877
10.16356
10.06841
9.973723
9.879853
9.787127
9.695846
9.606277
9.518645
9.433132
9.34988
9.268994
9.190547
9.114584
9.041129
8.970193
8.901772
8.835853
8.772419
8.711449
8.652921
8.596816
8.54311
8.491785
8.442824
8.396214
8.351944
8.310005
8.270392
8.233097
8.198115
8.16544
8.135062
8.106972
8.081162
8.057627
8.036366
8.017393
8.000727
7.98639
7.974371
7.964599
7.956889
7.951075
7.947075
7.944825
7.944248
7.945215
7.947571
7.95122
7.956435
7.963061
7.971142
7.980488
7.990744
8.001682
8.013232
8.025362
8.038006
8.051099
8.064557
8.078246
8.092054
8.105884
8.119605
8.133089
8.146189
8.158742
8.170575
8.181511
8.191381
8.200014
8.20724
8.212891
8.216808
8.218852
8.218896
8.216834
8.212591
8.206116
8.197378
8.186374
8.173124
8.157676
8.140099
8.120484
8.098938
8.075583
8.050556
8.024001
7.996066
7.966906
7.936673
7.905519
7.873592
7.841032
7.80797
7.774529
7.740818
7.706936
7.672969
7.63899
7.60506
7.571226
7.537523
7.503978
7.470605
7.437412
7.404397
7.371555
7.338873
7.306339
7.273934
7.24164
7.209434
7.177302
7.145216
7.113164
7.081111
7.049051
7.016933
6.984759
6.952438
6.91998
6.887216
6.854156
6.820465
6.786139
6.750543
6.713767
6.674963
6.635011
6.593453
6.553346
6.516234
313.0329
226.2179
326.2893
147.5901
116.3206
86.85613
75.62826
66.37508
58.62581
55.03708
53.62271
52.90734
52.17328
51.37601
50.58618
49.84764
49.13879
48.44203
47.74978
47.07263
46.43826
45.90292
45.60725
45.49585
45.48527
45.5311
45.61181
45.69471
45.74518
45.72773
45.54833
44.09181
44.50961
44.90791
45.29503
45.67892
46.0681
46.4635
46.84843
47.22768
47.45425
47.69432
47.96243
48.20737
48.40613
48.54664
48.62656
48.64431
48.59764
48.49149
48.33491
48.11928
47.84334
47.51737
47.15175
46.75455
46.33111
45.88823
45.4319
44.96522
44.4894
44.00561
43.51485
43.01751
42.51755
42.01607
41.51838
41.01611
40.54325
40.06894
39.59897
39.13426
38.67661
38.22827
37.79046
37.36329
36.94593
36.53727
36.13563
35.73962
35.34749
34.95758
34.56926
34.18285
33.79941
33.42033
33.04715
32.68151
32.32509
31.97959
31.64629
31.32598
31.01898
30.72523
30.44449
30.17639
29.92051
29.67607
29.44135
29.2139
28.99087
28.769
28.54553
28.31801
28.08545
27.8467
27.60486
27.35869
27.10959
26.86117
26.61787
26.38432
26.16503
25.96417
25.78509
25.63133
25.50588
25.40946
25.34162
25.30077
25.28317
25.28256
25.29013
25.29527
25.28591
25.24979
25.17334
25.04668
24.86757
24.6379
24.36195
24.04734
23.70552
23.34985
22.9934
22.64777
22.32253
22.02506
21.76074
21.53319
21.34454
21.1961
21.08883
21.02326
20.99918
21.01552
21.0701
21.15833
21.27389
21.40896
21.54952
21.67705
21.77272
21.82064
21.80649
21.72511
21.58063
21.37993
21.13131
20.84574
20.53626
20.21626
19.89795
19.59142
19.30431
19.04178
18.8068
18.60039
18.4219
18.26921
18.13881
18.02599
17.92491
17.8288
17.73029
17.62191
17.49689
17.35012
17.17966
16.98767
16.7763
16.55451
16.33575
16.13664
15.97519
15.86872
15.83178
15.87374
15.99568
16.18946
16.43856
16.72223
17.02093
17.31917
17.60364
17.86179
18.08606
18.2803
18.46097
18.65088
18.86263
19.09036
19.3179
19.52176
19.67717
19.76258
19.76852
19.70333
19.59692
19.48177
19.3874
19.3409
19.36139
19.45913
19.63705
19.89097
20.20877
20.5656
20.92757
21.26124
21.54725
21.7782
21.95285
22.07219
22.14466
22.18211
22.18807
22.15491
22.06651
21.90717
21.68469
21.45767
21.30705
21.28724
21.47502
22.00939
23.13253
25.18424
28.46652
33.1331
38.92741
44.9263
50.26841
54.58346
57.78404
59.94528
61.09839
61.05263
59.55941
56.63513
52.65206
48.19599
43.84459
39.93777
36.66348
34.0345
31.98081
30.4024
29.19548
28.2561
27.48145
26.7806
26.06913
25.26937
24.32802
23.24552
22.07526
20.88835
19.74856
18.70768
17.7932
17.01298
16.36165
15.82404
15.38061
15.01127
14.69783
14.42551
14.18348
13.96469
13.76543
13.58431
13.42147
13.2779
13.15474
13.05309
12.97372
12.91676
12.88157
12.86695
12.87106
12.89132
12.92479
12.96373
13.00002
13.02905
13.04775
13.05403
13.0465
13.02445
12.98786
12.93717
12.87287
12.79537
12.70572
12.6053
12.49539
12.37717
12.25182
12.12051
11.98438
11.84453
11.70197
11.55763
11.41237
11.2669
11.12188
10.9778
10.83511
10.69423
10.55545
10.41892
10.28475
10.15257
10.02444
9.899797
9.778063
9.658646
9.541445
9.426476
9.313701
9.203096
9.094707
8.98863
8.884979
8.783869
8.685399
8.589649
8.496679
8.406529
8.319219
8.234751
8.153113
8.074281
7.998222
7.924893
7.854246
7.786231
7.720795
7.657884
7.597442
7.539414
7.483744
7.430381
7.379274
7.330372
7.283629
7.238996
7.196428
7.155881
7.117314
7.080686
7.045963
7.013113
6.982115
6.952954
6.92562
6.900099
6.876369
6.854385
6.834064
6.815318
6.798093
6.78236
6.768086
6.755235
6.743793
6.733812
6.725337
6.718159
6.712098
6.707129
6.703278
6.70056
6.698968
6.698477
6.699054
6.700657
6.703223
6.706701
6.711055
6.71622
6.72211
6.728641
6.735714
6.74322
6.751039
6.759043
6.767097
6.775056
6.782773
6.790089
6.796848
6.8029
6.808104
6.812307
6.815376
6.817196
6.817663
6.816693
6.814219
6.810195
6.804591
6.7974
6.788633
6.77832
6.766506
6.753254
6.738638
6.722744
6.705665
6.687502
6.668359
6.64834
6.62755
6.60609
6.584054
6.561531
6.538601
6.515336
6.491797
6.468036
6.444093
6.420001
6.395782
6.371451
6.347012
6.322468
6.297812
6.273035
6.248124
6.223065
6.197839
6.172433
6.146824
6.121002
6.094943
6.068637
6.042055
6.015189
5.987996
5.960462
5.932513
5.904121
5.875152
5.845565
5.815172
5.783983
5.751867
5.719055
5.685635
5.652439
5.621156
276.6964
186.0812
140.3981
126.2378
102.8729
86.81927
75.02953
70.5099
65.4139
62.46457
59.89891
56.43505
52.9256
49.5777
46.47976
43.0306
37.69427
36.4307
35.46719
34.88227
34.6284
34.57915
34.60671
34.66734
34.75665
34.87494
35.02386
35.20448
35.41977
35.67423
35.97738
36.34524
36.76755
37.22853
37.71638
38.2266
38.75516
39.30248
39.86675
40.44529
41.03551
41.59719
42.0694
42.61307
43.16074
43.705
44.232
44.76831
45.33487
45.86995
46.38329
46.84226
47.23866
47.5651
47.81183
47.97407
48.04797
48.03246
47.93022
47.74667
47.48769
47.16321
46.78341
46.35496
45.88498
45.38205
44.85383
44.30674
43.74595
43.1753
42.59872
42.01846
41.43705
40.85768
40.2836
39.72347
39.1795
38.65107
38.13654
37.63307
37.1449
36.67486
36.22199
35.7863
35.36861
34.96908
34.5865
34.21869
33.86343
33.51815
33.17984
32.84538
32.51209
32.17833
31.84389
31.50982
31.17775
30.84961
30.52763
30.21403
29.91093
29.62022
29.34306
29.07971
28.82983
28.59293
28.36856
28.15627
27.9553
27.76423
27.58048
27.40033
27.21939
27.03366
26.83938
26.63474
26.42021
26.19769
25.96822
25.7336
25.49722
25.26392
25.03933
24.82926
24.63909
24.47322
24.33482
24.22564
24.14603
24.09506
24.07032
24.06746
24.07961
24.09721
24.10892
24.10262
24.06635
23.98928
23.86435
23.68964
23.46721
23.20223
22.90294
22.58008
22.24553
21.91081
21.58606
21.27951
20.99739
20.74413
20.52257
20.3343
20.18025
20.06116
19.97749
19.92904
19.91477
19.93246
19.97807
20.04582
20.12795
20.21369
20.29006
20.34364
20.36223
20.33566
20.25859
20.13069
19.95436
19.73455
19.47906
19.19809
18.90293
18.60452
18.31248
18.03455
17.7764
17.5417
17.33236
17.14875
16.98992
16.8538
16.73729
16.6363
16.5458
16.45995
16.37242
16.27689
16.16792
16.04209
15.89947
15.74467
15.58372
15.42919
15.29772
15.2082
15.17895
15.22503
15.35548
15.57063
15.8586
16.19588
16.55339
16.90504
17.23286
17.52398
17.76443
17.94259
18.05969
18.13346
18.19168
18.25733
18.33672
18.42716
18.51917
18.60095
18.66313
18.70262
18.72766
18.76125
18.82351
18.93092
19.09603
19.32686
19.62802
20.00266
20.44937
20.95615
21.49184
22.01386
22.48566
22.88947
23.22032
23.48314
23.69627
23.89306
24.09803
24.30189
24.46576
24.52568
24.40336
24.05781
23.54907
23.02621
22.55626
22.20381
22.05452
22.24182
22.95105
24.37082
26.66899
29.87315
33.6576
37.50734
41.08034
44.17349
46.67618
48.54978
49.76003
50.2011
49.74539
48.3265
46.05434
43.21519
40.16079
37.18096
34.48223
32.16119
30.23153
28.67238
27.44605
26.50587
25.80286
25.27935
24.86386
24.47269
24.02085
23.43434
22.67175
21.74633
20.72423
19.68681
18.6971
17.79567
17.00342
16.32416
15.7504
15.26927
14.86607
14.52707
14.24042
13.9976
13.79338
13.62467
13.48961
13.38652
13.3133
13.26781
13.24827
13.25272
13.27848
13.32209
13.37946
13.4462
13.51541
13.57789
13.62814
13.66274
13.67971
13.67783
13.6561
13.61488
13.5554
13.47883
13.38602
13.27747
13.15427
13.01811
12.87074
12.7139
12.54929
12.37852
12.20313
12.0245
11.84394
11.66258
11.48152
11.30159
11.12345
10.94773
10.77498
10.60567
10.4398
10.27719
10.11764
9.961215
9.808362
9.659262
9.513906
9.372346
9.234599
9.100584
8.970206
8.843419
8.720212
8.60058
8.484516
8.372007
8.263032
8.15756
8.055556
7.956976
7.861768
7.769877
7.68124
7.595788
7.513449
7.434145
7.357796
7.284326
7.213654
7.1457
7.08038
7.017612
6.957312
6.899398
6.843786
6.790395
6.739144
6.689956
6.642753
6.597464
6.55402
6.512356
6.472415
6.43415
6.397523
6.3625
6.329048
6.297131
6.26671
6.237732
6.210144
6.183911
6.159015
6.135443
6.11319
6.092262
6.072657
6.054348
6.037268
6.021391
6.006732
5.993302
5.981091
5.970086
5.960278
5.95166
5.944219
5.937937
5.932797
5.928782
5.925857
5.923982
5.923107
5.923175
5.924119
5.92586
5.928315
5.931383
5.934958
5.938928
5.94317
5.94756
5.951977
5.956292
5.960364
5.964055
5.967245
5.969819
5.971669
5.972695
5.972812
5.971946
5.970039
5.967049
5.962949
5.957728
5.951391
5.943955
5.935451
5.925925
5.915427
5.904018
5.891765
5.878738
5.865008
5.850645
5.835718
5.820292
5.804424
5.788168
5.771569
5.754662
5.737477
5.720034
5.702348
5.684423
5.666259
5.64785
5.629185
5.61025
5.591026
5.571495
5.551636
5.531427
5.510851
5.489884
5.46851
5.446706
5.424456
5.401733
5.378519
5.354778
5.330483
5.305585
5.280056
5.253854
5.226982
5.199463
5.171375
5.142899
5.11429
5.087227
134.1832
100.2931
154.6031
77.48713
66.7153
57.66274
55.03903
53.21589
51.18926
50.49174
49.52793
48.0175
46.57208
44.9992
43.08945
39.17766
38.3014
37.46772
36.6462
35.84304
35.01836
34.21126
33.47502
32.84112
32.33033
31.9501
31.6336
31.28997
31.09396
31.0655
31.18575
31.40347
31.66973
31.96437
32.2823
32.62209
32.98356
33.36666
33.77444
34.21621
34.6944
35.1993
35.72689
36.27541
36.84292
37.42735
38.02611
38.63728
39.25592
39.87248
40.47906
41.06259
41.63292
42.25147
42.8639
43.50155
44.09488
44.66948
45.23575
45.7734
46.25495
46.64862
46.92576
47.07872
47.10947
47.0228
46.82455
46.52203
46.12632
45.64977
45.10611
44.50815
43.87034
43.20458
42.52031
41.82662
41.12962
40.4354
39.74768
39.06992
38.40698
37.76538
37.15501
36.57729
36.03402
35.52421
35.04677
34.59837
34.17572
33.77519
33.39493
33.03395
32.6916
32.3681
32.06386
31.77805
31.5083
31.25147
31.00457
30.76477
30.52895
30.29362
30.05539
29.81198
29.56309
29.31024
29.05556
28.80119
28.54955
28.30349
28.06586
27.83902
27.62435
27.422
27.23116
27.05075
26.87995
26.71829
26.5654
26.42042
26.28115
26.14361
26.00255
25.85133
25.68858
25.51476
25.32973
25.13403
24.92845
24.7146
24.49573
24.27702
24.06505
23.86677
23.68862
23.53581
23.41184
23.31838
23.25557
23.2223
23.21608
23.2324
23.264
23.30067
23.32996
23.3386
23.31408
23.24618
23.12866
22.96002
22.74312
22.48434
22.19289
21.87977
21.55655
21.23422
20.92223
20.62811
20.35732
20.11358
19.89907
19.7148
19.56131
19.43916
19.3488
19.29009
19.26198
19.26223
19.28678
19.32967
19.38284
19.43665
19.48057
19.50413
19.49796
19.45471
19.37012
19.24291
19.07433
18.86812
18.6305
18.36977
18.09533
17.81658
17.54198
17.27851
17.03139
16.8041
16.59852
16.41519
16.25355
16.11212
15.98868
15.88027
15.78322
15.69325
15.60561
15.51548
15.41868
15.31261
15.19746
15.07783
14.96229
14.86314
14.79775
14.78571
14.84631
14.99511
15.23979
15.57601
15.98398
16.4298
16.87425
17.28606
17.6486
17.95232
18.18372
18.33021
18.39576
18.40513
18.39288
18.38026
18.37745
18.38927
18.41698
18.46053
18.52106
18.60309
18.71829
18.88488
19.11016
19.39647
19.74223
20.145
20.60644
21.13387
21.73612
22.4081
23.11752
23.81618
24.46395
25.04228
25.55922
26.03905
26.53389
27.1286
27.85334
28.63417
29.34002
29.81118
29.87539
29.42182
28.50747
27.39324
26.2634
25.22179
24.34839
23.7291
23.46985
23.68608
24.48468
25.93429
27.96694
30.35368
32.8526
35.29211
37.50704
39.39495
40.91516
41.99535
42.51746
42.37492
41.53024
40.05213
38.1151
35.93761
33.72993
31.64394
29.76521
28.13391
26.76046
25.63784
24.75192
24.08534
23.61481
23.30715
23.11419
22.96802
22.78409
22.47945
21.99777
21.33044
20.51832
19.63134
18.74213
17.90612
17.15499
16.50099
15.94392
15.47664
15.08934
14.77198
14.51635
14.31604
14.16603
14.06211
14.00019
13.97545
13.98257
14.01627
14.07189
14.1441
14.22705
14.31465
14.39998
14.47379
14.53025
14.56554
14.57861
14.56944
14.53807
14.48392
14.40709
14.30869
14.19027
14.05302
13.89852
13.72896
13.54672
13.35405
13.15301
12.94557
12.73346
12.51829
12.30148
12.0844
11.86824
11.65396
11.44237
11.23411
11.02977
10.82979
10.6344
10.44359
10.25721
10.07516
9.89769
9.725248
9.558014
9.39591
9.238872
9.086805
8.939588
8.797103
8.659228
8.525835
8.396797
8.271994
8.151314
8.034654
7.921919
7.81302
7.707875
7.606401
7.508518
7.414145
7.323198
7.235592
7.151241
7.070068
6.991983
6.916889
6.844685
6.775271
6.708544
6.644398
6.582728
6.523427
6.46639
6.411514
6.358695
6.307837
6.258844
6.211626
6.166103
6.122201
6.079862
6.039033
5.999664
5.961709
5.925122
5.889856
5.855872
5.823137
5.791633
5.761352
5.732292
5.704453
5.67783
5.652417
5.628205
5.605192
5.583381
5.562777
5.543383
5.525203
5.508242
5.492504
5.477989
5.464692
5.452609
5.441729
5.432039
5.423515
5.416129
5.409846
5.404621
5.400405
5.397136
5.394746
5.39316
5.392299
5.392074
5.392389
5.393145
5.394231
5.395538
5.396958
5.39838
5.399698
5.400807
5.401605
5.402
5.401906
5.401248
5.39996
5.397989
5.395295
5.39185
5.387637
5.382653
5.376905
5.370412
5.363201
5.355306
5.346769
5.337633
5.327946
5.317756
5.307109
5.296049
5.284617
5.272848
5.26077
5.248408
5.235775
5.222883
5.209734
5.196324
5.182644
5.168679
5.154411
5.139818
5.124875
5.109556
5.093835
5.077685
5.061078
5.04399
5.026395
5.00827
4.989591
4.970335
4.95048
4.930005
4.908891
4.887124
4.864705
4.841644
4.817995
4.793801
4.769226
4.744363
4.720853
50.70978
39.40786
40.888
39.1559
38.36247
37.37535
36.64627
36.05482
35.59033
34.77557
32.59152
32.56235
32.54346
32.52947
32.48607
32.40234
32.30972
32.2369
32.19415
32.16828
32.03349
31.67241
31.3078
30.94032
30.58075
30.23094
29.90857
29.63225
29.41477
29.25927
29.15928
29.11059
29.12546
29.23426
29.44337
29.73937
30.09212
30.47577
30.87635
31.28717
31.70475
32.12738
32.55452
33.00054
33.4667
33.95181
34.45792
34.98829
35.54459
36.12606
36.72746
37.34705
37.98334
38.63378
39.27072
39.88952
40.49952
41.12
41.74868
42.37731
42.99766
43.59933
44.15219
44.62159
44.98483
45.22484
45.32495
45.27259
45.07146
44.73304
44.27233
43.7046
43.04713
42.31717
41.53224
40.70886
39.86288
39.0119
38.16787
37.34135
36.54015
35.77048
35.03741
34.34822
33.71398
33.13549
32.61291
32.14703
31.73543
31.37204
31.04948
30.76262
30.50549
30.27232
30.05781
29.85776
29.66998
29.49455
29.33273
29.18512
29.04987
28.923
28.80009
28.67765
28.55321
28.4243
28.28798
28.14135
27.98302
27.81424
27.63826
27.45831
27.27687
27.09656
26.92057
26.7519
26.59259
26.44348
26.30402
26.17242
26.04646
25.92426
25.80469
25.68733
25.57177
25.45651
25.33856
25.21406
25.08038
24.93446
24.77569
24.60504
24.42358
24.23203
24.03137
23.8243
23.61589
23.41312
23.22361
23.05443
22.91115
22.79735
22.71455
22.66255
22.64007
22.6448
22.67262
22.71657
22.76628
22.80868
22.82962
22.81592
22.75713
22.64697
22.48403
22.27159
22.01679
21.72963
21.42161
21.10445
20.78905
20.48467
20.19844
19.93535
19.69855
19.48962
19.30891
19.15649
19.03281
18.93838
18.87313
18.83619
18.82551
18.83723
18.86553
18.90266
18.93944
18.96605
18.973
18.95225
18.89773
18.80582
18.67546
18.50821
18.30785
18.08018
17.83257
17.57328
17.31053
17.05176
16.80308
16.56906
16.35268
16.15546
15.97771
15.81879
15.67735
15.55145
15.43871
15.33632
15.2411
15.14968
15.05886
14.96614
14.87065
14.7742
14.68253
14.60677
14.5622
14.56858
14.6479
14.82069
15.10112
15.49174
15.97866
16.52858
17.09389
17.62684
18.0947
18.48453
18.78967
18.99738
19.10057
19.1182
19.09072
19.05419
19.01509
18.97783
18.95031
18.94463
18.9748
19.05483
19.19786
19.41927
19.72738
20.11371
20.56161
21.0522
21.57312
22.12884
22.74203
23.44552
24.2592
25.16393
26.11269
27.05678
27.97592
28.91406
29.91385
31.04559
32.44007
34.07151
35.70612
37.02984
37.79335
37.86301
37.13847
35.68063
33.78914
31.83384
29.99923
28.38034
27.02037
25.95067
25.23035
24.93931
25.1462
25.8622
27.00432
28.44252
30.04102
31.64818
33.16448
34.53678
35.7065
36.56773
36.99697
36.89813
36.2531
35.13159
33.66797
32.02284
30.33999
28.72393
27.23957
25.92012
24.77863
23.81907
23.04149
22.44209
22.01437
21.74804
21.6237
21.60619
21.64065
21.65435
21.56918
21.32393
20.89518
20.30548
19.61155
18.87935
18.16449
17.5054
16.92282
16.42429
16.00949
15.67422
15.41271
15.21859
15.08536
15.00655
14.97569
14.98535
15.02711
15.09244
15.17292
15.26028
15.34646
15.42367
15.48382
15.52242
15.53674
15.5246
15.48519
15.41892
15.32602
15.20738
15.06509
14.90171
14.71994
14.52248
14.31217
14.09167
13.86323
13.62874
13.38987
13.14811
12.90473
12.66089
12.41775
12.17629
11.93739
11.70174
11.46989
11.24239
11.01978
10.80248
10.59069
10.38444
10.18374
9.988669
9.799415
9.61639
9.440142
9.270546
9.107039
8.949304
8.797071
8.650069
8.508038
8.370737
8.237959
8.109523
7.985279
7.865103
7.748888
7.636545
7.527993
7.423159
7.321973
7.224364
7.130255
7.039578
6.952259
6.868205
6.787317
6.7095
6.63465
6.562662
6.493424
6.426821
6.362733
6.301043
6.241628
6.184372
6.129155
6.075865
6.024391
5.974633
5.926503
5.879931
5.834853
5.791195
5.748893
5.707889
5.668133
5.62958
5.592197
5.555961
5.520861
5.486894
5.454064
5.422374
5.391824
5.362419
5.334159
5.307048
5.281096
5.256316
5.232719
5.210317
5.189117
5.169124
5.150341
5.132766
5.116398
5.101229
5.087247
5.074434
5.062765
5.052212
5.042737
5.034299
5.026848
5.020332
5.014692
5.009863
5.005769
5.002332
4.999471
4.997102
4.995135
4.993478
4.992042
4.990735
4.989468
4.988156
4.986717
4.985075
4.983162
4.980917
4.978287
4.975231
4.971715
4.967717
4.963223
4.95823
4.952744
4.946776
4.940346
4.933478
4.926201
4.918545
4.910542
4.902223
4.893618
4.884751
4.875644
4.866315
4.856775
4.847029
4.837077
4.826914
4.816526
4.805898
4.795007
4.783828
4.772332
4.760489
4.748267
4.735631
4.72255
4.70899
4.694921
4.680313
4.665137
4.649368
4.632983
4.615964
4.598299
4.579979
4.561016
4.541419
4.521246
4.500524
4.479387
4.457876
4.437527
78.9997
31.82067
27.84734
26.90237
26.37483
26.17939
26.2488
26.46653
26.7872
27.17896
27.51566
27.69169
27.86098
28.01105
28.14204
28.24818
28.33704
28.4102
28.45724
28.45837
28.3901
28.26417
28.13234
28.00205
27.88047
27.77171
27.68644
27.63255
27.61747
27.64433
27.71048
27.81927
27.98087
28.20558
28.49448
28.83624
29.2098
29.5968
29.98605
30.37222
30.75297
31.12869
31.52932
31.95502
32.40629
32.88526
33.39693
33.94635
34.537
35.16992
35.81973
36.48442
37.1634
37.87938
38.5544
39.20501
39.84412
40.48399
41.12328
41.74671
42.31503
42.78625
43.13123
43.32345
43.35014
43.20827
42.899
42.43302
41.8266
41.10125
40.27976
39.38528
38.43998
37.46388
36.47717
35.49605
34.53835
33.62123
32.75736
31.95823
31.23189
30.59107
30.03456
29.5596
29.16354
28.84227
28.58834
28.39194
28.24681
28.14569
28.08017
28.04122
28.02007
28.00902
28.00183
27.995