/*--------------------------------*- C++ -*----------------------------------*\
| =========                 |                                                 |
| \\      /  F ield         | foam-extend: Open Source CFD                    |
|  \\    /   O peration     | Version:     3.1                                |
|   \\  /    A nd           | Web:         http://www.extend-project.de       |
|    \\/     M anipulation  |                                                 |
\*---------------------------------------------------------------------------*/
FoamFile
{
    version     2.0;
    format      ascii;
    class       surfaceScalarField;
    location    "10.5";
    object      phi;
}
// * * * * * * * * * * * * * * * * * * * * * * * * * * * * * * * * * * * * * //

dimensions      [0 3 -1 0 0 0 0];

internalField   nonuniform List<scalar> 
275122
(
-0.000244793
0.0002467041
-1.861852e-07
-1.724956e-06
-0.0002153135
0.0002046395
8.531365e-07
9.820823e-06
-0.0002099533
0.0002145862
-2.04535e-07
-4.428367e-06
-0.0002306812
0.000236322
-2.619788e-07
-5.378815e-06
-0.0002505093
0.0002520949
-2.882026e-07
-1.297489e-06
-0.0002516057
0.0002511984
-2.385155e-07
6.458542e-07
-0.0002491257
0.0002483095
-2.154858e-07
1.031641e-06
-0.0002455206
0.0002445034
-1.975229e-07
1.214764e-06
-0.0002412789
0.0002401523
-1.806482e-07
1.307232e-06
-0.0002366284
0.0002354036
-1.640411e-07
1.388904e-06
-0.0002315987
0.000230294
-1.564955e-07
1.461147e-06
-0.0002261954
0.0002247619
-1.252884e-07
1.5588e-06
-0.0002202904
0.0002187376
-1.068779e-07
1.659592e-06
-0.0002138976
0.000212229
-9.018123e-08
1.758838e-06
-0.0002070905
0.0002053509
-7.941153e-08
1.819044e-06
-0.0002001138
0.0001983915
-7.705429e-08
1.7994e-06
-0.0001933362
0.000191724
-7.623092e-08
1.68846e-06
-0.0001871026
0.0001856759
-7.223863e-08
1.498984e-06
-0.0001818319
0.0001807466
-1.008009e-07
1.186075e-06
-0.0001785577
0.000178751
-3.13749e-07
1.204726e-07
-0.0001972851
0.000204998
-7.175973e-07
-6.99529e-06
-0.0002065934
0.0002063712
-1.605132e-07
3.827507e-07
-0.0002079924
0.0002090649
-7.387958e-08
-9.986368e-07
-0.0002299685
0.0002378246
2.243138e-07
-8.080399e-06
-0.0002377455
0.0002370333
3.210196e-07
3.911172e-07
-0.0002377939
0.0002377843
-4.053578e-08
5.012389e-08
-0.0002364214
0.0002354905
-4.560703e-08
9.765005e-07
-0.000231713
0.0002291308
-2.031038e-08
2.60247e-06
-0.0002142872
0.0002000679
-5.247131e-08
1.427174e-05
-0.00016381
0.0001681633
4.0225e-09
-4.357316e-06
-0.000231964
0.0002436067
-6.334e-08
-1.157937e-05
-0.0002769778
0.0002879869
5.9677e-09
-1.101507e-05
-0.0003215484
0.0003328838
6.569693e-09
-1.134196e-05
-0.000367386
0.0003789349
7.298639e-09
-1.155624e-05
-0.000414273
0.0004262103
7.819562e-09
-1.194511e-05
-0.0004622631
0.0004743991
6.940108e-09
-1.214291e-05
-0.0005110461
0.0005233263
6.702147e-09
-1.228696e-05
-0.0005602198
0.0005725095
1.013084e-08
-1.22998e-05
-0.0006095075
0.0006218244
8.964199e-09
-1.232584e-05
-0.000658518
0.0006715188
1.972757e-07
-1.319809e-05
1.07223e-05
-0.000454588
0.0004557798
1.861928e-10
-1.191426e-05
1.07303e-05
-0.0004594468
0.0004605538
-7.001436e-10
-1.183659e-05
1.084103e-05
-0.0004634514
0.0004642977
-1.270062e-09
-1.168605e-05
1.099763e-05
-0.000466347
0.0004668693
-1.338715e-09
-1.151852e-05
1.110504e-05
-0.0004679819
0.0004682199
-1.382518e-09
-1.134165e-05
1.113891e-05
-0.0004685978
0.0004686219
-1.14146e-09
-1.116186e-05
1.11108e-05
-0.0004684389
0.0004683013
-8.867895e-10
-1.09724e-05
1.104012e-05
-0.0004676919
0.0004674282
-6.406138e-10
-1.077576e-05
1.118034e-05
-0.0004662401
0.0004651364
-2.657611e-10
-1.007644e-05
9.013297e-06
-0.001886758
0.001887255
7.447526e-11
-3.821959e-05
9.879121e-06
8.982623e-06
9.847639e-06
1.0166e-05
-0.001886151
0.001883482
3.987304e-11
-3.835829e-05
1.038082e-05
1.013634e-05
1.034425e-05
1.002546e-05
-0.001880208
0.0018765
-3.184636e-12
-3.670107e-05
1.020713e-05
9.995103e-06
1.018148e-05
1.003413e-05
-0.001872727
0.001868607
-5.357206e-11
-3.61604e-05
1.013182e-05
1.000631e-05
1.010816e-05
9.993777e-06
-0.001864372
0.001859719
-8.43546e-11
-3.538615e-05
1.005759e-05
9.962907e-06
1.002448e-05
9.834876e-06
-0.001855583
0.001850849
-8.293115e-11
-3.469113e-05
9.908536e-06
9.806096e-06
9.874834e-06
9.673504e-06
-0.001846199
0.001841322
-5.453702e-11
-3.376784e-05
9.67708e-06
9.644685e-06
9.649703e-06
9.431564e-06
-0.001836521
0.001831501
-1.878454e-11
-3.261849e-05
9.411361e-06
9.406637e-06
9.388581e-06
9.093582e-06
-0.001826675
0.00182137
6.31301e-12
-3.103456e-05
9.098756e-06
9.071409e-06
9.076168e-06
7.999469e-06
-0.001814663
0.001811794
1.688538e-11
-3.005063e-05
8.472419e-06
7.98019e-06
8.467687e-06
8.543861e-06
-0.001807082
0.001800655
1.616291e-11
-2.74433e-05
8.391498e-06
8.544798e-06
8.390629e-06
7.90746e-06
-0.001794362
0.001788005
1.252614e-11
-2.487855e-05
7.712786e-06
7.905568e-06
7.709412e-06
7.323197e-06
-0.00178162
0.001774945
1.180244e-11
-2.230174e-05
7.169124e-06
7.318981e-06
7.164975e-06
6.764404e-06
-0.0017681
0.001760945
1.234095e-11
-1.962474e-05
6.62985e-06
6.75935e-06
6.626192e-06
6.222817e-06
-0.00175359
0.001745873
7.659012e-12
-1.69224e-05
6.105461e-06
6.212355e-06
6.098228e-06
5.78033e-06
-0.001737935
0.00172953
1.247165e-11
-1.446286e-05
5.684264e-06
5.744975e-06
5.658666e-06
5.577621e-06
-0.001720881
0.001711727
1.305898e-11
-1.278975e-05
5.527732e-06
5.435819e-06
5.40304e-06
6.045876e-06
-0.001702161
0.00169146
1.606922e-11
-1.251458e-05
6.147998e-06
5.48078e-06
5.541095e-06
8.924565e-06
-0.001678145
0.001657578
2.226761e-11
-1.206698e-05
9.558254e-06
7.2981e-06
6.853872e-06
-2.711907e-06
-0.001632963
0.001635261
2.382888e-11
4.14298e-07
-1.046918e-06
-0.001635912
0.001627737
1.156736e-11
9.222459e-06
9.544572e-06
-0.001616221
0.001603799
5.331835e-13
2.877454e-06
8.042451e-06
-0.001592031
0.001580577
-1.086535e-11
3.411918e-06
-1.110906e-07
-0.001569628
0.001561638
-1.937004e-11
8.101101e-06
-5.958808e-06
-0.001554924
0.001548525
-2.303522e-11
1.235831e-05
-7.504455e-06
-0.001542388
0.0015366
-2.307242e-11
1.32926e-05
-7.846789e-06
-0.001531121
0.001526054
-2.104063e-11
1.291351e-05
-7.936427e-06
-0.001521284
0.001516959
-1.812226e-11
1.22615e-05
-7.935031e-06
-0.001512922
0.001509325
-1.495097e-11
1.153211e-05
-8.014599e-06
-0.001506027
0.001503157
-1.24023e-11
1.088464e-05
-8.273757e-06
-0.001500563
0.001498385
-1.05909e-11
1.04525e-05
-8.701492e-06
-0.001496454
0.001494882
-9.185217e-12
1.027295e-05
-9.2331e-06
-0.001493516
0.001492449
-7.746246e-12
1.030038e-05
-9.716323e-06
-0.001491514
0.001490795
-5.421606e-12
1.043531e-05
-9.961498e-06
-0.001490103
0.001489543
-1.231346e-12
1.052155e-05
-9.818774e-06
-0.001488893
0.001488311
2.890394e-12
1.040113e-05
-9.221635e-06
-0.001487525
0.001486755
5.043961e-12
9.991256e-06
-7.852561e-06
-0.001485622
0.001484333
4.305964e-12
9.141527e-06
-5.136159e-06
-0.001482615
0.001480222
-3.202637e-12
7.529798e-06
-8.340166e-07
-0.001474704
0.00147
-1.375382e-11
5.538748e-06
-4.241003e-06
-0.001467532
0.001464902
-2.263237e-11
6.871044e-06
1.899952e-06
-0.001461233
0.001454728
-3.05711e-11
4.604947e-06
1.164453e-05
-0.001441235
0.001428902
-3.330224e-11
6.87646e-07
-2.75459e-06
-0.001419474
0.001412608
-3.0749e-11
9.619921e-06
-1.133889e-05
-0.001405708
0.001397814
-2.440333e-11
1.923275e-05
-1.84251e-05
-0.001389612
0.001381072
-1.317833e-11
2.696515e-05
-3.066977e-05
-0.00137323
0.001366962
-8.585725e-14
3.693749e-05
-5.672301e-05
-0.001362079
0.001367488
1.3521e-11
5.131415e-05
-1.170747e-05
-0.001375794
0.001368786
1.635761e-11
4.839659e-05
-9.030599e-06
-1.16759e-05
-8.973778e-06
-6.736998e-06
-0.001358965
0.001351671
1.665912e-11
3.388527e-05
-6.657592e-06
-6.635161e-06
-6.561408e-06
-5.531759e-06
-0.001343848
0.001335278
8.264317e-12
3.009028e-05
-5.272992e-06
-5.483082e-06
-5.232597e-06
-4.644298e-06
-0.001326505
0.001318037
3.036964e-12
2.679518e-05
-4.54031e-06
-4.62041e-06
-4.52187e-06
-4.20749e-06
-0.001309831
0.001301949
1.310667e-12
2.45581e-05
-4.137997e-06
-4.19819e-06
-4.131926e-06
-3.821226e-06
-0.001294229
0.001286833
2.598514e-12
2.255429e-05
-3.757699e-06
-3.82141e-06
-3.758323e-06
-3.512915e-06
-0.001279667
0.00127288
7.711813e-12
2.073905e-05
-3.459585e-06
-3.515257e-06
-3.463554e-06
-3.227604e-06
-0.001266308
0.001260124
1.424285e-11
1.900837e-05
-3.180337e-06
-3.231956e-06
-3.185357e-06
-2.952705e-06
-0.001254165
0.001248593
2.089875e-11
1.72985e-05
-2.904442e-06
-2.958511e-06
-2.910661e-06
-2.670128e-06
-0.001243246
0.001238286
2.668561e-11
1.555524e-05
-2.619705e-06
-2.67756e-06
-2.627529e-06
-2.373815e-06
-0.001233545
0.001229179
3.029867e-11
1.37713e-05
-2.321712e-06
-2.381361e-06
-2.328796e-06
-2.075323e-06
-0.001225026
0.001221245
3.160255e-11
1.199144e-05
-2.02554e-06
-2.080182e-06
-2.029719e-06
-1.792642e-06
-0.001217685
0.001214507
3.121953e-11
1.0263e-05
-1.747061e-06
-1.795238e-06
-1.749374e-06
-1.531323e-06
-0.001211561
0.001209001
2.975595e-11
8.606647e-06
-1.489841e-06
-1.533243e-06
-1.491948e-06
-1.286879e-06
-0.001206674
0.001204712
2.791003e-11
7.037524e-06
-1.248235e-06
-1.289608e-06
-1.250974e-06
-1.062722e-06
-0.001202969
0.001201567
2.625221e-11
5.589487e-06
-1.028457e-06
-1.065556e-06
-1.031186e-06
-8.647009e-07
-0.001200369
0.001199487
2.515634e-11
4.286058e-06
-8.348316e-07
-8.673994e-07
-8.373942e-07
-6.916657e-07
-0.001198792
0.001198387
2.425183e-11
3.124406e-06
-6.655321e-07
-6.941986e-07
-6.679252e-07
-5.403308e-07
-0.00119815
0.001198177
2.355853e-11
2.093263e-06
-5.175746e-07
-5.426681e-07
-5.198142e-07
-4.077226e-07
-0.001198355
0.001198772
2.297552e-11
1.178305e-06
-3.879898e-07
-4.098435e-07
-3.900496e-07
-2.915356e-07
-0.001199324
0.001200089
2.208474e-11
3.705875e-07
-2.744514e-07
-2.934521e-07
-2.763258e-07
-1.898015e-07
-0.001200987
0.001202079
2.076671e-11
-3.570024e-07
-1.756529e-07
-1.91473e-07
-1.772735e-07
-9.6532e-08
-0.001203287
0.001204689
2.088682e-11
-1.036329e-06
-8.484924e-08
-9.797035e-08
-8.628622e-08
-8.398557e-09
-0.001206191
0.001207872
2.452897e-11
-1.667697e-06
8.674112e-10
-6.702994e-09
2.40421e-10
7.397375e-08
-0.001209658
0.001211642
2.004829e-11
-2.301793e-06
8.562841e-08
7.309234e-08
8.47605e-08
1.67793e-07
0.001216054
1.95194e-11
-3.018881e-06
1.820295e-07
1.669673e-07
1.811508e-07
-0.001213733
2.805633e-07
-0.001218498
0.001221228
2.025682e-11
-3.886396e-06
2.987709e-07
2.79558e-07
2.976781e-07
4.2187e-07
-0.001224111
0.001227357
2.111447e-11
-4.97699e-06
4.45218e-07
4.206929e-07
4.440079e-07
5.970343e-07
-0.001230799
0.001234696
2.204577e-11
-6.3426e-06
6.272397e-07
5.958137e-07
6.259539e-07
8.154462e-07
-0.001238836
0.001243523
2.32408e-11
-8.018255e-06
8.511506e-07
8.140793e-07
8.497275e-07
1.076037e-06
-0.00124851
0.001254145
2.459012e-11
-1.001977e-05
1.117709e-06
1.074478e-06
1.116081e-06
1.378716e-06
-0.001260136
0.001266874
2.592081e-11
-1.234409e-05
1.425995e-06
1.376916e-06
1.424121e-06
1.717442e-06
-0.001274023
0.001282003
2.702622e-11
-1.494767e-05
1.768567e-06
1.715368e-06
1.76642e-06
2.074579e-06
-0.00129044
0.001299752
2.772939e-11
-1.770722e-05
2.125411e-06
2.072208e-06
2.122973e-06
2.416112e-06
-0.001309544
0.001320193
2.79397e-11
-2.039508e-05
2.459917e-06
2.413417e-06
2.457159e-06
2.693542e-06
-0.001331307
0.001343174
2.778281e-11
-2.269295e-05
2.722157e-06
2.690469e-06
2.719025e-06
2.854645e-06
-0.001355447
0.001368291
2.761801e-11
-2.426739e-05
2.860541e-06
2.851132e-06
2.856982e-06
2.853972e-06
-0.001381446
0.001394935
2.790867e-11
-2.484994e-05
2.830168e-06
2.850077e-06
2.826158e-06
2.645106e-06
-0.001408623
0.001422369
2.97161e-11
-2.41938e-05
2.582594e-06
2.641259e-06
2.578361e-06
2.172991e-06
-0.001436169
0.001449668
3.46639e-11
-2.195423e-05
2.057588e-06
2.170883e-06
2.053437e-06
1.250865e-06
-0.001463028
0.001475811
4.889897e-11
-1.737029e-05
1.032294e-06
1.255218e-06
1.049329e-06
-4.020564e-07
-0.001488571
0.001500891
5.916133e-11
-1.007686e-05
-7.365791e-07
-3.758803e-07
-7.282148e-07
-2.026823e-06
-0.001513091
0.001523971
4.267311e-11
-2.300967e-06
-2.195774e-06
-2.086392e-06
-2.26994e-06
-2.949004e-06
-0.001533659
0.001540991
2.279136e-11
4.719263e-06
-3.037478e-06
-2.99183e-06
-3.072677e-06
-3.599138e-06
-0.001546605
0.001549622
1.949917e-11
1.154737e-05
-3.700536e-06
-3.584187e-06
-3.68044e-06
-4.21589e-06
-0.001551027
0.001550164
2.724796e-11
1.781036e-05
-4.273024e-06
-4.19852e-06
-4.259878e-06
-4.514101e-06
-0.00154776
0.001543422
4.218773e-11
2.23829e-05
-4.503606e-06
-4.51677e-06
-4.510028e-06
-4.404443e-06
-0.00153772
0.001530632
6.140755e-11
2.455381e-05
-4.316874e-06
-4.416071e-06
-4.328161e-06
-3.932036e-06
-0.001522549
0.001513726
7.602476e-11
2.414208e-05
-3.720449e-06
-3.940784e-06
-3.725154e-06
-3.248312e-06
-0.001504139
0.001494288
6.83508e-11
2.174423e-05
-2.704426e-06
-3.248271e-06
-2.691644e-06
-2.27018e-06
-0.001485391
0.001476725
2.413677e-11
1.752186e-05
-2.162159e-06
-2.261462e-06
-2.16188e-06
-1.689224e-06
-0.00146908
0.00146276
-4.037447e-11
1.288671e-05
-1.59185e-06
-1.693121e-06
-1.592844e-06
-9.077496e-07
-0.001457502
0.001453908
-9.457997e-11
7.009694e-06
-8.026058e-07
-9.054601e-07
-7.995975e-07
-1.439611e-07
-0.001451581
0.001451203
-1.238106e-10
7.90657e-07
-6.363224e-08
-1.422756e-07
-6.27261e-08
5.440109e-07
-0.001452112
0.00145511
-1.204185e-10
-5.372248e-06
6.416892e-07
5.451611e-07
6.428435e-07
1.269838e-06
-0.001459283
0.001465329
-9.508036e-11
-1.132414e-05
1.368669e-06
1.270364e-06
1.368981e-06
1.929573e-06
-0.001472407
0.001481259
-5.670573e-11
-1.673021e-05
2.00964e-06
1.929295e-06
2.009292e-06
2.487051e-06
-0.001491039
0.001502449
-1.937438e-11
-2.14875e-05
2.552123e-06
2.486453e-06
2.551674e-06
2.972538e-06
-0.001514633
0.001528251
1.041706e-11
-2.560477e-05
3.025135e-06
2.968243e-06
3.021328e-06
3.35737e-06
-0.001542535
0.001558123
3.13686e-11
-2.909041e-05
3.393264e-06
3.356292e-06
3.395302e-06
3.668707e-06
-0.001574271
0.001591542
4.307969e-11
-3.200972e-05
3.700787e-06
3.668489e-06
3.699928e-06
3.910881e-06
-0.00160931
0.001627998
4.704929e-11
-3.437211e-05
3.936203e-06
3.907726e-06
3.92891e-06
4.087883e-06
-0.001647064
0.001666882
4.497052e-11
-3.619134e-05
4.10063e-06
4.085868e-06
4.098933e-06
4.180026e-06
-0.001687009
0.001707651
3.809781e-11
-3.736151e-05
4.181944e-06
4.177745e-06
4.18013e-06
4.168044e-06
-0.001728481
0.001749508
2.852309e-11
-3.767557e-05
4.158209e-06
4.166126e-06
4.156301e-06
4.004347e-06
-0.001770553
0.001791445
1.821013e-11
-3.684395e-05
3.973219e-06
4.002613e-06
3.97155e-06
3.689396e-06
-0.001812201
0.001832454
8.67717e-12
-3.491227e-05
3.642384e-06
3.687207e-06
3.640393e-06
3.282183e-06
-0.001852382
0.001871692
8.468463e-13
-3.230345e-05
3.216407e-06
3.280532e-06
3.214798e-06
2.847276e-06
-0.001890663
0.001909034
-4.871728e-12
-2.963455e-05
2.785588e-06
2.84588e-06
2.784166e-06
2.449484e-06
-0.001927112
0.001944626
-8.894557e-12
-2.721114e-05
2.400457e-06
2.447971e-06
2.399015e-06
2.002599e-06
-0.001961954
0.001978826
-1.105825e-11
-2.475527e-05
1.940299e-06
2.001317e-06
1.939321e-06
1.538879e-06
-0.001995435
0.002011323
-1.466595e-11
-2.192428e-05
1.480272e-06
1.538339e-06
1.479519e-06
1.022168e-06
-0.002026857
0.002041477
-1.616467e-11
-1.856967e-05
9.534445e-07
1.021712e-06
9.528146e-07
4.277618e-07
-0.002055635
0.002068624
-1.583909e-11
-1.454573e-05
3.506635e-07
4.27771e-07
3.503004e-07
-2.706069e-07
-0.002080892
0.002091868
-1.368609e-11
-9.719556e-06
-3.583317e-07
-2.699395e-07
-3.580255e-07
-1.079398e-06
0.002110557
-8.830934e-12
-3.963117e-06
-0.002102096
-1.171623e-06
-1.075992e-06
-1.170662e-06
-1.96253e-06
-0.002117918
0.002122918
-2.70639e-12
3.117126e-06
-2.085359e-06
-1.976054e-06
-2.093037e-06
-3.26348e-06
-0.002126633
0.002127342
1.993879e-12
1.265536e-05
-3.418986e-06
-3.25814e-06
-3.423033e-06
-4.957967e-06
-0.002125818
0.002120954
9.547944e-11
2.519028e-05
-5.21639e-06
-4.938295e-06
-5.213945e-06
-7.030702e-06
-0.002113188
0.002100859
1.072608e-10
4.12108e-05
-7.400442e-06
-7.022666e-06
-7.427811e-06
-9.828622e-06
-0.00208473
0.00206407
3.904029e-10
6.10032e-05
-1.025851e-05
-9.884062e-06
-1.037296e-05
-1.448789e-05
-0.002035863
0.002003056
9.014493e-10
9.388562e-05
-1.561439e-05
-1.483698e-05
-1.614025e-05
-2.111911e-05
-0.001965528
0.001925344
1.388716e-09
0.0001326691
-2.30312e-05
-2.297387e-05
-2.536191e-05
-3.994879e-05
-0.001884094
0.001837748
2.50574e-09
0.0002142595
-4.342587e-05
-4.056913e-05
-4.397133e-05
-4.418676e-05
-0.001779683
0.001682488
1.573084e-09
0.0002552832
-3.710728e-05
-4.227862e-05
-3.451706e-05
-9.005848e-06
-0.001516241
0.001310114
1.331736e-09
0.0002394494
-7.817121e-06
-8.75769e-06
-7.742582e-06
-7.576063e-06
-0.001131089
0.001013067
1.376425e-10
0.0001511263
-8.707345e-06
-7.836003e-06
-8.985339e-06
-1.363267e-05
-0.0009350834
0.0008661121
-2.369575e-09
0.0001254562
-1.442534e-05
-1.383241e-05
-1.459207e-05
-1.45908e-05
-0.0008002824
0.0007361553
-3.282778e-09
0.0001206531
-1.368841e-05
-1.458038e-05
-1.36632e-05
-7.578884e-06
-0.0006851172
0.0006474634
-3.002666e-09
6.649653e-05
-6.865656e-06
-7.55375e-06
-6.841451e-06
-2.909384e-06
-0.0006218739
0.0006050418
-2.251884e-09
2.798316e-05
-2.680333e-06
-2.891868e-06
-2.667233e-06
-1.370842e-06
-0.000593425
0.0005854202
-1.409809e-09
1.339495e-05
-1.324961e-06
-1.368463e-06
-1.324499e-06
-1.176163e-06
-0.0005784468
0.0005723869
-6.416463e-10
1.079601e-05
-1.190499e-06
-1.177007e-06
-1.191761e-06
-1.277277e-06
-0.0005661541
0.0005600454
1.985449e-11
1.124892e-05
-1.290523e-06
-1.279542e-06
-1.292916e-06
-1.301507e-06
-0.0005537521
0.0005473553
6.439592e-10
1.159626e-05
-1.296649e-06
-1.303377e-06
-1.298539e-06
-1.23575e-06
-0.0005408746
0.0005343109
1.124728e-09
1.147727e-05
-1.220565e-06
-1.236778e-06
-1.22162e-06
-1.143923e-06
-0.0005277364
0.000521149
1.209476e-09
1.11284e-05
-1.126769e-06
-1.1444e-06
-1.127128e-06
-1.044889e-06
-0.0005145585
0.0005081876
8.405066e-10
1.050979e-05
-1.024835e-06
-1.045055e-06
-1.024893e-06
-8.549869e-07
-0.0005020235
0.000496386
2.669323e-10
8.98977e-06
-8.216915e-07
-8.547142e-07
-8.211867e-07
-4.153903e-07
-0.0004906641
0.0004852996
-2.006235e-10
6.837667e-06
-3.21761e-07
-4.14142e-07
-3.216321e-07
-1.278967e-07
-0.000117022
0.000116106
-4.326252e-11
1.043923e-06
-3.762855e-07
-0.0001138395
0.0001134502
-2.622311e-10
7.658143e-07
-3.159177e-07
-0.0001128684
0.0001127865
-1.921256e-10
3.97977e-07
-2.80525e-07
-0.0001126665
0.0001126428
-1.328016e-10
3.043758e-07
-2.986205e-07
-0.0001125716
0.000112544
-9.714323e-11
3.263003e-07
-3.396188e-07
-0.000112443
0.000112406
-7.606218e-11
3.766398e-07
-3.732592e-07
-0.000112291
0.000112257
-6.223296e-11
4.073383e-07
-3.964655e-07
-0.0001121705
0.0001121509
-6.357066e-11
4.161065e-07
-4.171503e-07
-0.0001121163
0.0001121147
-6.32046e-11
4.188226e-07
-4.540569e-07
-0.0001121263
0.0001121314
-5.377407e-11
4.48941e-07
-5.215255e-07
-0.0001121218
0.0001121047
-5.015728e-11
5.386603e-07
-6.049057e-07
-0.0001119939
0.0001119306
-3.460075e-11
6.682731e-07
-6.765644e-07
-0.0001116608
0.0001115399
1.047683e-11
7.975053e-07
-7.282545e-07
-0.0001110903
0.0001109068
2.079311e-11
9.116987e-07
-7.682187e-07
-0.0001102651
0.0001100161
-2.54136e-11
1.017215e-06
-8.085048e-07
-0.0001091771
0.0001088622
-8.321956e-11
1.12353e-06
-8.547031e-07
-0.0001078256
0.0001074445
-1.279578e-10
1.23599e-06
-9.067114e-07
-0.0001062075
0.0001057585
-1.595752e-10
1.355939e-06
-9.610958e-07
-0.0001043156
0.0001037972
-1.841267e-10
1.479648e-06
-1.013374e-06
-0.0001021473
0.0001015607
-1.976935e-10
1.6002e-06
-1.05988e-06
-9.971096e-05
9.905991e-05
-2.095149e-10
1.711133e-06
-1.0981e-06
-9.702513e-05
9.631567e-05
-2.215449e-10
1.807789e-06
-1.126426e-06
-9.411611e-05
9.335576e-05
-2.297102e-10
1.887009e-06
-1.1439e-06
-9.101588e-05
9.021343e-05
-2.332436e-10
1.946577e-06
-1.14978e-06
-8.776111e-05
8.692646e-05
-2.317652e-10
1.984661e-06
-1.14353e-06
-8.439308e-05
8.353721e-05
-2.29362e-10
1.999633e-06
-1.12471e-06
-8.095732e-05
8.009263e-05
-2.344206e-10
1.98963e-06
-1.092745e-06
-7.750529e-05
7.664554e-05
-2.326408e-10
1.952721e-06
-1.047406e-06
-7.409352e-05
7.325369e-05
-2.212303e-10
1.88746e-06
-9.890806e-07
-7.078325e-05
6.997902e-05
-1.897947e-10
1.793504e-06
-9.188738e-07
-6.763756e-05
6.688485e-05
-1.718539e-10
1.671752e-06
-8.381493e-07
-6.471941e-05
6.403374e-05
-1.501868e-10
1.523962e-06
-7.482696e-07
-6.208994e-05
6.148652e-05
-1.218791e-10
1.351817e-06
-6.491013e-07
-5.981038e-05
5.930559e-05
-9.237034e-11
1.153983e-06
-5.276862e-07
-5.795407e-05
5.757074e-05
-6.128127e-11
9.110764e-07
-1.550141e-07
-5.659777e-05
5.625228e-05
-2.569417e-11
5.005274e-07
6.831748e-08
-5.534805e-05
5.512077e-05
1.275964e-12
1.589613e-07
1.702727e-07
-5.46277e-05
5.453483e-05
2.474169e-11
-7.742234e-08
2.747839e-07
-5.443693e-05
5.447116e-05
5.40653e-11
-3.090713e-07
3.833698e-07
-5.475105e-05
5.491035e-05
8.424334e-11
-5.427547e-07
4.957797e-07
-5.555628e-05
5.583522e-05
1.09238e-10
-7.748272e-07
6.097487e-07
-5.683262e-05
5.72255e-05
1.318474e-10
-1.002757e-06
7.235287e-07
-5.855473e-05
5.905417e-05
1.519119e-10
-1.223121e-06
8.352596e-07
-6.069101e-05
6.128824e-05
1.619152e-10
-1.432654e-06
9.431756e-07
-6.320504e-05
6.389034e-05
1.950401e-10
-1.628671e-06
1.045574e-06
-6.605651e-05
6.681964e-05
2.216352e-10
-1.808926e-06
1.142138e-06
-6.920376e-05
7.00337e-05
2.180568e-10
-1.972288e-06
1.231291e-06
-7.260389e-05
7.349025e-05
2.269231e-10
-2.117877e-06
1.312852e-06
-7.621517e-05
7.714764e-05
2.356114e-10
-2.245555e-06
1.386422e-06
-7.999687e-05
8.09655e-05
2.412521e-10
-2.355286e-06
1.452003e-06
-8.391004e-05
8.490557e-05
2.457237e-10
-2.44778e-06
1.510037e-06
-8.791907e-05
8.893331e-05
2.488871e-10
-2.524517e-06
1.560994e-06
-9.199266e-05
9.301841e-05
2.492405e-10
-2.586998e-06
1.605269e-06
-9.610328e-05
9.71342e-05
2.48228e-10
-2.636439e-06
1.643206e-06
-0.0001002265
0.000101257
2.472519e-10
-2.673886e-06
1.675158e-06
-0.0001043407
0.0001053657
2.442952e-10
-2.700364e-06
1.701564e-06
-0.0001084268
0.000109442
2.395826e-10
-2.716958e-06
1.722886e-06
-0.0001124684
0.0001134701
2.362137e-10
-2.724796e-06
1.739668e-06
-0.0001164516
0.0001174368
2.320571e-10
-2.725055e-06
1.752487e-06
-0.0001203652
0.0001213314
2.20633e-10
-2.718893e-06
1.761776e-06
-0.0001242002
0.0001251455
2.201612e-10
-2.707365e-06
1.767997e-06
-0.0001279496
0.0001288728
2.186627e-10
-2.691446e-06
1.771816e-06
-0.0001316086
0.0001325086
2.064057e-10
-2.672014e-06
1.773313e-06
-0.0001351738
0.00013605
2.003096e-10
-2.64977e-06
1.773141e-06
-0.0001386431
0.0001394951
1.948723e-10
-2.62537e-06
1.771824e-06
-0.0001420155
0.0001428427
1.871672e-10
-2.599189e-06
1.770909e-06
-0.000145291
0.0001460917
1.856266e-10
-2.571801e-06
1.770251e-06
-0.0001484681
0.0001492431
1.843381e-10
-2.545402e-06
1.770988e-06
-0.0001515422
0.0001523008
1.892045e-10
-2.529796e-06
1.819052e-06
-0.000154523
0.0001552673
3.448146e-10
-2.563718e-06
1.769462e-06
-0.0001565364
0.000641873
9.623105e-12
-1.209185e-05
9.773382e-07
1.767577e-06
9.76279e-07
-0.0001565371
-0.0001610988
-0.0001610995
1.335243e-06
-0.0006497704
0.0006561055
-1.798288e-12
-1.217243e-05
1.591336e-06
1.326725e-06
1.584035e-06
1.530539e-06
-0.000661973
0.0006676077
1.823747e-11
-1.188962e-05
1.603238e-06
1.523444e-06
1.597621e-06
1.593081e-06
-0.000673173
0.0006785906
1.496249e-11
-1.184418e-05
1.62375e-06
1.589445e-06
1.620281e-06
1.634427e-06
-0.0006839357
0.0006891571
1.371736e-11
-1.178962e-05
1.653497e-06
1.63071e-06
1.649575e-06
1.659867e-06
-0.0006943293
0.0006993958
7.865771e-12
-1.17213e-05
1.671365e-06
1.655979e-06
1.667651e-06
1.677478e-06
-0.0007044108
0.000709324
4.831663e-12
-1.162857e-05
1.683383e-06
1.674199e-06
1.680284e-06
1.687184e-06
-0.0007141865
0.00071895
2.585217e-12
-1.151216e-05
1.689818e-06
1.684474e-06
1.687242e-06
1.69017e-06
-0.000723664
0.0007282806
3.543979e-12
-1.137475e-05
1.691305e-06
1.687776e-06
1.688945e-06
1.688343e-06
-0.0007328479
0.0007373185
6.588918e-12
-1.122111e-05
1.689051e-06
1.686217e-06
1.686934e-06
1.683525e-06
-0.0007417396
0.0007460665
6.381093e-12
-1.105808e-05
1.683904e-06
1.681678e-06
1.682118e-06
1.67686e-06
-0.0007503445
0.0007545317
3.784833e-13
-1.089201e-05
1.677122e-06
1.675261e-06
1.675557e-06
1.669394e-06
-0.0007586715
0.0007627247
-7.225186e-12
-1.072842e-05
1.669626e-06
1.667988e-06
1.66825e-06
1.661819e-06
-0.0007667324
0.0007706582
-1.077841e-11
-1.057114e-05
1.662111e-06
1.660561e-06
1.660865e-06
1.654597e-06
-0.0007745409
0.0007783468
-8.386298e-12
-1.042263e-05
1.654936e-06
1.653451e-06
1.653809e-06
1.647899e-06
-0.0007821121
0.0007858059
-3.402935e-12
-1.028413e-05
1.648287e-06
1.64687e-06
1.647274e-06
1.64181e-06
-0.000789462
0.0007930519
1.570119e-12
-1.015609e-05
1.642244e-06
1.640863e-06
1.6413e-06
1.636425e-06
-0.0007966068
0.0008001005
5.158595e-12
-1.003862e-05
1.636905e-06
1.635529e-06
1.636016e-06
1.631765e-06
-0.000803562
0.0008069669
6.606214e-12
-9.93145e-06
1.6323e-06
1.630946e-06
1.631497e-06
1.62777e-06
-0.000810342
0.000813665
6.54419e-12
-9.833691e-06
1.628341e-06
1.627015e-06
1.627591e-06
1.624282e-06
-0.0008169605
0.0008202076
5.755184e-12
-9.743954e-06
1.624871e-06
1.623557e-06
1.624141e-06
1.621065e-06
-0.0008234292
0.0008266056
4.848822e-12
-9.660529e-06
1.621645e-06
1.620386e-06
1.620976e-06
1.61791e-06
-0.0008297584
0.0008328685
4.057665e-12
-9.581622e-06
1.618448e-06
1.617299e-06
1.617854e-06
1.614645e-06
-0.0008359562
0.0008390032
3.485456e-12
-9.505502e-06
1.61512e-06
1.614069e-06
1.614585e-06
1.611036e-06
-0.0008420291
0.0008450158
3.14382e-12
-9.430333e-06
1.611407e-06
1.610444e-06
1.610788e-06
1.606788e-06
-0.000847982
0.0008509098
2.973869e-12
-9.354244e-06
1.607103e-06
1.606163e-06
1.606438e-06
1.601793e-06
-0.0008538176
0.0008566869
2.916824e-12
-9.275588e-06
1.601918e-06
1.601184e-06
1.601331e-06
1.595774e-06
-0.0008595364
0.0008623469
2.95024e-12
-9.192416e-06
1.595744e-06
1.595222e-06
1.595204e-06
1.588561e-06
-0.0008651373
0.0008678875
2.980614e-12
-9.103009e-06
1.588337e-06
1.588041e-06
1.587825e-06
1.579884e-06
-0.0008706172
0.0008733051
2.990197e-12
-9.005501e-06
1.579445e-06
1.579375e-06
1.578931e-06
1.569563e-06
-0.0008759716
0.0008785942
3.083148e-12
-8.898356e-06
1.568859e-06
1.56906e-06
1.568351e-06
1.557408e-06
-0.0008811943
0.0008837477
3.159729e-12
-8.780196e-06
1.556451e-06
1.556934e-06
1.555979e-06
1.54327e-06
-0.0008862775
0.0008887575
3.209973e-12
-8.649716e-06
1.54203e-06
1.542809e-06
1.541564e-06
1.52705e-06
-0.0008912124
0.0008936141
3.079641e-12
-8.505782e-06
1.525441e-06
1.526584e-06
1.524975e-06
1.508556e-06
-0.0008959889
0.0008983069
3.025948e-12
-8.347609e-06
1.50667e-06
1.50812e-06
1.506232e-06
1.487829e-06
-0.0009005962
0.0009028249
3.031429e-12
-8.174608e-06
1.485564e-06
1.487411e-06
1.485155e-06
1.464859e-06
-0.0009050227
0.0009071559
2.967748e-12
-7.986813e-06
1.462369e-06
1.464443e-06
1.461943e-06
1.439862e-06
-0.0009092564
0.0009112878
3.545727e-12
-7.78437e-06
1.436975e-06
1.439466e-06
1.436587e-06
1.412798e-06
-0.0009132843
0.0009152074
3.266454e-12
-7.567714e-06
1.409836e-06
1.412457e-06
1.409508e-06
1.383917e-06
-0.0009170937
0.000918902
3.710269e-12
-7.336674e-06
1.380538e-06
1.383584e-06
1.38024e-06
1.352694e-06
-0.0009206713
0.0009223577
2.968722e-12
-7.090064e-06
1.349448e-06
1.352355e-06
1.349082e-06
1.31817e-06
-0.0009240029
0.0009255598
2.926704e-12
-6.823084e-06
1.315334e-06
1.317795e-06
1.31493e-06
1.280382e-06
-0.000927072
0.0009284867
3.657161e-12
-6.526842e-06
1.276059e-06
1.280023e-06
1.275704e-06
1.231005e-06
-0.0009298488
0.0009311003
9.631607e-13
-6.171978e-06
1.22952e-06
1.230704e-06
1.229246e-06
1.151189e-06
-0.0009322934
0.0009334195
3.311702e-12
-5.700871e-06
1.136423e-06
1.150908e-06
1.136171e-06
9.931033e-07
-0.0009345734
0.0009357872
1.570781e-12
-5.052735e-06
9.266763e-07
9.928224e-07
9.262923e-07
8.15974e-07
-0.0009370376
0.0009381654
4.321918e-12
-4.374602e-06
8.07635e-07
8.157577e-07
8.074159e-07
7.657448e-07
-0.0009392282
0.0009402026
3.57721e-12
-4.030134e-06
7.623408e-07
7.655331e-07
7.621251e-07
7.23665e-07
-0.0009411329
0.0009419757
1.369691e-12
-3.726882e-06
7.185437e-07
7.234848e-07
7.183648e-07
6.874839e-07
-0.0009427701
0.0009434739
-2.431784e-12
-3.447943e-06
6.847816e-07
6.872962e-07
6.846068e-07
6.520548e-07
-0.0009441397
0.0009447071
-8.4987e-12
-3.168521e-06
6.487235e-07
6.518369e-07
6.485302e-07
6.18178e-07
-0.0009452248
0.000945639
-2.144183e-11
-2.876548e-06
6.131163e-07
6.180865e-07
6.129991e-07
5.629131e-07
-0.0009460232
0.0009464313
-3.037076e-11
-2.622781e-06
5.451242e-07
5.623036e-07
5.444417e-07
3.302407e-07
-0.00094732
0.0009487652
-1.773424e-11
-2.957652e-06
4.264399e-07
3.290234e-07
4.267202e-07
6.551948e-07
-0.000949467
0.0009483991
5.610074e-11
-1.319353e-06
5.33969e-07
6.596563e-07
5.383e-07
4.809855e-07
-0.0009478563
0.0009479941
3.219522e-11
-1.9105e-06
3.985418e-07
4.881494e-07
4.050142e-07
4.355472e-07
-0.0009479803
0.0009479976
1.918466e-11
-1.68786e-06
3.944168e-07
4.411325e-07
3.994619e-07
3.946607e-07
-0.0009479659
0.0009480248
1.348599e-11
-1.590394e-06
3.666867e-07
3.992418e-07
3.709789e-07
3.82592e-07
-0.0009480606
0.0009480957
1.1806e-11
-1.548747e-06
3.704663e-07
3.864583e-07
3.741245e-07
3.894184e-07
-0.0009480839
0.0009480482
1.026474e-11
-1.519631e-06
3.846619e-07
3.931843e-07
3.880469e-07
3.969201e-07
-0.0009479779
0.0009478886
3.36382e-12
-1.500762e-06
3.952471e-07
3.999458e-07
3.979486e-07
4.068871e-07
-0.0009477676
0.0009476245
-2.730152e-12
-1.486219e-06
4.05466e-07
4.091362e-07
4.078076e-07
4.137808e-07
-0.0009474595
0.0009472738
2.457999e-12
-1.474535e-06
4.142002e-07
4.159343e-07
4.162839e-07
4.226296e-07
-0.000947067
0.0009468378
5.769001e-12
-1.468426e-06
4.242978e-07
4.245764e-07
4.261977e-07
4.321762e-07
-0.0009465932
0.0009463298
-5.952334e-13
-1.473051e-06
4.343063e-07
4.339412e-07
4.360048e-07
4.411508e-07
-0.0009460513
0.0009457581
-1.08679e-11
-1.47936e-06
4.435569e-07
4.427656e-07
4.451454e-07
4.510396e-07
-0.0009454516
0.0009451378
-1.049928e-11
-1.497848e-06
4.534453e-07
4.523976e-07
4.547961e-07
4.601669e-07
-0.0009448227
0.0009445024
-1.514507e-13
-1.528518e-06
4.628826e-07
4.61507e-07
4.642418e-07
4.712132e-07
-0.00094417
0.0009438326
1.411414e-11
-1.552181e-06
4.725077e-07
4.722637e-07
4.73643e-07
4.793612e-07
-0.0009434898