/*--------------------------------*- C++ -*----------------------------------*\
| =========                 |                                                 |
| \\      /  F ield         | foam-extend: Open Source CFD                    |
|  \\    /   O peration     | Version:     3.1                                |
|   \\  /    A nd           | Web:         http://www.extend-project.de       |
|    \\/     M anipulation  |                                                 |
\*---------------------------------------------------------------------------*/
FoamFile
{
    version     2.0;
    format      ascii;
    class       volScalarField;
    location    "12.5";
    object      k;
}
// * * * * * * * * * * * * * * * * * * * * * * * * * * * * * * * * * * * * * //

dimensions      [0 2 -2 0 0 0 0];

internalField   nonuniform List<scalar> 
119952
(
0.06905812
0.06469804
0.06341709
0.06210587
0.06069998
0.05934182
0.0589116
0.05897304
0.05930411
0.05977343
0.06029377
0.06079687
0.06123162
0.06155276
0.06172647
0.06171094
0.06149694
0.06108528
0.06053025
0.06011224
0.06180396
0.05874458
0.05729248
0.0588914
0.05489008
0.05219558
0.04991898
0.04786792
0.04504711
0.02029045
0.09748343
0.09428997
0.0918205
0.09046102
0.09003473
0.09028964
0.09094775
0.0918093
0.09273433
0.09369851
0.08969231
0.09023553
0.09300017
0.09661183
0.1003635
0.1038593
0.1069761
0.1097047
0.1120146
0.1232951
0.1244223
0.1250805
0.1253189
0.1253403
0.1252989
0.1252711
0.1252875
0.125335
0.125417
0.1258766
0.1259423
0.1258669
0.1257295
0.1255651
0.1253798
0.1251684
0.1248856
0.1246751
0.12685
0.1265625
0.1256405
0.1254798
0.1254635
0.1252391
0.1246821
0.1239783
0.1232405
0.1224782
0.121688
0.120903
0.1201249
0.1193404
0.1185352
0.1176967
0.1168189
0.1158965
0.1149142
0.1138721
0.1130486
0.1122369
0.1112038
0.1107307
0.111047
0.110963
0.1106332
0.1104933
0.10999
0.1073468
0.1051247
0.1031201
0.1013044
0.09969891
0.09823378
0.09689542
0.09566502
0.09452783
0.09348118
0.09253236
0.09169373
0.09097651
0.09038394
0.08990746
0.08952785
0.08921876
0.08895089
0.0886965
0.08843264
0.08814164
0.08780973
0.0874267
0.08698681
0.08649056
0.08594512
0.08535976
0.08474457
0.08411173
0.08347406
0.08284548
0.08225043
0.08174758
0.08142916
0.08133301
0.0813182
0.0811719
0.08077532
0.08012055
0.07924442
0.07818367
0.07696301
0.07560752
0.07415175
0.07263882
0.07111648
0.06962895
0.06821082
0.06689082
0.06573831
0.06480457
0.0640381
0.06339577
0.06286773
0.06246099
0.06217853
0.06202142
0.06198285
0.06204869
0.06219977
0.06241022
0.06264571
0.06285711
0.06296283
0.06285628
0.06234698
0.06135524
0.05978893
0.05737003
0.05324502
0.05067677
0.05376081
0.0590664
0.06261139
0.06213447
0.05849851
0.05357086
0.04863105
0.04402584
0.03984938
0.03630121
0.03358894
0.03182639
0.03101314
0.03106126
0.03183347
0.03317561
0.03494005
0.03699735
0.03924077
0.04158989
0.04399361
0.04642841
0.04888859
0.05137333
0.05387956
0.056401
0.05892684
0.06143548
0.06379893
0.06039146
0.05772835
0.0578018
0.05832718
0.05899026
0.05964055
0.06019598
0.06062816
0.06093913
0.06114197
0.06124422
0.06124136
0.06112536
0.06089506
0.06055486
0.06010573
0.05954628
0.0588789
0.05810809
0.05723359
0.05624785
0.05515493
0.05397384
0.05270668
0.05133824
0.04982934
0.04815538
0.04643923
0.04470585
0.04298688
0.04131784
0.03975131
0.03828851
0.03694579
0.0357299
0.03457428
0.03392301
0.03348173
0.03313206
0.03284653
0.03260693
0.03240548
0.03223245
0.03206013
0.03185431
0.0316344
0.03140226
0.03115256
0.03087975
0.03057986
0.03025121
0.02989509
0.02951664
0.02912425
0.0287248
0.02832336
0.02791833
0.02750827
0.02711375
0.02674182
0.02640232
0.02610244
0.0258489
0.02564462
0.02549266
0.02539649
0.0253592
0.02538315
0.02546942
0.02561623
0.0268848
0.02727303
0.02764332
0.0279502
0.02825392
0.02857455
0.02892045
0.02929063
0.02968259
0.03009488
0.03052803
0.03098223
0.03145591
0.03194577
0.03244845
0.03296248
0.03348834
0.03402685
0.03457764
0.03513863
0.03570609
0.03627258
0.03682202
0.03732329
0.03772664
0.03796856
0.03798742
0.03774264
0.03725096
0.03658367
0.0358627
0.03519656
0.03461182
0.03412471
0.03377141
0.03354101
0.03333243
0.03282483
0.03288568
0.03444016
0.03688439
0.03952256
0.0420195
0.04402413
0.04507989
0.04506479
0.04427218
0.04306099
0.0416025
0.03989639
0.03794031
0.03575531
0.03347573
0.03129524
0.02937163
0.02749042
0.0258896
0.02455508
0.02345408
0.02255804
0.02184237
0.02128779
0.0208787
0.02060611
0.02046391
0.02045134
0.02057153
0.02082813
0.02122025
0.0217423
0.0223854
0.02313688
0.02397932
0.02489262
0.02585778
0.02685817
0.02788094
0.02891705
0.02996092
0.03101004
0.03206442
0.03312588
0.03419731
0.03528205
0.03638332
0.03750378
0.03864508
0.03980824
0.04099346
0.04221463
0.04345222
0.04467748
0.04587282
0.04702175
0.04810651
0.04910796
0.05000647
0.05078321
0.05142169
0.05190933
0.05223865
0.05240794
0.05242089
0.05228563
0.05201334
0.05161639
0.05110702
0.05049761
0.04980143
0.04903271
0.04820594
0.04733455
0.04642969
0.04549977
0.04455155
0.0435914
0.04262635
0.04166462
0.04071515
0.03978638
0.03888523
0.03801664
0.03718351
0.03638701
0.03562691
0.03490208
0.03421081
0.03355115
0.03292114
0.03231899
0.03174308
0.03119227
0.03066513
0.03015995
0.02967221
0.0291939
0.02870096
0.02823397
0.02834101
0.09509396
0.09073008
0.0970112
0.1050754
0.1121995
0.1179715
0.1225913
0.1263332
0.129552
0.1326234
0.1423539
0.1533792
0.1634983
0.1721199
0.1791121
0.1846245
0.1889098
0.1922295
0.2177655
0.2178583
0.2177871
0.2173387
0.2167758
0.2162428
0.2158047
0.2154534
0.2151519
0.2147507
0.2145365
0.214126
0.2133048
0.2122788
0.2111773
0.2100743
0.2090015
0.2079714
0.2069632
0.2061612
0.2053881
0.2042864
0.203022
0.2017069
0.2003702
0.1990375
0.1977278
0.1964449
0.1952042
0.1940181
0.1927752
0.1915492
0.1903412
0.1891416
0.1879633
0.1868129
0.1856952
0.1846405
0.194121
0.1928097
0.1915261
0.1902987
0.189106
0.1879319
0.1867594
0.1855747
0.1843524
0.183067
0.1817605
0.18046
0.1791623
0.177875
0.1766113
0.1753631
0.1741531
0.1730325
0.1721608
0.1712818
0.1700735
0.1689136
0.1679569
0.1670716
0.1661326
0.1651437
0.1641516
0.1631727
0.162207
0.1612435
0.1602506
0.1592165
0.1581534
0.1570347
0.1558447
0.154578
0.1532474
0.151879
0.150523
0.1492314
0.1479505
0.1467402
0.1458016
0.144891
0.143735
0.1423492
0.140728
0.1386286
0.1362532
0.1341694
0.1322992
0.1305076
0.1287601
0.1270493
0.1253804
0.1237623
0.1222025
0.1207097
0.1192941
0.117967
0.1167388
0.1156166
0.1146038
0.1136996
0.1128999
0.1121981
0.1115865
0.1110564
0.1105976
0.1101976
0.1098407
0.1095087
0.1091817
0.1088396
0.1084629
0.1080342
0.1075406
0.106977
0.1063505
0.1056856
0.1050309
0.1044516
0.1040025
0.1037046
0.1035442
0.1034812
0.1034555
0.1034014
0.1032604
0.1029733
0.1024809
0.1017477
0.1007674
0.09955653
0.09814961
0.09659417
0.09494581
0.09326083
0.09157991
0.08998136
0.08855069
0.08732346
0.08632302
0.08556577
0.08506148
0.08481297
0.08481779
0.08506788
0.08554435
0.0862172
0.08704835
0.0879766
0.0888999
0.08969865
0.09024525
0.09021546
0.08926305
0.08714091
0.08454469
0.08245496
0.08151692
0.08185916
0.08318735
0.08494337
0.08635541
0.08624461
0.08392338
0.07970156
0.07459838
0.06984223
0.06610724
0.06371884
0.06272004
0.06296562
0.06420184
0.06613515
0.06849417
0.07107594
0.07373248
0.07637708
0.07898054
0.08158975
0.084284
0.08711367
0.09009507
0.09321656
0.09644088
0.09966839
0.09785378
0.09960264
0.1020703
0.1043844
0.1063585
0.1079692
0.1092322
0.1101716
0.1108158
0.1111954
0.1113677
0.1113593
0.1111673
0.1107874
0.1102291
0.109502
0.1086061
0.1075395
0.1062975
0.1048655
0.1032457
0.1014362
0.0994214
0.09720264
0.09478825
0.09220809
0.08949064
0.08667761
0.0838138
0.0809388
0.07808559
0.07527921
0.07253654
0.06986557
0.0672677
0.06474928
0.06234816
0.06007001
0.05789944
0.05583459
0.05387808
0.05203615
0.05031481
0.0487083
0.04721243
0.0458236
0.0445387
0.04335451
0.04226739
0.04127294
0.04036583
0.03953974
0.03878717
0.03810056
0.03747264
0.03689622
0.03636535
0.03587445
0.03541723
0.03499836
0.03463
0.03432146
0.03407913
0.03390782
0.03381117
0.03379379
0.03386073
0.0340171
0.03426694
0.03461344
0.03706751
0.03766802
0.0383573
0.03910764
0.03988897
0.04067485
0.04144421
0.04218264
0.04288517
0.04355654
0.04420757
0.0448513
0.04550019
0.0461656
0.04685943
0.04759367
0.04837707
0.04921239
0.05009624
0.05102038
0.05197003
0.05291709
0.0538119
0.05457972
0.05512624
0.05535632
0.05520589
0.05467425
0.05383709
0.052827
0.0517916
0.05080306
0.04988229
0.04903354
0.04823495
0.04742654
0.04656557
0.04567474
0.04482329
0.04405082
0.04337496
0.04282497
0.04250287
0.04256004
0.04310933
0.04418413
0.04570023
0.04745451
0.04930336
0.05100992
0.05223042
0.05263256
0.05205556
0.05060136
0.04854608
0.0461673
0.04369485
0.04136566
0.03928581
0.03747577
0.03594166
0.03468312
0.03369255
0.03296075
0.03247903
0.03223975
0.03223514
0.03245674
0.03289462
0.03353628
0.03436527
0.03536058
0.03649666
0.03774441
0.03907317
0.04045308
0.04185711
0.04326255
0.04465186
0.04601312
0.04734006
0.04863176
0.04989183
0.05112741
0.05234796
0.05356392
0.05478542
0.05602115
0.05727754
0.05855871
0.05987503
0.06120967
0.06254452
0.06386081
0.0651369
0.06634768
0.06746543
0.06846142
0.06930835
0.06998288
0.0704681
0.07075499
0.0708424
0.0707365
0.07044975
0.0699957
0.06938732
0.06863781
0.0677616
0.06677468
0.06569416
0.06453691
0.06331806
0.06205085
0.06074799
0.05942098
0.05808104
0.05674027
0.05541106
0.05410477
0.05283072
0.05159579
0.0504044
0.04925875
0.04815925
0.04710489
0.04609386
0.0451237
0.04419195
0.04329575
0.04243294
0.04160029
0.0407958
0.04001383
0.03925218
0.03850456
0.03779562
0.03718025
0.03668436
0.05350093
0.0578334
0.06286869
0.06839194
0.07442758
0.08109372
0.08859279
0.09724182
0.1075695
0.1196405
0.1752384
0.1914573
0.2076059
0.223892
0.2397267
0.2548543
0.2690494
0.2859567
0.3137414
0.3748217
0.3862037
0.3963165
0.4046565
0.4117387
0.4175256
0.4223167
0.4260958
0.4287777
0.4308937
0.4327318
0.4349056
0.4361984
0.4362137
0.4350606
0.4329669
0.4301414
0.426761
0.4233063
0.417319
0.4118965
0.4068773
0.4021311
0.3975659
0.3930809
0.3885975
0.384063
0.3794887
0.3749447
0.3702524
0.3655129
0.3607467
0.3559856
0.3512713
0.3466247
0.3420402
0.3374933
0.3465991
0.3422588
0.3378491
0.3334715
0.3291717
0.3249477
0.3208034
0.3167407
0.312782
0.3089262
0.3051363
0.3014378
0.2978504
0.2943449
0.2909114
0.2875556
0.2842866
0.2811238
0.2780854
0.2751363
0.2722549
0.2694662
0.266744
0.2640558
0.2613951
0.2587731
0.2562077
0.2537076
0.2512584
0.2488581
0.2464929
0.244131
0.2417723
0.2394455
0.2371813
0.2350063
0.232909
0.2308446
0.2287926
0.2267774
0.2248062
0.222878
0.2210031
0.2191934
0.2174461
0.21574
0.214039
0.2123132
0.2105585
0.2087742
0.2069775
0.2051983
0.203469
0.2018018
0.2002045
0.1986739
0.1972075
0.1957716
0.1942664
0.1927716
0.1913916
0.1901309
0.1889474
0.1878051
0.1866907
0.1856131
0.1845838
0.183603
0.1826435
0.1816419
0.1805679
0.1793985
0.1781155
0.176726
0.1752595
0.173755
0.1722555
0.1707912
0.1693522
0.1679434
0.1665839
0.1651581
0.1635567
0.1617184
0.159654
0.1573183
0.1548618
0.1524804
0.1502065
0.1480098
0.1458675
0.14377
0.141722
0.1397346
0.1378194
0.135987
0.134247
0.1326073
0.1310737
0.1296487
0.1283315
0.127118
0.126002
0.1249761
0.1240339
0.1231699
0.1223792
0.1216562
0.1209932
0.1203799
0.119802
0.1192416
0.1186772
0.1180843
0.1174391
0.1167225
0.1159251
0.115053
0.1141316
0.113203
0.112313
0.1115019
0.1107999
0.1102241
0.1097751
0.1094358
0.1091729
0.1089399
0.1086806
0.108337
0.1078573
0.1072025
0.1063509
0.1053008
0.1040692
0.1026869
0.1011966
0.09964469
0.09809277
0.0966502
0.09538826
0.09435959
0.09361001
0.09317617
0.09308518
0.09335471
0.09398999
0.09497891
0.09628903
0.09786494
0.09961074
0.1013756
0.1029944
0.1042567
0.1047586
0.1042762
0.1029548
0.1012475
0.09945622
0.09776235
0.09648351
0.09612534
0.09689647
0.09819324
0.09906588
0.09839869
0.09583705
0.09194762
0.08770172
0.08412467
0.08174962
0.08071553
0.08090355
0.08204848
0.08384936
0.08608856
0.0885793
0.09118119
0.09379753
0.09642905
0.09916209
0.1020945
0.1052588
0.1086323
0.1121442
0.1156912
0.1190963
0.1224904
0.1256062
0.1282924
0.1304836
0.1321704
0.1333884
0.1342141
0.1346761
0.1348587
0.1347983
0.1345189
0.1340413
0.133379
0.1325378
0.1315242
0.1303411
0.1289882
0.1274658
0.1257676
0.1238832
0.1218138
0.1195594
0.1170915
0.1144343
0.1116197
0.1086738
0.105628
0.102521
0.0993916
0.09627528
0.09320069
0.09018806
0.08724965
0.08439306
0.08162963
0.07897268
0.07642428
0.07398075
0.07164011
0.0694015
0.0672652
0.06523478
0.06330702
0.06147863
0.05974675
0.0581089
0.05656285
0.0551065
0.0537377
0.05245412
0.05125311
0.05013165
0.04908637
0.04811379
0.04721072
0.04637458
0.04560326
0.04489521
0.04424997
0.04366826
0.04315141
0.04270741
0.04235464
0.04210446
0.04196343
0.0419391
0.04203712
0.04226441
0.0426239
0.04310953
0.04371509
0.0444252
0.04521512
0.04605779
0.0469244
0.047787
0.04862434
0.04942806
0.05020433
0.05096886
0.05174093
0.05253903
0.05338077
0.05428479
0.05526809
0.05633939
0.05749656
0.05872908
0.06002199
0.06135257
0.06267764
0.06392133
0.06497542
0.0657155
0.06603355
0.06587785
0.06528298
0.06436901
0.06330271
0.0622352
0.06123271
0.06030883
0.05945217
0.05862894
0.05781375
0.05699647
0.0561535
0.0552549
0.05426145
0.05314264
0.05188086
0.05050103
0.04908893
0.04778297
0.04674967
0.04614311
0.04607786
0.04662328
0.04777891
0.04942536
0.05125467
0.05298232
0.05435419
0.05510826
0.05505447
0.05418684
0.05267739
0.05078019
0.04871823
0.04670899
0.04488833
0.04330926
0.04200763
0.04100523
0.04031114
0.03992594
0.03984331
0.04005104
0.04053124
0.04126074
0.04221137
0.0433505
0.04464172
0.04604628
0.04752532
0.04904238
0.05056517
0.0520673
0.05352916
0.05493843
0.05629024
0.05758631
0.05883406
0.06004515
0.06123389
0.06241535
0.06360347
0.06480967
0.06604135
0.06730687
0.06860942
0.06993686
0.07127392
0.07260022
0.07388971
0.07511152
0.0762316
0.07721551
0.07803176
0.07865536
0.07907068
0.07927227
0.07925878
0.07904323
0.07864137
0.07806612
0.07733012
0.07644722
0.07543298
0.0743046
0.07307981
0.07177412
0.07039799
0.06896585
0.06749384
0.06599726
0.06449196
0.06299365
0.06151652
0.06007215
0.05866921
0.0573135
0.05600812
0.05475391
0.05355004
0.05239435
0.05128408
0.0502159
0.04918667
0.04819282
0.0472316
0.04629901
0.04539328
0.04451084
0.0436557
0.04283275
0.04206782
0.04140862
0.03915989
0.04437195
0.04903199
0.07534118
0.1022074
0.1356564
0.1583679
0.1812302
0.2029588
0.223286
0.2410303
0.2564241
0.2714582
0.286867
0.3024692
0.3183412
0.3344717
0.3508057
0.3669938
0.3826478
0.3978118
0.4123725
0.4263235
0.4399411
0.4532061
0.4660752
0.478512
0.4905531
0.5022712
0.5135722
0.5248052
0.5589961
0.5641309
0.5689857
0.5715057
0.5726128
0.5724785
0.5712019
0.5688342
0.5655579
0.5616789
0.5571952
0.5522128
0.5468297
0.5411002
0.5350651
0.5287757
0.5222902
0.5156758
0.5089888
0.5022533
0.495563
0.4889142
0.4823237
0.4757807
0.4691798
0.462469
0.4556481
0.448734
0.4417626
0.4347891
0.4278984
0.4211506
0.4145765
0.4081972
0.4019716
0.3959187
0.3899213
0.3835449
0.3774043
0.3715069
0.3658256
0.3603526
0.3550873
0.3500261
0.3451623
0.340488
0.3359911
0.3316521
0.3274584
0.3233883
0.3194164
0.3155308
0.3117357
0.3080488
0.3044964
0.301102
0.297871
0.294787
0.2918132
0.2888999
0.2860082
0.2831274
0.2802766
0.2774927
0.2748076
0.2722293
0.2697377
0.2672859
0.2648204
0.2623292
0.2598423
0.2574167
0.2550902
0.2528916
0.2507934
0.2487741
0.2467847
0.2447934
0.2428096
0.2408745
0.2390288
0.2372852
0.2356164
0.2339647
0.2322663
0.2304806
0.228605
0.2266758
0.2247489
0.2228784
0.2210885
0.2193679
0.2176809
0.2159996
0.2143189
0.2126192
0.210939
0.209365
0.2079386
0.206648
0.2054568
0.2043382
0.20329
0.2023331
0.2014768
0.2006863
0.1998809
0.1989689
0.1979153
0.1966919
0.1953151
0.1938344
0.1923112
0.1907967
0.1893182
0.1878679
0.186401
0.18487
0.1832102
0.181353
0.1792545
0.1769364
0.1744335
0.17182
0.1691954
0.1666203
0.1641004
0.1616193
0.1591696
0.1567597
0.1544072
0.1521317
0.1499507
0.1478784
0.1459253
0.1440976
0.1423968
0.1408197
0.1393587
0.1380037
0.1367435
0.1355686
0.1344717
0.1334476
0.1324916
0.1315986
0.1307609
0.1299676
0.1292034
0.1284476
0.127675
0.1268584
0.1259734
0.1250037
0.1239446
0.1228071
0.1216164
0.1204062
0.1192124
0.11807
0.1170104
0.1160575
0.1152246
0.1145122
0.1139054
0.1133745
0.1128773
0.112364
0.1117828
0.1110864
0.1102392
0.1092216
0.1080339
0.1066966
0.1052462
0.1037315
0.1022171
0.1008157
0.09961987
0.0987052
0.09814104
0.09798706
0.09829163
0.09908779
0.1003859
0.1021688
0.1043874
0.1069366
0.1096316
0.1122646
0.114676
0.1165657
0.1176346
0.1179045
0.1174482
0.1164007
0.1148353
0.1128569
0.1107879
0.1092595
0.1089326
0.1097077
0.1107793
0.1109259
0.1093311
0.1062679
0.1026838
0.09950163
0.09728166
0.09622651
0.09628635
0.09726813
0.09891617
0.1009941
0.1033239
0.1058006
0.1083569
0.111016
0.113933
0.1171626
0.1206817
0.1244015
0.1281983
0.1319036
0.1353699
0.1384555
0.1410395
0.1430479
0.1444951
0.1454118
0.1459044
0.1460416
0.1458612
0.1454112
0.144739
0.1438839
0.1428746
0.1417303
0.1404615
0.1390709
0.1375552
0.1359059
0.134109
0.1321481
0.1300134
0.1277094
0.1252536
0.1226468
0.119901
0.1170252
0.114036
0.1109641
0.1078478
0.1047265
0.1016347
0.09859823
0.09563351
0.09274822
0.08994938
0.08724677
0.08464454
0.08214197
0.07973732
0.07742866
0.07521346
0.07309094
0.07106125
0.06912281
0.06727387
0.06551265
0.06383746
0.06224665
0.06073858
0.05931153
0.05796368
0.05669304
0.0554976
0.0543754
0.05332484
0.05234485
0.05143497
0.05059544
0.04982724
0.04913238
0.04851447
0.04797885
0.0475312
0.04719016
0.04697349
0.04689158
0.04695283
0.04716505
0.04753036
0.04804667
0.04870438
0.04948589
0.05036451
0.05130616
0.05227339
0.05323127
0.05415529
0.0550393
0.05589742
0.05675613
0.05764506
0.0585916
0.05962146
0.06076045
0.06202816
0.06342827
0.06494814
0.06656415
0.06825254
0.06998581
0.07170419
0.07329689
0.07461128
0.0754901
0.07582235
0.07558496
0.07486303
0.07383215
0.07270071
0.07162995
0.07067178
0.06981419
0.06901916
0.06824131
0.06745346
0.06663797
0.06576079
0.0647779
0.06365152
0.06234894
0.06084086
0.05912022
0.05721139
0.05518959
0.05319319
0.05139446
0.04994763
0.04895615
0.04848305
0.04857902
0.04928954
0.05062925
0.05249962
0.05457424
0.05652001
0.05804964
0.058883
0.05886034
0.05803117
0.05661509
0.05487963
0.05303561
0.05128451
0.04975434
0.04851364
0.04761206
0.04707031
0.0468888
0.0470525
0.04753505
0.04830218
0.04931426
0.05052745
0.05189498
0.05336935
0.05490489
0.05646013
0.05799977
0.05949646
0.0609317
0.06229561
0.06358625
0.06480839
0.0659723
0.06709245
0.06818635
0.06927252
0.07036806
0.07148653
0.07263773
0.07383432
0.07507287
0.07634392
0.0776312
0.07891096
0.08015236
0.081319
0.08237178
0.08327314
0.08399195
0.08450532
0.08480558
0.08488742
0.08475645
0.08442422
0.0839027
0.08320523
0.0823464
0.08134193
0.0802087
0.07896501
0.07762979
0.07621542
0.074734
0.0731971
0.07162039
0.07002497
0.06843049
0.0668538
0.06530841
0.06380458
0.06234937
0.06094687
0.05959846
0.05830344
0.0570595
0.05586345
0.05471147
0.0535998
0.05252453
0.05148243
0.05047026
0.04948624
0.04852892
0.04759994
0.04670294
0.04585308
0.04511683
0.01875108
0.02098036
0.02314732
0.03095806
0.04140577
0.05912194
0.07177634
0.08534942
0.1000966
0.1152113
0.1309754
0.1484468
0.1673012
0.1867781
0.2072619
0.2304591
0.266132
0.2831253
0.300466
0.3179824
0.3359363
0.3535912
0.3705044
0.3867991
0.4026717
0.418469
0.4341568
0.4494524
0.4645529
0.4794233
0.493995
0.5081672
0.5218149
0.5347945
0.5469294
0.5581474
0.5684236
0.5777558
0.5863374
0.5942101
0.6015007
0.606108
0.6052947
0.6045084
0.6028907
0.5999353
0.5956927
0.5903004
0.583928
0.576766
0.5690343
0.5609937
0.5527896
0.5445213
0.5362785
0.5281273
0.520104
0.5122274
0.5045145
0.4969872
0.4896767
0.4826119
0.4758416
0.4693879
0.4632442
0.4573581
0.4516295
0.4459355
0.4402029
0.4342593
0.4280827
0.4218029
0.4155674
0.4095054
0.4036929
0.3981525
0.3928398
0.387691
0.3826018
0.3774826
0.3723878
0.3673721
0.362457
0.357673
0.3530549
0.348624
0.3443868
0.3403416
0.3364808
0.3327825
0.3292103
0.3257254
0.3222964
0.3189043
0.3155499
0.3122599
0.3090835
0.3060777
0.3032777
0.3006712
0.2981966
0.2957718
0.2933256
0.2908271
0.2883005
0.2858125
0.2834352
0.2812037
0.2790902
0.2770205
0.2749079
0.2727148
0.2704806
0.2682919
0.2662289
0.2643316
0.2625813
0.2609193
0.2592637
0.2575627
0.2558363
0.2541516
0.2525749
0.2511353
0.2498016
0.2484886
0.2470921
0.2455393
0.24382
0.2419848
0.240119
0.2383075
0.2365927
0.2349559
0.2333362
0.2316813
0.2299759
0.2282407
0.2265366
0.2249456
0.2235263
0.2222864
0.2211881
0.220193
0.2193023
0.218552
0.2179546
0.2174482
0.216902
0.2161773
0.2152376
0.2140406
0.2126152
0.2110418
0.2094163
0.2078181
0.2062834
0.2047908
0.2032663
0.2016198
0.1997805
0.197699
0.1953635
0.1928139
0.1901084
0.1873041
0.1844671
0.1816449
0.1788473
0.1760655
0.1732977
0.1705576
0.1678693
0.1652598
0.1627534
0.1603702
0.1581246
0.1560251
0.1540734
0.1522656
0.1505916
0.1490377
0.1475892
0.1462331
0.1449598
0.1437628
0.142637
0.141577
0.1405756
0.1396227
0.1387035
0.1377968
0.1368752
0.1359083
0.1348687
0.1337372
0.1325062
0.1311816
0.1297814
0.1283315
0.1268617
0.1254032
0.1239876
0.1226433
0.1213937
0.1202537
0.1192278
0.1183078
0.1174731
0.1166909
0.1159197
0.1151136
0.1142283
0.1132273
0.112088
0.1108062
0.1093984
0.1079021
0.1063744
0.1048926
0.1035834
0.1025536
0.1018989
0.1017103
0.1020681
0.1030346
0.1046456
0.1069021
0.1097579
0.1131012
0.1167474
0.1204543
0.1239947
0.127104
0.129473
0.1310398
0.1318233
0.1318108
0.130963
0.1293061
0.1269811
0.1243605
0.1220488
0.1208324
0.1209759
0.1218573
0.1222555
0.1211352
0.11854
0.1153449
0.1124692
0.1104713
0.1095427
0.1096251
0.1105257
0.1120152
0.1138964
0.1160337
0.118351
0.1208522
0.1236857
0.1269084
0.1304819
0.1342859
0.1381503
0.1418856
0.1453078
0.1482589
0.1506047
0.1522591
0.1532781
0.1537651
0.1537785
0.1533903
0.1526769
0.1517127
0.1505636
0.1492814
0.1479028
0.1464506
0.1449372
0.1433643
0.1417248
0.1400074
0.1381951
0.1362647
0.1342031
0.1319919
0.1296471
0.127181
0.1245886
0.1218646
0.1190145
0.1160599
0.1130382
0.1099936
0.1069676
0.103992
0.1010877
0.09826428
0.09552444
0.09287147
0.09030839
0.08783592
0.08545329
0.08315736
0.08094654
0.07882006
0.07677827
0.07481992
0.0729433
0.07114675
0.06942881
0.06778815
0.06622344
0.0647333
0.06331632
0.0619711
0.06069635
0.05949106
0.0583547
0.05728741
0.05629013
0.05536469
0.05451406
0.0537426
0.05305636
0.05246298
0.05197161
0.05159285
0.05134858
0.05125738
0.05133054
0.05157641
0.05199809
0.0525912
0.05334245
0.05422886
0.05521739
0.0562669
0.05733366
0.05837921
0.0593794
0.0603341
0.06126998
0.06222756
0.0632466
0.0643658
0.06562086
0.06704338
0.0686505
0.07043339
0.07236252
0.07440259
0.07652564
0.07869575
0.08082638
0.08275391
0.08426853
0.08519016
0.08542744
0.08500156
0.08405834
0.08283739
0.08159375
0.08051455
0.07963029
0.07887371
0.07816148
0.07741446
0.076586
0.07566008
0.07463321
0.07348613
0.07218605
0.07071079
0.06904375
0.06717634
0.06511313
0.06289357
0.06061303
0.05840377
0.05638436
0.05463427
0.05320749
0.05216023
0.05157258
0.05152825
0.05208436
0.05325603
0.05500738
0.05714291
0.05927699
0.06112255
0.06236575
0.06278467
0.06235649
0.06126501
0.05978559
0.05816635
0.05659758
0.05525513
0.05423155
0.05358161
0.05332227
0.0534401
0.05390322
0.05466981
0.05569154
0.05691572
0.05828786
0.05975425
0.0612645
0.0627744
0.06424903
0.06566588
0.06701077
0.06827719
0.06946522
0.07058014
0.07163112
0.07263183
0.07360185
0.07456098
0.07552734
0.07651466
0.07754061
0.07861106
0.07972469
0.08087239
0.08203635
0.08318989
0.08429849
0.08532239
0.0862217
0.08696108
0.08751046
0.08785582
0.08799888
0.08793804
0.08767534
0.08721835
0.08657835
0.08576885
0.08480472
0.08370187
0.08247754
0.08115082
0.07974273
0.07827069
0.07674099
0.07516217
0.0735556
0.07194283
0.07034196
0.06876756
0.06723111
0.06574111
0.0643029
0.06291876
0.06158841
0.06030964
0.05907903
0.05789248
0.05674585
0.05563506
0.05455674
0.05350793
0.05248697
0.05149269
0.0505263
0.0495897
0.04869677
0.04792094
0.00770418
0.009024884
0.01003866
0.01496069
0.02067497
0.02821968
0.03452425
0.04172167
0.04958784
0.05805886
0.06743985
0.07857903
0.09092605
0.1048439
0.1216477
0.1476332
0.1617572
0.1767558
0.192132
0.2078344
0.2237796
0.23982
0.2557952
0.2715794
0.2870208
0.3019889
0.316721
0.3329057
0.3494298
0.3663444
0.3837587
0.401162
0.4181333
0.4345895
0.4506109
0.4659922
0.4806787
0.4949313
0.5087807
0.5221985
0.5350994
0.5473638
0.5588158
0.5692929
0.5786805
0.586863
0.5937408
0.599241
0.6035225
0.605937
0.6061967
0.6042095
0.5995106
0.5933949
0.585754
0.5767033
0.5665563
0.5556188
0.5441733
0.5324831
0.5207897
0.5093129
0.4982335
0.4876797
0.4777276
0.4684036
0.4596843
0.4515114
0.4438202
0.4365613
0.4297304
0.4233659
0.4175321
0.4123076
0.4077089
0.4036102
0.3998482
0.396214
0.3923654
0.3882305
0.3838252
0.3792794
0.3747709
0.3704663
0.3664752
0.3628267
0.359462
0.3562598
0.3530932
0.3498693
0.3465616
0.343193
0.33981
0.3364751
0.3332493
0.3301725
0.3272649
0.3245362
0.3219827
0.319575
0.3172635
0.3149924
0.312711
0.310387
0.3080168
0.3056369
0.3033247
0.3011767
0.2992659
0.2975971
0.2960978
0.2946353
0.2930837
0.2913856
0.2895756
0.287763
0.286071
0.2845638
0.2832084
0.2818968
0.2804852
0.2789115
0.2772487
0.2756327
0.2741917
0.2729834
0.2719652
0.2710196
0.2700114
0.2688829
0.2676847
0.2665238
0.265497
0.2646326
0.2638697
0.26309
0.2621667
0.2610296
0.2596641
0.2581043
0.2564508
0.254827
0.2533127
0.2518952
0.2504872
0.2490041
0.2474359
0.2458239
0.2442644
0.2428686
0.241712
0.2407945
0.2400464
0.239426
0.2389669
0.2387323
0.238695
0.2386723
0.2383933
0.2376602
0.2365134
0.2349647
0.233083
0.2310049
0.2288806
0.2268284
0.22491
0.2230899
0.2212637
0.2193081
0.2171205
0.2146519
0.2119124
0.2089644
0.2058869
0.2027448
0.1995887
0.1964477
0.1933249
0.1902112
0.1871056
0.1840256
0.1809993
0.1780587
0.1752337
0.172549
0.1700224
0.1676637
0.165475
0.163451
0.1615793
0.1598424
0.1582219
0.1567016
0.1552697
0.1539184
0.1526418
0.1514336
0.1502864
0.1491899
0.14813
0.1470846
0.1460229
0.1449094
0.1437128
0.1424117
0.140999
0.1394812
0.1378766
0.1362099
0.134509
0.1328026
0.1311186
0.129483
0.127919
0.1264445
0.125071
0.1238014
0.1226289
0.121536
0.1204953
0.1194716
0.1184259
0.1173201
0.1161234
0.1148184
0.1134063
0.1119106
0.1103784
0.1088808
0.107517
0.1064389
0.1057685
0.1056259
0.1061235
0.1073532
0.1093722
0.1121906
0.1157586
0.1199517
0.124571
0.1293703
0.1340357
0.1382696
0.1417703
0.1443624
0.1460895
0.1469004
0.1467304
0.1455441
0.1434148
0.140544
0.1372338
0.1341181
0.1320653
0.1315236
0.1319848
0.1323203
0.1314459
0.1292195
0.1263761
0.1237888
0.1219968
0.1211705
0.1212376
0.1220171
0.1233187
0.1249914
0.1269333
0.1291635
0.1318055
0.1348948
0.1383658
0.1420604
0.1457611
0.149258
0.1523651
0.1549157
0.1567529
0.1578527
0.1583085
0.1582078
0.1576469
0.156718
0.1555079
0.1540952
0.152549
0.1509254
0.1492637
0.1475889
0.1459148
0.1442475
0.14258
0.1408943
0.1391646
0.137344
0.135416
0.1333767
0.1312319
0.1289824
0.1266132
0.1241054
0.1214532
0.1186741
0.1158071
0.1129042
0.1100155
0.1071778
0.1044113
0.1017235
0.09911389
0.0965796
0.09411971
0.0917355
0.08943025
0.08720505
0.08505866
0.08298987
0.08099843
0.0790827
0.0772391
0.07546613
0.07376332
0.07213006
0.07056546
0.06906842
0.06763792
0.06627308
0.06497328
0.06373834
0.06256871
0.06146567
0.06043153
0.05946985
0.05858558
0.05778537
0.05707772
0.0564731
0.05598386
0.05562412
0.05540981
0.05536733
0.05551099
0.05584947
0.05638412
0.05710668
0.05799794
0.05902711
0.06015233
0.06132371
0.06249011
0.06361475
0.06467955
0.06569667
0.06671157
0.0677848
0.06897408
0.0703308
0.07190002
0.07371476
0.07577929
0.07805654
0.0804831
0.08300426
0.08558942
0.08819638
0.0907032
0.09287292
0.0944396
0.09523994
0.09524677
0.09454675
0.0933453
0.09194434
0.0906271
0.08958892
0.08882841
0.08819587
0.08752679
0.08670017
0.08564439
0.08440833
0.08306592
0.08163498
0.08008939
0.07840279
0.07656743
0.07458005
0.07244628
0.07019964
0.06791139
0.06567661
0.06357109
0.06163362
0.0598803
0.05832781
0.0570214
0.05602619
0.05541312
0.05525582
0.05562528
0.05656865
0.05808633
0.06005544
0.06210862
0.06394973
0.06526336
0.0658187
0.06557925
0.06470896
0.06348219
0.06215737
0.06091768
0.05992877
0.05928178
0.05901136
0.05911436
0.05956173
0.06031
0.06130681
0.06249519
0.06381647
0.06521307
0.06663306
0.06803571
0.06939638
0.07069544
0.07191986
0.07306316
0.07412442
0.07510614
0.07601494
0.07686781
0.07768169
0.07847573
0.07926825
0.08007842
0.08092247
0.08180799
0.082735
0.08369424
0.08466624
0.0856215
0.086523
0.08732955
0.0879938
0.08849779
0.0888281
0.08897596
0.08893862
0.08871727
0.08831636
0.08774308
0.0870068
0.08611851
0.08509065
0.08393735
0.08267483
0.08132159
0.07989745
0.07841923
0.07689368
0.07533777
0.07377032
0.07220786
0.0706645
0.06915246
0.06768174
0.06625936
0.06488893
0.06357087
0.06230324
0.06108256
0.05990458
0.05876488
0.05765931
0.05658435
0.05553715
0.05451599
0.05351972
0.05254908
0.05160514
0.05070143
0.04991669
0.001800042
0.007079308
0.01062189
0.01477545
0.01946824
0.02489904
0.03116319
0.03812741
0.04599934
0.05554789
0.06999767
0.07884989
0.08852177
0.098795
0.109713
0.121226
0.1332873
0.1457988
0.1585966
0.1715557
0.1846493
0.1995227
0.2147606
0.2301731
0.2456463
0.2610663
0.2763404
0.2913853
0.306222
0.320855
0.3352647
0.3498002
0.3649294
0.3804322
0.3963587
0.4125063
0.4284856
0.4439258
0.4586474
0.472505
0.485601
0.4981975
0.510422
0.5222807
0.5337165
0.5446318
0.5549099
0.5643073
0.5725499
0.5795016
0.5850587
0.5887722
0.589895
0.5887911
0.5854334
0.5797327
0.5717114
0.5615173
0.5496506
0.5364826
0.5223956
0.5077805
0.4929897
0.4783317
0.4640621
0.4503978
0.4375261
0.4256061
0.414759
0.4050419
0.3964395
0.3888461
0.3820925
0.3760108
0.3704664
0.3654326
0.3610472
0.3573628
0.3543162
0.3518052
0.3498316
0.348196
0.3466165
0.3447877
0.3425778
0.3400181
0.3372715
0.3345571
0.3320786
0.3299713
0.328266
0.3268766
0.3256316
0.3243547
0.322928
0.3213066
0.3195079
0.3175977
0.3156698
0.3138127
0.3120831
0.3105138
0.3091212
0.3079022
0.3068229
0.3058115
0.3047889
0.3036953
0.3024977
0.3011998
0.2998591
0.2985911
0.2975387
0.2968011
0.2963642
0.2960986
0.2958013
0.2953023