/*--------------------------------*- C++ -*----------------------------------*\
| =========                 |                                                 |
| \\      /  F ield         | foam-extend: Open Source CFD                    |
|  \\    /   O peration     | Version:     3.1                                |
|   \\  /    A nd           | Web:         http://www.extend-project.de       |
|    \\/     M anipulation  |                                                 |
\*---------------------------------------------------------------------------*/
FoamFile
{
    version     2.0;
    format      ascii;
    class       volScalarField;
    location    "12.5";
    object      p;
}
// * * * * * * * * * * * * * * * * * * * * * * * * * * * * * * * * * * * * * //

dimensions      [1 -1 -2 0 0 0 0];

internalField   nonuniform List<scalar> 
119952
(
5809.515
4560.727
4398.388
4600.862
4811.808
4661.95
4623.416
4588.543
4563.35
4541.211
4520.344
4501.135
4484.24
4470.075
4458.532
4450.616
4446.729
4445.066
4435.437
4375.599
4690.666
4560.395
4545.242
4930.814
4958.981
5036.832
5113.068
5234.848
5494.014
8103.744
2938.402
2891.359
2899.076
2900.296
2905.474
2909.358
2917.881
2927.813
2938.599
2927.453
2916.452
2944.382
2953.439
2967.175
2981.802
2999.997
3021.422
3045.238
3072.677
3105.81
3127.853
3144.296
3180.741
3223.894
3269.452
3319.655
3374.009
3430.89
3491.806
3543.439
3607.695
3675.049
3740.907
3806.735
3871.929
3936.756
4008.077
4123.441
4304.496
4225.302
4212.198
4310.138
4364.276
4358.345
4325.672
4301.524
4280.874
4260.091
4240.041
4221.842
4205.776
4192.62
4182.64
4176.821
4175.24
4177.882
4186.642
4207.869
4257.36
4321.52
4368.609
4497.188
4664.045
4743.903
4801.029
4858.154
4852.148
4721.292
4768.426
4861.334
4936.602
5010.953
5082.571
5150.38
5215.423
5278.112
5338.71
5397.479
5454.652
5510.5
5565.305
5619.311
5672.707
5725.624
5778.151
5830.35
5882.257
5933.896
5985.253
6036.283
6086.903
6137.001
6186.449
6235.109
6282.816
6329.378
6374.579
6418.21
6460.172
6500.693
6540.376
6579.794
6618.893
6657.315
6694.935
6731.965
6768.63
6805.075
6841.391
6877.58
6913.621
6949.46
6985.056
7020.365
7055.368
7090.143
7125.422
7161.081
7195.8
7229.855
7263.646
7297.414
7331.18
7364.95
7398.707
7432.424
7466.067
7499.6
7533.037
7566.329
7599.548
7632.498
7666.057
7700.796
7736.738
7772.759
7794.884
7787.2
7791.173
7824.159
7856.362
7875.824
7884.779
7890.81
7897.319
7903.762
7908.826
7911.323
7910.085
7904.267
7893.207
7876.527
7854.111
7826.016
7792.49
7754.029
7711.429
7665.911
7619.168
7573.258
7530.337
7492.343
7460.84
7437.041
7421.838
7415.788
7419.289
7461.786
7478.944
7505.419
7537.46
7573.85
7613.168
7654.002
7695.12
7735.476
7774.252
7810.868
7844.917
7876.061
7903.988
7928.454
7949.333
7966.556
7980.111
7990.03
7996.377
7999.351
7999.307
7996.195
7990.199
7981.55
7970.594
7957.559
7942.565
7926.267
7908.914
7890.706
7871.631
7851.686
7830.323
7805.776
7778.565
7776.191
7770.122
7762.36
7754.043
7745.758
7737.647
7729.823
7722.287
7715.079
7708.207
7701.673
7695.459
7689.543
7683.894
7678.48
7673.266
7668.214
7663.293
7658.463
7653.67
7648.844
7643.947
7639.069
7634.155
7629.193
7624.154
7619.076
7613.923
7608.702
7603.411
7598.051
7592.639
7587.155
7581.054
7557.623
7547.596
7533.233
7526.786
7521.201
7514.853
7508.859
7503.192
7497.734
7492.533
7487.664
7483.185
7479.101
7475.361
7471.877
7468.534
7465.175
7461.633
7457.764
7453.457
7448.63
7443.215
7437.144
7430.352
7422.822
7414.631
7405.952
7396.979
7388.138
7380.579
7374.806
7371.269
7370.226
7371.577
7375.102
7381.154
7388.699
7385.277
7367.869
7364.454
7377.175
7392.48
7405.333
7416.606
7423.192
7422.401
7415.174
7406.022
7399.029
7396.65
7398.742
7403.435
7408.017
7410.027
7408.936
7411.305
7411.878
7410.414
7408.784
7407.019
7405.235
7403.525
7401.916
7400.393
7398.907
7397.415
7395.87
7394.209
7392.349
7390.201
7387.682
7384.723
7381.243
7377.18
7372.5
7367.192
7361.276
7354.804
7347.854
7340.531
7332.97
7325.33
7317.801
7310.596
7303.947
7298.097
7293.288
7289.773
7287.769
7287.47
7289.022
7292.601
7298.268
7306.043
7315.884
7327.681
7341.252
7356.348
7372.663
7389.85
7407.538
7425.356
7442.961
7460.049
7476.373
7491.746
7506.035
7519.146
7531.016
7541.618
7550.954
7559.056
7565.971
7571.754
7576.459
7580.143
7582.872
7584.724
7585.784
7586.144
7585.894
7585.116
7583.884
7582.258
7580.286
7578
7575.418
7572.541
7569.355
7565.825
7561.894
7557.457
7552.332
7546.123
7538.371
7528.553
7518.759
7524.536
7579.497
5513.403
5364.815
5189.478
5022.446
4859.882
4702.972
4552.223
4407.478
4268.833
4112.068
3980.647
3866.136
3751.392
3647.13
3550.77
3462.384
3382.729
3305.214
3191.261
3151.98
3086.889
3024.77
2974.796
2930.098
2889.635
2853.636
2821.171
2793.678
2772.937
2738.076
2717.433
2700.652
2684.396
2670.947
2659.11
2649.001
2642.977
2646.078
2626.662
2617.471
2619.491
2622.379
2625.26
2629.945
2635.687
2642.867
2651.396
2655.568
2668.202
2682.585
2695.73
2710.25
2727.451
2747.656
2771.681
2802.82
2765.508
2799.775
2839.116
2879.376
2921.77
2967.937
3018.456
3073.053
3130.934
3191.705
3256.62
3322.564
3387.813
3453.313
3520.228
3589.019
3661.207
3737.236
3813.812
3881.69
3922.049
3938.817
3972.804
3999.54
4005.39
3995.397
3978.119
3957.948
3937.131
3916.897
3897.845
3881.053
3867.234
3857.553
3853.218
3855.379
3865.48
3885.572
3918.277
3965.591
4027.566
4103.106
4192.281
4287.162
4368.717
4428.387
4467.825
4488.734
4503.501
4537.019
4595.328
4665.051
4736.952
4806.439
4872.505
4935.844
4997.116
5056.57
5114.281
5170.375
5225.096
5278.741
5331.582
5383.83
5435.64
5487.118
5538.345
5589.368
5640.21
5690.861
5741.279
5791.389
5841.09
5890.256
5938.738
5986.368
6032.966
6078.362
6122.437
6165.18
6206.779
6247.56
6287.743
6327.269
6366.042
6404.115
6441.61
6478.626
6515.239
6551.516
6587.512
6623.213
6658.596
6693.662
6728.427
6762.949
6797.323
6831.582
6865.832
6899.894
6932.788
6965.793
6998.774
7031.728
7064.645
7097.515
7130.319
7163.041
7195.671
7228.155
7260.484
7292.75
7324.874
7356.708
7388.534
7420.195
7445.003
7466.668
7480.699
7495.731
7522.525
7548.449
7569.794
7586.847
7600.181
7608.108
7610.919
7612.235
7612.645
7610.44
7603.917
7591.758
7573.741
7549.869
7520.189
7484.969
7444.678
7400.059
7352.48
7303.87
7256.54
7212.776
7174.466
7142.911
7119.227
7104.217
7098.345
7101.1
7177.027
7191.478
7217.005
7248.081
7283.573
7321.951
7361.785
7401.917
7441.266
7478.993
7514.587
7547.727
7578.093
7605.4
7629.325
7649.803
7666.761
7680.192
7690.158
7696.767
7700.177
7700.657
7698.242
7693.023
7685.241
7675.27
7663.31
7649.676
7634.721
7618.698
7601.803
7584.175
7565.874
7546.968
7528.102
7511.612
7500.643
7492.572
7484.162
7475.962
7467.939
7460.163
7452.682
7445.5
7438.635
7432.095
7425.868
7419.934
7414.266
7408.83
7403.592
7398.513
7393.554
7388.677
7383.85
7379.025
7374.155
7369.255
7364.284
7359.289
7354.196
7349.007
7343.758
7338.393
7332.939
7327.389
7321.76
7316.052
7310.41
7306.138
7234.627
7229.973
7224.934
7218.261
7211.027
7204.234
7198.047
7192.274
7186.793
7181.643
7176.9
7172.601
7168.729
7165.18
7161.831
7158.533
7155.093
7151.349
7147.175
7142.457
7137.123
7131.114
7124.334
7116.686
7108.212
7099.069
7089.583
7080.328
7072.003
7065.546
7061.508
7059.684
7059.736
7061.149
7063.879
7065.67
7066.829
7068.676
7064.06
7061.523
7070.748
7082.444
7091.266
7099.217
7104.43
7104.675
7100.835
7095.905
7093.611
7095.652
7100.552
7105.348
7108.22
7108.939
7108.626
7107.62
7106.39
7105.019
7103.473
7101.677
7099.658
7097.667
7095.887
7094.267
7092.755
7091.319
7089.874
7088.343
7086.645
7084.68
7082.344
7079.535
7076.16
7072.151
7067.47
7062.114
7056.11
7049.514
7042.41
7034.903
7027.126
7019.242
7011.443
7003.948
6996.994
6990.829
6985.703
6981.855
6979.51
6978.875
6980.105
6983.36
6988.705
6996.17
7005.723
7017.262
7030.61
7045.524
7061.697
7078.773
7096.369
7114.102
7131.62
7148.601
7164.792
7180.059
7194.287
7207.381
7219.271
7229.925
7239.341
7247.552
7254.606
7260.537
7265.372
7269.187
7272.05
7274.04
7275.246
7275.762
7275.674
7275.063
7274.001
7272.546
7270.745
7268.63
7266.224
7263.529
7260.546
7257.248
7253.614
7249.581
7245.149
7240.325
7235.577
7231.888
7231.424
7235.429
7244.369
3009.935
3053.935
3119.194
3199.397
3296.741
3409.711
3537.819
3680.597
3837.31
4004.305
4165.07
4350.79
4541.794
4737.586
4936.156
5134.98
5329.198
5517.971
5699.373
5857.596
6010.937
6149.686
6269.824
6367.419
6440.774
6488.717
6510.222
6504.829
6477.731
6422.789
6343.904
6244.182
6126.404
5992.852
5846.041
5688.615
5523.721
5354.749
5171.887
5001.027
4829.82
4662.236
4499.741
4342.813
4192.126
4048.264
3912.114
3782.545
3656.206
3540.784
3431.649
3329.782
3236.103
3150.114
3072.234
3010.551
2841.528
2782.433
2734.095
2686.545
2640.148
2596.968
2558.068
2523.486
2492.897
2465.265
2440.411
2419.622
2400.97
2383.41
2367.466
2353.68
2342.052
2332.551
2324.979
2318.98
2315.514
2313.815
2313.268
2314.148
2316.629
2320.564
2325.791
2332.206
2339.898
2349.691
2360.822
2372.546
2385.365
2400.077
2417.067
2436.768
2459.082
2485.353
2515.818
2549.441
2584.861
2622.184
2663.416
2709.581
2760.831
2816.663
2876.583
2939.775
3005.008
3071.582
3139.063
3207.328
3276.437
3346.531
3416.638
3485.734
3551.687
3613.586
3659.654
3687.623
3712.703
3734.917
3742.61
3736.62
3722.138
3702.321
3680.365
3658.091
3636.574
3617.183
3601.208
3590.212
3585.625
3588.91
3601.281
3623.984
3658.152
3704.981
3765.056
3834.756
3911.058
3992.577
4069.789
4133.81
4184.78
4228.517
4266.86
4308.312
4364.472
4432.963
4504.596
4574.014
4639.964
4702.997
4763.796
4822.632
4879.562
4934.71
4988.337
5040.781
5092.362
5143.335
5193.894
5244.174
5294.269
5344.235
5394.103
5443.879
5493.538
5543.025
5592.258
5641.133
5689.519
5737.263
5784.205
5830.191
5875.113
5918.934
5961.722
6003.651
6044.881
6085.412
6125.172
6164.158
6202.433
6240.116
6277.318
6314.072
6350.38
6386.261
6421.725
6456.767
6491.393
6525.629
6559.489
6593.007
6626.259
6658.84
6691.911
6724.318
6756.477
6788.529
6820.448
6852.245
6883.91
6915.424
6946.771
6977.901
7008.759
7039.372
7069.817
7100.062
7129.426
7157
7180.977
7202.719
7220
7239.394
7264.118
7291.148
7315.785
7335.063
7349.162
7361.504
7372.294
7377.682
7378.052
7374.881
7367.548
7354.878
7336.347
7311.788
7281.109
7244.485
7202.461
7155.919
7106.236
7055.346
7005.688
6959.966
6920.057
6886.811
6861.444
6844.927
6837.869
6840.33
6852.135
6872.513
6899.812
6932.973
6970.248
7009.986
7050.549
7090.786
7129.976
7167.56
7203.097
7236.046
7265.972
7292.597
7315.81
7335.467
7351.522
7363.991
7372.912
7378.392
7380.672
7380.062
7376.739
7370.868
7362.738
7352.716
7341.02
7327.831
7313.433
7298.109
7282.108
7265.67
7249.07
7232.707
7217.205
7203.401
7191.877
7182.16
7173.322
7164.938
7156.927
7149.273
7142.101
7135.262
7128.786
7122.654
7116.842
7111.32
7106.054
7101.005
7096.132
7091.393
7086.743
7082.14
7077.543
7072.917
7068.231
7063.455
7058.576
7053.583
7048.496
7043.351
7037.891
7032.356
7026.72
7020.948
7015.04
7009.005
7002.852
6996.645
6990.234
6983.373
6976.228
6969.128
6962.249
6955.709
6949.545
6943.726
6938.233
6933.121
6928.495
6924.392
6920.753
6917.42
6914.278
6911.172
6907.851
6904.088
6899.768
6894.798
6889.096
6882.603
6875.233
6866.877
6857.639
6847.696
6837.54
6827.898
6819.619
6813.476
6809.794
6808.397
6808.924
6810.296
6811.61
6813.211
6815.502
6815.456
6814.192
6815.3
6820.216
6827.418
6834.458
6840.942
6846.211
6849.105
6849.615
6848.993
6848.623
6849.509
6852.149
6856.538
6861.57
6866.189
6868.805
6868.455
6866.096
6863.553
6861.038
6858.531
6856.081
6853.891
6852.019
6850.251
6848.573
6847.044
6845.574
6844.109
6842.559
6840.803
6838.713
6836.159
6833.026
6829.228
6824.714
6819.47
6813.521
6806.923
6799.754
6792.114
6784.126
6775.95
6767.779
6759.834
6752.356
6745.604
6739.833
6735.291
6732.215
6730.832
6731.316
6733.808
6738.41
6745.177
6754.098
6765.089
6777.996
6792.587
6808.559
6825.551
6843.16
6860.967
6878.59
6895.752
6912.157
6927.64
6942.108
6955.451
6967.587
6978.472
6988.104
6996.529
7003.84
7010.11
7015.327
7019.503
7022.668
7024.92
7026.375
7027.132
7027.28
7026.901
7026.068
7024.84
7023.269
7021.389
7019.227
7016.798
7014.111
7011.167
7007.972
7004.553
7000.983
6997.466
6994.32
6992.142
6991.382
6993.333
6997.61
2851.447
2827.595
2800.173
2760.307
2735.245
2688.066
2683.557
2694.937
2719.037
2724.647
2714.393
2718.934
2743.79
2786.285
2845.531
2920.827
3011.679
3117.367
3237.999
3371.9
3519.069
3678.925
3848.588
4027.043
4212.393
4402.596
4595.403
4788.315
4979.124
5165.399
5345.5
5487.985
5646.545
5781.579
5895.864
5988.366
6056.92
6099.777
6116.286
6107.053
6073.492
6015.39
5933.717
5831.125
5710.527
5574.53
5425.685
5266.601
5100.014
4928.873
4755.958
4584.2
4415.175
4250.481
4091.511
3938.831
3792.753
3653.625
3521.539
3395.906
3276.37
3163.686
3058.466
2960.924
2871.174
2788.963
2713.737
2644.018
2576.207
2518.372
2469.241
2422.039
2376.194
2333.706
2295.53
2261.647
2231.627
2205.378
2182.791
2162.649
2144.243
2127.62
2112.655
2099.282
2087.542
2077.544
2069.745
2064.925
2062.312
2060.721
2060.628
2062.237
2065.097
2068.907
2073.734
2079.959
2087.924
2097.406
2108.318
2120.035
2132.363
2146.051
2161.786
2180.347
2202.43
2228.241
2257.446
2289.243
2323.142
2360.089
2401.393
2447.821
2499.682
2556.703
2618.273
2683.302
2750.561
2819.482
2889.535
2960.119
3030.716
3100.92
3169.846
3236.699
3300.031
3357.88
3405.295
3439.566
3465.391
3483.552
3490.087
3484.874
3470.692
3449.828
3425.118
3398.725
3372.411
3348.127
3327.885
3313.776
3307.259
3309.751
3322.254
3345.509
3380.127
3426.45
3483.767
3549.837
3622.084
3698.148
3772.866
3841.312
3902.436
3958.591
4011.42
4065.883
4127.872
4197.153
4268.746
4338.568
4405.184
4468.732
4529.659
4588.204
4644.489
4698.706
4751.177
4802.297
4852.449
4901.957
4951.065
4999.945
5048.701
5097.396
5146.062
5194.711
5243.337
5291.91
5340.385
5388.693
5436.741
5484.411
5531.566
5578.069
5623.802
5668.687
5712.714
5755.945
5798.439
5840.172
5881.096
5921.226
5960.638
5999.423
6037.643
6075.32
6112.469
6149.096
6185.186
6220.721
6255.691
6290.102
6323.972
6357.336
6390.224
6422.621
6454.78
6486.438
6517.711
6548.74
6579.552
6610.133
6640.466
6670.528
6700.287
6729.682
6758.656
6787.216
6815.382
6843.102
6869.932
6895.343
6919.731
6938.984
6956.964
6976.383
6999.121
7023.232
7046.245
7067.625
7086.762
7103.533
7118.207
7129.854
7135.981
7134.901
7127.189
7113.443
7093.659
7067.661
7035.292
6996.595
6952.197
6903.198
6851.114
6797.943
6746.058
6698.447
6657.202
6622.852
6596.514
6579.347
6572.006
6574.577
6586.535
6607.206
6635.535
6670.076
6708.692
6749.215
6790.243
6831.016
6870.848
6909.106
6945.071
6978.218
7008.196
7034.776
7057.871
7077.423
7093.41
7105.86
7114.828
7120.45
7122.868
7122.348
7118.943
7112.862
7104.733
7094.971
7083.706
7071.081
7057.366
7042.84
7027.773
7012.451
6997.177
6982.3
6968.228
6955.344
6943.962
6934.027
6925.073
6916.723
6908.85
6901.446
6894.421
6887.861
6881.707
6875.918
6870.461
6865.301
6860.397
6855.706
6851.179
6846.771
6842.433
6838.12
6833.788
6829.399
6824.916
6820.313
6815.565
6810.653
6805.578
6800.356
6794.934
6789.331
6783.56
6777.564
6771.358
6764.987
6758.394
6751.656
6744.721
6737.372
6730.054
6722.946
6715.952
6709.094
6702.509
6696.306
6690.517
6685.228
6680.631
6676.779
6673.582
6670.679
6667.835
6665.004
6661.997
6658.412
6654.056
6648.863
6642.827
6635.971
6628.319
6619.666
6609.903
6599.042
6587.776
6576.994
6567.61
6560.573
6556.21
6554.386
6555.059
6557.025
6558.392
6561.124
6563.074
6563.389
6563.684
6565.51
6568.149
6572.238
6577.948
6583.428
6588.377
6592.019
6594.007
6595.055
6596.486
6599.534
6604.176
6609.752
6614.517
6617.685
6619.616
6621.255
6622.619
6622.142
6619.303
6615.762
6612.602
6609.987
6607.72
6605.721
6604.048
6602.541
6600.99
6599.483
6597.981
6596.357
6594.458
6592.108
6589.169
6585.531
6581.126
6575.933
6569.978
6563.317
6556.029
6548.203
6539.946
6531.422
6522.831
6514.402
6506.388
6499.063
6492.696
6487.533
6483.833
6481.826
6481.703
6483.606
6487.679
6493.987
6502.536
6513.262
6526.024
6540.602
6556.694
6573.918
6591.819
6609.984
6627.961
6645.428
6662.233
6678.206
6693.155
6706.903
6719.347
6730.439
6740.186
6748.651
6755.929
6762.112
6767.332
6771.682
6775.037
6777.405
6778.96
6779.82
6780.079
6779.82
6779.12
6778.041
6776.634
6774.939
6772.986
6770.797
6768.393
6765.794
6763.033
6760.168
6757.299
6754.587
6752.269
6750.627
6750.034
6750.721
6752.717
3065.46
3039.426
3013.015
2962.344
2919.583
2842.767
2799.347
2755.642
2712.491
2669.889
2628.375
2589.34
2551.603
2516.781
2486.263
2459.78
2376.653
2365.254
2362.114
2363.086
2364.247
2370.619
2387.71
2418.762
2464.914
2525.794
2601.175
2692.791
2799.766
2921.56
3057.384
3206.107
3366.471
3537.313
3716.914
3903.106
4093.852
4286.729
4479.891
4670.978
4855.596
5030.283
5185.392
5337.371
5470.996
5584.724
5677.121
5745.433
5787.676
5803.05
5791.864
5755.526
5695.31
5612.627
5509.705
5389.224
5253.654
5105.373
4946.825
4780.674
4609.875
4436.901
4265.066
4097.081
3934.055
3777.105
3626.825
3483.602
3347.422
3217.758
3094.454
2977.612
2867.701
2765.118
2670.135
2582.826
2503.209
2430.273
2363.814
2303.253
2248.752
2199.704
2153.754
2110.082
2069.393
2032.35
1999.211
1970.16
1945.294
1923.926
1905.036
1888.099
1872.714
1858.427
1845.024
1832.687
1821.982
1813.832
1809.112
1807.08
1806.892
1808.27
1810.747
1813.653
1816.923
1821.061
1826.753
1834.358
1843.582
1855.394
1867.014
1877.506
1889.147
1902.881
1919.746
1940.685
1965.426
1993.69
2024.584
2057.14
2093.018
2133.532
2179.625
2231.899
2290.046
2353.43
2421.207
2491.736
2563.846
2636.823
2709.939
2782.509
2854.056
2923.809
2990.952
3054.301
3111.948
3161.259
3199.571
3226.794
3243.563
3248.886
3242.422
3225.991
3201.763
3171.971
3138.782
3104.735
3072.636
3045.326
3025.744
3015.253
3015.36
3026.822
3049.918
3084.752
3130.983
3187.48
3252.449
3323.538
3398.333
3473.793
3547.051
3616.701
3683.407
3748.759
3815.06
3884.505
3957.115
4030.531
4102.118
4170.46
4235.298
4296.839
4355.321
4410.975
4464.122
4515.192
4564.684
4613.085
4660.815
4708.197
4755.436
4802.639
4849.854
4897.103
4944.397
4991.743
5039.134
5086.564
5134.023
5181.479
5228.87
5276.108
5323.079
5369.656
5415.714
5461.156
5505.92
5549.96
5593.22
5635.658
5677.283
5718.144
5758.302
5797.807
5836.694
5874.978
5912.652
5949.694
5986.07
6021.751
6056.714
6090.953
6124.477
6157.308
6189.482
6221.1
6252.137
6282.611
6312.625
6342.098
6371.201
6399.868
6428.058
6455.727
6482.805
6509.221
6534.934
6559.875
6583.744
6606.676
6629.101
6650.832
6670.826
6688.585
6706.311
6726.217
6748.152
6770.688
6792.905
6814.549
6834.817
6852.405
6867.477
6879.284
6883.953
6879.444
6866.184
6845.399
6817.891
6783.992
6743.777
6697.646
6646.532
6592.104
6536.678
6482.789
6433.216
6390.129
6354.434
6327.277
6309.805
6302.686
6305.983
6319.139
6341.475
6371.969
6408.744
6448.915
6490.332
6532.389
6574.543
6615.504
6654.415
6690.679
6723.887
6753.783
6780.215
6803.116
6822.478
6838.33
6850.728
6859.662
6865.382
6868.074
6867.787
6864.586
6858.743
6850.912
6841.505
6830.552
6818.228
6804.838
6790.681
6776.078
6761.355
6746.817
6732.74
6719.377
6706.977
6695.745
6685.673
6676.525
6668.085
6660.236
6652.915
6646.074
6639.714
6633.795
6628.279
6623.124
6618.287
6613.723
6609.385
6605.218
6601.169
6597.186
6593.216
6589.214
6585.134
6580.94
6576.598
6572.081
6567.37
6562.456
6557.328
6551.964
6546.372
6540.524
6534.485
6528.033
6521.375
6514.484
6507.386
6500.062
6492.5
6484.862
6477.249
6469.682
6462.249
6455.123
6448.464
6442.308
6436.774
6432.3
6428.899
6426.065
6423.679
6421.8
6419.764
6417.197
6413.902
6409.669
6404.375
6398.065
6390.965
6383.383
6374.797
6364.466
6352.478
6339.727
6327.165
6315.659
6306.547
6300.414
6297.389
6299.127
6302.691
6305.809
6308.919
6310.864
6311.409
6311.944
6313.416
6315.401
6318.569
6322.443
6326.388
6330.472
6334.504
6338.396
6342.173
6345.98
6350.063
6354.092
6359.274
6364.21
6368.589
6371.773
6373.809
6374.203
6373.822
6373.705
6373.062
6370.725
6367.559
6364.489
6361.886
6359.654
6357.684
6356.004
6354.563
6353.152
6351.661
6349.948
6347.798
6345.055
6341.573
6337.264
6332.106
6326.125
6319.39
6311.991
6303.965
6295.39
6286.452
6277.378
6268.409
6259.817
6251.917
6244.967
6239.192
6234.88
6232.276
6231.603
6232.95
6236.551
6242.469
6250.723
6261.273
6273.994
6288.68
6305.036
6322.649
6340.989
6359.491
6377.792
6395.697
6413.053
6429.616
6445.101
6459.32
6472.167
6483.596
6493.61
6502.242
6509.532
6515.576
6520.608
6524.802
6528.067
6530.417
6531.991
6532.895
6533.218
6533.043
6532.448
6531.498
6530.245
6528.729
6526.982
6525.034
6522.91
6520.641
6518.273
6515.866
6513.515
6511.339
6509.512
6508.184
6507.603
6507.656
6508.733
3199.451
3167.765
3132.234
3085.048
3050.315
2980.81
2946.578
2912.166
2877.01
2840.978
2804.52
2767.771
2728.882
2689.243
2646.872
2537.029
2493.545
2450.28
2407.202
2364.581
2322.652
2282.227
2243.499
2206.94
2173.716
2145.017
2120.96
2102.834
2090.81
2084.224
2083.361
2090.841
2108.807
2138.937
2182.837
2241.843
2316.333
2406.05
2511
2630.831
2764.802
2911.842
3070.543
3239.459
3416.926
3600.914
3789.537
3980.113
4170.01
4357.39
4539.34
4713.135
4874.131
5023.436
5155.747
5267.599
5356.763
5421.017
5458.677
5469.016
5452.438
5410.473
5345.251
5258.974
5153.957
5032.701
4897.293
4749.804
4592.373
4427.16
4257.563
4086.093
3915.757
3749.966
3590.191
3437.236
3292.026
3154.344
3023.114
2897.62
2778.153
2665.328
2559.326
2460.263
2368.544
2284.576
2208.629
2140.176
2078.647
2022.991
1972.095
1925.196
1881.323
1839.802
1800.754
1764.71
1732.252
1704.289
1681.16
1661.729
1644.895
1629.883
1615.814
1602.057
1588.387
1575.145
1563.303
1554.368
1550.365
1549.747
1551.259
1554.36
1558.001
1560.816
1563.221
1566.341
1571.28
1578.921
1589.166
1600.739
1612.032
1620.222
1629.103
1640.239
1654.821
1674.011
1696.894
1724.95
1756.798
1786.861
1819.957
1858.269
1903.217
1956.205
2016.375
2082.438
2154.049
2228.772
2305.061
2382.021
2458.595
2534.163
2608.279
2680.156
2749.1
2814.514
2874.983
2928.01
2970.426
3000.143
3016.781
3019.958
3009.969
2988.823
2958.639
2920.903
2877.672
2832.523
2789.318
2751.996
2723.601
2707.273
2704.057
2714.006
2736.747
2772.006
2819.026
2876.339
2942.022
3013.904
3090.241
3169.072
3248.322
3326.601
3403.758
3480.447
3557.42
3635.194
3713.493
3790.968
3865.844
3936.853
4003.558
4066.037
4124.563
4179.499
4231.331
4280.651
4328.113
4374.355
4419.942
4465.299
4510.673
4556.148
4601.725
4647.389
4693.138
4738.986
4784.95
4831.062
4877.38
4923.957
4970.826
5017.981
5065.358
5112.826
5160.2
5207.269
5253.838
5299.745
5344.868
5389.13
5432.511
5475.039
5516.768
5557.755
5598.047
5637.668
5676.616
5714.865
5752.37
5789.079
5824.939
5859.91
5893.972
5927.122
5959.376
5990.773
6021.351
6051.163
6080.407
6108.327
6135.758
6162.486
6188.414
6213.487
6237.626
6260.737
6282.772
6303.673
6323.179
6341.484
6359.219
6376.878
6394.406
6410.875
6427.032
6444.991
6465.739
6488.215
6511
6533.832
6556.459
6577.28
6594.854
6609.145
6619.325
6621.152
6611.338
6591.587
6563.792
6529.045
6487.744
6440.289
6387.501
6331.133
6273.784
6218.174
6166.594
6121.424
6084.287
6056.439
6038.976
6032.501
6037.016
6051.901
6076.33
6109.165
6147.608
6188.76
6231.713
6275.622
6319.088
6360.921
6400.31
6436.721
6469.831
6499.472
6525.572
6548.127
6567.19
6582.737
6594.982
6603.928
6609.615
6612.271
6611.975
6608.865
6603.453
6596.21
6587.343
6576.902
6565.049
6552.084
6538.357
6524.244
6510.101
6496.217
6482.787
6469.955
6457.913
6446.817
6436.67
6427.379
6418.832
6410.948
6403.68
6396.978
6390.8
6385.121
6379.901
6375.076
6370.593
6366.409
6362.469
6358.717
6355.089
6351.525
6347.97
6344.371
6340.68
6336.854
6332.855
6328.65
6324.212
6319.517
6314.55
6309.295
6303.755
6297.939
6292.011
6285.196
6278.292
6271.131
6263.68
6255.951
6247.966
6239.777
6231.503
6223.247
6215.145
6207.388
6200.171
6193.562
6187.837
6183.329
6180.134
6177.88
6176.491
6175.815
6174.902
6173.214
6170.578
6166.662
6161.237
6154.475
6146.963
6139.814
6131.826
6121.01
6107.595
6093.213
6078.814
6064.233
6051.901
6042.122
6035.359
6039.045
6048.275
6056.152
6057.974
6059.696
6059.62
6059.977
6061.462
6063.252
6065.392
6067.612
6070.168
6073.632
6078.095
6083.111
6088.295
6093.325
6098.846
6103.584
6109.108
6114.486
6118.726
6121.634
6124.234
6125.665
6126.208
6125.888
6124.983
6124.393
6123.611
6121.584
6118.966
6116.055
6113.346
6111.027
6109.105
6107.64
6106.461
6105.093
6103.223
6100.725
6097.419
6093.209
6088.078
6082.067
6075.269
6067.699
6059.372
6050.458
6041.148
6031.662
6022.239
6013.13
6004.615
5996.996
5990.585
5985.696
5982.526
5981.239
5982.149
5985.311
5990.849
5998.82
6009.205
6021.91
6036.729
6053.416
6071.349
6089.827
6108.503
6127.235
6145.799
6163.784
6180.889
6196.859
6211.512
6224.741
6236.499
6246.79
6255.658
6263.168
6269.409
6274.467
6278.424
6281.394
6283.595
6285.137
6286.062
6286.435
6286.336
6285.846
6285.03
6283.937
6282.607
6281.073
6279.366
6277.515
6275.555
6273.53
6271.501
6269.546
6267.759
6266.26
6265.143
6264.548
6264.39
6265.01
3143.054
3100.49
3063.737
3015.584
2966.52
2921.874
2880.49
2842.396
2806.97
2771.427
2670.837
2637.051
2603.316
2568.935
2533.616
2497.325
2459.926
2421.078
2380.833
2339.822
2298.876
2256.087
2212.896
2169.549
2126.46
2083.754
2041.793
2000.728
1960.731
1922.713
1888.087
1858.754
1834.945
1817.046
1806.315
1803.862
1811.018
1829.198
1859.614
1903.407
1961.492
2034.454
2122.488
2225.623
2343.542
2475.549
2620.662
2777.483
2944.496
3119.847
3301.334
3486.252
3672.496
3858.225
4041.236
4219.5
4390.123
4548.797
4692.944
4819.762
4925.811
5008.327
5065.234
5095.131
5097.457
5072.841
5023.137
4951.083
4859.734
4751.601
4629.277
4494.581
4348.848
4194.074
4031.69
3864.915
3696.937
3529.833
3366.56
3210.41
3063.34
2925.511
2795.511
2671.644
2553.496
2441.171
2334.857
2234.493
2140.216
2052.718
1972.963
1901.781
1839.017
1783.116
1732.7
1686.785
1643.983
1603.179
1563.9
1526.347
1491.139
1459.096
1432.519
1412.421
1395.793
1381.92
1369.571
1356.897
1343.466
1329.175
1314.486
1300.811
1290.206
1285.41
1290.068
1294.466
1298.468
1303.679
1306.238
1307.447
1309.312
1313.305
1321.123
1334.972
1346.075
1354.212
1359.89
1365.672
1373.367
1385.153
1403.755
1426.592
1453.214
1483.932
1511.305
1540.409
1575.352
1618.207
1671.844
1734.663
1804.346
1882.171
1962.063
2043.402
2125.919
2207.554
2287.175
2364.534
2439.021
2510.867
2580.583
2646.944
2706.542
2755.002
2788.512
2805.31
2804.646
2787.93
2759.404
2721.457
2672.899
2615.205
2554.015
2494.849
2442.914
2403.324
2379.784
2373.177
2382.339
2405.613
2442.28
2491.166
2550.494
2618.653
2693.171
2772.969
2856.922
2943.308
3030.744
3118.486
3206.28
3294.007
3381.288
3467.287
3550.77
3630.35
3704.954
3774.105
3837.832
3896.446
3950.465
4000.602
4047.684
4092.59
4136.177
4179.199
4222.221
4265.523
4309.13
4352.951
4396.902
4440.939
4485.07
4529.332
4573.818
4618.672
4664.035
4710.076
4756.931
4804.631
4853.049
4901.921
4950.894
4999.6
5047.726
5095.043
5141.415
5186.794
5231.201
5274.694
5317.343
5359.215
5400.352
5440.769
5480.443
5519.325
5557.345
5594.427
5630.494
5665.484
5699.351
5732.068
5763.625
5794.016
5823.221
5851.06
5878.326
5904.196
5928.84
5952.218
5974.256
5994.852
6013.901
6031.365
6047.371
6061.938
6075.044
6087.143
6099.405
6112.326
6125.343
6139.244
6154.875
6173.594
6195.363
6219.196
6244.152
6269.237
6293.048
6314.289
6331.51
6343.682
6349.592
6346.564
6331.562
6305.534
6270.753
6228.684
6180.283
6126.401
6068.861
6010.402
5953.485
5900.152
5853.345
5815.199
5787.062
5770.012
5764.587
5770.603
5787.337
5813.726
5848.297
5888.051
5930.797
5975.678
6021.087
6065.54
6107.95
6147.546
6183.851
6216.626
6245.812
6271.419
6293.398
6311.978
6327.115
6338.781
6347.231
6352.587
6354.984
6354.636
6351.649
6346.511
6339.747
6331.424
6321.5
6310.129
6297.602
6284.32
6270.721
6257.213
6244.05
6231.357
6219.182
6207.622
6196.79
6186.727
6177.427
6168.866
6161.01
6153.834
6147.279
6141.299
6135.854
6130.908
6126.417
6122.328
6118.578
6115.103
6111.832
6108.689
6105.603
6102.517
6099.377
6096.129
6092.725
6089.125
6085.286
6081.171
6076.752
6072.002
6066.899
6061.413
6055.493
6048.974
6042.623
6035.662
6028.258
6020.439
6012.224
6003.669
5994.851
5985.883
5976.873
5967.962
5959.388
5951.473
5944.208
5937.835
5933.045
5930.336
5929.294
5929.296
5929.865
5930.322
5929.987
5928.292
5924.775
5919.003
5911.332
5903.3
5898.371
5891.413
5879.299
5863.991
5848.267
5833.01
5815.282
5799.84
5790.026
5792.246
5800.734
5808.862
5810.459
5811.078
5811.329
5808.266
5807.807
5809.694
5811.462
5813.282
5814.072
5814.943
5817.531
5821.862
5827.667
5834.748
5841.789
5848.979
5855.227
5860.513
5865.666
5868.756
5871.326
5873.676
5875.418
5876.628
5877.064
5876.939
5876.358
5875.519
5874.926
5873.998
5871.88
5869.341
5866.546
5863.985
5862.134
5860.851
5859.65
5858.174
5856.093
5853.071
5849.004
5843.919
5837.874
5830.93
5823.099
5814.494
5805.318
5795.742
5785.957
5776.19
5766.683
5757.673
5749.488
5742.47
5736.911
5733.096
5731.299
5731.735
5734.464
5739.626
5747.311
5757.514
5770.18
5785.123
5801.833
5819.646
5838.209
5857.362
5876.708
5895.825
5914.335
5931.931
5948.353
5963.41
5976.994
5989.065
5999.632
6008.748
6016.496
6022.946
6028.117
6031.951
6034.704
6036.789
6038.293
6039.223
6039.634
6039.598
6039.205
6038.532
6037.615
6036.483
6035.171
6033.708
6032.125
6030.452
6028.733
6027.022
6025.384
6023.893
6022.633
6021.67
6021.082
6020.84
6021.139
2888.075
2831.195
2714.082
2672.049
2630.937
2592.563
2556.621
2522.56
2489.716
2457.761
2426.618
2394.621
2361.985
2328.404
2293.844
2258.03
2220.841
2182.129
2141.742
2100.034
2058.166
2015.333
1971.84
1928.101
1884.318
1840.032
1795.164
1750.5
1706.878
1665.129
1626.947
1594.097
1567.288
1547.089
1534.628
1531.037
1537.459
1555.012
1584.788
1627.797
1684.777
1756.31
1842.741
1944.111
2060.13
2190.099
2333.159
2487.723
2652.08
2823.7
3000.02
3179.138
3359.892
3541.265
3720.363
3893.931
4058.677
4210.783
4346.991
4464.691
4561.083
4633.576
4680.142
4699.591
4691.53
4656.875
4597.976
4517.824
4420.486
4308.697
4185.037
4051.847
3909.868
3759.979
3603.944
3442.494
3277.823
3113.943
2954.35
2803.171
2663.326
2534.323
2413.903
2299.91
2191.544
2088.483
1990.385
1896.9
1808.087
1724.989
1649.486
1583.383
1527.042
1477.932
1434.104
1395.012
1357.902
1320.92
1284.021
1247.772
1212.805