/*--------------------------------*- C++ -*----------------------------------*\
| =========                 |                                                 |
| \\      /  F ield         | foam-extend: Open Source CFD                    |
|  \\    /   O peration     | Version:     3.1                                |
|   \\  /    A nd           | Web:         http://www.extend-project.de       |
|    \\/     M anipulation  |                                                 |
\*---------------------------------------------------------------------------*/
FoamFile
{
    version     2.0;
    format      ascii;
    class       volScalarField;
    location    "12.5";
    object      pd;
}
// * * * * * * * * * * * * * * * * * * * * * * * * * * * * * * * * * * * * * //

dimensions      [1 -1 -2 0 0 0 0];

internalField   nonuniform List<scalar> 
119952
(
5840.21
4598.141
4435.182
4634.389
4842.52
4693.302
4655.38
4621.121
4596.541
4575.015
4554.761
4536.166
4519.883
4506.331
4495.402
4488.098
4484.825
4483.775
4474.759
4415.534
4725.954
4595.945
4581.05
4961.476
4989.643
5067.494
5143.73
5265.51
5524.708
8134.439
3228.887
3178.303
3182.754
3180.706
3182.616
3183.229
3188.489
3195.153
3202.673
3189.377
3192.358
3220.288
3229.345
3243.081
3257.708
3275.903
3297.328
3321.144
3348.584
3412.372
3434.416
3450.858
3487.303
3530.457
3576.015
3626.218
3680.571
3737.452
3798.369
3850.001
3914.257
3981.611
4047.469
4113.298
4178.492
4243.319
4314.639
4430.003
4611.058
4531.865
4518.76
4616.7
4670.839
4664.907
4632.235
4608.087
4587.436
4566.653
4546.603
4528.405
4512.338
4499.183
4489.202
4483.383
4481.802
4484.445
4493.204
4514.431
4563.923
4628.082
4675.172
4803.75
4970.608
5050.465
5107.592
5164.717
5158.71
5027.854
5074.989
5167.897
5243.164
5317.516
5389.134
5456.942
5521.986
5584.675
5645.273
5704.042
5761.214
5817.062
5871.867
5925.873
5979.27
6032.187
6084.714
6136.912
6188.82
6240.458
6291.815
6342.845
6393.466
6443.563
6493.012
6541.672
6589.378
6635.94
6681.142
6724.772
6766.735
6807.255
6846.938
6886.356
6925.456
6963.878
7001.497
7038.528
7075.193
7111.637
7147.954
7184.142
7220.183
7256.022
7291.619
7326.927
7361.93
7396.706
7431.984
7467.643
7502.363
7536.417
7570.209
7603.976
7637.743
7671.513
7705.27
7738.986
7772.629
7806.163
7839.599
7872.892
7906.111
7939.06
7972.619
8007.359
8043.3
8079.321
8101.446
8093.763
8097.735
8130.722
8162.924
8182.387
8191.341
8197.372
8203.881
8210.325
8215.389
8217.886
8216.648
8210.83
8199.77
8183.089
8160.673
8132.578
8099.053
8060.591
8017.991
7972.474
7925.731
7879.821
7836.9
7798.906
7767.402
7743.603
7728.401
7722.351
7725.852
7737.693
7754.85
7781.325
7813.366
7849.756
7889.074
7929.908
7971.026
8011.382
8050.158
8086.774
8120.824
8151.968
8179.894
8204.36
8225.239
8242.462
8256.018
8265.936
8272.283
8275.257
8275.213
8272.101
8266.105
8257.456
8246.5
8233.466
8218.471
8202.173
8184.82
8166.612
8147.537
8127.592
8106.229
8081.682
8054.471
8052.097
8046.029
8038.266
8029.949
8021.665
8013.553
8005.729
7998.193
7990.985
7984.113
7977.579
7971.365
7965.449
7959.8
7954.386
7949.173
7944.12
7939.199
7934.369
7929.576
7924.75
7919.853
7914.975
7910.061
7905.099
7900.061
7894.982
7889.829
7884.608
7879.317
7873.957
7868.546
7863.061
7856.96
7864.185
7854.158
7839.796
7833.348
7827.764
7821.415
7815.422
7809.755
7804.296
7799.095
7794.226
7789.748
7785.664
7781.923
7778.44
7775.096
7771.737
7768.195
7764.327
7760.019
7755.192
7749.778
7743.707
7736.915
7729.385
7721.193
7712.515
7703.541
7694.699
7687.141
7681.368
7677.831
7676.788
7678.139
7681.665
7687.716
7695.261
7691.839
7674.431
7671.016
7683.737
7699.043
7711.895
7723.168
7729.755
7728.964
7721.737
7712.585
7705.591
7703.213
7705.304
7709.998
7714.579
7716.59
7715.499
7717.868
7718.44
7716.976
7715.347
7713.582
7711.798
7710.088
7708.478
7706.955
7705.469
7703.978
7702.432
7700.771
7698.912
7696.763
7694.245
7691.286
7687.805
7683.742
7679.063
7673.754
7667.838
7661.366
7654.416
7647.094
7639.532
7631.892
7624.363
7617.159
7610.51
7604.659
7599.851
7596.335
7594.331
7594.033
7595.584
7599.164
7604.83
7612.605
7622.447
7634.244
7647.814
7662.91
7679.226
7696.413
7714.1
7731.919
7749.523
7766.611
7782.935
7798.309
7812.598
7825.708
7837.579
7848.18
7857.517
7865.618
7872.534
7878.317
7883.021
7886.705
7889.434
7891.286
7892.347
7892.707
7892.457
7891.679
7890.447
7888.821
7886.849
7884.563
7881.98
7879.104
7875.918
7872.388
7868.456
7864.019
7858.895
7852.685
7844.933
7835.116
7825.321
7831.099
7886.059
6047.246
5895.376
5716.771
5546.472
5380.641
5220.464
5066.447
4918.435
4776.686
4633.224
4501.803
4387.292
4272.549
4168.286
4071.926
3983.541
3903.885
3826.37
3743.073
3703.792
3638.702
3576.582
3526.608
3481.911
3441.448
3405.448
3372.983
3345.491
3324.75
3289.888
3269.246
3252.465
3236.209
3222.76
3210.923
3200.813
3194.79
3197.89
3178.475
3169.284
3171.304
3174.192
3177.072
3181.757
3187.5
3194.679
3203.209
3207.38
3220.014
3234.397
3247.542
3262.062
3279.264
3299.469
3323.494
3354.633
3378.633
3412.9
3452.241
3492.501
3534.895
3581.061
3631.581
3686.178
3744.059
3804.83
3869.745
3935.689
4000.938
4066.438
4133.353
4202.144
4274.332
4350.361
4426.937
4494.815
4535.174
4551.942
4585.929
4612.665
4618.515
4608.522
4591.244
4571.073
4550.256
4530.022
4510.97
4494.178
4480.359
4470.678
4466.343
4468.504
4478.605
4498.697
4531.402
4578.716
4640.691
4716.231
4805.406
4900.287
4981.842
5041.512
5080.95
5101.859
5116.626
5150.144
5208.453
5278.176
5350.077
5419.564
5485.63
5548.969
5610.241
5669.695
5727.406
5783.5
5838.221
5891.866
5944.707
5996.955
6048.765
6100.243
6151.47
6202.493
6253.335
6303.986
6354.404
6404.514
6454.215
6503.381
6551.863
6599.493
6646.091
6691.487
6735.562
6778.305
6819.904
6860.685
6900.868
6940.394
6979.167
7017.24
7054.735
7091.751
7128.364
7164.641
7200.637
7236.338
7271.721
7306.787
7341.552
7376.074
7410.448
7444.707
7478.957
7513.019
7545.913
7578.918
7611.899
7644.853
7677.77
7710.64
7743.444
7776.166
7808.796
7841.28
7873.609
7905.875
7937.999
7969.833
8001.659
8033.32
8058.128
8079.793
8093.824
8108.856
8135.65
8161.574
8182.919
8199.972
8213.306
8221.233
8224.044
8225.36
8225.77
8223.565
8217.043
8204.883
8186.866
8162.994
8133.314
8098.094
8057.803
8013.184
7965.605
7916.995
7869.665
7825.901
7787.591
7756.036
7732.352
7717.342
7711.47
7714.225
7728.839
7743.29
7768.817
7799.893
7835.385
7873.763
7913.598
7953.73
7993.079
8030.805
8066.4
8099.54
8129.905
8157.213
8181.138
8201.615
8218.573
8232.004
8241.971
8248.579
8251.99
8252.469
8250.054
8244.835
8237.054
8227.083
8215.123
8201.489
8186.533
8170.51
8153.615
8135.987
8117.687
8098.78
8079.915
8063.425
8052.455
8044.384
8035.974
8027.774
8019.751
8011.975
8004.494
7997.312
7990.448
7983.908
7977.681
7971.747
7966.078
7960.642
7955.404
7950.326
7945.366
7940.489
7935.662
7930.837
7925.968
7921.067
7916.096
7911.102
7906.009
7900.819
7895.57
7890.206
7884.752
7879.201
7873.572
7867.864
7862.223
7857.95
7847.752
7843.098
7838.059
7831.386
7824.152
7817.359
7811.172
7805.399
7799.918
7794.768
7790.025
7785.726
7781.853
7778.302
7774.951
7771.654
7768.217
7764.474
7760.3
7755.582
7750.248
7744.238
7737.453
7729.778
7721.229
7712.029
7702.583
7693.417
7685.125
7678.671
7674.633
7672.809
7672.861
7674.273
7677
7678.769
7679.839
7681.64
7677.067
7674.618
7683.859
7695.519
7704.343
7712.322
7717.553
7717.8
7713.96
7709.03
7706.736
7708.776
7713.676
7718.472
7721.344
7722.064
7721.751
7720.745
7719.515
7718.144
7716.598
7714.802
7712.783
7710.792
7709.012
7707.392
7705.88
7704.444
7702.999
7701.468
7699.77
7697.805
7695.469
7692.66
7689.285
7685.276
7680.595
7675.239
7669.235
7662.639
7655.535
7648.028
7640.251
7632.367
7624.568
7617.073
7610.119
7603.954
7598.828
7594.98
7592.635
7592
7593.23
7596.485
7601.83
7609.295
7618.848
7630.387
7643.735
7658.649
7674.822
7691.898
7709.494
7727.227
7744.745
7761.726
7777.917
7793.184
7807.412
7820.506
7832.396
7843.05
7852.466
7860.677
7867.731
7873.662
7878.497
7882.312
7885.175
7887.165
7888.371
7888.887
7888.799
7888.188
7887.126
7885.671
7883.87
7881.755
7879.349
7876.654
7873.671
7870.373
7866.739
7862.706
7858.274
7853.45
7848.702
7845.013
7844.549
7848.554
7857.494
3790.92
3831.379
3893.371
3970.307
4064.384
4174.082
4298.927
4438.438
4591.884
4756.73
4931.476
5117.196
5308.2
5503.992
5702.563
5901.386
6095.605
6284.377
6465.779
6654.658
6807.999
6946.748
7066.887
7164.482
7237.836
7285.78
7307.285
7301.892
7274.794
7219.851
7140.967
7041.245
6923.467
6789.915
6643.103
6485.677
6320.784
6151.811
5968.95
5798.09
5626.883
5459.299
5296.804
5139.876
4989.189
4845.326
4709.177
4579.607
4453.269
4337.847
4228.712
4126.844
4033.165
3947.176
3869.297
3807.613
3699.903
3640.808
3592.47
3544.92
3498.523
3455.343
3416.443
3381.861
3351.272
3323.64
3298.786
3277.997
3259.345
3241.785
3225.841
3212.055
3200.427
3190.926
3183.354
3177.355
3173.889
3172.19
3171.643
3172.523
3175.004
3178.939
3184.166
3190.581
3198.273
3208.066
3219.196
3230.921
3243.74
3258.452
3275.442
3295.143
3317.457
3343.728
3374.193
3407.816
3443.236
3480.559
3521.791
3567.956
3619.206
3675.037
3734.958
3798.15
3863.382
3929.957
3997.438
4065.703
4134.812
4204.906
4275.013
4344.109
4410.062
4471.961
4518.029
4545.998
4571.078
4593.292
4600.985
4594.995
4580.513
4560.696
4538.74
4516.466
4494.949
4475.558
4459.583
4448.587
4444
4447.285
4459.656
4482.359
4516.527
4563.356
4623.431
4693.131
4769.433
4850.952
4928.164
4992.185
5043.155
5086.892
5125.235
5166.687
5222.847
5291.338
5362.971
5432.389
5498.339
5561.372
5622.171
5681.007
5737.937
5793.085
5846.712
5899.156
5950.737
6001.71
6052.269
6102.549
6152.644
6202.61
6252.478
6302.254
6351.913
6401.4
6450.633
6499.508
6547.894
6595.638
6642.58
6688.566
6733.488
6777.309
6820.097
6862.026
6903.256
6943.787
6983.547
7022.533
7060.808
7098.491
7135.693
7172.447
7208.755
7244.636
7280.1
7315.141
7349.768
7384.004
7417.864
7451.382
7484.634
7517.215
7550.286
7582.692
7614.852
7646.904
7678.823
7710.62
7742.285
7773.799
7805.146
7836.276
7867.134
7897.747
7928.192
7958.437
7987.801
8015.375
8039.352
8061.094
8078.375
8097.769
8122.493
8149.523
8174.16
8193.438
8207.537
8219.879
8230.669
8236.057
8236.427
8233.256
8225.923
8213.253
8194.722
8170.163
8139.484
8102.86
8060.836
8014.294
7964.611
7913.72
7864.063
7818.341
7778.432
7745.186
7719.819
7703.302
7696.244
7698.705
7710.51
7730.888
7758.187
7791.348
7828.623
7868.361
7908.924
7949.161
7988.351
8025.935
8061.472
8094.421
8124.347
8150.972
8174.185
8193.842
8209.897
8222.366
8231.287
8236.767
8239.047
8238.437
8235.113
8229.243
8221.113
8211.091
8199.395
8186.206
8171.808
8156.484
8140.483
8124.045
8107.445
8091.082
8075.58
8061.776
8050.252
8040.534
8031.697
8023.313
8015.302
8007.648
8000.476
7993.637
7987.161
7981.029
7975.217
7969.695
7964.429
7959.38
7954.507
7949.768
7945.118
7940.515
7935.918
7931.292
7926.606
7921.83
7916.951
7911.958
7906.871
7901.726
7896.266
7890.731
7885.095
7879.323
7873.415
7867.38
7861.227
7855.02
7848.609
7841.748
7834.603
7827.503
7820.624
7814.084
7807.92
7802.101
7796.608
7791.495
7786.867
7782.749
7779.063
7775.727
7772.623
7769.543
7766.226
7762.463
7758.143
7753.173
7747.471
7740.969
7733.504
7724.399
7714.348
7705.12
7695.722
7686.262
7677.994
7671.851
7668.169
7666.771
7667.289
7668.587
7669.344
7669.965
7672.826
7673.592
7672.549
7673.674
7678.588
7685.782
7692.807
7699.297
7704.579
7707.475
7707.983
7707.354
7706.963
7707.845
7710.507
7714.911
7719.945
7724.564
7727.18
7726.83
7724.471
7721.928
7719.413
7716.906
7714.456
7712.266
7710.394
7708.626
7706.948
7705.419
7703.949
7702.484
7700.934
7699.178
7697.088
7694.534
7691.401
7687.603
7683.089
7677.845
7671.896
7665.298
7658.129
7650.489
7642.501
7634.325
7626.154
7618.209
7610.731
7603.979
7598.208
7593.666
7590.59
7589.207
7589.691
7592.183
7596.785
7603.552
7612.473
7623.464
7636.371
7650.962
7666.934
7683.926
7701.535
7719.342
7736.965
7754.127
7770.532
7786.015
7800.483
7813.826
7825.962
7836.847
7846.479
7854.904
7862.215
7868.485
7873.702
7877.878
7881.043
7883.295
7884.75
7885.507
7885.655
7885.276
7884.443
7883.215
7881.644
7879.764
7877.602
7875.173
7872.486
7869.542
7866.347
7862.928
7859.358
7855.841
7852.695
7850.517
7849.757
7851.708
7855.985
3868.651
3833.246
3802.349
3771.963
3746.901
3730.379
3725.869
3737.249
3761.349
3766.959
3756.706
3761.247
3786.102
3828.597
3887.844
3963.139
4053.991
4159.679
4280.311
4414.213
4561.381
4721.238
4890.9
5069.356
5254.705
5444.908
5637.716
5830.627
6021.436
6207.712
6387.813
6591.61
6750.17
6885.204
6999.489
7091.991
7160.545
7203.402
7219.911
7210.678
7177.117
7119.015
7037.341
6934.75
6814.152
6678.155
6529.31
6370.226
6203.639
6032.498
5859.583
5687.825
5518.8
5354.106
5195.136
5042.456
4896.378
4757.25
4625.163
4499.531
4379.995
4267.311
4162.091
4064.549
3974.799
3892.588
3817.362
3747.643
3679.832
3621.997
3572.866
3525.664
3479.819
3437.331
3399.155
3365.272
3335.252
3309.003
3286.416
3266.274
3247.867
3231.244
3216.28
3202.907
3191.167
3181.169
3173.37
3168.55
3165.937
3164.346
3164.253
3165.862
3168.722
3172.532
3177.359
3183.584
3191.549
3201.031
3211.943
3223.66
3235.988
3249.676
3265.411
3283.972
3306.055
3331.866
3361.071
3392.868
3426.767
3463.714
3505.018
3551.446
3603.307
3660.328
3721.898
3786.927
3854.186
3923.106
3993.159
4063.744
4134.341
4204.545
4273.471
4340.324
4403.656
4461.505
4508.92
4543.191
4569.016
4587.177
4593.712
4588.499
4574.317
4553.453
4528.743
4502.35
4476.036
4451.752
4431.51
4417.401
4410.883
4413.375
4425.879
4449.134
4483.752
4530.075
4587.392
4653.462
4725.709
4801.773
4876.491
4944.937
5006.061
5062.216
5115.045
5169.508
5231.497
5300.778
5372.371
5442.193
5508.809
5572.357
5633.284
5691.829
5748.114
5802.331
5854.802
5905.922
5956.074
6005.582
6054.69
6103.57
6152.326
6201.021
6249.687
6298.336
6346.962
6395.535
6444.01
6492.318
6540.366
6588.035
6635.191
6681.694
6727.427
6772.312
6816.339
6859.57
6902.064
6943.797
6984.721
7024.851
7064.263
7103.048
7141.268
7178.945
7216.094
7252.721
7288.811
7324.346
7359.316
7393.727
7427.597
7460.961
7493.849
7526.246
7558.405
7590.063
7621.336
7652.365
7683.177
7713.758
7744.091
7774.153
7803.912
7833.306
7862.281
7890.841
7919.007
7946.727
7973.557
7998.968
8023.356
8042.609
8060.589
8080.008
8102.746
8126.857
8149.87
8171.25
8190.387
8207.158
8221.832
8233.479
8239.606
8238.526
8230.814
8217.068
8197.284
8171.286
8138.917
8100.22
8055.822
8006.823
7954.739
7901.568
7849.683
7802.072
7760.827
7726.477
7700.139
7682.972
7675.631
7678.202
7690.16
7710.831
7739.16
7773.701
7812.317
7852.84
7893.868
7934.641
7974.473
8012.731
8048.696
8081.842
8111.821
8138.401
8161.496
8181.048
8197.035
8209.485
8218.453
8224.075
8226.493
8225.973
8222.568
8216.486
8208.358
8198.596
8187.331
8174.706
8160.991
8146.465
8131.398
8116.076
8100.802
8085.925
8071.853
8058.969
8047.587
8037.652
8028.698
8020.348
8012.475
8005.071
7998.046
7991.486
7985.332
7979.543
7974.086
7968.926
7964.022
7959.33
7954.804
7950.396
7946.058
7941.745
7937.413
7933.024
7928.541
7923.937
7919.189
7914.278
7909.203
7903.981
7898.559
7892.956
7887.185
7881.189
7874.983
7868.612
7862.019
7855.281
7848.345
7840.997
7833.679
7826.571
7819.577
7812.719
7806.134
7799.93
7794.139
7788.829
7784.094
7779.955
7776.885
7774.213
7771.452
7768.629
7765.622
7762.037
7757.681
7752.488
7746.45
7739.552
7730.966
7720.098
7710.654
7701.424
7691.208
7680.612
7671.235
7664.198
7659.834
7657.987
7658.382
7658.064
7655.79
7660.822
7665.854
7666.965
7667.307
7669.134
7671.772
7675.861
7681.571
7687.044
7691.953
7695.398
7696.863
7697.715
7699.536
7703.047
7707.794
7713.377
7718.142
7721.31
7723.241
7724.88
7726.244
7725.767
7722.928
7719.387
7716.227
7713.612
7711.345
7709.346
7707.673
7706.166
7704.615
7703.108
7701.606
7699.982
7698.083
7695.733
7692.794
7689.156
7684.751
7679.558
7673.603
7666.942
7659.654
7651.828
7643.571
7635.047
7626.456
7618.027
7610.013
7602.688
7596.321
7591.158
7587.458
7585.451
7585.328
7587.231
7591.304
7597.612
7606.161
7616.887
7629.649
7644.227
7660.319
7677.543
7695.444
7713.609
7731.586
7749.053
7765.858
7781.831
7796.78
7810.528
7822.972
7834.064
7843.811
7852.276
7859.554
7865.737
7870.957
7875.307
7878.662
7881.03
7882.585
7883.445
7883.704
7883.445
7882.745
7881.666
7880.259
7878.564
7876.611
7874.422
7872.018
7869.419
7866.658
7863.793
7860.924
7858.212
7855.894
7854.252
7853.659
7854.346
7856.342
4333.805
4296.053
4258.618
4219.251
4176.49
4130.329
4086.91
4043.205
4000.054
3957.452
3915.937
3876.902
3839.166
3804.343
3773.825
3747.343
3725.528
3714.129
3710.989
3711.961
3713.122
3719.494
3736.585
3767.637
3813.789
3874.669
3950.05
4041.666
4148.641
4270.435
4406.259
4554.982
4715.346
4886.188
5065.789
5251.981
5442.727
5635.604
5828.766
6019.853
6204.471
6379.158
6534.267
6686.246
6819.871
6933.599
7025.996
7094.308
7136.551
7151.925
7140.739
7104.401
7044.185
6961.502
6858.58
6738.099
6602.529
6454.248
6295.7
6129.549
5958.75
5785.776
5613.941
5445.956
5282.93
5125.98
4975.7
4832.477
4696.297
4566.633
4443.329
4326.487
4216.576
4113.993
4019.01
3931.701
3852.083
3779.148
3712.689
3652.128
3597.627
3548.579
3502.629
3458.957
3418.268
3381.225
3348.086
3319.035
3294.169
3272.801
3253.911
3236.974
3221.588
3207.301
3193.899
3181.562
3170.857
3162.707
3157.987
3155.955
3155.767
3157.145
3159.622
3162.528
3165.798
3169.936
3175.628
3183.233
3192.457
3204.269
3215.889
3226.381
3238.021
3251.756
3268.621
3289.56
3314.301
3342.565
3373.459
3406.015
3441.893
3482.407
3528.5
3580.774
3638.921
3702.305
3770.082
3840.61
3912.721
3985.697
4058.814
4131.384
4202.931
4272.684
4339.827
4403.176
4460.823
4510.134
4548.446
4575.669
4592.438
4597.761
4591.297
4574.866
4550.638
4520.846
4487.657
4453.61
4421.511
4394.201
4374.619
4364.127
4364.234
4375.697
4398.793
4433.627
4479.858
4536.355
4601.324
4672.413
4747.208
4822.668
4895.926
4965.576
5032.282
5097.634
5163.935
5233.38
5305.99
5379.406
5450.993
5519.334
5584.172
5645.713
5704.196
5759.85
5812.997
5864.067
5913.559
5961.96
6009.69
6057.072
6104.311
6151.514
6198.729
6245.978
6293.272
6340.618
6388.009
6435.439
6482.898
6530.354
6577.745
6624.983
6671.954
6718.531
6764.589
6810.031
6854.795
6898.835
6942.095
6984.533
7026.158
7067.019
7107.177
7146.682
7185.569
7223.853
7261.527
7298.569
7334.945
7370.625
7405.589
7439.828
7473.352
7506.183
7538.357
7569.975
7601.012
7631.486
7661.5
7690.973
7720.076
7748.743
7776.933
7804.602
7831.68
7858.096
7883.809
7908.75
7932.619
7955.551
7977.976
7999.707
8019.701
8037.46
8055.186
8075.092
8097.027
8119.563
8141.78
8163.424
8183.692
8201.28
8216.352
8228.159
8232.828
8228.319
8215.059
8194.274
8166.766
8132.867
8092.652
8046.521
7995.407
7940.979
7885.553
7831.664
7782.091
7739.004
7703.309
7676.152
7658.68
7651.561
7654.858
7668.014
7690.35
7720.844
7757.619
7797.79
7839.207
7881.264
7923.418
7964.379
8003.29
8039.554
8072.762
8102.658
8129.09
8151.991
8171.353
8187.205
8199.603
8208.537
8214.257
8216.949
8216.662
8213.461
8207.618
8199.787
8190.378
8179.423
8167.098
8153.71
8139.555
8124.953
8110.23
8095.692
8081.615
8068.252
8055.852
8044.62
8034.548
8025.4
8016.96
8009.111
8001.79
7994.949
7988.588
7982.67
7977.154
7971.999
7967.162
7962.598
7958.259
7954.093
7950.044
7946.061
7942.091
7938.089
7934.009
7929.815
7925.472
7920.956
7916.245
7911.331
7906.203
7900.839
7895.247
7889.399
7883.36
7876.908
7870.25
7863.359
7856.261
7848.937
7841.374
7833.737
7826.124
7818.557
7811.124
7803.997
7797.329
7791.055
7784.699
7779.323
7776.741
7774.74
7772.543
7770.675
7768.639
7766.071
7762.776
7758.544
7753.25
7746.939
7739.805
7731.019
7719.602
7711.507
7700.986
7688.573
7676.039
7664.533
7655.418
7649.264
7645.928
7643.956
7633.758
7639.303
7653.121
7659.346
7660.277
7660.817
7662.288
7664.273
7667.442
7671.316
7675.228
7678.306
7676.384
7679.729
7687.412
7694.17
7698.829
7702.872
7708.025
7712.949
7717.399
7720.639
7722.684
7723.077
7722.695
7722.579
7721.936
7719.6
7716.434
7713.364
7710.761
7708.529
7706.559
7704.879
7703.438
7702.027
7700.536
7698.823
7696.673
7693.93
7690.448
7686.139
7680.981
7675
7668.265
7660.866
7652.84
7644.265
7635.327
7626.253
7617.284
7608.692
7600.792
7593.842
7588.067
7583.755
7581.151
7580.478
7581.825
7585.426
7591.344
7599.598
7610.148
7622.869
7637.555
7653.911
7671.523
7689.864
7708.366
7726.667
7744.572
7761.928
7778.491
7793.976
7808.195
7821.042
7832.471
7842.485
7851.117
7858.407
7864.451
7869.483
7873.677
7876.942
7879.292
7880.866
7881.77
7882.093
7881.918
7881.323
7880.373
7879.12
7877.604
7875.857
7873.909
7871.785
7869.516
7867.148
7864.741
7862.39
7860.214
7858.387
7857.059
7856.478
7856.531
7857.608
4707.086
4663.851
4624.872
4587.205
4552.471
4513.622
4479.391
4444.979
4409.823
4373.791
4337.333
4300.584
4261.694
4222.055
4179.685
4131.154
4087.67
4044.405
4001.327
3958.706
3916.777
3876.352
3837.624
3801.065
3767.841
3739.142
3715.085
3696.959
3684.935
3678.349
3677.486
3684.966
3702.932
3733.062
3776.962
3835.968
3910.458
4000.175
4105.125
4224.956
4358.927
4505.967
4664.668
4833.584
5011.051
5195.039
5383.662
5574.238
5764.135
5951.515
6133.465
6307.26
6468.256
6617.561
6749.872
6861.724
6950.888
7015.142
7052.802
7063.141
7046.563
7004.598
6939.376
6853.099
6748.082
6626.826
6491.418
6343.929
6186.498
6021.285
5851.688
5680.218
5509.882
5344.091
5184.315
5031.361
4886.151
4748.469
4617.239
4491.745
4372.278
4259.453
4153.451
4054.388
3962.669
3878.701
3802.754
3734.301
3672.772
3617.116
3566.22
3519.321
3475.448
3433.927
3394.879
3358.835
3326.377
3298.414
3275.285
3255.854
3239.02
3224.008
3209.938
3196.182
3182.512
3169.27
3157.428
3148.493
3144.49
3143.872
3145.384
3148.485
3152.126
3154.941
3157.346
3160.466
3165.405
3173.046
3183.291
3194.864
3206.157
3214.347
3223.228
3234.364
3248.946
3268.136
3291.019
3319.075
3350.923
3380.986
3414.082
3452.394
3497.342
3550.33
3610.5
3676.563
3748.174
3822.897
3899.186
3976.146
4052.72
4128.288
4202.404
4274.281
4343.225
4408.639
4469.108
4522.135
4564.551
4594.268
4610.906
4614.083
4604.094
4582.948
4552.764
4515.028
4471.797
4426.648
4383.443
4346.121
4317.726
4301.398
4298.182
4308.131
4330.872
4366.131
4413.151
4470.464
4536.147
4608.029
4684.366
4763.197
4842.447
4920.726
4997.883
5074.572
5151.545
5229.319
5307.618
5385.093
5459.969
5530.978
5597.682
5660.162
5718.687
5773.624
5825.456
5874.776
5922.238
5968.48
6014.067
6059.424
6104.797
6150.273
6195.85
6241.514
6287.263
6333.111
6379.075
6425.187
6471.505
6518.082
6564.95
6612.105
6659.483
6706.951
6754.325
6801.394
6847.963
6893.87
6938.993
6983.255
7026.636
7069.164
7110.893
7151.88
7192.172
7231.793
7270.741
7308.99
7346.495
7383.203
7419.064
7454.035
7488.097
7521.247
7553.501
7584.898
7615.476
7645.288
7674.532
7702.452
7729.883
7756.611
7782.539
7807.612
7831.75
7854.862
7876.897
7897.797
7917.304
7935.609
7953.344
7971.003
7988.531
8005
8021.157
8039.116
8059.864
8082.34
8105.125
8127.957
8150.584
8171.405
8188.979
8203.27
8213.45
8215.277
8205.463
8185.712
8157.917
8123.17
8081.869
8034.414
7981.626
7925.258
7867.909
7812.299
7760.719
7715.549
7678.412
7650.564
7633.101
7626.626
7631.141
7646.026
7670.455
7703.289
7741.733
7782.885
7825.838
7869.747
7913.213
7955.046
7994.434
8030.846
8063.956
8093.596
8119.697
8142.252
8161.315
8176.862
8189.107
8198.053
8203.74
8206.396
8206.099
8202.988
8197.573
8190.313
8181.408
8170.97
8159.151
8146.206
8132.482
8118.369
8104.226
8090.342
8076.912
8064.08
8052.038
8040.942
8030.795
8021.504
8012.957
8005.073
7997.805
7991.102
7984.925
7979.246
7974.026
7969.201
7964.718
7960.534
7956.594
7952.842
7949.214
7945.65
7942.095
7938.496
7934.805
7930.979
7926.98
7922.775
7918.337
7913.642
7908.674
7903.419
7897.88
7892.064
7886.136
7879.321
7872.417
7865.256
7857.804
7850.076
7842.091
7833.901
7825.628
7817.372
7809.27
7801.509
7794.207
7786.101
7776.102
7773.662
7773.403
7771.954
7770.612
7769.934
7769.016
7767.329
7764.699
7760.784
7755.355
7748.557
7740.783
7732.064
7720.765
7710.928
7700.469
7687.225
7672.927
7658.304
7645.686
7634.728
7622.801
7606.086
7597.104
7623.011
7646.902
7653.583
7653.742
7654.1
7655.585
7657.375
7659.514
7661.734
7664.25
7667.359
7671.156
7675.438
7676.701
7681.9
7687.962
7693.302
7700.83
7708.182
7712.83
7715.758
7718.358
7719.79
7720.331
7720.005
7719.103
7718.516
7717.736
7715.709
7713.091
7710.18
7707.471
7705.152
7703.23
7701.765
7700.586
7699.218
7697.348
7694.85
7691.544
7687.334
7682.203
7676.192
7669.394
7661.824
7653.497
7644.583
7635.273
7625.788
7616.364
7607.255
7598.74
7591.121
7584.71
7579.821
7576.651
7575.364
7576.274
7579.436
7584.974
7592.945
7603.33
7616.035
7630.853
7647.539
7665.472
7683.951
7702.627
7721.36
7739.924
7757.909
7775.014
7790.984
7805.637
7818.866
7830.624
7840.915
7849.783
7857.293
7863.534
7868.592
7872.549
7875.519
7877.72
7879.262
7880.187
7880.56
7880.461
7879.969
7879.153
7878.061
7876.731
7875.198
7873.491
7871.64
7869.68
7867.655
7865.626
7863.671
7861.884
7860.385
7859.268
7858.673
7858.515
7859.135
4891.303
4878.552
4841.799
4793.647
4744.582
4699.936
4658.552
4620.459
4585.032
4549.489
4510.212
4476.426
4442.691
4408.31
4372.991
4336.7
4299.301
4260.453
4220.208
4179.197
4138.251
4095.462
4052.271
4008.924
3965.835
3923.129
3881.168
3840.103
3800.106
3762.088
3727.462
3698.129
3674.32
3656.421
3645.69
3643.237
3650.393
3668.573
3698.989
3742.782
3800.867
3873.829
3961.863
4064.998
4182.917
4314.924
4460.037
4616.858
4783.871
4959.222
5140.709
5325.627
5511.871
5697.6
5880.611
6058.875
6229.498
6388.172
6532.319
6659.137
6765.186
6847.702
6904.609
6934.506
6936.832
6912.216
6862.512
6790.458
6699.109
6590.976
6468.652
6333.956
6188.223
6033.449
5871.065
5704.29
5536.312
5369.208
5205.935
5049.785
4902.715
4764.886
4634.886
4511.019
4392.871
4280.546
4174.232
4073.868
3979.591
3892.093
3812.337
3741.156
3678.392
3622.491
3572.075
3526.16
3483.358
3442.554
3403.275
3365.722
3330.514
3298.471
3271.894
3251.796
3235.168
3221.295
3208.946
3196.272
3182.841
3168.55
3153.861
3140.186
3129.581
3124.785
3129.443
3133.841
3137.843
3143.054
3145.613
3146.822
3148.687
3152.68
3160.498
3174.347
3185.45
3193.587
3199.265
3205.047
3212.742
3224.528
3243.13
3265.967
3292.589
3323.307
3350.68
3379.784
3414.727
3457.582
3511.219
3574.038
3643.721
3721.546
3801.438
3882.777
3965.294
4046.929
4126.55
4203.909
4278.396
4350.242
4419.958
4486.319
4545.917
4594.377
4627.887
4644.685
4644.021
4627.305
4598.779
4560.832
4512.274
4454.58
4393.39
4334.224
4282.289
4242.699
4219.159
4212.552
4221.714
4244.988
4281.655
4330.541
4389.868
4458.028
4532.546
4612.344
4696.297
4782.683
4870.119
4957.861
5045.655
5133.382
5220.663
5306.662
5390.145
5469.725
5544.329
5613.48
5677.206
5735.821
5789.84
5839.977
5887.059
5931.965
5975.552
6018.574
6061.596
6104.898
6148.505
6192.326
6236.277
6280.314
6324.445
6368.707
6413.193
6458.047
6503.41
6549.451
6596.306
6644.006
6692.424
6741.296
6790.269
6838.975
6887.101
6934.418
6980.789
7026.169
7070.576
7114.069
7156.718
7198.59
7239.727
7280.144
7319.818
7358.7
7396.72
7433.801
7469.869
7504.859
7538.725
7571.442
7603
7633.391
7662.596
7690.435
7717.701
7743.571
7768.215
7791.593
7813.631
7834.227
7853.275
7870.74
7886.746
7901.312
7914.417
7926.517
7938.779
7951.701
7964.718
7978.619
7994.25
8012.969
8034.738
8058.571
8083.527
8108.612
8132.423
8153.664
8170.885
8183.057
8188.967
8185.939
8170.937
8144.909
8110.128
8068.059
8019.658
7965.776
7908.236
7849.777
7792.86
7739.527
7692.72
7654.574
7626.436
7609.387
7603.962
7609.978
7626.712
7653.101
7687.672
7727.426
7770.172
7815.053
7860.462
7904.915
7947.325
7986.92
8023.225
8056
8085.187
8110.794
8132.773
8151.353
8166.49
8178.156
8186.606
8191.962
8194.355
8193.98
8190.897
8185.586
8178.639
8170.389
8160.734
8149.488
8136.976
8123.695
8110.096
8096.588
8083.425
8070.732
8058.557
8046.997
8036.165
8026.101
8016.802
8008.241
8000.385
7993.209
7986.654
7980.674
7975.229
7970.283
7965.792
7961.703
7957.953
7954.478
7951.207
7948.063
7944.976
7941.891
7938.752
7935.504
7932.1
7928.5
7924.661
7920.546
7916.127
7911.377
7906.273
7900.787
7894.867
7888.349
7881.998
7875.037
7867.633
7859.814
7851.598
7843.043
7834.226
7825.258
7816.248
7807.336
7798.747
7790.45
7778.907
7770.437
7767.018
7768.201
7768.433
7768.425
7768.962
7769.516
7769.323
7767.661
7764.128
7758.147
7748.368
7728.7
7705.098
7705.714
7711.636
7702.715
7687.56
7672.206
7653.99
7634.942
7574.136
7222.655
7204.71
7458.368
7619.509
7648.817
7650.659
7647.616
7647.156
7649.043
7650.808
7652.624
7653.411
7654.291
7656.878
7661.202
7666.787
7669.678
7632.813
7622.334
7663.567
7695.324
7704.878
7708.129
7710.7
7713.051
7714.793
7716.001
7716.431
7716.305
7715.727
7714.893
7714.301
7713.373
7711.253
7708.714
7705.92
7703.36
7701.509
7700.226
7699.025
7697.549
7695.468
7692.446
7688.379
7683.294
7677.249
7670.305
7662.474
7653.869
7644.693
7635.117
7625.332
7615.565
7606.058
7597.048
7588.863
7581.845
7576.286
7572.471
7570.674
7571.11
7573.839
7579.001
7586.686
7596.889
7609.555
7624.498
7641.207
7659.015
7677.573
7696.729
7716.08
7735.199
7753.71
7771.306
7787.728
7802.785
7816.369
7828.44
7839.007
7848.123
7855.871
7862.321
7867.492
7871.326
7874.079
7876.164
7877.668
7878.598
7879.008
7878.965
7878.567
7877.896
7876.986
7875.858
7874.546
7873.083
7871.5
7869.827
7868.108
7866.397
7864.759
7863.268
7862.008
7861.045
7860.457
7860.215
7860.514
4880.729
4854.507
4798.707
4756.674
4715.562
4677.188
4641.246
4607.185
4574.341
4542.386
4511.243
4479.246
4446.61
4413.029
4378.469
4342.655
4305.466
4266.754
4226.367
4184.659
4142.791
4099.958
4056.465
4012.726
3968.943
3924.657
3879.789
3835.125
3791.503
3749.754
3711.572
3678.722
3651.913
3631.714
3619.253
3615.662
3622.084
3639.637
3669.413
3712.422
3769.402
3840.935
3927.366
4028.736
4144.755
4274.724
4417.784
4572.348
4736.705
4908.325
5084.645
5263.763
5444.517
5625.89
5804.988
5978.556
6143.302
6295.408
6431.616
6549.316
6645.708
6718.201
6764.767
6784.216
6776.154
6741.499
6682.601
6602.449
6505.111
6393.322
6269.662
6136.472
5994.493
5844.604
5688.569
5527.119
5362.448
5198.568
5038.975
4887.796
4747.951
4618.948
4498.528
4384.535
4276.169
4173.108
4075.01
3981.525
3892.712
3809.614
3734.111
3668.008
3611.667
3562.557
3518.729
3479.637