/*--------------------------------*- C++ -*----------------------------------*\
| =========                 |                                                 |
| \\      /  F ield         | foam-extend: Open Source CFD                    |
|  \\    /   O peration     | Version:     3.1                                |
|   \\  /    A nd           | Web:         http://www.extend-project.de       |
|    \\/     M anipulation  |                                                 |
\*---------------------------------------------------------------------------*/
FoamFile
{
    version     2.0;
    format      ascii;
    class       surfaceScalarField;
    location    "12.5";
    object      phi;
}
// * * * * * * * * * * * * * * * * * * * * * * * * * * * * * * * * * * * * * //

dimensions      [0 3 -1 0 0 0 0];

internalField   nonuniform List<scalar> 
275122
(
-0.0003496611
0.0003542409
-2.9833e-07
-4.281499e-06
-0.0003121029
0.000297611
1.21645e-06
1.327544e-05
-0.0003091716
0.0003170326
-3.243806e-07
-7.536639e-06
-0.0003437159
0.0003529788
-3.969666e-07
-8.865959e-06
-0.0003762524
0.0003791377
-4.578845e-07
-2.427439e-06
-0.0003797906
0.0003794957
-4.14212e-07
7.091988e-07
-0.000377032
0.0003760449
-3.84673e-07
1.371723e-06
-0.0003725972
0.0003713152
-3.530209e-07
1.635014e-06
-0.0003672109
0.0003657661
-3.306297e-07
1.775433e-06
-0.0003612542
0.0003596867
-3.086655e-07
1.876164e-06
-0.0003547948
0.0003530934
-2.865586e-07
1.98797e-06
-0.0003477762
0.0003459258
-2.652063e-07
2.115605e-06
-0.0003401571
0.0003382005
-2.585942e-07
2.215198e-06
-0.000331989
0.0003298301
-2.438695e-07
2.402767e-06
-0.0003231142
0.0003207849
-1.992107e-07
2.528469e-06
-0.0003135094
0.0003109973
-1.498052e-07
2.661899e-06
-0.0003032762
0.000300623
-1.183258e-07
2.771524e-06
-0.000292457
0.0002897177
-9.380694e-08
2.833155e-06
-0.0002815181
0.0002790577
-1.360871e-07
2.596525e-06
-0.0002732549
0.0002728293
-4.462688e-07
8.718605e-07
-0.0002984347
0.0003090963
-1.045739e-06
-9.615893e-06
-0.0003079655
0.0003056909
-1.310961e-07
2.405757e-06
-0.0003044489
0.0003051626
-9.23166e-08
-6.213798e-07
-0.0003332718
0.0003436433
3.794969e-07
-1.075097e-05
-0.000339242
0.0003362488
5.506852e-07
2.442489e-06
-0.0003322846
0.0003306425
-1.651651e-07
1.807329e-06
-0.0003255002
0.0003226155
-1.703687e-07
3.055066e-06
-0.0003141925
0.0003095808
-1.664591e-07
4.778201e-06
-0.000286944
0.0002670648
-2.474802e-07
2.012668e-05
-0.0001884378
0.0001935221
4.02452e-09
-5.088303e-06
-0.000259947
0.0002731979
-6.941965e-08
-1.318143e-05
-0.000311021
0.0003235374
7.37899e-09
-1.252381e-05
-0.0003617342
0.000374646
8.286728e-09
-1.292016e-05
-0.0004138755
0.0004270144
9.212562e-09
-1.314817e-05
-0.000467216
0.0004807674
1.075128e-08
-1.356214e-05
-0.0005219796
0.0005358952
9.260692e-09
-1.392481e-05
-0.0005779288
0.0005920526
9.244772e-09
-1.4133e-05
-0.0006345658
0.000648797
7.479016e-09
-1.423867e-05
-0.0006915296
0.0007058278
1.035114e-08
-1.430862e-05
-0.0007482109
0.0007636595
2.254883e-07
-1.567407e-05
1.242444e-05
-0.0005182633
0.0005201167
7.529329e-10
-1.427858e-05
1.261779e-05
-0.0005255837
0.0005272499
-6.710658e-10
-1.428332e-05
1.283135e-05
-0.0005318899
0.0005333407
-1.420957e-09
-1.428068e-05
1.30829e-05
-0.0005372728
0.0005384529
-1.566729e-09
-1.42614e-05
1.339073e-05
-0.0005415598
0.0005424539
-1.663404e-09
-1.428319e-05
1.360194e-05
-0.0005448052
0.0005454775
-1.253628e-09
-1.427297e-05
1.374497e-05
-0.0005472904
0.0005478114
-1.34944e-09
-1.426467e-05
1.382215e-05
-0.0005492439
0.0005496753
-1.1171e-09
-1.42524e-05
1.415482e-05
-0.0005506625
0.0005500981
-7.035485e-10
-1.358967e-05
1.214654e-05
-0.002238177
0.002245125
-2.992715e-10
-5.554305e-05
1.22086e-05
1.209894e-05
1.21416e-05
1.320138e-05
-0.00224842
0.002250471
-3.246493e-10
-5.569081e-05
1.364871e-05
1.317495e-05
1.361492e-05
1.331331e-05
-0.002251891
0.002252896
-3.473948e-10
-5.467396e-05
1.354939e-05
1.328336e-05
1.352371e-05
1.32959e-05
-0.002253921
0.002254546
-3.400308e-10
-5.405123e-05
1.344442e-05
1.326705e-05
1.341898e-05
1.326009e-05
-0.002254974
0.002255029
-2.198541e-10
-5.319199e-05
1.333452e-05
1.323556e-05
1.330644e-05
1.322095e-05
-0.002254864
0.00225426
-1.465246e-10
-5.234335e-05
1.327531e-05
1.319822e-05
1.325299e-05
1.310596e-05
-0.002253608
0.002252635
-7.220357e-11
-5.146701e-05
1.313838e-05
1.308065e-05
1.311514e-05
1.299324e-05
-0.002251561
0.002250075
1.381853e-10
-5.039072e-05
1.29684e-05
1.296913e-05
1.294536e-05
1.287421e-05
-0.002248614
0.002247179
1.081765e-10
-4.954247e-05
1.264034e-05
1.28493e-05
1.261395e-05
1.224948e-05
-0.002244273
0.002243721
6.470061e-11
-4.829947e-05
1.219616e-05
1.222229e-05
1.218368e-05
1.35047e-05
-0.002243479
0.002239344
2.720564e-11
-4.827873e-05
1.271734e-05
1.349215e-05
1.269958e-05
1.238201e-05
-0.002236711
0.002233834
-1.700421e-11
-4.643438e-05
1.228013e-05
1.237561e-05
1.227421e-05
1.227398e-05
-0.002230862
0.002227815
-3.749271e-11
-4.585473e-05
1.218346e-05
1.226752e-05
1.217671e-05
1.219722e-05
-0.00222473
0.002221649
-3.274527e-11
-4.557143e-05
1.213519e-05
1.219084e-05
1.212935e-05
1.215231e-05
-0.002218578
0.002215647
-1.611429e-11
-4.558992e-05
1.211597e-05
1.214452e-05
1.210816e-05
1.220095e-05
-0.002212756
0.002209965
8.637694e-12
-4.596053e-05
1.220068e-05
1.217878e-05
1.217142e-05
1.249544e-05
-0.00220729
0.002204772
2.809546e-11
-4.723029e-05
1.256558e-05
1.231338e-05
1.237335e-05
1.37025e-05
-0.002202093
0.002198084
1.145513e-11
-4.973031e-05
1.40249e-05
1.287899e-05
1.313202e-05
1.80601e-05
-0.002190059
0.002173464
1.634281e-11
-5.161082e-05
1.929799e-05
1.567578e-05
1.517246e-05
2.101123e-05
-0.002153764
0.002171786
5.996591e-11
-3.903364e-05
1.642763e-05
-0.002186938
0.002188733
4.283511e-11
-1.822297e-05
3.505624e-05
-0.00218221
0.002178475
2.368031e-11
-3.132087e-05
3.110578e-05
-0.002175948
0.002174112
8.148893e-12
-2.926948e-05
1.890839e-05
-0.002172208
0.002173946
-5.598107e-13
-2.064706e-05
7.039357e-06
-0.002178561
0.002183492
-3.876948e-12
-1.197056e-05
3.663921e-06
-0.002187811
0.002192028
-4.384372e-12
-7.881549e-06
1.752159e-06
-0.002196259
0.002200287
-7.304728e-12
-5.780553e-06
2.985347e-07
-0.002204193
0.002207898
-1.377208e-11
-4.004139e-06
-1.160048e-06
-0.002211456
0.002214774
-2.239053e-11
-2.157631e-06
-2.759381e-06
-0.002217903
0.002220706
-2.841559e-11
-4.391402e-08
-4.623746e-06
-0.002223283
0.002225428
-2.982675e-11
2.478231e-06
-6.779744e-06
-0.002227262
0.00222853
-2.869537e-11
5.512104e-06
-9.400496e-06
-0.002229373
0.002229668
-3.350795e-11
9.10519e-06
-1.212939e-05
-0.002229398
0.002228504
-1.088575e-11
1.302372e-05
-1.501149e-05
-0.002226954
0.002224879
-1.230846e-11
1.708692e-05
-1.774792e-05
-0.00222201
0.002218814
-7.881255e-12
2.094461e-05
-1.978546e-05
-0.002214723
0.002210465
-4.263109e-12
2.404309e-05
-2.014037e-05
-0.002205104
0.002199357
-2.433835e-13
2.588794e-05
-1.892504e-05
-0.002192432
0.00218528
2.412805e-12
2.607705e-05
-1.13602e-05
-0.002173018
0.002160278
4.280469e-12
2.410089e-05
-2.043816e-05
-0.002151357
0.00214406
4.37252e-12
2.77347e-05
-1.172658e-05
-0.002133882
0.002120163
5.31634e-12
2.544563e-05
1.529903e-06
-0.002094129
0.002071837
5.321903e-12
2.076217e-05
-1.780251e-05
-0.002052919
0.002038184
2.909849e-12
3.253806e-05
-3.347571e-05
-0.002025196
0.002010034
1.577713e-12
4.863786e-05
-4.332195e-05
-0.00199304
0.00197676
6.292587e-13
5.960235e-05
-6.026418e-05
-0.001960798
0.001948764
-4.70651e-15
7.229788e-05
-9.095816e-05
-0.001935347
0.001936061
-1.14361e-12
9.024351e-05
-1.99143e-05
-0.00194101
0.001928178
-1.289583e-12
8.424846e-05
-1.596337e-05
-1.980823e-05
-1.573016e-05
-1.195923e-05
-0.001907779
0.001891574
1.249714e-12
6.33715e-05
-1.199877e-05
-1.159919e-05
-1.16097e-05
-1.053781e-05
-0.001875677
0.001858725
-7.593569e-13
5.779654e-05
-1.017991e-05
-1.023399e-05
-9.89305e-06
-9.082841e-06
-0.001841337
0.001824497
-3.959179e-12
5.227946e-05
-8.882564e-06
-8.828772e-06
-8.645565e-06
-8.305625e-06
-0.001808222
0.001792606
-1.209934e-11
4.823446e-05
-8.205315e-06
-8.098725e-06
-8.009445e-06
-7.665555e-06
-0.001777389
0.001762706
-2.106446e-11
4.48012e-05
-7.553449e-06
-7.500303e-06
-7.399275e-06
-7.075788e-06
-0.001748406
0.001734691
-3.011569e-11
4.157208e-05
-6.981707e-06
-6.942442e-06
-6.857516e-06
-6.574761e-06
-0.001721377
0.001708651
-3.792791e-11
3.865908e-05
-6.49566e-06
-6.467529e-06
-6.394833e-06
-6.139697e-06
-0.001696307
0.001684526
-4.345442e-11
3.603009e-05
-6.069528e-06
-6.052504e-06
-5.987694e-06
-5.749347e-06
-0.001673108
0.001662219
-4.646965e-11
3.36264e-05
-5.685546e-06
-5.680979e-06
-5.621688e-06
-5.392909e-06
-0.00165167
0.001641603
-4.672308e-11
3.142467e-05
-5.333138e-06
-5.343314e-06
-5.287979e-06
-5.060662e-06
-0.001631839
0.001622497
-4.37675e-11
2.941519e-05
-5.003818e-06
-5.030436e-06
-4.977947e-06
-4.752128e-06
-0.001613413
0.001604685
-3.796049e-11
2.761122e-05
-4.698918e-06
-4.740504e-06
-4.691338e-06
-4.47448e-06
-0.001596169
0.001587942
-3.023018e-11
2.604347e-05
-4.427371e-06
-4.47905e-06
-4.435394e-06
-4.239321e-06
-0.001579883
0.001572051
-2.125558e-11
2.474818e-05
-4.200623e-06
-4.256178e-06
-4.22005e-06
-4.058121e-06
-0.00156435
0.001556819
-1.081243e-11
2.375675e-05
-4.029941e-06
-4.082193e-06
-4.055476e-06
-3.938241e-06
-0.001549386
0.001542068
1.309077e-12
2.309025e-05
-3.921494e-06
-3.964804e-06
-3.948417e-06
-3.882011e-06
-0.001534817
0.00152763
1.428028e-11
2.275204e-05
-3.877392e-06
-3.906196e-06
-3.900049e-06
-3.88965e-06
-0.001520479
0.001513342
2.707004e-11
2.273646e-05
-3.895743e-06
-3.905225e-06
-3.908935e-06
-3.953902e-06
-0.001506207
0.001499034
3.890816e-11
2.302901e-05
-3.969272e-06
-3.959786e-06
-3.972869e-06
-4.06854e-06
-0.001491827
0.001484529
4.792591e-11
2.361424e-05
-4.09217e-06
-4.066637e-06
-4.088565e-06
-4.228869e-06
-0.001477159
0.001469643
5.294729e-11
2.44772e-05
-4.259977e-06
-4.221354e-06
-4.25118e-06
-4.429136e-06
-0.001462015
0.001454185
5.27273e-11
2.559743e-05
-4.466502e-06
-4.417924e-06
-4.454286e-06
-4.661432e-06
-0.0014462
0.001437959
4.738693e-11
2.694334e-05
-4.703238e-06
-4.648172e-06
-4.68907e-06
-4.911907e-06
-0.001429518
0.001420768
4.053535e-11
2.845867e-05
-4.954462e-06
-4.899899e-06
-4.94248e-06
-5.160541e-06
0.001402417
3.230528e-11
3.006935e-05
-5.200572e-06
-5.155978e-06
-5.197764e-06
-0.001411771
-5.398071e-06
-0.001392775
0.001382741
2.316683e-11
3.170987e-05
-5.434707e-06
-5.401893e-06
-5.441056e-06
-5.618085e-06
-0.001372389
0.001361629
1.463594e-11
3.331071e-05
-5.651544e-06
-5.623869e-06
-5.656708e-06
-5.816794e-06
-0.001350537
0.001339038
8.911408e-12
3.48022e-05
-5.846724e-06
-5.807861e-06
-5.832352e-06
-5.980692e-06
-0.001327213
0.001315011
7.814039e-12
3.609524e-05
-6.003568e-06
-5.946629e-06
-5.96212e-06
-6.079087e-06
-0.001302511
0.001289682
1.117593e-11
3.706518e-05
-6.087323e-06
-6.032466e-06
-6.03707e-06
-6.06038e-06
-0.001276595
0.001263228
1.686377e-11
3.753e-05
-6.036478e-06
-6.038974e-06
-6.026979e-06
-5.84951e-06
-0.001249624
0.001235768
2.234028e-11
3.725851e-05
-5.780921e-06
-5.907487e-06
-5.864152e-06
-5.439191e-06
-0.001221677
0.001207377
2.523637e-11
3.610884e-05
-5.343957e-06
-5.557978e-06
-5.466909e-06
-4.935105e-06
-0.001192891
0.001178332
2.450687e-11
3.429936e-05
-4.849332e-06
-5.030643e-06
-4.925381e-06
-4.483953e-06
-0.001163772
0.001149417
2.043239e-11
3.219741e-05
-4.422003e-06
-4.505357e-06
-4.431644e-06
-4.097043e-06
-0.001135318
0.001121653
1.584659e-11
2.993724e-05
-4.041174e-06
-4.095009e-06
-4.03908e-06
-3.727524e-06
-0.001108393
0.001095688
9.348617e-12
2.750882e-05
-3.671831e-06
-3.729188e-06
-3.675036e-06
-3.355188e-06
-0.001083458
0.001071852
1.032431e-12
2.492046e-05
-3.297589e-06
-3.359427e-06
-3.302068e-06
-2.977066e-06
-0.001060753
0.001050321
-1.181342e-11
2.222892e-05
-2.919338e-06
-2.979315e-06
-2.921224e-06
-2.602051e-06
-0.0010404
0.001031174
-2.730982e-11
1.951825e-05
-2.544922e-06
-2.601465e-06
-2.544083e-06
-2.2375e-06
-0.001022453
0.00101444
-4.105728e-11
1.684908e-05
-2.183218e-06
-2.235143e-06
-2.180828e-06
-1.894884e-06
-0.001006922
0.001000115
-5.019537e-11
1.428033e-05
-1.844493e-06
-1.892091e-06
-1.841845e-06
-1.579143e-06
-0.000993782
0.0009881472
-5.471536e-11
1.185396e-05
-1.532962e-06
-1.576469e-06
-1.530482e-06
-1.290827e-06
-0.0009829588
0.0009784511
-5.698e-11
9.583808e-06
-1.249424e-06
-1.28847e-06
-1.247312e-06
-1.026493e-06
-0.0009743631
0.0009709373
-5.651305e-11
7.450071e-06
-9.872402e-07
-1.024736e-06
-9.857974e-07
-7.742669e-07
-0.0009679008
0.0009655012
-5.303265e-11
5.416587e-06
-7.352548e-07
-7.731327e-07
-7.342853e-07
-5.329633e-07
-0.0009634636
0.0009620602
-4.76821e-11
3.452511e-06
-4.921618e-07
-5.322566e-07
-4.916612e-07
-2.794073e-07
-0.0009609908
0.0009604634
-4.053581e-11
1.527945e-06
-2.208709e-07
-2.793373e-07
-2.209114e-07
4.844131e-08
-0.0009601801
0.0009602968
-2.933217e-11
-5.999231e-07
1.944938e-07
4.810788e-08
1.921971e-07
1.989391e-07
-0.0009608894
0.0009617875
-2.424176e-11
-1.707105e-06
1.986374e-07
2.053336e-07
2.060542e-07
2.483649e-07
-0.0009634217
0.0009656456
-1.272421e-11
-3.254374e-06
2.643388e-07
2.510483e-07
2.666877e-07
3.977997e-07
-0.0009681147
0.0009711082
-4.284845e-12
-4.627965e-06
4.180165e-07
3.993138e-07
4.193553e-07
5.462502e-07
-0.0009743986
0.0009781969
1.898304e-12
-6.033589e-06
5.706863e-07
5.469975e-07
5.712964e-07
6.980602e-07
-0.0009822739
0.0009868573
6.165324e-12
-7.423694e-06
7.215777e-07
6.986109e-07
7.220776e-07
8.46656e-07
-0.000991706
0.0009970459
9.84483e-12
-8.770328e-06
8.68244e-07
8.470223e-07
8.68566e-07
9.848208e-07
-0.001002641
0.001008705
1.357602e-11
-1.004191e-05
1.003731e-06
9.849815e-07
1.003883e-06
1.105072e-06
-0.00101501
0.001021748
1.743506e-11
-1.118888e-05
1.120438e-06
1.105164e-06
1.120656e-06
1.199597e-06
-0.001028704
0.001036036
2.097499e-11
-1.215115e-05
1.209662e-06
1.199171e-06
1.210225e-06
1.260716e-06
-0.001043558
0.001051386
2.380411e-11
-1.287403e-05
1.263046e-06
1.258388e-06
1.263946e-06
1.269724e-06
-0.001059365
0.001067535
2.574353e-11
-1.325434e-05
1.272667e-06
1.269811e-06
1.271474e-06
1.21173e-06
-0.001075805
0.001084128
2.698614e-11
-1.315465e-05
1.20324e-06
1.214427e-06
1.201849e-06
1.040975e-06
-0.001092466
0.001100756
2.82415e-11
-1.236922e-05
9.977822e-07
1.042044e-06
9.985266e-07
6.971238e-07
-0.001109116
0.001117235
3.055352e-11
-1.083048e-05
6.568017e-07
6.994857e-07
6.581209e-07
2.876839e-07
-0.001125208
0.001132557
3.70853e-11
-8.388133e-06
2.275565e-07
2.92741e-07
2.308583e-07
-3.24277e-07
-0.001139409
0.001145342
4.318365e-11
-4.5131e-06
-4.017449e-07
-3.075759e-07
-3.863921e-07
-1.136051e-06
-0.001150505
0.001154443
7.902286e-11
6.742931e-07
-1.29208e-06
-1.018515e-06
-1.165622e-06
-2.837315e-06
-0.001157477
0.001159329
9.50476e-11
9.472366e-06
-3.244162e-06
-2.472561e-06
-2.77091e-06
-5.813907e-06
-0.001160416
0.001160247
2.244177e-10
2.302887e-05
-6.741623e-06
-4.836266e-06
-5.468311e-06
-1.35003e-05
-0.001160752
0.001161743
1.755973e-10
5.291941e-05
-1.473979e-05
-1.20849e-05
-1.358543e-05
-1.363357e-05
-0.001162595
0.001159739
6.314161e-12
5.731322e-05
-1.237375e-05
-1.443704e-05
-1.40127e-05
-6.727044e-06
-0.001147244
0.00112446
-3.009479e-11
5.035963e-05
-5.775769e-06
-8.280821e-06
-6.792429e-06
-2.980442e-06
-0.001096132
0.001064609
1.082548e-10
4.306135e-05
-2.595878e-06
-3.218414e-06
-2.743395e-06
-2.056892e-06
-0.001030406
0.0009955003
5.82867e-10
4.347679e-05
-2.16564e-06
-2.131281e-06
-2.217907e-06
-2.882065e-06
-0.0009615891
0.000929715
7.906165e-10
4.39452e-05
-3.100683e-06
-2.935151e-06
-3.154018e-06
-3.380407e-06
0.000876179
4.598039e-10
3.874621e-05
-0.0009013352
-3.401089e-06
-3.397306e-06
-3.411656e-06
-2.823467e-06
-0.0008547098
0.0008365784
-3.835638e-11
2.923538e-05
-2.730704e-06
-2.822056e-06
-2.727686e-06
-2.028741e-06
-0.0008214825
0.0008093286
-3.356122e-10
2.010221e-05
-1.948649e-06
-2.025366e-06
-1.945171e-06
-1.51008e-06
-0.0007989652
0.000790705
-3.785491e-10
1.421319e-05
-1.468278e-06
-1.50795e-06
-1.466241e-06
-1.298055e-06
-0.000783329
0.0007771784
-2.869804e-10
1.132856e-05
-1.292006e-06
-1.296803e-06
-1.290805e-06
-1.33538e-06
-0.0007713716
0.0007658929
-1.758641e-10
1.085827e-05
-1.355214e-06
-1.334425e-06
-1.354337e-06
-1.55375e-06
-0.0007602596
0.0007541854
-9.308315e-11
1.235937e-05
-1.589847e-06
-1.552625e-06
-1.588857e-06
-1.879143e-06
-0.0007475991
0.0007400852
-4.606956e-11
1.511817e-05
-1.924535e-06
-1.877482e-06
-1.923154e-06
-2.261538e-06
-0.0007318549
0.0007224612
-2.389391e-11
1.853404e-05
-2.309763e-06
-2.260293e-06
-2.30873e-06
-2.653525e-06
-0.0007123011
0.0007009612
-1.636831e-11
2.204376e-05
-2.699362e-06
-2.652533e-06
-2.6985e-06
-3.020399e-06
-0.0006889144
0.0006757933
-1.739375e-11
2.52807e-05
-3.06023e-06
-3.019519e-06
-3.059425e-06
-3.337994e-06
-0.0006620734
0.0006474471
-2.281865e-11
2.803939e-05
-3.369338e-06
-3.337174e-06
-3.368561e-06
-3.585409e-06
-0.0006323558
0.0006165737
-2.932756e-11
3.016467e-05
-3.606605e-06
-3.584666e-06
-3.605884e-06
-3.744853e-06
-0.000600479
0.0005839507
-3.480336e-11
3.152508e-05
-3.754148e-06
-3.744204e-06
-3.753487e-06
-3.800925e-06
-0.0005672801
0.0005504726
-3.835137e-11
3.20004e-05
-3.796136e-06
-3.800321e-06
-3.795491e-06
-3.740147e-06
-0.0005337159
0.0005171605
-3.992184e-11
3.147441e-05
-3.719956e-06
-3.739562e-06
-3.719311e-06
-3.557441e-06
-0.0005008657
0.0004851289
-3.998853e-11
2.98958e-05
-3.522592e-06
-3.556913e-06
-3.522005e-06
-3.262463e-06
-0.0004698564
0.0004554758
-3.789695e-11
2.733719e-05
-3.216123e-06
-3.262164e-06
-3.215773e-06
-2.880925e-06
-0.0004417275
0.0004291281
-3.381314e-11
2.401515e-05
-2.827215e-06
-2.880722e-06
-2.826893e-06
-2.44334e-06
-0.0004172794
0.0004067533
-2.84762e-11
2.018356e-05
-2.385691e-06
-2.443015e-06
-2.385317e-06
-1.974783e-06
-0.0003970556
0.0003887894
-2.25263e-11
1.604625e-05
-1.915532e-06
-1.974544e-06
-1.915221e-06
-1.492837e-06
-0.0003814061
0.0003755194
-1.653849e-11
1.174014e-05
-1.434085e-06
-1.492645e-06
-1.433822e-06
-1.013096e-06
-0.0003705546
0.0003671112
-1.084213e-11
7.382685e-06
-9.567329e-07
-1.012892e-06
-9.564896e-07
-5.542329e-07
-0.000364599
0.0003635655
-5.757929e-12
3.134066e-06
-4.967721e-07
-5.535111e-07
-4.960443e-07
-9.247754e-08
-0.0003633563
0.0003644595
-1.505652e-12
-9.010327e-07
-1.085269e-08
-9.00627e-08
-8.776419e-09
4.189933e-07
-9.020923e-05
9.025809e-05
-8.742711e-11
-4.677675e-07
6.889893e-07
-9.17036e-05
9.241018e-05
2.132813e-10
-1.39579e-06
1.003662e-06
-9.492205e-05
9.591559e-05
7.919605e-11
-1.99728e-06
1.271496e-06
-9.922862e-05
0.0001004534
1.854376e-10
-2.496508e-06
1.512487e-06
-0.0001044104
0.0001058349
2.639176e-10
-2.937248e-06
1.696371e-06
-0.0001103552
0.0001119524
3.307441e-10
-3.293836e-06
1.822934e-06
-0.0001169493
0.0001186889
3.690103e-10
-3.562911e-06
1.899268e-06
-0.0001240737
0.0001259277
4.29182e-10
-3.753697e-06
1.935428e-06
-0.0001316208
0.0001335642
4.966237e-10
-3.879387e-06
1.941175e-06
-0.0001394975
0.0001415106
5.06696e-10
-3.95473e-06
1.926221e-06
-0.0001476335
0.0001497033
4.562083e-10
-3.996484e-06
1.893127e-06
-0.0001559832
0.0001580995
4.262416e-10
-4.009912e-06
1.841056e-06
-0.0001645019
0.0001666523
4.510562e-10
-3.991892e-06
1.769708e-06
-0.0001731365
0.0001753065
4.747257e-10
-3.940178e-06
1.682191e-06
-0.000181831
0.0001840079
4.880347e-10
-3.859521e-06
1.581317e-06
-0.0001905369
0.0001927084
4.993654e-10
-3.753343e-06
1.466432e-06
-0.0001992031
0.0002013565
5.061648e-10
-3.620358e-06
1.338104e-06
-0.0002077818
0.0002099061
5.115102e-10
-3.462835e-06
1.202248e-06
-0.00021623
0.000218315
5.055528e-10
-3.287761e-06
1.061872e-06
-0.0002245125
0.0002265484
5.06922e-10
-3.098328e-06
9.316678e-07
-0.0002325554
0.0002345226
5.003077e-10
-2.899384e-06
7.566593e-07
-0.0002403471
0.000242252
4.983186e-10
-2.662116e-06
5.8827e-07
-0.0002478782
0.0002497109
4.924966e-10
-2.421442e-06
4.194445e-07
-0.0002551125
0.0002568653
4.827725e-10
-2.172705e-06
2.406844e-07
-0.0002619989
0.0002636488
4.436658e-10
-1.891042e-06
-4.181491e-10
-0.0002684468
0.0002699752
4.159798e-10
-1.528405e-06
-2.541068e-07
-0.0002744593
0.0002758748
3.715408e-10
-1.161731e-06
-4.235167e-07
-0.0002799357
0.0002812142
3.628173e-10
-8.552909e-07
-5.960338e-07
-0.0002848715
0.0002860178
3.379084e-10
-5.505989e-07
-7.631398e-07
-0.0002892794
0.0002902957
3.132764e-10
-2.534558e-07
-9.187861e-07
-0.00029317
0.0002940588
2.817216e-10
2.964025e-08
-1.056826e-06
-0.0002965453
0.0002973092
2.303744e-10
2.927289e-07
-1.17018e-06
-0.0002994437
0.0003001008
1.952147e-10
5.128604e-07
-1.241203e-06
-0.0003019403
0.0003025208
1.493643e-10
6.605765e-07
-1.209597e-06
-0.0003042107
0.0003048064
1.561169e-10
6.136976e-07
2.733556e-07
-0.0003065561
0.0003065812
2.059097e-10
-2.986897e-07
1.009055e-06
-0.0003065793
0.0003066385
1.612747e-10
-1.068397e-06
1.055592e-06
-0.0003066313
0.0003065983
1.942076e-10
-1.022768e-06
1.023045e-06
-0.0003064201
0.000306319
1.930495e-10
-9.222092e-07
9.713808e-07
-0.0003059104
0.0003057295
1.798657e-10
-7.906759e-07
9.172536e-07
-0.0003050801
0.0003048217
1.52849e-10
-6.58975e-07
8.662843e-07
-0.0003039466
0.0003036162
1.194716e-10
-5.359772e-07
8.165213e-07
-0.0003025351
0.0003021408
7.503303e-11
-4.222639e-07
7.642359e-07
-0.0003008896
0.0003004499
1.655516e-11
-3.245305e-07
7.265163e-07
-0.0002990772
0.0002985998
-4.044181e-11
-2.491043e-07
7.109646e-07
-0.0002971197
0.0002966103
-7.024219e-11
-2.015432e-07
7.122903e-07
-0.0002950472
0.0002945155
-7.79056e-11
-1.804541e-07
7.282789e-07
-0.0002928985
0.0002923544
-9.2517e-11
-1.840557e-07
7.562444e-07
-0.0002907151
0.0002901692
-1.181963e-10
-2.101682e-07
7.93861e-07
-0.0002885392
0.0002880017
-1.590216e-10
-2.561729e-07
8.39068e-07
-0.0002864107
0.0002858911
-1.815391e-10
-3.192623e-07
8.902588e-07
-0.0002843659
0.0002838724
-1.7493e-10
-3.965877e-07
9.450721e-07
-0.0002824353
0.0002819745
-1.443518e-10
-4.841018e-07
1.001985e-06
-0.0002806472
0.0002802265
-1.163874e-10
-5.811957e-07
1.056698e-06
-0.0002790236
0.0002786463
-9.553147e-11
-6.792537e-07
1.104964e-06
-0.0002775767
0.0002772447
-9.082786e-11
-7.728162e-07
1.146478e-06
-0.0002763207
0.0002760412
-8.224903e-11
-8.668537e-07
1.194965e-06
-0.0002752956
0.0002750763
-9.502277e-11
-9.756246e-07
1.265859e-06
-0.0002745138
0.0002743505
-9.410322e-11
-1.102427e-06
1.335853e-06
-0.0002739503
0.0002738436
-1.048506e-10
-1.229052e-06
1.406077e-06
-0.0002736129
0.0002735623
-1.222363e-10
-1.355423e-06
1.477184e-06
-0.0002734987
0.0002735031
-1.227984e-10
-1.481459e-06
1.549186e-06
-0.000273595
0.0002736517
-9.879022e-11
-1.605781e-06
1.621268e-06
-0.0002739053
0.0002740163
-8.013864e-11
-1.732177e-06
1.692337e-06
-0.0002744233
0.0002745834
-5.484755e-11
-1.852383e-06
1.762226e-06
-0.0002751343
0.0002753415
-2.37927e-11
-1.969474e-06
1.83107e-06
-0.000276031
0.0002762834
-1.066758e-13
-2.083529e-06
1.89934e-06
-0.0002771046
0.0002774001
4.09453e-11
-2.194804e-06
1.970211e-06
-0.0002783465
0.0002786856
9.213296e-11
-2.309431e-06
2.05584e-06
-0.0002798499
0.0002802676
3.223081e-10
-2.473882e-06
2.622672e-06
-0.0002795865
0.001142482
6.001031e-12
-1.102115e-05
7.544664e-07
2.625075e-06
7.283681e-07
-0.000279591
-0.0002895064
-0.0002895074
1.573483e-06
-0.001149229
0.001153668
3.050249e-12
-1.157854e-05
2.014291e-06
1.553967e-06
1.998006e-06
1.883626e-06
-0.001157592
0.001161522
-1.39563e-11
-1.168477e-05
2.008176e-06
1.868794e-06
1.994331e-06
1.992097e-06
-0.001165788
0.001170138
-1.118928e-11
-1.245161e-05
2.071268e-06
1.979281e-06
2.058932e-06
2.078597e-06
-0.001174611
0.001179061
-3.473021e-12
-1.287882e-05
2.147685e-06
2.066658e-06
2.135791e-06
2.158889e-06
-0.001183523
0.001187961
7.453418e-12
-1.312656e-05
2.19671e-06
2.147868e-06
2.18596e-06
2.185611e-06
-0.001192457
0.001196927
7.212537e-12
-1.323247e-05
2.205612e-06
2.175386e-06
2.195814e-06
2.199185e-06
-0.001201374
0.001205725
-4.378942e-12
-1.315831e-05
2.213466e-06
2.190115e-06
2.204717e-06
2.203062e-06
-0.001210018
0.001214192
-1.211531e-11
-1.298752e-05
2.211645e-06
2.194876e-06
2.203724e-06
2.204251e-06
-0.001218283
0.001222252
-1.059343e-11
-1.278458e-05
2.210571e-06
2.197008e-06
2.203486e-06
2.212812e-06
-0.001226139
0.001229936
1.068615e-11
-1.264689e-05
2.218146e-06
2.206504e-06
2.212114e-06
2.235128e-06
-0.001233671
0.001237369
5.330782e-11
-1.263979e-05
2.241013e-06
2.229831e-06
2.235937e-06
2.273763e-06
-0.001241037
0.00124472
8.765163e-11
-1.278388e-05
2.280669e-06
2.269284e-06
2.276302e-06
2.327224e-06
-0.001248404
0.001252152
8.673049e-11
-1.306554e-05
2.335491e-06
2.323218e-06
2.331579e-06
2.394171e-06
-0.001255926
0.001259808
5.123264e-11
-1.347146e-05
2.403955e-06
2.390578e-06
2.400469e-06
2.474297e-06
-0.00126374
0.001267817
7.760012e-12
-1.399189e-05
2.485979e-06
2.471166e-06
2.482958e-06
2.565468e-06
-0.001271967
0.00127629
-2.290806e-11
-1.460608e-05
2.578753e-06
2.562708e-06
2.576076e-06
2.662685e-06
-0.001280703
0.001285301
-3.512607e-11
-1.527237e-05
2.676788e-06
2.660213e-06
2.674383e-06
2.759583e-06
-0.001289996
0.001294875
-3.731853e-11
-1.594133e-05
2.774028e-06
2.75736e-06
2.771872e-06
2.852275e-06
-0.001299849
0.001305001
-3.406546e-11
-1.658586e-05
2.866738e-06
2.850218e-06
2.864737e-06
2.93986e-06
-0.001310245
0.001315672
-2.731776e-11
-1.721256e-05
2.954722e-06
2.937927e-06
2.952794e-06
3.021931e-06
-0.001321197
0.001326922
-1.861656e-11
-1.783921e-05
3.036846e-06
3.020101e-06
3.03506e-06
3.091995e-06
-0.001332757
0.001338812
-9.395853e-12
-1.844709e-05
3.105698e-06
3.090265e-06
3.104025e-06
3.131489e-06
-0.001344988
0.001351374
-2.119335e-12
-1.892466e-05
3.139574e-06
3.12976e-06
3.137866e-06
3.104015e-06
-0.001357872
0.001364497
5.826202e-13
-1.902872e-05
3.099625e-06
3.10219e-06
3.09761e-06
2.956832e-06
-0.001371184
0.001377798
-2.001874e-12
-1.837952e-05
2.928121e-06
2.954715e-06
2.92553e-06
2.598402e-06
-0.001384382
0.001390623
-6.462018e-12
-1.648857e-05
2.527376e-06
2.596212e-06
2.525165e-06
2.044133e-06
-0.001396685
0.00140192
-1.158328e-11
-1.325362e-05
1.967359e-06
2.042225e-06
1.965387e-06
1.444853e-06
-0.001406559
0.001409915
-1.622208e-11
-8.951997e-06
1.354996e-06
1.443238e-06
1.353228e-06
7.821726e-07
-0.001412386
0.00141335
-2.054706e-11
-3.923048e-06
6.984456e-07
7.808151e-07
6.969778e-07
1.743175e-07
-0.001413246
0.001411581
-2.417643e-11
1.09576e-06
1.115695e-07
1.732674e-07
1.104916e-07
-2.736492e-07
-0.00140878
0.001404609
-2.534756e-11
5.343484e-06
-3.119267e-07
-2.744592e-07
-3.127267e-07
-5.976827e-07
-0.001399427
0.001393161
-2.471871e-11
8.729677e-06
-6.334193e-07
-5.982248e-07
-6.339565e-07
-8.295405e-07
-0.001386251
0.001378855
-1.962125e-11
1.074647e-05
-8.456073e-07
-8.300168e-07
-8.461394e-07
-1.150161e-06
-0.001371044
0.001362815
-1.990767e-11
1.294985e-05
-1.209426e-06
-1.150745e-06
-1.210153e-06
-1.723796e-06
-0.001354421
0.001346034
-1.48915e-11
1.553891e-05
-1.847407e-06
-1.727552e-06
-1.853044e-06
-3.675234e-06
-0.001337387
0.001329242
-5.655559e-11
2.434965e-05
-4.413676e-06
-3.685966e-06
-4.429385e-06
-8.276284e-06
-0.001324225
0.001322716
-5.542786e-12
3.592438e-05
-8.923821e-06
-8.284976e-06
-8.930538e-06
-7.925358e-06
-0.001322251
0.001319488
3.296746e-11
3.295631e-05
-7.180603e-06
-7.918705e-06
-7.168857e-06
-3.21698e-06
-0.001312242
0.001301481
3.6076e-11
2.225989e-05
-2.542269e-06
-3.206084e-06
-2.533345e-06
-1.315226e-06
-0.001288502
0.001274743
1.276589e-13
1.893554e-05
-1.27358e-06
-1.314467e-06
-1.273628e-06
-1.553827e-06
-0.00126027
0.001244811
-2.524155e-11
2.179508e-05
-1.613711e-06
-1.554142e-06
-1.614028e-06
-2.017641e-06
-0.001227833
0.001208844
-5.546961e-11
2.707704e-05
-2.026581e-06
-2.017024e-06
-2.025953e-06
-2.240808e-06
-0.001187299
0.001163
-3.095014e-11
3.333957e-05
-2.281153e-06
-2.239887e-06
-2.27903e-06
-3.031961e-06
-0.001136876
0.001109609
7.508371e-11
3.97065e-05
-3.189589e-06
-3.029529e-06
-3.187811e-06
-3.605909e-06
-0.001082255
0.001054773
1.29425e-10
4.200928e-05
-3.658411e-06
-3.605406e-06
-3.657904e-06
-3.631407e-06
-0.001028177
0.001002681
8.001104e-11
3.993518e-05
-3.589281e-06
-3.630242e-06
-3.588202e-06
-3.102154e-06
-0.0009790552
0.0009576021
1.584473e-13
3.364907e-05
-2.997037e-06
-3.100859e-06
-2.995944e-06
-2.223717e-06
-0.0009386775
0.0009224973
-4.747143e-11
2.47848e-05
-2.079137e-06
-2.223112e-06
-2.078608e-06
-1.1401e-06
-0.0009088826
0.000897793
-5.941983e-11
1.534824e-05
-9.893416e-07
-1.139909e-06
-9.891705e-07
-3.062586e-07
-0.0008887312
0.0008815617
-5.148428e-11
8.254271e-06
-2.360271e-07
-3.06328e-07
-2.360547e-07
6.95163e-08
-0.0008756556
0.0008706252
-3.983382e-11
4.659305e-06
1.161742e-07
6.93186e-08
1.160857e-07
8.607692e-08
-0.0008659481
0.0008616063
-3.147349e-11
3.885881e-06
1.423898e-07
8.550595e-08
1.419336e-07
-2.755456e-07
-0.0008575039
0.0008540542
-2.738547e-11
3.941842e-06
3.185486e-08
-2.777343e-07
2.928203e-08
-7.15835e-08
-0.0008500406
0.000844013
-2.526509e-11
6.381737e-06
-1.106202e-07
-6.691634e-08
-1.050169e-07
-3.209503e-07
-0.0008386304
0.0008341302
-2.409327e-11
6.033885e-06
-4.531403e-07
-3.132781e-07
-4.463643e-07
-3.663875e-07
-0.0008297549
0.0008255132
-2.267048e-11
5.767622e-06
-4.019234e-07
-3.609235e-07
-3.966696e-07
-3.402374e-07
-0.0008213637
0.0008174894
-1.982362e-11
5.254485e-06
-3.537575e-07
-3.361775e-07
-3.500252e-07
-2.72196e-07
-0.0008137833
0.000810351
-1.573275e-11
4.507618e-06
-2.687113e-07
-2.69078e-07
-2.652907e-07
-1.756042e-07
-0.0008070795
0.000804081
-1.118295e-11
3.67944e-06
-1.673155e-07
-1.729702e-07
-1.650342e-07
-8.53139e-08
-0.0008012476
0.000798663
-6.79352e-12
2.902498e-06
-7.542998e-08
-8.334567e-08
-7.379267e-08
-8.687547e-09
-0.0007962145
0.0007939715
-2.961121e-12
2.256754e-06
2.119255e-10
-6.837119e-09
1.565783e-09
4.489927e-08
-0.0007918299
0.0007898359
6.592949e-14
1.798771e-06
5.1209e-08
4.650736e-08
5.263125e-08
6.700319e-08
-0.000787905
0.0007860474
2.252609e-12
1.5824e-06
6.909691e-08
6.863395e-08
7.052629e-08
5.872527e-08
-0.0007842078
0.0007823657
4.023516e-12
1.606227e-06
5.813976e-08
5.985235e-08
5.919295e-08
3.470131e-08
-0.0007804952
0.0007785519
5.562157e-12
1.803974e-06
3.417674e-08
3.552629e-08
3.496258e-08
5.945029e-09
-0.0007765329
0.0007743846
6.839329e-12
2.127661e-06
3.72664e-09
6.558844e-09
4.354427e-09
-3.01354e-08
-0.0007721331