/*--------------------------------*- C++ -*----------------------------------*\
| =========                 |                                                 |
| \\      /  F ield         | foam-extend: Open Source CFD                    |
|  \\    /   O peration     | Version:     3.1                                |
|   \\  /    A nd           | Web:         http://www.extend-project.de       |
|    \\/     M anipulation  |                                                 |
\*---------------------------------------------------------------------------*/
FoamFile
{
    version     2.0;
    format      ascii;
    class       volScalarField;
    location    "18.5";
    object      alpha1;
}
// * * * * * * * * * * * * * * * * * * * * * * * * * * * * * * * * * * * * * //

dimensions      [0 0 0 0 0 0 0];

internalField   nonuniform List<scalar> 
119952
(
1
1
1
1
1
1
1
1
1
1
1
1
1
1
1
1
1
1
1
1
1
1
1
1
1
1
1
1
1
1
1
1
1
1
1
1
1
1
1
1
1
1
1
1
1
1
1
1
1
1
1
0.9999999
1
1
0.9999999
0.9999999
1
0.9999999
1
1
1
1
1
1
1
1
1
1
1
1
1
1
1
1
1
1
1
0.9999999
1
1
1
1
0.9999999
1
1
1
0.9999999
1
1
0.9999999
1
1
1
1
0.9999999
1
1
1
1
1
1
1
1
1
0.9999999
1
1
1
1
0.9999997
1
1
1
0.9999997
0.9999998
1
0.9999999
0.9999999
0.9999999
1
1
1
1
1
1
1
1
1
1
1
1
1
1
1
1
1
1
1
0.9999998
0.9999996
0.9999998
0.9999997
0.9999991
0.9999964
0.9999862
0.9999912
1
1
1
1
1
1
1
1
0.9999998
0.9999978
0.9999962
0.9999999
1
1
1
1
1
1
1
0.9999922
0.9999574
0.9999917
0.9999997
0.9999999
1
1
1
1
1
0.9999998
0.9999996
0.9999998
1
1
1
1
1
1
1
0.9999998
0.9999999
1
1
1
1
1
1
1
1
1
0.9999998
0.9999999
1
1
0.9999998
0.9999999
1
1
1
0.9999997
1
1
1
1
0.9999992
1
1
1
1
0.9999994
0.9999996
0.9999999
1
1
0.9999999
1
0.9999999
0.9999999
0.9999992
1
1
0.9999999
1
1
1
0.9999995
1
1
1
1
1
1
1
1
1
1
1
1
1
1
1
1
1
1
1
1
1
1
1
1
1
1
1
1
1
1
1
1
1
1
1
1
1
1
1
1
1
1
1
1
1
1
1
1
1
1
1
1
1
1
1
1
1
1
1
1
1
1
1
1
1
1
1
1
1
1
1
1
1
1
1
1
1
1
1
1
1
1
1
1
1
1
1
1
1
1
1
1
1
1
1
1
1
1
1
1
1
1
1
1
1
1
1
1
1
1
1
1
1
1
1
1
1
1
1
1
1
1
1
1
1
1
1
1
1
1
1
1
1
1
1
1
1
1
1
1
1
1
1
1
1
1
1
1
1
1
1
1
1
1
1
1
1
1
1
1
1
1
1
1
1
1
1
1
1
1
1
1
1
1
1
1
1
1
1
1
1
1
1
1
1
1
1
1
1
1
1
1
1
1
0.9999999
1
1
1
1
1
0.9999999
0.9999999
1
1
1
1
1
1
1
1
1
1
1
1
1
1
1
1
1
1
1
1
1
1
0.9999999
1
1
1
1
0.9999999
0.9999999
1
1
1
1
1
1
1
1
1
1
1
1
1
1
1
1
1
1
1
1
1
1
1
1
1
1
0.9999999
0.9999999
1
1
1
1
0.9999999
0.9999999
1
1
1
1
1
1
1
1
1
0.9999999
0.9999999
1
1
1
1
1
1
1
1
1
1
1
1
1
1
1
1
1
1
1
1
1
1
1
1
0.9999999
0.9999998
0.9999998
0.9999999
1
1
1
1
0.9999999
0.9999999
1
1
1
0.9999999
0.9999997
0.9999996
0.9999997
0.9999999
0.9999994
0.9999888
0.9998441
0.9986581
0.9944764
0.9944433
0.9976642
0.9997079
0.9999917
0.9999999
0.9999991
0.9999895
0.9999195
0.9994342
0.9959438
0.9837353
0.9831215
0.9933019
0.9992772
0.9999842
1
1
1
1
1
1
1
0.9999999
0.9999998
0.9999986
0.999976
0.999782
0.9997024
0.9998148
0.9999555
0.9999973
1
1
0.9999999
0.9999999
1
1
1
1
1
1
1
1
1
1
1
1
1
1
1
1
1
1
1
1
1
0.9999999
1
1
1
0.9999997
1
1
1
0.9999999
1
1
1
0.9999996
1
1
1
1
1
1
1
1
1
0.9999998
0.9999996
1
1
1
1
1
1
1
1
1
1
1
1
1
1
1
0.9999999
1
1
1
1
1
1
1
0.9999999
1
1
1
1
1
1
1
1
1
1
1
1
1
0.9999999
0.9999999
1
0.9999999
1
1
1
1
1
1
1
1
1
1
1
1
1
1
1
1
1
1
1
1
1
1
1
1
1
1
1
1
1
1
1
1
1
1
1
1
1
1
1
1
1
1
1
1
1
1
1
1
1
1
1
1
1
1
1
1
1
1
1
1
1
1
1
1
1
1
1
1
1
1
1
1
1
1
1
1
1
1
1
1
1
1
1
1
1
1
1
1
1
1
1
1
1
1
1
1
1
1
1
1
1
1
1
1
1
1
1
1
1
1
1
1
1
1
1
1
1
1
1
1
1
1
0.9999999
0.9999996
0.9999994
0.9999994
0.9999994
0.9999994
0.9999989
0.9999964
0.9999903
0.9999903
0.9999961
0.9999995
1
1
1
1
1
1
1
1
1
1
1
1
1
1
1
1
1
1
1
1
1
1
1
1
1
1
1
1
1
1
1
1
1
1
1
1
1
1
1
1
1
1
1
0.9999999
1
1
0.9999999
0.9999999
0.9999999
1
1
1
1
1
1
1
1
1
1
1
1
1
1
1
1
1
1
1
1
1
1
1
1
1
1
1
1
1
1
1
0.9999999
1
1
1
1
1
1
1
1
1
1
1
1
1
1
1
1
1
1
1
1
1
0.9999999
0.9999999
1
1
1
1
1
1
1
1
1
1
1
1
1
1
1
1
1
1
1
1
1
1
1
1
1
1
1
0.9999999
0.9999999
1
1
1
1
1
1
1
1
1
1
1
1
1
1
1
0.9999999
1
1
1
1
1
1
1
1
1
1
1
1
1
1
1
1
1
1
1
1
1
1
1
1
1
0.9999999
0.9999999
0.9999999
1
1
1
1
1
1
0.9999999
0.9999997
0.999997
0.9999862
0.9999759
0.9999826
0.9999948
0.9999996
0.999999
0.9999776
0.9992743
0.9921675
0.9893442
0.9919724
0.9979767
0.9998661
0.9999975
0.999998
0.9999912
0.9998707
0.9970478
0.9550075
0.9255127
0.9429856
0.9849183
0.9987777
0.999963
0.9999994
1
1
1
1
1
0.9999997
0.9999973
0.9999923
0.9999933
0.9999962
0.9999901
0.9998831
0.9993741
0.9994284
0.9998099
0.999983
0.9999997
1
1
1
1
1
1
1
1
1
1
1
1
1
1
1
1
1
1
1
1
1
1
1
1
1
1
1
1
1
0.9999999
0.9999998
0.9999999
1
1
1
1
0.9999999
0.9999997
0.9999998
1
1
1
1
1
1
1
1
1
0.9999998
0.9999998
0.9999999
1
1
1
1
1
1
1
1
0.9999999
0.9999999
1
1
1
1
1
1
1
1
1
1
0.9999999
0.9999999
0.9999999
0.9999999
1
1
1
1
1
1
1
1
1
1
0.9999999
0.9999999
0.9999999
1
1
1
1
1
1
1
1
1
1
1
1
1
1
1
1
1
1
1
1
1
1
1
1
1
1
1
1
1
1
1
1
1
1
1
1
1
1
1
1
1
1
1
1
1
1
1
1
1
1
1
1
1
1
1
1
1
1
1
1
1
1
1
1
1
1
1
1
1
1
1
1
1
1
1
1
1
1
1
1
1
1
1
1
1
1
1
1
1
1
1
1
1
1
1
1
1
1
1
1
1
1
1
1
1
1
1
1
1
1
1
1
1
1
1
1
1
1
1
1
0.9999998
0.9999993
0.9999972
0.9999898
0.9999812
0.9999841
0.9999944
0.999995
0.999988
0.9999482
0.9999144
0.9999506
0.9999906
0.9999995
1
1
1
1
1
1
1
1
1
1
1
1
1
1
1
1
1
1
1
1
1
1
1
1
1
1
1
1
1
1
1
1
1
1
1
1
1
1
1
1
1
1
1
1
1
1
1
1
1
1
1
1
1
1
1
1
1
1
1
1
1
1
1
1
1
1
1
1
1
1
1
1
1
1
1
1
1
1
1
1
1
1
1
1
1
1
1
1
1
1
1
1
1
1
1
1
1
1
1
1
1
1
1
1
1
1
1
1
1
1
1
1
1
1
1
1
1
1
1
1
1
1
1
1
1
1
1
1
1
1
1
1
1
1
1
1
1
1
1
1
1
1
1
1
1
1
1
1
1
1
1
1
1
1
1
1
1
1
1
1
1
1
1
1
1
1
1
1
1
1
1
1
1
1
1
1
1
1
1
1
1
1
1
1
1
1
1
1
1
1
1
1
1
1
1
1
0.9999991
0.9999855
0.9998974
0.9997852
0.9998409
0.9999487
0.999993
0.9999978
0.9999975
0.9999763
0.9991425
0.991671
0.9924621
0.9970705
0.9991551
0.9995109
0.9996709
0.9997674
0.9995818
0.9933994
0.9498969
0.9393879
0.9603275
0.9896475
0.9988802
0.9996701
0.9995237
0.9995577
0.9998161
0.9999724
0.999999
0.9999996
0.9999986
0.9999879
0.9999039
0.999809
0.9998901
0.9999776
0.9999492
0.9995215
0.9985334
0.9991423
0.9998254
0.999991
0.9999999
1
1
1
1
1
1
1
1
0.9999998
0.9999992
0.9999981
0.9999975
0.9999946
0.9999878
0.9999881
0.9999953
0.9999994
1
1
1
1
1
1
1
1
1
1
1
1
0.9999999
0.9999998
0.9999999
1
1
1
1
1
0.9999998
0.9999998
0.9999999
1
1
1
1
1
1
1
1
1
0.9999999
0.9999999
0.9999999
1
1
1
1
1
1
1
1
1
1
1
1
1
1
1
1
1
1
1
1
0.9999999
0.9999999
0.9999999
1
1
1
1
1
1
1
1
1
1
0.9999999
0.9999999
0.9999999
0.9999999
1
1
1
1
1
1
1
1
1
1
1
1
1
1
1
1
1
1
1
1
1
1
1
1
1
1
1
1
1
1
1
1
1
1
1
1
1
1
1
1
1
1
1
1
1
1
1
0.9999999
0.9999999
0.9999999
1
1
1
1
1
1
1
1
1
1
1
1
1
1
1
1
1
1
1
1
1
1
1
1
1
1
1
1
1
1
0.9999999
0.9999995
0.999998
0.999993
0.9999912
0.9999957
0.9999993
1
1
1
1
1
1
1
1
1
1
1
1
1
1
1
1
1
0.9999999
0.9999999
0.9999999
1
1
1
1
1
1
1
1
1
0.9999999
0.9999995
0.9999979
0.9999903
0.9999552
0.9998395
0.999776
0.9998633
0.9999751
0.9999859
0.9999449
0.9997578
0.9996589
0.9998123
0.9999671
0.9999986
1
1
1
1
1
1
1
1
1
1
1
1
1
1
1
1
1
1
1
1
1
1
1
1
1
1
1
1
1
1
1
1
1
1
1
1
1
1
1
1
1
1
1
1
1
1
1
1
1
1
1
1
1
1
1
1
1
1
1
1
1
1
1
1
1
1
1
1
1
1
1
1
1
1
1
1
1
1
1
1
1
1
1
1
1
1
1
1
1
1
1
1
1
1
1
1
1
1
1
1
1
1
1
1
1
1
1
1
1
1
1
1
1
1
1
1
1
1
1
1
1
1
1
1
1
1
1
1
1
1
1
1
1
1
1
1
1
1
1
1
1
1
1
1
1
1
1
1
1
1
1
1
1
1
1
1
1
1
1
1
1
1
1
1
1
1
1
1
1
1
1
1
1
1
1
1
1
1
1
1
1
1
1
1
1
1
1
1
1
1
1
1
1
1
1
1
1
1
1
1
1
1
1
1
1
1
0.9999999
0.9999975
0.9999673
0.9997893
0.9993383
0.9994978
0.9998292
0.9999314
0.9999095
0.9997671
0.9992597
0.997986
0.9945631
0.986408
0.9796068
0.9777316
0.9746678
0.966356
0.9616581
0.9636623
0.9687819
0.9671976
0.9560516
0.9536296
0.9629045
0.9804745
0.9918
0.9969291
0.9991923
0.9998654
0.9999751
0.9999852
0.9999835
0.9999547
0.9996986
0.9988401
0.9989872
0.9996918
0.9999676
0.9999556
0.9994835
0.9968807
0.9975832
0.9992871
0.9999339
0.9999988
1
1
1
1
1
1
0.9999997
0.9999979
0.9999847
0.9999247
0.9997259
0.9990313
0.9989775
0.9995238
0.9999373
0.9999975
0.9999999
1
1
1
1
1
1
1
1
1
1
1
1
1
1
0.9999998
0.9999999
1
1
1
1
1
1
0.9999999
1
1
1
1
1
1
1
1
1
1
1
1
0.9999999
1
1
1
1
1
1
1
1
1
1
1
1
1
1
1
1
1
1
1
1
1
1
1
1
1
1
1
1
1
1
1
1
1
0.9999999
0.9999999
0.9999999
1
1
1
1
1
1
1
1
1
1
1
1
1
1
1
1
1
1
1
1
1
1
1
1
1
1
1
1
1
1
1
1
1
1
1
1
1
1
1
1
1
1
1
1
1
0.9999997
0.9999988
0.9999983
0.9999991
0.9999999
1
1
0.9999999
0.9999998
0.9999999
1
1
1
1
1
1
1
1
1
1
1
1
1
0.9999999
0.9999996
0.9999983
0.9999973
0.9999976
0.999999
0.9999999
1
1
1
0.9999999
0.9999994
0.9999963
0.9999774
0.9998917
0.9998417
0.9999169
0.9999861
0.9999994
1
1
1
1
1
1
1
1
1
1
1
1
1
1
1
1
1
0.9999998
0.9999996
0.9999997
0.9999999
1
1
0.9999999
0.9999998
0.9999997
0.9999998
0.9999998
0.9999999
0.9999998
0.9999979
0.9999816
0.9998985
0.9995519
0.9987167
0.9985415
0.9992096
0.9998768
0.9999849
0.9999309
0.999313
0.998539
0.9991568
0.9998294
0.9999915
0.9999999
1
1
1
1
1
0.9999999
0.9999996
0.9999978
0.9999966
0.999997
0.9999987
1
1
1
1
1
1
1
1
1
1
1
1
1
1
1
1
1
1
1
1
1
1
1
1
1
1
1
1
1
1
1
1
1
1
1
1
1
1
1
1
1
1
1
1
1
1
1
1
1
1
1
1
1
1
1
1
1
1
1
1
1
1
1
1
1
1
1
1
1
1
1
1
1
1
1
1
1
1
1
1
1
1
1
1
1
1
1
1
1
1
1
1
1
1
1
1
1
1
1
1
1
1
1
1
1
1
1
1
1
1
1
1
1
1
1
1
1
1
1
1
1
1
1
0.9999999
0.9999999
0.9999999
0.9999999
0.9999999
0.9999999
0.9999999
0.9999998
0.9999996
0.9999996
0.9999996
0.9999997
0.9999999
0.9999999
0.9999999
0.9999999
0.9999998
0.9999998
0.9999999
0.9999999
1
1
1
1
1
1
1
1
1
1
0.9999999
0.9999999
0.9999998
0.9999998
0.9999998
0.9999998
0.9999998
0.9999999
1
1
1
1
1
1
1
1
1
1
1
1
1
1
1
1
1
1
1
1
1
1
1
1
1
1
1
1
1
1
1
1
1
1
1
1
1
1
1
0.9999999
0.9999992
0.9999987
0.9999992
0.9999993
0.9999955
0.9999251
0.9995343
0.9990181
0.99917
0.9996074
0.9995326
0.9985786
0.9941798
0.9813388
0.9507829
0.9014596
0.8249354
0.6731395
0.6094712
0.646971
0.653951
0.5227672
0.359648
0.4191423
0.6611371
0.7438183
0.7174132
0.7273412
0.8123657
0.9212071
0.974393
0.9930777
0.9990738
0.9999564
0.9999789
0.9999254
0.9994184
0.9971972
0.9954974
0.9971598
0.9994136
0.9999282
0.9999018
0.999261
0.9956872
0.9957944
0.9983318
0.9997321
0.9999887
0.9999999
1
1
1
1
0.9999999
0.9999985
0.9999852
0.9998762
0.9991729
0.9957123
0.9946423
0.9960528
0.9990493
0.9999372
0.9999988
1
1
1
1
1
1
1
1
1
1
1
1
1
1
1
1
0.9999999
1
1
1
1
1
1
1
1
1
1
1
1
1
1
1
1
0.9999999
0.9999999
1
1
1
1
0.9999999
0.9999998
0.9999999
1
1
1
1
1
1
1
1
1
1
1
1
1
1
1
1
1
1
1
1
1
1
1
1
1
1
1
1
1
1
0.9999999
0.9999999
1
1
1
1
1
1
1
1
1
1
1
1
1
1
1
1
1
1
1
1
1
1
0.9999999
0.9999999
0.9999999
0.9999999
1
1
1
1
0.9999999
0.9999999
0.9999997
0.9999994
0.9999995
0.9999998
1
1
1
1
1
1
0.9999999
0.9999992
0.999996
0.9999887
0.9999904
0.9999971
0.9999998
1
0.9999999
0.9999995
0.9999994
0.9999997
0.9999999
1
1
1
1
1
1
1
1
1
0.9999999
0.9999997
0.9999989
0.9999953
0.9999811
0.9999454
0.9999366
0.9999651
0.9999939
0.9999997
1
1
0.9999998
0.9999992
0.9999956
0.9999731
0.9998328
0.9993576
0.999298
0.9996963
0.9999624
0.999999
1
1
1
1
1
1
1
1
1
1
1
1
1
1
1
1
1
0.9999999
0.9999996
0.9999993
0.9999991
0.9999988
0.9999986
0.999999
0.999999
0.999995
0.9999828
0.999977
0.9999785
0.9999864
0.9999952
0.99999
0.9998619
0.9980585
0.9895902
0.9894993
0.9950873
0.9990202
0.9998891
0.9999342
0.9995454
0.9982187
0.9981713
0.9985681
0.9996488
0.9999799
0.9999998
1
1
0.9999999
0.9999993
0.9999958
0.9999789
0.9999217
0.999856
0.9999022
0.999975
0.9999984
1
1
1
1
1
1
1
1
1
1
1
1
1
1
1
1
1
1
1
1
1
1
1
1
1
1
1
1
1
1
1
1
1
1
1
1
1
1
1
1
1
1
1
1
1
1
1
1
1
1
1
1
1
1
1
1
1
1
1
1
1
1
1
1
1
1
1
1
1
1
1
1
1
1
1
1
1
1
1
1
1
1
1
1
1
1
1
1
1
1
1
1
1
1
0.9999999
0.9999999
0.9999998
0.9999998
0.9999998
0.9999998
0.9999999
0.9999999
0.9999998
0.9999996
0.9999993
0.9999989
0.9999986
0.9999982
0.9999975
0.9999973
0.999998
0.9999991
0.9999993
0.9999992
0.9999989
0.9999983
0.9999972
0.9999949
0.9999912
0.9999896
0.9999906
0.9999947
0.9999974
0.9999974
0.9999961
0.9999916
0.9999811
0.9999626
0.9999435
0.9999394
0.9999473
0.9999666
0.9999739
0.9999718
0.9999563
0.9999095
0.999847
0.9998385
0.999869
0.9999264
0.9999491
0.9999477
0.9999369
0.9999199
0.999914
0.9999178
0.999941
0.9999716
0.9999837
0.9999853
0.9999854
0.9999845
0.9999804
0.9999741
0.9999723
0.9999731
0.9999772
0.9999826
0.9999829
0.9999796
0.9999703
0.9999634
0.9999633
0.999967
0.9999788
0.9999899
0.9999915
0.999991
0.9999884
0.9999801
0.9999653
0.9999666
0.9999882
0.9999985
0.9999988
0.9999985
0.9999968
0.9999909
0.9999779
0.9999764
0.9999906
0.9999991
0.9999999
0.9999999
0.9999998
0.9999996
0.9999995
0.9999997
0.9999999
1
1
1
1
1
1
1
1
1
1
1
1
0.9999998
0.9999989
0.999993
0.9999607
0.9999079
0.9999343
0.9999843
0.999997
0.9999831
0.9998897
0.999416
0.9987157
0.9990514
0.9990697
0.9983988
0.9916531
0.947369
0.8371511
0.6827097
0.4653498
0.2204238
0.08153437
0.03383986
0.01903392
0.01055183
0.008659754
0.01190987
0.0248013
0.09156034
0.1947699
0.2053499
0.1746046
0.09332535
0.07002581
0.07942988
0.4223425
0.9022397
0.996455
0.9999608
0.9999563
0.9995336
0.9951071
0.9847756
0.9883373
0.9969467
0.9998024
0.9996021
0.9953727
0.9876888
0.9913586
0.9975213
0.9997701
0.9999939
1
1
1
1
1
0.9999999
0.9999973
0.9999552
0.9993749
0.9938911
0.9893598
0.9906319
0.9964763
0.9995725
0.999987
0.9999998
0.9999999
0.9999995
0.9999991
0.9999992
0.9999997
1
1
1
1
1
1
0.9999999
0.9999998
0.9999995
0.9999996
0.9999999
1
1
1
1
1
1
1
1
0.9999999
0.9999997
0.9999997
0.9999998
1
1
1
1
1
1
1
1
1
1
0.9999998
0.9999994
0.9999996
0.9999999
1
1
1
1
1
1
1
1
1
1
1
0.9999999
0.9999999
0.9999998
0.9999995
0.9999981
0.9999967
0.9999969
0.9999987
0.9999998
1
1
1
1
1
1
1
1
1
1
1
1
1
1
1
1
1
1
1
1
1
1
1
1
1
1
1
1
1
0.9999999
0.9999997
0.9999989
0.9999956
0.9999862
0.9999801
0.9999808
0.9999882
0.9999966
0.9999965
0.9999951
0.9999912
0.9999768
0.9999196
0.9998242
0.9998557
0.9999586
0.9999967
0.9999999
1
1
1
1
1
0.9999999
0.9999988
0.9999917
0.9999578
0.9999265
0.9999547
0.9999908
0.9999995
0.9999999
0.9999998
0.9999988
0.9999987
0.9999995
0.9999999
1
1
1
1
0.9999999
0.9999999
0.9999998
0.9999997
0.9999994
0.9999966
0.9999809
0.9999225
0.9997465
0.9993824
0.9991157
0.9993041
0.9997964
0.9999834
0.9999996
0.9999998
0.9999999
0.9999998
0.9999978
0.9999747
0.9998275
0.9991145
0.9972937
0.9970874
0.9986427
0.9998199
0.9999949
1
1
1
1
1
1
1
1
1
1
1
1
1
1
1
1
0.9999999
0.9999998
0.9999992
0.9999974
0.9999917
0.999972
0.9999234
0.999911
0.9999556
0.999995
0.9999919
0.9999042
0.9996158
0.9995593
0.9996057
0.9997768
0.9998888
0.9995311
0.9931106
0.9823865
0.9823865
0.9823865
0.9823865
0.9902668
0.9985925
0.9998478
0.9995205
0.9991544
0.9994335
0.9998586
0.9999915
0.9999996
0.9999986
0.9999921
0.9999569
0.99979
0.9991233
0.998075
0.9985475
0.9996138
0.9999704
0.999998
0.9999986
1
1
1
1
1
1
1
1
1
1
1
1
1
1
1
1
1
1
1
1
1
1
1
1
1
1
1
1
1
1
1
1
1
1
1
1
1
1
1
1
1
1
1
1
1
1
1
1
1
1
1
1
1
1
1
1
1
1
1
1
1
1
1
1
1
1
1
1
1
1
1
1
1
1
1
1
0.9999999
0.9999999
0.9999999
0.9999999
0.9999999
0.9999999
0.9999998
0.9999992
0.9999971
0.9999924
0.9999858
0.9999828
0.9999831
0.9999861
0.9999925
0.9999956
0.999995
0.9999893
0.9999663
0.9999102
0.999839
0.999805
0.9998048
0.9998369
0.9999185
0.9999654
0.9999656
0.9999398
0.9998321
0.9995996
0.999255
0.9989415
0.9988931
0.9990932
0.9995504
0.9998168
0.9998542
0.9998486
0.9998035
0.9996547
0.9992602
0.9984438
0.9977664
0.9977951
0.9984595
0.9994135
0.9997417
0.9997338
0.9995577
0.9986832
0.9959083
0.9918283
0.9911186
0.9927724
0.9965737
0.9983254
0.9982149
0.9972321
0.9943642
0.9912165
0.9910687
0.993248
0.9971602
0.9977611
0.9971134
0.9949744
0.991881
0.9906302
0.9911042
0.9935955
0.9966681
0.9980222
0.9984209
0.9985551
0.9985605
0.9983846
0.997735
0.9968619
0.9966585
0.9972212
0.9990274
0.9997095
0.999604
0.9992147
0.998359
0.9975582
0.9977847
0.9991048
0.9997444
0.999711
0.9992779
0.9966253
0.9940412
0.9964754
0.9992764
0.9999623
0.9999912
0.9999852
0.9999373
0.9996555
0.998773
0.9987
0.9995001
0.9999517
0.9999971
0.9999974
0.999995
0.9999829
0.9999684
0.9999787
0.9999956
0.9999996
0.9999997
0.9999994
0.9999992
0.9999996
0.9999999
1
1
0.9999999
0.9999999
0.9999999
0.9999998
0.9999988
0.9999922
0.9999429
0.9996011
0.9988006
0.9990673
0.9997455
0.9999825
0.9999967
0.9999725
0.999609
0.9987973
0.9992427
0.9993445
0.9991687
0.9952904
0.9580051
0.8349509
0.4566053
0.1063996
0.01295046
0.002895585
0.002879821
0.002876255
0.002858866
0.002849816
0.002849313
0.002861112
0.003563173
0.008008584
0.01803168
0.06485288
0.1874674
0.3504054
0.5661195
0.7677601
0.8835608
0.9529575
0.9912192
0.9992072
0.9994772
0.9987534
0.9895657
0.9625346
0.9676817
0.9863083
0.9980335
0.999809
0.997948
0.9884428
0.9876888
0.993209
0.9989741
0.9999676
0.9999999
1
1
1
1
0.9999999
0.9999971
0.9999252
0.9982727
0.9852772
0.9843106
0.9933242
0.9989317
0.9999371
0.9999991
0.9999999
0.9999999
0.9999999
0.9999998
0.9999996
0.9999997
0.9999998
0.9999998
0.9999996
0.9999991
0.9999982
0.999997
0.9999942
0.9999893
0.9999914
0.9999974
0.9999998
1
1
1
1
1
0.9999999
0.9999993
0.9999957
0.9999945
0.9999966
0.9999993
0.9999999
1
1
1
1
1
1
1
1
1
0.9999998
0.9999988
0.999998
0.999999
0.9999998
1
1
1
1
1
1
1
1
0.9999999
0.9999997
0.9999992
0.9999967
0.9999819
0.9999112
0.9998738
0.9998975
0.9999696
0.9999974
0.9999999
1
1
1
1
1
1
1
1
1
1
1
0.9999999
0.9999999
1
1
1
1
1
1
0.9999999
0.9999999
0.9999999
1
1
1
1
1
0.9999999
0.9999999
0.9999993
0.9999958
0.9999782
0.9999049
0.9996825
0.9992165
0.9989967
0.9993617
0.9998658
0.9999911
0.9999907
0.9999518
0.9996944
0.9981845
0.9956822
0.9965343
0.9989619
0.9999174
0.9999987
1
1
1
1
1
1
1
0.9999995
0.9999886
0.9998328
0.9996449
0.999806
0.9999633
0.9999983
0.9999998
0.9999997
0.9999988
0.9999975
0.9999983
0.9999996
1
1
0.9999999
0.9999985
0.9999901
0.9999622
0.9999051
0.9998765
0.9998927
0.9999602
0.9999601
0.9997209
0.9976325
0.9907729
0.9897812
0.9942947
0.9989401
0.9999435
0.9999736
0.9999697
0.9999769
0.9999937
0.9999981
0.9999907
0.9998381
0.9975668
0.9851121
0.9837847
0.9922781
0.9988358
0.9999611
0.9999998
1
1
1
1
1
1
1
1
1
1
1
0.9999997
0.9999928
0.9999837
0.9999856
0.999995
0.9999973
0.9999947
0.9999765
0.9998515
0.9990929
0.9981798
0.9988857
0.999756
0.9999863
0.9999963
0.999996
0.9999644
0.9991757
0.9848976
0.9543738
0.9704104
0.9928145
0.9989194
0.9960771
0.9912697
0.9929171
0.996906
0.9993756
0.9999544
0.999997
0.9999978
0.9999981
0.9999985
0.9999991
0.9999996
0.9999995
0.9999945
0.9999402
0.9995563
0.9969838
0.986076
0.9840115
0.9927635
0.9990457
0.9999714
0.9999992
0.999997
0.9999889
1
1
1
1
1
1
1
1
1
1
1
1
1
1
1
1
1
1
1
1
1
1
1
1
1
1
1
1
1
1
1
1
1
1
1
1
1
1
1
1
1
1
1
1
1
1
1
1
1
1
1
1
1
1
1
1
1
1
1
1
1
1
1
1
1
1
1
1
1
1
1
1
1
1
1
1
1
1
1
1
1
1
1
1
1
1
1
1
1
0.9999999
0.9999989
0.9999925
0.9999693
0.9999219
0.9998883
0.9998864
0.9998946
0.99992
0.9999479
0.9999485
0.9998952
0.9995829
0.9985251
0.9965132
0.9952878
0.9953
0.9960336
0.9977983
0.9992138
0.9994192
0.9992666
0.9980738
0.9928869
0.9805076
0.9727654
0.9742296
0.9836405
0.9948101
0.9978743
0.9978507
0.9974942
0.9938418
0.9767844
0.9409523
0.9225138
0.9327279
0.9675208
0.9863597
0.9863212
0.9870417
0.9897123
0.9894744
0.9832513
0.9605024
0.9135518
0.8970246
0.9192934
0.9600332
0.9786187
0.9854177
0.9869212
0.9836554
0.9631906
0.8767599
0.7427256
0.7472843
0.860551
0.9641829
0.9691613
0.9554305
0.8923584
0.790285
0.7930598
0.8846059
0.9741927
0.983705
0.9812019
0.9639164
0.8845931
0.7554801
0.7436941
0.7974943
0.9118295
0.9673591
0.9611017
0.9402148
0.9436937
0.9462374
0.9360103
0.9104468
0.9089606
0.9433943
0.989173
0.9983645
0.9977238
0.9933334
0.9714779
0.9503339
0.9710841
0.9948363
0.9980147
0.9968897
0.9864553
0.9566284
0.9630301
0.9893722
0.9990905
0.9998275
0.9998301
0.9997869
0.9993883
0.9968309
0.9905628
0.9925435
0.9980776
0.999837
0.9999506
0.9999332
0.9997781
0.9993736
0.9994735
0.9998544
0.999987
0.9999938
0.999988
0.9999823
0.9999906
0.9999984
0.9999996
0.9999994
0.9999974
0.9999832
0.999967
0.9999788
0.9999939
0.9999898
0.9999286
0.9990887
0.9936483
0.9927318
0.9966142
0.9995682
0.9999839
0.9999976
0.9999743
0.9992156
0.9982471
0.9989456
0.9993668
0.9990527
0.990561
0.9170089
0.5256779
0.103669
0.007811002
0.002897896
0.002893887
0.002892707
0.00292696
0.003324526
0.00305916
0.002846713
0.002846713
0.002846713
0.002857032
0.00286494
0.01218649
0.2054782
0.7845405
0.9833632
0.9923803
0.9668322
0.831028
0.8554212
0.9127525
0.8885166
0.6772757
0.6344663
0.8170127
0.9722533
0.9946665
0.9979969
0.9997046
0.9997064
0.9981911
0.9935958
0.9943194
0.9978093
0.9997523
0.9999948
1
1
1
0.9999998
0.9999981
0.9999778
0.9997299
0.9964602
0.9747479
0.9731988
0.9887115
0.998471
0.9999359
0.9999994
0.9999999
0.9999999
0.9999999
0.9999999
0.9999998
0.9999997
0.9999995
0.9999986
0.9999955
0.9999809
0.9999032
0.99964
0.9995711
0.9997383
0.999951
0.9999972
0.9999999
0.9999999
0.9999999
0.9999999
0.9999994
0.9999949
0.9999563
0.9999397
0.99996
0.999991
0.9999989
0.9999997
0.9999999
1
1
1
1
1
1
1
1
0.9999996
0.9999952
0.9999908
0.9999918
0.999997
0.9999997
1
1
1
1
1
0.9999999
0.9999987
0.9999904
0.9999777
0.9999764
0.9999365
0.9992989
0.9988601
0.9989947
0.9996581
0.9999649
0.999998
0.9999996
0.9999999
1
1
1
1
0.9999999
0.9999992
0.9999987
0.9999988
0.9999996
1
1
1
1
1
1
1
1
0.9999999
0.9999998
0.9999998
0.9999999
1
1
1
1
0.9999996
0.9999972
0.9999882
0.9999759
0.9999731
0.9999698
0.9998988
0.9993209
0.9955668
0.9859127
0.9875411
0.9956653
0.9995835
0.9999877
0.9999932
0.9999493
0.9989939
0.9899652
0.9865869
0.9866787
0.9946215
0.9993486
0.9999844
0.9999999
0.9999999
0.9999996
0.9999985
0.9999968
0.9999965
0.9999973
0.999999
0.9999979
0.9999712
0.9997215
0.9996207
0.9996606
0.9998838
0.9999774
0.9999794
0.9999724
0.9999743
0.9999904
0.9999987
0.9999995
0.9999995
0.9999995
0.9999994
0.9999925
0.9998486
0.9985807
0.9951044
0.994582
0.996482
0.9992147
0.9998673
0.9992736
0.9871959
0.9705914
0.9720637
0.9874762
0.9975357
0.9992836
0.9994275
0.9997357
0.9999455
0.9999879
0.9999885
0.9999569
0.9993779
0.9910261
0.9721856
0.9719249
0.977769
0.9943627
0.9996705
0.9999969
1
1
1
1
0.9999999
0.9999993
0.999995
0.9999777
0.9999775
0.9999915
0.9999989
0.9999998
0.9999995
0.9999994
0.9999996
0.9999988
0.9999843
0.999843
0.9987548
0.9938331
0.992528
0.9967355
0.9995774
0.9999871
0.9999963
0.9999963
0.9999957
0.9999534
0.9988729
0.9761493
0.9474643
0.9508809
0.9782564
0.9953085
0.9994024
0.999896
0.9999698
0.999995
0.9999972
0.9999955
0.9999902
0.9999898
0.9999953
0.9999994
0.9999997
0.9999997
0.9999989
0.9999781
0.9995172
0.9910289
0.9605642
0.957922
0.9716115
0.9945825
0.9997611
0.9999977
0.9999995
0.9999968
0.9999897
1
1
1
1
1
1
1
1
1
1
1
1
1
1
1
1
1
1
1
1
1
1
1
1
1
1
1
1
1
1
1
1
1
1
1
1
1
1
1
1
1
1
1
1
1
1
1
1
1
1
1
1
1
1
1
1
1
1
1
1
1
1
1
1
1
1
1
1
1
1
1
1
1
1
1
1
1
1
1
1
1
1
1
1
1
1
1
1
1
1
1
1
1
1
1
0.9999998
0.9999991
0.9999976
0.999996
0.9999945
0.9999919
0.9999868
0.9999754
0.9999032
0.9993477
0.9966151
0.9901554
0.9859682
0.9857798
0.9865626
0.9890204
0.9923215
0.9943021
0.9941633
0.9875869
0.9522657
0.8781457
0.8399389
0.8415815
0.8643273
0.9189258
0.9700631
0.9809438
0.9773247
0.9604861
0.8992588
0.666965
0.5009888
0.5586679
0.7647187
0.9339044
0.9460124
0.9183004
0.9053431
0.9040592
0.7319864
0.238368
0.154084
0.3825785
0.7778303
0.8176793
0.7565128
0.7419805
0.8063925
0.8462287
0.6665331
0.2060929
0.0602049
0.1172593
0.469428
0.6826787
0.6682846
0.6997455
0.7794996
0.7211515
0.3502771
0.05829674
0.02122448
0.03893951
0.3270268
0.7367237
0.6365916
0.2451751
0.04212338
0.02680237
0.09466898
0.5822743
0.8365131
0.660457
0.2227348
0.06749343
0.06285748
0.05535065
0.04197906
0.07050029
0.4085604
0.8122816
0.7858899
0.4386157
0.1080627
0.09545122
0.09775608
0.1064368
0.3789545
0.8566243
0.9821127
0.9747494
0.8036735
0.4695197
0.5637515
0.8647217
0.9838858
0.9852755
0.9442728
0.7528641
0.6988238
0.8296469
0.9723011
0.9971984
0.9970744
0.9953961
0.9875498
0.9627031
0.9281089
0.9255003
0.9631479
0.9945823
0.9984217
0.9981179
0.9939674
0.9842843
0.9889266
0.9970639
0.9997505
0.9999325
0.9999059
0.9998087
0.9998681
0.9999661
0.9999945
0.9999938
0.9999688
0.9997541
0.9996327
0.9997708
0.9999568
0.9999893
0.9999846
0.9998471
0.9973611
0.9858908
0.9852333
0.9934854
0.9990002
0.9999619
0.9999987
0.999986
0.9991833
0.997872
0.9986772
0.9994561
0.9992712
0.9914066
0.8655768
0.3299597
0.03846893
0.00330683
0.002911082
0.002904698
0.002897995
0.003499875
0.003175815
0.002850816
0.002846673
0.002846713
0.002845372
0.002856814
0.002846213
0.00389567
0.05344174
0.5352597
0.9462163
0.9988236
0.9994962
0.9923854
0.8054862
0.2152949
0.1421558
0.1421558
0.1567122
0.6137171
0.9499186
0.9979251
0.999804
0.9998522
0.9998577
0.9996244
0.9992274
0.9991562
0.9993582
0.9997524
0.9999697
0.9999993
0.9999999
0.9999994
0.9999955
0.9999599
0.9995744
0.9946047
0.9447942
0.8981823
0.9227863
0.9793552
0.9985911
0.9999822
0.9999998
0.9999999
0.9999999
0.9999999
0.9999999
0.9999998
0.9999987
0.9999932
0.9999592
0.9996105
0.9958811
0.9887845
0.9924361
0.9980955
0.9998516
0.9999896
0.9999962
0.9999965
0.9999959
0.9999891
0.9999286
0.9996311
0.9995842
0.999772
0.999953
0.9999894
0.9999941
0.9999976
0.9999996
1
1
1
1
1
1
1
1
0.9999991
0.9999917
0.999989
0.9999918
0.9999978
0.9999996
0.9999997
0.9999997
0.9999996
0.9999996
0.9999994
0.9999989
0.9999964
0.9999836
0.9999096
0.9992554
0.9978515
0.9978255
0.9988332
0.9997918
0.9999322
0.9999153
0.9999143
0.9999576
0.9999925
0.9999987
0.9999988
0.999998
0.999992
0.9999782
0.9999773
0.9999879
0.9999978
0.9999999
1
1
1
1
1
1
0.9999999
0.9999999
0.9999996
0.9999995
0.9999996
0.9999999
0.9999999
0.9999999
1
1
0.9999999
0.9999996
0.9999961
0.9999459
0.9994828
0.9979068
0.9973979
0.9983158
0.9984172
0.9887176
0.9673074
0.9672864
0.9773224
0.9955086
0.9998049
0.9999925
0.9999932
0.9999626
0.9994225
0.9950766
0.9921075
0.9950459
0.9987505
0.9999156
0.9999983
0.9999976
0.9999836
0.9998577
0.9988703
0.9978766
0.9986626
0.9996804
0.9999813
0.9999979
0.9999975
0.9999944
0.999974
0.9999179
0.999753
0.9994426
0.9994477
0.9997539
0.9999675
0.9999901
0.9999827
0.9999538
0.9998816
0.9998518
0.9999143
0.999936
0.9996174
0.9935713
0.9700499
0.9713503
0.9874265
0.9973672
0.9996053
0.9995692
0.9972976
0.9800927
0.9704481
0.9704481
0.9733206
0.9898796
0.9988019
0.9998832
0.9998705
0.9995045
0.9990096
0.9987038
0.9954105
0.9750818
0.9719249
0.9719249
0.9756133
0.992592
0.9994637
0.9999935
0.9999992
0.999999
0.9999992
0.9999994
0.9999953
0.9999455
0.9999203
0.9999378
0.9999832
0.9999987
0.9999998
0.9999998
0.9999998
0.9999998
0.9999997
0.9999965
0.9999086
0.997778
0.9771693
0.9725472
0.9884077
0.9985162
0.999951
0.9999959
0.9999962
0.9999963
0.9999801
0.9996781
0.9983043
0.9978704
0.9968706
0.979301
0.9285
0.937363
0.9749852
0.9968241
0.9999099
0.9999958
0.9999644
0.999918
0.9999289
0.9999746
0.9999974
0.9999997
0.9999997
0.9999997
0.9999974
0.9999455
0.9987792
0.9782545
0.957922
0.960968
0.9847108
0.9982352
0.9999599
0.9999994
0.9999995
0.9999995
0.9999577
1
1
1
1
1
1
1
1
1
1
1
1
1
1
1
1
1
1
1
1
1
1
1
1
1
1
1
1
1
1
1
1
1
1
1
1
1
1
1
1
1
1
1
1
1
1
1
1
1
1
1
1
1
1
1
1
1
1
1
1
1
1
1
1
1
1
1
1
1
1
1
1
1
1
1
1
1
1
1
1
1
1
1
1
1
1
1
1
1
1
1
1
1
1
1
1
1
1
1
1
1
1
1
1
1
1
0.9999998
0.9999964
0.9999588
0.9996961
0.9989647
0.9983847
0.9981103
0.9977358
0.9968632
0.9955806
0.9934781
0.9815245
0.9203734
0.7928989
0.7399187
0.7433012
0.7586331
0.7961094
0.8343412
0.8509367
0.8567888
0.8259183
0.5593306
0.2144924
0.1782749
0.1899593
0.2334353
0.3990891
0.6724952
0.7736077
0.7091366
0.367944
0.0816908
0.02349464
0.01909174
0.01947343
0.06708101
0.4126168
0.5783422
0.3926434
0.1145011
0.02797801
0.01776775
0.01453807
0.0144723
0.02094256
0.06359875
0.1422304
0.1449114
0.1008933
0.04109966
0.01880769
0.0148977
0.01247578
0.01252233
0.01661702
0.02926931
0.04758499
0.05049362
0.04540737
0.02928363
0.01048901
0.00387337
0.003687104
0.0160973
0.02735105
0.02209231
0.01541035
0.01040393
0.009087861
0.009587559
0.02596239
0.02803999
0.02573978
0.02014009
0.01241503
0.008506204
0.01245041
0.04782744
0.04138029
0.0169409
0.01937486
0.02812548
0.02954619
0.05342294
0.1469228
0.1337019
0.06393139
0.0201031
0.02328995
0.06131727
0.1762219
0.2619758
0.2434611
0.131414
0.05061398
0.1080297
0.5104338
0.6872527
0.413256
0.129687
0.07372668
0.1407311
0.5856448
0.9097227
0.9555318
0.8604896
0.3486575
0.1811055
0.193101
0.3052798
0.7373064
0.9693755
0.9752821
0.8008092
0.6696436
0.8197475
0.9720377
0.9979597
0.9995605
0.9994137
0.9987299
0.9990624
0.9996967
0.9999528
0.999963
0.9999111
0.9994688
0.9986574
0.9990934
0.9997652
0.9999714
0.9999841
0.9999825
0.9998575
0.9976666
0.9800964
0.9801652
0.9929937
0.9989926
0.9999558
0.9999996
0.9999985
0.9998877
0.9977698
0.9983971
0.9994561
0.9994561
0.9975171
0.9290016
0.4149953
0.05311623
0.05648628
0.05860917
0.03386804
0.01076424
0.004303066
0.003524733
0.003265234
0.002968489
0.002873498
0.002897115
0.002861611
0.002853703
0.004708252
0.04043814
0.3978087
0.8934249
0.9959091
0.9999481
0.999903
0.9990652
0.9939553
0.9594926
0.7968878
0.6598354
0.7254802
0.9016125
0.9903844
0.999825
0.9999944
0.9999843
0.999936
0.9999071
0.999939
0.9999795
0.9999919
0.9999957
0.9999963
0.9999968
0.9999928
0.999955
0.9995213
0.9911796
0.7745684
0.5775456
0.7184587
0.9438738
0.9959718
0.9998443
0.9999962
0.9999963
0.9999864
0.9999782
0.9999823
0.9999917
0.999999
0.9999986
0.9999894
0.9998522
0.997792
0.9869413
0.985183
0.985183
0.9890882
0.9976099
0.9998783
0.9999321
0.9998463
0.9992458
0.9969711
0.996449
0.9979425
0.9995941
0.9999385
0.9999778
0.9999939
0.9999992
0.9999997
0.9999998
0.9999999
1
1
1
1
1
1
0.9999999
0.9999982
0.999994
0.9999951
0.9999978
0.9999992
0.9999992
0.9999992
0.9999992
0.9999992
0.9999981
0.9999895
0.9999471
0.9998152
0.999146
0.9961492
0.9934845
0.9961228
0.9991388
0.9999402
0.9999964
0.9999986
0.9999985
0.9999969
0.9999912
0.9999715
0.999872
0.9993848
0.9990305
0.9991807
0.9997287
0.9999732
0.999999
0.9999998
0.9999999
1
1
1
1
0.9999998
0.9999988
0.9999956
0.9999952
0.9999971
0.9999994
0.9999998
0.9999998
0.9999996
0.9999977
0.9999903
0.9999887
0.999993
0.9999958
0.9999839
0.9998739
0.9993008
0.9967637
0.9802737
0.9703292
0.9703292
0.9836245
0.9973139
0.9988671
0.9985725
0.9982144
0.9984748
0.9994931
0.9999578
0.9999932
0.999973
0.9998053
0.999449
0.9994321
0.9996561
0.9999237
0.9999962
0.9999964
0.9999464
0.9985173
0.9948416
0.9947628
0.9975039
0.9995759
0.9999692
0.9999748
0.9999609
0.9999395
0.9999198
0.999751
0.9977976
0.995244
0.9965111
0.9986313
0.9997857
0.9999408
0.9998136
0.9991395
0.9968282