/*--------------------------------*- C++ -*----------------------------------*\
| =========                 |                                                 |
| \\      /  F ield         | foam-extend: Open Source CFD                    |
|  \\    /   O peration     | Version:     3.1                                |
|   \\  /    A nd           | Web:         http://www.extend-project.de       |
|    \\/     M anipulation  |                                                 |
\*---------------------------------------------------------------------------*/
FoamFile
{
    version     2.0;
    format      ascii;
    class       volScalarField;
    location    "18.5";
    object      k;
}
// * * * * * * * * * * * * * * * * * * * * * * * * * * * * * * * * * * * * * //

dimensions      [0 2 -2 0 0 0 0];

internalField   nonuniform List<scalar> 
119952
(
0.07361788
0.06941399
0.06795486
0.06595527
0.06380318
0.06190681
0.06085892
0.060213
0.05976069
0.05940704
0.05910467
0.05881617
0.05851422
0.05817311
0.05776544
0.05726134
0.0566322
0.05585973
0.05497245
0.05422478
0.05611075
0.05282718
0.0510497
0.05305046
0.04913122
0.04662653
0.04472731
0.04319477
0.04101705
0.02710554
0.09596249
0.09398707
0.09188313
0.0905578
0.09006555
0.09024065
0.09086533
0.0917336
0.09267659
0.09363957
0.08910877
0.0891512
0.09155686
0.09495406
0.09857645
0.1019955
0.1050348
0.1076189
0.109702
0.1194862
0.1203917
0.120844
0.120918
0.1208369
0.1207761
0.120856
0.1211068
0.1215318
0.1220233
0.1229011
0.1235036
0.1238448
0.1239841
0.1239378
0.1236991
0.1232433
0.1225913
0.1219529
0.1236337
0.1228527
0.1215069
0.1210048
0.1206331
0.1200026
0.1190321
0.1179539
0.116875
0.1158174
0.1147783
0.1137577
0.1127573
0.1117828
0.1108423
0.1099387
0.1090617
0.108185
0.1072696
0.1062968
0.1054979
0.1047301
0.1037788
0.1033533
0.1037057
0.1039198
0.1040649
0.1044859
0.1046213
0.1027045
0.1008848
0.09902725
0.09713919
0.09530455
0.09347033
0.09168056
0.08994803
0.08829211
0.0867134
0.08520281
0.08373106
0.08222309
0.08054488
0.07880862
0.077742
0.07818717
0.08010597
0.08267522
0.08513535
0.0870107
0.08808537
0.08836201
0.08795324
0.08709199
0.08621631
0.08567921
0.08575835
0.08673503
0.08893234
0.09269016
0.098269
0.1057744
0.1150467
0.1256862
0.137047
0.1483394
0.1587215
0.1674554
0.1742696
0.1791808
0.1823409
0.183986
0.1843861
0.1838188
0.1824807
0.180421
0.1777781
0.1746763
0.17105
0.1668314
0.16176
0.155467
0.1479537
0.1388999
0.1282943
0.1167591
0.1077126
0.106885
0.1135354
0.12102
0.1236134
0.1226774
0.1233436
0.1269887
0.1315005
0.1341089
0.1336993
0.1303069
0.1244922
0.1173576
0.1098876
0.102772
0.09637696
0.09083527
0.08612575
0.08217383
0.07890051
0.07621393
0.07398901
0.07207037
0.07030757
0.06858495
0.06682437
0.06497307
0.06304232
0.06107219
0.0591202
0.05729994
0.05574378
0.05486062
0.05522357
0.05670747
0.05858621
0.06023088
0.06134027
0.06188532
0.06197466
0.06174186
0.0613301
0.06068916
0.05876693
0.05640404
0.05413928
0.0520585
0.05024283
0.04865031
0.04720549
0.04584099
0.04451001
0.0431984
0.04193117
0.04072568
0.03959156
0.03853977
0.03758108
0.03672993
0.03598744
0.03534544
0.03479624
0.03433404
0.03395392
0.03364932
0.03341079
0.0332303
0.03309898
0.03300822
0.03295088
0.03292237
0.03291964
0.03293846
0.03297338
0.03301438
0.03306782
0.03314949
0.03322236
0.03366626
0.0342123
0.03479888
0.03542908
0.03609617
0.03677092
0.03740481
0.03794845
0.03836313
0.03862552
0.03872724
0.03867322
0.03848009
0.03817266
0.03777791
0.03732024
0.03682833
0.03630951
0.03577594
0.03524551
0.03472945
0.03423404
0.0337509
0.03328243
0.03285054
0.03245846
0.03210427
0.03178598
0.03150229
0.03125246
0.03103586
0.03085092
0.0306997
0.0305726
0.03099587
0.03106848
0.03107941
0.03095971
0.03079971
0.0306393
0.03049978
0.03039342
0.03032238
0.03028677
0.03028597
0.03031777
0.03037762
0.03045915
0.03055428
0.03065429
0.03075161
0.03083699
0.03090315
0.03094146
0.03094904
0.03092464
0.03086832
0.03078221
0.03066982
0.03053569
0.03038482
0.0302221
0.03005235
0.02988025
0.02971005
0.02954545
0.02938961
0.0292446
0.02911086
0.0289906
0.02888281
0.02878637
0.02870017
0.02862295
0.02855372
0.02849176
0.02843619
0.02838749
0.02834941
0.02832386
0.02829755
0.02827104
0.02825338
0.02824339
0.02824129
0.02824965
0.02827117
0.02831831
0.02848951
0.02849849
0.02850329
0.02851914
0.02854313
0.02857481
0.02861516
0.0286657
0.0287282
0.02880395
0.0288933
0.02899577
0.02911007
0.02923318
0.02936359
0.02949772
0.02963008
0.02975427
0.02986372
0.02995085
0.03000711
0.03002622
0.03000287
0.02993424
0.02981989
0.02966116
0.02946034
0.02921935
0.02894168
0.02863206
0.02829568
0.02793862
0.02756769
0.02718995
0.02681234
0.02644157
0.02608417
0.02574619
0.02543291
0.02514862
0.02489649
0.02467822
0.02449429
0.02434427
0.02422747
0.02414341
0.02409161
0.02407121
0.02407953
0.02411012
0.02415557
0.02421006
0.02426641
0.02431519
0.0243487
0.02436229
0.02435524
0.02433137
0.02429784
0.02426201
0.0242318
0.02421728
0.02422987
0.02427625
0.02435627
0.02446434
0.02459071
0.02472426
0.02485507
0.02497586
0.02508225
0.02517185
0.02524291
0.02529445
0.02532607
0.0253383
0.0253332
0.02531417
0.02528089
0.02523381
0.02516855
0.02507008
0.02490059
0.02465549
0.0249361
0.1093876
0.1017655
0.1022015
0.1056193
0.1099023
0.114051
0.1177095
0.1208097
0.1234118
0.1237339
0.1279906
0.1348321
0.1422183
0.1491852
0.1551818
0.1601624
0.1642598
0.1675788
0.1896038
0.1900915
0.1904624
0.190434
0.1902178
0.1900097
0.1898504
0.1897493
0.1896919
0.1895532
0.1896907
0.1898101
0.1896195
0.1892984
0.1889347
0.1885374
0.1880861
0.1875591
0.1869381
0.1865053
0.1862222
0.1857006
0.1851519
0.1847086
0.1843812
0.1841413
0.1839279
0.1836741
0.1833564
0.1830355
0.1826382
0.1822514
0.1819005
0.1815489
0.1811444
0.1806194
0.1799118
0.1790179
0.1897105
0.188164
0.1866531
0.1852632
0.1840133
0.1829053
0.1819422
0.1811231
0.1804382
0.1798508
0.1793315
0.1788371
0.178282
0.1775872
0.1767031
0.1755769
0.1742459
0.1728093
0.1714954
0.1701073
0.1683171
0.1665948
0.1651505
0.1637573
0.1622517
0.1606659
0.1590646
0.1574687
0.155878
0.1542847
0.1526813
0.1510682
0.1494591
0.1478739
0.1463247
0.1448048
0.1432967
0.1417792
0.1402494
0.1387269
0.1371774
0.1356668
0.1344002
0.1332251
0.1319246
0.1305121
0.128986
0.1271424
0.1251067
0.1233586
0.1218292
0.1203559
0.1188913
0.1174212
0.1159518
0.1144977
0.1130686
0.111661
0.110255
0.108808
0.1072467
0.1055193
0.1037046
0.1020209
0.1006629
0.09967049
0.09898111
0.09851979
0.09821787
0.09801073
0.09783977
0.09766473
0.09749081
0.09749208
0.09797346
0.09940254
0.1023887
0.1076076
0.1156805
0.1269517
0.1412175
0.1576664
0.1751132
0.1922927
0.2080063
0.2214602
0.2323723
0.2408091
0.2469836
0.2511329
0.2535491
0.2545792
0.2545326
0.2536118
0.2519816
0.2497728
0.2471268
0.2440219
0.2403054
0.235749
0.2301032
0.2229838
0.213962
0.2029174
0.1904719
0.1778064
0.1659788
0.156242
0.1499587
0.1480969
0.1505432
0.1558264
0.16192
0.1671823
0.1704025
0.170855
0.1684574
0.1635886
0.1570208
0.1495479
0.1418085
0.1342946
0.1273431
0.1211562
0.1158291
0.1113711
0.1077292
0.1047988
0.1024299
0.1004608
0.09873897
0.09712035
0.09547156
0.09368789
0.09170123
0.08953441
0.08721596
0.08478305
0.08235612
0.08005744
0.07798331
0.07616557
0.07461063
0.07329374
0.07221182
0.07133272
0.0706695
0.07019958
0.0698027
0.06946144
0.06939621
0.06944011
0.0694657
0.06936765
0.0690567
0.06847602
0.06761521
0.06650457
0.06519782
0.06375943
0.06225129
0.0607244
0.0592179
0.05776004
0.05637079
0.05506442
0.05385053
0.05273653
0.05172997
0.05083642
0.05005393
0.04937626
0.04879481
0.0482974
0.04786963
0.04749486
0.0471553
0.04683283
0.04650988
0.04617039
0.0457987
0.045378
0.04489441
0.0443534
0.04379463
0.04323584
0.0426695
0.0421021
0.04154693
0.04102184
0.04054877
0.04014041
0.03980154
0.03953491
0.03934163
0.03922066
0.03916809
0.039176
0.03923184
0.03932058
0.03942553
0.03952753
0.03960546
0.03964021
0.0396215
0.03954736
0.0394198
0.03924291
0.03902536
0.03877369
0.0384965
0.03820378
0.03790598
0.03761316
0.03733425
0.03707692
0.0368476
0.03665141
0.03759441
0.03748644
0.03742164
0.03738484
0.03735706
0.03732554
0.03728454
0.03723105
0.03716177
0.03707347
0.03696408
0.0368329
0.03668045
0.03650823
0.036318
0.03611095
0.03588804
0.03565036
0.03539934
0.03513724
0.03486722
0.03459368
0.03432218
0.03405827
0.03380682
0.03357171
0.03335574
0.0331609
0.03298853
0.03283953
0.03271435
0.03261292
0.03253454
0.03247788
0.03244077
0.0324205
0.03241425
0.03241924
0.03243296
0.03245359
0.03248012
0.03251244
0.03255103
0.03259676
0.03264966
0.03270965
0.03277559
0.03284809
0.03292857
0.03301821
0.03311513
0.03321972
0.03332854
0.03344547
0.03357209
0.03369406
0.03380647
0.03390863
0.03399848
0.03407303
0.03412978
0.03416769
0.03418621
0.03418422
0.0341595
0.03410882
0.0340285
0.03391514
0.03376653
0.03358242
0.03336511
0.03311997
0.03285525
0.03258141
0.03230996
0.03204907
0.03180115
0.03156719
0.03134651
0.03113707
0.03093601
0.03073976
0.03054492
0.03034926
0.03015167
0.02995233
0.02975302
0.02955842
0.02937389
0.02920391
0.02905339
0.0289272
0.02882957
0.02876392
0.02873239
0.02873566
0.02877306
0.02884309
0.02894397
0.02907327
0.0292269
0.02939877
0.02958116
0.02976449
0.02993784
0.03009066
0.03021399
0.03030211
0.03035529
0.0303818
0.03039708
0.03040874
0.03042349
0.03044943
0.03049316
0.0305593
0.03065045
0.03077135
0.03092102
0.03108386
0.03124281
0.03138214
0.03148908
0.03155398
0.0315698
0.03153175
0.03143759
0.03128838
0.03108916
0.03084886
0.03057956
0.03029374
0.0300032
0.02971632
0.02944034
0.02917735
0.02894069
0.02875041
0.0285972
0.05944336
0.06466469
0.07068782
0.07718527
0.08420425
0.0919406
0.1008257
0.111502
0.1252399
0.1442356
0.2187986
0.2363584
0.2525346
0.2659876
0.2791248
0.2917781
0.3037526
0.3152094
0.329257
0.4023577
0.4118005
0.416675
0.4193709
0.420533
0.4205381
0.4196453
0.4179188
0.4153167
0.4121637
0.4078791
0.4036581
0.3996427
0.3957632
0.3918938
0.3879575
0.3839246
0.3797992
0.3758264
0.3704042
0.3651014
0.3598228
0.3546206
0.3495166
0.3445201
0.3396564
0.3349567
0.3304383
0.3261458
0.3219591
0.3178283
0.3137558
0.309719
0.3057266
0.3018099
0.2980021
0.2943307
0.3039601
0.3006961
0.2975227
0.2945185
0.2916821
0.2889699
0.2863311
0.2837096
0.2810909
0.2784772
0.2758738
0.2733733
0.2710565
0.268934
0.2669832
0.2651422
0.2633157
0.261424
0.2594363
0.257341
0.2552066
0.2531843
0.2513836
0.2498693
0.2486564
0.2476704
0.2467944
0.2459168
0.244951
0.2438947
0.2427891
0.2416723
0.2405902
0.2395603
0.2385382
0.2374333
0.2361196
0.2344981
0.2325616
0.2304382
0.2282512
0.226108
0.2240757
0.2221942
0.220487
0.2189728
0.2176685
0.2165669
0.2156319
0.2147852
0.2139239
0.2129449
0.2117524
0.2102589
0.2084532
0.2064085
0.2042369
0.2019754
0.1996935
0.1975125
0.195444
0.1934561
0.1914709
0.1894581
0.1874395
0.1854438
0.1834815
0.18154
0.1795966
0.1776385
0.1756763
0.1737372
0.1718421
0.169992
0.1681725
0.1663515
0.1644919
0.1625734
0.1605822
0.1585549
0.1565684
0.1545733
0.1525102
0.1503432
0.1480795
0.1456619
0.1432051
0.1408726
0.1386799
0.1365914
0.1345815
0.1326366
0.1307587
0.1289578
0.1272408
0.1256061
0.1240429
0.1225237
0.1210033
0.1194514
0.1178968
0.1164158
0.1150623
0.1138266
0.1126617
0.1115228
0.1103862
0.1092586
0.1081807
0.1072284
0.1065321
0.1063663
0.1072294
0.1097547
0.1147421
0.123042
0.1353043
0.1516011
0.1711843
0.192545
0.2140507
0.2343353
0.2523198
0.2674038
0.2795203
0.2889707
0.2960612
0.3010211
0.3041335
0.3057392
0.3060974
0.3053434
0.3036644
0.3013451
0.298667
0.2955117
0.2916752
0.2869002
0.2808765
0.2733184
0.2640978
0.2533637
0.2414444
0.2284421
0.2144874
0.2000738
0.1861832
0.1742088
0.1652527
0.1596363
0.1569495
0.1562396
0.1563546
0.1565171
0.1561933
0.1550172
0.152743
0.1493874
0.1451907
0.1405172
0.1357562
0.1312287
0.1271701
0.1237316
0.1209748
0.1188709
0.1173129
0.1161481
0.115208
0.1143269
0.1133585
0.1121958
0.1107745
0.1090531
0.107072
0.1048882
0.1025673
0.1001756
0.09774887
0.0953174
0.0929002
0.09052642
0.08821136
0.08598446
0.08386114
0.08188366
0.08005579
0.07837634
0.07688291
0.07559982
0.07453374
0.07366593
0.07295602
0.07234822
0.07178189
0.07120083
0.07056063
0.0698339
0.06901047
0.06809453
0.06710076
0.06605021
0.06496712
0.06387661
0.06280325
0.06177007
0.06079724
0.05990535
0.05912362
0.05846299
0.05792537
0.05750537
0.05719094
0.05696492
0.05680645
0.0566919
0.05659659
0.05649706
0.05637143
0.05620105
0.05597356
0.05568658
0.05534367
0.05494355
0.05448301
0.05396338
0.05338897
0.05276626
0.05210474
0.05142092
0.05071862
0.05000279
0.04928102
0.04856314
0.04786055
0.04718534
0.04654935
0.04596302
0.04543373
0.04496467
0.04455437
0.04419731
0.04388498
0.04360693
0.04335168
0.04310908
0.04287852
0.04266449
0.04246494
0.04227963
0.04211122
0.04196319
0.04184021
0.04174555
0.04168204
0.04164229
0.04164979
0.0416887
0.04175201
0.04182493
0.04189784
0.04196624
0.042027
0.04207632
0.04210953
0.04212191
0.04211002
0.04207247
0.04200975
0.04192337
0.04181478
0.04168469
0.04153321
0.04136047
0.0411674
0.04095646
0.04073188
0.04049941
0.04026566
0.04003705
0.039819
0.03961567
0.03943006
0.03926443
0.03912057
0.03899984
0.03890302
0.03883014
0.0387803
0.03875161
0.0387413
0.03874616
0.03876291
0.03878859
0.03882093
0.03885871
0.03890169
0.0389505
0.03900615
0.03906983
0.03914235
0.03922442
0.03931643
0.03941916
0.0395328
0.03965671
0.03978929
0.03992883
0.0400736
0.04022151
0.04037048
0.04051567
0.04065065
0.04076894
0.0408648
0.04093498
0.040979
0.04099819
0.04099359
0.0409643
0.04090714
0.04081709
0.04068825
0.04051497
0.04029309
0.04002112
0.03970129
0.03934012
0.03894817
0.03853872
0.03812543
0.03772232
0.03733598
0.0369688
0.03662207
0.03629646
0.03599232
0.03570992
0.03544972
0.03521232
0.03499857
0.0348095
0.034646
0.03450761
0.03439476
0.03430954
0.03425465
0.0342352
0.03425446
0.03431255
0.03440873
0.03454117
0.0347072
0.0349038
0.03512786
0.03537544
0.03564056
0.03591433
0.03618506
0.03643945
0.03666487
0.03685065
0.03698912
0.03707849
0.03712715
0.03715482
0.03717484
0.03719792
0.03723614
0.03729804
0.03738817
0.03750665
0.03764944
0.03780881
0.03798
0.03815235
0.03830789
0.03843181
0.03851278
0.03854201
0.03851255
0.03841918
0.03826009
0.03803805
0.03776178
0.03744449
0.03710204
0.03674812
0.03639448
0.03604755
0.0357142
0.03539243
0.03508861
0.03479514
0.03452918
0.04608958
0.05254666
0.05837907
0.09080694
0.1232303
0.163625
0.1903095
0.2168928
0.2417881
0.2651494
0.2858267
0.3038017
0.3212545
0.3388692
0.3565451
0.3739016
0.3907147
0.4072863
0.4235809
0.4394824
0.4549024
0.4694966
0.48287
0.4948131
0.505689
0.5156184
0.5244154
0.5318578
0.5375203
0.5413294
0.5438146
0.5608678
0.5583642
0.5547158
0.5502258
0.5450449
0.5393424
0.5332783
0.5269759
0.5205422
0.5140633
0.5075133
0.5009171
0.4942755
0.4876216
0.4809892
0.4744119
0.4679277
0.4614743
0.4549897
0.4485042
0.4420331
0.4354821
0.4287979
0.4219846
0.4151052
0.4082628
0.4015797
0.3951487
0.3890226
0.3832303
0.3777458
0.3725094
0.3674608
0.3625637
0.3577914
0.3531536
0.3486211
0.344007
0.3396783
0.3356989
0.3320898
0.3288309
0.3258677
0.3231063
0.3204328
0.3177574
0.315046
0.3123289
0.3096999
0.3072673
0.3051135
0.3032611
0.3016235
0.3000318
0.2983242
0.2964018
0.2942593
0.2919933
0.2897772
0.2878007
0.2862156
0.2850862
0.2843284
0.2837527
0.2831657
0.2824363
0.2815264
0.2804797
0.2793891
0.2783609
0.2774408
0.2765758
0.2756022
0.2743269
0.2725877
0.2703947
0.2678842
0.2652432
0.262639
0.2601813
0.2579243
0.2558946
0.2541201
0.2526365
0.2514533
0.2505223
0.2497341
0.2489325
0.2479358
0.246591
0.2447677
0.2424241
0.23966
0.2366546
0.2336374
0.2306967
0.2278874
0.2252773
0.2228347
0.2204702
0.2181159
0.2157692
0.2134654
0.2112252
0.2090307
0.2068414
0.2046264
0.2023913
0.2001718
0.1979949
0.1958678
0.1937823
0.1917
0.1895473
0.1872612
0.1848225
0.1822532
0.1796154
0.1769405
0.1742235
0.1714382
0.1685812
0.1656485
0.1626822
0.1597608
0.1569307
0.1541963
0.1515468
0.148979
0.1465047
0.1441442
0.1419181
0.139841
0.1379204
0.1361523
0.134519
0.1330009
0.1315959
0.1303153
0.1291524
0.1280641
0.1269897
0.1258801
0.1247173
0.1235297
0.122407
0.1215142
0.1211108
0.121575
0.1236577
0.1282558
0.1364018
0.149048
0.1666356
0.1885928
0.2134737
0.2392587
0.2641278
0.2868281
0.3066033
0.3230804
0.3365315
0.3475435
0.35638
0.3630992
0.3679018
0.3710796
0.3727545
0.3728088
0.371384
0.3691652
0.3667762
0.3637536
0.3596429
0.3539397
0.3461435
0.3363511
0.3250252
0.3124674
0.2987908
0.2837407
0.2672209
0.2495312
0.2314794
0.2143399
0.1992288
0.1867253
0.1770372
0.170071
0.1652511
0.1618704
0.1593476
0.1571911
0.155036
0.1526546
0.1499699
0.1470415
0.1440185
0.1411047
0.1385047
0.1364118
0.1349513
0.1340883
0.1337022
0.1336099
0.1336111
0.1335304
0.1332196
0.1325727
0.1315462
0.1301347
0.1283706
0.1263337
0.1240723
0.1216295
0.119034
0.1163109
0.1134838
0.110578
0.1076168
0.1046262
0.1016285
0.09865427
0.09573504
0.09288969
0.09015607
0.08757574
0.08518218
0.08299913
0.08103747
0.07929174
0.07774156
0.0763559
0.07509839
0.07393271
0.07282775
0.07176083
0.07071842
0.06969508
0.06869286
0.06771986
0.06678878
0.06591521
0.06511603
0.06440744
0.06380694
0.06334629
0.06303268
0.06286098
0.06281793
0.06288352
0.0630327
0.06323658
0.06346478
0.06368869
0.06388301
0.06402668
0.06410485
0.06410901
0.0640344
0.06387644
0.06363092
0.06329593
0.06287196
0.06236174
0.06176991
0.06110605
0.06037773
0.05958925
0.05874743
0.05786124
0.0569417
0.05600144
0.05505448
0.05411511
0.05319702
0.05231241
0.05147141
0.05068161
0.04994789
0.0492723
0.04865476
0.04809376
0.04758659
0.04713283
0.04674691
0.04643002
0.04618029
0.04599537
0.04587448
0.04581451
0.04581412
0.04586724
0.0459697
0.04611294
0.04628681
0.04648005
0.04668189
0.04688323
0.04707671
0.04725629
0.04741678
0.04755378
0.0476643
0.04774763
0.04780515
0.04783904
0.04785078
0.04784042
0.04780716
0.04775052
0.04767154
0.04757347
0.04746182
0.04734365
0.04722612
0.04711498
0.04701385
0.04692458
0.04684789
0.04678412
0.0467338
0.04669745
0.04667514
0.0466662
0.04666906
0.04668137
0.04670026
0.04672286
0.04674674
0.04677052
0.04679408
0.04681858
0.04684601
0.04687858
0.04691896
0.04696939
0.0470319
0.0471081
0.04719899
0.04730497
0.04742508
0.04755693
0.04769734
0.0478434
0.04799248
0.0481416
0.04828593
0.04841799
0.04852889
0.04861052
0.04865784
0.04867063
0.04865309
0.04861088
0.04854723
0.04846102
0.04834725
0.04819863
0.04800722
0.04776605
0.04747063
0.04712032
0.04671935
0.04627728
0.04580835
0.04532902
0.04485401
0.04439391
0.04395453
0.04353561
0.04313718
0.0427603
0.04240696
0.04207983
0.04178204
0.04151685
0.04128747
0.04109682
0.04094727
0.04084057
0.0407778
0.04075926
0.040784
0.04084783
0.04094805
0.04108486
0.04126057
0.04147207
0.04171531
0.04198702
0.04228389
0.04260094
0.0429297
0.04325735
0.04356754
0.04384275
0.04406776
0.04423178
0.0443296
0.04436564
0.04436054
0.04434534
0.04433686
0.04435188
0.04440026
0.04448644
0.04460972
0.04476334
0.04493555
0.04511272
0.04528249
0.04543527
0.04555588
0.04563352
0.04566068
0.04563089
0.04553776
0.04537628
0.04514569
0.04485187
0.04450872
0.04413569
0.04375238
0.04337199
0.04300091
0.04264137
0.04229268
0.04195225
0.04161655
0.04128508
0.04097602
0.02315888
0.02589146
0.02855713
0.03832856
0.05120595
0.07307334
0.08837164
0.1045775
0.1219509
0.1395602
0.1577693
0.1777119
0.1990427
0.2208697
0.2435735
0.2690072
0.3081713
0.3266209
0.3454887
0.3646917
0.384476
0.4040514
0.4227407
0.4404668
0.4571813
0.4732967
0.4888417
0.5038304
0.5181966
0.5317994
0.5444911
0.5561256
0.5662712
0.5748631
0.5809561
0.5850693
0.5873092
0.5872837
0.5851631
0.581225
0.5762529
0.5700503
0.5609938
0.5523658
0.5438593
0.5353587
0.5269341
0.5186885
0.5107225
0.5031377
0.4960003
0.4893376
0.4831036
0.4772113
0.4715341
0.4659653
0.4604316
0.4549376
0.4495424
0.4443822
0.4394989
0.4346713
0.4299082
0.4251355
0.4202227
0.4150916
0.4097586
0.4043286
0.3989606
0.3938168
0.3890165
0.3846228
0.3806226
0.3769382
0.3734597
0.3701034
0.3668054
0.3635522
0.3603244
0.3571672
0.3541931
0.3515182
0.3492202
0.3473229
0.3457765
0.3444259
0.3430826
0.3416042
0.3399481
0.3381782
0.3364466
0.3349449
0.333824
0.3331134
0.3326486
0.3321344
0.3313073
0.3300362
0.3283494
0.3264173
0.3245223
0.322992
0.3220912
0.3218784
0.3221623
0.3226038
0.3228831
0.3228104
0.322356
0.3216328
0.3208438
0.3201932
0.3197702
0.3194554
0.3189279
0.3178327
0.3159319
0.3132521
0.3100829
0.3067863
0.3036388
0.3007753
0.2982391
0.2960497
0.2942517
0.2929126
0.2920509
0.2915768
0.2912943
0.2909199
0.290116
0.2885894
0.2861517
0.2828236
0.2788703
0.2747393
0.2706469
0.266703
0.2630693
0.2598042
0.2568397
0.2540407
0.251289
0.2485571
0.2458888
0.2433195
0.240827
0.2383502
0.235837
0.2332832
0.2307293
0.2282075
0.2257166
0.2232327
0.2207048
0.2180398
0.2151496
0.2120003
0.2086276
0.205126
0.2015828
0.1980365
0.194482
0.190909
0.187309
0.1836921
0.1800991
0.1765681
0.1731137
0.1697406
0.1664614
0.1633026
0.1602989
0.157486
0.1548953
0.1525514
0.1504683
0.1486461
0.1470749
0.1457412
0.1446231
0.1436784
0.1428427
0.1420468
0.1412404
0.1404121
0.1396135
0.1389874
0.1387932
0.1394338
0.1414856
0.1458364
0.1537799
0.1665095
0.1848547
0.2088488
0.2372122
0.267648
0.2976196
0.3252789
0.3498518
0.3711957
0.3894803
0.4054642
0.4199136
0.4327575
0.4437913
0.4532939
0.461431
0.4676725
0.4708253
0.4708163
0.4700383
0.4702747
0.4691363
0.4651939
0.4574616
0.4445238
0.4276783
0.4086661
0.3886545
0.3679023
0.3464112
0.324336
0.3021201
0.2804296
0.2600433
0.2416431
0.2256506
0.2123328
0.2018292
0.1938139
0.1876013
0.1826235
0.1784215
0.1746701
0.1711764
0.1678692
0.1647817
0.1620199
0.1597166
0.1579725
0.1568036
0.1561886
0.1561823
0.1566531
0.1573388
0.1579815
0.1583673
0.1583442
0.1578299
0.1568084
0.155304
0.1533739
0.151101
0.1485412
0.1457389
0.1427275
0.1395378
0.1361988
0.1327377
0.1291779
0.1255402
0.1218436
0.1181096
0.1143618
0.1106253
0.1069346
0.1033304
0.09985339
0.09654215
0.09342981
0.09054236
0.08789455
0.08548548
0.08330299
0.08132839
0.07953971
0.07791516
0.07643609
0.07508858
0.07386401
0.07275953
0.07177763
0.07092514
0.07021167
0.06964713
0.06923908
0.06899454
0.06894076
0.06906834
0.0693544
0.0697697
0.07028006
0.07084774
0.07143427
0.07200472
0.0725298
0.07298539
0.07335502
0.07362866
0.07379849
0.07385789
0.07380168
0.07362708
0.07333411
0.07292567
0.07240761
0.07178783
0.07107167
0.07026525
0.06937618
0.06841362
0.06738825
0.06631227
0.06519906
0.06406256
0.06291721
0.06177738
0.06065681
0.05956807
0.05852221
0.05752869
0.05659546
0.0557291
0.05493487
0.05421688
0.05358086
0.05304478
0.05261005
0.05227592
0.05204021
0.05189881
0.05184583
0.05187293
0.05196933
0.05212198
0.05231688
0.05254
0.05277839
0.05302154
0.05326169
0.05349306
0.05371082
0.05391092
0.05409084
0.05425054
0.05439203
0.05451746
0.05462707
0.05471907
0.0547911
0.05484217
0.05487404
0.05489176
0.05490312
0.0549169
0.05494022
0.05497713
0.05502602
0.05508328
0.05514733
0.05521729
0.05529182
0.05536884
0.05544577
0.05551968
0.05558758
0.05564677
0.05569493
0.0557304
0.05575293
0.05576426
0.05576782
0.05576782
0.05576815
0.0557723
0.05578327
0.05580535
0.05584499
0.05590733
0.05599204
0.05609755
0.05621982
0.05635277
0.05649028
0.05662777
0.056762
0.05688927
0.05700272
0.05709151
0.05714306
0.05714701
0.05709934
0.05700505
0.05687669
0.05672754
0.05656407
0.056384
0.05617921
0.05593933
0.05565421
0.055316
0.05492091
0.05447066
0.05397302
0.05344192
0.05289654
0.0523576
0.05184087
0.05135217
0.05089054
0.05045081
0.05003104
0.04963275
0.04925963
0.04891653
0.04860876
0.0483416
0.04811989
0.04794775
0.04782831
0.04776358
0.04775434
0.04779999
0.0478983
0.04804537
0.0482358
0.04846237
0.04871504
0.04899066
0.04929042
0.04961486
0.04996174
0.05032555
0.05069495
0.05105223
0.05137478
0.05163951
0.0518281
0.05192969
0.05194181
0.05187682
0.05177348
0.05167779
0.05162177
0.05162061
0.0516752
0.05177994
0.05192536
0.05209644
0.05227388
0.0524395
0.05257908
0.05268259
0.05274003
0.05274686
0.05270021
0.05259549
0.05242632
0.05218746
0.0518789
0.05150981
0.05110051
0.05067851
0.05026741
0.04987761
0.04950749
0.04915161
0.04880143
0.04845169
0.04809518
0.04773794
0.04740191
0.0101363
0.01176347
0.01302923
0.01938365
0.02670062
0.03634367
0.0442346
0.05315247
0.0628031
0.07305324
0.08427908
0.09749633
0.111959
0.1280881
0.147366
0.1770762
0.1928883
0.2095154
0.226418
0.2435582
0.2608652
0.2782193
0.2954582
0.3124262
0.3289928
0.3450959
0.3607375
0.3775805
0.3946854
0.4122747
0.4303476
0.4483727
0.4655763
0.4816743
0.4969255
0.5113831
0.5250289
0.5377641
0.5494182
0.5597672
0.5685802
0.5756335
0.5797796
0.5815802
0.5805412
0.5770476
0.5712934
0.563527
0.5540758
0.5433664
0.5318542
0.5199987
0.5080613
0.4964716
0.4854049
0.4749126
0.465052
0.4558887
0.4475016
0.4399883
0.4334305
0.4278543
0.423184
0.4192283
0.4157145
0.4123615
0.4090556
0.4058177
0.4026995
0.3995456
0.3966488
0.3942027
0.392187
0.390379
0.3884882
0.386306
0.3837776
0.3810054
0.3782003
0.3756007
0.3733924
0.3716718
0.3704234
0.3695264
0.3688087
0.3681262
0.3673913
0.3665716
0.3656922
0.3648444
0.364181
0.3638793
0.3640616
0.3647423
0.36578
0.3668612
0.3676643
0.3680275
0.3679958
0.3677735
0.3676626
0.367995
0.3690068
0.3706213
0.3723797
0.3736988
0.3741641
0.3736686
0.3724077
0.3708098
0.3694433
0.3688811
0.3695015
0.371268
0.3736719
0.3759968
0.3776692
0.3784337
0.3783633
0.377795
0.3772078
0.3770303
0.3774135
0.3780563
0.3782611
0.3773218
0.3748765
0.3711208
0.3667389
0.3624219
0.3585831
0.3553098
0.3525575
0.3503095
0.3486829
0.347865
0.3479125
0.3486632
0.3497617
0.3506489
0.3505935
0.348962
0.3455015
0.3404595
0.33455
0.3286094
0.3227815
0.3173157
0.312398
0.30806
0.3041919
0.3006195
0.297163
0.2937518
0.2904326
0.287258
0.284213
0.2812394
0.2782866
0.2753314
0.2723649
0.2693566
0.2662437
0.2629641
0.2594351
0.255564
0.2513343
0.2467567
0.2419019
0.2369118
0.23193
0.2270254
0.2222016
0.2174438
0.2127307
0.2080612
0.2034505
0.1989219
0.1944941
0.1901847
0.1860198
0.1820371
0.1782822
0.1748017
0.1716388
0.1688295
0.1663983
0.1643551
0.1626938
0.1613923
0.1604103
0.1596867
0.1591461
0.1587157
0.1583476
0.1580425
0.1578836
0.1580798
0.1590061
0.1612498
0.1656474
0.1732239
0.1856705
0.2043754
0.2300763
0.2620991
0.297804
0.3333915
0.3660436
0.3949408
0.4206923
0.4441908
0.4661948
0.4879288
0.5100681
0.5317115
0.5520345
0.5721882
0.59299
0.6121439
0.6257944
0.6322813
0.6382576
0.6527933
0.6663992
0.6619309
0.6379707
0.5990836
0.5570968
0.5164557
0.4785068
0.4434889
0.4107731
0.3801105
0.3518035
0.326162
0.3032905
0.2831263
0.2656342
0.2508398
0.2387112
0.2289604
0.2210269
0.2143539
0.2085345
0.2033269
0.198637
0.1944691
0.1908946
0.188036
0.1860306
0.1849605
0.1847854
0.185318
0.1862397
0.1873981
0.1886054
0.1895339
0.1899547
0.1897472
0.1888751
0.1873671
0.185286
0.1827215
0.1797577
0.1764691
0.1729136
0.1691373
0.1651805
0.1610797
0.1568645
0.1525565
0.1481711
0.1437211
0.1392153
0.1346671
0.1301078
0.1255721
0.1210988
0.1167285
0.1125003
0.1084527
0.1046211
0.1010333
0.09770694
0.09465066
0.09186525
0.08934516
0.08708014
0.08505738
0.08326495
0.08169469
0.08034268
0.07920874
0.0782953
0.0776058
0.07714257
0.07690432
0.07688297
0.07706774
0.0774743
0.07806927
0.07881082
0.07965262
0.08054563
0.08144184
0.08229933
0.08308604
0.08377889
0.08436344
0.08482963
0.08516748
0.08536815
0.08542534
0.0853363
0.08510232
0.08472902
0.08422616
0.0836018
0.08286029
0.08201102
0.08106344
0.0800274
0.07891364
0.07773389
0.0765005
0.07522624
0.07392505
0.07261218
0.07130295
0.07001186
0.06875241
0.06753728
0.06637822
0.06528597
0.06427038
0.06334045
0.06250512
0.06177915
0.0611694
0.06067755
0.06030263
0.06004046
0.05988344
0.05982049
0.05983736
0.05991764
0.06004447
0.06020258
0.06037993
0.06056832
0.06076262
0.06095895
0.06115333
0.0613421
0.06152379
0.06170029
0.06187505
0.06204936
0.0622202
0.06238192
0.06252976
0.06266241
0.06278315
0.06290012
0.06302482
0.06316853
0.06333603
0.06351816
0.06370988
0.06390968
0.06411564
0.06432498
0.06453368
0.06473634
0.06492636
0.0650961
0.06523807
0.0653468
0.06541957
0.06545624
0.06545985
0.06543767
0.06540054
0.06536008
0.06532558
0.06530242
0.06529298
0.06529881
0.0653222
0.06537058
0.06545479
0.06556802
0.0656996
0.0658365
0.06596758
0.06608626
0.06618957
0.06627444
0.06633258
0.06634846
0.06630413
0.06618689
0.06599541
0.06574318
0.06545568
0.06515749
0.06485862
0.06455362
0.06422952
0.06387202
0.06346841
0.06300975
0.06249258
0.06192247
0.06131205
0.06067993
0.06005033
0.05944899
0.0588929
0.05838176
0.05790424
0.05744936
0.05701404
0.05660165
0.05621844
0.05587158
0.05556845
0.05531592
0.05511988
0.05498497
0.05491437
0.05490973
0.05497102
0.05509632
0.05528153
0.05551999
0.05580219
0.05611633
0.05645079
0.05679818
0.05715616
0.05752801
0.05791688
0.05831757
0.05871582
0.05909133
0.05941283
0.05964931
0.05977816
0.05978805
0.0596785
0.0594694
0.05922163
0.05901292
0.05889561
0.05887833
0.05894431
0.05906863
0.0592265
0.05939461
0.05954907
0.05967129
0.05975033
0.05977895
0.0597542
0.05967806
0.0595509
0.05936836
0.0591228
0.05880769
0.05842267
0.05797927
0.05750525
0.05703839
0.05660675
0.05621461
0.0558488
0.05549656
0.05514158
0.0547754
0.05439346
0.05400705
0.05364371
0.002514986
0.009756906
0.01450254
0.01999844
0.02610489
0.03307227
0.04099713
0.04967438
0.05937248
0.07103575
0.08862252
0.09916143
0.110572
0.1225561
0.1351646
0.1483333
0.1619898
0.1760111
0.1902203
0.2044782
0.2187657
0.2348889
0.2512384
0.2676331
0.283955
0.3001443
0.3161006
0.3318219
0.3472122
0.3621886
0.3769228
0.3915673
0.406517
0.4214323
0.4363845
0.4513226
0.4658439
0.4797185
0.4930397
0.5057898
0.5179083
0.5292542
0.53961
0.5485306
0.5556983
0.5602938
0.5619726
0.5605296
0.5562651
0.5491775
0.5395649
0.5278609
0.5145328
0.5000628
0.4849742
0.4697704
0.4549371
0.4408782
0.4278969
0.4161889
0.4058014
0.3966861
0.3887632
0.3819963
0.3764314
0.3721623
0.3692591
0.3676469
0.3669855
0.3667856
0.3665688
0.3658844
0.3646341
0.3632133
0.3620199
0.3615112
0.3619371
0.363156
0.3647024
0.3660688
0.3669381
0.3672598
0.3672289
0.3671941
0.3675217
0.3684769
0.3701653
0.3724988
0.3752109
0.3779748
0.3805299
0.382733
0.3845999
0.3862986
0.3881149
0.3903946
0.3934407
0.3974032
0.4021421
0.4071011
0.411475
0.414686
0.4166875
0.4178983
0.4189862
0.4206892
0.4236707
0.4282209
0.4338444
0.439274
0.4432278
0.4450301