/*--------------------------------*- C++ -*----------------------------------*\
| =========                 |                                                 |
| \\      /  F ield         | foam-extend: Open Source CFD                    |
|  \\    /   O peration     | Version:     3.1                                |
|   \\  /    A nd           | Web:         http://www.extend-project.de       |
|    \\/     M anipulation  |                                                 |
\*---------------------------------------------------------------------------*/
FoamFile
{
    version     2.0;
    format      ascii;
    class       surfaceScalarField;
    location    "18.5";
    object      phi;
}
// * * * * * * * * * * * * * * * * * * * * * * * * * * * * * * * * * * * * * //

dimensions      [0 3 -1 0 0 0 0];

internalField   nonuniform List<scalar> 
275122
(
-0.0003727507
0.0003773595
-3.643864e-07
-4.244443e-06
-0.00033151
0.0003157828
1.27539e-06
1.445178e-05
-0.0003266388
0.0003344065
-3.48976e-07
-7.418727e-06
-0.0003603516
0.0003693307
-4.717497e-07
-8.507334e-06
-0.000391419
0.0003936879
-5.29765e-07
-1.739167e-06
-0.0003914059
0.0003900599
-4.430781e-07
1.78906e-06
-0.0003846868
0.0003826583
-4.499472e-07
2.478503e-06
-0.000375992
0.0003735261
-4.148479e-07
2.880766e-06
-0.000366184
0.000363696
-3.677817e-07
2.855762e-06
-0.0003561845
0.0003536417
-3.346247e-07
2.877448e-06
-0.0003459968
0.00034344
-3.032573e-07
2.860075e-06
-0.0003357353
0.0003331681
-2.669822e-07
2.834173e-06
-0.0003254526
0.0003228507
-2.316542e-07
2.833461e-06
-0.0003151223
0.0003124721
-1.999373e-07
2.85011e-06
-0.0003046955
0.0003019968
-1.694282e-07
2.868194e-06
-0.000294111
0.0002913548
-1.398614e-07
2.896034e-06
-0.0002833006
0.0002804752
-1.111822e-07
2.936598e-06
-0.000272207
0.0002693178
-8.391847e-08
2.97308e-06
-0.0002611199
0.0002584133
-1.048602e-07
2.811487e-06
-0.0002524286
0.0002518646
-4.409775e-07
1.005065e-06
-0.0002749267
0.0002846125
-1.019508e-06
-8.666335e-06
-0.0002831823
0.0002811747
-1.449321e-07
2.15251e-06
-0.0002777366
0.0002777671
-7.885585e-08
4.838579e-08
-0.0003019938
0.0003110011
3.962658e-07
-9.40363e-06
-0.0003056469
0.0003028076
5.114015e-07
2.327873e-06
-0.0002988332
0.0002973289
-1.731456e-07
1.677503e-06
-0.0002927737
0.000290364
-1.961542e-07
2.605863e-06
-0.0002836259
0.0002798809
-2.021543e-07
3.947154e-06
-0.0002607349
0.0002431937
-2.741305e-07
1.781528e-05
-0.000225713
0.000231619
4.085878e-09
-5.910087e-06
-0.0002649316
0.0002784858
-7.005056e-08
-1.348414e-05
-0.000316981
0.0003297708
8.195595e-09
-1.279801e-05
-0.0003688104
0.0003820168
9.275711e-09
-1.321569e-05
-0.0004220498
0.0004355224
1.031e-08
-1.34829e-05
-0.0004766764
0.0004906112
1.56197e-08
-1.395042e-05
-0.0005330341
0.0005473624
1.096038e-08
-1.433926e-05
-0.0005908029
0.0006054649
1.014962e-08
-1.467218e-05
-0.0006497721
0.0006646714
1.070217e-08
-1.491002e-05
-0.0007093863
0.0007243746
5.010335e-09
-1.499335e-05
-0.0007687161
0.0007848648
2.323558e-07
-1.638106e-05
1.28641e-05
-0.0005333977
0.000535573
1.017746e-09
-1.504041e-05
1.313214e-05
-0.0005418877
0.0005437818
-6.157969e-10
-1.502562e-05
1.338307e-05
-0.0005490871
0.0005507071
-1.488539e-09
-1.500153e-05
1.359903e-05
-0.0005553057
0.0005566978
-1.88073e-09
-1.498923e-05
1.389978e-05
-0.0005603973
0.0005614874
-2.380024e-09
-1.498747e-05
1.413092e-05
-0.000564397
0.0005652842
-1.846853e-09
-1.501623e-05
1.429457e-05
-0.0005676383
0.0005683481
-1.71943e-09
-1.500271e-05
1.437542e-05
-0.0005703026
0.0005709029
-1.647101e-09
-1.497405e-05
1.470141e-05
-0.0005723598
0.0005718778
-9.691427e-10
-1.42185e-05
1.272925e-05
-0.002328573
0.00233678
2.193425e-11
-5.888096e-05
1.267579e-05
1.26742e-05
1.259503e-05
1.38183e-05
-0.002340853
0.002343443
-4.157199e-11
-5.873513e-05
1.42883e-05
1.378876e-05
1.424989e-05
1.401239e-05
-0.002345251
0.002346575
-3.568351e-11
-5.783755e-05
1.427614e-05
1.39788e-05
1.424721e-05
1.405448e-05
-0.00234789
0.002348962
5.882887e-14
-5.753575e-05
1.420876e-05
1.402216e-05
1.417895e-05
1.411704e-05
-0.002349876
0.002350401
6.081708e-11
-5.720927e-05
1.42539e-05
1.408871e-05
1.422481e-05
1.417685e-05
-0.002350761
0.002350869
-2.643735e-10
-5.698677e-05
1.428384e-05
1.415935e-05
1.425952e-05
1.418522e-05
-0.002350952
0.002350861
2.164427e-10
-5.678276e-05
1.428159e-05
1.415562e-05
1.425188e-05
1.41677e-05
-0.002350751
0.002350506
2.322202e-10
-5.643838e-05
1.420253e-05
1.413705e-05
1.417547e-05
1.416822e-05
-0.002350623
0.002350747
1.664153e-10
-5.695376e-05
1.426838e-05
1.414497e-05
1.42472e-05
1.377166e-05
-0.002349073
0.002349911
6.019509e-11
-5.579957e-05
1.372944e-05
1.374399e-05
1.371666e-05
1.432611e-05
-0.002350984
0.002350736
1.447234e-11
-5.719691e-05
1.440782e-05
1.431558e-05
1.439455e-05
1.412194e-05
-0.002350839
0.002350513
-2.95506e-11
-5.591617e-05
1.400587e-05
1.411503e-05
1.399902e-05
1.403357e-05
-0.002350243
0.002350215
-2.987341e-11
-5.591861e-05
1.394695e-05
1.402604e-05
1.393995e-05
1.390412e-05
-0.002350183
0.002350046
-2.221333e-11
-5.532128e-05
1.383148e-05
1.389671e-05
1.382604e-05
1.375151e-05
-0.002349891
0.002349625
-2.585816e-11
-5.458728e-05
1.368699e-05
1.373896e-05
1.3676e-05
1.364608e-05
-0.002349249
0.002348429
3.50835e-12
-5.3596e-05
1.359089e-05
1.3614e-05
1.356476e-05
1.360928e-05
-0.002347435
0.002345804
2.977998e-11
-5.244482e-05
1.366253e-05
1.338848e-05
1.34157e-05
1.440462e-05
-0.002343578
0.002339337
1.042271e-10
-5.211278e-05
1.470443e-05
1.352921e-05
1.371624e-05
1.861579e-05
-0.002330018
0.002310572
9.95176e-11
-5.033804e-05
1.981201e-05
1.605087e-05
1.530532e-05
1.672486e-05
-0.00228667
0.002304325
1.463086e-11
-3.437952e-05
1.038361e-05
-0.002316458
0.002316354
-4.712889e-13
-1.027945e-05
2.854297e-05
-0.002305549
0.002296037
1.578876e-11
-1.903155e-05
2.191362e-05
-0.002289488
0.002282595
6.485526e-11
-1.502044e-05
6.487641e-06
-0.002275206
0.002271881
1.546965e-10
-3.162985e-06
-6.988323e-06
-0.002270227
0.002268514
2.973377e-10
8.701879e-06
-1.172669e-05
-0.002266194
0.002263549
4.421973e-10
1.437155e-05
-1.409014e-05
-0.002260731
0.002257634
3.09961e-10
1.71872e-05
-1.566526e-05
-0.002254364
0.002250869
1.66329e-10
1.915989e-05
-1.672754e-05
-0.002247163
0.00224334
7.575637e-11
2.055075e-05
-1.750124e-05
-0.002239346
0.002235283
2.193505e-11
2.156394e-05
-1.809123e-05
-0.002231024
0.002226738
-2.103242e-13
2.237657e-05
-1.866986e-05
-0.002222226
0.002217746
-8.603372e-12
2.314971e-05
-1.931054e-05
-0.00221297
0.002208318
-1.355562e-11
2.396191e-05
-2.008565e-05
-0.002203274
0.002198464
-1.743308e-11
2.489545e-05
-2.10815e-05
-0.002193124
0.002188141
-1.978469e-11
2.606485e-05
-2.230256e-05
-0.002182434
0.002177209
-2.099321e-11
2.752811e-05
-2.344788e-05
-0.00217102
0.002165396
-2.200379e-11
2.907166e-05
-2.346808e-05
-0.002158402
0.002151581
-2.349533e-11
3.028915e-05
-2.27662e-05
-0.002143104
0.002135103
-2.423201e-11
3.076787e-05
-1.538777e-05
-0.002122084
0.002108079
-2.57414e-11
2.939254e-05
-2.495398e-05
-0.002097224
0.002088497
-2.932907e-11
3.368117e-05
-1.79637e-05
-0.002076387
0.002061912
-3.084293e-11
3.243876e-05
-4.553008e-06
-0.002035505
0.00201186
-3.17759e-11
2.819774e-05
-2.215384e-05
-0.001991555
0.001975147
-2.802882e-11
3.856277e-05
-3.593766e-05
-0.001960229
0.001943179
-1.87023e-11
5.298774e-05
-4.408037e-05
-0.001924101
0.001905848
-5.314387e-12
6.233299e-05
-5.863695e-05
-0.001887399
0.001873269
9.294851e-12
7.276761e-05
-8.456615e-05
-0.001857012
0.001854146
2.229745e-11
8.743205e-05
-1.823526e-05
-0.001855558
0.001838579
3.757691e-11
8.126008e-05
-1.406787e-05
-1.814393e-05
-1.383412e-05
-1.074206e-05
-0.001815743
0.00179782
3.822362e-11
6.030882e-05
-1.078057e-05
-1.042498e-05
-1.043832e-05
-9.270405e-06
-0.00178065
0.001762715
3.289482e-11
5.377053e-05
-8.906339e-06
-9.000824e-06
-8.657696e-06
-7.672161e-06
-0.001744497
0.001727023
2.531016e-11
4.732555e-05
-7.440679e-06
-7.475723e-06
-7.262815e-06
-6.749926e-06
-0.001710331
0.001694601
1.525115e-11
4.224808e-05
-6.647522e-06
-6.607353e-06
-6.51289e-06
-6.053979e-06
-0.001679516
0.001665199
4.544804e-12
3.807958e-05
-5.928628e-06
-5.947807e-06
-5.832069e-06
-5.422754e-06
-0.001651448
0.001638536
-5.103287e-12
3.427945e-05
-5.347393e-06
-5.335525e-06
-5.262153e-06
-5.030307e-06
-0.001626202
0.001614628
-1.385651e-11
3.143156e-05
-4.972894e-06
-4.953457e-06
-4.900395e-06
-4.784943e-06
-0.001603502
0.001593074
-1.938165e-11
2.939618e-05
-4.783285e-06
-4.70344e-06
-4.697195e-06
-4.790541e-06
-0.001583032
0.00157356
-1.904191e-11
2.846047e-05
-4.82551e-06
-4.675894e-06
-4.69644e-06
-5.096966e-06
-0.001564395
0.00155574
-1.21944e-11
2.879142e-05
-5.198541e-06
-4.882985e-06
-4.958156e-06
-5.80002e-06
-0.001547351
0.001539482
-1.526975e-12
3.057486e-05
-6.003471e-06
-5.379147e-06
-5.523305e-06
-7.032419e-06
-0.001532003
0.001525185
8.550216e-12
3.410185e-05
-7.380876e-06
-6.317576e-06
-6.552716e-06
-8.669876e-06
-0.00151904
0.001513694
4.158696e-12
3.889447e-05
-9.038148e-06
-7.7721e-06
-8.068273e-06
-9.519482e-06
-0.001509009
0.00150473
-1.689502e-11
4.192396e-05
-9.426434e-06
-9.224575e-06
-9.474483e-06
-8.181262e-06
-0.001500308
0.001495108
-3.40697e-11
3.913199e-05
-7.662886e-06
-9.208721e-06
-8.879765e-06
-5.510776e-06
-0.001488408
0.001480134
-4.079476e-11
3.129384e-05
-4.971838e-06
-6.605768e-06
-5.93124e-06
-3.420757e-06
-0.001470382
0.001459978
-3.481175e-11
2.418722e-05
-3.182671e-06
-3.778005e-06
-3.401793e-06
-2.345745e-06
-0.001449222
0.001438634
-1.924418e-11
1.979638e-05
-2.232103e-06
-2.384219e-06
-2.246192e-06
-1.772685e-06
-0.001428158
0.001418124
-2.863285e-12
1.700468e-05
-1.716547e-06
-1.769321e-06
-1.711576e-06
-1.401447e-06
-0.001408366
0.001399201
1.598652e-11
1.468297e-05
-1.363049e-06
-1.395862e-06
-1.357807e-06
-1.012581e-06
-0.001390469
0.001382538
2.674672e-11
1.186008e-05
-9.565924e-07
-1.007442e-06
-9.524462e-07
-4.546346e-07
-0.001375244
0.001369097
2.272935e-11
7.789313e-06
-3.725346e-07
-4.479587e-07
-3.67644e-07
2.77244e-07
-0.001363871
0.001360125
3.360331e-12
2.392344e-06
3.89852e-07
2.874379e-07
3.98987e-07
1.162567e-06
-0.001357554
0.001356937
-3.294591e-11
-4.372332e-06
1.328603e-06
1.166578e-06
1.332158e-06
2.323227e-06
0.001360416
-6.09299e-11
-1.249021e-05
2.51052e-06
2.322011e-06
2.511852e-06
-0.001357594
3.580622e-06
-0.001364615
0.00137111
-6.659684e-11
-2.120466e-05
3.769817e-06
3.584482e-06
3.774756e-06
4.78112e-06
-0.001379012
0.001389287
-5.59766e-11
-2.973851e-05
4.941921e-06
4.790035e-06
4.95064e-06
5.805824e-06
-0.001400975
0.001415122
-3.970372e-11
-3.764e-05
5.932785e-06
5.814005e-06
5.94045e-06
6.716838e-06
-0.001430652
0.001448529
-2.318543e-11
-4.498617e-05
6.836138e-06
6.718478e-06
6.837405e-06
7.555994e-06
-0.001467629
0.001488862
-8.301576e-12
-5.165492e-05
7.655798e-06
7.555657e-06
7.655257e-06
8.264652e-06
-0.001511151
0.001535326
2.425958e-12
-5.738669e-05
8.343056e-06
8.262574e-06
8.340748e-06
8.870818e-06
-0.001560438
0.001587151
8.792707e-12
-6.230859e-05
8.93068e-06
8.867224e-06
8.926892e-06
9.334426e-06
-0.001614714
0.001643536
1.122897e-11
-6.62058e-05
9.362455e-06
9.329629e-06
9.357484e-06
9.644667e-06
-0.001673116
0.00170359
1.020944e-11
-6.905843e-05
9.653248e-06
9.63895e-06
9.64744e-06
9.789608e-06
-0.001734614
0.001766121
6.217863e-12
-7.060331e-05
9.765136e-06
9.783315e-06
9.758834e-06
9.649794e-06
-0.001797902
0.001829658
-2.002684e-13
-7.020215e-05
9.580501e-06
9.642965e-06
9.573611e-06
9.211471e-06
-0.001861317
0.001892349
-6.442726e-12
-6.764657e-05
9.102937e-06
9.204479e-06
9.095992e-06
8.467898e-06
-0.001922898
0.001952231
-1.252625e-11
-6.288849e-05
8.31664e-06
8.460953e-06
8.309801e-06
7.451501e-06
-0.00198082
0.00200789
-1.784197e-11
-5.648411e-05
7.26207e-06
7.444743e-06
7.255539e-06
6.203337e-06
-0.002034132
0.00205867
-2.250389e-11
-4.893195e-05
5.999354e-06
6.197351e-06
5.993575e-06
4.935041e-06
-0.0020822
0.002103809
-2.579875e-11
-4.092271e-05
4.727499e-06
4.929513e-06
4.722204e-06
3.640268e-06
-0.002124303
0.002142753
-2.753525e-11
-3.258123e-05
3.430228e-06
3.634843e-06
3.425261e-06
2.366922e-06
-0.002159995
0.002175187
-2.725002e-11
-2.42341e-05
2.159591e-06
2.361562e-06
2.154747e-06
1.14514e-06
-0.00218923
0.002201392
-2.53208e-11
-1.638864e-05
9.721703e-07
1.140949e-06
9.686867e-07
8.343171e-08
-0.00221246
0.002221812
-2.160333e-11
-9.388789e-06
-6.297876e-08
8.172415e-08
-6.555086e-08
-8.354367e-07
-0.002230187
0.002236982
-1.625123e-11
-3.176936e-06
-9.709431e-07
-8.37862e-07
-9.73382e-07
-1.666158e-06
-0.002242872
0.002247352
-9.152179e-12
2.440045e-06
-1.792004e-06
-1.668218e-06
-1.794287e-06
-2.358141e-06
-0.002251123
0.002253691
1.563441e-12
7.055016e-06
-2.452062e-06
-2.359638e-06
-2.452972e-06
-2.815647e-06
-0.00225528
0.002255718
2.913787e-11
1.096554e-05
-2.883201e-06
-2.818007e-06
-2.88698e-06
-3.268539e-06
-0.002255775
0.002253323
5.018804e-11
1.53558e-05
-3.18864e-06
-3.260724e-06
-3.185175e-06
-4.912227e-06
-0.002252097
0.002249279
8.211605e-11
2.328763e-05
-5.333577e-06
-4.903312e-06
-5.320251e-06
-6.401384e-06
-0.002244575
0.002237064
1.562035e-10
3.324464e-05
-6.518418e-06
-6.329503e-06
-6.484231e-06
-8.359366e-06
-0.002228186
0.002217698
3.342335e-10
4.439962e-05
-8.810991e-06
-8.147794e-06
-8.594087e-06
-1.181048e-05
-0.002204792
0.002189174
6.161809e-10
6.235109e-05
-1.227606e-05
-1.109689e-05
-1.155033e-05
-1.724357e-05
-0.002171746
0.00215358
1.288668e-09
8.599789e-05
-1.871402e-05
-1.537458e-05
-1.650106e-05
-2.692888e-05
-0.002136431
0.002122044
1.507017e-09
0.0001205835
-2.881888e-05
-2.427815e-05
-2.617222e-05
-3.066306e-05
-0.002109309
0.002093511
5.357704e-10
0.0001377473
-2.986963e-05
-3.066015e-05
-3.075662e-05
-2.23105e-05
-0.002067803
0.002031743
3.257032e-10
0.0001248604
-2.030122e-05
-2.404727e-05
-2.21417e-05
-1.287037e-05
-0.001984112
0.001924373
1.651133e-09
0.0001107725
-1.137745e-05
-1.428865e-05
-1.249847e-05
-7.26592e-06
-0.001851737
0.001770503
2.78114e-09
0.0001106991
-6.93485e-06
-7.843675e-06
-7.424056e-06
-7.242091e-06
-0.001689091
0.001612877
8.874476e-10
0.0001069491
-7.72854e-06
-7.642561e-06
-8.122952e-06
-9.43088e-06
-0.001546521
0.001488297
-1.38012e-09
9.685536e-05
-9.69037e-06
-9.640385e-06
-9.868172e-06
-9.590706e-06
-0.001437803
0.001393357
-2.470087e-09
8.246595e-05
-9.372343e-06
-9.643461e-06
-9.41084e-06
-7.396435e-06
-0.001354857
0.001323405
-2.458705e-09
6.00723e-05
-6.907346e-06
-7.403226e-06
-6.910289e-06
-3.890573e-06
-0.00129832
0.001281291
-1.888764e-09
3.157421e-05
-3.381387e-06
-3.890297e-06
-3.380245e-06
-5.894429e-07
-0.001270608
0.001266945
-1.240865e-09
5.366286e-06
-2.620234e-07
-5.889802e-07
-2.61418e-07
1.679342e-06
-0.001267427
0.001272446
-7.322302e-10
-1.219297e-05
1.908483e-06
1.67894e-06
1.907971e-06
2.873198e-06
-0.001279855
0.001290008
-3.721191e-10
-2.179433e-05
2.948985e-06
2.872114e-06
2.947863e-06
3.171069e-06
-0.001301241
0.001313492
-1.442063e-10
-2.49365e-05
3.172854e-06
3.16999e-06
3.171759e-06
2.910658e-06
-0.001325855
0.001338332
-2.170082e-11
-2.397825e-05
2.840918e-06
2.909734e-06
2.840136e-06
2.274752e-06
-0.001350592
0.001362576
3.353724e-11
-2.088546e-05
2.176261e-06
2.274317e-06
2.17579e-06
1.59735e-06
-0.001374214
0.001385479
5.021628e-11
-1.746953e-05
1.505131e-06
1.597024e-06
1.504789e-06
1.158421e-06
-0.001396317
0.001406605
4.225282e-11
-1.485342e-05
1.124654e-06
1.158253e-06
1.124524e-06
8.876931e-07
-0.001416489
0.001426014
2.755617e-11
-1.30157e-05
8.575884e-07
8.875748e-07
8.575652e-07
6.627491e-07
0.001444323
1.101183e-11
-1.163708e-05
-0.001435282
6.356421e-07
6.627394e-07
6.354727e-07
4.633872e-07
-0.001453179
0.001461875
-2.03608e-12
-1.050086e-05
4.391589e-07
4.632164e-07
4.388818e-07
2.998337e-07
-0.001470447
0.001478938
-1.04862e-11
-9.654119e-06
2.817643e-07
2.995445e-07
2.815569e-07
1.768947e-07
-0.001487383
0.00149582
-1.789019e-11
-9.117557e-06
1.636082e-07
1.767493e-07
1.63424e-07
7.714591e-08
-0.00150428
0.001512767
-2.393367e-11
-8.772812e-06
6.594903e-08
7.708196e-08
6.583123e-08
-3.519841e-08
-0.001521289
0.001529818
-2.531361e-11
-8.357658e-06
-5.033067e-08
-3.521373e-08
-5.048152e-08
-2.141207e-07
-0.001538364
0.001546751
-2.789299e-11
-7.489319e-06
-2.345821e-07
-2.14172e-07
-2.348001e-07
-4.603239e-07
-0.001555033
0.001563005
-2.809476e-11
-6.075421e-06
-4.875309e-07
-4.605446e-07
-4.874542e-07
-7.442966e-07
-0.001570775
0.001578044
-2.619593e-11
-4.245399e-06
-7.671517e-07
-7.442397e-07
-7.677904e-07
-1.112602e-06
-0.001584953
0.001591204
-2.074419e-11
-1.670477e-06
-1.183511e-06
-1.106733e-06
-1.178394e-06
-1.719273e-06
-0.001597044
0.001602134
-1.312132e-11
1.929951e-06
-1.795324e-06
-1.715008e-06
-1.790778e-06
-2.426687e-06
-0.001606627
0.001610096
4.327115e-12
6.410908e-06
-2.527477e-06
-2.413147e-06
-2.512647e-06
-3.305523e-06
-0.001612875
0.001614657
3.866579e-11
1.165166e-05
-3.452432e-06
-3.268508e-06
-3.407488e-06
-4.396781e-06
-0.00161577
0.001615897
9.103663e-11
1.770605e-05
-4.611249e-06
-4.315234e-06
-4.509922e-06
-5.856079e-06
-0.00161543
0.00161407
1.350151e-10
2.507411e-05
-6.060352e-06
-5.791893e-06
-6.005595e-06
-6.133186e-06
-0.001612167
0.001608848
7.077404e-11
2.76833e-05
-6.01762e-06
-6.152408e-06
-6.061446e-06
-4.849247e-06
-0.001603432
0.001595867
1.325477e-12
2.655613e-05
-4.582636e-06
-4.909474e-06
-4.649725e-06
-3.500513e-06
-0.001586731
0.001576479
-1.186147e-11
2.395991e-05
-3.304147e-06
-3.554621e-06
-3.348972e-06
-2.90187e-06
-0.0015652
0.001553439
-1.433651e-12
2.334031e-05
-2.861211e-06
-2.930274e-06
-2.886346e-06
-2.835238e-06
-0.001541187
0.001528864
1.21536e-11
2.371281e-05
-2.841735e-06
-2.854287e-06
-2.858056e-06
-2.983942e-06
-0.001516219
0.001503748
2.704326e-11
2.446359e-05
-3.001819e-06
-2.995375e-06
-3.011811e-06
-3.162226e-06
-0.001490959
0.001478507
4.231347e-11
2.512475e-05
-3.167099e-06
-3.169299e-06
-3.173771e-06
-3.273984e-06
-0.001465639
0.001453296
5.736583e-11
2.541965e-05
-3.259836e-06
-3.280009e-06
-3.262953e-06
-3.244785e-06
-0.001440434
0.00142851
6.694338e-11
2.491014e-05
-3.249113e-06
-3.25053e-06
-3.241771e-06
-2.774455e-06
-0.001415659
0.001400051
6.242735e-11
2.534213e-05
-2.119517e-06
-2.751304e-06
-2.088651e-06
-1.896213e-06
-0.0003441832
0.0003409712
-3.284499e-09
5.111508e-06
-2.888878e-06
-0.0003337656
0.000331462
-2.728566e-09
5.195255e-06
-2.714176e-06
-0.0003250887
0.0003231354
-1.571554e-09
4.669014e-06
-2.638949e-06
-0.0003178205
0.0003162103
-1.338092e-09
4.250511e-06
-2.494933e-06
-0.000311771
0.0003104275
-8.213722e-10
3.839242e-06
-2.327831e-06
-0.0003067565
0.0003056509
-5.223492e-10
3.433993e-06
-2.156801e-06
-0.0003026413
0.0003017372
-5.267829e-10
3.061376e-06
-2.000606e-06
-0.0002992651
0.0002985221
-3.427313e-10
2.743934e-06
-1.858368e-06
-0.0002964821
0.0002958648
2.42977e-10
2.475477e-06
-1.742168e-06
-0.0002941573
0.0002936402
1.091918e-09
2.258189e-06
-1.654898e-06
-0.0002922147
0.0002917856
-2.00427e-10
2.084239e-06
-1.568665e-06
-0.0002906074
0.000290256
-1.348706e-09
1.921458e-06
-1.486489e-06
-0.0002893017
0.000289023
-8.179723e-10
1.765976e-06
-1.409302e-06
-0.0002882847
0.0002880775
-2.353179e-10
1.616772e-06
-1.331131e-06
-0.0002875522
0.0002874149
-2.638906e-11
1.468431e-06
-1.26546e-06
-0.0002870984
0.0002870353
3.535881e-11
1.328609e-06
-1.204056e-06
-0.0002869486
0.0002869602
1.058786e-10
1.192306e-06
-1.141147e-06
-0.0002870975
0.0002871836
5.888346e-11
1.054992e-06
-1.083497e-06
-0.0002875438
0.0002877032
-2.230328e-10
9.243386e-07
-1.034267e-06
-0.0002882795
0.0002885089
-5.938696e-10
8.055212e-07
-9.952374e-07
-0.0002892881
0.0002895819
-7.475965e-10
7.021829e-07
-9.669683e-07
-0.0002905465
0.0002908989
-6.353077e-10
6.152039e-07
-9.494606e-07
-0.00029203
0.0002924337
-3.944156e-10
5.46127e-07
-9.43355e-07
-0.0002937061
0.0002941524
-1.838018e-10
4.973097e-07
-9.481762e-07
-0.0002955433
0.0002960233
-5.428356e-11
4.68265e-07
-9.639999e-07
-0.0002975008
0.0002980051
1.328212e-11
4.596369e-07
-9.89679e-07
-0.0002995426
0.0003000619
3.330987e-11
4.703406e-07
-1.024484e-06
-0.0003016299
0.0003021537
4.371578e-11
5.006388e-07
-1.06743e-06
-0.0003037209
0.0003042392
6.316195e-11
5.490606e-07
-1.117653e-06
-0.000305774
0.0003062752
9.292643e-11
6.163667e-07
-1.172015e-06
-0.0003077413
0.0003082152
1.351638e-10
6.979019e-07
-1.227468e-06
-0.0003095879
0.0003100291
1.864573e-10
7.861813e-07
-1.284332e-06
-0.0003112863
0.0003116892
2.764119e-10
8.810877e-07
-1.316979e-06
-0.0003128383
0.0003131858
4.338928e-10
9.690991e-07
-1.315989e-06
-0.0003142826
0.0003146924
3.883357e-10
9.057879e-07
1.166945e-07
-0.0003158997
0.0003158376
6.013232e-10
-5.527899e-08
8.518318e-07
-0.0003154609
0.0003154299
5.516123e-10
-8.21341e-07
8.791142e-07
-0.0003151202
0.0003149952
6.016534e-10
-7.546713e-07
8.222177e-07
-0.0003145528
0.0003143713
5.025569e-10
-6.412713e-07
7.724777e-07
-0.0003137169
0.0003134554
2.303363e-10
-5.111605e-07
7.600016e-07
-0.0003125685
0.0003122356
-1.01611e-10
-4.269544e-07
7.910541e-07
-0.0003111513
0.0003107588
-3.484541e-10
-3.981701e-07
8.468947e-07
-0.0003095138
0.000309076
-4.638137e-10
-4.086685e-07
9.09282e-07
-0.0003077171
0.000307249
-4.742088e-10
-4.407496e-07
9.659022e-07
-0.000305816
0.0003053293
-4.250261e-10
-4.786861e-07
1.013815e-06
-0.0003038538
0.0003033573
-3.028243e-10
-5.170303e-07
1.053492e-06
-0.0003018667
0.00030137
-2.665722e-10
-5.565708e-07
1.087747e-06
-0.00029989
0.0002994018
-2.138851e-10
-5.993502e-07
1.118899e-06
-0.0002979597
0.0002974897
-1.673812e-10
-6.486644e-07
1.149025e-06
-0.0002961173
0.0002956761
-1.497808e-10
-7.077173e-07
1.181085e-06
-0.0002943997
0.0002939925
-1.511392e-10
-7.737715e-07
1.225044e-06
-0.0002928173
0.0002924461
-1.644221e-10
-8.536846e-07
1.26207e-06
-0.0002914393
0.0002911399
-1.780324e-10
-9.625517e-07
1.336284e-06
-0.0002902971
0.0002900461
-1.738351e-10
-1.085091e-06
1.396645e-06
-0.0002893812
0.0002891939
-1.632763e-10
-1.209175e-06
1.458346e-06
-0.0002887236
0.0002886014
-1.560378e-10
-1.336037e-06
1.521934e-06
-0.0002883263
0.0002882709
-1.42967e-10
-1.466395e-06
1.582447e-06
-0.0002881901
0.0002881996
-1.157048e-10
-1.591831e-06
1.631188e-06
-0.0002883183
0.0002883983
-8.242815e-11
-1.711126e-06
1.687638e-06
-0.0002887226
0.0002888682
-5.45626e-11
-1.833221e-06
1.751782e-06
-0.0002893802
0.000289586
-3.890777e-11
-1.957493e-06
1.817145e-06
-0.0002902695
0.0002905297
-2.131198e-11
-2.077413e-06
1.880401e-06
-0.0002913693
0.0002916789
4.905423e-12
-2.190054e-06
1.940471e-06
-0.0002926592
0.0002930133
2.595743e-11
-2.294528e-06
1.996603e-06
-0.0002941197
0.0002945133
4.308749e-11
-2.390277e-06
2.048198e-06
-0.0002957316
0.00029616
5.438484e-11
-2.476704e-06
2.095116e-06
-0.0002974764
0.0002979348
6.071666e-11
-2.55359e-06
2.155765e-06
-0.0002993307
0.000299802
8.989541e-11
-2.627175e-06
2.143668e-06
-0.0003012208
0.0003017456
-2.264027e-10
-2.668161e-06
2.185978e-06
-0.0003034143
0.0003039562
2.747546e-10
-2.728219e-06
3.008106e-06
-0.0003031007
0.001244983
-2.352435e-11
-1.256575e-05
6.827867e-07
3.010968e-06
6.668772e-07
-0.0003031043
-0.0003167901
-0.0003167909
1.553037e-06
-0.001253563
0.001258676
1.058074e-11
-1.231052e-05
2.067833e-06
1.529262e-06
2.047163e-06
1.858788e-06
-0.001262847
0.001266785
1.968971e-11
-1.1594e-05
1.986951e-06
1.840621e-06
1.969666e-06
1.876369e-06
-0.001271195
0.001275691
2.013732e-11
-1.210137e-05
1.94241e-06
1.860027e-06
1.926377e-06
1.914552e-06
-0.001280312
0.001284677
1.883117e-11
-1.212017e-05
1.978667e-06
1.899204e-06
1.963422e-06
1.936218e-06
-0.001288896
0.001292886
1.743482e-11
-1.179677e-05
1.981816e-06
1.921483e-06
1.967432e-06
1.897274e-06
-0.00129683
0.001300651
1.67456e-11
-1.14179e-05
1.915764e-06
1.882226e-06
1.901458e-06
1.838296e-06
-0.001304434
0.001308058
1.64147e-11
-1.096381e-05
1.845108e-06
1.823977e-06
1.832208e-06
1.777388e-06
-0.001311597
0.001314951
1.580005e-11
-1.044535e-05
1.780877e-06
1.764383e-06
1.76826e-06
1.715094e-06
-0.001318212
0.001321289
1.510373e-11
-9.914055e-06
1.715373e-06
1.703151e-06
1.702946e-06
1.651328e-06
-0.001324274
0.001327069
1.455286e-11
-9.367005e-06
1.646587e-06
1.638841e-06
1.634684e-06
1.589024e-06
-0.001329755
0.00133224
1.345687e-11
-8.806689e-06
1.583717e-06
1.576993e-06
1.571988e-06
1.533571e-06
-0.001334606
0.001336771
1.172306e-11
-8.268952e-06
1.528758e-06
1.522949e-06
1.518252e-06
1.486586e-06
-0.001338813
0.001340663
7.281194e-12
-7.776118e-06
1.485854e-06
1.477298e-06
1.476494e-06
1.452247e-06
-0.001342392
0.001343934
-1.38657e-12
-7.332157e-06
1.450854e-06
1.443669e-06
1.442693e-06
1.424762e-06
-0.001345353
0.001346594
1.84831e-11
-6.927622e-06
1.426022e-06
1.416888e-06
1.418342e-06
1.407228e-06
-0.001347718
0.00134866
-1.132426e-12
-6.55195e-06
1.404638e-06
1.400101e-06
1.398048e-06
1.391025e-06
-0.001349478
0.001350121
2.660467e-12
-6.188154e-06
1.387746e-06
1.383608e-06
1.382111e-06
1.374921e-06
-0.001350643
0.001351004
1.091702e-11
-5.845227e-06
1.372601e-06
1.36929e-06
1.367136e-06
1.378174e-06
-0.001351217
0.001351286
6.865057e-12
-5.574488e-06
1.379356e-06
1.373733e-06
1.374691e-06
1.377171e-06
-0.001351276
0.001351116
5.929622e-12
-5.344572e-06
1.37935e-06
1.372991e-06
1.375251e-06
1.39212e-06
-0.0013508
0.001350354
5.573776e-12
-5.117926e-06
1.39412e-06
1.388191e-06
1.390324e-06
1.408445e-06
-0.001349837
0.001349229
6.578591e-12
-5.027278e-06
1.41225e-06
1.405106e-06
1.409032e-06
1.435887e-06
-0.001348567
0.001347845
7.792887e-12
-5.025916e-06
1.440673e-06
1.432971e-06
1.43787e-06
1.469844e-06
-0.001347096
0.001346322
7.946624e-12
-5.110712e-06
1.475237e-06
1.467134e-06
1.472526e-06
1.507881e-06
-0.001345547
0.001344777
7.510831e-12
-5.268181e-06
1.513679e-06
1.50525e-06
1.511045e-06
1.547605e-06
-0.001344028
0.001343311
7.028677e-12
-5.479211e-06
1.55327e-06
1.545208e-06
1.550942e-06
1.588743e-06
-0.001342626
0.001341987
6.42747e-12
-5.723302e-06
1.594609e-06
1.586578e-06
1.592502e-06
1.627608e-06
-0.001341393
0.001340854
5.611987e-12
-5.978617e-06
1.633198e-06
1.625619e-06
1.631261e-06
1.663037e-06
-0.001340366
0.001339936
4.530728e-12
-6.228865e-06
1.668103e-06
1.661186e-06
1.666281e-06
1.693472e-06
-0.001339557
0.001339238
3.130993e-12
-6.459542e-06
1.697803e-06
1.691732e-06
1.696093e-06
1.717614e-06
-0.001338967
0.001338751
1.626319e-12
-6.658447e-06
1.720993e-06
1.715992e-06
1.719409e-06
1.734641e-06
-0.001338578
0.001338454
4.738482e-13
-6.816125e-06
1.736753e-06
1.73311e-06
1.735239e-06
1.747618e-06
-0.001338366
0.001338326
-2.074582e-13
-6.949498e-06
1.74871e-06
1.746224e-06
1.747323e-06
1.750434e-06
-0.001338314
0.001338322
-2.267571e-13
-7.007717e-06
1.750697e-06
1.749137e-06
1.749427e-06
1.742874e-06
-0.001338347
0.00133839
-7.197458e-14
-7.01175e-06
1.742738e-06
1.741568e-06
1.741457e-06
1.736176e-06
-0.001338442
0.001338501
-7.004401e-14
-6.999451e-06
1.735253e-06
1.734941e-06
1.734019e-06
1.72558e-06
-0.001338561
0.001338622
-1.225873e-13
-6.958895e-06
1.724412e-06
1.724424e-06
1.72328e-06
1.714612e-06
-0.00133868
0.001338735
-3.063684e-14
-6.909344e-06
1.713787e-06
1.71357e-06
1.712788e-06
1.705845e-06
-0.001338785
0.001338832
2.992364e-13
-6.868539e-06
1.705702e-06
1.704893e-06
1.704799e-06
1.701e-06
-0.001338878
0.001338924
8.753171e-13
-6.851414e-06
1.702223e-06
1.700079e-06
1.70125e-06
1.700104e-06
-0.001338974
0.001339037
1.499962e-12
-6.866092e-06
1.70283e-06
1.699153e-06
1.701711e-06
1.702815e-06
-0.001339106
0.001339193
2.021629e-12
-6.904864e-06
1.706575e-06
1.701893e-06
1.705725e-06
1.700772e-06
-0.001339282
0.001339395
2.366252e-12
-6.920958e-06
1.703928e-06
1.699988e-06
1.70316e-06
1.656946e-06
-0.001339533
0.001339775
2.468689e-12
-6.845868e-06
1.645846e-06
1.656188e-06
1.645075e-06
1.525802e-06
-0.001340183
0.00134085
1.838003e-12
-6.670618e-06
1.476775e-06
1.525001e-06
1.475933e-06
1.365781e-06
-0.001341656
0.001342534
1.04083e-12
-6.303168e-06
1.347226e-06
1.36506e-06
1.346526e-06
1.374634e-06
-0.001343432
0.001344406
7.975924e-13
-6.501887e-06
1.390328e-06
1.373931e-06
1.389669e-06
1.418995e-06
-0.001345438
0.001346593
3.459802e-13
-6.845339e-06
1.427027e-06
1.418216e-06
1.426326e-06
1.444917e-06
-0.001347792
0.001349091
-6.673729e-13
-7.100358e-06
1.456536e-06
1.444122e-06
1.455919e-06
1.485988e-06
-0.001350413
0.001351829
-1.427241e-12
-7.392405e-06
1.502836e-06
1.485058e-06
1.502175e-06
1.502538e-06
-0.001353252
0.001354809
-1.487768e-12
-7.593141e-06
1.516918e-06
1.501275e-06
1.516081e-06
1.486744e-06
-0.001356496
0.001358315
-1.681951e-12
-7.71812e-06
1.465261e-06
1.483911e-06
1.462715e-06
1.299802e-06
-0.001360079
0.001362899
1.086172e-12
-8.073988e-06
1.332297e-06
1.29505e-06
1.327159e-06
1.621981e-06
-0.001366353
0.001366874
5.142881e-13
-6.829464e-06
1.523063e-06
1.63207e-06
1.532048e-06
1.490509e-06
-0.001367663
0.001369431
1.908658e-12
-7.442938e-06
1.335923e-06
1.501669e-06
1.346245e-06
1.374693e-06
-0.001371507
0.001373682
3.861291e-12
-7.549803e-06
1.303526e-06
1.38379e-06
1.311994e-06
1.325261e-06
-0.001375681
0.001377736
-9.348904e-13
-7.270182e-06
1.2743e-06
1.333318e-06
1.281944e-06
1.245236e-06
-0.001379791
0.001381931
-7.204789e-12
-7.052209e-06
1.203416e-06
1.252538e-06
1.210515e-06
1.176808e-06
-0.001384057
0.001386182
-3.669381e-13
-6.786868e-06
1.147338e-06
1.183696e-06
1.154035e-06
1.121163e-06
-0.001388251
0.001390279
1.727289e-11
-6.483915e-06
1.100817e-06
1.127319e-06
1.106636e-06
1.065429e-06
-0.001392264
0.001394206
3.164585e-11
-6.178808e-06
1.0485e-06
1.069986e-06
1.052603e-06
1.012858e-06
-0.001396102
0.001397942
2.721172e-11
-5.871283e-06
1.000205e-06
1.015595e-06
1.002575e-06
9.644874e-07
-0.001399735
0.001401469
9.037699e-12
-5.574195e-06
9.539708e-07
9.660979e-07
9.554538e-07
9.170297e-07
-0.001403162
0.001404791
-3.927098e-12
-5.27958e-06
9.072308e-07
9.182655e-07
9.084698e-07
8.687651e-07
-0.001406378
0.001407888
-4.559958e-12
-4.968575e-06
8.594177e-07
8.698926e-07
8.604941e-07
8.124227e-07
-0.001409353
0.001410723
6.689117e-13
-4.602605e-06
8.029833e-07
8.133895e-07
8.03914e-07
7.573664e-07
-0.001412026
0.00141319
1.08165e-11
-4.17974e-06
7.494908e-07
7.582941e-07
7.50401e-07
6.973834e-07
-0.001414263
0.001415182
1.617906e-11
-3.691937e-06
6.881438e-07
6.982785e-07
6.889681e-07
6.363157e-07
-0.00141599
0.001416602
1.197374e-11
-3.142385e-06
6.28031e-07
6.371496e-07