/*--------------------------------*- C++ -*----------------------------------*\
| =========                 |                                                 |
| \\      /  F ield         | foam-extend: Open Source CFD                    |
|  \\    /   O peration     | Version:     3.1                                |
|   \\  /    A nd           | Web:         http://www.extend-project.de       |
|    \\/     M anipulation  |                                                 |
\*---------------------------------------------------------------------------*/
FoamFile
{
    version     2.0;
    format      ascii;
    class       volScalarField;
    location    "11.5";
    object      alpha1;
}
// * * * * * * * * * * * * * * * * * * * * * * * * * * * * * * * * * * * * * //

dimensions      [0 0 0 0 0 0 0];

internalField   nonuniform List<scalar> 
119952
(
1
1
1
1
1
1
1
1
1
1
1
1
1
0.9999999
1
0.9999999
0.9999999
1
1
1
1
0.9999999
1
1
1
1
1
1
0.9999999
0.9999997
1
1
1
1
1
1
1
1
1
1
1
1
1
1
1
1
1
1
1
1
1
1
1
1
1
1
1
1
1
1
1
1
1
1
1
1
1
1
1
1
1
1
1
1
1
1
1
1
1
1
0.9999999
1
1
0.9999999
1
1
1
0.9999999
0.9999999
1
1
1
1
0.9999998
1
0.9999999
0.9999999
1
1
1
1
1
1
1
1
1
1
1
1
1
1
1
1
1
1
1
1
1
1
1
1
1
1
1
1
1
0.9999998
0.9999999
1
1
1
1
1
1
1
1
1
1
0.9999999
0.9999999
1
1
1
0.9999999
1
1
1
0.9999999
0.9999999
1
1
1
1
1
0.9999999
1
1
1
1
1
1
1
1
0.9999999
1
0.9999999
1
1
1
0.9999999
0.9999999
1
1
1
1
1
1
1
1
1
1
1
1
1
1
1
1
1
1
1
0.9999999
1
1
1
1
1
1
1
1
1
1
1
1
1
1
1
1
1
1
1
1
1
0.9999999
0.9999999
1
1
1
1
1
1
1
1
1
1
1
1
1
1
1
1
1
1
1
1
1
1
1
1
1
1
1
1
1
1
1
1
1
1
1
1
1
1
1
1
1
1
1
1
1
1
1
1
1
1
1
1
1
1
1
1
1
1
1
1
1
1
1
1
1
1
1
1
1
1
1
1
1
1
1
1
1
1
1
1
1
1
0.9999999
0.9999997
0.9999999
1
1
1
0.9999986
0.9999997
0.9999997
0.999999
1
1
0.9999999
1
1
0.9999984
0.9999985
1
1
1
0.9999997
0.9999981
0.9999999
1
1
1
0.9999986
0.9999982
1
0.9999988
0.9999979
0.9999999
1
1
1
1
0.9999999
1
1
0.9999993
0.9999985
0.9999999
1
1
0.9999992
0.9999981
0.9999998
1
0.9999987
0.999999
1
1
1
1
0.9999999
0.9999981
0.9999996
1
1
0.9999997
0.9999983
0.9999995
1
1
1
1
1
1
0.9999987
0.9999992
1
1
0.9999999
0.9999988
0.9999998
1
1
1
0.9999999
0.9999993
0.9999998
1
0.9999991
0.9999995
0.9999999
0.999999
0.9999999
1
1
0.9999999
0.9999993
0.9999999
1
1
1
1
1
1
1
0.9999994
0.9999998
1
1
1
1
1
1
0.9999994
0.9999998
1
1
1
1
1
1
1
1
1
1
1
1
1
1
1
1
1
1
1
1
1
1
1
1
1
1
1
1
1
1
1
1
1
1
1
1
1
1
1
1
1
1
1
1
1
1
1
1
1
1
1
1
1
1
1
1
1
1
1
1
1
1
1
1
1
1
1
1
1
1
1
1
1
1
1
1
1
1
1
1
1
1
1
1
1
1
1
1
1
0.9999999
0.9999999
1
1
1
1
1
1
1
1
1
1
1
1
1
1
1
0.9999998
0.9999998
0.9999998
0.9999999
1
1
1
1
1
1
1
1
1
1
1
1
1
1
1
1
1
1
1
1
1
1
1
1
1
0.9999999
0.9999999
0.9999999
1
1
1
1
1
1
1
1
1
1
1
1
1
1
1
0.9999999
0.9999999
0.9999999
1
0.9999999
0.9999999
0.9999999
0.9999999
1
1
1
1
1
1
1
1
1
1
1
1
1
1
1
1
1
1
1
1
1
1
1
0.9999999
0.9999999
0.9999999
0.9999999
0.9999997
0.9999996
0.9999997
0.9999999
1
1
1
1
1
0.9999999
0.9999998
0.9999997
0.9999994
0.9999986
0.9999975
0.999994
1
1
0.9999999
0.9999983
0.9999786
0.9999934
1
1
1
1
1
1
1
1
1
0.9999997
0.9999817
0.9999495
0.9999916
1
0.9999999
1
1
0.9999999
0.9999999
1
1
1
1
1
1
1
1
1
1
1
1
1
1
1
1
1
1
1
1
1
1
1
1
1
1
1
1
1
1
1
1
1
1
1
1
1
1
1
1
1
1
1
1
1
1
1
1
1
1
1
1
1
1
1
1
1
1
1
1
1
1
1
1
1
1
1
1
1
1
1
1
1
1
1
1
1
1
1
1
1
1
1
1
1
1
1
1
1
1
1
1
1
1
1
1
1
1
1
1
1
1
1
1
0.9999998
0.9999997
0.9999999
1
1
1
1
1
1
1
1
1
1
1
1
0.9999998
0.9999997
0.9999998
1
1
1
1
1
1
1
1
1
1
1
1
0.9999997
0.9999996
0.9999999
1
1
1
1
1
1
1
0.9999999
0.9999999
1
1
1
1
1
1
1
1
1
1
1
0.9999999
0.9999997
0.9999998
1
1
1
1
1
1
1
1
1
1
1
1
1
0.9999998
0.9999999
1
1
1
1
1
0.9999999
0.9999999
0.9999999
1
1
1
1
1
0.9999999
1
0.9999999
1
1
1
1
1
1
1
1
1
1
1
1
1
1
1
1
1
1
1
1
1
1
1
1
1
1
1
1
1
1
1
1
1
1
1
1
1
1
1
1
1
1
1
1
1
1
1
1
1
1
1
1
1
1
1
1
1
1
1
1
1
1
1
0.9999999
0.9999999
1
1
1
1
1
1
1
1
1
1
1
1
1
1
1
1
1
0.9999999
0.9999999
0.9999999
1
1
1
1
1
1
1
1
1
1
1
1
1
1
1
1
1
1
1
1
1
1
1
1
0.9999999
0.9999999
0.9999999
1
1
1
1
1
1
1
1
0.9999999
0.9999999
0.9999999
1
1
1
1
1
0.9999999
0.9999999
1
1
1
1
1
1
1
1
1
0.9999999
0.9999997
0.9999996
0.9999998
1
1
1
1
1
1
1
1
1
1
1
1
1
1
1
1
1
1
1
1
1
1
1
0.9999999
0.9999999
0.9999999
0.9999999
1
1
1
1
1
1
1
1
1
1
1
0.9999999
0.9999995
0.9999982
0.9999969
0.9999981
0.9999995
1
1
1
1
1
1
1
1
1
1
1
1
1
1
1
1
1
1
1
1
1
1
1
1
1
1
1
1
0.9999999
0.9999996
0.9999988
0.9999977
0.9999984
0.9999996
1
1
1
1
0.9999997
0.999998
0.999989
0.9999649
0.9999611
0.9999825
0.9999904
0.9999688
0.9998518
0.9994868
0.9985342
0.9967483
0.996216
0.9976939
0.9995631
0.9999817
0.9999988
0.9999975
0.9999931
0.9999852
0.9999797
0.9999767
0.9999665
0.9998783
0.9991821
0.9975612
0.99791
0.9993193
0.9999398
0.9999991
1
1
1
1
1
1
1
1
1
1
1
1
1
1
1
1
1
1
1
1
1
1
1
1
1
1
1
1
1
1
1
1
1
1
1
1
1
1
1
1
1
1
1
1
1
1
1
1
1
1
1
1
1
1
1
1
1
1
1
1
1
1
1
1
1
1
1
1
1
1
1
1
1
1
1
1
1
1
1
1
1
1
1
1
1
1
1
1
1
1
1
1
1
1
1
1
1
1
1
1
1
1
1
1
1
1
1
1
1
1
1
1
1
1
1
1
1
1
1
1
1
1
1
1
1
1
1
0.9999999
0.9999999
0.9999999
1
1
1
1
1
1
1
1
1
1
0.9999999
0.9999998
0.9999999
0.9999999
1
1
1
1
1
1
1
1
1
0.9999999
0.9999999
1
1
1
1
1
1
1
1
0.9999999
0.9999999
0.9999999
1
1
1
1
1
1
1
1
1
1
1
1
1
1
1
1
1
1
1
1
1
0.9999999
0.9999999
1
0.9999999
1
1
1
0.9999999
1
1
1
1
1
1
1
1
1
1
1
1
1
1
1
1
1
1
1
1
1
1
1
1
1
1
1
1
1
1
1
1
1
1
1
1
1
1
1
1
1
1
1
1
1
1
1
1
1
1
1
1
1
1
1
1
1
1
1
1
1
1
1
1
1
1
1
1
1
1
1
1
1
1
1
1
0.9999998
0.9999998
0.9999999
1
1
1
1
1
1
1
1
1
0.9999999
0.9999999
0.9999999
1
1
1
1
1
1
0.9999999
0.9999998
0.9999999
1
1
1
1
1
0.9999999
0.9999999
0.9999999
1
1
1
1
1
1
1
0.9999999
0.9999999
1
1
1
1
1
1
0.9999999
0.9999998
0.9999998
0.9999999
1
1
1
1
1
1
1
1
0.9999999
0.9999998
0.9999999
1
1
0.9999999
0.9999999
0.9999999
0.9999999
1
1
1
1
1
1
1
1
1
0.9999999
0.9999996
0.9999996
0.9999997
0.9999999
1
1
1
1
1
1
1
1
1
1
1
1
0.9999999
0.9999999
1
1
1
1
1
1
1
1
1
0.9999999
0.9999999
0.9999999
1
1
1
1
1
1
1
0.9999999
0.9999996
0.9999976
0.9999883
0.999971
0.9999761
0.9999929
0.9999994
1
1
1
1
1
1
1
1
0.9999999
0.9999998
0.9999998
0.9999998
0.9999998
0.9999998
0.9999999
0.9999999
0.9999999
0.9999999
0.9999999
0.9999999
0.9999996
0.9999987
0.9999974
0.9999976
0.9999992
0.9999999
1
1
0.9999999
0.999999
0.9999942
0.9999907
0.9999949
0.9999991
0.9999999
1
0.9999999
0.9999994
0.9999953
0.9999614
0.999745
0.9991447
0.9990547
0.9994891
0.9999186
0.9999863
0.9999045
0.9987135
0.9861006
0.9468429
0.9545107
0.984996
0.9986148
0.9999557
0.99997
0.9999212
0.9996751
0.9991748
0.9991556
0.9993689
0.999325
0.9980108
0.9925669
0.9921398
0.9965181
0.9993439
0.9999235
0.9999954
0.9999999
1
1
1
1
1
1
1
1
1
1
1
1
1
1
1
1
1
1
1
1
1
1
1
1
1
1
1
1
1
1
1
1
1
1
1
1
1
1
1
1
1
1
1
1
1
1
1
1
1
1
1
1
1
1
1
1
1
1
1
1
1
1
1
1
1
1
1
1
1
1
1
1
1
1
1
1
1
1
1
1
1
1
1
1
1
1
1
1
1
1
1
1
1
1
1
1
1
1
1
1
1
1
1
1
1
1
1
1
1
1
1
1
1
1
1
1
1
1
1
1
1
1
1
1
1
1
1
1
1
1
1
1
1
1
1
1
1
1
1
1
1
1
1
1
1
0.9999999
0.9999999
1
1
1
1
1
0.9999999
0.9999998
0.9999998
0.9999999
1
1
1
1
1
1
1
1
1
1
0.9999998
0.9999997
0.9999999
1
1
1
1
1
1
1
1
1
1
1
1
1
1
1
1
0.9999999
0.9999999
0.9999999
0.9999999
1
1
1
1
1
1
1
1
1
1
1
1
1
1
1
1
1
1
1
1
1
1
1
1
1
1
1
1
1
1
1
1
1
1
1
1
1
1
1
1
1
1
1
1
1
1
1
1
1
1
1
1
1
1
1
1
1
1
1
1
1
1
1
1
1
1
1
1
0.9999999
0.9999999
1
1
1
1
1
1
1
1
1
1
1
1
1
1
1
1
1
1
1
1
1
1
1
0.9999999
0.9999998
0.9999998
0.9999999
1
1
1
1
1
1
1
1
1
0.9999999
0.9999999
0.9999999
1
1
1
1
1
1
0.9999999
0.9999998
0.9999999
1
1
1
1
1
1
0.9999999
0.9999999
0.9999999
1
1
1
1
1
1
1
0.9999999
0.9999999
0.9999999
1
1
1
0.9999999
0.9999998
0.9999998
0.9999999
1
1
1
1
1
1
1
1
0.9999999
0.9999998
0.9999998
0.9999999
1
1
1
1
1
0.9999999
0.9999998
0.9999998
0.9999999
1
1
1
1
1
1
0.9999999
0.9999997
0.9999998
0.9999999
1
1
1
1
1
1
1
1
1
1
1
0.9999999
0.9999998
0.9999998
1
1
1
1
1
1
1
1
1
1
1
1
1
1
1
1
1
0.9999998
0.9999986
0.999992
0.9999609
0.9998537
0.9997905
0.9998829
0.9999788
0.9999991
1
1
1
1
0.9999999
0.9999999
0.9999996
0.9999987
0.9999956
0.9999871
0.9999739
0.999968
0.9999681
0.9999693
0.9999765
0.9999923
0.9999983
0.9999981
0.9999967
0.9999919
0.9999753
0.9999373
0.9999316
0.99997
0.9999965
0.9999999
1
1
0.9999998
0.9999978
0.999984
0.9999654
0.999979
0.9999958
0.9999998
0.9999999
0.9999999
0.999999
0.9999846
0.9998036
0.9983331
0.9934808
0.9927824
0.9968116
0.9995629
0.9999829
0.9999797
0.9997383
0.9927964
0.9260552
0.9051836
0.9203746
0.9781363
0.9985255
0.9997218
0.9988225
0.9932299
0.9858748
0.989948
0.9974572
0.9954959
0.9734297
0.9653557
0.9830501
0.9969912
0.9996781
0.9999818
0.9999994
1
1
1
1
1
1
1
0.9999997
0.9999997
0.9999999
1
1
1
1
1
1
1
1
1
1
1
1
1
1
1
1
1
1
1
1
1
1
1
1
1
1
1
1
1
1
1
1
1
1
1
1
1
1
1
1
1
1
1
1
1
1
1
1
1
1
1
1
1
1
1
1
1
1
1
1
1
1
1
1
1
1
1
1
1
1
1
1
1
1
1
1
1
1
1
1
1
1
1
1
1
1
1
1
1
1
1
1
1
1
1
1
1
1
1
1
1
1
1
1
1
1
1
1
1
1
1
1
1
1
1
1
1
1
1
1
1
1
1
1
1
1
1
1
1
1
1
1
1
1
1
1
1
1
1
1
1
1
1
1
1
0.9999999
0.9999998
0.9999998
1
1
1
1
1
1
1
1
1
0.9999999
0.9999997
0.9999997
0.9999997
0.9999999
1
1
1
1
1
1
1
1
1
0.9999999
0.9999998
0.9999999
1
1
1
1
1
1
1
0.9999998
1
1
1
1
1
1
1
1
1
1
1
1
1
1
1
1
1
1
1
1
1
1
1
1
1
1
1
1
1
1
1
1
1
1
1
1
1
1
1
1
1
1
1
1
1
1
1
1
1
1
1
1
1
1
1
1
1
1
1
1
1
1
1
1
1
1
1
1
1
1
1
1
1
1
1
1
1
1
0.9999999
0.9999999
0.9999999
1
1
1
1
1
1
1
1
1
1
1
1
1
1
1
1
1
1
1
1
1
1
1
0.9999999
0.9999998
0.9999999
1
1
1
1
1
1
1
1
1
1
0.9999999
0.9999999
1
1
1
1
1
1
1
0.9999999
0.9999999
1
1
1
1
1
1
0.9999999
0.9999999
1
1
1
1
1
1
1
1
0.9999999
0.9999999
1
1
1
1
1
0.9999998
0.9999999
1
1
1
1
1
1
1
1
1
0.9999999
0.9999999
0.9999999
1
1
1
1
1
0.9999999
0.9999998
0.9999999
1
1
1
1
1
1
1
1
1
0.9999999
1
1
1
1
1
1
1
1
1
1
1
1
0.9999998
0.9999998
0.9999998
1
1
1
1
1
1
1
1
1
1
1
0.9999998
0.9999995
0.9999989
0.9999984
0.9999985
0.9999984
0.9999919
0.9999323
0.9995975
0.9987758
0.9987967
0.9994671
0.9999309
0.999998
1
1
0.9999999
0.9999997
0.9999994
0.9999985
0.9999963
0.9999895
0.9999659
0.9999006
0.9997679
0.9995273
0.9991524
0.999019
0.9994035
0.9998854
0.9999906
0.9999772
0.9999116
0.9997088
0.9992081
0.9988803
0.9992895
0.9998565
0.9999926
0.9999999
1
0.9999999
0.9999993
0.9999932
0.9999462
0.9998698
0.999921
0.9999839
0.9999992
0.9999999
0.9999999
0.9999994
0.9999858
0.999735
0.9966003
0.9766068
0.9725985
0.9888436
0.9986393
0.9999579
0.9999862
0.9999829
0.999788
0.9943717
0.9344446
0.9051836
0.9549799
0.9933742
0.9994416
0.9971681
0.9568579
0.9240445
0.9500599
0.9917013
0.9935617
0.9599334
0.9437534
0.9488352
0.9829085
0.9984641
0.999975
0.9999995
0.9999995
0.9999992
0.9999968
0.9999846
0.9999697
0.9999809
0.9999958
0.9999996
0.9999998
0.9999999
1
1
1
1
1
1
1
1
1
1
1
1
1
1
1
1
1
1
1
1
1
1
1
1
1
1
1
1
1
1
1
1
1
1
1
1
1
1
1
1
1
1
1
1
1
1
1
1
1
1
1
1
1
1
1
1
1
1
1
1
1
1
1
1
1
1
1
1
1
1
1
1
1
1
1
1
1
1
1
1
1
1
1
1
1
1
1
1
1
1
1
1
1
1
1
1
1
1
1
1
1
1
1
1
1
1
1
1
1
1
1
1
1
1
1
1
1
1
1
1
1
1
1
1
1
1
1
1
1
1
1
1
1
1
1
1
1
1
1
1
1
1
1
1
1
1
1
1
1
1
1
1
1
1
1
1
1
1
1
1
0.9999998
0.9999997
0.9999998
0.9999999
1
1
1
1
1
1
1
1
0.9999999
0.9999998
0.9999998
0.9999999
1
1
1
1
1
1
0.9999999
1
1
1
1
1
1
1
1
1
1
1
1
1
1
1
1
1
1
1
1
1
1
1
1
1
1
1
1
1
1
1
1
1
1
1
1
1
1
1
1
1
1
1
1
1
1
1
1
1
1
1
1
1
1
1
1
1
1
1
1
1
1
1
1
0.9999999
0.9999999
1
1
1
1
1
1
1
1
1
1
1
1
1
1
1
1
1
1
1
1
1
1
1
1
1
1
1
1
1
1
1
1
1
1
1
1
1
1
1
1
1
1
1
1
1
1
1
1
1
1
1
1
1
1
1
1
1
1
1
1
1
1
1
1
1
1
1
1
1
1
1
1
1
1
1
1
1
1
1
1
1
1
1
1
1
1
1
1
1
1
1
1
1
1
1
1
1
1
1
1
1
1
1
1
1
1
1
1
1
1
0.9999999
0.9999999
1
1
1
1
1
1
1
1
1
1
1
1
1
1
1
1
1
1
1
1
1
1
0.9999999
0.9999998
0.9999999
1
1
1
1
1
1
1
0.9999998
0.9999987
0.9999959
0.9999929
0.9999848
0.9999492
0.9998631
0.9998195
0.9998417
0.9999363
0.9999331
0.9993967
0.9965518
0.9961507
0.9970181
0.9992575
0.9999575
0.9999996
1
0.9999999
0.9999988
0.9999879
0.9999534
0.9998846
0.9997111
0.9994471
0.999064
0.9972872
0.9872692
0.9774017
0.9837148
0.9955153
0.9996758
0.9999879
0.9999833
0.9998184
0.997429
0.9877115
0.9887182
0.9957975
0.999545
0.9999868
0.9999999
0.9999999
0.9999996
0.9999965
0.9999674
0.9997514
0.9995256
0.9997418
0.9999501
0.9999977
0.9999999
0.9999999
0.9999998
0.9999948
0.9998459
0.9967379
0.9654196
0.9529153
0.9671005
0.9930874
0.9996438
0.9999824
0.9999808
0.9999327
0.9996993
0.9978543
0.9903994
0.985764
0.9890049
0.9976791
0.9983999
0.9811373
0.9145593
0.9313343
0.9773161
0.9964318
0.9938543
0.9639559
0.9529541
0.9753679
0.9950891
0.9997549
0.9999928
0.9999864
0.9999263
0.9996233
0.9994135
0.9996822
0.9999404
0.9999953
0.9999995
0.9999998
0.9999998
0.9999998
0.9999998
0.9999998
0.9999993
0.9999992
0.9999996
1
1
1
1
1
1
1
1
1
1
1
1
1
1
1
1
1
1
1
1
1
1
1
1
1
1
1
1
1
1
1
1
1
1
1
1
1
1
1
1
1
1
1
1
0.9999999
0.9999999
1
1
1
1
1
1
1
1
1
1
1
1
1
1
1
1
1
1
1
1
1
1
1
1
1
1
1
1
1
1
1
1
1
1
1
1
1
1
1
1
1
1
1
1
1
1
1
1
1
1
1
1
1
1
1
1
1
1
1
1
1
1
1
1
1
1
1
1
1
1
1
1
1
1
1
1
1
1
1
1
1
1
1
1
1
1
1
1
1
1
1
1
1
1
1
1
1
1
1
1
1
1
1
1
1
1
1
1
1
1
1
0.9999999
0.9999999
0.9999999
1
1
1
1
1
1
1
1
1
1
1
1
1
1
1
1
1
1
1
1
1
1
1
1
1
1
1
1
1
1
1
1
1
1
1
1
1
1
1
1
1
1
1
1
1
1
1
1
1
1
1
1
1
1
1
1
1
1
1
1
1
1
1
1
1
1
1
1
1
1
1
1
1
1
1
1
1
1
1
1
1
1
0.9999999
0.9999998
0.9999999
0.9999999
1
1
1
1
1
1
1
1
1
1
1
1
1
1
1
1
1
1
1
1
1
1
1
1
1
1
1
1
1
1
1
1
1
1
1
1
1
1
1
0.9999999
0.9999999
0.9999999
1
1
1
1
1
1
1
1
1
1
1
1
1
1
1
1
1
1
1
1
1
1
1
1
1
1
1
1
1
1
1
1
1
1
1
1
1
1
1
1
1
1
1
1
1
1
1
1
1
1
1
1
1
1
1
1
1
1
1
1
1
1
1
1
1
1
1
1
1
1
1
1
1
1
1
1
1
1
1
1
1
1
1
1
1
1
1
1
1
1
1
0.9999999
1
1
1
1
1
1
0.9999997
0.9999985
0.9999925
0.9999486
0.9997166
0.9994444
0.9994985
0.9992983
0.9952831
0.9894238
0.9920195
0.9978092
0.9998183
0.9996749
0.997374
0.9961507
0.996555
0.9987773
0.9998469
0.9999857
0.9999977
0.9999991
0.9999962
0.9999216
0.9989487
0.9953492
0.9902674
0.9732651
0.9406103
0.9391182
0.9391182
0.9391182
0.9647558
0.9947712
0.9998389
0.9999891
0.9999112
0.9980759
0.982267
0.9760757
0.9789602
0.9933738
0.999467
0.9999924
0.9999995
0.9999972
0.9999758
0.9997821
0.9986991
0.9984876
0.9992469
0.9999004
0.9999965
0.9999995
0.9999995
0.9999996
0.9999988
0.9999723
0.999174
0.9802223
0.950899
0.9541395
0.9812486
0.9975806
0.9999254
0.9999839
0.9998695
0.9982589
0.9882933
0.9767036
0.9844907
0.996369
0.9995916
0.9997121
0.999689
0.9976691
0.9776308
0.9253284
0.9410969
0.9806749
0.9960861
0.9938226
0.993517
0.9965235
0.999403
0.9998165
0.9996086
0.9978542
0.9956577
0.9971558
0.9992663
0.9999221
0.9999947
0.9999996
0.9999996
0.9999996
0.9999993
0.9999974
0.999991
0.9999917
0.9999971
0.9999996
0.9999999
1
1
1
1
1
1
1
1
1
1
1
1
1
1
1
1
1
1
1
1
1
1
1
1
1
1
1
1
1
1
1
1
1
1
1
1
1
1
0.9999999
0.9999998
0.9999998
0.9999999
1
1
0.9999998
0.9999997
0.9999998
1
1
1
1
1
0.9999999
0.9999999
0.9999999
1
1
1
1
1
1
1
1
0.9999998
0.9999997
0.9999997
0.9999999
1
1
1
1
1
1
1
1
1
1
1
1
1
1
1
1
1
1
1
1
1
1
1
1
1
1
1
1
1
1
1
1
1
1
1
1
1
1
1
1
1
1
1
1
1
1
1
1
1
1
1
1
1
1
1
1
1
1
1
1
1
1
1
1
1
1
1
1
1
1
1
1
1
1
1
1
1
1
1
1
1
1
1
1
1
1
1
1
1
1
1
1
1
1
1
1
1
1
1
1
1
1
1
1
1
1
1
1
1
1
1
1
1
1
1
1
1
1
1
0.9999999
1
1
1
1
1
1
1
1
1
1
1
1
1
1
1
1
1
1
1
1
1
1
1
1
1
1
1
1
1
1
1
1
1
1
1
1
1
1
1
1
1
1
1
1
1
1
1
1
1
1
1
1
1
1
1
1
1
1
1
1
1
1
1
1
1
1
1
1
1
1
1
1
1
0.9999999
0.9999998
0.9999999
1
1
1
1
1
1
1
1
1
1
1
1
1
1
1
1
1
1
1
1
0.9999999
0.9999998
0.9999996
0.9999993
0.9999991
0.999999
0.9999987
0.9999986
0.9999984
0.9999969
0.9999923
0.9999851
0.9999806
0.9999825
0.9999857
0.9999851
0.9999787
0.9999601
0.9999253
0.9998943
0.9999008
0.9999321
0.9999766
0.999996
0.9999973
0.9999969
0.9999955
0.9999932
0.9999923
0.9999924
0.9999936
0.9999962
0.9999976
0.9999975
0.9999967
0.9999956
0.9999957
0.9999961
0.999997
0.9999983
0.9999994
0.9999998
0.9999999
0.9999999
0.9999999
0.9999999
0.9999998
0.9999996
0.9999993
0.9999987
0.9999982
0.999998
0.9999982
0.9999986
0.9999993
0.9999997
0.9999999
0.9999999
1
1
1
1
1
1
1
1
1
1
1
1
1
1
1
1
1
1
1
1
1
1
1
1
1
1
1
1
1
1
1
1
1
1
1
1
1
1
1
1
0.9999999
0.9999999
1
1
1
1
1
1
0.9999999
0.9999996
0.9999982
0.9999979
0.9999988
0.9999998
0.9999999
0.9999999
0.9999999
0.9999999
0.9999999
0.9999999
0.9999995
0.9999967
0.9999741
0.999808
0.9992761
0.9989015
0.9980669
0.992624
0.9894238
0.9894238
0.9894238
0.9894238
0.9905167
0.9967247
0.9991054
0.9975105
0.9978353
0.9983977
0.9982175
0.9982753
0.9986911
0.9993435
0.9998203
0.9999834
0.9999766
0.9998278
0.9973941
0.9464226
0.8784042
0.8784042
0.9152502
0.9806216
0.9946289
0.9943727
0.9956132
0.9985043
0.9998793
0.9999891
0.9998818
0.9969656
0.9790728
0.9760757
0.9888868
0.9981464
0.9999189
0.9999934
0.9999714
0.9997741
0.9981802
0.9939211
0.9951723
0.9985453
0.9998548
0.9999936
0.9999959
0.9999885
0.9999808
0.9999803
0.9999689
0.999846
0.9986646
0.978765
0.9539465
0.9768168
0.9960438
0.9998415
0.9999812
0.999973
0.9996365
0.9906767
0.9529842
0.9501701
0.9684185
0.9944883
0.9996586
0.9997121
0.9991386
0.9905976
0.9077046
0.8189136
0.9026482
0.9841875
0.9992985
0.9999007
0.9998944
0.9997421
0.99903
0.9946783
0.9813232
0.9833621
0.994563
0.9992193
0.9999343
0.9999971
0.9999986
0.9999986
0.999998
0.9999934
0.999969
0.99996
0.999978
0.9999953
0.9999994
1
1
1
1
1
1
1
1
1
1
1
1
1
1
1
1
1
1
1
1
1
1
1
1
1
1
1
1
1
1
1
1
1
1
1
1
1
1
1
1
0.9999996
0.9999991
0.9999994
0.9999999
1
1
0.9999999
0.9999995
0.9999996
0.9999999
1
1
1
1
0.9999999
0.9999997
0.9999998
0.9999999
1
1
1
1
1
0.9999999
0.9999995
0.9999985
0.9999989
0.9999997
1
1
1
1
1
1
1
1
1
1
1
1
1
1
1
1
1
1
1
1
1
1
1
1
1
1
1
1
1
1
1
1
1
1
1
1
1
1
1
1
1
1
1
1
1
1
1
1
1
1
1
1
0.9999999
0.9999999
1
1
1
1
1
1
1
1
1
1
1
1
1
1
1
1
1
1
1
1
1
1
1
1
1
1
1
1
1
1
1
1
1
1
1
1
1
1
1
1
1
1
1
1
1
1
1
1
1
1
1
1
1
1
1
1
1
1
1
1
1
0.9999999
1
1
1
0.9999998
1
1
1
1
1
0.9999999
0.9999998
1
1
1
1
0.9999999
0.9999999
0.9999999
1
1
1
1
1
1
1
1
1
1
1
1
1
1
1
1
1
1
1
1
1
1
1
1
1
1
1
1
1
1
1
1
1
1
1
1
1
1
1
1
1
1
1
1
1
1
1
1
1
1
1
1
1
1
1
1
1
1
1
1
1
1
1
1
1
1
1
1
1
1
1
1
1
1
1
1
1
1
1
1
1
1
1
1
1
1
0.9999999
0.9999993
0.9999961
0.9999853
0.9999687
0.9999625
0.9999632
0.9999651
0.9999673
0.9999673
0.9999581
0.9999166
0.9998048
0.9996248
0.999516
0.9995298
0.9996499
0.9996615
0.9994935
0.9987109
0.9975209
0.9973412
0.9978003
0.9988393
0.9989831
0.9983534
0.995558
0.9899632
0.9870055
0.9877025
0.9927386
0.9986191
0.9998557
0.9998412
0.9997578
0.9995326
0.9988954
0.9979936
0.9982244
0.9993789
0.999895
0.999901
0.9998263
0.9993456
0.9986234
0.9985144
0.9985274
0.9990364
0.9996798
0.9999313
0.999966
0.9999657
0.9999647
0.9999627
0.9999555
0.9999172
0.9996948
0.9990251
0.9989936
0.9995468
0.9999324
0.9999905
0.9999897
0.9999864
0.999982
0.9999811
0.9999816
0.9999834
0.999987
0.999991
0.9999934
0.9999942
0.9999942
0.9999941
0.999994
0.999994
0.9999938
0.9999938
0.9999945
0.9999973
0.9999996
0.9999997
0.9999997
0.9999994
0.9999987
0.9999975
0.9999972
0.9999975
0.9999978
0.9999975
0.9999927
0.999978
0.9999786
0.9999907
0.9999985
0.9999999
1
1
0.9999999
0.9999999
0.9999995
0.9999976
0.9999964
0.9999974
0.9999993
0.9999999
1
1
1
0.9999999
0.9999999
0.9999999
0.9999995
0.999997
0.9999771
0.9999338
0.9999426
0.9999779
0.9999971
0.9999996
0.9999996
0.9999994
0.999997
0.9999959
0.999997
0.9999992
0.9999989
0.9999924
0.9999294
0.9995522
0.9987114
0.9970371
0.9859316
0.981582
0.981582
0.9856792
0.9960364
0.9984128
0.9976806
0.9976516
0.9986075
0.9995434
0.9995063
0.9989028
0.9963831
0.98913
0.985874
0.9901008
0.9949332
0.9976913
0.9993509
0.9999454
0.9999284
0.9994362
0.9914903
0.9646035
0.9644339
0.9790231
0.9944353
0.9995114
0.9999511
0.9999503
0.9999504
0.9999673
0.9999887
0.9999835
0.9998009
0.9972365
0.9914924
0.9925884
0.9970402
0.9996527
0.9999698
0.9998687
0.9983208
0.9844333
0.973837
0.9869438
0.9978218
0.999898
0.9999966
0.9999948
0.9999474
0.9995653
0.9990739
0.9993706
0.9992702
0.9947544
0.9653127
0.9709482
0.9912674
0.998968
0.9999524
0.9999812
0.9999812
0.9999517
0.9994448
0.9894929
0.9565201
0.968026
0.9909951
0.9990623
0.9992417
0.9981872
0.9810159
0.7495746
0.5189859
0.6335419
0.9083513
0.9941247
0.9999055
0.9999404
0.9997578
0.996475
0.9494363
0.9027959
0.9503775
0.9910836
0.9993205
0.9999786
0.9999948
0.9999951
0.9999923
0.9999723
0.9998732
0.9998002
0.9998895
0.9999744
0.999996
0.9999996
1
1
1
1
1
0.9999999
1
1
1
1
1
1
1
1
1
1
1
1
1
1
1
1
1
1
1
1
1
1
1
1
1
1
1
1
1
1
1
1
1
1
0.9999998
0.9999984
0.9999981
0.9999992
0.9999999
1
1
0.9999999
0.9999992
0.9999992
0.9999996
1
1
1
1
0.9999998
0.9999995
0.9999996
0.9999999
1
1
1
1
0.9999999
0.9999988
0.9999954
0.9999966
0.9999991
0.9999999
1
1
1
1
1
1
1
1
1
1
1
1
1
1
1
1
1
1
1
1
1
1
1
1
1
1
1
1
1
1
1
1
1
1
1
1
1
1
1
1
1
1
1
1
1
1
1
1
1
1
0.9999998
0.9999995
0.9999996
0.9999998
1
1
1
1
1
1
1
1
1
1
1
1
1
1
1
1
1
1
1
1
1
1
1
1
1
1
1
1
1
1
1
1
1
1
1
1
1
1
1
1
1
1
1
1
1
1
1
1
1
1
1
1
1
1
1
1
1
1
1
1
1
1
1
1
1
1
1
1
1
0.9999998
1
1
1
0.9999998
0.9999996
0.9999997
0.9999999
0.9999999
1
1
1
1
1
0.9999999
1
1
1
1
1
0.9999999
0.9999999
1
1
1
1
1
1
1
1
1
1
0.9999998
1
1
1
1
1
1
1
1
1
1
1
1
1
1
1
1
1
1
1
1
1
1
1
1
1
1
1
1
1
1
1
1
1
1
1
1
1
1
1
1
1
1
1
1
1
1
1
1
1
1
1
1
1
1
0.9999999
1
1
1
1
1
1
1
1
1
1
1
1
1
1
1
1
0.9999997
0.9999989
0.999997
0.9999938
0.9999889
0.999981
0.9999625
0.9998638
0.9992708
0.9970049
0.9938168
0.9932997
0.9936727
0.9942948
0.9947988
0.9954073
0.9954985
0.9936039
0.9838106
0.9674446
0.9673162
0.9768361
0.9915033
0.9915672
0.9768038
0.9261846
0.8999167
0.9161087
0.9620995
0.9883467
0.9841722
0.9635455
0.8560124
0.6744713
0.7034141
0.8846916
0.9873167
0.9982309
0.9974912
0.9948851
0.9840015
0.9545297
0.9547963
0.9834922
0.9980162
0.9989611
0.9986973
0.9974167
0.9884409
0.9654484
0.9634847
0.9796159
0.9954539
0.998563
0.9986643
0.9986536
0.9985724
0.9983932
0.997752
0.9939085
0.9776393
0.9735733
0.9845851
0.9970437
0.9994913
0.9996426
0.9996787
0.9996658
0.999459
0.9989933
0.9989407
0.9991274
0.9994938
0.9997334
0.9997406
0.9995125
0.9991341
0.9993991
0.999805
0.9999496
0.9999526
0.9999157
0.9998525
0.9998935
0.9999691
0.9999968
0.9999972
0.999993
0.9999688
0.9999261
0.9999255
0.9999432
0.9999525
0.9998796
0.9997024
0.9997299
0.9998862
0.9999829
0.9999979
0.999998
0.999998
0.9999982
0.9999982
0.9999941
0.9999381
0.9999061
0.9999296
0.9999823
0.9999986
0.9999995
0.9999995
0.9999995
0.9999995
0.9999992
0.9999976
0.9999855
0.9998968
0.9992506
0.9981348
0.9984863
0.9994772
0.999939
0.9999955
0.9999991
0.9999996
0.9999996
0.9999981
0.9999945
0.999995
0.9999982
0.999999
0.9999979
0.9999792
0.9998001
0.9980276
0.9789308
0.9531646
0.9617264
0.9874856
0.9982747
0.9985096
0.9982927
0.998696
0.9990425
0.9993443
0.9994045
0.9994039
0.9993376
0.9980507
0.981537
0.9558157
0.956687
0.9763237
0.9824912
0.9862631
0.9943205
0.9989621
0.9998967
0.9999032
0.9998209
0.9997417
0.9997769
0.9998194
0.9998711
0.9999253
0.999951
0.9999525
0.9999472
0.9999337
0.9999062
0.9998456
0.9997529
0.9991211
0.9987765
0.9990392
0.9995246
0.9998944
0.999938
0.999794
0.9968211
0.9636625
0.9483774
0.9644644
0.9922993
0.9995779
0.9999937
0.9999948
0.9999622
0.9994114
0.9920877
0.9865282
0.9932383
0.9943435
0.9782167
0.928775
0.963322
0.9930187
0.9996233
0.9999807
0.9999812
0.9999714
0.999746
0.9994095
0.9995003
0.9995073
0.999339
0.9983943
0.995518
0.9742581
0.7955589
0.5302851
0.5189859
0.5189859
0.757127
0.9670258
0.9990231
0.9999451
0.9996989
0.9938993
0.9242561
0.8736517
0.8836235
0.9585863
0.9958438
0.9999195
0.9999918
0.999987
0.9999455
0.9996584
0.998999
0.9992354
0.9997654
0.9999677
0.9999979
0.9999998
0.9999999
0.9999999
0.9999999
0.9999999
1
0.9999999
0.9999999
1
1
1
1
1
1
1
1
1
1
1
1
1
1
1
1
1
1
1
1
1
1
1
1
1
1
1
0.9999999
0.9999999
0.9999999
1
1
1
1
0.9999993
0.9999964
0.9999977
0.9999995
1
1
1
0.9999996
0.9999983
0.9999982
0.9999992
0.9999999
1
1
1
0.9999996
0.9999989
0.9999993
0.9999998
1
1
1
0.9999998
0.9999974
0.9999892
0.999992
0.9999977
0.9999998
1
1
1
1
1
1
1
1
1
1
1
1
1
1
1
1
1
1
1
1
1
1
1
1
1
1
1
1
1
1
1
1
1
1
1
1
1
1
1
1
1
1
1
1
1
1
1
1
1
0.9999999
0.9999995
0.9999983
0.9999979
0.9999987
0.9999997
1
1
1
1
1
1
1
1
1
1
1
1
1
1
1
1
1
1
1
1
1
1
1
1
1
1
1
1
1
1
1
1
1
1
1
1
1
1
1
1
1
1
1
1
1
1
1
1
1
1
1
1
1
1
1
1
1
1
1
1
0.9999999
1
1
1
1
0.9999998
0.9999999
1
0.9999997
0.9999999
1
0.9999999
0.9999999
1
1
1
1
1
1
1
1
1
1
0.9999998
0.9999997
0.9999998
1
1
1
1
1
1
1
1
1
1
1
1
1
1
1
1
1
1
1
1
1
1
1
1
1
1
1
1
1
1
1
1
1
1
1
1
1
1
1
1
1
1
1
1
1
1
1
1
1
1
1
1
1
1
1
1
1
1
1
1
1
1
1
1
1
1
1
1
1
1
1
1
1
1
1
1
1
1
1
1
1
0.9999999
0.9999998
0.9999998
0.9999999
1
1
1
1
1
1
1
1
1
1
1
0.9999999
0.999998
0.9999807
0.9998769
0.9995021
0.9987545
0.99788
0.9970226
0.9959409
0.9945463
0.9908809
0.9717022
0.9032258
0.8329428
0.8312432
0.8470526
0.8674894
0.8777453
0.8864846
0.9024653
0.8911603
0.7270081
0.5462838
0.6471748
0.8454578
0.9476218
0.9423582
0.7746376
0.366906
0.3044497
0.5048285
0.8796278
0.951497
0.8164771
0.3083839
0.07667328
0.07507131
0.2592817
0.8002968
0.9667891
0.9646595
0.8200702
0.4027807
0.4163125
0.7268818
0.951688
0.984916
0.9835078
0.9801424
0.9444375
0.8051542
0.816287
0.9373496
0.9843564
0.9814921
0.9561971
0.9402972
0.9453278
0.9672394
0.9794975
0.9045871
0.7177645
0.7618447
0.9223536
0.9841847
0.9884923
0.9881766
0.9821565
0.9805847
0.9874589
0.9955794
0.9967051
0.9953481
0.9941739
0.993794
0.9934268
0.9896431
0.9898198
0.995958
0.9991797
0.9993071
0.9990535
0.9972208
0.9970416
0.9986997
0.9998092
0.9999785
0.9999802
0.9999709
0.9999117
0.9997933
0.9997775
0.999751
0.9986827
0.9976476
0.9980462
0.9993672
0.9999259
0.999987
0.9999933
0.9999943
0.9999936
0.9999725
0.9997271
0.9994411
0.9995418
0.9998509
0.9999805
0.9999885
0.9999884
0.9999908
0.9999929
0.9999931
0.9999928
0.9999901
0.999977
0.9998027
0.9947446
0.9707284
0.9699244
0.9867339
0.9980927
0.9998218
0.9999542
0.9999899
0.9999992
0.9999996
0.9999996
0.9999996
0.9999996
0.9999987
0.9999966
0.9999944
0.9999899
0.9999583
0.9995924
0.992283
0.9224134
0.9064957
0.946899
0.9918571
0.9978832
0.9978901
0.9973456
0.99568
0.995112
0.9957296
0.9961213
0.9942945
0.9671877
0.9180354
0.9295427
0.9770962
0.9857894
0.9685405
0.9606361
0.9614964
0.9838395
0.9976237
0.9994085
0.9989477
0.9980618
0.9979112
0.998908
0.999712
0.999748
0.9996303
0.9993691
0.9993242
0.9993314
0.9992349
0.9982146
0.9937632
0.9926497
0.9956592
0.9991702
0.9999372
0.9999876
0.9999894
0.9999865
0.999851
0.9966912
0.9623978
0.9445332
0.9490264
0.9808114
0.9979447
0.9999541
0.9999763
0.9997082
0.9947298
0.9692474
0.9736998
0.9927796
0.9936024
0.9812989
0.9125868
0.9183854
0.9703511
0.9963929
0.9998942
0.9999808
0.9999812
0.9999696
0.9999345
0.9999363
0.9999363
0.9995023
0.9952613
0.9563852
0.7056188
0.5189987
0.5189859
0.5189859
0.612157
0.8645937
0.9794492
0.9988778
0.999961
0.9999403
0.999441
0.9867939
0.888628
0.8809325
0.9479354
0.9915448
0.999606
0.9999312
0.9998254
0.9991723
0.996567
0.9961186
0.9982452
0.9996981
0.9999688
0.9999988
0.9999998
0.9999999
0.9999996
0.9999994
0.9999997
0.9999999
1
1
1
1
1
1
1
1
1
1
1
1
1
1
1
1
1
1
1
1
1
1
1
1
1
1
1
1
1
0.9999999
0.9999995
0.9999996
0.9999999
1
1
1
0.9999999
0.9999974
0.9999951
0.999998
0.9999997
1
1
0.9999999
0.9999985
0.9999944
0.9999958
0.9999988
0.9999999
1
1
0.9999996
0.9999979
0.9999976
0.999999
0.9999999
1
0.9999999
0.9999994
0.9999937
0.9999755
0.9999829
0.9999951
0.9999995
1
1
1
1
1
0.9999999
0.9999998
0.9999998
0.9999998
0.9999999
1
1
1
1
1
1
1
1
1
1
1
1
1
1
1
1
1
1
1
1
1
1
1
1
1
1
1
1
1
1
1
1
1
1
1
1
1
1
1
0.9999999
0.9999991
0.9999943
0.9999894
0.9999921
0.9999978
0.9999998
1
1
1
1
1
1
1
1
1
1
1
1
1
1
1
1
1
1
1
1
1
1
1
1
1
1
1
1
1
1
1
1
1
1
1
1
1
1
1
1
1
1
1
1
1
1
1
1
1
1
1
1
1
1
1
1
1
1
1
1
1
1
1
1
1
0.9999999
1
1
1
1
1
1
0.9999997
1
1
1
0.9999999
0.9999997
0.9999997
0.9999998
1
1
1
1
1
1
1
1
1
1
1
1
1
1
1
1
1
1
1
1
1
1
1
1
1
1
1
1
1
1
1
1
1
1
1
1
1
1
1
1
1
1
1
1
1
1
1
1
1
1
1
1
1
1
1
1
1
1
1
1
1
1
1
1
1
1
1
1
1
1
1
1
1
1
1
1
1
1
1
1
1
1
1
1
1
1
1
1
1
1
1
1
1
1
1
1
1
1
1
1
1
0.9999999
0.9999998
0.9999999
1
1
1
1
1
1
1
1
0.9999999
0.9999994
0.9999942
0.999957
0.9996861
0.9979562
0.9901933
0.9680612
0.9360517
0.9115163
0.8968965
0.878646
0.8496711
0.8045246
0.6583556
0.3257578
0.1952625
0.216375
0.2723238
0.343734
0.4006709
0.3676989
0.2131102
0.09396299
0.1265936
0.3541859
0.2779675
0.2289535
0.4358419
0.4061545
0.1319765
0.09147589
0.1138406
0.2674681
0.8430297
0.7673645
0.2793134
0.058512
0.05849683
0.2137777
0.4085969
0.3410182
0.196728
0.1045771
0.07103243
0.05849683
0.05849683
0.1558614
0.65254
0.8663391
0.532933
0.1870292
0.2194789
0.5835654
0.8724741
0.8674137
0.8819769
0.9202883
0.7930298
0.3295789
0.1342921
0.1373225
0.2854647
0.7352053
0.9129937
0.9134312
0.908012
0.5389098
0.4272606
0.6647066
0.9187056
0.9644909
0.9655917
0.9742536
0.9912928
0.9830167
0.7355004
0.5511311
0.6820911
0.9315656
0.9934034
0.9966189
0.9953563
0.9838303
0.9839598
0.9936327
0.9989061
0.9998263
0.9998507
0.9998493
0.9998261
0.9997447
0.9986245
0.9913117
0.9901139
0.9947495
0.9989597
0.9996861
0.9997176
0.9998276
0.9999631
0.9999944
0.9999944
0.9999911
0.999868
0.9992219
0.9991437
0.9995595
0.9999302
0.9999726
0.9999721
0.9999673
0.9999579
0.9999122
0.9995425
0.9925179
0.896889
0.8605933
0.9124156
0.9836054
0.9961356
0.979272
0.9764801
0.990269
0.998874
0.9999707
0.999998
0.9999981
0.9999987
0.9999991
0.9999989
0.9999973
0.9999966
0.9999963
0.9999655
0.9996807
0.9991649
0.9982025
0.9850565
0.8966603
0.8817374
0.9231799
0.9858689
0.9906636
0.9789063
0.9437321
0.937962
0.9624423
0.9792947
0.8597648
0.3367027
0.3220201
0.7184411
0.9692725
0.9872142
0.9753129
0.9488119
0.9534205
0.9772148
0.9955521
0.9991726
0.9986319
0.9913826
0.9706724
0.9716377
0.9859999
0.9966835
0.9963965
0.9934776
0.989131
0.9876175
0.9839069
0.9621477
0.8974569
0.9103124
0.9732256
0.9972789
0.9997783
0.9999778
0.9999894
0.9999894
0.9999894
0.9999782
0.9997019
0.9947079
0.9563105
0.9572086
0.9825311
0.9975517
0.9999183
0.9999645
0.9994756
0.9855178
0.9343136
0.9492334
0.9849661
0.9934574
0.9913532
0.9456678
0.9092558
0.9208661
0.9745499
0.9979533
0.9999566
0.9999766
0.9999271
0.9997875
0.9997319
0.9998365
0.999751
0.9975895
0.9332165
0.5668519
0.5189859
0.5189859
0.7008189
0.878611
0.9631453
0.995519
0.9998403
0.9999856
0.9999785
0.999842
0.9979665
0.9803733
0.9600259
0.9699254
0.9905889
0.9991128
0.9996675
0.9979688
0.9830431
0.9744144
0.9856312
0.9971071
0.9997249
0.9999875
0.9999996
0.9999998
0.9999998
0.9999993
0.9999991
0.9999996
0.9999999
1
1
1
1
1
1
1
1
1
1
1
1
0.9999999
0.9999996
0.9999997
0.9999999
1
1
1
1
1
1
1
1
1
1
1
1
1
0.9999997
0.999999
0.9999991
0.9999996
0.9999998
0.9999999
1
0.9999999
0.9999994