/*--------------------------------*- C++ -*----------------------------------*\
| =========                 |                                                 |
| \\      /  F ield         | foam-extend: Open Source CFD                    |
|  \\    /   O peration     | Version:     3.1                                |
|   \\  /    A nd           | Web:         http://www.extend-project.de       |
|    \\/     M anipulation  |                                                 |
\*---------------------------------------------------------------------------*/
FoamFile
{
    version     2.0;
    format      ascii;
    class       volScalarField;
    location    "11.5";
    object      k;
}
// * * * * * * * * * * * * * * * * * * * * * * * * * * * * * * * * * * * * * //

dimensions      [0 2 -2 0 0 0 0];

internalField   nonuniform List<scalar> 
119952
(
0.04056593
0.03621166
0.03449633
0.03353317
0.03252843
0.03136731
0.03092426
0.03086662
0.03103991
0.03135785
0.03175342
0.03214178
0.03247152
0.03273312
0.0329369
0.03310117
0.03324058
0.033373
0.03353365
0.03384991
0.03586745
0.03488377
0.03501965
0.03681015
0.03546483
0.03484741
0.03431028
0.03381943
0.03262815
0.01298311
0.07349835
0.06879516
0.06600867
0.06467285
0.06439164
0.06478945
0.06557282
0.06651508
0.0674706
0.06844332
0.06765131
0.07009956
0.07380114
0.07776646
0.08148184
0.08474465
0.08754548
0.08992544
0.09185591
0.1028823
0.1038776
0.1043605
0.1045071
0.1044659
0.1043589
0.1042607
0.1041999
0.104165
0.1042818
0.1044761
0.1043232
0.1040743
0.1037853
0.1034794
0.1031699
0.1028582
0.1025252
0.1022682
0.1038107
0.1030052
0.1018824
0.1014127
0.1009957
0.1003292
0.0994076
0.09844803
0.09752427
0.09663626
0.09577033
0.09490804
0.09403077
0.09312474
0.09218288
0.09120702
0.09020656
0.08918756
0.08815486
0.0871231
0.08629117
0.0855903
0.08472437
0.0843065
0.08459393
0.08460278
0.08443533
0.08439725
0.08424746
0.08225232
0.080648
0.07940896
0.07833549
0.07733788
0.07634873
0.07534384
0.07430649
0.07323703
0.0721405
0.07102542
0.06990387
0.06878973
0.06769555
0.06663565
0.0656133
0.0646402
0.06374139
0.06295048
0.06230693
0.06185592
0.06164048
0.0616534
0.06188091
0.06230569
0.06289922
0.0636232
0.06443078
0.06526808
0.06607681
0.06679857
0.0673794
0.0677735
0.06794551
0.06787325
0.06756837
0.0670643
0.06640636
0.06564814
0.0648503
0.06407052
0.06335102
0.0627293
0.06222679
0.06185199
0.06160184
0.06146234
0.06140985
0.06140921
0.06142948
0.0614464
0.0614742
0.06140928
0.06124494
0.0609604
0.06048242
0.0597742
0.05876892
0.05743674
0.05595043
0.05499491
0.05539466
0.05735771
0.0603388
0.0637751
0.06694645
0.06904351
0.06976131
0.06942128
0.06848568
0.06739685
0.06629497
0.06513149
0.06384623
0.06244969
0.06104618
0.05973376
0.05859611
0.05768178
0.05701585
0.05660155
0.05642968
0.05648671
0.05675687
0.05722096
0.05785597
0.05863648
0.05953686
0.06053139
0.06159025
0.06267185
0.0637143
0.06462949
0.06530454
0.06560986
0.06540504
0.06458337
0.06319371
0.06144465
0.059553
0.05799082
0.05587505
0.05356132
0.05136368
0.04939402
0.04773796
0.04639804
0.04519646
0.04490397
0.04578232
0.04661488
0.04648041
0.04533879
0.04337664
0.04097347
0.03851331
0.03601569
0.0330944
0.02899745
0.0289378
0.0328227
0.03410419
0.03232304
0.02927482
0.02579765
0.02236382
0.01952713
0.01754283
0.01637104
0.01576811
0.01538478
0.01494134
0.01434572
0.01367178
0.01304383
0.01256056
0.01238882
0.01238544
0.01251442
0.01275924
0.01310437
0.013523
0.01398566
0.01446466
0.01496281
0.01553057
0.01616329
0.01685375
0.01759774
0.0183932
0.01924016
0.02013436
0.02106945
0.0220375
0.02302907
0.02403115
0.02503257
0.02607443
0.02711968
0.02811445
0.02904059
0.02988154
0.03062246
0.0312512
0.03175964
0.0321439
0.03240436
0.03254494
0.03257382
0.03250013
0.03685414
0.03663618
0.03627716
0.03588698
0.03549249
0.03507721
0.03462682
0.03413499
0.03360167
0.03303092
0.03242939
0.03180527
0.0311665
0.03051863
0.02986438
0.02920541
0.02854407
0.02788405
0.02723002
0.02658701
0.02595984
0.02535275
0.02476912
0.0242115
0.02368163
0.02318049
0.02270847
0.02226539
0.02185063
0.02146321
0.0211019
0.02076525
0.02045168
0.02015955
0.0198872
0.019633
0.01939537
0.01917278
0.01896384
0.01876725
0.01858185
0.01840658
0.01824058
0.01808341
0.01793561
0.01779605
0.0176561
0.01751801
0.01738546
0.01725779
0.01713496
0.01701746
0.01690521
0.01681548
0.01675789
0.01661024
0.01646695
0.0163258
0.01618785
0.016055
0.01592897
0.01581132
0.01570315
0.01560504
0.01551701
0.01543859
0.01536911
0.01530761
0.01525312
0.01520462
0.01516112
0.0151217
0.01508558
0.01505211
0.01502068
0.01499077
0.0149619
0.01493372
0.01490592
0.01487828
0.01485062
0.0148228
0.01479473
0.01476636
0.01473765
0.01470858
0.01467916
0.01464936
0.01461922
0.01458875
0.01455798
0.01452697
0.01449574
0.01446437
0.01443293
0.01440147
0.01437009
0.01433885
0.01430785
0.01427715
0.01424685
0.014217
0.0141877
0.01415901
0.01413099
0.01410369
0.01407717
0.01405147
0.01402662
0.01400266
0.0139796
0.01395746
0.01393624
0.01391594
0.01389656
0.01387807
0.01386047
0.01384371
0.01382779
0.01381267
0.0137983
0.01378467
0.01377173
0.01375946
0.01374779
0.01373673
0.0137262
0.0137162
0.01370664
0.01369752
0.01368863
0.0136799
0.01367066
0.01366016
0.01364527
0.0136189
0.01356025
0.01347161
0.01366531
0.08661231
0.08243541
0.0880492
0.09528132
0.1016104
0.106657
0.1106044
0.1137054
0.1162904
0.119187
0.1284252
0.1384
0.1475822
0.1552543
0.1613954
0.1661923
0.1699121
0.1727911
0.1968462
0.1970405
0.1971873
0.1970312
0.1967755
0.1965551
0.1963802
0.1962061
0.1959794
0.1955405
0.1952104
0.1944977
0.193288
0.1918056
0.1901621
0.1884311
0.1866808
0.1849707
0.1833436
0.1820966
0.1808315
0.1793342
0.1778903
0.1765456
0.175309
0.1741932
0.1732009
0.1723083
0.171496
0.1706819
0.1698093
0.168928
0.1680111
0.1670574
0.1660845
0.1651041
0.1641245
0.1631846
0.1731386
0.1718323
0.1705494
0.1692474
0.1678994
0.1665056
0.1650687
0.1636105
0.16213
0.1606353
0.1591778
0.1577459
0.156327
0.1549217
0.1535433
0.152187
0.1508894
0.1496781
0.1486741
0.1476678
0.1463209
0.1449523
0.143644
0.1422277
0.1406443
0.13896
0.1372426
0.1355221
0.1338141
0.1321274
0.1304651
0.1288272
0.1272146
0.1256281
0.1240697
0.1225439
0.1210576
0.1196244
0.1182615
0.1170033
0.1158351
0.1148238
0.114115
0.1136015
0.113113
0.1126313
0.1120714
0.1112015
0.1100298
0.1089484
0.107933
0.1068968
0.1058168
0.1046675
0.1034319
0.1021025
0.1006808
0.0991764
0.09760661
0.09599573
0.09437233
0.0927662
0.09120543
0.08971587
0.08832404
0.08705892
0.08595261
0.08504004
0.08435674
0.08394617
0.08383443
0.08402267
0.08449613
0.08522367
0.08615884
0.08724219
0.08840455
0.08957143
0.09066899
0.09162998
0.09240024
0.0929449
0.09325141
0.09332936
0.09320942
0.09293881
0.09257265
0.09216573
0.09176886
0.09142658
0.09117475
0.09103682
0.09102246
0.09112605
0.0913272
0.09159029
0.09187021
0.09211511
0.09227133
0.09228686
0.09211243
0.09171608
0.09114761
0.09040686
0.08943474
0.08814269
0.08645519
0.0844005
0.08213273
0.07983532
0.07768123
0.07586523
0.07462331
0.07417705
0.07463261
0.0759086
0.07775588
0.07982589
0.08172881
0.083165
0.08395343
0.08399669
0.08336464
0.08222313
0.08078053
0.07927
0.07787889
0.07672785
0.07589367
0.07542298
0.07534057
0.07565156
0.07634157
0.07737728
0.07871204
0.08029511
0.08207823
0.08401015
0.08602192
0.08801008
0.08983561
0.09133406
0.09234509
0.09274149
0.09248022
0.09161812
0.0903014
0.08876962
0.08635348
0.08294149
0.07983688
0.07667032
0.07321472
0.06940993
0.06532002
0.06117401
0.05738497
0.0542445
0.05175973
0.04988373
0.04867205
0.04821815
0.0485768
0.04972913
0.05138817
0.05292992
0.0535277
0.05316042
0.05271987
0.05234473
0.05178145
0.05083946
0.04949475
0.04779371
0.0458125
0.04366404
0.04156657
0.03979041
0.03833991
0.03704744
0.03561781
0.03398787
0.03233926
0.03092385
0.02989971
0.02929802
0.02910057
0.02927098
0.02976901
0.03055088
0.03156338
0.03274758
0.03405235
0.03543892
0.0368732
0.03832632
0.03977711
0.04121284
0.04262968
0.04403102
0.04542493
0.04682137
0.04822896
0.04965222
0.05109073
0.05253856
0.05398581
0.05539315
0.05670977
0.05790175
0.05893841
0.05979331
0.06044641
0.06088621
0.06111007
0.06112097
0.06092529
0.06051883
0.06368407
0.06295123
0.06208189
0.06110405
0.06003933
0.05890948
0.05773298
0.05652329
0.05528944
0.05403748
0.05277312
0.05150464
0.05024042
0.04898593
0.04774334
0.04651356
0.04529837
0.044101
0.0429257
0.04177709
0.04065968
0.03957751
0.038534
0.03753187
0.03657312
0.03565906
0.03479034
0.03396704
0.03318869
0.03245439
0.03176281
0.03111232
0.03050106
0.02992695
0.0293878
0.02888136
0.02840537
0.02795761
0.02753593
0.02713829
0.02676281
0.0264078
0.02607184
0.02575363
0.02545165
0.02516345
0.02488629
0.02461963
0.02436389
0.02411869
0.02388358
0.02365797
0.02344293
0.02324524
0.02305319
0.02285497
0.02265958
0.02247211
0.02229291
0.02212114
0.02195592
0.02179646
0.02164216
0.02149259
0.02134743
0.02120643
0.02106942
0.02093625
0.02080675
0.02068079
0.02055822
0.02043892
0.02032273
0.02020954
0.02009921
0.01999161
0.01988657
0.01978397
0.01968365
0.01958548
0.01948931
0.01939502
0.01930248
0.01921157
0.0191222
0.01903425
0.01894764
0.01886229
0.01877813
0.0186951
0.01861317
0.0185323
0.01845249
0.01837373
0.01829602
0.01821941
0.01814392
0.01806961
0.01799651
0.01792471
0.01785424
0.01778519
0.0177176
0.01765155
0.01758708
0.01752426
0.01746312
0.0174037
0.01734602
0.01729012
0.017236
0.01718366
0.0171331
0.0170843
0.01703723
0.01699187
0.01694817
0.01690608
0.01686556
0.01682653
0.01678895
0.01675273
0.01671783
0.01668412
0.0166516
0.01662009
0.01658962
0.01655989
0.01653103
0.01650247
0.01647445
0.01644573
0.01641649
0.01638367
0.01634692
0.01630234
0.01626296
0.01625545
0.01628687
0.04563278
0.04924807
0.05348966
0.05815153
0.0632756
0.06897046
0.075423
0.08292552
0.09197176
0.1026621
0.1509845
0.1652736
0.1795915
0.1941627
0.208478
0.2222574
0.2353002
0.2508593
0.2759519
0.3318749
0.3432299
0.3529818
0.3614478
0.3690641
0.3755325
0.3810369
0.3855473
0.3890038
0.3918526
0.3943763
0.3972012
0.3992393
0.4000936
0.3998371
0.3986616
0.396749
0.3942568
0.3916098
0.3865749
0.3819983
0.3777553
0.3737515
0.3699021
0.3660921
0.3622486
0.358327
0.3543158
0.3502416
0.3459377
0.3414555
0.3368645
0.3322285
0.3276286
0.3231287
0.3187573
0.3145038
0.3257301
0.3217847
0.3178783
0.314104
0.3104764
0.3069679
0.3035464
0.300168
0.296813
0.2934553
0.2900657
0.286689
0.2833259
0.2799155
0.2764116
0.2727954
0.2690853
0.2653418
0.2616317
0.2579962
0.254496
0.2511713
0.2480217
0.2450496
0.242261
0.2396624
0.2372508
0.2349885
0.2328271
0.2307368
0.2286549
0.2265383
0.2243815
0.2222101
0.2200435
0.2179169
0.2158006
0.2136834
0.2116011
0.2095313
0.2074456
0.2053336
0.2031955
0.2010395
0.1988769
0.1967222
0.1945847
0.1924772
0.1904187
0.1884043
0.1864239
0.1844745
0.1825604
0.1806894
0.1788823
0.1771461
0.17548
0.1737716
0.1719561
0.1700831
0.1681836
0.1662238
0.1641746
0.1620548
0.1599017
0.1577462
0.1556066
0.1534912
0.1514027
0.1493425
0.1473124
0.1453167
0.1433623
0.1414589
0.139619
0.1378595
0.1362012
0.1346636
0.1332513
0.1319843
0.1309015
0.1299863
0.1291617
0.1283538
0.1275241
0.126561
0.1254872
0.124391
0.1233178
0.1222385
0.1211144
0.1199107
0.1186043
0.1171817
0.1156384
0.1139792
0.1122182
0.1103796
0.1084961
0.1066058
0.1047491
0.1029667
0.1012996
0.09978899
0.09847589
0.09740094
0.09660344
0.09612138
0.09599533
0.0962317
0.09681684
0.09771674
0.0988785
0.1002332
0.1016996
0.1031899
0.104617
0.1059017
0.1069817
0.1078201
0.1084085
0.1087664
0.1089394
0.1089895
0.108984
0.108985
0.1090459
0.1092098
0.1095063
0.1099484
0.11053
0.1112249
0.1119883
0.1127598
0.1134681
0.1140388
0.1144034
0.1145101
0.1143294
0.1138498
0.1130684
0.1120626
0.110813
0.1092798
0.1074327
0.1052802
0.1028632
0.1002182
0.09737921
0.09441341
0.09144454
0.08864782
0.08622107
0.08433583
0.08308553
0.08245325
0.08231578
0.08247984
0.08272863
0.08287598
0.08280777
0.08249205
0.0819663
0.08131335
0.0806496
0.08011218
0.07981348
0.07984559
0.0802777
0.08115049
0.08247056
0.08420891
0.08630883
0.08870326
0.09133092
0.09413153
0.09702113
0.09986617
0.1024892
0.1046996
0.1063257
0.1072417
0.1074046
0.1068882
0.1058813
0.1045733
0.102961
0.101217
0.09927473
0.09707614
0.0945475
0.09163817
0.08838289
0.08490905
0.08134674
0.0777479
0.07411953
0.07050392
0.06701055
0.06380698
0.06107247
0.05897359
0.05761894
0.05696842
0.05688391
0.05728481
0.05797162
0.05855559
0.05884163
0.05873118
0.05823531
0.05750197
0.05678778
0.05632481
0.05623618
0.05650405
0.05687689
0.0568857
0.05613034
0.05455984
0.05240729
0.05005247
0.04796448
0.0463617
0.04528866
0.04476214
0.04476141
0.04523242
0.04610119
0.04728424
0.04869842
0.05026513
0.05191352
0.05358522
0.05523853
0.05684846
0.05840598
0.05991569
0.06139196
0.06285469
0.06432507
0.06581923
0.06734474
0.06889806
0.07047438
0.07202814
0.07349582
0.0748265
0.07597603
0.07690727
0.07759269
0.07802115
0.07819278
0.07810931
0.07780664
0.07729378
0.07644676
0.07547415
0.07438477
0.07318859
0.07190659
0.07055917
0.06916281
0.06773044
0.0662715
0.06479089
0.06328877
0.06177333
0.06025661
0.05874633
0.05724709
0.05576205
0.05429438
0.05284838
0.05142908
0.0500415
0.04869029
0.04737953
0.04611265
0.04489244
0.04372105
0.04260003
0.04153036
0.04051246
0.03954623
0.03863109
0.03776603
0.03694965
0.0361802
0.03545569
0.03477386
0.03413236
0.03352871
0.03296042
0.03242501
0.03192008
0.03144335
0.03099269
0.03056612
0.03016173
0.02977757
0.02941151
0.02906138
0.02872569
0.02840377
0.02809492
0.02779854
0.02751366
0.02723947
0.02697453
0.02671914
0.02647355
0.02623826
0.02601199
0.02579318
0.02558102
0.02537534
0.025176
0.0249828
0.02479543
0.02461357
0.02443691
0.02426517
0.02409808
0.02393538
0.02377682
0.02362218
0.02347124
0.0233238
0.0231797
0.02303878
0.02290089
0.0227659
0.02263369
0.02250413
0.02237711
0.02225251
0.02213022
0.02201014
0.02189215
0.02177615
0.02166206
0.02154979
0.02143924
0.02133034
0.02122303
0.02111724
0.02101294
0.02091009
0.02080867
0.02070868
0.02061013
0.02051305
0.02041746
0.02032341
0.02023096
0.02014017
0.02005109
0.0199638
0.01987837
0.01979485
0.01971331
0.01963379
0.01955635
0.01948103
0.01940785
0.01933683
0.01926798
0.01920129
0.01913676
0.01907436
0.01901406
0.01895582
0.01889957
0.01884526
0.01879282
0.01874217
0.01869323
0.01864588
0.01860007
0.01855564
0.01851253
0.01847051
0.01842957
0.0183893
0.01834973
0.01831011
0.01827042
0.01822935
0.018187
0.01814195
0.01809652
0.01805281
0.01801976
0.01800284
0.03505364
0.03950765
0.04348448
0.06656674
0.08987955
0.11873
0.1379863
0.1572676
0.1754645
0.1924184
0.2072194
0.2200795
0.2326895
0.245616
0.2586766
0.2719856
0.2855709
0.2994254
0.3132557
0.3268254
0.3402122
0.3533411
0.3662011
0.3788608
0.3912477
0.4034312
0.4154472
0.4273066
0.4390175
0.4505213
0.4620136
0.4947549
0.5013779
0.5072777
0.5115088
0.5144334
0.5162458
0.5170068
0.5167478
0.5156205
0.5138919
0.5115663
0.508743
0.5055146
0.501935
0.4980391
0.4938659
0.4894592
0.4848647
0.4801155
0.4752238
0.4702736
0.4652608
0.4601977
0.454937
0.4495829
0.444152
0.4386286
0.4330019
0.4272466
0.4213399
0.4152862
0.4091178
0.4028943
0.3967017
0.3905925
0.3846343
0.3787783
0.3727102
0.3669873
0.3616284
0.3566283
0.3519862
0.3476833
0.3436617
0.3398279
0.3360847
0.3323756
0.328703
0.325101
0.3215582
0.3180038
0.3143404
0.310488
0.3064267
0.3022101
0.2979361
0.2937065
0.2895957
0.2856375
0.2818483
0.2782426
0.2748411
0.2716708
0.268747
0.266046
0.2635101
0.2610672
0.2586384
0.2561618
0.2536164
0.2510204
0.2484157
0.2458371
0.2433125
0.2408402
0.2384342
0.236049
0.2336536
0.2312406
0.22881
0.2263702
0.2239371
0.2215241
0.2191439
0.2167992
0.2144678
0.2121346
0.2097964
0.2074533
0.2051158
0.2027993
0.2005262
0.1983108
0.196158
0.1940271
0.1918614
0.1896486
0.1874007
0.185111
0.182764
0.1803638
0.177935
0.1755046
0.1730902
0.1706993
0.1683334
0.1659919
0.163676
0.1613903
0.1591436
0.1569488
0.1548212
0.1527781
0.1508384
0.1490209
0.1473401
0.1458076
0.1444374
0.1432188
0.1421137
0.1410709
0.1400564
0.1390168
0.1379403
0.1368464
0.1357573
0.1346632
0.1335284
0.132318
0.1310051
0.129571
0.1280049
0.1263052
0.1244808
0.1225516
0.1205487
0.1185123
0.1164892
0.1145305
0.1126894
0.1110203
0.1095782
0.108417
0.1075885
0.1071381
0.1071102
0.1075148
0.1083343
0.1095272
0.1110303
0.1127622
0.1146271
0.1165213
0.1183419
0.1199968
0.1214157
0.122568
0.1234584
0.124126
0.1246394
0.1250828
0.1255398
0.1260787
0.126753
0.1275997
0.1286343
0.129849
0.1312095
0.1326561
0.1341079
0.1354694
0.1366373
0.1375106
0.1380066
0.1380774
0.1377174
0.1369534
0.135819
0.1343864
0.1327142
0.1307897
0.1286024
0.1261622
0.1234718
0.1205183
0.1172893
0.1137983
0.1100999
0.1062983
0.1025421
0.09899812
0.09581363
0.09308619
0.09084476
0.08905427
0.08763341
0.08648102
0.08550659
0.08465339
0.08390494
0.08328236
0.08283941
0.08266471
0.08287792
0.08353869
0.08469231
0.08636206
0.08853739
0.09117012
0.094184
0.09749709
0.1010403
0.104743
0.1084906
0.1121033
0.1153687
0.1180865
0.1200882
0.1212755
0.1216348
0.1212671
0.1203928
0.1192397
0.1178796
0.1163141
0.1145541
0.1126066
0.1104032
0.107828
0.1048322
0.1014682
0.0978239
0.09396475
0.08992942
0.08577235
0.0816024
0.07753871
0.07368574
0.07015571
0.06704139
0.0644147
0.06235058
0.06090816
0.06007166
0.05971915
0.05965893
0.05967184
0.05953965
0.0591571
0.05859392
0.05801747
0.0576689
0.05778214
0.05844992
0.05955589
0.06081505
0.06185234
0.06228497
0.06189868
0.0607754
0.05922323
0.05758367
0.05627153
0.05548367
0.05524868
0.05554654
0.05631417
0.05745991
0.05888216
0.0604816
0.06217023
0.06388829
0.06560335
0.06729701
0.06896259
0.070601
0.0722168
0.07382578
0.07544716
0.07708828
0.07874171
0.08038666
0.08199201
0.08349828
0.08485202
0.0860063
0.08692264
0.08756478
0.08792131
0.08800645
0.08782141
0.08737685
0.08670001
0.0857994
0.08473132
0.0835238
0.08219453
0.0807667
0.07926403
0.07770682
0.07611153
0.07449087
0.07285362
0.07119982
0.06953403
0.06786568
0.0661985
0.06453395
0.06287986
0.06124324
0.05963043
0.05804732
0.05649903
0.05498988
0.05352351
0.05210293
0.05073071
0.04940894
0.04813933
0.04692314
0.04576124
0.04465402
0.04360146
0.04260306
0.0416579
0.04076467
0.03992166
0.03912689
0.03837808
0.03767278
0.03700844
0.03638241
0.03579206
0.03523482
0.0347082
0.03420979
0.03373731
0.03328853
0.03286125
0.03245333
0.03206291
0.03168873
0.03132976
0.03098509
0.03065375
0.03033497
0.03002853
0.02973395
0.02944939
0.02917375
0.02890687
0.02864878
0.02839928
0.02815803
0.02792462
0.02769861
0.02747953
0.02726696
0.02706049
0.02685976
0.02666443
0.02647418
0.02628871
0.02610774
0.025931
0.02575828
0.02558937
0.0254241
0.02526231
0.02510385
0.02494859
0.02479643
0.02464724
0.02450091
0.02435735
0.02421643
0.02407806
0.02394213
0.02380855
0.0236772
0.023548
0.02342085
0.02329567
0.02317237
0.02305089
0.02293118
0.02281319
0.02269689
0.02258227
0.02246934
0.02235812
0.02224863
0.02214092
0.02203505
0.02193107
0.02182905
0.02172906
0.02163118
0.02153546
0.02144198
0.02135078
0.02126192
0.02117544
0.02109137
0.02100972
0.02093051
0.02085372
0.02077934
0.02070734
0.02063768
0.02057031
0.02050514
0.02044213
0.02038115
0.02032214
0.02026496
0.02020952
0.02015565
0.02010324
0.02005208
0.02000204
0.01995279
0.01990417
0.01985568
0.01980714
0.01975791
0.01970802
0.01965727
0.01960655
0.01955742
0.01951258
0.01947869
0.01799114
0.02003048
0.02198783
0.02927612
0.03892565
0.05520547
0.06653961
0.07853449
0.09140832
0.1044537
0.1179213
0.1327404
0.1485846
0.1648184
0.1817894
0.2009592
0.2307391
0.2446085
0.258764
0.2730531
0.2876907
0.3021576
0.3161129
0.3296741
0.34301
0.356245
0.369293
0.3821648
0.3950153
0.4078103
0.4205077
0.4330385
0.4453096
0.4572503
0.4688057
0.4799233
0.490514
0.500506
0.5100632
0.5191132
0.5278287
0.5341259
0.5362581
0.538098
0.5391475
0.5389773
0.5376417
0.5352699
0.5320122
0.5280265
0.5234916
0.5186228
0.5135375
0.5083236
0.5030683
0.497849
0.492713
0.4876858
0.4827817
0.4780071
0.4733578
0.4688179
0.4644059
0.4601203
0.4559489
0.4518838
0.4479236
0.4439573
0.439808
0.4355091
0.4310376
0.426356
0.4214313
0.4162745
0.4109449
0.4055534
0.4001876
0.3949089
0.3896934
0.3845517
0.3795986
0.3749273
0.3705949
0.3666557
0.363128
0.3599518
0.3569847
0.3540573
0.3510757
0.3480631
0.3450994
0.342216
0.3393368
0.336301
0.332945
0.3291959
0.3251068
0.3208211
0.3165011
0.3122642
0.3081675
0.3042265
0.3004496
0.2968624
0.293514
0.2904481
0.2876528
0.2850565
0.2825652
0.2800779
0.2775036
0.2748048
0.2720079
0.2691763
0.2663699
0.2636313
0.2609754
0.258393
0.2558542
0.2533293
0.2507995
0.248253
0.2456776
0.2430742
0.2404671
0.2378792
0.2353208
0.2327857
0.230254
0.2277027
0.2251187
0.2225073
0.2198888
0.2172935
0.2147494
0.2122698
0.2098407
0.2074266
0.2050014
0.2025541
0.2000738
0.1975503
0.1949867
0.1924008
0.1898144
0.1872432
0.1846937
0.1821666
0.1796601
0.1771738
0.1747113
0.1722815
0.1698981
0.1675775
0.1653373
0.1631953
0.1611685
0.1592722
0.157519
0.1559194
0.1544714
0.1531551
0.1519389
0.1507913
0.1496783
0.1485803
0.1474915
0.1464116
0.1453267
0.1442066
0.1430191
0.1417354
0.1403327
0.1387962
0.1371203
0.1353101
0.1333821
0.131363
0.1292957
0.127233
0.1252346
0.1233648
0.1216906
0.1202796
0.1191993
0.1185136
0.1182786
0.1185393
0.1193039
0.1205414
0.1221992
0.1242057
0.1264674
0.1288725
0.1312993
0.1336289
0.1357582
0.1376148
0.1391724
0.1404549
0.1415339
0.1425154
0.1435139
0.1446266
0.1459185
0.1474336
0.1491894
0.151175
0.1533496
0.1556362
0.1579274
0.1600969
0.1620089
0.163527
0.1645272
0.1649188
0.1646682
0.163809
0.1624239
0.1606027
0.158421
0.1559986
0.1533629
0.1505351
0.1475235
0.1443124
0.1408679
0.1371526
0.1331678
0.1289532
0.1245857
0.1201753
0.1158486
0.1117252
0.1079026
0.1044477
0.1013951
0.09874802
0.09648611
0.09457688
0.09299256
0.09172707
0.09079964
0.09024985
0.09012957
0.09052323
0.0915433
0.09319961
0.09547534
0.0983203
0.101653
0.1053755
0.109395
0.1136363
0.1180095
0.1223449
0.1264144
0.1300018
0.1329249
0.1350408
0.1362745
0.1366454
0.1362761
0.1353914
0.1342305
0.1328848
0.1313763
0.1297836
0.1281665
0.126407
0.1242301
0.1214314
0.1180087
0.1141032
0.1098752
0.1054433
0.1009005
0.09633852
0.09182543
0.08740482
0.08311961
0.07901481
0.07515256
0.07163002
0.06856325
0.06603845
0.0640728
0.06262183
0.0615802
0.06079445
0.06011918
0.05944959
0.05873663
0.05804798
0.05758022
0.05756602
0.05817937
0.05938758
0.06110121
0.06311062
0.06509692
0.06667298
0.06750008
0.06749353
0.06688835
0.06606967
0.06535511
0.06502708
0.06519574
0.06584042
0.06688055
0.06821952
0.06974802
0.07138918
0.07310517
0.07486374
0.07664086
0.0784169
0.08017063
0.0818987
0.08361503
0.08532698
0.08702451
0.08867763
0.09025214
0.09169767
0.09296225
0.09399515
0.09477108
0.09525679
0.09543126
0.09531966
0.09494392
0.09432564
0.09347908
0.09242382
0.09120164
0.08984222
0.08836694
0.08679848
0.08515966
0.08347116
0.08175074
0.08001263
0.07826741
0.07652319
0.07478309
0.07304947
0.07132158
0.06959342
0.06787032
0.0661626
0.0644788
0.06282532
0.06120676
0.05962653
0.05808731
0.05659138
0.05514081
0.05373754
0.05238337
0.05107994
0.04982867
0.04863065
0.04748662
0.0463969
0.04536135
0.04437938
0.04344995
0.04257158
0.04174244
0.04096037
0.040223
0.03952774
0.03887193
0.03825288
0.0376679
0.03711436
0.03658971
0.03609151
0.03561738
0.03516511
0.03473268
0.0343185
0.03392124
0.03353978
0.0331731
0.03282034
0.03248074
0.03215335
0.03183697
0.03153095
0.03123496
0.0309487
0.03067173
0.03040358
0.03014376
0.02989183
0.02964741
0.0294101
0.0291795
0.02895523
0.02873692
0.02852423
0.02831682
0.0281144
0.02791668
0.02772341
0.02753438
0.02734939
0.02716828
0.02699091
0.02681714
0.02664686
0.02647996
0.02631635
0.02615592
0.02599857
0.02584419
0.02569269
0.02554395
0.02539786
0.02525432
0.02511322
0.02497444
0.0248379
0.02470349
0.02457113
0.02444076
0.02431231
0.02418576
0.02406107
0.02393825
0.0238173
0.02369827
0.02358119
0.02346611
0.0233531
0.02324222
0.02313356
0.02302717
0.02292314
0.02282152
0.02272238
0.02262577
0.02253173
0.02244028
0.02235145
0.02226525
0.02218165
0.02210064
0.02202218
0.02194622
0.02187268
0.0218015
0.02173257
0.0216658
0.02160104
0.02153818
0.02147705
0.02141751
0.02135933
0.02130235
0.02124629
0.02119091
0.02113589
0.02108101
0.02102595
0.02097069
0.0209153
0.02086015
0.02080645
0.02075495
0.02071304
0.007672345
0.009057163
0.01009956
0.01516532
0.02095765
0.02854326
0.03470975
0.04165992
0.0491403
0.05707737
0.06576288
0.07593796
0.08705711
0.09943004
0.1142467
0.1373333
0.1491953
0.1616477
0.1742846
0.1870721
0.1999644
0.2128694
0.2256723
0.2383021
0.2506536
0.2626461
0.2744922
0.2874438
0.3007144
0.3143205
0.3283252
0.3423769
0.3561398
0.3695475
0.3826624
0.3953052
0.4076572
0.4198063
0.431785
0.4435718
0.4551016
0.4662926
0.477042
0.4872409
0.496797
0.5055942
0.5136338
0.5206527
0.5268458
0.531404
0.5343383
0.5352929
0.5339427
0.5313
0.5272381
0.5219638
0.5157533
0.5088593
0.501515
0.4939336
0.4863034
0.4787865
0.4715191
0.4646051
0.4581246
0.4521394
0.4466742
0.4417145
0.4372231
0.4331523
0.4294475
0.4260646
0.4229944
0.4202564
0.4178868
0.4158461
0.4139862
0.4121294
0.4102928
0.4084244
0.4064307
0.4042065
0.4016585
0.3987577
0.3955581
0.3921962
0.3888036
0.3854406
0.3821082
0.3788147
0.3756231
0.3726393
0.3699883
0.3677757
0.3660217
0.3646135
0.3633086
0.3618393
0.360082
0.3581162
0.3561096
0.3541516
0.3521682
0.34995
0.3472716
0.3440451
0.3403242
0.3362701
0.3320994
0.327986
0.324012
0.320187
0.3165028
0.3129955
0.3097308
0.306771
0.3040977
0.3016155
0.2992186
0.2967929
0.2942278
0.2914908
0.2886272
0.285711
0.2828187
0.2800018
0.2772779
0.2746347
0.2720341
0.2694359
0.2668138
0.2641523
0.2614445
0.2587012
0.2559529
0.2532315
0.2505512
0.2479035
0.2452585
0.242579
0.2398397
0.2370391
0.2342008
0.2313665
0.2285766
0.2258579
0.2232125
0.2206196
0.2180516
0.2154848
0.2129004
0.2102868
0.207644
0.2049836
0.2023216
0.1996699
0.197034
0.1944141
0.1918082
0.1892155
0.1866397
0.1840904
0.1815823
0.1791327
0.1767595
0.1744798
0.17231
0.1702652
0.1683597
0.1666065
0.1650103
0.1635615
0.1622385
0.1610137
0.1598581
0.1587499
0.1576748
0.1566174
0.1555555
0.1544602
0.1533
0.1520445
0.1506686
0.1491554
0.1474983
0.1457032
0.1437903
0.1417925
0.1397568
0.1377426
0.1358181
0.1340579
0.1325402
0.1313447
0.1305501
0.1302307
0.1304514
0.1312595
0.1326574
0.1346072
0.1370444
0.1398801
0.1429987
0.14626
0.1495106
0.152606
0.1554271
0.157899
0.1600104
0.1618268
0.1634795
0.1651327
0.1669313
0.1689645
0.1712694
0.173853
0.1766997
0.1797613
0.1829467
0.1861201
0.1891173
0.1917675
0.1939064
0.195384
0.1960762
0.1959057
0.19487
0.1930588
0.1906283
0.1877309
0.1844569
0.1809513
0.1772847
0.1735143
0.1696507
0.1656595
0.1614982
0.1571407
0.152586
0.1478662
0.1430368
0.1381879
0.1334162
0.1287997
0.1244095
0.1203211
0.1166007
0.1132912
0.1104069
0.1079428
0.1058945
0.1042768
0.1031261
0.1024927
0.1024293
0.1029768
0.1042279
0.1062245
0.108911
0.1121988
0.1159818
0.1201547
0.1246222
0.1293175
0.1341409
0.1388778
0.1432582
0.1470533
0.1500842
0.1522133
0.1533703
0.153618
0.153115
0.1520901
0.1507732
0.1492728
0.1476324
0.1459871
0.144448
0.1428572
0.1407965
0.1379639
0.1342606
0.129899
0.1251838
0.1203303
0.1154664
0.1106359
0.1058418
0.1010686
0.09631314
0.0915982
0.08697327
0.08251827
0.07832805
0.07449284
0.07109681
0.06819714
0.06579636
0.06384062
0.06224692
0.0609095
0.05971469
0.058618
0.05769579
0.05709576
0.0569612
0.05738143
0.05842417
0.06011833
0.06235836
0.06501516
0.06781164
0.07035381
0.07225632
0.07333684
0.0737264
0.07375921
0.07378449
0.07403338
0.07460269
0.07551621
0.07671908
0.0781479
0.07974146
0.08144756
0.08322396
0.0850373
0.08686207
0.0886708
0.09044268
0.09217077
0.09382893
0.09537245
0.09676004
0.09795681
0.09892452
0.09960811
0.100002
0.100114
0.09995013
0.09951868
0.09884074
0.09794533
0.09686165
0.09561598
0.09423689
0.09275102
0.09118061
0.08954428
0.08785842
0.08613837
0.0843986
0.08265127
0.08090509
0.07916537
0.07743491
0.07571594
0.0740123
0.07232375
0.07064177
0.06897393
0.06732786
0.06570895
0.06412049
0.06256465
0.06104307
0.05955725
0.05810878
0.05669944
0.0553312
0.0540061
0.05272621
0.05149345
0.05030951
0.04917573
0.04809302
0.04706179
0.04608192
0.0451528
0.04427331
0.0434419
0.04265662
0.04191523
0.04121528
0.04055416
0.03992919
0.03933768
0.03877699
0.03824454
0.03773788
0.03725469
0.0367929
0.03635071
0.0359266
0.03551926
0.03512755
0.03475042
0.03438693
0.03403615
0.03369727
0.03336961
0.03305263
0.03274585
0.03244883
0.03216107
0.03188204
0.0316113
0.03134845
0.03109309
0.03084481
0.03060323
0.03036797
0.03013866
0.02991497
0.02969659
0.02948321
0.02927459
0.02907049
0.02887072
0.02867511
0.0284835
0.0282958
0.02811189
0.02793168
0.02775508
0.027582
0.02741235
0.02724604
0.02708295
0.026923
0.02676606
0.02661202
0.02646076
0.02631215
0.02616608
0.02602241
0.02588106
0.02574191
0.02560488
0.02546991
0.02533695
0.02520598
0.02507699
0.02494998
0.024825
0.02470208
0.02458128
0.02446267
0.02434631
0.02423229
0.02412068
0.02401156
0.02390498
0.02380102
0.02369972
0.02360114
0.02350529
0.02341219
0.02332185
0.02323424
0.02314935
0.02306711
0.02298747
0.02291035
0.02283565
0.02276325
0.02269304
0.02262485
0.02255855
0.02249394
0.02243084
0.02236904
0.02230829
0.02224838
0.02218905
0.0221301
0.02207135
0.02201276
0.02195443
0.02189655
0.02184004
0.02178514
0.02173944
0.001719074
0.007042483
0.01077623
0.01520862
0.02019982
0.0259288
0.03246542
0.03964752
0.04765985
0.05727195
0.07189968
0.08041194
0.08955231
0.0990793
0.1090075
0.1192755
0.1298277
0.1405734
0.1513784
0.1621584
0.1729547
0.185089
0.1973765
0.2096694
0.2219045
0.2340405
0.2460365
0.2578377
0.2695091
0.2810485
0.2924536
0.3039491
0.3158748
0.3280855
0.3406578
0.3534603
0.3661859
0.3785568
0.3904559
0.4017442
0.4126509
0.4233255
0.4338521
0.4442532
0.4544939
0.4644709
0.4740985
0.4832633
0.4917552
0.4994002
0.5060707
0.5116593
0.5149914
0.5166871
0.5164718
0.5142914
0.5100905
0.5040166
0.496488
0.4878068
0.4783203
0.4683714
0.4582723
0.4482875
0.4386339
0.4294748
0.4209289
0.4130937
0.4060481
0.3998551
0.3945571
0.3901646
0.3866134
0.3838092
0.3816402
0.3799951
0.3788432
0.3781564
0.3778151
0.3776384
0.3778286
0.3784502
0.3794465
0.3806927
0.3819829
0.3830903
0.3838038
0.3839765
0.383601
0.3828116
0.3818197
0.3807868
0.3797464
0.3786901
0.3776549
0.3767132