/*--------------------------------*- C++ -*----------------------------------*\
| =========                 |                                                 |
| \\      /  F ield         | foam-extend: Open Source CFD                    |
|  \\    /   O peration     | Version:     3.1                                |
|   \\  /    A nd           | Web:         http://www.extend-project.de       |
|    \\/     M anipulation  |                                                 |
\*---------------------------------------------------------------------------*/
FoamFile
{
    version     2.0;
    format      ascii;
    class       volScalarField;
    location    "11.5";
    object      p;
}
// * * * * * * * * * * * * * * * * * * * * * * * * * * * * * * * * * * * * * //

dimensions      [1 -1 -2 0 0 0 0];

internalField   nonuniform List<scalar> 
119952
(
6835.213
6298.566
6240.003
6356.887
6477.115
6443.038
6453.043
6468.087
6487.607
6508.559
6530.23
6551.946
6573.082
6593.356
6612.533
6630.308
6646.399
6659.723
6665.952
6644.838
6805.885
6733.931
6717.623
6923.128
6909.925
6948.674
6974.626
7040.038
7223.236
7750.07
4463.543
4466.48
4493.829
4526.537
4558.555
4590.112
4622.271
4655.664
4689.074
4702.994
4720.8
4758.487
4788.984
4820.451
4853.351
4888.048
4923.566
4959.764
4997.673
5041.787
5057.303
5091.906
5132.681
5173.764
5216.787
5261.101
5306.23
5352.4
5399.577
5439.774
5490.964
5541.891
5592.882
5645.033
5698.12
5752.273
5810.106
5889.489
6003.873
5985.019
6014.486
6084.758
6134.495
6158.8
6175.438
6195.767
6217.514
6239.573
6261.904
6284.025
6305.501
6326.103
6345.629
6363.977
6380.817
6396.135
6410.35
6425.956
6452.933
6478.374
6493.675
6552.354
6627.462
6653.017
6677.391
6700.247
6686.864
6584.009
6580.231
6616.992
6640.531
6665.193
6688.378
6709.973
6730.72
6750.614
6769.682
6787.863
6805.135
6821.518
6837.069
6851.881
6866.062
6879.585
6892.551
6905.085
6917.319
6929.364
6941.363
6953.408
6965.557
6977.844
6990.269
7002.794
7015.339
7027.795
7040.035
7051.92
7063.315
7074.089
7084.131
7093.322
7101.538
7108.67
7114.608
7119.144
7122.082
7123.302
7122.748
7120.448
7116.277
7110.287
7102.539
7093.132
7082.216
7070.349
7059.687
7050.625
7041.951
7031.089
7021.938
7015.796
7013.857
7015.675
7021.143
7029.144
7033.242
7026.008
7013.966
7009.275
7013.653
7023.11
7033.265
7039.52
7040.562
7038.621
7036.84
7036.954
7039.52
7044.032
7050.034
7056.554
7062.902
7069.504
7075.848
7082.009
7088.02
7093.878
7099.488
7104.705
7109.339
7113.168
7115.948
7117.442
7117.449
7115.83
7112.527
7107.52
7100.787
7092.3
7082.047
7070.145
7057.141
7043.931
7031.499
7021.661
7016.641
7055.996
7070.35
7074.267
7099.601
7123.765
7152.066
7176.353
7192.597
7196.019
7208.878
7236.742
7269.98
7302.633
7331.731
7355.627
7375.306
7392.495
7406.824
7406.311
7380.215
7385.184
7402.632
7419.265
7433.521
7445.216
7454.092
7459.584
7461.359
7459.199
7454.419
7449.468
7445.948
7443.966
7442.671
7441.098
7439.165
7440.579
7440.947
7440.285
7438.521
7435.63
7431.455
7425.911
7418.918
7410.536
7400.703
7389.56
7377.294
7364.11
7350.313
7336.287
7322.476
7309.387
7297.56
7287.526
7279.742
7274.667
7272.738
7274.038
7278.648
7286.541
7297.507
7311.193
7327.142
7344.814
7363.628
7383.014
7402.434
7421.379
7439.445
7428.697
7443.265
7456.397
7468.335
7478.791
7487.767
7495.32
7501.507
7506.42
7510.169
7512.863
7514.611
7515.52
7515.693
7515.224
7514.188
7512.657
7510.696
7508.371
7505.741
7502.86
7499.78
7496.545
7493.193
7489.759
7486.27
7482.753
7479.229
7475.714
7472.226
7468.775
7465.373
7462.029
7458.747
7455.534
7452.394
7449.33
7446.346
7443.442
7440.625
7437.899
7435.275
7432.771
7430.415
7428.187
7425.815
7422.928
7419.827
7416.942
7414.205
7411.56
7409.013
7406.472
7403.156
7397.422
7397.198
7395.451
7393.049
7390.797
7388.548
7386.345
7384.21
7382.142
7380.138
7378.19
7376.293
7374.453
7372.668
7370.936
7369.255
7367.622
7366.036
7364.497
7363.004
7361.555
7360.151
7358.79
7357.472
7356.196
7354.962
7353.768
7352.615
7351.501
7350.425
7349.386
7348.383
7347.416
7346.483
7345.583
7344.715
7343.878
7343.07
7342.29
7341.537
7340.81
7340.107
7339.428
7338.77
7338.132
7337.514
7336.914
7336.331
7335.763
7335.209
7334.666
7334.134
7333.611
7333.095
7332.583
7332.073
7331.563
7331.049
7330.528
7329.997
7329.452
7328.887
7328.298
7327.679
7327.022
7326.321
7325.568
7324.751
7323.86
7322.882
7321.8
7320.597
7319.248
7317.726
7315.994
7314.004
7311.694
7308.968
7305.693
7301.647
7296.465
7289.812
7283.161
7286.701
7320.436
5320.079
5209.856
5081.492
4965.873
4859.832
4764.547
4680.532
4607.511
4545.652
4466.752
4422.025
4386.97
4357.143
4332.8
4313.499
4297.287
4282.92
4267.392
4221.376
4221.311
4196.169
4171.152
4152.131
4133.55
4115.873
4099.894
4085.477
4076.157
4072.585
4060.327
4063.341
4071.076
4081.885
4096.611
4114.354
4134.945
4158.667
4187.836
4198.13
4227.082
4256.68
4285.842
4314.94
4344.149
4373.558
4402.995
4430.336
4458.666
4491.573
4522.552
4553.396
4585.514
4619.053
4654.004
4690.288
4729.386
4713.759
4755.815
4795.26
4835.194
4876.778
4919.966
4964.265
5009.377
5055.122
5101.948
5150.38
5198.818
5248.024
5298.857
5351.713
5406.666
5464.27
5524.171
5585.874
5643.879
5688.24
5726.143
5767.684
5808.369
5841.883
5868.631
5892.545
5916.119
5939.796
5963.166
5985.81
6007.514
6028.206
6047.849
6066.468
6084.243
6101.616
6119.491
6139.153
6161.95
6188.45
6218.463
6253.422
6290.739
6319.983
6337.389
6342.421
6335.72
6319.708
6312.817
6325.455
6346.611
6368.835
6389.997
6410.446
6430.605
6450.419
6469.657
6488.105
6505.665
6522.334
6538.111
6552.999
6567.029
6580.256
6592.785
6604.754
6616.325
6627.705
6638.888
6650.162
6661.586
6673.188
6684.977
6696.908
6708.891
6720.817
6732.561
6744.006
6755.053
6765.604
6775.553
6784.803
6793.234
6800.675
6806.921
6811.732
6814.831
6816.018
6815.218
6812.372
6807.48
6800.586
6791.816
6781.409
6769.742
6757.345
6744.834
6732.731
6721.387
6711.285
6702.746
6696.793
6694.094
6694.55
6697.172
6700.642
6703.861
6704.489
6702.857
6704.465
6710.449
6719.212
6728.163
6735.068
6738.626
6740.118
6741.527
6743.698
6746.709
6750.36
6754.368
6758.749
6763.659
6767.959
6772.83
6777.555
6782.339
6787.034
6791.495
6795.557
6799.023
6801.666
6803.243
6803.49
6802.172
6799.136
6794.34
6787.783
6779.5
6769.474
6757.824
6744.915
6731.528
6718.775
6708.44
6701.305
6699.854
6769.689
6779.575
6792.787
6811.197
6835.1
6859.532
6883.22
6903.183
6919.824
6940.023
6966.39
6995.768
7025.194
7052.122
7075.629
7095.456
7110.388
7120.519
7120.043
7112.889
7120.074
7134.483
7149.413
7162.793
7174.117
7182.948
7188.364
7189.731
7186.576
7180.559
7174.793
7170.962
7168.989
7167.939
7167.111
7166.708
7166.926
7167.017
7166.327
7164.684
7161.89
7157.818
7152.357
7145.432
7137.033
7127.19
7116.011
7103.657
7090.343
7076.35
7062.044
7047.875
7034.358
7022.045
7011.472
7003.136
6997.476
6994.879
6995.57
6999.534
7006.812
7017.198
7030.355
7045.833
7063.1
7081.574
7100.687
7119.935
7138.931
7157.702
7114.369
7130.729
7145.347
7157.37
7167.698
7176.652
7184.221
7190.425
7195.367
7199.172
7201.94
7203.758
7204.744
7205.014
7204.655
7203.738
7202.333
7200.506
7198.322
7195.838
7193.109
7190.18
7187.095
7183.889
7180.594
7177.24
7173.85
7170.445
7167.042
7163.659
7160.306
7156.996
7153.736
7150.535
7147.397
7144.327
7141.328
7138.403
7135.555
7132.786
7130.098
7127.49
7124.959
7122.479
7120.001
7117.444
7114.745
7111.958
7109.203
7106.528
7103.919
7101.346
7098.741
7095.921
7092.794
7090.033
7087.867
7085.841
7083.697
7081.467
7079.253
7077.109
7075.035
7073.021
7071.064
7069.161
7067.315
7065.525
7063.788
7062.102
7060.465
7058.878
7057.337
7055.843
7054.394
7052.991
7051.631
7050.315
7049.041
7047.81
7046.62
7045.47
7044.36
7043.288
7042.255
7041.258
7040.296
7039.37
7038.477
7037.616
7036.786
7035.986
7035.214
7034.469
7033.751
7033.057
7032.386
7031.737
7031.109
7030.5
7029.909
7029.335
7028.775
7028.23
7027.696
7027.173
7026.657
7026.149
7025.644
7025.142
7024.638
7024.131
7023.617
7023.091
7022.551
7021.991
7021.407
7020.792
7020.14
7019.443
7018.694
7017.882
7016.998
7016.027
7014.957
7013.767
7012.441
7010.95
7009.271
7007.357
7005.181
7002.675
6999.837
6996.67
6993.493
6990.934
6990.26
6992.176
6997.14
3318.684
3360.645
3419.228
3490.972
3575.065
3671.027
3778.45
3897.105
4026.459
4163.663
4292.729
4445.223
4602.326
4763.665
4927.665
5092.311
5253.567
5410.175
5560.433
5685.953
5812.717
5926.125
6022.195
6098.546
6153.612
6186.085
6194.887
6179.607
6144.898
6085.733
6005.984
5908.903
5797.796
5675.462
5544.855
5408.92
5270.852
5133.988
4989.869
4860.869
4736.95
4621.685
4516.424
4421.62
4338.31
4266.852
4207.386
4158.119
4115.628
4083.601
4057.9
4037.185
4020.613
4006.662
3994.59
3989.812
3895.013
3880.022
3867.566
3851.236
3832.1
3812.55
3794.034
3777.32
3763.263
3752.439
3746.097
3745.698
3749.832
3758.012
3770.455
3786.952
3806.821
3829.365
3853.923
3880.088
3907.582
3934.76
3962.193
3990.268
4018.725
4047.156
4075.417
4103.463
4131.723
4160.788
4190.133
4220.039
4251.073
4283.51
4317.147
4352.046
4387.777
4425.785
4467.329
4507.179
4545.665
4585.543
4627.534
4671.056
4715.55
4760.705
4806.649
4853.206
4900.47
4948.893
4998.851
5050.49
5103.797
5158.679
5214.656
5272.088
5329.047
5384.51
5432.546
5473.605
5513.716
5553.455
5589.205
5619.484
5646.315
5671.896
5696.935
5721.236
5744.516
5766.656
5787.667
5807.633
5826.703
5845.138
5863.362
5881.947
5901.692
5923.527
5947.687
5973.759
6002.077
6031.005
6054.856
6070.657
6078.996
6081.007
6078.007
6077.475
6087.947
6106.54
6127.109
6147.377
6167.382
6187.381
6207.291
6226.82
6245.688
6263.727
6280.867
6297.046
6312.218
6326.371
6339.54
6351.824
6363.371
6374.374
6385.068
6395.59
6406.136
6416.818
6427.739
6438.918
6450.303
6461.8
6473.3
6484.688
6495.871
6506.812
6517.432
6527.61
6537.262
6546.291
6554.516
6561.63
6567.235
6570.924
6572.439
6571.763
6568.754
6563.408
6555.826
6546.18
6534.716
6521.809
6507.924
6493.661
6479.698
6466.565
6454.823
6444.977
6437.555
6434.051
6433.396
6435.346
6438.92
6442.785
6445.804
6448.714
6453.694
6461.31
6470.713
6480.54
6489.418
6496.515
6501.744
6505.585
6509.091
6512.449
6515.981
6519.638
6523.4
6527.201
6530.826
6534.359
6538.126
6541.748
6545.245
6548.524
6551.423
6553.754
6555.286
6555.762
6554.914
6552.471
6548.245
6542.192
6534.253
6524.649
6513.257
6500.165
6485.923
6471.534
6458.366
6447.677
6439.865
6436.506
6441.672
6453.738
6468.719
6487.328
6510.126
6535.252
6560.375
6584.322
6606.807
6629.102
6652.944
6678.247
6703.338
6726.838
6747.67
6765.62
6780.844
6791.448
6798.36
6804.813
6814.864
6829.222
6843.914
6856.782
6867.169
6874.644
6879.047
6880.378
6879.006
6876.083
6872.806
6869.232
6865.627
6862.999
6862.245
6862.537
6862.832
6863.011
6862.515
6860.756
6857.734
6853.43
6847.66
6840.337
6831.466
6821.093
6809.329
6796.347
6782.352
6767.601
6752.489
6737.51
6723.243
6710.301
6699.257
6690.61
6684.812
6682.225
6683.109
6687.503
6695.355
6706.43
6720.35
6736.613
6754.629
6773.703
6793.275
6812.863
6831.763
6849.329
6864.854
6880.397
6894.717
6907.007
6917.589
6926.714
6934.422
6940.754
6945.823
6949.78
6952.746
6954.77
6955.954
6956.436
6956.273
6955.525
6954.276
6952.601
6950.566
6948.229
6945.644
6942.855
6939.904
6936.827
6933.654
6930.413
6927.129
6923.821
6920.509
6917.208
6913.931
6910.69
6907.493
6904.349
6901.263
6898.241
6895.285
6892.398
6889.582
6886.836
6884.159
6881.545
6878.984
6876.455
6873.931
6871.381
6868.768
6866.096
6863.419
6860.787
6858.203
6855.652
6853.127
6850.725
6848.555
6846.241
6843.712
6841.147
6838.666
6836.289
6834.01
6831.82
6829.709
6827.669
6825.691
6823.772
6821.909
6820.103
6818.351
6816.651
6815.001
6813.4
6811.847
6810.342
6808.882
6807.468
6806.098
6804.772
6803.49
6802.25
6801.052
6799.895
6798.778
6797.701
6796.662
6795.66
6794.695
6793.765
6792.869
6792.006
6791.176
6790.375
6789.604
6788.861
6788.144
6787.453
6786.785
6786.14
6785.516
6784.912
6784.327
6783.758
6783.205
6782.667
6782.14
6781.624
6781.117
6780.617
6780.121
6779.628
6779.135
6778.638
6778.135
6777.623
6777.096
6776.551
6775.983
6775.386
6774.754
6774.081
6773.358
6772.577
6771.728
6770.8
6769.781
6768.655
6767.408
6766.02
6764.473
6762.747
6760.829
6758.719
6756.464
6754.174
6752.078
6750.461
6749.692
6750.194
6752.279
3077.257
3061.735
3043.862
3014.318
2999.549
2962.104
2965.595
2982.366
3009.714
3020.717
3017.346
3026.676
3052.52
3092.717
3146.67
3213.166
3291.22
3380.65
3481.514
3592.084
3712.893
3843.235
3981.621
4127.672
4279.771
4435.789
4594.265
4753.281
4910.93
5065.186
5213.645
5318.886
5449.804
5559.238
5650.718
5723.09
5773.91
5801.719
5805.969
5787.137
5746.52
5684.182
5601.403
5501.216
5387.116
5262.391
5130.16
4993.429
4854.978
4717.462
4583.305
4455.045
4334.208
4222.456
4121.218
4031.917
3955.277
3890.889
3838.058
3795.877
3762.929
3737.795
3719.039
3705.038
3694.106
3684.685
3675.086
3663.936
3648.403
3633.471
3618.518
3599.985
3578.87
3557.3
3536.525
3517.439
3501.052
3488.996
3482.64
3481.881
3486.512
3496.413
3511.049
3529.627
3551.406
3575.839
3602.575
3631.04
3659.979
3688.897
3717.891
3746.873
3775.548
3803.643
3831.137
3858.283
3885.329
3912.752
3941.162
3970.69
4001.458
4033.632
4067.257
4102.233
4138.812
4176.706
4215.469
4254.632
4294.349
4335.319
4377.721
4421.106
4464.998
4509.355
4554.267
4599.924
4646.803
4695.233
4745.226
4796.951
4850.363
4905.262
4961.134
5017.544
5073.137
5126.732
5175.918
5220.313
5262.083
5302.054
5338.9
5371.711
5401.293
5428.945
5455.329
5480.5
5504.352
5526.861
5548.105
5568.236
5587.457
5606.051
5624.393
5642.955
5662.286
5682.852
5704.814
5727.906
5751.584
5774.707
5794.761
5810.102
5820.657
5827.488
5831.716
5837.379
5849.125
5865.894
5884.917
5904.608
5924.527
5944.616
5964.713
5984.531
6003.784
6022.263
6039.83
6056.37
6071.796
6086.067
6099.202
6111.293
6122.494
6133.011
6143.082
6152.942
6162.783
6172.829
6183.192
6193.896
6204.878
6216.022
6227.212
6238.34
6249.315
6260.195
6270.983
6281.573
6291.853
6301.71
6310.901
6319.091
6325.849
6330.478
6332.374
6331.87
6328.75
6322.923
6314.534
6303.776
6290.896
6276.277
6260.423
6243.946
6227.539
6211.915
6197.841
6186.111
6177.752
6172.258
6170.78
6172.523
6176.45
6181.678
6187.613
6194.156
6201.816
6210.952
6221.213
6231.791
6241.893
6250.931
6258.623
6265.113
6271.073
6276.635
6281.805
6286.496
6290.814
6294.572
6297.718
6300.471
6303.047
6305.434
6307.674
6309.68
6311.309
6312.386
6312.716
6312.046
6310.042
6306.31
6300.646
6293.118
6283.95
6273.291
6260.622
6245.902
6229.895
6213.754
6198.87
6186.45
6176.611
6173.274
6178.468
6190.021
6205.02
6224.422
6248.18
6274.661
6301.816
6327.68
6351.176
6373.242
6395.365
6418.646
6442.318
6464.637
6484.679
6501.72
6516.562
6529.832
6540.818
6551.103
6563.799
6578.582
6592.927
6605.467
6615.885
6623.921
6629.847
6633.487
6633.574
6629.744
6624.822
6622.24
6622.908
6624.297
6624.117
6622.982
6622.039
6621.657
6620.842
6618.978
6616.106
6611.982
6606.191
6598.705
6589.63
6579.012
6566.944
6553.603
6539.092
6523.601
6507.585
6491.597
6476.28
6462.325
6450.295
6440.676
6433.97
6430.607
6430.86
6434.843
6442.499
6453.612
6467.756
6484.382
6502.945
6522.604
6542.635
6562.582
6581.901
6600.221
6617.231
6633.253
6647.771
6660.4
6671.208
6680.369
6688.007
6694.229
6699.165
6702.95
6705.706
6707.561
6708.682
6709.235
6709.209
6708.544
6707.336
6705.697
6703.702
6701.411
6698.876
6696.142
6693.248
6690.229
6687.115
6683.932
6680.704
6677.45
6674.19
6670.937
6667.707
6664.509
6661.353
6658.247
6655.197
6652.206
6649.28
6646.418
6643.621
6640.888
6638.215
6635.597
6633.021
6630.476
6627.941
6625.397
6622.823
6620.22
6617.613
6615.034
6612.492
6609.99
6607.536
6605.134
6602.724
6600.225
6597.716
6595.292
6592.964
6590.705
6588.502
6586.354
6584.265
6582.236
6580.264
6578.348
6576.486
6574.677
6572.92
6571.214
6569.558
6567.95
6566.39
6564.877
6563.41
6561.989
6560.612
6559.279
6557.99
6556.744
6555.54
6554.377
6553.255
6552.173
6551.129
6550.124
6549.155
6548.223
6547.325
6546.461
6545.629
6544.828
6544.058
6543.316
6542.601
6541.912
6541.247
6540.606
6539.987
6539.388
6538.808
6538.246
6537.7
6537.169
6536.651
6536.144
6535.647
6535.157
6534.673
6534.192
6533.712
6533.23
6532.743
6532.248
6531.74
6531.216
6530.671
6530.1
6529.497
6528.857
6528.171
6527.433
6526.633
6525.764
6524.814
6523.772
6522.628
6521.371
6519.991
6518.482
6516.854
6515.125
6513.358
6511.631
6510.11
6508.896
6508.27
6508.267
6509.259
3234.372
3209.327
3184.582
3136.62
3096.57
3024.848
2986.603
2948.667
2912.088
2876.924
2843.473
2812.861
2784.393
2759.269
2738.636
2722.324
2650.348
2647.993
2652.605
2660.654
2668.385
2680.009
2700.225
2731.509
2774.9
2829.573
2895.796
2974.365
3064.507
3165.858
3277.884
3399.87
3530.869
3669.815
3815.615
3967.076
4122.911
4281.189
4440.643
4598.619
4751.169
4895.853
5023.207
5147.255
5255.292
5346.56
5418.603
5468.907
5495.966
5499.105
5478.442
5435.09
5370.241
5285.51
5183.607
5068.001
4942.099
4809.082
4672.036
4533.709
4396.621
4262.772
4134.67
4014.704
3903.654
3803.059
3715.442
3641.408
3580.718
3533.122
3497.507
3472.043
3454.785
3443.792
3437.052
3432.53
3428.594
3423.286
3415.504
3404.288
3389.696
3372.079
3351.424
3328.43
3304.062
3279.264
3255.428
3234.587
3219.304
3211.219
3210.371
3216.149
3227.803
3244.527
3265.185
3289.04
3315.951
3345.647
3377.29
3409.352
3441.417
3472.778
3503.064
3532.143
3559.93
3586.481
3612.015
3636.972
3662.467
3689.355
3717.615
3747.551
3779.43
3813.128
3848.317
3884.75
3922.165
3960.607
4000.091
4040.546
4081.998
4124.392
4167.528
4211.157
4254.934
4298.938
4343.579
4389.438
4436.997
4486.608
4538.483
4592.437
4648.013
4704.501
4761.116
4816.776
4870.487
4921.117
4968.085
5011.906
5053.096
5091.367
5126.328
5158.238
5187.774
5215.452
5241.457
5265.814
5288.573
5309.865
5329.892
5348.908
5367.218
5385.184
5403.205
5421.662
5440.813
5460.703
5481.075
5501.379
5520.89
5538.485
5553.296
5565.124
5574.776
5583.266
5593.317
5606.74
5623.219
5641.753
5661.383
5681.543
5701.981
5722.487
5742.785
5762.58
5781.635
5799.745
5816.729
5832.461
5846.871
5859.949
5871.767
5882.506
5892.401
5901.728
5910.776
5919.839
5929.192
5938.981
5949.238
5959.887
5970.766
5981.704
5992.579
6003.342
6014.296
6025.335
6036.258
6047.207
6058.122
6068.715
6078.531
6086.542
6092.421
6095.484
6095.233
6091.958
6085.573
6076.271
6064.224
6049.637
6032.911
6014.594
5995.317
5975.817
5956.943
5939.668
5925.063
5914.23
5907.691
5905.823
5908.113
5913.457
5920.938
5929.807
5939.232
5948.931
5959.192
5970.155
5981.711
5993.303
6004.619
6015.611
6025.957
6035.14
6043.002
6049.785
6055.375
6059.995
6063.768
6066.704
6068.899
6070.59
6071.976
6073.082
6073.824
6074.126
6073.824
6072.752
6070.716
6067.438
6062.377
6055.11
6045.904
6035.898
6024.603
6010.276
5993.286
5975.003
5956.587
5939.52
5925.877
5916.907
5915.212
5919.991
5927.897
5940.509
5959.487
5983.454
6012.082
6043.064
6071.394
6094.957
6116.007
6137.539
6159.742
6181.605
6201.675
6220.261
6237.632
6253.588
6267.918
6280.317
6292.124
6305.366
6319.966
6334.596
6347.774
6358.982
6367.941
6374.711
6378.713
6379.274
6377.879
6377.104
6377.416
6377.366
6377.103
6378.349
6381.075
6382.871
6382.464
6380.418
6377.695
6374.398
6369.871
6363.755
6356.025
6346.704
6335.746
6323.177
6309.183
6293.928
6277.648
6260.775
6243.865
6227.554
6212.556
6199.594
6189.194
6181.813
6177.96
6177.959
6181.871
6189.673
6201.21
6216.014
6233.345
6252.519
6272.866
6293.714
6314.415
6334.509
6353.731
6371.586
6387.884
6402.516
6415.326
6426.275
6435.465
6443.048
6449.172
6453.974
6457.554
6460.034
6461.62
6462.498
6462.787
6462.607
6461.917
6460.687
6459.028
6457.028
6454.747
6452.233
6449.529
6446.671
6443.692
6440.62
6437.48
6434.295
6431.085
6427.866
6424.655
6421.463
6418.303
6415.182
6412.11
6409.091
6406.13
6403.229
6400.389
6397.611
6394.891
6392.227
6389.61
6387.034
6384.485
6381.952
6379.419
6376.877
6374.326
6371.776
6369.245
6366.744
6364.273
6361.831
6359.401
6356.97
6354.548
6352.158
6349.813
6347.518
6345.273
6343.078
6340.934
6338.845
6336.817
6334.845
6332.927
6331.061
6329.248
6327.486
6325.774
6324.112
6322.498
6320.932
6319.412
6317.939
6316.511
6315.128
6313.789
6312.494
6311.242
6310.032
6308.863
6307.736
6306.649
6305.601
6304.591
6303.619
6302.683
6301.783
6300.917
6300.084
6299.283
6298.512
6297.771
6297.058
6296.371
6295.71
6295.073
6294.458
6293.865
6293.291
6292.736
6292.199
6291.676
6291.168
6290.672
6290.186
6289.709
6289.239
6288.774
6288.311
6287.847
6287.38
6286.906
6286.422
6285.924
6285.409
6284.87
6284.304
6283.704
6283.064
6282.379
6281.64
6280.841
6279.973
6279.03
6278.005
6276.891
6275.688
6274.399
6273.04
6271.636
6270.241
6268.912
6267.763
6266.856
6266.376
6266.28
6266.883
3375.49
3343.247
3306.446
3257.151
3221.69
3150.889
3115.618
3080.577
3045.045
3009.084
2973.123
2937.307
2900.129
2862.857
2823.865
2718.544
2680.167
2642.726
2606.153
2570.758
2536.826
2505.098
2475.743
2449.161
2426.34
2408.164
2394.429
2386.465
2383.863
2385.775
2392.159
2405.216
2426.777
2458.095
2499.694
2552.988
2618.103
2694.919
2783.268
2882.818
2993.01
3113.134
3242.272
3379.404
3523.497
3673.05
3826.85
3982.73
4138.552
4293.402
4443.594
4587.529
4720.611
4842.597
4948.898
5037.292
5105.505
5151.522
5173.999
5172.324
5146.601
5097.8
5027.599
4938.169
4832.328
4713.608
4585.487
4451.102
4313.659
4175.74
4039.803
3907.942
3782.043
3664.641
3557.059
3460.038
3375.271
3304.41
3248.912
3208.896
3182.745
3167.926
3161.708
3161.64
3165.314
3170.225
3174.326
3175.57
3172.569
3164.367
3150.041
3130.028
3106.076
3079.268
3049.761
3018.09
2986.366
2958.17
2937.938
2928.208
2928.288
2935.99
2949.637
2968.798
2992.116
3018.888
3049.511
3083.587
3120.05
3157.703
3194.283
3228.666
3260.655
3290.358
3317.688
3342.652
3365.536
3387.181
3409.64
3434.087
3460.229
3489.064
3520.924
3555.053
3590.624
3627.393
3665.04
3703.551
3743.092
3783.823
3825.694
3868.416
3911.578
3954.751
3997.58
4040.045
4082.742
4126.674
4172.742
4221.732
4273.958
4329.024
4386.113
4444.226
4502.351
4559.47
4614.714
4667.308
4716.693
4762.834
4805.967
4846.119
4883.164
4917.176
4948.488
4977.446
5004.26
5029.034
5051.881
5072.987
5092.61
5111.059
5128.675
5145.828
5162.892
5180.17
5197.818
5215.798
5233.868
5251.623
5268.615
5284.34
5298.446
5310.948
5322.476
5333.956
5346.651
5361.399
5378.387
5397.229
5417.273
5437.998
5459.099
5480.342
5501.435
5522.039
5541.858
5560.642
5578.172
5594.269
5608.822
5621.806
5633.273
5643.375
5652.399
5660.742
5668.815
5677
5685.614
5694.855
5704.752
5715.175
5725.912
5736.74
5747.442
5757.561
5768.402
5780.017
5791.369
5803.027
5815.206
5827.564
5839.42
5849.503
5857.189
5861.628
5861.783
5858.199
5851.18
5840.794
5827.163
5810.462
5791.17
5769.886
5747.266
5724.092
5701.317
5680.083
5661.755
5648.094
5640.251
5638.423
5642.107
5649.521
5659.64
5671.891
5684.611
5696.707
5708.639
5720.855
5733.43
5746.251
5759.242
5772.44
5785.127
5796.755
5806.988
5816.133
5823.834
5829.729
5833.93
5836.778
5838.476
5839.295
5839.535
5839.374
5838.884
5837.907
5836.316
5833.99
5830.816
5826.531
5820.46
5812.091
5803.209
5793.27
5780.241
5762.966
5742.884
5721.698
5700.472
5680.395
5665.854
5659.666
5658.443
5659.051
5662.283
5672.765
5691.738
5718.442
5752.957
5787.82
5817.177
5841.376
5862.908
5884.321
5904.359
5922.14
5939.761
5956.871
5973.023
5988.624
6003.366
6017.689
6031.721
6045.675
6059.76
6073.64
6086.611
6098.354
6108.189
6115.655
6120.812
6123.947
6126.114
6127.826
6128.776
6129.657
6131.64
6134.117
6135.657
6136.769
6138.354
6139.429
6137.965
6133.997
6128.253
6121.37
6113.177
6103.332
6091.791
6078.623
6063.922
6047.956
6031.04
6013.522
5995.91
5978.804
5962.872
5948.924
5937.695
5929.737
5925.54
5925.473
5929.481
5937.576
5949.476
5964.703
5982.597
6002.379
6023.456
6045.25
6066.952
6087.936
6107.795
6126.104
6142.631
6157.34
6170.196
6181.176
6190.353
6197.871
6203.901
6208.6
6212.105
6214.559
6216.118
6216.872
6216.894
6216.386
6215.448
6214.08
6212.355
6210.329
6208.045
6205.546
6202.868
6200.045
6197.104
6194.074
6190.978
6187.837
6184.67
6181.493
6178.323
6175.17
6172.048
6168.963
6165.924
6162.937
6160.005
6157.13
6154.314
6151.555
6148.851
6146.198
6143.59
6141.019
6138.477
6135.952
6133.437
6130.925
6128.413
6125.909
6123.419
6120.951
6118.506
6116.081
6113.672
6111.283
6108.918
6106.577
6104.265
6101.991
6099.764
6097.591
6095.458
6093.377
6091.357
6089.39
6087.474
6085.609
6083.795
6082.031
6080.317
6078.652
6077.034
6075.464
6073.94
6072.462
6071.029
6069.641
6068.297
6066.996
6065.739
6064.524
6063.35
6062.218
6061.126
6060.074
6059.06
6058.085
6057.146
6056.243
6055.375
6054.54
6053.738
6052.968
6052.227
6051.516
6050.831
6050.173
6049.54
6048.93
6048.343
6047.776
6047.229
6046.7
6046.187
6045.69
6045.206
6044.734
6044.272
6043.819
6043.371
6042.927
6042.485
6042.041
6041.593
6041.138
6040.672
6040.191
6039.691
6039.167
6038.616
6038.03
6037.406
6036.737
6036.017
6035.242
6034.406
6033.507
6032.543
6031.516
6030.435
6029.317
6028.188
6027.09
6026.07
6025.206
6024.542
6024.197
6024.124
6024.597
3308.538
3270.497
3238.556
3192.569
3143.808
3098.423
3055.959
3016.552
2979.766
2943.019
2840.93
2806.109
2771.639
2736.824
2701.469
2665.595
2629.152
2591.923
2554.047
2516.212
2479.245
2441.369
2403.833
2366.83
2330.711
2295.718
2262.383
2230.788
2201.145
2174.35
2151.371
2133.523
2121
2113.678
2112.133
2117.256
2130.221
2152.02
2183.382
2225.223
2277.956
2342.024
2417.508
2504.334
2602.218
2710.619
2828.847
2956.027
3091.1
3233.086
3380.083
3530.383
3682.486
3834.699
3985.534
4133.12
4274.053
4404.438
4521.428
4622.31
4704.311
4765.251
4803.538
4818.132
4808.602
4775.171
4718.81
4641.37
4545.43
4434.155
4311.139
4180.17
4044.256
3906.638
3770.189
3637.018
3509.053
3387.853
3274.3
3169.966
3076.974
2997.113
2933.014
2886.806
2858.113
2845.096
2844.957
2854.213
2869.56
2887.796
2905.841
2921.238
2931.508
2934.362
2928.579
2913.904
2891.307
2863.387
2831.13
2793.523
2750.562
2706.197
2667.152
2641.167
2631.163
2633.894
2644.753
2660.922
2683.268
2709.357
2739.772
2776.172
2817.607
2862.011
2906.913
2949.299
2987.42
3021.527
3052.177
3079.07
3101.549
3119.937
3135.552
3153.42
3175.291
3198.215
3225.753
3258.357
3293.799
3330.508
3367.956
3405.874
3444.238
3483.58
3524.515
3567.034
3610.443
3653.915
3696.725
3738.322
3778.516
3818.149
3858.997
3902.699
3950.805
4003.783
4060.842
4120.636
4181.686
4242.62
4302.328
4360.015
4415.082
4467.058
4515.733
4561.163
4603.444
4642.578
4678.575
4711.572
4741.753
4769.272
4794.27
4816.923
4837.511
4856.364
4873.847
4890.342
4906.261
4922.023
4937.925
4954.052
4970.303
4986.44
5002.139
5017.089
5031.112
5044.315
5056.97
5069.581
5082.835
5097.338
5113.497
5131.471
5151.077
5171.876
5193.436
5215.462
5237.713
5259.891
5281.621
5302.518
5322.256
5340.55
5357.152
5371.889
5384.693
5395.633
5404.894
5412.811
5419.895
5426.72
5433.809
5441.605
5450.361
5460.057
5470.432
5481.128
5491.828
5502.438
5512.517
5522.63
5534.046
5546.143
5558.705
5572.499
5587.219
5602.028
5615.348
5625.304
5630.677
5631.221
5627.354
5619.411
5607.522
5591.843
5572.624
5550.379
5525.745
5499.41
5472.144
5444.912
5418.995
5396.067
5378.885
5369.547
5368.237
5374.846
5386.114
5400.242
5416.176
5431.815
5445.928
5459.477
5473.146
5487.14
5501.439
5516.525
5531.749
5546.315
5559.384
5570.603
5580.634
5589.581
5596.899
5602.202
5605.414
5606.903
5607.118
5606.459
5605.201
5603.541
5601.47
5598.951
5595.811
5592.042
5587.53
5581.49
5574.278
5566.938
5556.162
5539.698
5518.597
5494.496
5469.613
5444.52
5419.779
5402.17
5394.687
5392.029
5389.404
5391.384
5402.832
5424.989
5457.617
5495.205
5531.56
5563.851
5589.798
5612.558
5632.646
5649.244
5662.846
5678.378
5695.082
5710.857
5726.225
5740.915
5755.21
5769.452
5783.815
5798.688
5813.216
5826.205
5837.729
5847.669
5856.068
5863.295
5868.79
5872.782
5875.741
5878.391
5881.525
5884.87
5887.51
5889.778
5892.177
5893.638
5893.446
5892.458
5890.803
5886.899
5880.237
5871.273
5860.382
5847.972
5834.158
5818.89
5802.358
5784.85
5766.725
5748.491
5730.763
5714.229
5699.612
5687.714
5679.24
5674.686
5674.421
5678.415
5686.661
5698.775
5714.3
5732.789
5753.514
5775.591
5798.21
5820.577
5842.069
5862.256
5880.782
5897.407
5912.088
5924.845
5935.714
5944.779
5952.186
5958.125
5962.754
5966.181
5968.55
5970.064
5970.815
5970.773
5970.001
5968.763
5967.255
5965.478
5963.437
5961.163
5958.691
5956.051
5953.272
5950.381
5947.403
5944.36
5941.271
5938.155
5935.029
5931.906
5928.799
5925.72
5922.676
5919.675
5916.723
5913.823
5910.978
5908.187
5905.451
5902.766
5900.129
5897.534
5894.976
5892.446
5889.937
5887.442
5884.956
5882.479
5880.011
5877.557
5875.121
5872.704
5870.308
5867.931
5865.576
5863.243
5860.932
5858.649
5856.402
5854.197
5852.042
5849.933
5847.873
5845.864
5843.903
5841.992
5840.131
5838.32
5836.558
5834.844
5833.177
5831.558
5829.986
5828.459
5826.978
5825.542
5824.15
5822.802
5821.497
5820.235
5819.015
5817.837
5816.701
5815.604
5814.548
5813.53
5812.551
5811.609
5810.703
5809.833
5808.997
5808.194
5807.423
5806.683
5805.972
5805.29
5804.635
5804.006
5803.401
5802.82
5802.26
5801.722
5801.202
5800.701
5800.215
5799.745
5799.288
5798.843
5798.408
5797.981
5797.56
5797.142
5796.725
5796.307
5795.884
5795.454
5795.013
5794.557
5794.082
5793.584
5793.059
5792.503
5791.91
5791.278
5790.601
5789.879
5789.109
5788.293
5787.437
5786.549
5785.647
5784.754
5783.904
5783.133
5782.498
5782.027
5781.805
5781.782
5782.222
3058.544
3005.078
2891.315
2849.822
2808.472
2769.232
2732.112
2696.738
2662.559
2629.316
2597.059
2564.016
2530.555
2496.43
2461.67
2426.099
2389.683
2352.386
2314.184
2275.541
2237.622
2199.692
2161.869
2124.341
2087.182
2050.287
2014.08
1979.368
1946.774
1916.922
1890.943
1870.121
1854.956
1845.591
1842.655
1846.971
1859.411
1880.664
1911.598
1952.757
2004.627
2067.567
2141.725
2227.037
2323.259
2429.842
2546.132
2671.186
2803.704
2941.853
3084.126
3229.487
3377.192
3526.099
3673.392
3816.374
3951.696
4075.605
4184.784
4276.577
4348.439
4398.463
4425.496
4428.951
4408.777
4365.393
4299.795
4213.986
4110.507
3993.088
3865.171
3730.9
3593.827
3456.933
3323.544
3194.916
3071.818
2955.717
2846.668
2746.486
2658.414
2585.035
2530.301
2497.096
2483.848
2487.46
2504.871
2533.282
2569.413
2607.821
2643.48
2672.988
2694.26
2705.773
2703.752
2685.602
2657.23
2623.93
2586.179
2539.035
2479.479
2414.512