/*--------------------------------*- C++ -*----------------------------------*\
| =========                 |                                                 |
| \\      /  F ield         | foam-extend: Open Source CFD                    |
|  \\    /   O peration     | Version:     3.1                                |
|   \\  /    A nd           | Web:         http://www.extend-project.de       |
|    \\/     M anipulation  |                                                 |
\*---------------------------------------------------------------------------*/
FoamFile
{
    version     2.0;
    format      ascii;
    class       volScalarField;
    location    "5.5";
    object      k;
}
// * * * * * * * * * * * * * * * * * * * * * * * * * * * * * * * * * * * * * //

dimensions      [0 2 -2 0 0 0 0];

internalField   nonuniform List<scalar> 
119952
(
0.008432273
0.006979441
0.007005822
0.00760173
0.008033949
0.008093087
0.008244892
0.008424136
0.008593884
0.008737675
0.008854507
0.008949533
0.009031169
0.009105459
0.009175263
0.009242048
0.009307224
0.009373655
0.009452049
0.009606361
0.0107506
0.01059591
0.01068415
0.01172175
0.01147251
0.01133518
0.01120397
0.01103195
0.01065193
0.01623764
0.01414299
0.011964
0.01120894
0.01120069
0.01159336
0.01212322
0.01262536
0.01302714
0.01331686
0.01363377
0.01532336
0.01764648
0.01971318
0.02133642
0.02252863
0.02339058
0.0240277
0.02451262
0.02487945
0.02875877
0.02913867
0.02942838
0.02971813
0.03004115
0.03039494
0.03076332
0.03113163
0.03148365
0.03188558
0.0321479
0.0323705
0.03262791
0.03293335
0.03328514
0.03367694
0.03409789
0.03453331
0.03504546
0.03592704
0.03616148
0.03640788
0.03687019
0.03739636
0.03784105
0.03822556
0.03860461
0.03898076
0.03935256
0.03971491
0.04006304
0.04039493
0.04071077
0.04101096
0.04129466
0.04155973
0.04180239
0.04201521
0.04219535
0.04243056
0.04265315
0.04276534
0.04305464
0.04351102
0.04377008
0.04392856
0.04405203
0.04398393
0.04301866
0.04238107
0.04197936
0.04162227
0.04126486
0.04089615
0.04051284
0.04011355
0.0396975
0.03926405
0.03881265
0.03834305
0.03785542
0.03735035
0.03682884
0.03629223
0.03574166
0.03517922
0.03460747
0.03402901
0.03344641
0.03286213
0.03227824
0.03169556
0.0311144
0.03053805
0.02996909
0.02940956
0.0288612
0.02832549
0.02780363
0.0272966
0.02680511
0.0263297
0.02587084
0.02542998
0.02500669
0.02460039
0.0242098
0.02383432
0.02347349
0.02312679
0.02279361
0.02247335
0.02216536
0.02186907
0.02158411
0.0213093
0.02104276
0.02078603
0.02055332
0.02036106
0.02017521
0.01998967
0.01980101
0.0196089
0.01941427
0.01921807
0.01902119
0.01882452
0.01862892
0.01843508
0.01824361
0.018055
0.01786965
0.0176879
0.01751008
0.01733644
0.01716722
0.01700251
0.01684257
0.01668756
0.01653807
0.01639426
0.01625605
0.01612352
0.01599679
0.01587596
0.01576112
0.0156524
0.01554991
0.01545371
0.01536383
0.01528032
0.01520321
0.01513251
0.01506821
0.01501029
0.01495874
0.01491351
0.01487456
0.01484184
0.01481523
0.01479424
0.01477855
0.01476768
0.0147614
0.01475886
0.01475816
0.01476316
0.01485522
0.01502864
0.0151088
0.01514638
0.01516043
0.01515773
0.01513088
0.01509044
0.0150449
0.01499952
0.0149573
0.01491998
0.01488851
0.01486356
0.01484598
0.01483509
0.01483037
0.01483082
0.01483827
0.01485276
0.01487396
0.01490169
0.01493584
0.01497633
0.01502309
0.01507613
0.01513533
0.01520077
0.01526937
0.01533619
0.01540293
0.01547112
0.01554191
0.01561548
0.01568852
0.01573176
0.01582237
0.01593106
0.01603587
0.01613361
0.01622081
0.01629764
0.01636389
0.01641985
0.01646608
0.01650321
0.01653194
0.01655306
0.01656738
0.01657569
0.01657873
0.01657722
0.01657178
0.01656301
0.01655146
0.0165376
0.01652188
0.01650467
0.0164863
0.01646706
0.01644724
0.01642701
0.01640654
0.016386
0.01636551
0.01634517
0.01632505
0.01630551
0.01628717
0.01626994
0.01563438
0.01572274
0.01576531
0.0157608
0.01573893
0.01569972
0.01564478
0.01558516
0.01552758
0.01547561
0.01543092
0.01539437
0.01536612
0.01534563
0.01533218
0.01532491
0.01532282
0.015325
0.01533056
0.01533865
0.01534858
0.01535972
0.01537159
0.01538374
0.01539584
0.01540761
0.01541886
0.01542944
0.01543925
0.01544823
0.01545633
0.01546354
0.01546988
0.01547537
0.01548006
0.015484
0.01548725
0.01548988
0.01549197
0.01549352
0.01549475
0.01549584
0.01549702
0.01549896
0.01550364
0.01551224
0.01551668
0.01551754
0.01551955
0.01552129
0.01552369
0.01552785
0.01553262
0.01555032
0.01562245
0.01559507
0.01556722
0.01553449
0.01549578
0.01545165
0.01540297
0.01535135
0.01529889
0.01524755
0.01519899
0.01515448
0.01511488
0.01508072
0.01505215
0.01502888
0.01501084
0.01499781
0.01498932
0.01498487
0.01498393
0.01498598
0.01499054
0.01499715
0.01500537
0.01501482
0.01502512
0.01503594
0.01504705
0.01505817
0.01506914
0.01507984
0.01509014
0.0151
0.01510937
0.01511824
0.01512661
0.01513451
0.01514196
0.01514898
0.0151556
0.01516186
0.01516778
0.01517339
0.01517869
0.01518367
0.01518832
0.01519261
0.0151965
0.01519994
0.0152029
0.01520533
0.01520719
0.01520846
0.0152091
0.01520912
0.0152085
0.01520725
0.01520537
0.01520288
0.01519979
0.01519612
0.01519188
0.0151871
0.01518179
0.01517597
0.01516965
0.01516287
0.01515563
0.01514796
0.01513988
0.01513143
0.01512262
0.01511348
0.01510398
0.01509422
0.0150841
0.01507356
0.01506194
0.01504863
0.01503061
0.01500079
0.01493784
0.01484542
0.01507001
0.04332543
0.04125231
0.03985934
0.03898433
0.0384477
0.03811468
0.03787929
0.03766761
0.03744341
0.0360524
0.03536816
0.03593205
0.0370497
0.03831342
0.03951148
0.04055332
0.04141413
0.04209792
0.04655517
0.04684924
0.04702472
0.0470103
0.04689719
0.04675125
0.04662039
0.04653103
0.0464923
0.04651757
0.04673866
0.04680558
0.0468493
0.04689791
0.0469561
0.04702651
0.04711861
0.04723828
0.04737418
0.04769713
0.04802811
0.04817037
0.04830792
0.04843149
0.04853135
0.04860955
0.04866407
0.04869327
0.04869474
0.04864807
0.04859424
0.04852472
0.04843757
0.04834255
0.04824552
0.04815103
0.04807349
0.04804172
0.0517396
0.05167132
0.05163961
0.05161554
0.05159027
0.05156428
0.0515423
0.05153055
0.05153373
0.05155536
0.05159358
0.05164784
0.05172358
0.05182662
0.05196045
0.05212718
0.05233467
0.05260171
0.05297659
0.05335764
0.05365293
0.05399129
0.05438757
0.05479253
0.05517369
0.05554036
0.05590194
0.05626173
0.05662129
0.05697914
0.05733222
0.05767741
0.05801174
0.05833198
0.05863421
0.05891353
0.05916519
0.05938721
0.0595907
0.05978376
0.05994569
0.06011544
0.06035499
0.06060998
0.06082942
0.0610175
0.06113446
0.06101751
0.06067321
0.06030253
0.05994108
0.05957242
0.05918789
0.05877936
0.05834128
0.05787067
0.05736646
0.05682866
0.05625787
0.05565508
0.05502159
0.05435903
0.05366933
0.05295468
0.05221755
0.05146063
0.05068681
0.04989913
0.04910069
0.0482946
0.04748387
0.04667141
0.04586005
0.04505249
0.04425127
0.04345878
0.04267722
0.04190855
0.04115456
0.04041676
0.03969647
0.03899477
0.03831239
0.03764973
0.03700721
0.03638512
0.03578348
0.03520214
0.0346408
0.03409903
0.03357626
0.03307179
0.03258471
0.03211383
0.03165801
0.03121697
0.03079058
0.03037882
0.02998233
0.02959822
0.02922404
0.02885997
0.02850552
0.02815988
0.02782234
0.02749231
0.02716931
0.02685287
0.02654257
0.02623809
0.02593918
0.02564567
0.02535747
0.02507453
0.02479689
0.02452461
0.02425782
0.02399671
0.02374154
0.02349266
0.02325031
0.02301461
0.0227857
0.02256377
0.02234903
0.02214167
0.02194188
0.02174984
0.02156571
0.02138965
0.02122175
0.02106212
0.02091079
0.02076783
0.02063317
0.02050682
0.02038861
0.02027852
0.02017622
0.02008171
0.01999444
0.0199145
0.01984096
0.01977417
0.01971256
0.01965727
0.0196068
0.01956724
0.01930675
0.0190051
0.01879227
0.01863698
0.01851949
0.01842696
0.0183513
0.01828698
0.01823007
0.01817768
0.01812763
0.01807824
0.01802823
0.01797658
0.0179226
0.01786575
0.01780566
0.01774209
0.01767495
0.01760435
0.01753026
0.01745289
0.01737252
0.01728943
0.01720396
0.01711646
0.01702732
0.01693692
0.01684566
0.0167539
0.01666191
0.01656982
0.01647742
0.01638413
0.01628963
0.01619817
0.016118
0.01605221
0.01599409
0.01594067
0.01589154
0.01584623
0.01580448
0.01576613
0.01573111
0.0156994
0.01567097
0.01564577
0.01562377
0.01560491
0.01558911
0.0155763
0.01556636
0.01555921
0.01555472
0.01555278
0.01555326
0.01555604
0.015561
0.01556802
0.01557697
0.01558775
0.01560024
0.01561432
0.01562989
0.01564683
0.0156651
0.01568458
0.0157051
0.01572639
0.01644792
0.01646357
0.01649502
0.01653194
0.01656975
0.01660693
0.01664324
0.01667852
0.01671253
0.01674513
0.01677639
0.01680634
0.01683507
0.01686262
0.01688909
0.01691455
0.0169391
0.01696278
0.01698569
0.01700788
0.01702944
0.01705045
0.01707098
0.01709108
0.01711081
0.01713024
0.01714941
0.01716837
0.01718716
0.01720583
0.0172244
0.0172429
0.01726135
0.01727976
0.01729815
0.01731652
0.01733489
0.01735327
0.01737168
0.01739015
0.01740871
0.01742744
0.01744647
0.01746592
0.01748562
0.01750486
0.01752261
0.01753879
0.01755459
0.01757008
0.01758539
0.01760043
0.01761719
0.01764045
0.01766448
0.01767813
0.01768679
0.01769551
0.01770532
0.01771619
0.01772792
0.01774028
0.01775298
0.01776578
0.01777849
0.01779096
0.01780311
0.01781488
0.01782629
0.01783738
0.01784814
0.01785862
0.01786889
0.01787899
0.01788897
0.01789887
0.0179087
0.01791848
0.01792821
0.01793787
0.01794743
0.01795685
0.01796611
0.01797515
0.01798394
0.01799244
0.01800061
0.01800843
0.01801587
0.01802293
0.01802961
0.01803589
0.01804181
0.01804736
0.01805257
0.01805745
0.01806205
0.01806637
0.01807043
0.01807424
0.01807782
0.01808115
0.01808424
0.01808706
0.0180896
0.01809183
0.01809374
0.01809531
0.01809651
0.01809735
0.01809781
0.01809791
0.01809766
0.01809707
0.01809618
0.01809502
0.01809363
0.01809205
0.01809033
0.01808854
0.01808671
0.01808492
0.01808322
0.01808167
0.01808036
0.0180793
0.01807865
0.01807833
0.01807862
0.01807927
0.01808073
0.01808237
0.01808481
0.01808632
0.0180873
0.01808537
0.01808998
0.01811954
0.01817609
0.05286927
0.0559071
0.05923268
0.06303318
0.06645424
0.06924319
0.07170271
0.07383679
0.07608676
0.08232664
0.1260924
0.1314127
0.1325728
0.1328451
0.1328098
0.1324228
0.1317131
0.1307321
0.1293858
0.1427203
0.1406091
0.1383347
0.1362048
0.1341859
0.1321571
0.1300496
0.1278429
0.1255388
0.1232121
0.1207557
0.1181411
0.1154742
0.1128364
0.1102618
0.1077677
0.1053599
0.1030298
0.1007986
0.09872302
0.09655857
0.09438487
0.0922946
0.09030192
0.08840295
0.08661136
0.08493016
0.08336028
0.08189872
0.08048479
0.07918203
0.07798375
0.07686643
0.07582438
0.07485854
0.07396798
0.07320212
0.07693843
0.07621536
0.07559055
0.07504116
0.07451497
0.07399413
0.07347691
0.07296749
0.07246626
0.07197963
0.07151208
0.07105838
0.07061053
0.07017339
0.0697528
0.06935315
0.06897778
0.06862851
0.06830939
0.06801749
0.06774164
0.06748596
0.06725283
0.06704152
0.06685072
0.06667727
0.06651546
0.06635942
0.06620044
0.06603018
0.06584976
0.06565984
0.06545672
0.06524673
0.06502481
0.06480374
0.0645426
0.06428365
0.06413918
0.0639503
0.06372808
0.06350862
0.06330766
0.06312656
0.0629654
0.0628278
0.06272439
0.06265564
0.06261547
0.06260157
0.06261635
0.06266258
0.06274208
0.06285702
0.06301332
0.06321866
0.0634834
0.06378136
0.06406537
0.06436159
0.06469206
0.06504408
0.06539319
0.06573274
0.06606679
0.06639945
0.06673245
0.06706492
0.0673943
0.06771741
0.06803096
0.06833146
0.06861505
0.06887754
0.06911542
0.06932745
0.06951795
0.06969352
0.06985304
0.07001097
0.07019558
0.07039456
0.07057268
0.07070598
0.0707648
0.07068336
0.07043554
0.0701132
0.06976762
0.06940297
0.06901277
0.06859138
0.06813537
0.06764264
0.06711197
0.06654285
0.06593533
0.06528996
0.06460771
0.06388995
0.06313843
0.06235525
0.06154285
0.06070397
0.05984159
0.0589589
0.05805923
0.05714596
0.05622249
0.05529219
0.05435836
0.0534242
0.05249279
0.05156706
0.05064974
0.0497434
0.04885038
0.04797277
0.04711245
0.04627103
0.04544983
0.0446499
0.04387213
0.04311713
0.04238525
0.04167664
0.04099125
0.04032883
0.03968898
0.03907113
0.03847456
0.03789849
0.03734196
0.03680403
0.03628417
0.03578207
0.03529731
0.03482846
0.03437348
0.03393108
0.03350045
0.03308087
0.03267168
0.03227217
0.03188173
0.03149978
0.03112578
0.03075932
0.03040002
0.03004761
0.02970187
0.02936268
0.02902996
0.02870372
0.02838399
0.02807089
0.02776455
0.02746505
0.02717246
0.02688711
0.02660932
0.02633943
0.02607773
0.02582451
0.02558005
0.0253446
0.02511838
0.02490159
0.02469441
0.02449698
0.02430942
0.0241318
0.02396417
0.02380648
0.02365874
0.02352078
0.02339255
0.02327372
0.02316427
0.02306357
0.02297178
0.02288778
0.02281218
0.02274286
0.02268141
0.02262249
0.02255497
0.02250092
0.02245623
0.02241823
0.02238506
0.02235527
0.02232773
0.02230153
0.02227587
0.02225004
0.0222234
0.02219537
0.02216541
0.02213302
0.02209778
0.0220593
0.02201721
0.0219711
0.02192057
0.02186538
0.02180555
0.02174104
0.02167188
0.0215982
0.02152016
0.02143802
0.02135209
0.02126277
0.02117048
0.02107572
0.020979
0.02088088
0.02078191
0.02068185
0.02058156
0.0204833
0.02038991
0.02030187
0.02021811
0.02013821
0.02006207
0.01998955
0.01992062
0.01985529
0.01979359
0.01973556
0.01968126
0.01963069
0.01958386
0.01954076
0.01950136
0.01946559
0.0194334
0.0194047
0.01937938
0.01935733
0.01933843
0.01932257
0.01930959
0.01929938
0.01929178
0.01928669
0.01928392
0.0192834
0.01928493
0.01928849
0.01929381
0.01930102
0.01930964
0.0193214
0.01934199
0.01936266
0.0193799
0.01939412
0.01940776
0.0194225
0.01943882
0.01945653
0.01947531
0.01949493
0.01951526
0.01953619
0.0195576
0.01957936
0.01960136
0.01962348
0.01964565
0.01966779
0.01968982
0.01971171
0.01973341
0.01975489
0.01977614
0.01979713
0.01981786
0.01983834
0.01985857
0.01987856
0.01989833
0.01991788
0.01993724
0.01995643
0.01997546
0.01999436
0.02001314
0.02003181
0.0200504
0.02006893
0.0200874
0.02010586
0.02012432
0.02014281
0.02016135
0.02017989
0.02019831
0.02021634
0.02023368
0.02025019
0.02026617
0.02028173
0.02029709
0.020312
0.02032642
0.02034
0.0203531
0.02036678
0.02038151
0.02039698
0.02041244
0.0204275
0.02044215
0.02045655
0.02047086
0.02048513
0.02049941
0.02051371
0.02052803
0.02054235
0.02055666
0.02057091
0.02058509
0.02059918
0.02061315
0.02062698
0.02064067
0.02065418
0.0206675
0.0206806
0.02069346
0.02070605
0.02071833
0.02073028
0.02074185
0.02075302
0.02076377
0.02077407
0.0207839
0.02079323
0.02080203
0.0208103
0.02081805
0.02082528
0.020832
0.02083824
0.02084399
0.02084927
0.02085412
0.02085854
0.02086257
0.02086623
0.02086952
0.02087247
0.02087509
0.02087739
0.02087937
0.02088102
0.02088235
0.02088336
0.02088405
0.02088441
0.02088446
0.02088421
0.02088368
0.0208829
0.02088189
0.02088069
0.02087936
0.02087794
0.02087649
0.02087507
0.02087375
0.02087259
0.02087167
0.02087108
0.02087086
0.02087115
0.02087197
0.02087348
0.02087566
0.02087877
0.02088264
0.02088764
0.0208933
0.02090017
0.02090753
0.02091659
0.02092837
0.02094724
0.02097527
0.0548218
0.06033937
0.06543373
0.09763109
0.1285866
0.1649828
0.186806
0.2066891
0.2232683
0.2376816
0.2493943
0.2579601
0.2639679
0.2677515
0.2695279
0.2698059
0.2687467
0.2666045
0.2634075
0.2592535
0.2544555
0.2499462
0.2455114
0.2407205
0.2357541
0.2306329
0.2254196
0.2201743
0.2149461
0.2097282
0.2043073
0.1996594
0.1952432
0.1908022
0.1863478
0.1818488
0.1773729
0.1729529
0.1686102
0.1643642
0.1602094
0.1561387
0.152181
0.1483388
0.1446133
0.1410112
0.1375384
0.1342002
0.1310028
0.1279373
0.1249925
0.1221852
0.1195214
0.1169904
0.1145844
0.1123016
0.1101383
0.1080906
0.1061627
0.1043587
0.1026643
0.101064
0.09954438
0.09811124
0.09674584
0.0954635
0.09420584
0.09297922
0.09187296
0.09081055
0.08976051
0.08873812
0.08776004
0.08683072
0.08594578
0.08510194
0.0842954
0.08352616
0.08278913
0.0820788
0.08139578
0.08074275
0.08012125
0.07953028
0.07896941
0.07843803
0.07793656
0.07746232
0.07700993
0.07658005
0.0761787
0.07580909
0.07547049
0.07516036
0.07487545
0.07461198
0.07436503
0.07413011
0.07390349
0.07368109
0.07346165
0.07324406
0.07303014
0.07281736
0.07261189
0.07240663
0.07221908
0.07203126
0.07184869
0.07168279
0.07153882
0.07141625
0.07131333
0.07122759
0.07115296
0.07109334
0.07105282
0.07103411
0.07104015
0.07107645
0.07114886
0.07125761
0.07140374
0.07158867
0.07181507
0.07207421
0.07234252
0.07262046
0.07291975
0.07323764
0.07355941
0.07387646
0.07418886
0.0744991
0.0748079
0.07511438
0.0754164
0.07571128
0.07599619
0.07626819
0.07652415
0.07676095
0.07697617
0.07716892
0.07734134
0.07749795
0.07764103
0.07777686
0.07791777
0.07805986
0.0781809
0.07825824
0.07827027
0.07818443
0.07798364
0.0777042
0.07738291
0.07703102
0.07664666
0.07622673
0.07576929
0.07527296
0.07473655
0.07415923
0.0735406
0.07288074
0.07218019
0.07143992
0.0706613
0.0698461
0.06899646
0.06811487
0.06720411
0.06626723
0.06530748
0.06432824
0.063333
0.0623253
0.06130866
0.06028661
0.05926256
0.05823987
0.05722175
0.05621124
0.05521121
0.05422431
0.05325295
0.05229933
0.05136535
0.05045265
0.04956259
0.04869627
0.04785451
0.04703786
0.04624663
0.0454809
0.04474053
0.04402519
0.04333437
0.04266739
0.04202349
0.04140185
0.04080175
0.04022251
0.0396633
0.03912294
0.03859976
0.03809224
0.03759928
0.03711993
0.03665328
0.03619843
0.03575452
0.03532077
0.03489651
0.03448111
0.0340741
0.03367503
0.0332836
0.03289955
0.03252272
0.03215303
0.03179046
0.03143507
0.03108694
0.03074621
0.03041311
0.03008788
0.02977081
0.02946218
0.02916229
0.02887145
0.02858995
0.02831809
0.02805614
0.02780435
0.02756295
0.02733213
0.02711209
0.02690294
0.02670479
0.02651768
0.02634163
0.02617657
0.02602246
0.02587911
0.02574642
0.02562403
0.02551183
0.02540926
0.02531624
0.02523198
0.0251567
0.02508945
0.02502963
0.02497661
0.02492956
0.024888
0.02485155
0.02481966
0.02479165
0.02476677
0.02474432
0.02472355
0.02470378
0.02468432
0.02466452
0.02464378
0.02462151
0.02459719
0.02457035
0.02454053
0.02450734
0.0244704
0.02442941
0.02438414
0.02433446
0.02428029
0.02422164
0.02415857
0.02409123
0.02401982
0.02394461
0.02386589
0.023784
0.0236993
0.02361221
0.02352321
0.02343304
0.02334289
0.02325421
0.02316796
0.02308432
0.02300325
0.02292481
0.02284909
0.02277622
0.02270635
0.02263962
0.02257617
0.02251611
0.02245954
0.02240653
0.02235713
0.02231134
0.02226916
0.02223056
0.02219549
0.02216387
0.02213562
0.02211064
0.0220888
0.02207
0.0220541
0.02204097
0.02203047
0.02202248
0.02201683
0.02201344
0.0220121
0.02201281
0.02201526
0.02201968
0.02202551
0.02203332
0.02204243
0.02205311
0.02206539
0.02207899
0.02209366
0.02210918
0.02212539
0.02214221
0.02215959
0.02217748
0.02219587
0.02221471
0.02223396
0.02225355
0.02227342
0.02229352
0.0223138
0.0223342
0.02235467
0.02237516
0.02239564
0.02241608
0.02243645
0.02245672
0.02247689
0.02249693
0.02251684
0.02253662
0.02255626
0.02257578
0.02259517
0.02261444
0.02263361
0.02265269
0.02267167
0.02269057
0.02270941
0.02272819
0.02274692
0.02276561
0.02278425
0.02280284
0.02282131
0.0228396
0.02285758
0.02287512
0.02289213
0.02290868
0.02292488
0.02294087
0.02295676
0.02297279
0.02298912
0.0230056
0.02302189
0.02303748
0.02305241
0.02306703
0.02308158
0.02309616
0.0231108
0.02312553
0.02314034
0.02315521
0.02317009
0.02318503
0.0232
0.023215
0.02322999
0.02324495
0.02325986
0.02327467
0.02328937
0.02330392
0.0233183
0.02333249
0.02334646
0.02336018
0.0233736
0.02338668
0.02339938
0.02341164
0.02342344
0.02343471
0.02344542
0.02345556
0.02346513
0.02347411
0.02348249
0.0234903
0.02349756
0.0235043
0.02351059
0.02351652
0.02352204
0.02352711
0.02353172
0.02353588
0.0235396
0.02354289
0.02354577
0.02354825
0.02355036
0.02355209
0.02355347
0.0235545
0.0235552
0.02355557
0.02355564
0.02355541
0.02355491
0.02355416
0.0235532
0.02355205
0.02355077
0.02354941
0.02354801
0.02354665
0.02354538
0.02354428
0.02354343
0.0235429
0.02354278
0.02354314
0.0235441
0.02354571
0.02354811
0.02355136
0.02355558
0.02356082
0.02356721
0.02357471
0.0235835
0.02359352
0.02360512
0.02361885
0.02363527
0.02365528
0.03061549
0.0334872
0.03632028
0.04686163
0.06151083
0.08576046
0.1027526
0.1201069
0.137874
0.1549669
0.1716833
0.1888393
0.2062484
0.2228398
0.2388859
0.2559278
0.2809287
0.2889483
0.29523
0.2989852
0.3012078
0.3022267
0.3015375
0.2990568
0.2949302
0.2894172
0.2833166
0.2758783
0.2686644
0.261693
0.2548554
0.2482482
0.2419395
0.2358719
0.2300121
0.2243701
0.2189568
0.2137621
0.2087905
0.2040195
0.1994552
0.1950067
0.1903743
0.1860165
0.1818884
0.1779135
0.1740505
0.1702954
0.1666528
0.1630883
0.1595506
0.1560654
0.152644
0.1493007
0.1460464
0.1428889
0.1398354
0.136891
0.134059
0.1313408
0.1287356
0.1262438
0.1238636
0.1215921
0.1194279
0.1173707
0.1154173
0.1135542
0.1117822
0.1100966
0.1084954
0.1069757
0.1055355
0.1041707
0.1028808
0.101657
0.1005016
0.09939572
0.0983559
0.09737838
0.09642164
0.09547538
0.09455407
0.09367007
0.09282445
0.09201202
0.09122816
0.09047033
0.08973762
0.08902898
0.08834378
0.08768285
0.08704698
0.08643633
0.08585022
0.08528808
0.08474939
0.08423366
0.08374001
0.0832674
0.08281628
0.08238889
0.08198682
0.08160991
0.08125699
0.08092667
0.08061734
0.08032695
0.08005268
0.07979173
0.07954145
0.07930068
0.0790677
0.0788426
0.07862363
0.07841187
0.07820579
0.078011
0.07782604
0.0776511
0.07749095
0.07735092
0.07723384
0.0771409
0.07707343
0.07703135
0.07701377
0.07702078
0.07705307
0.07711064
0.07719122
0.07729439
0.07742447
0.07758408
0.07777447
0.07799582
0.07824444
0.0785103
0.07878844
0.0790806
0.07938478
0.07969304
0.07999887
0.0803003
0.0805974
0.08089
0.08117704
0.08145665
0.08172656
0.0819844
0.08222779
0.0824544
0.08266212
0.08284946
0.08301601
0.083163
0.0832931
0.08340836
0.08351176
0.08360767
0.08369332
0.08375601
0.08377993
0.08374972
0.08364805
0.08346565
0.08321656
0.08292083
0.08258836
0.08222028
0.0818153
0.08137218
0.08088988
0.08036727
0.07980335
0.07919742
0.07854921
0.07785886
0.07712692
0.07635428
0.07554223
0.0746924
0.07380678
0.07288766
0.07193767
0.07095967
0.06995675
0.06893218
0.06788936
0.06683179
0.06576303
0.06468668
0.06360629
0.06252536
0.06144732
0.06037545
0.05931287
0.05826254
0.05722715
0.05620919
0.05521086
0.05423409
0.0532805
0.05235146
0.05144801
0.05057091
0.04972066
0.0488975
0.04810143
0.04733223
0.04658947
0.04587259
0.04518091
0.0445137
0.04387015
0.04324933
0.04265005
0.04207087
0.04151031
0.04096706
0.04043995
0.03992784
0.03942963
0.0389443
0.03847085
0.03800842
0.03755621
0.03711351
0.03667975
0.03625443
0.03583717
0.03542767
0.03502572
0.03463123
0.03424417
0.03386458
0.03349257
0.03312833
0.03277209
0.0324241
0.03208465
0.03175407
0.03143268
0.03112081
0.0308188
0.03052697
0.03024562
0.02997504
0.02971551
0.02946725
0.02923048
0.02900536
0.02879201
0.02859052
0.02840092
0.02822321
0.02805732
0.02790317
0.02776058
0.02762939
0.02750932
0.02740016
0.02730156
0.02721335
0.02713511
0.02706639
0.02700651
0.02695473
0.02691035
0.02687271
0.02684118
0.02681506
0.02679362
0.02677614
0.02676189
0.02675016
0.02674022
0.02673139
0.026723
0.0267144
0.026705
0.02669422
0.02668151
0.02666638
0.02664836
0.02662704
0.02660205
0.0265731
0.02653994
0.02650242
0.02646046
0.02641406
0.02636331
0.02630834
0.02624934
0.02618654
0.02612022
0.02605074
0.02597854
0.02590423
0.02582857
0.02575252
0.02567693
0.02560229
0.02552887
0.02545686
0.0253865
0.02531801
0.02525165
0.02518762
0.02512614
0.02506738
0.02501151
0.02495865
0.02490892
0.02486239
0.0248191
0.02477907
0.0247423
0.02470877
0.02467842
0.02465119
0.02462699
0.02460574
0.02458732
0.02457163
0.02455854
0.02454794
0.02453969
0.02453369
0.02452978
0.02452788
0.02452782
0.02452952
0.02453273
0.02453744
0.0245436
0.02455119
0.02456006
0.02457008
0.02458119
0.02459338
0.0246066
0.02462073
0.0246357
0.02465141
0.02466778
0.02468474
0.02470223
0.02472018
0.02473853
0.02475721
0.02477618
0.02479538
0.02481476
0.02483429
0.02485393
0.02487364
0.02489339
0.02491317
0.02493295
0.02495271
0.02497244
0.02499214
0.0250118
0.02503141
0.02505098
0.02507051
0.02509
0.02510945
0.02512886
0.02514825
0.02516761
0.02518694
0.02520624
0.02522551
0.02524473
0.02526389
0.02528295
0.02530184
0.02532051
0.0253389
0.02535695
0.02537474
0.02539234
0.02540983
0.0254273
0.0254449
0.02546239
0.02547965
0.02549653
0.0255131
0.02552947
0.02554567
0.02556167
0.02557747
0.02559311
0.02560864
0.02562412
0.02563957
0.025655
0.02567044
0.02568589
0.02570135
0.02571681
0.02573225
0.02574765
0.02576298
0.02577822
0.02579333
0.0258083
0.02582309
0.02583767
0.02585201
0.02586607
0.0258798
0.02589318
0.02590614
0.02591865
0.02593066
0.02594215
0.02595307
0.0259634
0.02597312
0.02598221
0.02599065
0.02599842
0.02600552
0.02601193
0.02601762
0.02602274
0.02602742
0.02603182
0.02603598
0.02603979
0.02604318
0.02604615
0.02604868
0.0260508
0.02605251
0.02605383
0.02605478
0.02605537
0.02605563
0.02605557
0.02605522
0.0260546
0.02605375
0.02605271
0.02605151
0.02605021
0.02604885
0.02604749
0.02604621
0.02604506
0.02604412
0.02604348
0.02604321
0.02604339
0.02604412
0.02604549
0.02604758
0.0260505
0.02605432
0.02605915
0.02606504
0.02607209
0.0260803
0.0260898
0.02610055
0.02611282
0.02612661
0.02614219
0.02615886
0.01083301
0.01260381
0.01405489
0.0203061
0.02795482
0.03823988
0.04742194
0.05808633
0.06983129
0.08236808
0.09595903
0.1118229
0.1287775
0.1471217
0.1682785
0.1988526
0.2141183
0.2291919
0.2434315
0.2568348
0.2693214
0.2807481
0.2907892
0.2992066
0.3057739
0.3103028
0.3126361
0.3133344
0.3116951
0.3085598
0.3042963
0.2989002
0.2920344
0.2842308
0.2754967
0.2652991
0.255983
0.2467719
0.2378916
0.2294812
0.221575
0.2142015
0.2073837
0.201109
0.1953303
0.1900077
0.1851043
0.180587
0.1764213
0.1725675
0.1689902
0.1656397
0.1624845
0.1595001
0.1567043
0.1540614
0.1515348
0.149076
0.1466309
0.1442182
0.1418332
0.1394828
0.1371711
0.1349013
0.132678
0.130506
0.1283893
0.1263314
0.1243352
0.1224031
0.1205377
0.1187402
0.1170097
0.115347
0.1137548
0.1122293
0.1107556
0.1093512
0.1080191
0.1067575
0.1055649
0.1044397
0.1033789
0.1023791
0.1014376
0.1005501
0.09971312
0.09892141
0.09816899
0.09744768
0.09674697
0.09606056
0.0953899
0.09473809
0.09410497
0.09348799
0.09288507
0.09229559
0.09172013
0.09115965
0.09061502
0.09008701
0.08957638
0.08908379
0.08860956
0.08815372
0.08771615
0.08729656
0.08689456
0.08650957
0.08614115
0.0857895
0.08545499
0.08513754
0.08483654
0.08455111
0.08428017
0.08402243
0.08377614
0.08353961
0.0833112
0.08308975
0.08287412
0.08266375
0.08245792
0.08225666
0.08206076
0.08187284
0.08169334
0.08152256
0.08136362
0.08122122
0.08109931
0.08100067
0.08092754
0.08088133
0.08086304
0.08087376
0.08091438
0.08098563
0.08108774
0.08121995
0.08138149
0.08157193
0.08179016
0.08203375
0.08229777
0.08257594
0.08286447
0.08316168
0.08346513
0.08376995
0.08407142
0.08436787
0.08465843
0.08494171
0.08521593
0.08547902
0.0857289
0.08596355
0.08618101
0.08637952
0.0865578
0.08671518
0.08685169
0.08696821
0.08706623
0.08714696
0.08721165
0.08726143
0.08729427
0.08730325
0.0872788
0.08721133
0.08709173
0.08691484
0.08668507
0.08641176
0.08610155
0.0857563
0.08537566
0.08495876
0.08450461
0.08401214
0.08348035
0.08290838
0.08229572
0.08164214
0.08094769
0.0802127
0.0794378
0.07862392
0.0777723
0.07688454
0.07596252
0.07500846
0.07402485
0.07301447
0.07198029
0.07092552
0.06985349
0.0687677
0.06767169
0.06656908
0.06546348
0.06435844
0.06325744
0.06216383
0.06108081
0.06001136
0.05895822
0.05792389
0.05691057
0.05592018
0.05495432
0.05401428
0.05310107
0.05221538
0.05135763
0.05052799
0.04972638
0.04895251
0.04820592
0.047486
0.04679199
0.04612297
0.04547785
0.04485529
0.04425389
0.04367229
0.04310918
0.04256326
0.0420333
0.04151809
0.04101648
0.0405274
0.04004988
0.03958302
0.03912604
0.03867829
0.03823921
0.03780836
0.03738539
0.03697007
0.03656228
0.03616196
0.03576916
0.035384
0.03500665
0.03463735
0.03427637
0.03392404
0.03358069
0.03324668
0.03292236
0.03260811
0.03230428
0.03201121
0.03172924
0.03145866
0.03119977
0.0309528
0.03071797
0.03049543
0.03028531
0.03008769
0.02990261
0.02973007
0.02957
0.02942231
0.02928686
0.02916349
0.02905197
0.02895209
0.02886352
0.02878589
0.0287187
0.02866134
0.02861313
0.02857342
0.02854153
0.02851676
0.02849837
0.02848561
0.02847771
0.02847392
0.02847349
0.02847566
0.02847972
0.02848496
0.02849069
0.02849627
0.02850108
0.02850452
0.02850604
0.02850513
0.02850126
0.028494
0.02848292
0.02846768
0.02844805
0.02842395
0.02839537
0.02836234
0.02832497
0.02828339
0.0282378
0.02818847
0.02813578
0.02808018
0.02802227
0.02796273
0.02790223
0.02784131
0.02778034
0.02771964
0.02765952
0.02760026
0.02754216
0.02748549
0.02743052
0.02737746
0.02732653
0.02727792
0.02723177
0.02718822
0.02714737
0.02710928
0.02707399
0.02704154
0.0270119
0.02698507
0.02696098
0.0269396
0.02692083
0.02690461
0.02689084
0.02687941
0.02687024
0.0268632
0.02685819
0.0268551
0.02685381
0.02685421
0.02685618
0.02685963
0.02686448
0.02687057
0.0268778
0.02688614
0.02689557
0.02690605
0.02691753
0.02692992
0.02694316
0.02695718
0.0269719
0.02698727
0.02700323
0.02701972
0.02703668
0.02705407
0.02707183
0.02708991
0.02710827
0.02712688
0.02714569
0.02716467
0.02718379
0.02720304
0.02722238
0.02724181
0.0272613
0.02728085
0.02730046
0.0273201
0.02733979
0.02735951
0.02737928
0.02739907
0.02741891
0.02743878
0.02745867
0.0274786
0.02749855
0.02751852
0.02753849
0.02755844
0.02757834
0.02759818
0.02761791
0.02763752
0.02765702
0.02767646
0.02769601
0.0277156
0.02773496
0.02775386
0.0277724
0.02779063
0.0278085
0.02782603
0.02784326
0.02786025
0.02787706
0.02789373
0.02791031
0.02792682
0.02794329
0.02795973
0.02797614
0.02799252
0.02800887
0.0280252
0.02804149
0.02805774
0.02807392
0.02809001
0.028106
0.02812184
0.02813752
0.02815302
0.02816829
0.02818331
0.02819804
0.02821244
0.02822647
0.02824008
0.02825324
0.0282659
0.02827803
0.02828959
0.02830056
0.02831091
0.02832062
0.02832968
0.02833808
0.0283458
0.02835285
0.02835923
0.02836495
0.02837001
0.02837439
0.02837817
0.02838166
0.02838501
0.02838806
0.02839072
0.02839296
0.02839477
0.02839616
0.02839715
0.02839777
0.02839803
0.02839795
0.02839758
0.02839694
0.02839607
0.02839501
0.02839381
0.02839251
0.02839118
0.02838986
0.02838864
0.02838758
0.02838675
0.02838624
0.02838613
0.0283865
0.02838744
0.02838904
0.02839138
0.02839455
0.02839863
0.0284037
0.02840981
0.02841703
0.02842536
0.02843489
0.02844557
0.0284576
0.02847078
0.02848549
0.02849986
0.002384676
0.008879784
0.01289528
0.01767257
0.02323698