/*--------------------------------*- C++ -*----------------------------------*\
| =========                 |                                                 |
| \\      /  F ield         | foam-extend: Open Source CFD                    |
|  \\    /   O peration     | Version:     3.1                                |
|   \\  /    A nd           | Web:         http://www.extend-project.de       |
|    \\/     M anipulation  |                                                 |
\*---------------------------------------------------------------------------*/
FoamFile
{
    version     2.0;
    format      ascii;
    class       volScalarField;
    location    "5.5";
    object      p;
}
// * * * * * * * * * * * * * * * * * * * * * * * * * * * * * * * * * * * * * //

dimensions      [1 -1 -2 0 0 0 0];

internalField   nonuniform List<scalar> 
119952
(
9061.77
9016.119
9007.237
9022.699
9039.617
9036.749
9038.203
9039.829
9041.571
9043.486
9045.476
9047.495
9049.554
9051.637
9053.735
9055.835
9057.881
9059.699
9060.646
9057.154
9090.081
9076.25
9074.445
9116.205
9112.153
9119.624
9125.839
9138.778
9177.003
9301.582
8270.134
8295.11
8319.441
8344.718
8369.017
8392.537
8415.325
8437.31
8458.448
8474.362
8477.6
8493.315
8507.904
8521.862
8535.3
8548.238
8560.631
8572.481
8584.395
8570.539
8576.85
8586.341
8595.881
8605.357
8614.786
8624.022
8633.069
8641.934
8650.605
8658.245
8666.988
8675.13
8683.168
8691.108
8698.933
8706.648
8714.514
8724.334
8738.732
8737.069
8741.923
8750.089
8756.506
8759.859
8762.365
8764.997
8767.58
8770.187
8772.818
8775.466
8778.121
8780.789
8783.469
8786.154
8788.822
8791.439
8794.014
8796.993
8802.031
8806.259
8810.058
8820.34
8832.809
8838.795
8845.341
8851.535
8851.822
8834.25
8834.551
8840.646
8845.961
8851.096
8855.911
8860.5
8864.907
8869.146
8873.221
8877.13
8880.87
8884.437
8887.825
8891.031
8894.051
8896.878
8899.515
8901.963
8904.222
8906.296
8908.19
8909.909
8911.458
8912.856
8914.096
8915.189
8916.145
8916.974
8917.683
8918.281
8918.776
8919.178
8919.494
8919.73
8919.885
8919.98
8920.021
8919.994
8919.921
8919.798
8919.627
8919.408
8919.143
8918.83
8918.463
8918.023
8917.487
8916.889
8916.75
8917.19
8917.524
8916.807
8916.051
8915.392
8914.705
8913.977
8913.218
8912.419
8911.575
8910.686
8909.75
8908.765
8907.731
8906.647
8905.51
8904.32
8903.076
8901.779
8900.426
8899.039
8897.601
8896.108
8894.546
8892.935
8891.274
8889.565
8887.807
8886.002
8884.151
8882.256
8880.317
8878.336
8876.312
8874.249
8872.147
8870.008
8867.832
8865.621
8863.376
8861.098
8858.786
8856.436
8854.05
8851.62
8849.134
8846.561
8843.844
8840.95
8838.319
8869.276
8867.723
8865.023
8862.469
8859.972
8857.485
8855.001
8852.517
8850.027
8847.529
8845.027
8842.517
8839.999
8837.47
8834.902
8832.359
8829.82
8827.231
8824.64
8822.021
8819.379
8816.714
8814.02
8811.292
8808.522
8805.699
8802.811
8799.84
8796.758
8793.522
8790.067
8786.284
8781.976
8776.764
8769.917
8761.774
8766.916
8769.895
8771.666
8772.523
8773.14
8773.514
8773.742
8773.885
8773.972
8774.029
8774.074
8774.119
8774.176
8774.253
8774.354
8774.486
8774.652
8774.855
8775.096
8775.378
8775.702
8776.069
8776.478
8776.931
8777.428
8777.968
8778.551
8779.176
8779.845
8780.56
8781.33
8782.2
8783.043
8783.62
8768.851
8763.122
8754.743
8755.991
8757.274
8757.404
8757.843
8758.636
8759.446
8760.207
8760.992
8761.817
8762.657
8763.492
8764.322
8765.142
8765.945
8766.726
8767.481
8768.207
8768.901
8769.561
8770.184
8770.77
8771.316
8771.82
8772.283
8772.702
8773.078
8773.41
8773.698
8773.943
8774.146
8774.308
8774.43
8774.516
8774.568
8774.592
8774.595
8774.585
8774.577
8774.592
8774.668
8774.854
8775.106
8774.981
8773.956
8772.431
8771.152
8770.06
8769.033
8767.972
8766.868
8764.033
8757.39
8760.608
8760.741
8759.332
8758.363
8757.349
8756.217
8755.116
8754.063
8753.045
8752.062
8751.111
8750.194
8749.307
8748.446
8747.633
8746.862
8746.126
8745.434
8744.787
8744.186
8743.634
8743.136
8742.686
8742.297
8741.97
8741.707
8741.51
8741.385
8741.33
8741.357
8741.463
8741.648
8741.914
8742.264
8742.701
8743.235
8743.851
8744.558
8745.365
8746.268
8747.267
8748.361
8749.55
8750.832
8752.206
8753.671
8755.223
8756.861
8758.58
8760.378
8762.248
8764.185
8766.183
8768.235
8770.332
8772.467
8774.63
8776.81
8778.996
8781.177
8783.34
8785.471
8787.554
8789.574
8791.514
8793.353
8795.073
8796.649
8798.056
8799.266
8800.245
8800.956
8801.351
8801.377
8800.962
8800.013
8798.386
8795.897
8792.257
8786.99
8779.67
8772.343
8778.225
8822.292
6880.691
6886.717
6892.432
6903.389
6918.443
6938.722
6962.029
6989.066
7019.392
7016.464
7064.332
7097.753
7134.506
7172.476
7211.888
7252.299
7293.358
7334.806
7371.58
7409.181
7438.818
7478.058
7518.008
7557.147
7596.18
7634.609
7672.226
7709.094
7741.662
7775.383
7809.771
7841.73
7872.426
7902.146
7930.832
7958.421
7984.954
8010.474
8032.614
8055.376
8077.719
8098.843
8119.092
8138.528
8157.078
8174.723
8191.497
8208.003
8222.757
8236.792
8250.409
8263.539
8276.178
8288.339
8300.166
8312.456
8266.121
8276.001
8284.323
8293.279
8302.716
8312.075
8321.165
8330.035
8338.759
8347.342
8355.634
8363.693
8371.686
8379.643
8387.544
8395.402
8403.306
8411.361
8419.536
8427.05
8432.583
8437.502
8443.097
8448.364
8452.465
8455.666
8458.525
8461.291
8464.003
8466.672
8469.317
8471.952
8474.592
8477.25
8479.944
8482.7
8485.578
8488.707
8492.315
8496.614
8501.517
8507.214
8514.284
8521.692
8527.845
8532.377
8534.901
8534.563
8531.986
8532.112
8535.408
8539.823
8544.313
8548.695
8553.001
8557.229
8561.347
8565.332
8569.172
8572.857
8576.381
8579.735
8582.914
8585.913
8588.729
8591.36
8593.806
8596.069
8598.151
8600.056
8601.79
8603.359
8604.769
8606.028
8607.145
8608.126
8608.981
8609.718
8610.344
8610.869
8611.299
8611.643
8611.907
8612.096
8612.218
8612.281
8612.286
8612.236
8612.135
8611.985
8611.789
8611.546
8611.257
8610.92
8610.575
8610.209
8609.877
8609.658
8609.545
8609.384
8609.014
8608.477
8607.859
8607.199
8606.504
8605.77
8604.993
8604.166
8603.289
8602.361
8601.382
8600.351
8599.268
8598.132
8596.942
8595.697
8594.398
8593.045
8591.64
8590.178
8588.681
8587.127
8585.519
8583.859
8582.148
8580.387
8578.579
8576.724
8574.824
8572.88
8570.893
8568.864
8566.794
8564.686
8562.539
8560.356
8558.136
8555.884
8553.595
8551.276
8548.917
8546.531
8544.098
8541.65
8539.16
8536.726
8534.285
8531.928
8592.816
8590.647
8588.07
8585.652
8583.201
8580.722
8578.236
8575.743
8573.242
8570.735
8568.223
8565.706
8563.182
8560.651
8558.112
8555.566
8553.009
8550.443
8547.862
8545.233
8542.604
8539.953
8537.274
8534.563
8531.811
8529.009
8526.146
8523.203
8520.157
8516.976
8513.612
8509.996
8506.042
8501.757
8497.558
8494.5
8494.238
8495.671
8496.574
8497.107
8497.522
8497.785
8497.939
8498.034
8498.091
8498.129
8498.16
8498.197
8498.247
8498.32
8498.419
8498.55
8498.716
8498.92
8499.163
8499.448
8499.774
8500.144
8500.557
8501.014
8501.514
8502.057
8502.643
8503.273
8503.945
8504.665
8505.432
8506.246
8507.171
8508.901
8450.413
8452.931
8452.749
8451.45
8450.717
8450.871
8451.532
8452.325
8453.099
8453.856
8454.63
8455.439
8456.272
8457.111
8457.942
8458.759
8459.557
8460.334
8461.085
8461.807
8462.497
8463.154
8463.774
8464.355
8464.897
8465.398
8465.856
8466.27
8466.641
8466.968
8467.25
8467.489
8467.685
8467.839
8467.952
8468.028
8468.069
8468.08
8468.066
8468.034
8467.989
8467.937
8467.87
8467.753
8467.515
8467.057
8466.281
8465.239
8464.135
8463.064
8462.006
8460.863
8459.361
8457.111
8454.33
8452.765
8452.324
8452.137
8451.617
8450.725
8449.652
8448.561
8447.51
8446.497
8445.51
8444.549
8443.619
8442.725
8441.867
8441.046
8440.263
8439.521
8438.826
8438.177
8437.576
8437.026
8436.528
8436.086
8435.702
8435.381
8435.125
8434.936
8434.819
8434.777
8434.814
8434.94
8435.139
8435.419
8435.784
8436.237
8436.781
8437.415
8438.144
8438.969
8439.893
8440.912
8442.027
8443.237
8444.54
8445.934
8447.419
8448.991
8450.649
8452.388
8454.205
8456.094
8458.05
8460.066
8462.135
8464.249
8466.399
8468.575
8470.768
8472.966
8475.157
8477.328
8479.465
8481.553
8483.577
8485.518
8487.358
8489.076
8490.652
8492.057
8493.269
8494.252
8494.976
8495.394
8495.468
8495.128
8494.328
8492.969
8491.039
8488.539
8485.883
8483.872
8484.102
8487.459
8494.529
6255.79
6581.677
6906.454
7209.797
7485.731
7728.545
7930.441
8089.437
8205.483
8274.076
8289.455
8290.026
8264.472
8217.074
8152.859
8076.222
7990.631
7898.887
7805.964
7659.286
7565.529
7471.932
7380.593
7292.699
7209.003
7130.285
7056.915
6989.687
6930.064
6869.715
6817.441
6772.783
6733.466
6700.071
6672.52
6650.724
6634.762
6626.148
6617.951
6611.622
6616.387
6626.333
6639.522
6656.728
6678.081
6702.799
6730.4
6759.509
6793.597
6829.02
6865.405
6903.201
6942.497
6982.944
7023.93
7065.747
7065.57
7109.538
7144.966
7181.118
7220.008
7260.097
7299.695
7338.166
7375.527
7411.908
7447.032
7480.47
7512.817
7544.364
7575.06
7604.706
7633.211
7660.615
7686.932
7712.052
7735.595
7757.785
7779.316
7800.265
7820.412
7839.641
7857.949
7875.375
7891.933
7907.662
7922.597
7936.77
7950.27
7963.246
7975.674
7987.667
7999.143
8010.584
8021.737
8031.519
8040.821
8050.188
8059.608
8068.879
8077.895
8086.67
8095.284
8103.685
8111.913
8119.995
8127.969
8135.864
8143.681
8151.439
8159.135
8166.743
8174.172
8181.248
8187.158
8192.321
8197.462
8202.413
8206.606
8210.047
8213.1
8215.993
8218.781
8221.484
8224.134
8226.754
8229.372
8232.016
8234.715
8237.515
8240.48
8243.709
8247.329
8251.493
8256.196
8261.368
8267.192
8273.218
8278.42
8282.347
8284.979
8286.194
8286.158
8287.11
8289.95
8293.843
8297.961
8302.077
8306.187
8310.275
8314.295
8318.213
8322.008
8325.665
8329.175
8332.526
8335.711
8338.723
8341.559
8344.215
8346.692
8348.989
8351.109
8353.056
8354.834
8356.448
8357.905
8359.212
8360.377
8361.407
8362.31
8363.095
8363.769
8364.341
8364.817
8365.205
8365.513
8365.746
8365.912
8366.016
8366.061
8366.052
8365.992
8365.884
8365.73
8365.533
8365.297
8365.028
8364.737
8364.433
8364.143
8363.886
8363.649
8363.382
8363.007
8362.504
8361.924
8361.303
8360.647
8359.947
8359.197
8358.394
8357.539
8356.632
8355.672
8354.659
8353.591
8352.47
8351.293
8350.063
8348.777
8347.439
8346.047
8344.607
8343.096
8341.537
8339.928
8338.269
8336.561
8334.804
8332.999
8331.147
8329.25
8327.308
8325.322
8323.295
8321.226
8319.118
8316.972
8314.788
8312.57
8310.317
8308.031
8305.713
8303.366
8300.989
8298.591
8296.172
8293.754
8291.343
8289.03
8286.857
8284.931
8282.807
8280.407
8277.884
8275.37
8272.882
8270.395
8267.896
8265.387
8262.87
8260.348
8257.82
8255.285
8252.743
8250.193
8247.634
8245.063
8242.48
8239.861
8237.29
8234.683
8232.045
8229.383
8226.693
8223.967
8221.201
8218.383
8215.502
8212.546
8209.498
8206.35
8203.113
8199.856
8196.713
8193.974
8192.024
8191.115
8191.037
8191.253
8191.436
8191.528
8191.562
8191.568
8191.562
8191.55
8191.538
8191.533
8191.545
8191.579
8191.641
8191.735
8191.864
8192.031
8192.238
8192.487
8192.778
8193.113
8193.492
8193.914
8194.381
8194.89
8195.444
8196.038
8196.676
8197.353
8198.075
8198.83
8199.635
8200.457
8201.321
8201.723
8201.339
8201.308
8201.949
8202.987
8204.125
8205.226
8206.259
8207.231
8208.161
8209.07
8209.97
8210.864
8211.746
8212.61
8213.453
8214.271
8215.065
8215.83
8216.566
8217.268
8217.935
8218.565
8219.157
8219.707
8220.216
8220.683
8221.105
8221.483
8221.816
8222.104
8222.347
8222.547
8222.703
8222.817
8222.89
8222.926
8222.927
8222.895
8222.834
8222.742
8222.615
8222.44
8222.192
8221.838
8221.338
8220.649
8219.761
8218.743
8217.705
8216.663
8215.658
8214.824
8214.388
8214.178
8213.439
8211.913
8210.075
8208.329
8206.774
8205.371
8204.078
8202.875
8201.748
8200.683
8199.66
8198.684
8197.755
8196.868
8196.024
8195.222
8194.463
8193.749
8193.082
8192.464
8191.898
8191.386
8190.93
8190.535
8190.202
8189.934
8189.735
8189.607
8189.553
8189.577
8189.719
8189.899
8190.161
8190.51
8190.949
8191.48
8192.104
8192.822
8193.638
8194.558
8195.572
8196.682
8197.889
8199.188
8200.579
8202.06
8203.629
8205.286
8207.026
8208.845
8210.738
8212.699
8214.721
8216.797
8218.92
8221.081
8223.27
8225.477
8227.691
8229.901
8232.093
8234.254
8236.369
8238.423
8240.398
8242.277
8244.039
8245.665
8247.132
8248.414
8249.485
8250.315
8250.873
8251.124
8251.034
8250.574
8249.741
8248.576
8247.218
8245.945
8245.099
8245.126
8246.505
8249.74
3811.407
3859.557
3924.718
3998.727
4109.458
4232.083
4408.776
4619.965
4864.944
5109.509
5361.947
5647.128
5951.357
6266.548
6580.016
6877.657
7148.67
7384.489
7579.398
7731.266
7840.957
7913.487
7948.376
7948.642
7922.811
7875.965
7812.765
7737.437
7653.472
7564.617
7476.605
7280.007
7192.76
7107.454
7019.322
6932.881
6851.423
6775.736
6705.696
6641.085
6581.7
6527.643
6479.155
6436.371
6399.348
6368.179
6342.807
6323.097
6308.808
6299.557
6295.55
6296.221
6301.274
6310.886
6325.065
6343.478
6365.712
6391.452
6420.343
6451.964
6485.749
6521.518
6558.942
6598.05
6638.385
6679.835
6721.845
6765.608
6811.491
6853.223
6892.084
6931.326
6971.854
7012.724
7052.855
7091.754
7129.424
7165.883
7201.166
7235.266
7268.275
7300.227
7331.08
7360.788
7389.324
7416.703
7442.905
7467.932
7491.792
7514.558
7536.428
7557.483
7577.662
7596.91
7615.239
7632.687
7649.3
7665.087
7680.047
7694.267
7707.843
7720.844
7733.304
7745.237
7756.685
7767.484
7778.164
7788.407
7798.085
7807.424
7816.62
7825.682
7834.562
7843.267
7851.788
7860.178
7868.392
7876.456
7884.396
7892.247
7899.937
7907.539
7915.024
7922.346
7929.414
7936.095
7942.047
7947.378
7952.4
7957.12
7961.303
7964.912
7968.133
7971.133
7973.984
7976.723
7979.385
7982.005
7984.617
7987.257
7989.963
7992.783
7995.776
7999.016
8002.587
8006.569
8010.954
8015.681
8020.732
8025.812
8030.379
8034.125
8036.986
8038.992
8040.367
8042.15
8044.951
8048.495
8052.334
8056.26
8060.224
8064.192
8068.12
8071.968
8075.711
8079.331
8082.813
8086.145
8089.319
8092.325
8095.16
8097.821
8100.304
8102.612
8104.746
8106.708
8108.503
8110.137
8111.615
8112.944
8114.132
8115.186
8116.114
8116.924
8117.625
8118.223
8118.726
8119.141
8119.477
8119.738
8119.932
8120.062
8120.135
8120.154
8120.123
8120.045
8119.923
8119.761
8119.562
8119.333
8119.08
8118.812
8118.54
8118.269
8117.993
8117.687
8117.31
8116.846
8116.312
8115.725
8115.093
8114.41
8113.676
8112.889
8112.049
8111.156
8110.209
8109.208
8108.152
8107.04
8105.873
8104.651
8103.374
8102.041
8100.654
8099.213
8097.715
8096.166
8094.565
8092.912
8091.209
8089.456
8087.654
8085.805
8083.909
8081.968
8079.982
8077.954
8075.884
8073.774
8071.625
8069.439
8067.216
8064.959
8062.669
8060.348
8057.999
8055.624
8053.229
8050.822
8048.415
8046.027
8043.687
8041.409
8039.122
8036.777
8034.382
8031.946
8029.491
8027.024
8024.544
8022.047
8019.534
8017.011
8014.48
8011.942
8009.399
8006.849
8004.292
8001.73
7999.159
7996.581
7993.99
7991.395
7988.78
7986.148
7983.498
7980.827
7978.133
7975.41
7972.653
7969.858
7967.021
7964.144
7961.239
7958.34
7955.515
7952.864
7950.549
7948.733
7947.56
7947.01
7946.823
7946.724
7946.611
7946.494
7946.388
7946.299
7946.223
7946.163
7946.122
7946.106
7946.118
7946.163
7946.245
7946.364
7946.523
7946.725
7946.97
7947.258
7947.591
7947.969
7948.392
7948.858
7949.368
7949.921
7950.516
7951.152
7951.826
7952.537
7953.281
7954.047
7954.812
7955.509
7956.172
7956.99
7957.895
7958.694
7959.374
7960.043
7960.776
7961.57
7962.395
7963.231
7964.074
7964.922
7965.776
7966.629
7967.473
7968.303
7969.114
7969.904
7970.669
7971.406
7972.111
7972.783
7973.418
7974.015
7974.572
7975.088
7975.56
7975.989
7976.372
7976.71
7977.002
7977.249
7977.449
7977.605
7977.716
7977.784
7977.809
7977.794
7977.739
7977.643
7977.505
7977.317
7977.07
7976.749
7976.333
7975.796
7975.116
7974.291
7973.36
7972.385
7971.39
7970.374
7969.281
7967.994
7966.506
7964.988
7963.714
7962.633
7961.641
7960.641
7959.599
7958.533
7957.471
7956.428
7955.408
7954.424
7953.468
7952.545
7951.659
7950.81
7950
7949.232
7948.507
7947.829
7947.199
7946.622
7946.098
7945.631
7945.223
7944.879
7944.599
7944.388
7944.249
7944.183
7944.194
7944.247
7944.426
7944.693
7945.047
7945.49
7946.024
7946.65
7947.371
7948.186
7949.114
7950.118
7951.224
7952.435
7953.733
7955.127
7956.609
7958.181
7959.843
7961.591
7963.419
7965.323
7967.298
7969.336
7971.431
7973.574
7975.758
7977.973
7980.209
7982.455
7984.699
7986.929
7989.132
7991.293
7993.397
7995.428
7997.368
7999.199
8000.903
8002.458
8003.844
8005.036
8006.012
8006.75
8007.227
8007.429
8007.353
8007.017
8006.486
8005.849
8005.3
8004.945
8005.134
8005.837
8007.7
3884.667
3844.69
3808.778
3749.33
3699.879
3623.285
3585.868
3554.643
3533.313
3522.57
3523.26
3537.017
3570.058
3622.632
3695.851
3796.868
3886.847
4056.007
4250.789
4474.179
4724.642
5002.251
5304.869
5625.428
5951.609
6269.59
6568.32
6837.489
7067.921
7255.24
7398.748
7499.66
7561.309
7587.612
7582.65
7552.17
7501.902
7436.683
7360.375
7276.265
7186.7
7093.724
6998.603
6906.948
6819.936
6734.13
6650.317
6570.837
6496.773
6428.117
6364.728
6306.779
6254.199
6206.944
6165.344
6129.514
6099.401
6074.905
6055.896
6042.229
6033.87
6030.553
6031.676
6037.318
6047.728
6062.765
6081.993
6105.018
6131.366
6160.689
6192.729
6227.268
6263.874
6302.261
6342.194
6383.582
6425.947
6469.564
6513.161
6556.573
6599.453
6641.382
6682.806
6724.111
6765.069
6805.227
6844.292
6882.197
6918.949
6954.58
6989.064
7022.363
7054.479
7085.434
7115.241
7143.896
7171.403
7197.771
7223.026
7247.183
7270.261
7292.334
7313.486
7333.742
7353.096
7371.552
7389.132
7405.866
7421.771
7436.882
7451.258
7464.962
7478.043
7490.545
7502.485
7513.914
7524.837
7535.463
7545.69
7555.412
7564.759
7573.903
7582.894
7591.711
7600.344
7608.784
7617.053
7625.161
7633.126
7640.964
7648.676
7656.329
7663.82
7671.134
7678.236
7685.049
7691.489
7697.374
7702.741
7707.708
7712.318
7716.49
7720.196
7723.532
7726.613
7729.516
7732.287
7734.964
7737.586
7740.193
7742.826
7745.527
7748.339
7751.314
7754.51
7757.982
7761.767
7765.858
7770.194
7774.692
7779.159
7783.301
7786.908
7789.921
7792.42
7794.607
7796.969
7799.869
7803.267
7806.943
7810.74
7814.593
7818.46
7822.301
7826.078
7829.763
7833.335
7836.778
7840.079
7843.226
7846.213
7849.033
7851.682
7854.159
7856.463
7858.595
7860.559
7862.358
7863.998
7865.485
7866.824
7868.024
7869.092
7870.035
7870.862
7871.58
7872.197
7872.72
7873.157
7873.514
7873.799
7874.016
7874.171
7874.27
7874.315
7874.312
7874.263
7874.172
7874.043
7873.879
7873.685
7873.466
7873.227
7872.972
7872.705
7872.418
7872.098
7871.723
7871.281
7870.774
7870.212
7869.6
7868.937
7868.222
7867.453
7866.631
7865.755
7864.824
7863.837
7862.795
7861.696
7860.541
7859.33
7858.062
7856.739
7855.359
7853.925
7852.435
7850.89
7849.293
7847.644
7845.943
7844.191
7842.391
7840.542
7838.646
7836.704
7834.717
7832.687
7830.615
7828.503
7826.35
7824.161
7821.935
7819.675
7817.382
7815.06
7812.71
7810.337
7807.946
7805.543
7803.139
7800.742
7798.363
7795.999
7793.635
7791.267
7788.87
7786.432
7783.962
7781.472
7778.968
7776.452
7773.924
7771.386
7768.842
7766.292
7763.736
7761.176
7758.609
7756.038
7753.46
7750.876
7748.282
7745.683
7743.074
7740.455
7737.824
7735.18
7732.522
7729.849
7727.157
7724.45
7721.729
7719.006
7716.299
7713.643
7711.093
7708.725
7706.636
7704.927
7703.674
7702.864
7702.361
7702.004
7701.707
7701.451
7701.237
7701.06
7700.915
7700.801
7700.718
7700.668
7700.655
7700.68
7700.745
7700.852
7701.002
7701.197
7701.436
7701.722
7702.053
7702.43
7702.852
7703.32
7703.831
7704.384
7704.98
7705.614
7706.286
7706.991
7707.723
7708.472
7709.229
7709.99
7710.797
7711.629
7712.358
7713.005
7713.669
7714.412
7715.233
7716.1
7716.985
7717.871
7718.755
7719.638
7720.517
7721.39
7722.252
7723.098
7723.923
7724.726
7725.504
7726.252
7726.968
7727.65
7728.296
7728.903
7729.469
7729.994
7730.474
7730.91
7731.301
7731.644
7731.94
7732.189
7732.391
7732.545
7732.652
7732.712
7732.726
7732.693
7732.615
7732.488
7732.31
7732.076
7731.778
7731.405
7730.942
7730.375
7729.696
7728.907
7728.027
7727.09
7726.112
7725.095
7724.064
7723.065
7722.105
7721.118
7719.954
7718.698
7717.415
7716.147
7714.914
7713.722
7712.574
7711.47
7710.406
7709.383
7708.395
7707.442
7706.526
7705.65
7704.816
7704.026
7703.28
7702.583
7701.935
7701.339
7700.797
7700.313
7699.889
7699.529
7699.234
7699.008
7698.854
7698.773
7698.768
7698.832
7698.988
7699.233
7699.568
7699.994
7700.512
7701.125
7701.835
7702.642
7703.534
7704.548
7705.664
7706.901
7708.187
7709.591
7711.069
7712.647
7714.319
7716.08
7717.925
7719.847
7721.843
7723.905
7726.026
7728.2
7730.417
7732.668
7734.944
7737.234
7739.526
7741.808
7744.067
7746.289
7748.459
7750.563
7752.583
7754.503
7756.305
7757.971
7759.482
7760.819
7761.966
7762.905
7763.626
7764.124
7764.406
7764.497
7764.45
7764.328
7764.259
7764.302
7764.698
7765.308
7766.724
4201.033
4154.281
4102.68
4036.224
3985.78
3894.073
3840.723
3786.922
3732.712
3678.319
3625.332
3573.645
3522.085
3473.108
3424.698
3313.835
3275.152
3243.331
3219.287
3204.279
3200.621
3210.612
3237.001
3282.426
3349.41
3442.015
3560.206
3713.245
3897.869
4114.42
4362.686
4642.945
4949.925
5274.629
5604.811
5927.631
6229.28
6499.984
6731.229
6918.71
7061.667
7161.772
7222.661
7248.912
7245.285
7217.035
7169.482
7107.317
7034.326
6953.691
6867.743
6779.17
6689.889
6601.703
6516.753
6434.626
6355.083
6278.997
6207.354
6140.664
6079.1
6022.89
5972.034
5926.526
5886.497
5852.013
5823.042
5799.515
5781.353
5768.479
5760.783
5758.019
5759.946
5766.569
5777.897
5793.688
5813.442
5837.098
5864.237
5894.43
5927.424
5962.971
6000.684
6040.273
6081.434
6123.995
6167.531
6211.833
6256.163
6300.535
6344.864
6388.569
6431.398
6473.514
6514.994
6555.684
6595.358
6633.883
6671.215
6707.344
6742.248
6775.908
6808.337
6839.567
6869.619
6898.501
6926.223
6952.802
6978.261
7002.62
7025.906
7048.172
7069.485
7089.886
7109.386
7127.991
7145.718
7162.592
7178.644
7193.909
7208.431
7222.258
7235.436
7248.011
7260.016
7271.505
7282.507
7293.09
7303.259
7313.003
7322.391
7331.524
7340.457
7349.198
7357.743
7366.101
7374.293
7382.331
7390.226
7397.986
7405.611
7413.098
7420.413
7427.533
7434.421
7441.015
7447.246
7453.076
7458.434
7463.377
7467.947
7472.117
7475.874
7479.282
7482.421
7485.364
7488.161
7490.853
7493.476
7496.074
7498.693
7501.374
7504.156
7507.082
7510.2
7513.546
7517.143
7520.974
7524.982
7529.081
7533.136
7536.972
7540.455
7543.553
7546.341
7548.974
7551.711
7554.751
7558.114
7561.698
7565.401
7569.162
7572.942
7576.703
7580.407
7584.027
7587.543
7590.938
7594.197
7597.309
7600.265
7603.06
7605.688
7608.147
7610.438
7612.561
7614.518
7616.315
7617.954
7619.443
7620.787
7621.994
7623.07
7624.025
7624.864
7625.597
7626.23
7626.772
7627.228
7627.606
7627.913
7628.153
7628.333
7628.457
7628.53
7628.555
7628.536
7628.476
7628.379
7628.248
7628.086
7627.897
7627.685
7627.45
7627.193
7626.909
7626.589
7626.222
7625.797
7625.314
7624.777
7624.187
7623.546
7622.852
7622.104
7621.301
7620.443
7619.529
7618.559
7617.531
7616.447
7615.305
7614.105
7612.848
7611.534
7610.163
7608.736
7607.253
7605.715
7604.123
7602.478
7600.781
7599.032
7597.234
7595.386
7593.491
7591.549
7589.562
7587.531
7585.457
7583.342
7581.187
7578.994
7576.764
7574.5
7572.204
7569.878
7567.526
7565.151
7562.757
7560.35
7557.937
7555.524
7553.114
7550.709
7548.307
7545.897
7543.462
7540.995
7538.502
7535.992
7533.471
7530.938
7528.396
7525.845
7523.287
7520.724
7518.155
7515.582
7513.004
7510.422
7507.836
7505.244
7502.648
7500.047
7497.442
7494.831
7492.216
7489.595
7486.971
7484.342
7481.71
7479.081
7476.461
7473.867
7471.317
7468.844
7466.492
7464.316
7462.38
7460.744
7459.444
7458.469
7457.751
7457.2
7456.75
7456.372
7456.057
7455.795
7455.582
7455.412
7455.284
7455.199
7455.157
7455.159
7455.206
7455.298
7455.438
7455.625
7455.859
7456.141
7456.47
7456.847
7457.27
7457.739
7458.252
7458.808
7459.406
7460.042
7460.714
7461.419
7462.15
7462.903
7463.674
7464.462
7465.26
7466.037
7466.77
7467.497
7468.266
7469.087
7469.947
7470.831
7471.726
7472.624
7473.522
7474.419
7475.311
7476.197
7477.071
7477.929
7478.767
7479.582
7480.372
7481.132
7481.861
7482.555
7483.212
7483.83
7484.408
7484.942
7485.432
7485.876
7486.273
7486.623
7486.923
7487.175
7487.377
7487.528
7487.63
7487.682
7487.684
7487.635
7487.534
7487.38
7487.169
7486.897
7486.558
7486.144
7485.646
7485.058
7484.374
7483.601
7482.746
7481.83
7480.864
7479.869
7478.836
7477.772
7476.657
7475.493
7474.294
7473.095
7471.913
7470.748
7469.598
7468.464
7467.352
7466.265
7465.205
7464.176
7463.178
7462.212
7461.282
7460.391
7459.54
7458.732
7457.968
7457.252
7456.585
7455.97
7455.409
7454.906
7454.464
7454.084
7453.771
7453.527
7453.354
7453.256
7453.234
7453.29
7453.432
7453.663
7453.984
7454.397
7454.905
7455.508
7456.21
7457.01
7457.904
7458.902
7459.999
7461.179
7462.522
7463.987
7465.436
7467.022
7468.711
7470.491
7472.357
7474.304
7476.328
7478.421
7480.577
7482.789
7485.049
7487.346
7489.673
7492.018
7494.37
7496.716
7499.045
7501.343
7503.595
7505.788
7507.905
7509.93
7511.849
7513.643
7515.298
7516.798
7518.13
7519.283
7520.251
7521.033
7521.643
7522.101
7522.45
7522.739
7523.056
7523.436
7524.042
7524.718
7526.048
4242.795
4180.21
4118.437
4048.232
3980.616
3919.735
3862.335
3807.978
3755.624
3701.294
3578.563
3525.278
3472.377
3419.252
3365.84
3312.76
3260.485
3209.027
3158.534
3111.044
3066.987
3026.075
2989.842
2960.109
2938.576
2927.349
2928.807
2945.555
2980.928
3038.978
3123.058
3234.599
3377.813
3554.015
3764.857
4010.66
4290.131
4598.158
4924.81
5256.128
5578.92
5879.052
6146.498
6373.923
6557.512
6696.885
6794.248
6853.591
6879.801
6877.913
6852.907
6809.552
6752.163
6684.363
6609.186
6529.143
6446.464
6362.919
6279.756
6198.507
6120.145
6044.742
5972.503
5904.133
5840.408
5781.673
5728.064
5679.608
5636.31
5598.216
5565.374
5537.798
5515.474
5498.367
5486.421
5479.547
5477.628
5480.551
5488.184
5500.426
5516.936
5537.91
5562.686
5590.915
5622.303
5656.571
5693.436
5732.554
5773.619
5816.303
5860.336
5905.335
5950.983
5996.903
6042.882
6088.655
6133.796
6178.043
6221.416
6263.963
6305.591
6346.124
6385.428
6423.44
6460.145
6495.541
6529.634
6562.442
6593.995
6624.318
6653.434
6681.363
6708.131
6733.768
6758.303
6781.773
6804.224
6825.708
6846.261
6865.905
6884.654
6902.526
6919.548
6935.752
6951.17
6965.839
6979.801
6993.1
7005.78
7017.877
7029.437
7040.492
7051.087
7061.26
7071.034
7080.454
7089.583
7098.472
7107.147
7115.62
7123.904
7132.015
7139.966
7147.764
7155.414
7162.914
7170.254
7177.416
7184.371
7191.084
7197.507
7203.591
7209.292
7214.578
7219.464
7223.976
7228.122
7231.913
7235.38
7238.583
7241.57
7244.396
7247.102
7249.725
7252.314
7254.908
7257.55
7260.28
7263.136
7266.153
7269.355
7272.754
7276.337
7280.059
7283.85
7287.617
7291.251
7294.669
7297.846
7300.83
7303.718
7306.655
7309.774
7313.115
7316.63
7320.25
7323.923
7327.618
7331.299
7334.926
7338.473
7341.923
7345.257
7348.462
7351.526
7354.44
7357.197
7359.793
7362.226
7364.494
7366.598
7368.542
7370.328
7371.961
7373.446
7374.791
7376.001
7377.083
7378.047
7378.897
7379.644
7380.293
7380.852
7381.328
7381.727
7382.057
7382.322
7382.528
7382.679
7382.78
7382.834
7382.846
7382.818
7382.753
7382.654
7382.524
7382.365
7382.178
7381.965
7381.724
7381.452
7381.142
7380.787
7380.381
7379.921
7379.407
7378.841
7378.222
7377.549
7376.822
7376.039
7375.2
7374.304
7373.35
7372.339
7371.269
7370.14
7368.953
7367.708
7366.404
7365.043
7363.624
7362.149
7360.618
7359.032
7357.392
7355.699
7353.954
7352.158
7350.313
7348.418
7346.477
7344.49
7342.457
7340.382
7338.264
7336.107
7333.91
7331.677
7329.409
7327.109
7324.779
7322.422
7320.041
7317.641
7315.226
7312.8
7310.369
7307.934
7305.498
7303.058
7300.606
7298.135
7295.642
7293.13
7290.602
7288.064
7285.515
7282.957
7280.392
7277.82
7275.242
7272.66
7270.074
7267.483
7264.891
7262.297
7259.698
7257.095
7254.491
7251.885
7249.279
7246.675
7244.074
7241.479
7238.893
7236.317
7233.758
7231.226
7228.737
7226.31
7223.974
7221.763
7219.717
7217.877
7216.281
7214.947
7213.868
7213.007
7212.311
7211.735
7211.25
7210.841
7210.501
7210.22
7209.994
7209.821
7209.698
7209.625
7209.602
7209.63
7209.707
7209.835
7210.013
7210.241
7210.519
7210.847
7211.224
7211.648
7212.12
7212.636
7213.197
7213.799
7214.44
7215.117
7215.826
7216.564
7217.326
7218.108
7218.904
7219.703
7220.499
7221.295
7222.103
7222.933
7223.789
7224.667
7225.563
7226.47
7227.383
7228.299
7229.212
7230.122
7231.023
7231.912
7232.785
7233.638
7234.469
7235.273
7236.047
7236.79
7237.498
7238.168
7238.799
7239.388
7239.933
7240.433
7240.886
7241.29
7241.645
7241.95
7242.203
7242.405
7242.554
7242.65
7242.693
7242.682
7242.616
7242.494
7242.314
7242.074
7241.769
7241.396
7240.95
7240.424
7239.816
7239.124
7238.351
7237.506
7236.598
7235.647
7234.651
7233.612
7232.531
7231.413
7230.269
7229.108
7227.938
7226.767
7225.6
7224.442
7223.296
7222.168
7221.063
7219.984
7218.935
7217.916
7216.93
7215.98
7215.067
7214.195
7213.364
7212.578
7211.839
7211.15
7210.512
7209.93
7209.405
7208.94
7208.539
7208.204
7207.939
7207.745
7207.627
7207.587
7207.627
7207.753
7207.968
7208.274
7208.673
7209.168
7209.761
7210.452
7211.244
7212.136
7213.132
7214.23
7215.425
7216.727
7218.089
7219.66
7221.288
7223.003
7224.809
7226.704
7228.684
7230.743
7232.877
7235.077
7237.339
7239.652
7242.008
7244.398
7246.811
7249.237
7251.663
7254.077
7256.466
7258.817
7261.115
7263.345
7265.494
7267.546
7269.486
7271.301
7272.978
7274.506
7275.878
7277.09
7278.145
7279.054
7279.837
7280.527
7281.158
7281.797
7282.454
7283.265
7284.054
7285.455
3961.915
3887.227
3742.1
3685.702
3630.168
3577.945
3527.671
3478.257
3428.759
3379.016
3329.759
3279.268
3228
3175.866
3123.28
3070.318
3017.574
2965.189
2913.17
2862.819
2815.895
2771.933
2731.552
2696.98
2670.179
2653.028
2647.892
2657.581
2685.482
2734.866
2809.697
2912.973
3048.532
3218.451
3424.704
3668.126
3946.108
4252.896
4577.419
4905.664
5223.335
5516.887
5776.347
5995.586
6171.839
6305.36
6398.908
6456.724
6483.683
6484.631
6464.191
6426.585
6375.65
6314.685
6246.554
6173.581
6097.515
6020.141
5942.757
5866.524
5792.706
5721.793
5654.037
5589.913
5530.018
5474.726
5424.193
5378.484
5337.629
5301.673
5270.668
5244.662
5223.686
5207.754
5196.859
5190.973
5190.054
5194.029
5202.735
5216.028
5234.013
5256.226
5282.27
5311.86
5344.721
5380.552
5419.051
5459.89
5502.752
5547.297
5593.203
5640.109
5687.673
5735.55
5783.4
5830.897
5877.732
5923.678