/*--------------------------------*- C++ -*----------------------------------*\
| =========                 |                                                 |
| \\      /  F ield         | foam-extend: Open Source CFD                    |
|  \\    /   O peration     | Version:     3.1                                |
|   \\  /    A nd           | Web:         http://www.extend-project.de       |
|    \\/     M anipulation  |                                                 |
\*---------------------------------------------------------------------------*/
FoamFile
{
    version     2.0;
    format      ascii;
    class       volScalarField;
    location    "5.5";
    object      pd;
}
// * * * * * * * * * * * * * * * * * * * * * * * * * * * * * * * * * * * * * //

dimensions      [1 -1 -2 0 0 0 0];

internalField   nonuniform List<scalar> 
119952
(
9092.465
9053.534
9044.031
9056.226
9070.329
9068.101
9070.168
9072.407
9074.762
9077.29
9079.893
9082.525
9085.197
9087.893
9090.605
9093.317
9095.977
9098.408
9099.968
9097.089
9125.37
9111.8
9110.253
9146.867
9142.815
9150.286
9156.501
9169.44
9207.698
9332.277
8560.62
8582.055
8603.119
8625.128
8646.16
8666.408
8685.933
8704.651
8722.522
8736.287
8753.506
8769.221
8783.81
8797.768
8811.206
8824.144
8836.538
8848.387
8860.302
8877.101
8883.413
8892.904
8902.443
8911.919
8921.348
8930.585
8939.632
8948.497
8957.168
8964.807
8973.551
8981.693
8989.73
8997.671
9005.496
9013.211
9021.076
9030.896
9045.295
9043.632
9048.485
9056.651
9063.069
9066.422
9068.927
9071.56
9074.143
9076.749
9079.381
9082.029
9084.684
9087.351
9090.032
9092.716
9095.384
9098.001
9100.576
9103.555
9108.593
9112.822
9116.621
9126.903
9139.372
9145.357
9151.904
9158.097
9158.385
9140.813
9141.113
9147.209
9152.524
9157.658
9162.473
9167.063
9171.469
9175.708
9179.783
9183.692
9187.432
9190.999
9194.388
9197.594
9200.614
9203.441
9206.078
9208.525
9210.784
9212.859
9214.752
9216.472
9218.02
9219.419
9220.658
9221.752
9222.708
9223.536
9224.245
9224.843
9225.339
9225.741
9226.056
9226.293
9226.448
9226.543
9226.584
9226.557
9226.484
9226.36
9226.189
9225.971
9225.706
9225.392
9225.026
9224.586
9224.05
9223.451
9223.312
9223.753
9224.087
9223.369
9222.614
9221.955
9221.268
9220.54
9219.781
9218.981
9218.137
9217.248
9216.312
9215.328
9214.294
9213.209
9212.072
9210.882
9209.639
9208.341
9206.989
9205.602
9204.164
9202.67
9201.108
9199.498
9197.837
9196.127
9194.369
9192.564
9190.714
9188.819
9186.88
9184.898
9182.875
9180.812
9178.71
9176.57
9174.394
9172.183
9169.939
9167.661
9165.348
9162.999
9160.612
9158.182
9155.696
9153.124
9150.406
9147.513
9144.881
9145.183
9143.629
9140.929
9138.376
9135.879
9133.391
9130.907
9128.424
9125.933
9123.435
9120.934
9118.423
9115.906
9113.376
9110.808
9108.265
9105.726
9103.138
9100.546
9097.927
9095.286
9092.62
9089.927
9087.198
9084.428
9081.605
9078.717
9075.746
9072.664
9069.428
9065.974
9062.191
9057.882
9052.67
9045.824
9037.68
9042.823
9045.801
9047.573
9048.43
9049.046
9049.421
9049.648
9049.791
9049.878
9049.936
9049.98
9050.025
9050.082
9050.159
9050.261
9050.393
9050.558
9050.761
9051.003
9051.285
9051.609
9051.975
9052.384
9052.837
9053.334
9053.874
9054.457
9055.082
9055.752
9056.466
9057.236
9058.107
9058.95
9059.526
9075.414
9069.685
9061.305
9062.553
9063.837
9063.967
9064.405
9065.198
9066.009
9066.769
9067.555
9068.38
9069.219
9070.054
9070.885
9071.705
9072.508
9073.289
9074.044
9074.77
9075.464
9076.123
9076.747
9077.332
9077.878
9078.383
9078.845
9079.265
9079.64
9079.972
9080.261
9080.506
9080.709
9080.87
9080.993
9081.078
9081.131
9081.155
9081.157
9081.148
9081.14
9081.155
9081.231
9081.417
9081.668
9081.544
9080.519
9078.993
9077.715
9076.622
9075.595
9074.535
9073.43
9070.595
9063.953
9067.17
9067.304
9065.894
9064.925
9063.912
9062.779
9061.679
9060.625
9059.607
9058.624
9057.674
9056.756
9055.87
9055.009
9054.195
9053.425
9052.689
9051.997
9051.35
9050.749
9050.197
9049.698
9049.248
9048.86
9048.533
9048.269
9048.073
9047.947
9047.893
9047.92
9048.026
9048.21
9048.477
9048.827
9049.263
9049.797
9050.414
9051.121
9051.927
9052.83
9053.829
9054.923
9056.112
9057.395
9058.769
9060.233
9061.785
9063.423
9065.143
9066.94
9068.81
9070.747
9072.746
9074.797
9076.895
9079.029
9081.192
9083.372
9085.559
9087.74
9089.902
9092.033
9094.116
9096.137
9098.076
9099.916
9101.635
9103.211
9104.618
9105.828
9106.808
9107.518
9107.914
9107.94
9107.525
9106.576
9104.948
9102.459
9098.819
9093.553
9086.232
9078.906
9084.788
9128.854
7414.534
7417.278
7419.726
7427.415
7439.202
7456.214
7476.253
7500.023
7527.245
7537.62
7585.488
7618.91
7655.663
7693.632
7733.044
7773.455
7814.514
7855.962
7923.392
7960.994
7990.631
8029.87
8069.821
8108.959
8147.993
8186.421
8224.039
8260.906
8293.475
8327.196
8361.584
8393.543
8424.238
8453.958
8482.644
8510.234
8536.766
8562.286
8584.426
8607.188
8629.531
8650.656
8670.905
8690.341
8708.891
8726.536
8743.31
8759.815
8774.569
8788.605
8802.222
8815.351
8827.991
8840.151
8851.979
8864.268
8879.246
8889.126
8897.448
8906.404
8915.841
8925.2
8934.29
8943.16
8951.884
8960.467
8968.759
8976.818
8984.811
8992.768
9000.669
9008.527
9016.431
9024.486
9032.661
9040.175
9045.708
9050.627
9056.222
9061.489
9065.59
9068.791
9071.65
9074.416
9077.128
9079.797
9082.442
9085.077
9087.717
9090.375
9093.069
9095.825
9098.703
9101.832
9105.44
9109.739
9114.642
9120.339
9127.409
9134.817
9140.971
9145.502
9148.026
9147.688
9145.111
9145.237
9148.533
9152.948
9157.438
9161.82
9166.126
9170.354
9174.472
9178.457
9182.297
9185.982
9189.506
9192.86
9196.039
9199.038
9201.854
9204.485
9206.931
9209.194
9211.276
9213.181
9214.915
9216.484
9217.894
9219.153
9220.27
9221.251
9222.106
9222.843
9223.469
9223.994
9224.424
9224.768
9225.032
9225.221
9225.343
9225.406
9225.411
9225.361
9225.26
9225.11
9224.914
9224.671
9224.382
9224.045
9223.7
9223.334
9223.002
9222.783
9222.67
9222.509
9222.139
9221.602
9220.984
9220.324
9219.629
9218.895
9218.118
9217.291
9216.414
9215.486
9214.507
9213.476
9212.393
9211.257
9210.067
9208.822
9207.523
9206.17
9204.765
9203.303
9201.806
9200.252
9198.644
9196.984
9195.273
9193.512
9191.704
9189.849
9187.949
9186.005
9184.018
9181.989
9179.919
9177.811
9175.664
9173.481
9171.261
9169.009
9166.72
9164.401
9162.042
9159.656
9157.223
9154.775
9152.285
9149.851
9147.41
9145.053
9144.629
9142.459
9139.882
9137.464
9135.014
9132.535
9130.049
9127.556
9125.055
9122.547
9120.035
9117.518
9114.994
9112.464
9109.925
9107.378
9104.822
9102.256
9099.675
9097.046
9094.417
9091.765
9089.087
9086.375
9083.623
9080.822
9077.958
9075.015
9071.97
9068.789
9065.424
9061.809
9057.854
9053.57
9049.37
9046.313
9046.05
9047.484
9048.386
9048.919
9049.334
9049.598
9049.752
9049.846
9049.904
9049.941
9049.972
9050.009
9050.06
9050.132
9050.232
9050.363
9050.529
9050.732
9050.976
9051.26
9051.587
9051.956
9052.37
9052.826
9053.326
9053.87
9054.456
9055.085
9055.758
9056.477
9057.244
9058.059
9058.983
9060.714
9063.538
9066.056
9065.874
9064.575
9063.842
9063.996
9064.657
9065.45
9066.224
9066.981
9067.755
9068.564
9069.397
9070.236
9071.067
9071.884
9072.682
9073.459
9074.21
9074.932
9075.622
9076.279
9076.899
9077.48
9078.022
9078.523
9078.981
9079.395
9079.766
9080.093
9080.375
9080.614
9080.81
9080.964
9081.077
9081.153
9081.194
9081.205
9081.191
9081.159
9081.114
9081.062
9080.995
9080.878
9080.64
9080.182
9079.406
9078.364
9077.26
9076.189
9075.131
9073.988
9072.486
9070.236
9067.455
9065.89
9065.449
9065.262
9064.742
9063.85
9062.777
9061.686
9060.635
9059.622
9058.635
9057.674
9056.744
9055.85
9054.992
9054.171
9053.388
9052.646
9051.951
9051.302
9050.701
9050.151
9049.653
9049.211
9048.827
9048.506
9048.25
9048.061
9047.944
9047.902
9047.939
9048.065
9048.264
9048.544
9048.909
9049.362
9049.906
9050.54
9051.269
9052.094
9053.018
9054.037
9055.152
9056.362
9057.665
9059.059
9060.544
9062.116
9063.774
9065.513
9067.33
9069.219
9071.175
9073.191
9075.26
9077.374
9079.524
9081.7
9083.893
9086.091
9088.282
9090.453
9092.59
9094.678
9096.702
9098.643
9100.483
9102.201
9103.777
9105.182
9106.394
9107.377
9108.101
9108.519
9108.593
9108.253
9107.453
9106.094
9104.164
9101.664
9099.008
9096.996
9097.227
9100.584
9107.654
7036.776
7359.122
7680.631
7980.708
8253.374
8492.916
8691.549
8847.277
8960.057
9026.501
9055.862
9056.432
9030.878
8983.48
8919.265
8842.628
8757.038
8665.293
8572.37
8456.349
8362.592
8268.994
8177.656
8089.761
8006.066
7927.347
7853.978
7786.749
7727.127
7666.777
7614.504
7569.846
7530.529
7497.134
7469.583
7447.787
7431.825
7423.211
7415.013
7408.685
7413.45
7423.396
7436.584
7453.79
7475.144
7499.861
7527.462
7556.572
7590.66
7626.083
7662.468
7700.263
7739.56
7780.007
7820.992
7862.809
7923.945
7967.913
8003.341
8039.493
8078.383
8118.472
8158.07
8196.541
8233.902
8270.284
8305.407
8338.845
8371.192
8402.739
8433.435
8463.081
8491.586
8518.99
8545.307
8570.427
8593.97
8616.16
8637.691
8658.64
8678.787
8698.016
8716.324
8733.75
8750.308
8766.037
8780.972
8795.145
8808.645
8821.621
8834.049
8846.042
8857.518
8868.959
8880.112
8889.894
8899.196
8908.563
8917.983
8927.254
8936.27
8945.045
8953.659
8962.06
8970.288
8978.37
8986.344
8994.239
9002.056
9009.814
9017.51
9025.118
9032.547
9039.623
9045.533
9050.696
9055.837
9060.788
9064.981
9068.423
9071.475
9074.368
9077.156
9079.859
9082.509
9085.129
9087.747
9090.391
9093.09
9095.89
9098.855
9102.084
9105.704
9109.868
9114.571
9119.743
9125.567
9131.593
9136.795
9140.722
9143.354
9144.569
9144.533
9145.485
9148.325
9152.218
9156.336
9160.452
9164.562
9168.65
9172.67
9176.588
9180.383
9184.04
9187.55
9190.901
9194.086
9197.098
9199.934
9202.59
9205.067
9207.364
9209.484
9211.431
9213.209
9214.823
9216.28
9217.587
9218.752
9219.782
9220.685
9221.47
9222.144
9222.716
9223.192
9223.58
9223.888
9224.121
9224.287
9224.391
9224.436
9224.427
9224.367
9224.259
9224.105
9223.908
9223.672
9223.403
9223.112
9222.808
9222.518
9222.261
9222.024
9221.757
9221.382
9220.879
9220.299
9219.678
9219.022
9218.322
9217.572
9216.769
9215.914
9215.007
9214.047
9213.034
9211.966
9210.845
9209.668
9208.438
9207.152
9205.814
9204.422
9202.982
9201.471
9199.912
9198.303
9196.644
9194.936
9193.179
9191.374
9189.522
9187.625
9185.683
9183.697
9181.67
9179.601
9177.493
9175.347
9173.163
9170.945
9168.692
9166.406
9164.088
9161.741
9159.364
9156.966
9154.547
9152.129
9149.718
9147.405
9145.232
9143.306
9141.182
9138.782
9136.259
9133.745
9131.257
9128.77
9126.271
9123.762
9121.245
9118.723
9116.195
9113.66
9111.118
9108.568
9106.009
9103.438
9100.855
9098.236
9095.665
9093.058
9090.42
9087.758
9085.068
9082.343
9079.576
9076.758
9073.877
9070.921
9067.873
9064.726
9061.488
9058.231
9055.088
9052.349
9050.399
9049.49
9049.412
9049.628
9049.811
9049.903
9049.937
9049.943
9049.937
9049.925
9049.913
9049.908
9049.92
9049.954
9050.016
9050.11
9050.239
9050.406
9050.613
9050.862
9051.153
9051.488
9051.867
9052.289
9052.756
9053.265
9053.819
9054.413
9055.051
9055.728
9056.45
9057.205
9058.01
9058.832
9059.696
9060.098
9059.714
9059.683
9060.324
9061.362
9062.5
9063.601
9064.634
9065.606
9066.536
9067.445
9068.345
9069.239
9070.121
9070.985
9071.828
9072.646
9073.44
9074.205
9074.941
9075.643
9076.31
9076.94
9077.532
9078.082
9078.591
9079.058
9079.48
9079.858
9080.191
9080.479
9080.722
9080.922
9081.078
9081.192
9081.265
9081.301
9081.302
9081.27
9081.209
9081.117
9080.99
9080.815
9080.567
9080.213
9079.713
9079.024
9078.136
9077.118
9076.08
9075.038
9074.033
9073.199
9072.763
9072.553
9071.814
9070.288
9068.45
9066.704
9065.149
9063.746
9062.453
9061.25
9060.123
9059.058
9058.036
9057.059
9056.13
9055.243
9054.399
9053.597
9052.838
9052.124
9051.457
9050.839
9050.273
9049.761
9049.305
9048.91
9048.577
9048.309
9048.11
9047.982
9047.928
9047.952
9048.094
9048.274
9048.536
9048.885
9049.324
9049.855
9050.479
9051.197
9052.013
9052.933
9053.947
9055.057
9056.264
9057.563
9058.954
9060.435
9062.004
9063.661
9065.401
9067.22
9069.113
9071.074
9073.096
9075.172
9077.295
9079.456
9081.645
9083.852
9086.066
9088.276
9090.468
9092.629
9094.744
9096.798
9098.773
9100.652
9102.414
9104.04
9105.507
9106.789
9107.86
9108.69
9109.248
9109.499
9109.409
9108.949
9108.116
9106.951
9105.593
9104.32
9103.474
9103.501
9104.88
9108.115
4828.611
4865.207
4926.894
5010.384
5121.115
5274.396
5451.089
5662.277
5907.256
6151.822
6404.26
6689.441
6993.67
7308.861
7622.329
7919.969
8190.983
8426.801
8621.71
8773.579
8883.269
8955.799
8990.688
8990.955
8965.124
8918.277
8855.077
8779.749
8695.785
8606.929
8518.917
8383.632
8296.386
8211.079
8122.947
8036.506
7955.048
7879.361
7809.321
7744.71
7685.325
7631.268
7582.781
7539.996
7502.973
7471.804
7446.432
7426.722
7412.433
7403.182
7399.175
7399.846
7404.899
7414.511
7428.691
7447.103
7469.337
7495.077
7523.968
7555.589
7589.374
7625.143
7662.567
7701.675
7742.01
7783.46
7825.47
7869.233
7915.116
7956.848
7995.709
8034.951
8075.479
8116.349
8156.48
8195.379
8233.049
8269.508
8304.791
8338.891
8371.9
8403.852
8434.705
8464.413
8492.949
8520.328
8546.53
8571.557
8595.417
8618.183
8640.053
8661.108
8681.286
8700.535
8718.863
8736.312
8752.925
8768.712
8783.672
8797.892
8811.468
8824.468
8836.929
8848.862
8860.31
8871.109
8881.789
8892.032
8901.71
8911.049
8920.245
8929.307
8938.187
8946.892
8955.413
8963.803
8972.017
8980.081
8988.021
8995.872
9003.562
9011.164
9018.649
9025.971
9033.039
9039.72
9045.672
9051.003
9056.025
9060.745
9064.928
9068.538
9071.759
9074.758
9077.609
9080.348
9083.01
9085.63
9088.242
9090.882
9093.588
9096.409
9099.401
9102.641
9106.213
9110.194
9114.579
9119.306
9124.357
9129.437
9134.004
9137.75
9140.611
9142.617
9143.992
9145.775
9148.576
9152.12
9155.959
9159.885
9163.849
9167.817
9171.745
9175.593
9179.336
9182.956
9186.438
9189.77
9192.944
9195.95
9198.785
9201.446
9203.929
9206.237
9208.371
9210.333
9212.128
9213.762
9215.24
9216.569
9217.757
9218.811
9219.739
9220.55
9221.25
9221.848
9222.351
9222.766
9223.102
9223.363
9223.557
9223.687
9223.76
9223.779
9223.748
9223.67
9223.548
9223.386
9223.187
9222.958
9222.705
9222.437
9222.165
9221.894
9221.618
9221.312
9220.935
9220.471
9219.937
9219.351
9218.718
9218.035
9217.301
9216.514
9215.674
9214.781
9213.834
9212.833
9211.777
9210.665
9209.498
9208.276
9206.999
9205.666
9204.279
9202.838
9201.34
9199.791
9198.19
9196.537
9194.834
9193.081
9191.279
9189.43
9187.534
9185.593
9183.607
9181.579
9179.509
9177.399
9175.25
9173.064
9170.841
9168.584
9166.294
9163.974
9161.624
9159.249
9156.854
9154.447
9152.04
9149.652
9147.312
9145.034
9142.747
9140.402
9138.007
9135.571
9133.116
9130.649
9128.169
9125.672
9123.159
9120.636
9118.105
9115.567
9113.024
9110.474
9107.917
9105.355
9102.784
9100.206
9097.615
9095.02
9092.405
9089.773
9087.123
9084.452
9081.758
9079.035
9076.278
9073.483
9070.646
9067.769
9064.865
9061.965
9059.14
9056.489
9054.174
9052.358
9051.185
9050.635
9050.448
9050.349
9050.236
9050.119
9050.013
9049.924
9049.848
9049.788
9049.747
9049.731
9049.743
9049.788
9049.87
9049.989
9050.148
9050.35
9050.595
9050.883
9051.217
9051.594
9052.017
9052.483
9052.993
9053.546
9054.141
9054.777
9055.451
9056.162
9056.906
9057.672
9058.437
9059.134
9059.797
9060.615
9061.52
9062.319
9062.999
9063.668
9064.401
9065.195
9066.02
9066.856
9067.699
9068.547
9069.401
9070.254
9071.098
9071.928
9072.739
9073.529
9074.294
9075.031
9075.736
9076.408
9077.043
9077.64
9078.197
9078.713
9079.185
9079.614
9079.997
9080.335
9080.627
9080.874
9081.074
9081.23
9081.341
9081.409
9081.434
9081.419
9081.364
9081.268
9081.13
9080.942
9080.695
9080.374
9079.958
9079.421
9078.741
9077.916
9076.985
9076.01
9075.015
9073.999
9072.906
9071.619
9070.131
9068.613
9067.339
9066.258
9065.266
9064.266
9063.224
9062.158
9061.096
9060.053
9059.033
9058.049
9057.093
9056.17
9055.284
9054.435
9053.626
9052.857
9052.132
9051.454
9050.824
9050.247
9049.723
9049.256
9048.848
9048.504
9048.224
9048.013
9047.874
9047.808
9047.819
9047.872
9048.051
9048.318
9048.672
9049.115
9049.649
9050.275
9050.996
9051.811
9052.739
9053.743
9054.849
9056.06
9057.358
9058.752
9060.234
9061.806
9063.468
9065.216
9067.044
9068.948
9070.923
9072.961
9075.056
9077.199
9079.383
9081.598
9083.834
9086.08
9088.324
9090.554
9092.757
9094.918
9097.022
9099.053
9100.993
9102.824
9104.528
9106.083
9107.469
9108.661
9109.637
9110.375
9110.852
9111.054
9110.978
9110.642
9110.111
9109.474
9108.925
9108.57
9108.758
9109.462
9111.325
5153.013
5101.317
5054.382
5006.237
4956.786
4910.847
4873.431
4842.206
4820.876
4810.133
4810.823
4824.58
4857.621
4910.195
4983.414
5084.431
5235.722
5404.882
5599.664
5823.054
6073.517
6351.126
6653.744
6974.303
7300.484
7618.465
7917.195
8186.364
8416.796
8604.115
8747.623
8848.536
8910.185
8936.487
8931.525
8901.046
8850.777
8785.558
8709.25
8625.141
8535.575
8442.599
8347.478
8255.823
8168.811
8083.005
7999.192
7919.712
7845.648
7776.992
7713.603
7655.654
7603.074
7555.819
7514.219
7478.389
7448.276
7423.78
7404.771
7391.104
7382.745
7379.428
7380.551
7386.194
7396.603
7411.64
7430.868
7453.893
7480.241
7509.565
7541.605
7576.143
7612.749
7651.137
7691.069
7732.457
7774.822
7818.439
7862.036
7905.448
7948.328
7990.257
8031.681
8072.986
8113.944
8154.102
8193.167
8231.072
8267.824
8303.455
8337.939
8371.238
8403.354
8434.309
8464.116
8492.771
8520.278
8546.646
8571.901
8596.058
8619.136
8641.209
8662.361
8682.617
8701.971
8720.427
8738.007
8754.741
8770.646
8785.757
8800.133
8813.837
8826.918
8839.42
8851.36
8862.789
8873.712
8884.338
8894.565
8904.286
8913.634
8922.778
8931.769
8940.586
8949.219
8957.659
8965.928
8974.036
8982.001
8989.839
8997.551
9005.204
9012.695
9020.009
9027.111
9033.924
9040.364
9046.249
9051.616
9056.583
9061.193
9065.365
9069.071
9072.407
9075.488
9078.391
9081.162
9083.839
9086.461
9089.068
9091.701
9094.402
9097.214
9100.189
9103.385
9106.857
9110.642
9114.733
9119.07
9123.567
9128.034
9132.176
9135.783
9138.796
9141.295
9143.482
9145.844
9148.744
9152.142
9155.818
9159.615
9163.468
9167.335
9171.176
9174.953
9178.638
9182.21
9185.653
9188.954
9192.101
9195.088
9197.908
9200.557
9203.034
9205.338
9207.47
9209.434
9211.233
9212.873
9214.36
9215.699
9216.899
9217.967
9218.91
9219.737
9220.455
9221.072
9221.595
9222.032
9222.39
9222.674
9222.891
9223.046
9223.145
9223.19
9223.187
9223.138
9223.047
9222.918
9222.754
9222.56
9222.341
9222.102
9221.847
9221.58
9221.293
9220.973
9220.598
9220.156
9219.649
9219.087
9218.475
9217.812
9217.097
9216.328
9215.506
9214.63
9213.699
9212.712
9211.67
9210.571
9209.416
9208.205
9206.937
9205.614
9204.234
9202.8
9201.31
9199.765
9198.168
9196.519
9194.818
9193.066
9191.266
9189.417
9187.521
9185.579
9183.592
9181.562
9179.49
9177.378
9175.226
9173.036
9170.81
9168.55
9166.257
9163.935
9161.585
9159.212
9156.821
9154.418
9152.014
9149.617
9147.238
9144.874
9142.51
9140.142
9137.745
9135.307
9132.837
9130.347
9127.843
9125.327
9122.799
9120.261
9117.717
9115.167
9112.611
9110.051
9107.484
9104.913
9102.335
9099.751
9097.157
9094.558
9091.949
9089.33
9086.699
9084.055
9081.398
9078.724
9076.032
9073.325
9070.604
9067.881
9065.174
9062.518
9059.968
9057.6
9055.511
9053.802
9052.549
9051.739
9051.236
9050.879
9050.582
9050.326
9050.112
9049.935
9049.79
9049.676
9049.593
9049.544
9049.53
9049.555
9049.62
9049.727
9049.877
9050.072
9050.311
9050.597
9050.928
9051.305
9051.727
9052.195
9052.706
9053.26
9053.855
9054.489
9055.161
9055.866
9056.598
9057.347
9058.104
9058.865
9059.672
9060.504
9061.233
9061.88
9062.544
9063.287
9064.108
9064.975
9065.86
9066.746
9067.63
9068.513
9069.392
9070.266
9071.127
9071.973
9072.798
9073.601
9074.379
9075.127
9075.843
9076.525
9077.171
9077.778
9078.344
9078.869
9079.349
9079.785
9080.176
9080.519
9080.815
9081.064
9081.266
9081.42
9081.527
9081.587
9081.601
9081.569
9081.49
9081.363
9081.185
9080.951
9080.653
9080.28
9079.817
9079.251
9078.571
9077.782
9076.902
9075.965
9074.987
9073.97
9072.939
9071.94
9070.98
9069.993
9068.829
9067.573
9066.29
9065.022
9063.789
9062.598
9061.449
9060.345
9059.281
9058.258
9057.27
9056.317
9055.401
9054.525
9053.691
9052.901
9052.155
9051.458
9050.81
9050.214
9049.672
9049.188
9048.764
9048.404
9048.109
9047.883
9047.729
9047.648
9047.643
9047.707
9047.863
9048.108
9048.443
9048.869
9049.387
9050
9050.71
9051.517
9052.409
9053.423
9054.539
9055.776
9057.062
9058.466
9059.944
9061.522
9063.194
9064.955
9066.8
9068.722
9070.718
9072.78
9074.901
9077.075
9079.292
9081.543
9083.819
9086.109
9088.401
9090.683
9092.942
9095.164
9097.334
9099.438
9101.458
9103.378
9105.18
9106.846
9108.357
9109.694
9110.841
9111.78
9112.501
9112.999
9113.281
9113.372
9113.325
9113.203
9113.134
9113.177
9113.573
9114.183
9115.599
5708.668
5650.367
5595.317
5538.38
5487.936
5426.886
5373.536
5319.735
5265.524
5211.131
5158.144
5106.458
5054.898
5005.92
4957.511
4907.96
4869.277
4837.456
4813.412
4798.405
4794.746
4804.738
4831.126
4876.551
4943.536
5036.14
5154.331
5307.37
5491.994
5708.545
5956.811
6237.07
6544.05
6868.754
7198.936
7521.756
7823.405
8094.109
8325.354
8512.835
8655.792
8755.897
8816.786
8843.037
8839.41
8811.16
8763.607
8701.442
8628.451
8547.817
8461.868
8373.295
8284.014
8195.828
8110.878
8028.751
7949.208
7873.122
7801.479
7734.789
7673.225
7617.015
7566.159
7520.651
7480.622
7446.138
7417.167
7393.64
7375.478
7362.604
7354.908
7352.144
7354.071
7360.695
7372.022
7387.813
7407.568
7431.223
7458.362
7488.555
7521.549
7557.096
7594.809
7634.398
7675.559
7718.12
7761.656
7805.958
7850.288
7894.66
7938.99
7982.695
8025.523
8067.639
8109.119
8149.809
8189.483
8228.008
8265.34
8301.469
8336.373
8370.033
8402.462
8433.692
8463.744
8492.626
8520.348
8546.927
8572.386
8596.745
8620.031
8642.297
8663.61
8684.011
8703.511
8722.116
8739.843
8756.717
8772.769
8788.034
8802.556
8816.383
8829.561
8842.136
8854.141
8865.63
8876.632
8887.215
8897.384
8907.128
8916.515
8925.649
8934.582
8943.323
8951.868
8960.226
8968.417
8976.456
8984.351
8992.111
8999.736
9007.223
9014.538
9021.658
9028.546
9035.14
9041.371
9047.201
9052.559
9057.502
9062.072
9066.242
9069.999
9073.407
9076.546
9079.489
9082.286
9084.978
9087.601
9090.199
9092.818
9095.499
9098.281
9101.207
9104.325
9107.671
9111.268
9115.099
9119.108
9123.206
9127.261
9131.097
9134.58
9137.678
9140.466
9143.099
9145.836
9148.876
9152.239
9155.823
9159.526
9163.287
9167.067
9170.828
9174.532
9178.152
9181.668
9185.063
9188.322
9191.434
9194.39
9197.185
9199.813
9202.272
9204.563
9206.686
9208.644
9210.44
9212.079
9213.568
9214.912
9216.119
9217.195
9218.15
9218.989
9219.722
9220.355
9220.897
9221.353
9221.731
9222.038
9222.278
9222.458
9222.582
9222.655
9222.68
9222.661
9222.601
9222.504
9222.373
9222.211
9222.022
9221.81
9221.575
9221.318
9221.034
9220.714
9220.347
9219.922
9219.439
9218.902
9218.312
9217.671
9216.977
9216.229
9215.426
9214.568
9213.654
9212.684
9211.656
9210.572
9209.43
9208.23
9206.973
9205.659
9204.288
9202.861
9201.378
9199.84
9198.248
9196.603
9194.906
9193.157
9191.359
9189.511
9187.616
9185.674
9183.687
9181.656
9179.582
9177.467
9175.312
9173.119
9170.889
9168.625
9166.329
9164.003
9161.651
9159.276
9156.882
9154.475
9152.062
9149.649
9147.239
9144.834
9142.432
9140.022
9137.587
9135.12
9132.627
9130.117
9127.596
9125.063
9122.521
9119.97
9117.412
9114.849
9112.28
9109.707
9107.129
9104.547
9101.961
9099.369
9096.773
9094.172
9091.567
9088.956
9086.341
9083.72
9081.096
9078.467
9075.835
9073.206
9070.587
9067.992
9065.442
9062.969
9060.617
9058.441
9056.505
9054.869
9053.569
9052.594
9051.876
9051.325
9050.875
9050.497
9050.182
9049.92
9049.707
9049.537
9049.409
9049.324
9049.282
9049.284
9049.331
9049.423
9049.563
9049.75
9049.984
9050.266
9050.595
9050.972
9051.395
9051.864
9052.377
9052.933
9053.531
9054.167
9054.839
9055.544
9056.275
9057.028
9057.799
9058.587
9059.385
9060.163
9060.895
9061.622
9062.391
9063.212
9064.073
9064.956
9065.851
9066.749
9067.647
9068.544
9069.436
9070.322
9071.196
9072.054
9072.892
9073.707
9074.497
9075.257
9075.986
9076.68
9077.337
9077.955
9078.533
9079.067
9079.557
9080.001
9080.398
9080.748
9081.048
9081.3
9081.502
9081.654
9081.755
9081.807
9081.809
9081.76
9081.659
9081.505
9081.294
9081.022
9080.683
9080.269
9079.771
9079.183
9078.499
9077.726
9076.871
9075.955
9074.989
9073.994
9072.961
9071.897
9070.782
9069.618
9068.419
9067.22
9066.038
9064.873
9063.723
9062.589
9061.477
9060.39
9059.33
9058.301
9057.303
9056.337
9055.407
9054.516
9053.665
9052.857
9052.093
9051.377
9050.71
9050.095
9049.534
9049.031
9048.589
9048.209
9047.896
9047.652
9047.479
9047.381
9047.359
9047.415
9047.557
9047.788
9048.109
9048.522
9049.03
9049.633
9050.335
9051.135
9052.029
9053.027
9054.124
9055.304
9056.647
9058.112
9059.561
9061.147
9062.836
9064.616
9066.482
9068.429
9070.453
9072.546
9074.702
9076.914
9079.174
9081.471
9083.798
9086.143
9088.495
9090.841
9093.17
9095.468
9097.72
9099.913
9102.03
9104.055
9105.973
9107.768
9109.423
9110.923
9112.255
9113.408
9114.376
9115.158
9115.768
9116.226
9116.575
9116.864
9117.181
9117.56
9118.167
9118.843
9120.173
5991.044
5958.273
5896.499
5826.294
5758.679
5697.798
5640.398
5586.04
5533.687
5479.356
5417.938
5364.653
5311.752
5258.628
5205.216
5152.135
5099.86
5048.402
4997.909
4950.42
4906.362
4865.45
4829.217
4799.484
4777.951
4766.724
4768.182
4784.93
4820.303
4878.353
4962.434
5073.974
5217.189
5393.39
5604.232
5850.035
6129.506
6437.533
6764.185
7095.503
7418.295
7718.427
7985.873
8213.298
8396.887
8536.26
8633.623
8692.966
8719.176
8717.288
8692.282
8648.928
8591.538
8523.738
8448.561
8368.518
8285.839
8202.294
8119.131
8037.882
7959.52
7884.117
7811.878
7743.508
7679.783
7621.048
7567.439
7518.983
7475.686
7437.591
7404.749
7377.174
7354.849
7337.742
7325.796
7318.922
7317.004
7319.926
7327.56
7339.801
7356.311
7377.285
7402.061
7430.29
7461.678
7495.946
7532.811
7571.929
7612.994
7655.678
7699.711
7744.71
7790.358
7836.278
7882.257
7928.03
7973.171
8017.418
8060.791
8103.338
8144.966
8185.499
8224.803
8262.815
8299.52
8334.916
8369.009
8401.817
8433.37
8463.693
8492.809
8520.738
8547.507
8573.143
8597.678
8621.148
8643.599
8665.083
8685.636
8705.28
8724.029
8741.901
8758.923
8775.127
8790.545
8805.214
8819.176
8832.475
8845.154
8857.251
8868.811
8879.867
8890.462
8900.634
8910.409
8919.828
8928.958
8937.847
8946.522
8954.995
8963.278
8971.389
8979.34
8987.139
8994.789
9002.289
9009.629
9016.791
9023.746
9030.459
9036.882
9042.966
9048.667
9053.953
9058.839
9063.351
9067.497
9071.288
9074.755
9077.958
9080.945
9083.771
9086.477
9089.1
9091.689
9094.283
9096.925
9099.655
9102.511
9105.528
9108.73
9112.13
9115.712
9119.434
9123.225
9126.992
9130.626
9134.044
9137.221
9140.205
9143.093
9146.03
9149.149
9152.49
9156.005
9159.625
9163.298
9166.993
9170.674
9174.301
9177.848
9181.298
9184.632
9187.837
9190.901
9193.815
9196.572
9199.168
9201.601
9203.869
9205.973
9207.917
9209.703
9211.336
9212.821
9214.166
9215.376
9216.458
9217.422
9218.272
9219.019
9219.668
9220.227
9220.703
9221.102
9221.432
9221.697
9221.903
9222.054
9222.155
9222.209
9222.221
9222.193
9222.128
9222.029
9221.899
9221.74
9221.553
9221.34
9221.099
9220.827
9220.517
9220.162
9219.756
9219.296
9218.782
9218.216
9217.597
9216.924
9216.197
9215.414
9214.575
9213.679
9212.725
9211.714
9210.644
9209.515
9208.328
9207.083
9205.779
9204.418
9202.999
9201.524
9199.993
9198.407
9196.767
9195.074
9193.329
9191.533
9189.688
9187.793
9185.852
9183.865
9181.832
9179.757
9177.639
9175.482
9173.285
9171.052
9168.784
9166.484
9164.154
9161.797
9159.416
9157.016
9154.601
9152.175
9149.744
9147.309
9144.873
9142.433
9139.981
9137.51
9135.017
9132.505
9129.977
9127.439
9124.89
9122.332
9119.767
9117.195
9114.617
9112.035
9109.449
9106.858
9104.266
9101.672
9099.073
9096.471
9093.866
9091.26
9088.654
9086.05
9083.449
9080.854
9078.268
9075.692
9073.133
9070.601
9068.112
9065.685
9063.349
9061.138
9059.092
9057.252
9055.656
9054.322
9053.243
9052.382
9051.686
9051.11
9050.625
9050.216
9049.876
9049.595
9049.37
9049.196
9049.073
9049
9048.977
9049.005
9049.082
9049.21
9049.388
9049.616
9049.894
9050.222
9050.599
9051.023
9051.495
9052.011
9052.572
9053.174
9053.815
9054.492
9055.201
9055.939
9056.701
9057.483
9058.279
9059.078
9059.874
9060.67
9061.478
9062.308
9063.164
9064.043
9064.938
9065.845
9066.758
9067.674
9068.587
9069.497
9070.398
9071.287
9072.16
9073.013
9073.844
9074.648
9075.422
9076.165
9076.873
9077.543
9078.174
9078.763
9079.308
9079.808
9080.261
9080.665
9081.02
9081.325
9081.578
9081.78
9081.929
9082.025
9082.068
9082.057
9081.991
9081.869
9081.689
9081.449
9081.145
9080.772
9080.325
9079.799
9079.191
9078.499
9077.726
9076.881
9075.973
9075.022
9074.026
9072.987
9071.906
9070.788
9069.644
9068.483
9067.313
9066.142
9064.975
9063.817
9062.671
9061.543
9060.438
9059.359
9058.31
9057.291
9056.305
9055.355
9054.442
9053.57
9052.739
9051.953
9051.214
9050.525
9049.887
9049.305
9048.78
9048.315
9047.914
9047.579
9047.314
9047.12
9047.002
9046.962
9047.002
9047.128
9047.343
9047.649
9048.048
9048.543
9049.136
9049.827
9050.619
9051.511
9052.507
9053.605
9054.8
9056.102
9057.464
9059.035
9060.663
9062.378
9064.184
9066.079
9068.059
9070.118
9072.251
9074.452
9076.714
9079.027
9081.383
9083.773
9086.186
9088.612
9091.038
9093.452
9095.841
9098.192
9100.49
9102.72
9104.869
9106.921
9108.861
9110.676
9112.353
9113.881
9115.253
9116.465
9117.52
9118.429
9119.212
9119.902
9120.533
9121.171
9121.829
9122.64
9123.429
9124.83
5954.569
5910.539
5826.725
5770.328
5714.793
5662.57
5612.297
5562.882
5513.384
5463.641
5414.384
5363.893
5312.625
5260.492
5207.906
5154.943
5102.199
5049.814
4997.795
4947.444
4900.52
4856.558
4816.177
4781.605
4754.804
4737.653
4732.517
4742.206
4770.107
4819.491
4894.322
4997.598
5133.157
5303.076
5509.329
5752.751
6030.733
6337.521
6662.044
6990.289
7307.961
7601.512
7860.973
8080.211
8256.464
8389.985
8483.533
8541.349
8568.308
8569.256
8548.816
8511.21
8460.275
8399.31
8331.179
8258.206
8182.14
8104.766
8027.382
7951.149
7877.331
7806.418
7738.662
7674.539
7614.643
7559.351
7508.818
7463.109
7422.254
7386.298
7355.293
7329.287
7308.311
7292.379
7281.484
7275.598
7274.679
7278.654
7287.36
7300.653
7318.638
7340.851
7366.895
7396.485
7429.346
7465.177
7503.676
7544.515
7587.377
7631.922
7677.828
7724.734
7772.298
7820.175
7868.025