/*--------------------------------*- C++ -*----------------------------------*\
| =========                 |                                                 |
| \\      /  F ield         | foam-extend: Open Source CFD                    |
|  \\    /   O peration     | Version:     3.1                                |
|   \\  /    A nd           | Web:         http://www.extend-project.de       |
|    \\/     M anipulation  |                                                 |
\*---------------------------------------------------------------------------*/
FoamFile
{
    version     2.0;
    format      ascii;
    class       volScalarField;
    location    "7.5";
    object      k;
}
// * * * * * * * * * * * * * * * * * * * * * * * * * * * * * * * * * * * * * //

dimensions      [0 2 -2 0 0 0 0];

internalField   nonuniform List<scalar> 
119952
(
0.03735655
0.03232896
0.02998792
0.02859991
0.02715591
0.02567199
0.02479023
0.02407921
0.0233967
0.02264815
0.02179936
0.0208759
0.02000145
0.01940289
0.019267
0.01956463
0.02004277
0.0203609
0.0200979
0.01948078
0.02088786
0.01923006
0.01837763
0.01973972
0.01822608
0.01741707
0.01687545
0.01637433
0.01551006
0.01746173
0.07851156
0.07295436
0.07070712
0.07056743
0.07186039
0.0740484
0.07671413
0.07960894
0.08256097
0.08559325
0.08532989
0.08945632
0.09519044
0.1012049
0.1068545
0.1118444
0.1160778
0.1195783
0.1223368
0.1368327
0.1371423
0.1368004
0.1358076
0.1344808
0.1327872
0.1308146
0.1286088
0.126205
0.1239755
0.1220857
0.1201747
0.1183566
0.1166706
0.1150838
0.1135589
0.1120201
0.1103903
0.1086397
0.1085242
0.1064419
0.1044038
0.1031493
0.1019428
0.100413
0.09869168
0.096992
0.0953671
0.09382136
0.0923469
0.09094754
0.08966156
0.08858899
0.08785805
0.08754766
0.08761789
0.08787294
0.08802131
0.08786963
0.0875221
0.08680232
0.08563246
0.08470385
0.08397197
0.08272566
0.08118058
0.07958307
0.07743665
0.07391343
0.0710385
0.06849193
0.0661281
0.06389237
0.06178497
0.05981464
0.05798293
0.05628973
0.05473177
0.05330194
0.05199274
0.05079453
0.04969619
0.04868626
0.04775365
0.04688819
0.04608186
0.04532926
0.04462037
0.04394527
0.04329554
0.0426642
0.04204577
0.04143612
0.0408323
0.04023243
0.03963563
0.03904195
0.03845232
0.03786857
0.03729349
0.03673087
0.0361823
0.03564948
0.03513513
0.03464132
0.03416887
0.03371922
0.03329355
0.03289244
0.03251601
0.03216409
0.03183628
0.03153104
0.0312473
0.03098323
0.03073624
0.03050162
0.03028407
0.03009981
0.02993701
0.02976926
0.02958557
0.02938168
0.02916185
0.02892733
0.02868178
0.02842763
0.02816643
0.02789925
0.02762694
0.02735015
0.02706957
0.02678633
0.02650154
0.02621586
0.02593012
0.02564561
0.02536371
0.02508572
0.02481278
0.02454592
0.02428602
0.02403384
0.02378998
0.02355487
0.02332881
0.02311199
0.02290445
0.02270612
0.02251684
0.02233645
0.02216465
0.02200113
0.0218455
0.02169745
0.02155654
0.02142253
0.02129515
0.0211738
0.02105758
0.0209468
0.02084115
0.02074074
0.02064464
0.02055323
0.0204642
0.0203763
0.02030157
0.02013663
0.01969473
0.01927011
0.01890228
0.01858654
0.01831193
0.01806892
0.01785131
0.01765523
0.01747794
0.01731753
0.01717267
0.01704222
0.01692516
0.01682059
0.01672766
0.01664552
0.01657334
0.01651041
0.01645611
0.01640993
0.01637145
0.01634032
0.01631623
0.01629892
0.0162882
0.01628385
0.0162858
0.01629405
0.0163087
0.01632988
0.01635779
0.01639272
0.01643468
0.01648015
0.01649427
0.01669822
0.01695052
0.01719597
0.01742254
0.01762535
0.01780372
0.01795903
0.01809312
0.01820817
0.01830651
0.01839043
0.01846211
0.01852343
0.01857607
0.01862151
0.01866097
0.01869543
0.01872574
0.0187525
0.01877615
0.01879705
0.01881548
0.01883169
0.01884588
0.01885826
0.0188689
0.01887784
0.01888514
0.01889086
0.018895
0.01889753
0.01889845
0.01889923
0.01889739
0.01954943
0.01965371
0.01967573
0.01961784
0.01953376
0.01944243
0.01935985
0.01929217
0.01924108
0.01920588
0.01918447
0.0191753
0.01917538
0.01918219
0.01919346
0.01920715
0.01922151
0.01923508
0.01924673
0.0192556
0.01926105
0.01926267
0.01926019
0.01925354
0.01924276
0.01922797
0.01920938
0.01918725
0.01916186
0.01913351
0.01910252
0.01906917
0.01903375
0.01899653
0.01895777
0.01891771
0.01887656
0.01883452
0.01879179
0.01874854
0.01870497
0.01866128
0.01861782
0.0185754
0.01853613
0.01850066
0.01845985
0.01841495
0.01837101
0.01832754
0.01828427
0.01824221
0.01820231
0.01818046
0.01821123
0.01812528
0.01804039
0.01795389
0.01786444
0.01777272
0.01767955
0.01758658
0.01749559
0.01740802
0.01732486
0.01724674
0.01717405
0.01710673
0.01704453
0.01698702
0.01693371
0.01688407
0.01683754
0.0167936
0.01675172
0.01671147
0.01667243
0.01663425
0.01659664
0.01655934
0.01652216
0.01648495
0.01644759
0.01641
0.01637214
0.01633396
0.01629548
0.01625672
0.01621769
0.01617845
0.01613907
0.01609959
0.0160601
0.01602067
0.01598139
0.01594233
0.0159036
0.01586526
0.01582742
0.01579015
0.01575354
0.01571768
0.01568264
0.01564851
0.01561536
0.01558326
0.01555227
0.01552247
0.01549391
0.01546666
0.01544075
0.01541624
0.01539316
0.01537156
0.01535146
0.0153329
0.01531587
0.01530041
0.01528651
0.01527417
0.01526338
0.01525414
0.01524638
0.01524011
0.01523523
0.01523172
0.01522945
0.01522836
0.01522824
0.015229
0.01523017
0.01523141
0.01523165
0.01522935
0.01521949
0.01519132
0.01511485
0.01497929
0.0151574
0.06600579
0.08327831
0.09364699
0.1006113
0.1063456
0.1113619
0.1158471
0.1198869
0.123807
0.1346126
0.1580854
0.1766304
0.190176
0.1998137
0.206614
0.2114159
0.2147816
0.2170845
0.2457813
0.2451437
0.2441085
0.2427457
0.241303
0.2398229
0.2382562
0.2365581
0.2347073
0.2326144
0.2305477
0.2280555
0.2252136
0.2223057
0.219468
0.2167904
0.2143281
0.2121085
0.2101399
0.2085299
0.2069897
0.2055486
0.2043922
0.2036271
0.2032818
0.2033635
0.2038453
0.204673
0.2057751
0.2070783
0.2084043
0.2096652
0.2107298
0.2115009
0.2119207
0.211961
0.2116136
0.2109074
0.2217028
0.2200855
0.2181803
0.2160129
0.2135899
0.210937
0.2081695
0.2053536
0.2022944
0.1989019
0.1951997
0.1912487
0.1871045
0.1828526
0.1786079
0.1744685
0.1705381
0.1668894
0.1636024
0.1603071
0.1567879
0.1535577
0.1506238
0.1477712
0.14491
0.1420995
0.1393925
0.1367751
0.1342168
0.1316873
0.1291671
0.126661
0.1242055
0.1218575
0.1196745
0.117697
0.1159455
0.1144194
0.1131134
0.1120094
0.1110199
0.1101265
0.1093828
0.1085973
0.1076097
0.1063952
0.1048809
0.1028497
0.100445
0.09805263
0.09567157
0.09326927
0.09086088
0.0884707
0.08612284
0.08383666
0.08162809
0.0795099
0.07749163
0.07557943
0.07377606
0.07208142
0.07049299
0.06900645
0.06761482
0.0663133
0.06509972
0.0639645
0.06289756
0.0618893
0.06093067
0.06001326
0.05912943
0.05827252
0.05743684
0.05661773
0.05581157
0.0550157
0.0542284
0.05344875
0.05267657
0.05191258
0.0511581
0.05041482
0.049685
0.0489728
0.04828221
0.04761657
0.04697886
0.0463708
0.04579242
0.04524441
0.04472722
0.04424102
0.04378544
0.0433598
0.04296432
0.04260122
0.04226943
0.04196179
0.04167285
0.04140175
0.041146
0.04090289
0.04066973
0.04044353
0.04022151
0.04000119
0.03978032
0.03955696
0.03932942
0.03909636
0.03885687
0.03861032
0.03835642
0.03809517
0.03782696
0.03755254
0.03727293
0.03698938
0.0367033
0.03641618
0.03612954
0.03584486
0.03556356
0.03528693
0.0350161
0.03475206
0.03449558
0.03424728
0.0340076
0.03377685
0.03355512
0.03334245
0.03313867
0.03294359
0.03275679
0.03257801
0.03240684
0.03224303
0.03208586
0.03193511
0.03178994
0.03165015
0.03151481
0.03138337
0.03125415
0.03114534
0.03054348
0.02984697
0.02936823
0.02903048
0.02878222
0.02858833
0.02842821
0.02828967
0.0281651
0.02804981
0.02794099
0.02783705
0.02773707
0.02764059
0.02754736
0.02745727
0.02737023
0.02728609
0.02720479
0.02712628
0.02705053
0.02697749
0.02690713
0.02683938
0.02677423
0.02671173
0.02665185
0.0265941
0.02653834
0.0264843
0.02643165
0.02638004
0.0263303
0.02628108
0.02622892
0.02617395
0.02613847
0.02612425
0.02611884
0.0261177
0.02611899
0.02612134
0.02612375
0.02612557
0.02612625
0.02612535
0.02612247
0.02611729
0.02610951
0.02609889
0.02608523
0.02606839
0.02604824
0.02602474
0.02599783
0.02596752
0.02593383
0.02589678
0.02585643
0.02581282
0.02576605
0.02571618
0.0256633
0.02560748
0.02554881
0.02548736
0.02542328
0.02535667
0.02528778
0.02521664
0.0263496
0.02627257
0.02621469
0.02615777
0.02609378
0.02602134
0.02594141
0.02585483
0.02576229
0.02566454
0.02556231
0.02545628
0.025347
0.02523498
0.02512067
0.0250045
0.02488682
0.02476794
0.02464815
0.02452771
0.02440683
0.02428571
0.02416452
0.02404342
0.02392254
0.023802
0.02368193
0.02356242
0.02344358
0.02332551
0.02320829
0.023092
0.02297672
0.02286253
0.02274947
0.02263763
0.02252704
0.02241779
0.02230992
0.02220353
0.0220987
0.02199566
0.02189465
0.02179604
0.02169962
0.02160441
0.02150871
0.02141261
0.0213172
0.02122322
0.02113058
0.02103945
0.02095069
0.02087355
0.02080022
0.02071324
0.02061896
0.02052532
0.02043424
0.02034567
0.02025918
0.02017435
0.02009074
0.020008
0.01992585
0.01984406
0.01976249
0.01968104
0.01959964
0.01951824
0.0194368
0.01935531
0.01927376
0.01919214
0.01911046
0.01902874
0.01894698
0.01886521
0.01878344
0.0187017
0.01862002
0.01853844
0.01845699
0.01837571
0.01829464
0.01821385
0.01813337
0.01805328
0.01797363
0.01789448
0.01781591
0.017738
0.01766082
0.01758444
0.01750896
0.01743445
0.017361
0.0172887
0.01721763
0.01714788
0.01707954
0.01701268
0.0169474
0.01688377
0.01682187
0.01676177
0.01670354
0.01664724
0.01659293
0.01654066
0.01649049
0.01644245
0.01639657
0.01635289
0.01631142
0.01627216
0.01623514
0.01620032
0.01616773
0.01613729
0.01610905
0.01608285
0.01605878
0.0160366
0.01601644
0.01599794
0.01598134
0.01596602
0.0159524
0.01593942
0.01592774
0.0159154
0.01590311
0.01588684
0.01586667
0.01583765
0.01581298
0.0158185
0.01586092
0.05134349
0.05415989
0.05745685
0.06106712
0.06500391
0.06927005
0.07386618
0.07875455
0.08385023
0.08866013
0.1208773
0.1334365
0.1463141
0.1596392
0.1735878
0.1884667
0.2047354
0.2233949
0.2504979
0.290011
0.301993
0.3135186
0.3241522
0.3344525
0.3444603
0.3543315
0.3645359
0.3753797
0.386046
0.3947616
0.4016164
0.4073134
0.4120922
0.4158682
0.4187092
0.4208698
0.422418
0.4236833
0.4223915
0.4228688
0.4233677
0.4233525
0.4227451
0.421612
0.4200375
0.4180871
0.4158006
0.4132632
0.4102632
0.4069638
0.4033907
0.3996147
0.3956527
0.3915018
0.3871287
0.382404
0.3940222
0.3890618
0.3837772
0.3782783
0.3726245
0.3668529
0.3610001
0.3550974
0.3491844
0.3432739
0.3373573
0.3314783
0.3256637
0.3199027
0.3141999
0.3085785
0.303069
0.2977102
0.2925564
0.287635
0.2830149
0.2787996
0.2750378
0.2717777
0.2690668
0.266936
0.2653908
0.2644028
0.2639039
0.2637978
0.2639645
0.2642611
0.2645381
0.2646667
0.2645575
0.2641551
0.2634571
0.2624341
0.2609193
0.2591882
0.2572493
0.2550823
0.2527065
0.2502196
0.2475631
0.2445846
0.2412674
0.237592
0.233547
0.2291364
0.2243872
0.2193845
0.2142493
0.2090825
0.2040039
0.1990694
0.1943577
0.1897422
0.1852106
0.1809204
0.1769179
0.173153
0.169575
0.1661784
0.1629641
0.1599106
0.1569784
0.1541211
0.1512972
0.148481
0.1456679
0.1428703
0.1401083
0.1374027
0.134775
0.1322487
0.1298526
0.1276102
0.1255226
0.1236012
0.1218444
0.1201946
0.1185761
0.11692
0.1151646
0.1132336
0.1111445
0.1089947
0.106831
0.1046515
0.10245
0.1002305
0.09800457
0.09578627
0.09359005
0.09142998
0.0893193
0.08726988
0.08529177
0.08339285
0.08157867
0.07985252
0.07821497
0.07666052
0.07518867
0.07380529
0.07250404
0.07127691
0.07011571
0.06901231
0.06795869
0.06694712
0.06597044
0.06502228
0.06409712
0.0631904
0.06229857
0.06141896
0.06054972
0.05968977
0.05883881
0.05799722
0.05716589
0.05634629
0.05554041
0.05475037
0.05397819
0.05322687
0.05250067
0.05180238
0.0511328
0.05049295
0.04988373
0.04930611
0.04876108
0.04825012
0.04777316
0.04732764
0.04691107
0.04652212
0.04615927
0.04582079
0.04550475
0.04520903
0.04493141
0.0446696
0.04442132
0.04418432
0.04395638
0.04373533
0.04351917
0.04330598
0.04309402
0.04288171
0.04266776
0.04245118
0.04223134
0.04200791
0.04178094
0.04155074
0.04131792
0.0410833
0.04084786
0.04061266
0.04037885
0.04014751
0.03991969
0.03969633
0.03947827
0.03926616
0.03906056
0.03886181
0.03867017
0.03848571
0.03830844
0.03813821
0.03797484
0.03781801
0.03766736
0.03752242
0.03738285
0.03724792
0.03711781
0.03699104
0.03687052
0.0367486
0.03664157
0.03653111
0.03642002
0.03630798
0.03619729
0.03608987
0.03598563
0.03588401
0.03578479
0.03568783
0.03559303
0.03550032
0.0354097
0.03532115
0.03523474
0.03515056
0.03506872
0.03498902
0.03491107
0.03483466
0.03475966
0.034686
0.0346136
0.03454237
0.03447208
0.03440244
0.03433326
0.03426477
0.03419675
0.03412881
0.03406026
0.03399014
0.03391725
0.03384072
0.03376142
0.03368475
0.03361717
0.03355796
0.03350348
0.0334519
0.0334018
0.03335205
0.03330175
0.03325025
0.03319707
0.03314184
0.03308427
0.03302414
0.03296124
0.03289544
0.03282661
0.03275466
0.03267953
0.03260117
0.03251958
0.03243475
0.03234668
0.03225542
0.03216098
0.03206344
0.03196283
0.03185924
0.03175271
0.03164337
0.03153123
0.03141652
0.03129924
0.03117972
0.0310573
0.03093201
0.03081363
0.03069252
0.03056222
0.03042283
0.0302791
0.03013439
0.02998954
0.02984414
0.02969761
0.02954963
0.0294001
0.02924901
0.02909634
0.02894213
0.02878643
0.02862932
0.02847094
0.02831141
0.0281509
0.02798958
0.02782762
0.02766521
0.02750254
0.02733977
0.0271771
0.02701469
0.02685272
0.02669135
0.02653074
0.02637103
0.02621239
0.02605494
0.02589882
0.02574414
0.02559101
0.02543955
0.02528985
0.025142
0.02499612
0.02485229
0.02471067
0.02457134
0.0244345
0.02430011
0.02416811
0.02403793
0.02390915
0.02378126
0.02365487
0.02352989
0.02340703
0.02328547
0.02316578
0.023046
0.02292744
0.02281087
0.02269791
0.02258831
0.02248069
0.02237402
0.02226801
0.02216276
0.02205844
0.0219551
0.0218527
0.02175118
0.02165047
0.02155048
0.02145113
0.02135236
0.02125407
0.02115619
0.02105866
0.0209614
0.02086437
0.02076753
0.02067083
0.02057425
0.02047777
0.02038138
0.02028509
0.0201889
0.02009284
0.01999694
0.01990123
0.01980576
0.01971058
0.01961576
0.01952136
0.01942746
0.01933414
0.01924148
0.01914957
0.01905851
0.01896839
0.01887932
0.01879139
0.01870471
0.01861938
0.0185355
0.01845319
0.01837254
0.01829365
0.01821662
0.01814154
0.01806851
0.01799761
0.01792892
0.01786251
0.01779846
0.01773683
0.01767767
0.01762102
0.01756694
0.01751543
0.01746655
0.01742028
0.01737664
0.01733561
0.01729719
0.01726132
0.01722802
0.01719714
0.01716874
0.01714259
0.01711878
0.01709694
0.01707723
0.01705909
0.0170427
0.01702716
0.01701265
0.01699773
0.01698265
0.01696594
0.0169495
0.01693491
0.0169289
0.01693564
0.03924604
0.04291127
0.0460762
0.06694888
0.08860523
0.1147991
0.1327597
0.1506611
0.1675943
0.1830171
0.1960486
0.2071652
0.2180517
0.2291259
0.2401694
0.2512145
0.262321
0.2735533
0.2849302
0.2964374
0.3080567
0.3197569
0.3315786
0.3435653
0.3554849
0.367147
0.3785627
0.3898491
0.4011175
0.4127159
0.4265176
0.4585127
0.467059
0.4752831
0.4830111
0.4902558
0.49707
0.5035799
0.5098431
0.5155175
0.5201414
0.5236079
0.5260583
0.527241
0.52756
0.5271462
0.5261202
0.5245265
0.5224516
0.5200646
0.517472
0.514715
0.5117749
0.5086812
0.5054616
0.5021146
0.498653
0.4950796
0.4913916
0.4875665
0.483356
0.478754
0.473822
0.4686436
0.463322
0.4579105
0.452536
0.4471222
0.4409738
0.4349669
0.4290334
0.4230816
0.4170802
0.4110251
0.4049144
0.3987453
0.3925159
0.3862287
0.3798896
0.3735111
0.3671001
0.3606571
0.3541861
0.3476938
0.3412011
0.3347453
0.3283818
0.3221803
0.3162299
0.3106351
0.305502
0.3009328
0.2970214
0.2938403
0.2914238
0.2897628
0.2888051
0.2884531
0.2885685
0.2889744
0.289475
0.2898875
0.2900841
0.2899871
0.2895796
0.28885
0.2878184
0.2865381
0.2850099
0.2832302
0.2812623
0.2791382
0.2767252
0.2739874
0.2708879
0.2673869
0.2634463
0.2590592
0.25423
0.2490272
0.2435478
0.237888
0.232149
0.2263992
0.220709
0.2151197
0.2096698
0.204447
0.1995306
0.1949464
0.1906782
0.1867079
0.183021
0.1795912
0.1763728
0.1733078
0.1703371
0.1674103
0.1644918
0.1615607
0.1586072
0.1556295
0.1526332
0.1496332
0.146653
0.1437216
0.1408642
0.138102
0.1354508
0.1329052
0.1304401
0.1280237
0.1256323
0.1232423
0.1208495
0.118481
0.1161619
0.1138907
0.111652
0.1094337
0.1072308
0.1050427
0.1028713
0.1007203
0.09859534
0.09650377
0.09445385
0.09245414
0.09051286
0.08863732
0.08683351
0.08510502
0.08345062
0.0818682
0.08036902
0.07895047
0.0776064
0.07633
0.07511411
0.07395128
0.07283409
0.07175547
0.07070895
0.06968887
0.06869055
0.06771024
0.06674503
0.06579275
0.06485194
0.06392186
0.06300248
0.06209434
0.0611985
0.06031639
0.05944968
0.05860023
0.05776994
0.05696076
0.05617608
0.05541785
0.05468722
0.05398547
0.05331382
0.05267342
0.05206502
0.0514884
0.05094249
0.05042605
0.04993806
0.04947764
0.04904381
0.04863536
0.04825089
0.04788895
0.04754813
0.04722705
0.04692436
0.04663873
0.04636883
0.0461133
0.04587072
0.04563963
0.04541855
0.04520605
0.04500072
0.04480131
0.04460669
0.04441592
0.04422828
0.04404327
0.04386065
0.04368035
0.04350251
0.04332742
0.04315546
0.04298706
0.04282272
0.04266286
0.0425079
0.04235815
0.04221389
0.04207522
0.04194221
0.04181477
0.04169281
0.04157602
0.04146418
0.04135679
0.04125367
0.04115416
0.04105842
0.0409656
0.04087687
0.04079137
0.04071313
0.0406377
0.04055979
0.04047953
0.04039839
0.04031729
0.04023618
0.0401547
0.04007284
0.03999067
0.03990826
0.0398257
0.03974314
0.03966078
0.03957884
0.03949705
0.03941502
0.03933281
0.03925066
0.03916868
0.03908693
0.03900548
0.03892436
0.0388436
0.03876321
0.03868319
0.03860334
0.03852339
0.03844311
0.03836215
0.03827998
0.03819595
0.03810944
0.03802029
0.03792941
0.03783942
0.03775374
0.0376736
0.03759776
0.0375246
0.03745281
0.03738137
0.03730951
0.03723658
0.03716205
0.0370855
0.03700658
0.03692501
0.03684056
0.03675305
0.03666233
0.03656829
0.03647085
0.03636997
0.03626563
0.03615784
0.0360466
0.03593197
0.03581399
0.03569272
0.03556826
0.03544066
0.03531008
0.0351765
0.03504024
0.03490107
0.0347597
0.0346153
0.03446962
0.03432011
0.03416876
0.03401378
0.03385599
0.03369648
0.03353552
0.03337284
0.03320809
0.03304104
0.03287161
0.03269987
0.03252594
0.03234996
0.03217208
0.0319924
0.03181102
0.03162807
0.03144366
0.03125794
0.03107106
0.03088316
0.03069441
0.030505
0.0303151
0.0301249
0.02993457
0.02974432
0.02955434
0.0293648
0.0291759
0.02898782
0.02880074
0.02861483
0.02843025
0.02824716
0.02806571
0.02788605
0.0277083
0.02753259
0.02735906
0.02718783
0.02701903
0.02685274
0.02668905
0.02652794
0.02636938
0.02621314
0.026059
0.02590663
0.02575611
0.02560752
0.02546108
0.02531669
0.02517446
0.02503474
0.02489808
0.02476359
0.02463027
0.02449802
0.02436721
0.02423817
0.02411103
0.02398581
0.02386248
0.02374094
0.02362107
0.02350273
0.02338578
0.02327009
0.02315553
0.02304199
0.02292935
0.02281752
0.02270638
0.02259587
0.02248588
0.02237636
0.02226724
0.02215846
0.02204999
0.02194178
0.02183384
0.02172613
0.02161866
0.02151145
0.02140452
0.0212979
0.02119163
0.02108577
0.02098037
0.02087551
0.02077125
0.02066769
0.02056491
0.02046302
0.0203621
0.02026226
0.02016362
0.02006628
0.01997035
0.01987596
0.01978321
0.01969221
0.01960308
0.01951594
0.01943088
0.01934802
0.01926745
0.01918927
0.01911357
0.01904045
0.01896996
0.0189022
0.01883721
0.01877506
0.01871579
0.01865944
0.01860603
0.01855559
0.01850811
0.0184636
0.01842202
0.01838337
0.01834756
0.0183146
0.01828432
0.01825674
0.01823161
0.01820893
0.01818834
0.01816983
0.01815283
0.01813737
0.01812271
0.01810907
0.01809599
0.01808424
0.01807455
0.01806871
0.01806924
0.01998043
0.02200636
0.02385696
0.03076551
0.04026582
0.05598826
0.06725572
0.07929043
0.09228495
0.1055046
0.1192135
0.1343133
0.1504226
0.1669083
0.1842018
0.2038551
0.2337169
0.2471859
0.2608332
0.2744946
0.2881405
0.3012482
0.3135485
0.3252255
0.3365093
0.3475482
0.3584255
0.3691727
0.3799202
0.3907328
0.4016749
0.4125251
0.4231726
0.4337655
0.4442878
0.4547206
0.4650347
0.4751974
0.4850591
0.494481
0.5033103
0.5109699
0.5172116
0.5237798
0.5298377
0.5350736
0.5396234
0.5434828
0.5467104
0.5494098
0.550917
0.5509838
0.5497771
0.5476662
0.5448122
0.5413785
0.5375021
0.5333177
0.5289625
0.5245614
0.5202168
0.5160145
0.5119859
0.5081112
0.504379
0.5007642
0.4972293
0.493754
0.4902922
0.486845
0.4833917
0.4798825
0.4760837
0.4720252
0.4678635
0.4637012
0.4595977
0.4555709
0.4515843
0.4474919
0.4433668
0.439205
0.434923
0.4304682
0.4258255
0.4209894
0.4159536
0.4107124
0.4052693
0.3996356
0.3938231
0.3878457
0.3817135
0.3754251
0.3689801
0.3623928
0.3556951
0.3489487
0.3422474
0.3357114
0.3294822
0.3237145
0.3185622
0.3141674
0.3106434
0.3080582
0.3064373
0.3057498
0.3058935
0.3066919
0.3078988
0.3092272
0.3104104
0.3112659
0.3117019
0.3117074
0.311317
0.3105733
0.3095177
0.3081751
0.3065796
0.3048308
0.3028173
0.300509
0.2978685
0.2948529
0.2914116
0.2875004
0.2831052
0.2782521
0.2729695
0.2673139
0.2613545
0.2551734
0.2488543
0.2424792
0.2361492
0.2299501
0.2239807
0.2183364
0.2130744
0.2082051
0.2037269
0.1996269
0.1958761
0.1924259
0.1892121
0.1861647
0.1832168
0.1803105
0.1774003
0.1744525
0.1714446
0.1683654
0.1652143
0.1620022
0.1587497
0.1554809
0.1522199
0.1489906
0.145808
0.1426766
0.1395973
0.136574
0.1336101
0.1307141
0.1279043
0.1251973
0.1225949
0.1200871
0.1176609
0.1153047
0.1130082
0.1107624
0.1085594
0.106394
0.1042634
0.1021679
0.1001102
0.09809512
0.09612859
0.09421711
0.09236669
0.09058172
0.08886339
0.08720845
0.08562899
0.08412632
0.08269544
0.08133039
0.08002463
0.07877122
0.07756308
0.07639339
0.07525589
0.07414523
0.0730571
0.07198815
0.07093578
0.06989802
0.06887363
0.06786218
0.06686389
0.06587945
0.06490984
0.06395624
0.06302003
0.06210273
0.06120598
0.06033132
0.05948094
0.05865626
0.05785839
0.05708844
0.05634746
0.05563621
0.05495484
0.05430274
0.05367894
0.0530825
0.05251261
0.05196845
0.05144896
0.05095295
0.05047926
0.05002685
0.04959486
0.04918265
0.04878974
0.04841581
0.04806061
0.04772392
0.04740549
0.04710504
0.04682214
0.04655629
0.04630683
0.046073
0.04585397
0.04564884
0.04545671
0.04527668
0.04510794
0.04494973
0.04480141
0.04466241
0.04453229
0.04441064
0.04429714
0.04419152
0.04409348
0.04400277
0.04391907
0.04384207
0.04377138
0.0437066
0.04364724
0.04359284
0.0435428
0.0434967
0.0434539
0.04341413
0.04337668
0.04334153
0.04330795
0.04327565
0.04324423
0.04321327
0.04318242
0.04315049
0.04311662
0.04308051
0.04304191
0.04300056
0.0429563
0.04290901
0.04285858
0.04280497
0.04274818
0.04268816
0.0426253
0.04255974
0.04249164
0.04242122
0.04234872
0.04227433
0.04219824
0.04212062
0.04204163
0.04196138
0.04187994
0.0417973
0.0417134
0.04162812
0.04154127
0.04145257
0.04136173
0.04126857
0.0411732
0.04107632
0.04097944
0.04088463
0.0407932
0.04070495
0.04061883
0.04053379
0.04044903
0.0403639
0.04027782
0.04019027
0.04010081
0.04000906
0.0399147
0.03981747
0.03971715
0.03961355
0.03950653
0.03939598
0.03928185
0.0391641
0.03904271
0.0389177
0.03878911
0.038657
0.03852144
0.03838253
0.03824035
0.03809506
0.03794671
0.03779552
0.03764147
0.03748489
0.03732562
0.03716401
0.03699945
0.03683199
0.03666185
0.0364894
0.03631469
0.03613765
0.03595835
0.03577694
0.03559352
0.03540809
0.03522064
0.03503118
0.03483974
0.03464638
0.03445112
0.03425403
0.03405518
0.03385465
0.03365257
0.03344903
0.0332442
0.03303821
0.03283123
0.03262345
0.03241505
0.03220623
0.03199718
0.03178811
0.03157923
0.03137075
0.03116287
0.03095579
0.03074973
0.03054487
0.0303414
0.03013949
0.02993933
0.02974108
0.0295449
0.02935093
0.02915931
0.02897018
0.02878362
0.02859972
0.02841849
0.02823993
0.02806395
0.02789039
0.02771908
0.02755001
0.02738325
0.02721892
0.0270571
0.0268979
0.02674143
0.02658747
0.02643558
0.0262856
0.02613771
0.0259921
0.02584878
0.02570766
0.02556863
0.02543161
0.02529654
0.02516332
0.02503188
0.02490211
0.02477389
0.02464713
0.0245217
0.0243975
0.02427442
0.02415234
0.02403116
0.0239108
0.02379115
0.02367214
0.0235537
0.02343577
0.02331829
0.02320124
0.02308458
0.02296829
0.02285237
0.02273683
0.02262168
0.02250697
0.02239271
0.02227898
0.02216582
0.0220533
0.02194151
0.02183052
0.02172044
0.02161135
0.02150337
0.02139661
0.02129117
0.02118718
0.02108475
0.02098401
0.02088507
0.02078806
0.0206931
0.02060031
0.0205098
0.02042169
0.02033609
0.02025311
0.02017283
0.02009537
0.0200208
0.0199492
0.01988065
0.01981521
0.01975293
0.01969386
0.01963802
0.01958544
0.01953613
0.01949007
0.01944727
0.01940767
0.01937124
0.0193379
0.01930758
0.01928015
0.01925551
0.01923344
0.01921384
0.01919638
0.019181
0.0191673
0.01915542
0.01914511
0.01913678
0.01913076
0.01912745
0.01912854
0.00809045
0.009668312
0.0107874
0.01604497
0.02198788
0.02966888
0.03597716
0.0431369
0.05087865
0.05916867
0.06834973
0.07918957
0.09115388
0.1045986
0.1207747
0.1456027
0.1580796
0.1711161
0.1842718
0.1974792
0.2106457
0.2236696
0.2364638
0.248953
0.2610437
0.2727297
0.2843055
0.2970873
0.3101092
0.3233671
0.3367063
0.3497833
0.362306
0.3742696
0.3857648
0.396896
0.4077523
0.4184069
0.4288426
0.4389778
0.4486547
0.4580964
0.467329
0.4763744
0.4852368
0.493893
0.5022895
0.5103394
0.5179416
0.5249806
0.5312869
0.5366274
0.5411509
0.54566
0.5492519
0.5517008
0.5531012
0.5531027
0.5516762
0.549245
0.5456891
0.541015
0.5353762
0.5290377
0.5222492
0.5152773
0.5083289
0.5015899
0.495204
0.489287
0.4839085
0.4790951
0.4748403
0.4710825
0.467753
0.4647515
0.4620232
0.4595025
0.4571981
0.4550972
0.4530889
0.4509173
0.448759
0.4466861
0.4447572
0.4429967
0.4413957
0.4399052
0.4384542
0.4369426
0.435302
0.4334589
0.4313255
0.4288405
0.4259805
0.4227419
0.4191264
0.4151393
0.4107966
0.4061273
0.4011671
0.395952
0.3905076
0.3848358
0.3789296
0.3727901
0.3664416
0.3599489
0.3534198
0.3470014
0.3408729
0.3352318
0.3302757
0.326194
0.3231457
0.3212429
0.3205488
0.3210442
0.3225956
0.3249407
0.3276937
0.3304048
0.3326891
0.3343212
0.3352169
0.3354051
0.334984
0.3340621
0.33272
0.3310219
0.3290758
0.326966
0.3245956
0.3219583
0.3190378
0.3157964
0.3121764
0.3081235
0.3036054
0.2986129
0.2931544
0.287258
0.2809698
0.2743597
0.267524
0.2605787
0.2536355
0.2468077
0.240211
0.2339515
0.2281073
0.2227103
0.2177772
0.213303
0.2092602
0.2056003
0.2022572
0.199155
0.1962159
0.1933669
0.1905442
0.1876957
0.1847819
0.1817757
0.1786586
0.1754286
0.1720948
0.1686735
0.1651858
0.1616552
0.1581029
0.1545467
0.1510046
0.1474968
0.1440442
0.140669
0.1373951
0.1342427
0.1312228
0.1283363
0.1255781
0.1229393
0.1204093
0.1179754
0.1156243
0.113343
0.1111203
0.108948
0.1068209
0.1047371
0.1026974
0.1007052
0.09876483
0.09688111
0.09505807
0.09329717
0.09159513
0.08996166
0.08840009
0.08690604
0.08547397
0.08409766
0.08277044
0.08148542
0.08023604
0.07901638
0.07782161
0.07664819
0.07549346
0.07435512
0.07323161
0.07212253
0.07102831
0.06994981
0.06888819
0.0678448
0.06682105
0.06581842
0.06483834
0.06388221
0.06295136
0.06204706
0.06117018
0.06032154
0.05950183
0.05871142
0.05795023
0.05721773
0.05651292
0.05583457
0.0551814
0.05455212
0.05394533
0.05335953
0.05279323
0.05224507
0.051714
0.05119931
0.05070065
0.050218
0.04975165
0.04930216
0.04887025
0.04845677
0.04806262
0.04768863
0.04733554
0.04700394
0.04669419
0.04640646
0.04614069
0.04589662
0.04567379
0.0454716
0.04528934
0.0451262
0.04498131
0.04485379
0.04474271
0.04464717
0.04456622
0.04449895
0.04444443
0.04440172
0.04436987
0.04434794
0.04433497
0.04432999
0.04433206
0.04434025
0.04435365
0.04437143
0.04439268
0.04441666
0.04444258
0.04446973
0.04449773
0.04452599
0.0445535
0.04457912
0.04460208
0.04462195
0.04463829
0.0446506
0.04465846
0.04466147
0.04465928
0.04465159
0.04463808
0.04461858
0.04459303
0.04456195
0.04452556
0.04448401
0.04443752
0.04438635
0.04433076
0.04427104
0.04420745
0.04414026
0.04406969
0.04399593
0.0439191
0.04383929
0.04375654
0.04367085
0.04358225
0.04349086
0.04339701
0.04330136
0.04320499
0.04310923
0.04301509
0.04292273
0.04283166
0.04274123
0.04265084
0.04255999
0.04246817
0.04237493
0.04227985
0.04218256
0.04208273
0.04198007
0.04187434
0.04176533
0.04165287
0.04153684
0.04141714
0.04129371
0.04116653
0.0410356
0.04090096
0.04076266
0.04062077
0.0404754
0.04032665
0.04017465
0.04001952
0.03986142
0.03970044
0.03953675
0.03937039
0.03920143
0.03902987
0.03885578
0.03867927
0.03850023
0.03831849
0.03813413
0.0379474
0.03775852
0.03756762
0.03737469
0.03717972
0.03698269
0.0367836
0.03658246
0.03637929
0.03617411
0.03596696
0.03575789
0.035547
0.03533436
0.0351201
0.03490434
0.03468724
0.03446897
0.03424971
0.03402964
0.03380898
0.03358794
0.03336674
0.0331456
0.03292475
0.03270441
0.03248481
0.03226617
0.0320487
0.03183261
0.03161811
0.03140538
0.0311946
0.03098596
0.03077959
0.03057565
0.03037425
0.03017547
0.02997938
0.029786
0.02959529
0.02940719
0.02922162
0.02903856
0.02885807
0.02868024
0.02850515
0.02833283
0.02816321
0.0279962
0.0278317
0.02766972
0.02751027
0.02735336
0.02719893
0.02704692
0.02689724
0.02674984
0.02660464
0.02646157
0.02632054
0.02618144
0.02604416
0.02590858
0.0257746
0.0256421
0.02551095
0.02538104
0.02525227
0.02512452
0.02499769
0.02487169
0.02474645
0.02462187
0.02449791
0.0243745
0.02425161
0.02412919
0.02400724
0.02388575
0.02376471
0.02364416
0.02352411
0.02340461
0.0232857
0.02316745
0.02304993
0.02293322
0.02281741
0.02270259
0.02258886
0.02247634
0.02236514
0.02225538
0.02214717
0.02204065
0.02193595
0.02183318
0.02173248
0.02163398
0.02153781
0.02144408
0.02135293
0.02126447
0.02117881
0.02109606
0.02101633
0.02093971
0.02086629
0.02079614
0.02072935
0.02066596
0.02060602
0.02054958
0.02049666
0.02044726
0.0204014
0.02035904
0.02032016
0.02028469
0.02025259
0.02022373
0.02019804
0.02017534
0.02015554
0.0201384
0.02012386
0.02011169
0.02010192
0.02009443
0.0200894
0.02008706
0.02008729
0.02009097
0.001845381
0.007744729
0.01161023
0.01634822
0.02174687
0.02799064
0.03514506
0.04309366
0.05200971
0.06282443
0.07935966
0.08867357
0.09865915
0.1090728
0.1198866
0.1310098
0.1423807
0.1538862
0.165371
0.1767518
0.1881005
0.2009456
0.2138112
0.2265565
0.239128
0.2514782
0.2635805
0.2754147
0.287077
0.298607
0.3100502
0.3215814
0.3336092
0.3459276
0.3585457
0.3713019
0.3837718
0.3957003
0.4070018
0.4176681
0.4277222
0.4371915
0.4460984
0.454392
0.4621592
0.4695818
0.4767753
0.4838177
0.4907379
0.4975385
0.5041976
0.5106661
0.5168549
0.5226293
0.5278316
0.532257
0.5357536
0.5383823
0.5405327
0.5416043
0.5409164
0.5384771
0.5345228
0.5291491
0.5225441