/*--------------------------------*- C++ -*----------------------------------*\
| =========                 |                                                 |
| \\      /  F ield         | foam-extend: Open Source CFD                    |
|  \\    /   O peration     | Version:     3.1                                |
|   \\  /    A nd           | Web:         http://www.extend-project.de       |
|    \\/     M anipulation  |                                                 |
\*---------------------------------------------------------------------------*/
FoamFile
{
    version     2.0;
    format      ascii;
    class       volScalarField;
    location    "7.5";
    object      omega;
}
// * * * * * * * * * * * * * * * * * * * * * * * * * * * * * * * * * * * * * //

dimensions      [0 0 -1 0 0 0 0];

internalField   nonuniform List<scalar> 
119952
(
275.1637
334.9119
308.7155
265.9969
235.7674
233.7007
234.4533
235.9923
237.6872
239.0567
239.8752
240.2249
240.7999
243.0612
248.389
256.8137
266.8173
276.1825
281.992
285.5979
243.5571
236.205
233.3825
200.3515
192.5349
188.2245
185.279
182.5119
177.4479
188.3095
733.7252
602.0706
508.028
444.0917
398.3531
363.9868
336.7561
314.4618
295.6025
273.5175
221.7397
187.3118
164.6129
148.6712
136.8678
127.7376
120.4266
114.4222
109.3707
85.72099
82.8019
80.10439
77.68938
75.66214
74.00525
72.7353
71.84443
71.29052
71.08232
71.07037
70.98718
70.84813
70.61299
70.21448
69.51536
68.43637
66.96349
65.03904
64.08229
62.87467
60.70263
58.7689
57.14834
55.91444
54.88599
54.12511
53.6826
53.57624
53.81597
54.37671
55.18283
56.10505
56.99262
57.71901
58.19972
58.36073
58.12564
57.44287
56.33558
54.99166
53.26145
51.32937
49.64775
47.98242
46.36848
45.01006
44.14339
43.59067
42.44237
41.22757
40.05395
38.95628
37.93924
37.00404
36.14814
35.36734
34.65723
34.01211
33.42683
32.89661
32.41694
31.98367
31.59299
31.24152
30.92577
30.6407
30.385
30.15799
29.95874
29.78611
29.63876
29.51526
29.41417
29.33414
29.27387
29.23215
29.20779
29.19949
29.20568
29.22472
29.25664
29.3012
29.35749
29.42436
29.50037
29.58449
29.67552
29.7721
29.87286
29.97641
30.08153
30.18664
30.29042
30.39144
30.48778
30.57215
30.62928
30.74865
30.93194
31.1094
31.26432
31.39115
31.4878
31.55638
31.60002
31.62265
31.62751
31.61744
31.595
31.56272
31.52256
31.47581
31.42421
31.36995
31.31475
31.25985
31.2063
31.15514
31.10732
31.06371
31.02512
30.9923
30.96594
30.94665
30.93504
30.93156
30.93682
30.9513
30.97544
31.00961
31.05425
31.10973
31.17644
31.25479
31.34521
31.44817
31.56424
31.69302
31.83549
31.99245
32.16448
32.35134
32.55381
32.7704
32.99976
33.24033
33.42854
35.70775
39.74976
42.5353
44.43502
45.77587
46.76936
47.54989
48.20214
48.77887
49.31442
49.83115
50.34326
50.86063
51.38996
51.93576
52.50139
53.08948
53.70203
54.34063
55.00656
55.70103
56.42522
57.1801
57.96697
58.78706
59.64183
60.53261
61.4601
62.42532
63.42885
64.47044
65.54787
66.65365
67.76504
68.79172
68.747
67.69943
66.79779
65.9597
65.16623
64.40063
63.65517
62.92591
62.21049
61.50783
60.81795
60.14136
59.47848
58.82972
58.19573
57.57685
56.97309
56.3845
55.81086
55.25173
54.70667
54.17532
53.65728
53.1521
52.65929
52.17828
51.70867
51.25011
50.80204
50.364
49.93556
49.5162
49.10551
48.70589
48.3129
38.71405
38.27698
37.75621
37.14473
36.5425
35.98012
35.4607
34.98916
34.56878
34.1978
33.87158
33.58465
33.33092
33.1042
32.89885
32.70984
32.53283
32.36414
32.20081
32.04044
31.88121
31.72177
31.56116
31.39877
31.23425
31.06743
30.89831
30.72698
30.55359
30.37837
30.20157
30.02347
29.84434
29.66448
29.48417
29.30367
29.12327
28.94322
28.76381
28.58531
28.40807
28.23257
28.05964
27.89103
27.73037
27.58112
27.44203
27.30772
27.17717
27.05011
26.92618
26.8065
26.6924
26.58492
26.55046
26.42506
26.29244
26.1518
26.00027
25.83924
25.67097
25.49872
25.32585
25.15514
24.98875
24.82818
24.67439
24.52782
24.38851
24.25624
24.13055
24.01088
23.89658
23.78697
23.68142
23.57929
23.48002
23.3831
23.2881
23.19462
23.10234
23.011
22.92039
22.83032
22.74067
22.65134
22.56225
22.47336
22.38465
22.29609
22.2077
22.11949
22.03146
21.94365
21.85609
21.7688
21.68181
21.59517
21.50889
21.42302
21.33757
21.2526
21.16812
21.08418
21.0008
20.91802
20.83587
20.75439
20.67362
20.59358
20.51432
20.43587
20.35827
20.28156
20.20577
20.13093
20.05708
19.98423
19.91242
19.84164
19.77191
19.7032
19.63547
19.56868
19.50271
19.43744
19.37265
19.30807
19.24329
19.17776
19.11055
19.04035
18.96483
18.87982
18.77596
18.63292
18.40569
18.04688
17.97551
624.0251
593.5001
545.3824
498.7676
458.7839
424.7583
395.5438
370.1869
347.1284
272.318
200.4316
167.8564
151.4616
141.8547
135.095
129.6078
124.7614
120.2742
95.27237
90.08963
85.29165
81.05394
77.43497
74.38166
71.79951
69.59153
67.67309
65.96263
64.47593
63.00644
61.48553
59.94141
58.40293
56.89062
55.41801
53.99013
52.60281
51.58319
50.762
49.74093
48.59775
47.39336
46.17352
44.97571
43.8272
42.74725
41.75079
40.84696
40.02674
39.28611
38.61669
38.01222
37.46939
36.98645
36.56287
36.20926
33.22765
33.04465
32.92639
32.87145
32.87783
32.94011
33.03671
33.16394
33.37182
33.67123
34.04963
34.47636
34.91823
35.33649
35.69192
35.94893
36.08009
36.07887
35.95537
35.74048
35.39782
34.93849
34.44503
33.93599
33.42363
32.92993
32.48432
32.1089
31.81943
31.62678
31.53524
31.54183
31.63745
31.8094
32.04289
32.31992
32.61713
32.90501
33.15278
33.33556
33.42749
33.40586
33.28354
33.07117
32.75064
32.3281
31.81729
31.2019
30.47348
29.70289
28.91999
28.13184
27.35024
26.58586
25.84739
25.14094
24.47056
23.83884
23.24717
22.69605
22.18528
21.71409
21.28125
20.88522
20.52461
20.19732
19.89965
19.62965
19.38527
19.16442
18.96498
18.78488
18.62204
18.47447
18.34029
18.21777
18.10538
18.00179
17.90592
17.8169
17.73409
17.6571
17.58588
17.52067
17.462
17.40949
17.36258
17.32117
17.28531
17.25549
17.23277
17.21764
17.21025
17.21049
17.21792
17.23183
17.25151
17.27672
17.30851
17.34542
17.38532
17.42725
17.46987
17.51163
17.55096
17.58624
17.61591
17.63847
17.65261
17.65716
17.65116
17.63384
17.6047
17.56353
17.51034
17.44537
17.36908
17.28209
17.18523
17.0794
16.96564
16.845
16.71858
16.58746
16.45269
16.31527
16.17615
16.0362
15.89618
15.7568
15.61866
15.48231
15.34817
15.21665
15.08802
14.96256
14.84042
14.72177
14.60671
14.4954
14.38782
14.28399
14.1838
14.0872
13.99385
13.90332
13.81384
13.71602
13.95527
14.20654
14.36602
14.46182
14.51451
14.53788
14.54178
14.53314
14.51663
14.49536
14.47142
14.44619
14.42059
14.39525
14.3706
14.34693
14.32449
14.30345
14.28396
14.26611
14.24998
14.2356
14.22298
14.21214
14.20302
14.19565
14.18997
14.18574
14.18281
14.18093
14.17959
14.17778
14.17214
14.15813
14.13222
14.09543
14.05232
14.00898
13.96515
13.92105
13.87723
13.83407
13.79184
13.75074
13.71088
13.67233
13.63511
13.59919
13.56456
13.53117
13.49893
13.4678
13.4377
13.40857
13.38034
13.35297
13.32642
13.30066
13.27565
13.25137
13.22779
13.20488
13.18263
13.161
13.13999
13.11959
13.09981
13.08072
13.06261
13.04794
11.62487
11.57846
11.54481
11.5179
11.49413
11.47199
11.45093
11.4305
11.41031
11.39009
11.36966
11.34895
11.32789
11.30645
11.28462
11.26238
11.23975
11.2167
11.19325
11.16938
11.1451
11.12039
11.09526
11.0697
11.0437
11.01725
10.99037
10.96303
10.93525
10.90704
10.87838
10.8493
10.8198
10.78991
10.75964
10.72901
10.69806
10.66681
10.63532
10.60364
10.57186
10.54011
10.50858
10.4775
10.44696
10.41693
10.387
10.35697
10.32683
10.29679
10.26681
10.23698
10.20721
10.17983
10.15435
10.1253
10.0935
10.06111
10.02878
9.996505
9.964118
9.931481
9.898498
9.865097
9.831231
9.796866
9.761987
9.7266
9.690727
9.654395
9.617637
9.58049
9.542994
9.50519
9.467118
9.428819
9.390333
9.351698
9.31295
9.274124
9.235253
9.196367
9.157496
9.118668
9.079908
9.041241
9.00269
8.964276
8.92602
8.887941
8.850057
8.812384
8.774938
8.737733
8.700784
8.664101
8.627697
8.591581
8.555763
8.520251
8.485053
8.450174
8.415622
8.381403
8.347521
8.313981
8.280791
8.247954
8.215477
8.183365
8.151626
8.120266
8.089293
8.058714
8.028538
7.99877
7.969423
7.940498
7.912007
7.883947
7.856328
7.829134
7.802374
7.776009
7.750039
7.724388
7.699034
7.673832
7.648711
7.623383
7.597643
7.570866
7.542459
7.511053
7.475359
7.433977
7.387775
7.34362
7.304353
593.4559
518.7097
457.8407
412.9555
378.6815
351.8443
330.2408
312.5647
297.7045
278.194
187.727
175.003
164.6922
156.0417
148.5461
141.6673
134.6061
125.4861
107.6206
77.72833
75.22068
73.54411
72.46459
71.55256
70.8533
70.37279
69.7666
68.4713
64.92027
63.08092
62.78627
62.54034
62.23951
61.9055
61.56446
61.18342
60.74622
60.18774
59.78118
58.53669
57.52265
56.72131
56.03252
55.39614
54.7815
54.17263
53.5627
52.95453
52.2813
51.53605
50.74442
49.94389
49.16047
48.40771
47.68852
47.00152
44.05112
43.47911
42.93591
42.40713
41.88688
41.37304
40.86532
40.36388
39.86934
39.38055
38.8951
38.4125
37.9305
37.44453
36.94966
36.44277
35.92169
35.38497
34.83266
34.26622
33.69027
33.11168
32.5355
31.96795
31.41649
30.88873
30.39174
29.93108
29.51012
29.13019
28.79063
28.48882
28.22062
27.98165
27.76846
27.57861
27.41179
27.26141
27.18311
27.12601
27.095
27.09073
27.11385
27.15976
27.24429
27.38566
27.57978
27.82175
28.10266
28.4098
28.72857
29.04008
29.32297
29.55676
29.72305
29.80912
29.80642
29.71555
29.54321
29.28984
28.97788
28.62988
28.26105
27.8856
27.51976
27.17919
26.87603
26.61904
26.41385
26.26312
26.16701
26.12377
26.1298
26.17929
26.26354
26.37111
26.48823
26.60042
26.69488
26.75754
26.77785
26.75267
26.67214
26.52526
26.30566
26.01126
25.63667
25.19571
24.70911
24.18919
23.64436
23.08315
22.51395
21.9444
21.3811
20.82966
20.2948
19.78044
19.28974
18.82516
18.38847
17.98084
17.60302
17.25663
16.94131
16.65416
16.39401
16.15933
15.94844
15.75951
15.59058
15.43958
15.3044
15.18294
15.07316
14.97312
14.88102
14.79523
14.71433
14.63711
14.56261
14.49017
14.41935
14.35002
14.28236
14.21685
14.15422
14.0949
14.03881
13.98639
13.93886
13.89724
13.86232
13.83475
13.81506
13.80375
13.80125
13.8078
13.82308
13.84653
13.87757
13.91537
13.95914
14.0076
14.05947
14.11328
14.16745
14.22036
14.27036
14.31583
14.35523
14.38718
14.41041
14.42386
14.42672
14.41839
14.39853
14.36701
14.32407
14.26999
14.20534
14.13082
14.04726
13.95557
13.85674
13.75171
13.64148
13.52705
13.40921
13.28888
13.1668
13.04368
12.92014
12.79671
12.67386
12.55197
12.43141
12.31243
12.19526
12.08004
11.96692
11.85591
11.74722
11.64054
11.53631
11.43328
11.35414
11.2651
11.17088
11.07449
10.97847
10.88426
10.79253
10.70357
10.61754
10.53446
10.4543
10.37697
10.30237
10.23035
10.16081
10.09361
10.02863
9.965791
9.905081
9.846442
9.78981
9.735116
9.682317
9.631274
9.581981
9.53442
9.48868
9.44459
9.401923
9.360455
9.319912
9.279956
9.240202
9.200206
9.159688
9.119087
9.079383
9.040851
9.003288
8.966618
8.93079
8.895762
8.861503
8.827993
8.79522
8.763174
8.731848
8.701235
8.671329
8.642121
8.6136
8.585756
8.558578
8.532053
8.50617
8.48092
8.456289
8.432267
8.408842
8.386004
8.363738
8.342039
8.320889
8.30029
8.280219
8.260698
8.241695
8.223274
8.205206
8.185014
8.188903
8.19027
8.188699
8.184384
8.178214
8.170929
8.162879
8.15417
8.144826
8.134867
8.124322
8.113216
8.101566
8.089379
8.076658
8.063405
8.04962
8.035307
8.020468
8.005106
7.989228
7.972839
7.955949
7.938567
7.920705
7.902374
7.88359
7.864369
7.844726
7.824681
7.804253
7.783464
7.762336
7.740891
7.719155
7.697152
7.674913
7.652463
7.629843
7.607087
7.58425
7.561384
7.53856
7.515817
7.493196
7.470645
7.448109
7.425448
7.402707
7.379834
7.356945
7.333873
7.310715
7.287174
7.263563
7.239877
7.216362
7.193004
7.169578
7.145889
7.121866
7.097514
7.07286
7.04792
7.0227
6.997202
6.971427
6.945376
6.919053
6.892463
6.86561
6.8385
6.81114
6.783537
6.755701
6.727643
6.699375
6.670911
6.642265
6.613453
6.584492
6.555401
6.526197
6.496901
6.467533
6.438113
6.408662
6.3792
6.349749
6.32033
6.290962
6.261665
6.232458
6.20336
6.174389
6.145561
6.116892
6.088397
6.060089
6.031982
6.004086
5.976412
5.94897
5.921769
5.894816
5.868119
5.841683
5.815516
5.789623
5.764009
5.738679
5.71364
5.688895
5.66445
5.640309
5.61648
5.592962
5.569765
5.546887
5.524338
5.502109
5.480212
5.458625
5.437365
5.416384
5.395702
5.375233
5.354993
5.334824
5.314728
5.294416
5.27384
5.2525
5.230327
5.206702
5.181906
5.155669
5.12952
5.105405
344.8855
246.5345
359.2047
159.6064
124.6146
92.39003
79.69991
69.41818
60.95259
57.04417
55.48927
54.70276
53.83695
52.90989
52.01795
51.19635
50.42213
49.67917
48.96032
48.27215
47.63667
47.09596
46.74005
46.48456
46.29948
46.20145
46.14759
46.11069
46.07404
45.98999
45.72596
44.33058
44.72366
45.10993
45.50583
45.91352
46.33544
46.76571
47.1875
47.58024
47.9023
48.23141
48.59327
48.88324
49.09527
49.22398
49.26838
49.22973
49.11136
48.92791
48.68919
48.3847
48.02008
47.60696
47.15562
46.67126
46.15992
45.62607
45.07318
44.50377
43.92051
43.33086
42.7408
42.15519
41.57977
41.01778
40.47627
39.94596
39.45792
38.98011
38.51486
38.05925
37.612
37.1728
36.74092
36.31511
35.89371
35.47497
35.05715
34.63858
34.21667
33.78884
33.35215
32.90343
32.44035
31.96166
31.46743
30.95932
30.44091
29.91774
29.39688
28.88653
28.39561
27.93309
27.50674
27.12239
26.78358
26.49111
26.24297
26.03416
25.85745
25.70476
25.56977
25.44807
25.33829
25.23956
25.15565
25.08975
25.0426
25.01403
25.00393
25.01899
25.06976
25.15562
25.27476
25.42372
25.59649
25.78572
25.98243
26.17591
26.35319
26.50054
26.60467
26.65474
26.64373
26.56874
26.43091
26.23416
25.98928
25.70984
25.40757
25.09333
24.77835
24.47335
24.187
23.92564
23.69361
23.49366
23.32733
23.19517
23.0967
23.0302
22.99246
22.97876
22.98295
22.998
23.0163
23.02941
23.02917
23.00898
22.9608
22.87641
22.74938
22.57612
22.35323
22.08318
21.77322
21.42958
21.05674
20.65913
20.24164
19.80931
19.36703
18.91951
18.47128
18.02663
17.58965
17.16407
16.75327
16.36015
15.9872
15.63653
15.3103
15.01012
14.73438
14.48268
14.25431
14.04825
13.8632
13.69766
13.5499
13.41809
13.30032
13.19464
13.09914
13.01198
12.93138
12.85568
12.78339
12.7132
12.64402
12.57507
12.5058
12.43599
12.36565
12.29507
12.22478
12.15543
12.08737
12.02152
11.95904
11.90102
11.84848
11.80236
11.76359
11.733
11.71112
11.69824
11.69455
11.70011
11.7148
11.73829
11.76999
11.80924
11.85503
11.90627
11.9617
12.01994
12.07954
12.13899
12.1967
12.25137
12.30142
12.34554
12.38255
12.41143
12.43134
12.44168
12.44206
12.43231
12.41247
12.38275
12.34356
12.29542
12.23896
12.1749
12.104
12.02705
11.94484
11.85812
11.76763
11.67406
11.57804
11.48013
11.38085
11.28065
11.17994
11.07903
10.97825
10.87779
10.77796
10.67888
10.58085
10.48413
10.39001
10.29764
10.20603
10.11525
10.02552
9.936962
9.849706
9.763681
9.679037
9.595838
9.514153
9.434034
9.355517
9.278616
9.203353
9.129713
9.057902
8.987915
8.919703
8.853238
8.788526
8.725468
8.664102
8.604394
8.546346
8.489864
8.434939
8.381469
8.329365
8.278519
8.228811
8.180016
8.131999
8.084608
8.037825
7.991846
7.947049
7.90365
7.86161
7.820758
7.781013
7.742284
7.704504
7.667618
7.631592
7.596351
7.561887
7.528164
7.495167
7.462843
7.431194
7.400196
7.369831
7.340085
7.310945
7.282401
7.254441
7.227056
7.200237
7.173974
7.148263
7.123093
7.098465
7.07436
7.050798
7.027734
7.005241
6.983193
6.961789
6.940631
6.920798
6.901847
6.883686
6.866248
6.849415
6.833043
6.817004
6.801195
6.785538
6.769977
6.754466
6.738971
6.723456
6.707887
6.692231
6.676458
6.660538
6.644447
6.628161
6.611661
6.594929
6.577952
6.56072
6.543225
6.525463
6.507433
6.489135
6.470575
6.451759
6.432695
6.413396
6.393874
6.374144
6.354222
6.334126
6.313875
6.29349
6.272991
6.252405
6.231756
6.211073
6.190383
6.169713
6.149078
6.128492
6.10794
6.087396
6.066808
6.046165
6.025456
6.004704
5.983885
5.963022
5.942164
5.921385
5.900556
5.87953
5.858272
5.836821
5.815217
5.793481
5.771619
5.749629
5.727507
5.705245
5.682833
5.660263
5.637527
5.614619
5.591534
5.56827
5.544823
5.521193
5.497381
5.473388
5.449216
5.424871
5.400357
5.375682
5.350854
5.325882
5.300778
5.275554
5.250221
5.224796
5.199292
5.173725
5.148112
5.122469
5.096813
5.071161
5.045531
5.019938
4.994401
4.968935
4.943556
4.91828
4.89312
4.868091
4.843205
4.818475
4.793912
4.769526
4.745326
4.721322
4.697522
4.673932
4.65056
4.627413
4.604495
4.581812
4.55937
4.537174
4.515228
4.493537
4.472106
4.450938
4.430039
4.40941
4.389056
4.368976
4.349175
4.329646
4.310393
4.291397
4.272661
4.254146
4.235848
4.217696
4.199673
4.181652
4.163604
4.145336
4.126844
4.107914
4.088687
4.069012
4.049465
4.030869
313.5363
209.6872
157.2225
142.2523
115.3598
97.31304
83.58239
78.03715
71.85728
68.13047
64.83513
60.57269
56.32299
52.341
48.70224
44.77552
39.11775
37.73341
36.69371
36.06208
35.77498
35.69668
35.70039
35.74032
35.81041
35.9088
36.03576
36.19074
36.37504
36.59109
36.84184
37.13654
37.48362
37.86893
38.28019
38.71283
39.16496
39.63435
40.12272
40.63213
41.16173
41.67778
42.11731
42.64211
43.18609
43.73473
44.29935
44.8916
45.49855
46.08808
46.68591
47.21614
47.60924
47.90834
48.11029
48.21394
48.21746
48.12273
47.93743
47.6712
47.33386
46.93645
46.48552
45.98412
45.43874
44.85571
44.24009
43.5997
42.93942
42.26982
41.59974
40.94025
40.30007
39.68618
39.1019
38.54896
38.02791
37.53742
37.07413
36.632
36.21226
35.81352
35.42938
35.05521
34.68837
34.32684
33.96838
33.61051
33.25118
32.88861
32.52092
32.14626
31.76251
31.36664
30.95539
30.52608
30.07704
29.60848
29.12302
28.62557
28.12334
27.62551
27.14255
26.68549
26.26507
25.89054
25.56916
25.30521
25.09881
24.94532
24.83518
24.75504
24.691
24.63248
24.57333
24.51177
24.44903
24.38751
24.33016
24.27934
24.23749
24.20959
24.203
24.21858
24.25623
24.31484
24.39182
24.48306
24.58335
24.68602
24.78358
24.86733
24.9275
24.95434
24.94021
24.88025
24.77243
24.61741
24.41946
24.18627
23.92708
23.65109
23.36662
23.08172
22.80368
22.53832
22.28979
22.06077
21.85285
21.6669
21.50324
21.36171
21.2416
21.14157
21.0595
20.99256
20.93721
20.88923
20.84368
20.79528
20.73863
20.66797
20.57779
20.46342
20.32164
20.1502
19.94919
19.72074
19.46736
19.19115
18.89412
18.5785
18.24671
17.90124
17.54468
17.17978
16.80946
16.43686
16.06522
15.69785
15.33799
14.98871
14.6528
14.3328
14.03097
13.74973
13.48877
13.2481
13.02765
12.82692
12.64511
12.48115
12.33373
12.20139
12.08252
11.9755
11.87864
11.79031
11.70886
11.6327
11.56031
11.49033
11.42155
11.353
11.28388
11.21368
11.14211
11.06916
10.99506
10.92026
10.8452
10.77066
10.6976
10.62702
10.55995
10.49744
10.44046
10.38985
10.34633
10.31051
10.28291
10.26392
10.25377
10.25251
10.25998
10.27593
10.29988
10.33121
10.36917
10.41281
10.46127
10.51334
10.56786
10.62358
10.67923
10.73353
10.78525
10.83325
10.87645
10.91391
10.94485
10.96864
10.98482
10.9931
10.99336
10.98565
10.97013
10.9471
10.91695
10.88014
10.83718
10.78862
10.73501
10.6769
10.61483
10.54932
10.48084
10.40983
10.33668
10.26178
10.18545
10.108
10.02968
9.950769
9.871466
9.791957
9.712458
9.633141
9.554135
9.47543
9.397024
9.318995
9.241414
9.164346
9.087861
9.012029
8.936918
8.862592
8.789119
8.716553
8.644886
8.574167
8.504446
8.435778
8.368213
8.301791
8.236551
8.17252
8.109721
8.04817
7.98787
7.928811
7.870968
7.814311
7.758792
7.704349
7.650912
7.598414
7.546814
7.496128
7.446459
7.397994
7.350874
7.3051
7.260583
7.217231
7.17497
7.133737
7.093475
7.054132
7.015661
6.978019
6.941166
6.905069
6.869696
6.835032
6.801018
6.767658
6.734925
6.702806
6.671284
6.64035
6.609991
6.580199
6.550965
6.522285
6.49416
6.466566
6.43951
6.412996
6.387005
6.361556
6.336616
6.312203
6.288237
6.26474
6.241739
6.219255
6.197263
6.175723
6.154606
6.133894
6.113561
6.093573
6.073888
6.054469
6.035275
6.016271
5.997417
5.978679
5.96002
5.941408
5.922811
5.904202
5.885555
5.866847
5.848059
5.829174
5.81018
5.791065
5.771824
5.752451
5.732945
5.713309
5.693544
5.673659
5.65366
5.633558
5.613365
5.593093
5.572757
5.552373
5.531955
5.511523
5.491093
5.470683
5.450308
5.429983
5.409717
5.389515
5.369369
5.349265
5.329179
5.309101
5.289026
5.268962
5.248913
5.228889
5.208894
5.188903
5.168861
5.148741
5.128556
5.108319
5.088031
5.067676
5.047243
5.026721
5.006106
4.985391
4.96457
4.943636
4.922585
4.901409
4.880104
4.858664
4.837086
4.815364
4.793497
4.771481
4.749318
4.727006
4.704547
4.681945
4.659202
4.636325
4.61332
4.590194
4.566957
4.543618
4.520189
4.496682
4.473108
4.449483
4.425818
4.40213
4.378432
4.35474
4.331067
4.30743
4.283842
4.260318
4.236872
4.213516
4.190264
4.167127
4.144118
4.121247
4.098524
4.075958
4.053559
4.031335
4.009293
3.987441
3.965786
3.944333
3.923089
3.90206
3.881251
3.860667
3.840314
3.820196
3.800319
3.780684
3.761299
3.742163
3.723281
3.704651
3.686275
3.668147
3.650265
3.632612
3.61518
3.597937
3.580869
3.563919
3.54707
3.530243
3.513444
3.496585
3.479742
3.46284
3.446155
3.430428
156.5434
116.8989
178.7671
89.81246
77.13576
66.58789
63.35838
61.03941
58.50756
57.4762
56.1371
54.12018
52.17123
50.06125
47.54509
42.83834
41.59249
40.40351
39.25019
38.14528
37.05244
36.01985
35.10683
34.34276
33.74261
33.30322
32.94203
32.5656
32.35184
32.313
32.4229
32.62841
32.87957
33.15497
33.4474
33.75459
34.0759
34.41094
34.76164
35.13268
35.53265
35.95354
36.39095
36.84299
37.30947
37.79009
38.28374
38.78815
39.30176
39.82285
40.34654
40.86339
41.38465
41.97394
42.57895
43.19249
43.80641
44.4476
45.09802
45.6499
46.10818
46.44905
46.65494
46.73124
46.68352
46.52463
46.26291
45.90958
45.47581
44.97443
44.41731
43.81425
43.1755
42.50603
41.81254
41.09889
40.3753
39.64973
38.945
38.27282
37.63985
37.05392
36.51426
36.01811
35.56406
35.14996
34.77278
34.42792
34.11024
33.81341
33.53278
33.26344
32.99952
32.73624
32.47088
32.20154
31.92655
31.64423
31.35322
31.05283
30.74272
30.42262
30.09164
29.74737
29.38645
29.00576
28.60329
28.1794
27.73736
27.2835
26.82703
26.37941
25.95339
25.56258
25.2201
24.93736
24.72346
24.58311
24.51424
24.50648
24.54082
24.5927
24.63954
24.66676
24.66758
24.64176
24.59369
24.52918
24.45323
24.37043
24.28835
24.2182
24.16078
24.11762
24.0899
24.0774
24.078
24.0885
24.10513
24.12319
24.13668
24.13837
24.12021
24.07445
23.99481
23.87745
23.72185
23.5302
23.30731
23.06001
22.79596
22.52272
22.2472
21.97551
21.71274
21.46269
21.22779
21.00918
20.80712
20.62128
20.45101
20.2955
20.15384
20.025
19.90789
19.80104
19.70248
19.60984
19.52021
19.43024
19.33622
19.23424
19.12074
18.99263
18.84784
18.68488
18.50347
18.30441
18.08891
17.85814
17.61316
17.35499
17.08463
16.80303
16.51118
16.21016
15.90131
15.58631
15.26715
14.94617
14.62598
14.30929
13.99885
13.69731
13.40713
13.13055
12.86988
12.62566
12.39817
12.18766
11.99402
11.81677
11.65519
11.50831
11.375
11.25399
11.14395
11.04354
10.95139
10.86609
10.7862
10.71039
10.63742
10.56614
10.49555
10.42483
10.35331
10.28056
10.20638
10.13076
10.05391
9.976188
9.898184
9.820627
9.744348
9.670235
9.599183
9.532055
9.469657
9.412716
9.361891
9.31777
9.280833
9.251429
9.229771
9.215936
9.209888
9.211465
9.220387
9.236264
9.258589
9.286756
9.320061
9.357712
9.39884
9.442519
9.487782
9.533643
9.579118
9.623253
9.665143
9.703956
9.738952
9.7695
9.795085
9.815316
9.829926
9.838766
9.841799
9.839084
9.830768
9.817064
9.798239
9.774601
9.746479
9.714218
9.678161
9.638651
9.596012
9.550561
9.502586
9.452369
9.400152
9.346171
9.290631
9.233728
9.17568
9.116655
9.056754
8.996033
8.934576
8.872493
8.809881
8.746825
8.683406
8.619705
8.555802
8.491777
8.427715
8.363711
8.299828
8.236011
8.172315
8.108831
8.045646
7.982846
7.920515
7.858728
7.797555
7.73706
7.677297
7.61831
7.560132
7.502785
7.44628
7.390622
7.335807
7.281838
7.228731
7.176532
7.125324
7.075218
7.026307
6.978611
6.932092
6.886692
6.842359
6.799045
6.756701
6.715282
6.674742
6.635041
6.596139
6.558
6.520592
6.483885
6.447851
6.412464
6.377704
6.343553
6.309995
6.277016
6.244606
6.212756
6.181459
6.150721
6.120508
6.090842
6.061713
6.03312
6.005061
5.977537
5.950535
5.924049
5.89806
5.872564
5.847553
5.823002
5.798873
5.775149
5.751828
5.728908
5.706375
5.684207
5.662373
5.640844
5.619589
5.598577
5.577777
5.557158
5.536687
5.516335
5.496072
5.475872
5.45571
5.435562
5.41541
5.395237
5.375027
5.35477
5.334456
5.314081
5.293642
5.273137
5.25257
5.231945
5.211268
5.190548
5.169795
5.14902
5.128235
5.107454
5.086689
5.065956
5.045269
5.024639
5.00408
4.983601
4.963209
4.942908
4.922693
4.902558
4.882492
4.862487
4.842542
4.822661
4.802844
4.783091
4.76339
4.743726
4.724086
4.704463
4.684854
4.665252
4.645649
4.626034
4.606396
4.586727
4.56702
4.547267
4.527459
4.507588
4.487645
4.467622
4.44751
4.427303
4.406991
4.386569
4.366031
4.345372
4.324587
4.303674
4.282631
4.261457
4.240152
4.218718
4.197159
4.175477
4.15368
4.131772
4.109763
4.08766
4.065473
4.043213
4.020892
3.99852
3.976111
3.953678
3.931233
3.90879
3.886362
3.863963
3.841605
3.819302
3.797066
3.77491
3.752844
3.73088
3.70903
3.687302
3.665707
3.644255
3.622953
3.60181
3.580834
3.560033
3.539414
3.518984
3.498749
3.478716
3.45889
3.439278
3.419886
3.400718
3.38178
3.363075
3.344608
3.32638
3.308395
3.29065
3.273144
3.255873
3.23883
3.222001
3.205377
3.188934
3.172663
3.156533
3.140546
3.12467
3.108945
3.093344
3.078025
3.063792
62.23596
47.36109
49.56896
46.9629
45.65971
44.24148
43.17042
42.29027
41.56758
40.44156
37.75136
37.5267
37.29845
37.06626
36.78995
36.4601
36.11959
35.80349
35.52517
35.27221
34.91004
34.30022
33.70204
33.11975
32.56988
32.05884
31.60969
31.24159
30.95855
30.75768
30.63085
30.56635
30.57279
30.67759
30.88186
31.16617
31.50056
31.85696
32.2205
32.5836
32.94276
33.29656
33.64488
33.9985
34.36244
34.73601
35.12163
35.52311
35.94228
36.38042
36.83843
37.31634
37.81207
38.31975
38.83621
39.35901
39.89309
40.43836
41.03404
41.67239
42.32532
42.93028
43.47064
43.92105
44.25396
44.45039
44.50505
44.41989
44.20252
43.86461
43.42325
42.89279
42.29077
41.63178
40.93311
40.20677
39.46703
38.72603
37.99405
37.2786
36.59458
35.95418
35.36023
34.82258
34.3467
33.9312
33.569
33.25541
32.98505
32.75284
32.55387
32.38309
32.23426
32.09996
31.97203
31.84269
31.70482
31.55231
31.38133
31.19048
30.97962
30.74898
30.49898
30.23073
29.94637
29.64881
29.34093
29.02464
28.6996
28.36341
28.0132
27.64719
27.26601
26.87379
26.47812
26.08957
25.72148
25.38898
25.10814
24.89512
24.76517
24.72955
24.79151
24.94309
25.16065
25.40492
25.63081
25.80313
25.90491
25.93532
25.90541
25.82958
25.71844
25.57872
25.41659
25.24892
25.08376
24.92243
24.76837
24.62564
24.49636
24.37975
24.27375
24.17635
24.08507
23.99561
23.90152
23.79506
23.66867
23.51619
23.33413
23.12233
22.8836
22.62313
22.34757
22.064
21.77898
21.49863
21.22786
20.97035
20.72851
20.50343
20.29505
20.1024
19.924
19.75812
19.60301
19.4571
19.31896
19.18739
19.06134
18.93946
18.82022
18.70181
18.58208
18.45862
18.32916
18.19151
18.04379
17.88496
17.71407
17.53106
17.33659
17.13163
16.91721
16.69423
16.46338
16.22521
15.98003
15.72801
15.46926
15.20399
14.93267
14.65609
14.37545
14.09235
13.80873
13.52678
13.24877
12.977
12.71365
12.46074
12.22028
11.9931
11.77963
11.58026
11.39506
11.22376
11.06588
10.92069
10.78729
10.66469
10.5519
10.44787
10.35147
10.26149
10.17677
10.09621
10.01873
9.943364
9.869197
9.79545
9.721485
9.646823
9.571164
9.494398
9.416585
9.337952
9.258893
9.179943
9.101733
9.02496
8.95035
8.878608
8.810397
8.746354
8.687095
8.633146
8.584933
8.542795
8.506987
8.477624
8.454807
8.438509
8.428629
8.424984
8.427313
8.435277
8.448459
8.466374
8.488471
8.514138
8.54272
8.573521
8.605827
8.638913
8.672067
8.704602
8.735875
8.765298
8.79235
8.816587
8.837646
8.855247
8.869191
8.879355
8.885686
8.888191
8.886931
8.882007
8.873553
8.861724
8.846694
8.828644
8.80776
8.784222
8.758211
8.729896
8.69944
8.667
8.632721
8.596735
8.55915
8.520048
8.479499
8.437576
8.394358
8.349917
8.304318
8.25762
8.209889
8.161187
8.111583
8.06115
8.009966
7.958117
7.905694
7.852657
7.79897
7.744738
7.690068
7.635069
7.57985
7.524516
7.46917
7.413908
7.358819
7.303984
7.249478
7.195365
7.141707
7.088558
7.035975
6.98402
6.932769
6.882309
6.832734
6.784123
6.736518
6.68992
6.64431
6.599662
6.555946
6.513132
6.471185
6.430072
6.389758
6.350209
6.311393
6.273279
6.235837
6.199043
6.16287
6.127297
6.092306
6.057881
6.024007
5.990675
5.957875
5.925603
5.893865
5.862628
5.831916
5.80172
5.772042
5.742883
5.714244
5.686121
5.658509
5.631404
5.604796
5.578671
5.553007
5.527786
5.502996
5.47863
5.454679
5.431127
5.407949
5.385122
5.362619
5.34041
5.318468
5.296764
5.275267
5.253948
5.232776
5.211725
5.190767
5.169877
5.149033
5.128214
5.107403
5.086585
5.065748
5.044882
5.023981
5.003042
4.982064
4.961048
4.939998
4.918921
4.897824
4.876718
4.855612
4.834518
4.81345
4.792421
4.771443
4.750529
4.729692
4.708943
4.68829
4.667741
4.6473
4.626968
4.606743
4.58662
4.566597
4.546673
4.526849
4.507126
4.4875
4.467965
4.448514
4.429142
4.409841
4.390602
4.371416
4.352275
4.333171
4.314098
4.295045
4.276004
4.256967
4.237923
4.218862
4.199774
4.180648
4.161475
4.142244
4.122945
4.10357
4.08411
4.064557
4.044903
4.025142
4.00527
3.985282
3.965176
3.944948
3.9246
3.904131
3.883543
3.86284
3.842025
3.821106
3.800087
3.778977
3.757785
3.736519
3.71519
3.693809
3.672386
3.650935
3.629465
3.607991
3.586523
3.565074
3.543657
3.522283
3.500965
3.479712
3.458537
3.437451
3.416463
3.395584
3.374824
3.354192
3.333697
3.313348
3.293154
3.273121
3.253259
3.233575
3.214076
3.19477
3.175663
3.156761
3.138072
3.1196
3.101351
3.083329
3.065537
3.047978
3.030653
3.013561
2.996701
2.980068
2.963657
2.947461
2.931475
2.915688
2.900104
2.884714
2.869541
2.854582
2.839946
2.82651
97.5441
38.79855
33.87557
32.54472
31.75264
31.37082
31.30309
31.40487
31.619
31.90751
32.1292
32.15322
32.15524
32.12457
32.0625
31.96623
31.84893
31.7149
31.55673
31.35769
31.09557
30.78338
30.47748
30.18852
29.92959
29.70798
29.5363
29.42182
29.36245
29.35678
29.40277
29.49881
29.65128
29.86456
30.13494
30.44661
30.77888
31.11281
31.43788
31.74818
32.04128
32.31748
32.60024
32.89198
33.19469
33.51343
33.85405
34.22271
34.62228
35.05265
35.51423
36.00739
36.53175
37.06868
37.61547
38.17527
38.78
39.38302
40.00131
40.61801
41.1828
41.65052
41.99359
42.19713
42.25106
42.15356
41.90874
41.52881
41.02755
40.42361
39.73906
38.99649
38.21964
37.42943
36.64739
35.89
35.1783
34.52989
33.96125
33.47104
33.05588
32.71086
32.42958
32.20144
32.02472
31.89791
31.81528
31.76966
31.75368
31.76074
31.78558
31.82309
31.86612
31.9051
31.92928
31.92844
31.8931
31.81639
31.69581
31.53195
31.32698
31.08342
30.80436