/*--------------------------------*- C++ -*----------------------------------*\
| =========                 |                                                 |
| \\      /  F ield         | foam-extend: Open Source CFD                    |
|  \\    /   O peration     | Version:     3.1                                |
|   \\  /    A nd           | Web:         http://www.extend-project.de       |
|    \\/     M anipulation  |                                                 |
\*---------------------------------------------------------------------------*/
FoamFile
{
    version     2.0;
    format      ascii;
    class       volScalarField;
    location    "7.5";
    object      p;
}
// * * * * * * * * * * * * * * * * * * * * * * * * * * * * * * * * * * * * * //

dimensions      [1 -1 -2 0 0 0 0];

internalField   nonuniform List<scalar> 
119952
(
7926.302
7502.634
7458.494
7576.838
7693.334
7695.721
7726.103
7765.094
7804.684
7845.843
7886.017
7925.033
7961.708
7996.764
8032.315
8069.916
8109.086
8148.361
8184.435
8211.215
8293.187
8305.803
8332.29
8420.667
8446.75
8483.12
8514.681
8553.465
8613.982
9842.135
5883.663
5881.948
5916.37
5944.95
5969.113
5987.672
6003.476
6017.286
6019.139
6008.416
5969.909
5957.373
5933.496
5908.403
5883.328
5860.703
5842.544
5831.082
5826.398
5817.007
5830.552
5841.268
5879.722
5922.787
5980.432
6047.162
6122.188
6204.611
6290.937
6366.177
6454.748
6543.964
6627.816
6708.954
6788.397
6867.466
6948.944
7049.421
7178.956
7187.164
7226.643
7309.572
7374.002
7418.637
7454.889
7495.585
7537.544
7579.248
7620.6
7660.819
7699.674
7737.699
7775.79
7814.606
7853.847
7892.532
7930.225
7967.529
8007.135
8046.27
8081.492
8127.734
8176.172
8209.362
8240.357
8268.775
8285.387
8279.2
8301.963
8330.365
8357.305
8383.726
8409.093
8433.56
8457.246
8480.229
8502.546
8524.223
8545.291
8565.776
8585.704
8605.096
8623.97
8642.343
8660.234
8677.641
8694.589
8711.081
8727.12
8742.708
8757.84
8772.51
8786.711
8800.432
8813.662
8826.391
8838.609
8850.308
8861.486
8872.131
8882.227
8891.8
8900.854
8909.411
8917.455
8925.015
8932.112
8938.77
8945.013
8950.865
8956.35
8961.486
8966.301
8970.809
8975.011
8978.965
8983.106
8987.887
8992.265
8995.506
8998.637
9001.752
9004.712
9007.606
9010.411
9013.109
9015.7
9018.181
9020.552
9022.811
9024.956
9026.983
9028.892
9030.683
9032.353
9033.901
9035.33
9036.642
9037.84
9038.929
9039.913
9040.799
9041.593
9042.301
9042.931
9043.491
9043.99
9044.435
9044.833
9045.192
9045.519
9045.821
9046.105
9046.376
9046.639
9046.9
9047.158
9047.422
9047.69
9047.972
9048.253
9048.534
9048.826
9049.076
9049.249
9049.385
9049.601
9083.526
9083.449
9083.973
9084.546
9085.123
9085.69
9086.263
9086.849
9087.456
9088.079
9088.719
9089.374
9090.045
9090.729
9091.426
9092.134
9092.853
9093.58
9094.313
9095.051
9095.791
9096.531
9097.266
9097.993
9098.706
9099.397
9100.054
9100.638
9101.189
9101.622
9101.912
9101.979
9101.679
9100.722
9098.322
9094.812
9102.298
9107.541
9112.105
9116.063
9119.773
9123.305
9126.7
9130.013
9133.264
9136.47
9139.641
9142.785
9145.908
9149.015
9152.109
9155.193
9158.269
9161.339
9164.405
9167.467
9170.528
9173.587
9176.646
9179.706
9182.768
9185.833
9188.901
9191.975
9195.057
9198.151
9201.263
9204.434
9207.603
9210.457
9195.461
9193.052
9188.782
9192.053
9195.12
9197.514
9200.219
9203.135
9206.062
9208.983
9211.921
9214.89
9217.867
9220.847
9223.831
9226.81
9229.783
9232.747
9235.7
9238.642
9241.57
9244.485
9247.387
9250.274
9253.147
9256.006
9258.85
9261.678
9264.493
9267.293
9270.08
9272.854
9275.616
9278.367
9281.107
9283.84
9286.568
9289.292
9292.019
9294.756
9297.512
9300.305
9303.163
9306.124
9309.141
9311.832
9313.731
9315.214
9316.882
9318.705
9320.578
9322.501
9324.307
9324.943
9321.864
9326.951
9329.666
9331.135
9332.836
9334.491
9336.056
9337.607
9339.151
9340.686
9342.204
9343.7
9345.166
9346.601
9348.005
9349.375
9350.708
9352.001
9353.253
9354.462
9355.627
9356.748
9357.824
9358.854
9359.839
9360.777
9361.669
9362.515
9363.313
9364.064
9364.768
9365.423
9366.031
9366.591
9367.103
9367.565
9367.979
9368.343
9368.657
9368.921
9369.135
9369.298
9369.41
9369.47
9369.478
9369.433
9369.336
9369.184
9368.979
9368.718
9368.402
9368.029
9367.599
9367.11
9366.561
9365.951
9365.279
9364.542
9363.739
9362.867
9361.923
9360.905
9359.807
9358.627
9357.358
9355.994
9354.527
9352.948
9351.246
9349.407
9347.414
9345.245
9342.874
9340.265
9337.372
9334.13
9330.454
9326.218
9321.258
9315.252
9307.697
9298.191
9289.167
9295.214
9343.151
8144.668
8117.127
8068.118
8002.922
7924.17
7833.855
7733.923
7625.915
7510.002
7362.665
7239.57
7111.054
6981.587
6852.961
6725.661
6600.582
6478.256
6358.22
6193.441
6096.413
5991.591
5893.648
5806.115
5727.827
5659.712
5602.119
5554.99
5519.819
5496.286
5471.706
5465.516
5467.875
5477.013
5493.131
5514.385
5539.781
5568.835
5605.407
5620.297
5644.76
5669.923
5690.253
5705.297
5714.835
5717.798
5714.274
5704.985
5685.785
5662.992
5638.869
5611.834
5585.313
5561.807
5543.413
5532.711
5536.037
5460.356
5481.143
5515.225
5556.443
5606.215
5665.85
5735.286
5811.892
5895.106
5981.88
6070.22
6157.427
6243.741
6329.008
6413.401
6497.144
6580.96
6665.051
6748.027
6824.659
6886.509
6939.676
6996.4
7052.781
7103.337
7148.318
7191.116
7233.763
7276.466
7318.755
7360.236
7400.894
7441.057
7481.154
7521.401
7561.619
7601.461
7640.755
7679.771
7718.855
7757.894
7796.849
7836.219
7874.467
7908.351
7936.977
7960.609
7979.153
7995.061
8014.236
8038.045
8063.596
8088.851
8113.216
8136.803
8159.774
8182.175
8203.998
8225.23
8245.884
8265.983
8285.55
8304.603
8323.159
8341.233
8358.839
8375.969
8392.653
8408.903
8424.719
8440.097
8455.034
8469.523
8483.555
8497.118
8510.2
8522.788
8534.87
8546.436
8557.475
8567.994
8577.981
8587.444
8596.39
8604.795
8612.752
8620.222
8627.229
8633.797
8639.958
8645.73
8651.136
8656.21
8660.983
8665.488
8669.777
8673.941
8678.059
8682.109
8685.939
8689.463
8692.754
8695.888
8698.902
8701.81
8704.613
8707.312
8709.902
8712.383
8714.752
8717.006
8719.143
8721.159
8723.053
8724.824
8726.472
8727.996
8729.399
8730.682
8731.851
8732.909
8733.862
8734.716
8735.478
8736.155
8736.755
8737.286
8737.757
8738.174
8738.546
8738.881
8739.185
8739.466
8739.73
8739.982
8740.228
8740.471
8740.714
8740.967
8741.225
8741.491
8741.77
8742.056
8742.354
8742.676
8743.048
8743.546
8744.302
8808.168
8807.724
8807.91
8808.437
8808.966
8809.516
8810.082
8810.657
8811.251
8811.866
8812.498
8813.146
8813.81
8814.488
8815.178
8815.879
8816.592
8817.313
8818.04
8818.771
8819.504
8820.236
8820.964
8821.683
8822.39
8823.076
8823.727
8824.322
8824.862
8825.315
8825.643
8825.805
8825.748
8825.454
8825.133
8825.82
8828.894
8833.15
8837.004
8840.69
8844.24
8847.66
8850.991
8854.257
8857.472
8860.649
8863.797
8866.922
8870.029
8873.123
8876.207
8879.283
8882.353
8885.418
8888.48
8891.54
8894.6
8897.659
8900.72
8903.782
8906.846
8909.914
8912.986
8916.063
8919.149
8922.246
8925.364
8928.505
8931.751
8936.067
8878.516
8882.946
8885.349
8886.777
8888.634
8891.166
8894.052
8897.012
8899.952
8902.883
8905.83
8908.803
8911.794
8914.789
8917.781
8920.767
8923.745
8926.714
8929.673
8932.619
8935.553
8938.473
8941.38
8944.272
8947.149
8950.011
8952.859
8955.691
8958.508
8961.311
8964.1
8966.875
8969.637
8972.388
8975.128
8977.858
8980.581
8983.3
8986.018
8988.738
8991.466
8994.203
8996.94
8999.643
9002.24
9004.639
9006.753
9008.635
9010.453
9012.302
9014.163
9015.992
9017.695
9019.042
9019.744
9020.731
9022.608
9024.808
9026.817
9028.541
9030.101
9031.618
9033.137
9034.653
9036.149
9037.616
9039.051
9040.456
9041.831
9043.172
9044.478
9045.745
9046.972
9048.158
9049.302
9050.403
9051.46
9052.472
9053.439
9054.361
9055.237
9056.066
9056.849
9057.585
9058.274
9058.916
9059.509
9060.055
9060.552
9061.001
9061.4
9061.75
9062.051
9062.301
9062.502
9062.651
9062.749
9062.796
9062.79
9062.732
9062.621
9062.456
9062.237
9061.963
9061.633
9061.246
9060.802
9060.3
9059.738
9059.115
9058.429
9057.679
9056.862
9055.977
9055.021
9053.989
9052.88
9051.687
9050.407
9049.032
9047.557
9045.971
9044.266
9042.425
9040.439
9038.282
9035.939
9033.368
9030.55
9027.418
9023.943
9020.037
9015.716
9011.016
9006.434
9002.903
9002.11
9004.939
9011.932
3616.726
3615.137
3630.376
3658.786
3697.621
3747.282
3808.186
3880.064
3962.751
4056.204
4143.585
4258.706
4381.429
4513.946
4656.091
4806.886
4966.095
5132.056
5301.3
5473.614
5658.45
5845.798
6036.246
6227.086
6416.051
6600.33
6778.897
6950.026
7113.707
7260.999
7393.917
7511.483
7611.039
7691.445
7751.687
7791.409
7810.584
7810.012
7785.339
7749.046
7693.89
7624.013
7541.345
7447.78
7345.154
7235.384
7120.566
7002.102
6879.564
6755.612
6629.502
6503.768
6379.409
6257.452
6139.645
6030.85
5810.719
5708.885
5616.756
5526.982
5443.353
5369.148
5305.431
5252.311
5209.824
5177.574
5155.693
5144.175
5141.658
5147.431
5161.062
5181.397
5207.056
5236.636
5268.341
5300.194
5330.345
5357.737
5381.257
5399.994
5412.944
5419.147
5417.951
5409.07
5392.714
5369.802
5341.56
5309.961
5277.331
5246.136
5218.827
5197.617
5184.18
5179.34
5183.426
5202.588
5233.389
5273.119
5322.806
5383.661
5454.333
5533.047
5617.224
5705.072
5794.745
5884.987
5975.191
6064.516
6152.327
6238.549
6322.602
6404.109
6481.985
6556.369
6623.429
6680.747
6735.645
6791.049
6843.732
6891.736
6936.74
6980.98
7025.115
7068.868
7111.941
7154.305
7196.155
7237.75
7279.239
7320.554
7361.485
7401.875
7441.696
7481.086
7520.167
7558.365
7595.518
7631.403
7664.21
7692.718
7717.422
7739.322
7758.952
7779.086
7801.846
7826.298
7850.725
7874.425
7897.419
7919.857
7941.785
7963.181
7984.022
8004.309
8024.061
8043.296
8062.033
8080.285
8098.076
8115.418
8132.352
8148.794
8164.84
8180.484
8195.711
8210.512
8224.885
8238.82
8252.305
8265.325
8277.868
8289.918
8301.464
8312.495
8323.009
8333
8342.468
8351.416
8359.844
8367.781
8375.237
8382.231
8388.789
8394.93
8400.689
8406.08
8411.152
8415.93
8420.454
8424.766
8428.909
8432.918
8436.815
8440.574
8444.117
8447.43
8450.578
8453.609
8456.54
8459.373
8462.104
8464.73
8467.247
8469.654
8471.946
8474.12
8476.172
8478.102
8479.906
8481.583
8483.134
8484.559
8485.862
8487.046
8488.115
8489.075
8489.932
8490.693
8491.366
8491.96
8492.481
8492.939
8493.343
8493.699
8494.017
8494.303
8494.564
8494.808
8495.04
8495.266
8495.491
8495.718
8495.953
8496.195
8496.449
8496.717
8497.004
8497.317
8497.67
8498.094
8498.609
8499.312
8500.272
8501.159
8501.575
8501.953
8502.419
8502.937
8503.505
8504.095
8504.691
8505.306
8505.94
8506.588
8507.25
8507.924
8508.608
8509.303
8510.012
8510.72
8511.437
8512.159
8512.883
8513.608
8514.328
8515.04
8515.737
8516.405
8517.085
8517.727
8518.321
8518.861
8519.34
8519.764
8520.182
8520.713
8521.599
8523.174
8525.64
8528.781
8532.143
8535.487
8538.766
8541.996
8545.193
8548.362
8551.505
8554.625
8557.727
8560.816
8563.894
8566.964
8570.028
8573.088
8576.145
8579.2
8582.253
8585.307
8588.361
8591.417
8594.474
8597.534
8600.596
8603.662
8606.732
8609.808
8612.887
8615.978
8619.065
8622.17
8625.25
8628.435
8631.323
8633.53
8635.831
8638.576
8641.631
8644.79
8647.939
8651.043
8654.101
8657.131
8660.154
8663.177
8666.203
8669.225
8672.239
8675.244
8678.239
8681.223
8684.196
8687.156
8690.103
8693.036
8695.953
8698.856
8701.744
8704.616
8707.472
8710.313
8713.138
8715.948
8718.743
8721.523
8724.289
8727.042
8729.783
8732.512
8735.231
8737.941
8740.644
8743.34
8746.028
8748.7
8751.34
8753.922
8756.416
8758.784
8760.982
8763.004
8764.912
8766.79
8768.655
8770.493
8772.29
8774.171
8776.3
8778.274
8779.847
8781.192
8782.512
8783.873
8785.273
8786.699
8788.146
8789.601
8791.051
8792.484
8793.894
8795.279
8796.635
8797.96
8799.25
8800.505
8801.72
8802.897
8804.032
8805.125
8806.175
8807.181
8808.143
8809.06
8809.932
8810.758
8811.537
8812.27
8812.956
8813.595
8814.186
8814.729
8815.224
8815.67
8816.067
8816.416
8816.714
8816.963
8817.162
8817.31
8817.406
8817.452
8817.445
8817.386
8817.274
8817.109
8816.889
8816.615
8816.285
8815.899
8815.456
8814.955
8814.394
8813.773
8813.09
8812.343
8811.531
8810.651
8809.701
8808.677
8807.577
8806.397
8805.131
8803.775
8802.322
8800.765
8799.094
8797.3
8795.369
8793.288
8791.04
8788.604
8785.959
8783.085
8779.97
8776.631
8773.147
8769.698
8766.611
8764.28
8763.143
8763.792
8766.648
3730.696
3687.395
3640.514
3582.494
3540.595
3474.238
3452.134
3447.178
3457.326
3439.803
3398.036
3364.803
3349.797
3349.455
3362.122
3386.229
3421.457
3467.144
3523.41
3590.051
3667.299
3756.073
3854.751
3964.092
4084.006
4213.704
4353.07
4500.876
4656.442
4818.027
4988.209
5144.291
5328.326
5516.516
5704.765
5892.68
6078.555
6260.828
6438.392
6608.661
6767.523
6911.915
7042.133
7156.053
7252.23
7329.142
7385.869
7422.183
7438.251
7435.045
7413.393
7373.599
7316.613
7244.449
7159.454
7063.747
6959.348
6848.172
6732.043
6612.619
6490.778
6367.361
6243.162
6119.279
5996.81
5876.461
5758.743
5643.081
5527.957
5423.74
5329.803
5240.746
5157.934
5084.266
5021.143
4968.889
4927.512
4897.15
4877.756
4868.516
4868.943
4878.711
4896.916
4922.154
4952.907
4987.533
5024.169
5061.078
5095.833
5126.772
5153.103
5173.589
5186.854
5191.832
5187.812
5174.709
5153.053
5123.709
5088.242
5049.077
5008.891
4970.456
4936.535
4909.639
4891.561
4884.245
4888.421
4904.727
4932.977
4972.551
5023.375
5085.518
5157.396
5237.146
5322.961
5413.168
5505.906
5599.602
5693.161
5785.61
5876.016
5963.911
6048.757
6130.453
6208.428
6282.132
6349.777
6410.695
6468.024
6523.955
6577.659
6628.076
6675.922
6722.58
6768.73
6814.364
6859.328
6903.604
6947.308
6990.591
7033.528
7076.067
7118.059
7159.367
7199.924
7239.734
7278.729
7316.603
7353.121
7387.963
7420.25
7449.384
7475.524
7499.306
7521.367
7543.174
7565.988
7589.673
7613.375
7636.549
7659.11
7681.134
7702.657
7723.663
7744.135
7764.068
7783.477
7802.377
7820.788
7838.725
7856.206
7873.248
7889.857
7906.079
7921.866
7937.261
7952.275
7966.894
7981.104
7994.897
8008.261
8021.18
8033.639
8045.622
8057.114
8068.102
8078.58
8088.542
8097.983
8106.904
8115.312
8123.223
8130.651
8137.614
8144.137
8150.241
8155.956
8161.323
8166.351
8171.098
8175.586
8179.856
8183.939
8187.865
8191.657
8195.314
8198.797
8202.095
8205.242
8208.275
8211.211
8214.052
8216.798
8219.443
8221.984
8224.419
8226.744
8228.954
8231.045
8233.013
8234.856
8236.572
8238.16
8239.62
8240.954
8242.165
8243.259
8244.239
8245.112
8245.885
8246.567
8247.165
8247.688
8248.145
8248.545
8248.895
8249.205
8249.482
8249.734
8249.967
8250.188
8250.403
8250.616
8250.833
8251.057
8251.292
8251.54
8251.808
8252.099
8252.423
8252.786
8253.209
8253.674
8254.227
8254.744
8255.258
8255.796
8256.373
8257.037
8257.666
8258.257
8258.851
8259.452
8260.065
8260.691
8261.329
8261.978
8262.64
8263.308
8263.996
8264.687
8265.395
8266.107
8266.824
8267.544
8268.266
8268.987
8269.705
8270.418
8271.124
8271.822
8272.499
8273.154
8273.791
8274.422
8275.074
8275.803
8276.701
8277.896
8279.542
8281.765
8284.511
8287.543
8290.642
8293.735
8296.822
8299.907
8302.989
8306.063
8309.128
8312.186
8315.237
8318.284
8321.329
8324.371
8327.412
8330.453
8333.495
8336.537
8339.581
8342.628
8345.676
8348.728
8351.782
8354.84
8357.902
8360.967
8364.037
8367.109
8370.186
8373.258
8376.331
8379.376
8382.357
8385.215
8388.103
8391.08
8394.052
8396.977
8399.894
8402.841
8405.816
8408.804
8411.796
8414.792
8417.795
8420.805
8423.816
8426.824
8429.827
8432.823
8435.811
8438.788
8441.753
8444.706
8447.646
8450.571
8453.481
8456.376
8459.256
8462.119
8464.967
8467.799
8470.615
8473.415
8476.199
8478.968
8481.723
8484.463
8487.189
8489.902
8492.601
8495.286
8497.955
8500.604
8503.224
8505.802
8508.324
8510.769
8513.114
8515.332
8517.418
8519.402
8521.333
8523.241
8525.132
8527.016
8528.899
8530.689
8532.267
8533.718
8535.191
8536.733
8538.304
8539.861
8541.39
8542.896
8544.385
8545.855
8547.3
8548.718
8550.106
8551.464
8552.789
8554.08
8555.333
8556.547
8557.721
8558.854
8559.944
8560.992
8561.996
8562.956
8563.871
8564.74
8565.564
8566.342
8567.073
8567.757
8568.394
8568.984
8569.526
8570.019
8570.464
8570.861
8571.208
8571.505
8571.753
8571.951
8572.098
8572.194
8572.239
8572.232
8572.173
8572.061
8571.896
8571.677
8571.404
8571.075
8570.691
8570.25
8569.751
8569.194
8568.577
8567.899
8567.158
8566.352
8565.481
8564.541
8563.53
8562.444
8561.282
8560.038
8558.708
8557.286
8555.768
8554.146
8552.412
8550.557
8548.572
8546.448
8544.174
8541.745
8539.159
8536.44
8533.621
8530.809
8528.113
8525.77
8523.9
8522.87
8522.758
8524.057
4168.683
4123.469
4078.289
4007.439
3944.38
3846.997
3781.977
3717.335
3652.44
3588.108
3524.914
3466.207
3408.963
3354.51
3305.701
3261.076
3156
3127.454
3106.813
3088.65
3066.744
3044.827
3029.144
3023.058
3027.578
3042.778
3068.663
3105.034
3151.947
3209.579
3276.685
3353.843
3442.686
3542.527
3652.99
3773.739
3904.328
4044.457
4193.617
4350.722
4515.108
4687.081
4857.094
5036.559
5220.505
5406.43
5592.742
5777.485
5958.687
6134.571
6303.155
6461.638
6606.646
6736.894
6850.971
6947.377
7024.358
7080.845
7116.616
7131.879
7127.345
7104.121
7063.364
7006.189
6934.159
6849.422
6754.002
6650.153
6539.569
6423.845
6304.724
6182.987
6059.582
5935.986
5813.381
5692.308
5573.147
5455.924
5341.589
5231.276
5128.206
5032.655
4943.294
4860.817
4787.244
4724.136
4672.258
4631.926
4603.279
4586.172
4580.23
4585.1
4600.245
4624.624
4656.751
4694.981
4737.423
4781.976
4826.489
4868.596
4906.288
4937.925
4961.879
4976.628
4980.939
4973.725
4954.908
4925.476
4886.676
4840.5
4789.805
4737.956
4688.511
4644.958
4610.115
4585.889
4573.969
4574.758
4588.275
4614.788
4653.956
4705.151
4767.661
4840.486
4922.093
5010.72
5104.438
5201.239
5299.125
5396.747
5493.128
5587.239
5678.336
5765.771
5849.241
5928.401
6002.785
6071.894
6135.797
6195.772
6253.238
6308.499
6361.253
6411.836
6461.049
6509.464
6557.232
6604.314
6650.693
6696.415
6741.541
6786.091
6830.016
6873.218
6915.591
6957.027
6997.443
7036.737
7074.723
7111.149
7145.738
7178.088
7207.897
7235.207
7260.46
7284.246
7307.362
7330.531
7353.906
7377.161
7399.962
7422.194
7443.878
7465.04
7485.677
7505.781
7525.348
7544.391
7562.926
7580.97
7598.543
7615.662
7632.346
7648.618
7664.508
7680.001
7695.101
7709.824
7724.186
7738.169
7751.759
7764.94
7777.7
7790.019
7801.88
7813.267
7824.168
7834.571
7844.47
7853.857
7862.729
7871.093
7878.96
7886.344
7893.264
7899.741
7905.799
7911.467
7916.781
7921.772
7926.464
7930.897
7935.103
7939.115
7942.959
7946.654
7950.208
7953.612
7956.864
7959.983
7962.991
7965.905
7968.73
7971.464
7974.108
7976.654
7979.1
7981.442
7983.676
7985.795
7987.796
7989.675
7991.428
7993.054
7994.553
7995.925
7997.173
7998.301
7999.312
8000.214
8001.013
8001.716
8002.332
8002.869
8003.337
8003.744
8004.1
8004.412
8004.689
8004.939
8005.17
8005.387
8005.597
8005.805
8006.016
8006.235
8006.466
8006.713
8006.98
8007.273
8007.596
8007.955
8008.356
8008.791
8009.271
8009.771
8010.334
8010.933
8011.526
8012.104
8012.664
8013.226
8013.805
8014.395
8014.998
8015.614
8016.244
8016.888
8017.544
8018.22
8018.891
8019.577
8020.274
8020.979
8021.691
8022.41
8023.133
8023.861
8024.59
8025.321
8026.051
8026.781
8027.511
8028.244
8028.988
8029.762
8030.594
8031.533
8032.643
8034.009
8035.718
8037.836
8040.34
8043.1
8045.98
8048.908
8051.865
8054.844
8057.839
8060.843
8063.85
8066.859
8069.87
8072.884
8075.899
8078.916
8081.936
8084.958
8087.983
8091.01
8094.042
8097.076
8100.114
8103.156
8106.201
8109.25
8112.303
8115.36
8118.419
8121.48
8124.542
8127.599
8130.647
8133.671
8136.666
8139.657
8142.658
8145.628
8148.527
8151.4
8154.306
8157.264
8160.259
8163.269
8166.283
8169.3
8172.32
8175.342
8178.364
8181.383
8184.396
8187.402
8190.398
8193.384
8196.359
8199.321
8202.269
8205.203
8208.123
8211.026
8213.914
8216.786
8219.642
8222.48
8225.303
8228.108
8230.897
8233.67
8236.426
8239.165
8241.888
8244.594
8247.282
8249.95
8252.596
8255.215
8257.799
8260.338
8262.822
8265.236
8267.563
8269.791
8271.917
8273.958
8275.941
8277.887
8279.804
8281.686
8283.505
8285.235
8286.893
8288.524
8290.14
8291.74
8293.316
8294.862
8296.381
8297.879
8299.359
8300.819
8302.257
8303.668
8305.05
8306.402
8307.722
8309.006
8310.253
8311.462
8312.631
8313.76
8314.846
8315.891
8316.891
8317.848
8318.761
8319.628
8320.45
8321.226
8321.956
8322.639
8323.275
8323.863
8324.404
8324.896
8325.34
8325.736
8326.082
8326.379
8326.626
8326.823
8326.97
8327.066
8327.111
8327.104
8327.045
8326.933
8326.769
8326.551
8326.279
8325.952
8325.57
8325.132
8324.637
8324.084
8323.472
8322.801
8322.067
8321.271
8320.411
8319.484
8318.488
8317.421
8316.28
8315.063
8313.765
8312.382
8310.911
8309.346
8307.682
8305.914
8304.038
8302.05
8299.949
8297.74
8295.435
8293.064
8290.671
8288.338
8286.151
8284.261
8282.758
8281.878
8281.612
8282.322
4456.476
4412.118
4362.778
4300.496
4250.715
4165.734
4117.043
4066.715
4014.477
3961.134
3907.177
3851.284
3793.906
3734.916
3671.958
3537.037
3472.111
3407.631
3342.867
3278.337
3214.764
3153.357
3094.379
3038.197
2986.026
2939.553
2899.284
2864.627
2835.4
2809.578
2786.326
2767.682
2755.767
2752.154
2757.767
2772.962
2797.875
2832.825
2878.021
2933.41
2999.744
3076.466
3163.715
3261.717
3370.446
3489.642
3618.872
3757.604
3905.232
4061.02
4224.346
4393.694
4566.075
4744.341
4926.133
5109.762
5293.283
5475.223
5654.73
5828.69
5995.179
6152.179
6296.583
6425.846
6538.195
6632.244
6706.613
6760.392
6793.357
6805.804
6798.604
6772.931
6730.207
6671.756
6599.263
6514.593
6419.575
6316.786
6207.881
6094.025
5976.444
5855.901
5733.978
5612.447
5492.212
5373.437
5256.3
5141.078
5028.738
4920.113
4816.354
4718.574
4627.433
4543.929
4469.687
4406.312
4354.906
4316.031
4289.862
4276.342
4275.291
4286.36
4308.928
4341.97
4383.887
4432.806
4486.569
4542.689
4598.518
4651.342
4698.486
4737.52
4766.324
4783.03
4786.424
4775.066
4748.517
4708.042
4655.519
4593.698
4526.298
4457.813
4392.92
4336.318
4291.369
4259.527
4241.922
4238.925
4250.192
4275.295
4313.698
4364.812
4428.382
4503.376
4588.391
4681.484
4780.361
4882.666
4986.197
5089.311
5190.658
5289.117
5383.939
5474.563
5560.582
5641.872
5718.303
5789.816
5856.616
5919.37
5979.069
6036.398
6091.551
6144.808
6196.681
6247.616
6297.805
6347.267
6395.973
6443.914
6491.086
6537.468
6583
6627.624
6671.245
6713.717
6754.932
6794.789
6833.153
6869.833
6904.647
6937.404
6967.925
6996.256
7022.723
7047.77
7071.892
7095.543
7118.931
7141.985
7164.543
7186.522
7207.925
7228.771
7249.068
7268.817
7288.021
7306.691
7324.844
7342.5
7359.679
7376.404
7392.699
7408.587
7424.093
7439.227
7453.99
7468.389
7482.428
7496.12
7509.448
7522.391
7534.934
7547.059
7558.747
7569.979
7580.74
7591.022
7600.819
7610.115
7618.904
7627.193
7634.991
7642.31
7649.169
7655.587
7661.588
7667.201
7672.455
7677.383
7682.015
7686.383
7690.52
7694.455
7698.213
7701.815
7705.274
7708.596
7711.786
7714.855
7717.818
7720.69
7723.478
7726.183
7728.803
7731.334
7733.773
7736.114
7738.353
7740.484
7742.502
7744.403
7746.183
7747.84
7749.372
7750.779
7752.063
7753.226
7754.273
7755.209
7756.04
7756.773
7757.416
7757.978
7758.467
7758.893
7759.264
7759.59
7759.878
7760.136
7760.372
7760.594
7760.807
7761.018
7761.23
7761.451
7761.683
7761.931
7762.199
7762.492
7762.813
7763.166
7763.554
7763.978
7764.442
7764.946
7765.485
7766.037
7766.583
7767.129
7767.681
7768.244
7768.821
7769.409
7770.008
7770.62
7771.244
7771.881
7772.529
7773.189
7773.866
7774.551
7775.247
7775.95
7776.663
7777.384
7778.114
7778.851
7779.596
7780.348
7781.108
7781.88
7782.666
7783.472
7784.311
7785.202
7786.172
7787.259
7788.511
7789.984
7791.731
7793.782
7796.123
7798.688
7801.393
7804.179
7807.019
7809.899
7812.809
7815.74
7818.687
7821.645
7824.612
7827.587
7830.57
7833.558
7836.552
7839.552
7842.557
7845.567
7848.582
7851.602
7854.626
7857.655
7860.689
7863.727
7866.769
7869.814
7872.862
7875.91
7878.959
7882.003
7885.039
7888.063
7891.077
7894.082
7897.063
7900.006
7902.921
7905.843
7908.798
7911.787
7914.798
7917.818
7920.842
7923.867
7926.895
7929.923
7932.951
7935.976
7938.996
7942.008
7945.011
7948.005
7950.988
7953.958
7956.915
7959.858
7962.785
7965.698
7968.594
7971.474
7974.338
7977.184
7980.013
7982.824
7985.618
7988.393
7991.151
7993.89
7996.61
7999.31
8001.989
8004.644
8007.272
8009.868
8012.427
8014.941
8017.4
8019.793
8022.112
8024.349
8026.504
8028.585
8030.605
8032.579
8034.51
8036.392
8038.218
8039.991
8041.724
8043.416
8045.065
8046.675
8048.256
8049.81
8051.342
8052.851
8054.339
8055.805
8057.245
8058.657
8060.039
8061.39
8062.707
8063.988
8065.233
8066.439
8067.605
8068.731
8069.816
8070.858
8071.857
8072.813
8073.724
8074.59
8075.411
8076.186
8076.915
8077.597
8078.233
8078.821
8079.361
8079.853
8080.297
8080.692
8081.038
8081.335
8081.582
8081.779
8081.926
8082.022
8082.067
8082.06
8082.002
8081.892
8081.729
8081.513
8081.243
8080.919
8080.54
8080.106
8079.616
8079.068
8078.463
8077.799
8077.075
8076.291
8075.443
8074.532
8073.554
8072.51
8071.395
8070.208
8068.947
8067.608
8066.19
8064.688
8063.102
8061.428
8059.666
8057.818
8055.889
8053.888
8051.836
8049.762
8047.709
8045.741
8043.93
8042.381
8041.166
8040.427
8040.151
8040.61
4392.834
4360.365
4335.823
4288.422
4232.426
4176.963
4122.483
4070.866
4021.846
3972.217
3853.544
3804.277
3754.908
3704.094
3651.455
3597.105
3540.989
3482.839
3422.769
3361.529
3300.434
3236.565
3171.784
3106.352
3040.972
2976.051
2912.457
2850.538
2790.666
2733.822
2681.456
2635.498
2595.445
2560.774
2530.959
2506.551
2488.887
2478.692
2476.781
2483.692
2499.779
2525.251
2560.241
2604.984
2659.62
2724.497
2799.767
2885.528
2981.923
3088.969
3206.485
3334.093
3471.224
3617.156
3771.061
3932.03
4098.979
4270.526
4446.64
4625.315
4804.953
4984.368
5162.686
5338.975
5510.678
5674.787
5828.769
5969.864
6095.59
6203.963
6293.566
6363.223
6412.271
6440.557
6448.572
6437.359
6408.264
6362.968
6302.858
6230.059
6146.286
6053.35
5952.712
5845.601
5734.34
5619.887
5503.107
5385.785
5268.887
5152.752
5037.455
4923.128
4810.047
4698.809
4590.095
4484.886
4384.634
4290.89
4205.28
4129.593
4065.62
4014.781
3977.858
3955.077
3946.405
3951.742
3970.868
4003.163
4047.633
4102.517
4165.726
4234.732
4306.614
4378.02
4445.426
4505.209
4554.224
4589.757
4608.912
4609.792
4591.974
4555.577
4500.897
4429.947
4346.74
4256.445
4165.535
4080.491
4007.065
3949.514
3909.215
3886.592
3880.461
3889.585
3913.228
3950.789
4002.182
4067.514
4145.876
4235.911
4335.332
4441.422
4551.412
4662.618
4772.791
4880.325
4984.163
5083.609
5178.148
5267.493
5351.666
5430.651
5504.597
5573.875
5639.125
5701.171
5760.778
5818.396
5874.343
5928.984
5982.648
6035.51
6087.596
6138.867
6189.271
6238.757
6287.264
6334.701
6380.982
6426.032
6469.736
6511.993
6552.713
6591.783
6629.062
6664.478
6697.931
6729.264
6758.547
6786.044
6812.092
6837.047
6861.216
6884.784
6907.799
6930.22
6952.015
6973.193
6993.769
7013.76
7033.176
7052.027
7070.327
7088.093
7105.35
7122.119
7138.426
7154.299
7169.766
7184.85
7199.571
7213.943
7227.969
7241.655
7254.997
7268.003
7280.653
7292.925
7304.801
7316.264
7327.292
7337.864
7347.974
7357.626
7366.786
7375.446
7383.622
7391.318
7398.545
7405.318
7411.657
7417.585
7423.127
7428.312
7433.17
7437.731
7442.028
7446.09
7449.944
7453.618
7457.132
7460.503
7463.744
7466.861
7469.867
7472.776
7475.597
7478.335
7480.996
7483.581
7486.08
7488.493
7490.817
7493.044
7495.17
7497.189
7499.097
7500.889
7502.562
7504.115
7505.548
7506.86
7508.054
7509.133
7510.102
7510.967
7511.733
7512.409
7513.002
7513.52
7513.973
7514.369
7514.717
7515.025
7515.301
7515.552
7515.787
7516.012
7516.232
7516.453
7516.681
7516.919
7517.172
7517.445
7517.74
7518.061
7518.411
7518.794
7519.21
7519.661
7520.142
7520.646
7521.164
7521.693
7522.233
7522.783
7523.343
7523.915
7524.498
7525.093
7525.7
7526.319
7526.952
7527.597
7528.255
7528.928
7529.612
7530.314
7531.01
7531.724
7532.451
7533.189
7533.939
7534.702
7535.478
7536.271
7537.083
7537.922
7538.794
7539.714
7540.699
7541.772
7542.964
7544.312
7545.85
7547.611
7549.612
7551.843
7554.268
7556.835
7559.499
7562.233
7565.019
7567.846
7570.706
7573.591
7576.495
7579.416
7582.35
7585.297
7588.253
7591.219
7594.194
7597.176
7600.165
7603.162
7606.164
7609.173
7612.187
7615.207
7618.232
7621.261
7624.294
7627.329
7630.366
7633.403
7636.437
7639.466
7642.489
7645.501
7648.5
7651.48
7654.444
7657.404
7660.371
7663.354
7666.355
7669.369
7672.391
7675.419
7678.45
7681.483
7684.517
7687.551
7690.581
7693.607
7696.626
7699.638
7702.64
7705.631
7708.61
7711.576
7714.527
7717.465
7720.386
7723.292
7726.181
7729.052
7731.906
7734.742
7737.56
7740.359
7743.139
7745.899
7748.639
7751.358
7754.054
7756.725
7759.371
7761.986
7764.567
7767.109
7769.605
7772.048
7774.432
7776.749
7778.995
7781.17
7783.28
7785.329
7787.326
7789.275
7791.176
7793.029
7794.837
7796.6
7798.314
7799.983
7801.615
7803.217
7804.793
7806.344
7807.869
7809.368
7810.841
7812.286
7813.701
7815.084
7816.435
7817.751
7819.031
7820.275
7821.48
7822.645
7823.77
7824.853
7825.895
7826.893
7827.848
7828.758
7829.624
7830.445
7831.22
7831.948
7832.631
7833.266
7833.854
7834.394
7834.887
7835.331
7835.726
7836.072
7836.369
7836.617
7836.815
7836.962
7837.059
7837.105
7837.1
7837.043
7836.934
7836.773
7836.56
7836.293
7835.972
7835.598
7835.168
7834.684
7834.143
7833.546
7832.892
7832.179
7831.407
7830.575
7829.682
7828.725
7827.705
7826.62
7825.467
7824.246
7822.956
7821.594
7820.16
7818.654
7817.076
7815.429
7813.718
7811.951
7810.142
7808.311
7806.488
7804.712
7803.034
7801.513
7800.224
7799.221
7798.597
7798.337
7798.672
4152.477
4102.076
3987.181
3939.331
3889.632
3840.624
3792.874
3746.3
3700.445
3655.036
3610.146
3563.444
3515.324
3465.479
3413.794
3359.983
3304.009
3245.748
3185.159
3122.938
3060.583
2996.767
2931.497
2865.159
2798.146
2730.584
2663.375
2597.593
2534.119
2473.763
2417.697
2367.569
2323.976
2286.628
2255.523
2231.088
2214.006
2204.739
2203.766
2211.427
2227.96
2253.451
2288.257
2332.499
2386.351
2450.074
2523.952
2608.227
2703.062
2808.482
2924.319
3050.215
3185.572
3329.629
3481.486
3640.062
3804.507
3973.21
4144.946
4318.609
4493.587
4669.415
4844.675
5017.288
5184.737
5344.187
5492.947
5628.384
5748.161
5850.216
5933.186
5996.019
6038.41
6060.289
6062.564
6046.44
6013.55
5966.003
5905.446
5833.338
5750.847
5660.173
5562.41
5458.475
5351.378
5242.588
5132.514
5021.761
4910.679
4799.409
4688.091
4576.709
4465.368
4354.453
4244.656
4137.02
4033.23
3935.513
3846.276