/*--------------------------------*- C++ -*----------------------------------*\
| =========                 |                                                 |
| \\      /  F ield         | foam-extend: Open Source CFD                    |
|  \\    /   O peration     | Version:     3.1                                |
|   \\  /    A nd           | Web:         http://www.extend-project.de       |
|    \\/     M anipulation  |                                                 |
\*---------------------------------------------------------------------------*/
FoamFile
{
    version     2.0;
    format      ascii;
    class       volScalarField;
    location    "7.5";
    object      pd;
}
// * * * * * * * * * * * * * * * * * * * * * * * * * * * * * * * * * * * * * //

dimensions      [1 -1 -2 0 0 0 0];

internalField   nonuniform List<scalar> 
119952
(
7956.997
7540.049
7495.288
7610.364
7724.046
7727.073
7758.067
7797.672
7837.875
7879.647
7920.435
7960.063
7997.352
8033.02
8069.185
8107.398
8147.182
8187.07
8223.757
8251.15
8328.476
8341.353
8368.099
8451.329
8477.412
8513.782
8545.343
8584.127
8644.677
9872.83
6174.149
6168.893
6200.047
6225.361
6246.256
6261.543
6274.084
6284.627
6283.213
6270.34
6245.815
6233.279
6209.402
6184.309
6159.234
6136.609
6118.45
6106.988
6102.304
6123.57
6137.114
6147.83
6186.284
6229.35
6286.994
6353.725
6428.75
6511.174
6597.5
6672.74
6761.31
6850.527
6934.378
7015.516
7094.959
7174.029
7255.507
7355.983
7485.519
7493.726
7533.205
7616.135
7680.564
7725.199
7761.451
7802.147
7844.107
7885.811
7927.163
7967.382
8006.237
8044.261
8082.352
8121.168
8160.41
8199.095
8236.788
8274.091
8313.698
8352.833
8388.055
8434.297
8482.735
8515.925
8546.92
8575.337
8591.95
8585.763
8608.525
8636.927
8663.868
8690.289
8715.656
8740.123
8763.808
8786.792
8809.108
8830.785
8851.853
8872.339
8892.267
8911.658
8930.533
8948.905
8966.796
8984.203
9001.152
9017.643
9033.683
9049.27
9064.402
9079.073
9093.273
9106.994
9120.225
9132.954
9145.172
9156.871
9168.049
9178.694
9188.789
9198.362
9207.416
9215.973
9224.018
9231.577
9238.675
9245.333
9251.576
9257.428
9262.913
9268.049
9272.864
9277.372
9281.573
9285.527
9289.669
9294.449
9298.828
9302.068
9305.2
9308.315
9311.275
9314.168
9316.974
9319.672
9322.262
9324.743
9327.114
9329.374
9331.518
9333.545
9335.455
9337.245
9338.915
9340.464
9341.893
9343.205
9344.403
9345.492
9346.476
9347.362
9348.155
9348.863
9349.493
9350.054
9350.553
9350.997
9351.395
9351.754
9352.081
9352.384
9352.667
9352.939
9353.201
9353.462
9353.721
9353.985
9354.253
9354.535
9354.815
9355.097
9355.388
9355.639
9355.811
9355.948
9356.163
9359.432
9359.356
9359.879
9360.452
9361.03
9361.596
9362.169
9362.755
9363.363
9363.986
9364.625
9365.28
9365.951
9366.635
9367.332
9368.04
9368.759
9369.486
9370.219
9370.957
9371.698
9372.437
9373.172
9373.899
9374.612
9375.303
9375.96
9376.545
9377.095
9377.528
9377.818
9377.885
9377.585
9376.629
9374.228
9370.718
9378.204
9383.447
9388.011
9391.969
9395.679
9399.211
9402.606
9405.919
9409.17
9412.377
9415.548
9418.691
9421.814
9424.921
9428.015
9431.099
9434.175
9437.245
9440.311
9443.373
9446.434
9449.493
9452.552
9455.612
9458.674
9461.739
9464.808
9467.881
9470.963
9474.057
9477.17
9480.34
9483.509
9486.364
9502.023
9499.614
9495.345
9498.615
9501.682
9504.076
9506.781
9509.697
9512.624
9515.546
9518.483
9521.452
9524.43
9527.41
9530.393
9533.373
9536.346
9539.31
9542.263
9545.204
9548.133
9551.048
9553.949
9556.836
9559.71
9562.569
9565.412
9568.241
9571.055
9573.856
9576.643
9579.417
9582.178
9584.929
9587.67
9590.403
9593.13
9595.855
9598.582
9601.318
9604.075
9606.867
9609.726
9612.687
9615.704
9618.394
9620.294
9621.777
9623.445
9625.268
9627.141
9629.064
9630.87
9631.506
9628.427
9633.513
9636.229
9637.697
9639.398
9641.053
9642.619
9644.169
9645.713
9647.249
9648.767
9650.262
9651.728
9653.164
9654.568
9655.938
9657.271
9658.564
9659.815
9661.024
9662.19
9663.31
9664.386
9665.417
9666.401
9667.34
9668.232
9669.077
9669.875
9670.626
9671.33
9671.986
9672.594
9673.154
9673.665
9674.128
9674.541
9674.905
9675.22
9675.484
9675.698
9675.861
9675.972
9676.032
9676.04
9675.996
9675.898
9675.747
9675.541
9675.281
9674.965
9674.592
9674.161
9673.672
9673.123
9672.514
9671.841
9671.105
9670.301
9669.429
9668.486
9667.467
9666.37
9665.189
9663.92
9662.556
9661.089
9659.51
9657.809
9655.969
9653.977
9651.808
9649.437
9646.827
9643.935
9640.693
9637.016
9632.781
9627.821
9621.814
9614.26
9604.753
9595.73
9601.776
9649.713
8678.511
8647.688
8595.411
8526.949
8444.929
8351.347
8248.147
8136.872
8017.855
7883.822
7760.726
7632.21
7502.744
7374.117
7246.818
7121.739
6999.412
6879.376
6745.254
6648.226
6543.404
6445.461
6357.928
6279.639
6211.524
6153.931
6106.803
6071.631
6048.098
6023.518
6017.328
6019.688
6028.825
6044.943
6066.197
6091.593
6120.647
6157.22
6172.109
6196.572
6221.736
6242.066
6257.109
6266.648
6269.611
6266.087
6256.798
6237.598
6214.805
6190.681
6163.646
6137.125
6113.62
6095.226
6084.523
6087.85
6073.481
6094.268
6128.35
6169.568
6219.34
6278.975
6348.411
6425.017
6508.231
6595.005
6683.345
6770.552
6856.866
6942.133
7026.526
7110.269
7194.085
7278.176
7361.152
7437.784
7499.634
7552.801
7609.525
7665.906
7716.462
7761.443
7804.241
7846.888
7889.591
7931.88
7973.361
8014.019
8054.182
8094.279
8134.526
8174.744
8214.586
8253.88
8292.896
8331.98
8371.019
8409.974
8449.344
8487.592
8521.476
8550.102
8573.734
8592.278
8608.186
8627.361
8651.171
8676.721
8701.976
8726.341
8749.928
8772.899
8795.3
8817.123
8838.355
8859.009
8879.108
8898.675
8917.728
8936.284
8954.358
8971.964
8989.094
9005.778
9022.028
9037.844
9053.222
9068.159
9082.648
9096.68
9110.243
9123.325
9135.913
9147.995
9159.561
9170.6
9181.119
9191.106
9200.569
9209.515
9217.92
9225.877
9233.347
9240.354
9246.922
9253.083
9258.855
9264.261
9269.335
9274.108
9278.613
9282.902
9287.066
9291.184
9295.235
9299.064
9302.588
9305.879
9309.013
9312.027
9314.935
9317.738
9320.437
9323.027
9325.508
9327.877
9330.131
9332.268
9334.284
9336.178
9337.949
9339.597
9341.121
9342.524
9343.807
9344.976
9346.034
9346.987
9347.841
9348.603
9349.28
9349.88
9350.411
9350.882
9351.299
9351.671
9352.006
9352.31
9352.591
9352.855
9353.107
9353.353
9353.595
9353.839
9354.092
9354.35
9354.616
9354.895
9355.181
9355.479
9355.801
9356.173
9356.671
9357.427
9359.98
9359.536
9359.723
9360.25
9360.778
9361.328
9361.894
9362.469
9363.064
9363.678
9364.31
9364.959
9365.622
9366.3
9366.99
9367.692
9368.405
9369.126
9369.852
9370.584
9371.317
9372.049
9372.777
9373.496
9374.202
9374.889
9375.539
9376.135
9376.674
9377.127
9377.456
9377.618
9377.56
9377.267
9376.945
9377.633
9380.706
9384.962
9388.816
9392.503
9396.053
9399.473
9402.803
9406.069
9409.285
9412.462
9415.609
9418.734
9421.842
9424.936
9428.019
9431.095
9434.165
9437.23
9440.293
9443.353
9446.412
9449.472
9452.532
9455.594
9458.658
9461.726
9464.798
9467.876
9470.962
9474.059
9477.177
9480.318
9483.563
9487.879
9491.641
9496.07
9498.474
9499.902
9501.759
9504.291
9507.177
9510.137
9513.077
9516.008
9518.955
9521.928
9524.919
9527.914
9530.905
9533.892
9536.87
9539.839
9542.798
9545.744
9548.678
9551.598
9554.505
9557.397
9560.274
9563.136
9565.983
9568.816
9571.633
9574.436
9577.225
9580
9582.762
9585.513
9588.253
9590.983
9593.706
9596.425
9599.143
9601.863
9604.591
9607.328
9610.065
9612.768
9615.365
9617.764
9619.878
9621.76
9623.578
9625.427
9627.288
9629.117
9630.82
9632.167
9632.869
9633.856
9635.733
9637.933
9639.942
9641.666
9643.226
9644.743
9646.262
9647.778
9649.274
9650.741
9652.176
9653.581
9654.956
9656.297
9657.603
9658.87
9660.097
9661.283
9662.427
9663.528
9664.585
9665.597
9666.564
9667.486
9668.362
9669.191
9669.974
9670.71
9671.399
9672.041
9672.634
9673.18
9673.677
9674.126
9674.525
9674.875
9675.176
9675.426
9675.627
9675.776
9675.874
9675.921
9675.915
9675.857
9675.746
9675.581
9675.362
9675.088
9674.758
9674.371
9673.927
9673.425
9672.863
9672.24
9671.554
9670.804
9669.987
9669.102
9668.146
9667.114
9666.005
9664.812
9663.532
9662.157
9660.682
9659.096
9657.391
9655.55
9653.564
9651.407
9649.064
9646.493
9643.675
9640.543
9637.068
9633.162
9628.841
9624.141
9619.559
9616.028
9615.235
9618.064
9625.057
4397.712
4392.582
4404.553
4429.696
4465.263
4511.653
4569.294
4637.904
4717.324
4808.629
4909.991
5025.112
5147.835
5280.353
5422.497
5573.292
5732.501
5898.462
6067.706
6270.676
6455.513
6642.861
6833.308
7024.149
7213.114
7397.392
7575.959
7747.088
7910.769
8058.061
8190.979
8308.545
8408.101
8488.508
8548.75
8588.472
8607.646
8607.074
8582.401
8546.108
8490.953
8421.075
8338.407
8244.843
8142.217
8032.446
7917.629
7799.164
7676.627
7552.674
7426.564
7300.831
7176.472
7054.514
6936.707
6827.912
6669.094
6567.26
6475.131
6385.357
6301.728
6227.523
6163.806
6110.686
6068.199
6035.949
6014.068
6002.55
6000.033
6005.806
6019.437
6039.773
6065.431
6095.012
6126.716
6158.569
6188.72
6216.112
6239.632
6258.369
6271.319
6277.522
6276.326
6267.445
6251.089
6228.177
6199.935
6168.336
6135.706
6104.511
6077.202
6055.992
6042.555
6037.715
6041.801
6060.963
6091.764
6131.494
6181.181
6242.036
6312.708
6391.422
6475.599
6563.447
6653.12
6743.362
6833.566
6922.891
7010.702
7096.924
7180.977
7262.484
7340.36
7414.744
7481.804
7539.122
7594.02
7649.424
7702.107
7750.111
7795.115
7839.355
7883.49
7927.244
7970.316
8012.68
8054.53
8096.125
8137.614
8178.929
8219.86
8260.25
8300.071
8339.461
8378.542
8416.74
8453.893
8489.778
8522.585
8551.093
8575.797
8597.697
8617.327
8637.461
8660.221
8684.673
8709.1
8732.8
8755.794
8778.232
8800.16
8821.556
8842.397
8862.684
8882.436
8901.671
8920.408
8938.66
8956.451
8973.793
8990.727
9007.169
9023.215
9038.859
9054.086
9068.887
9083.26
9097.195
9110.68
9123.7
9136.243
9148.293
9159.839
9170.87
9181.384
9191.375
9200.843
9209.791
9218.219
9226.156
9233.612
9240.606
9247.164
9253.305
9259.064
9264.455
9269.527
9274.305
9278.829
9283.141
9287.284
9291.293
9295.19
9298.949
9302.492
9305.805
9308.953
9311.984
9314.915
9317.748
9320.479
9323.105
9325.623
9328.029
9330.321
9332.495
9334.548
9336.477
9338.281
9339.958
9341.509
9342.934
9344.237
9345.421
9346.49
9347.45
9348.307
9349.068
9349.741
9350.335
9350.856
9351.314
9351.718
9352.074
9352.392
9352.678
9352.939
9353.183
9353.415
9353.641
9353.866
9354.093
9354.328
9354.57
9354.824
9355.092
9355.379
9355.692
9356.045
9356.469
9356.984
9357.687
9358.647
9359.534
9359.95
9360.328
9360.794
9361.312
9361.88
9362.47
9363.066
9363.681
9364.314
9364.963
9365.625
9366.299
9366.983
9367.678
9368.387
9369.095
9369.812
9370.534
9371.258
9371.983
9372.703
9373.415
9374.112
9374.78
9375.46
9376.102
9376.696
9377.236
9377.715
9378.139
9378.557
9379.088
9379.974
9381.549
9384.015
9387.156
9390.518
9393.862
9397.141
9400.371
9403.568
9406.737
9409.88
9413
9416.102
9419.191
9422.269
9425.339
9428.403
9431.463
9434.52
9437.575
9440.628
9443.682
9446.736
9449.792
9452.849
9455.909
9458.971
9462.037
9465.107
9468.183
9471.262
9474.353
9477.44
9480.545
9483.625
9486.81
9489.698
9491.904
9494.206
9496.951
9500.006
9503.165
9506.314
9509.418
9512.476
9515.506
9518.529
9521.552
9524.578
9527.599
9530.614
9533.619
9536.614
9539.598
9542.571
9545.531
9548.478
9551.41
9554.328
9557.231
9560.119
9562.991
9565.847
9568.688
9571.513
9574.323
9577.118
9579.898
9582.664
9585.417
9588.158
9590.887
9593.606
9596.316
9599.019
9601.715
9604.402
9607.074
9609.714
9612.297
9614.791
9617.159
9619.357
9621.379
9623.287
9625.165
9627.03
9628.868
9630.665
9632.546
9634.675
9636.649
9638.222
9639.567
9640.887
9642.248
9643.648
9645.074
9646.521
9647.976
9649.426
9650.859
9652.269
9653.654
9655.01
9656.335
9657.625
9658.88
9660.095
9661.272
9662.407
9663.5
9664.55
9665.556
9666.518
9667.435
9668.307
9669.133
9669.912
9670.645
9671.331
9671.97
9672.561
9673.104
9673.599
9674.045
9674.442
9674.791
9675.089
9675.338
9675.537
9675.685
9675.781
9675.827
9675.82
9675.761
9675.649
9675.484
9675.264
9674.99
9674.66
9674.274
9673.831
9673.33
9672.769
9672.148
9671.465
9670.718
9669.906
9669.026
9668.076
9667.052
9665.952
9664.772
9663.506
9662.15
9660.697
9659.14
9657.469
9655.675
9653.744
9651.663
9649.415
9646.979
9644.334
9641.46
9638.345
9635.006
9631.522
9628.073
9624.986
9622.655
9621.518
9622.167
9625.023
4747.9
4693.045
4642.69
4594.151
4552.251
4516.551
4494.447
4489.491
4499.638
4482.116
4440.348
4407.115
4392.11
4391.768
4404.434
4428.541
4463.77
4509.457
4565.723
4632.364
4709.611
4798.385
4897.064
5006.405
5126.318
5256.016
5395.382
5543.188
5698.754
5860.339
6030.521
6247.916
6431.951
6620.141
6808.39
6996.305
7182.18
7364.453
7542.017
7712.286
7871.148
8015.54
8145.758
8259.678
8355.855
8432.767
8489.494
8525.808
8541.876
8538.67
8517.018
8477.224
8420.238
8348.074
8263.079
8167.372
8062.973
7951.797
7835.669
7716.244
7594.403
7470.986
7346.787
7222.904
7100.435
6980.086
6862.368
6746.706
6631.582
6527.365
6433.428
6344.371
6261.559
6187.891
6124.768
6072.514
6031.137
6000.775
5981.381
5972.141
5972.568
5982.336
6000.541
6025.779
6056.533
6091.158
6127.794
6164.703
6199.458
6230.397
6256.728
6277.214
6290.479
6295.457
6291.437
6278.334
6256.678
6227.334
6191.867
6152.702
6112.516
6074.081
6040.16
6013.264
5995.186
5987.87
5992.046
6008.352
6036.602
6076.176
6127
6189.143
6261.021
6340.771
6426.586
6516.793
6609.531
6703.227
6796.786
6889.235
6979.641
7067.536
7152.382
7234.079
7312.053
7385.757
7453.402
7514.32
7571.649
7627.58
7681.284
7731.701
7779.547
7826.205
7872.355
7917.989
7962.953
8007.229
8050.933
8094.216
8137.153
8179.692
8221.684
8262.992
8303.549
8343.359
8382.354
8420.228
8456.746
8491.588
8523.875
8553.009
8579.149
8602.931
8624.992
8646.799
8669.613
8693.298
8717
8740.174
8762.735
8784.759
8806.282
8827.289
8847.76
8867.693
8887.102
8906.002
8924.413
8942.35
8959.831
8976.873
8993.482
9009.704
9025.491
9040.886
9055.9
9070.519
9084.729
9098.522
9111.886
9124.805
9137.264
9149.247
9160.739
9171.727
9182.205
9192.167
9201.608
9210.529
9218.937
9226.848
9234.276
9241.239
9247.762
9253.866
9259.581
9264.948
9269.977
9274.723
9279.212
9283.481
9287.564
9291.49
9295.282
9298.939
9302.422
9305.72
9308.867
9311.9
9314.836
9317.677
9320.423
9323.068
9325.609
9328.044
9330.369
9332.579
9334.67
9336.638
9338.481
9340.197
9341.785
9343.245
9344.579
9345.79
9346.884
9347.864
9348.737
9349.51
9350.192
9350.79
9351.313
9351.77
9352.17
9352.52
9352.83
9353.107
9353.359
9353.592
9353.813
9354.028
9354.241
9354.458
9354.682
9354.916
9355.165
9355.433
9355.724
9356.048
9356.411
9356.834
9357.299
9357.852
9358.369
9358.883
9359.421
9359.998
9360.662
9361.291
9361.882
9362.476
9363.077
9363.69
9364.316
9364.954
9365.603
9366.265
9366.933
9367.621
9368.312
9369.02
9369.732
9370.449
9371.169
9371.891
9372.612
9373.33
9374.043
9374.749
9375.447
9376.124
9376.779
9377.416
9378.047
9378.699
9379.428
9380.326
9381.521
9383.167
9385.39
9388.136
9391.168
9394.267
9397.36
9400.447
9403.532
9406.614
9409.688
9412.753
9415.811
9418.862
9421.909
9424.954
9427.996
9431.037
9434.078
9437.12
9440.162
9443.206
9446.253
9449.301
9452.353
9455.407
9458.465
9461.527
9464.592
9467.662
9470.734
9473.811
9476.883
9479.956
9483.001
9485.982
9488.84
9491.728
9494.705
9497.677
9500.602
9503.519
9506.466
9509.441
9512.429
9515.421
9518.417
9521.42
9524.43
9527.441
9530.449
9533.452
9536.448
9539.436
9542.413
9545.378
9548.331
9551.27
9554.195
9557.106
9560.001
9562.881
9565.744
9568.592
9571.424
9574.24
9577.039
9579.824
9582.593
9585.348
9588.088
9590.814
9593.527
9596.226
9598.911
9601.58
9604.229
9606.849
9609.427
9611.949
9614.394
9616.739
9618.957
9621.043
9623.027
9624.958
9626.866
9628.757
9630.641
9632.524
9634.314
9635.892
9637.343
9638.816
9640.358
9641.929
9643.486
9645.015
9646.521
9648.01
9649.48
9650.925
9652.343
9653.731
9655.089
9656.414
9657.705
9658.958
9660.172
9661.346
9662.479
9663.569
9664.617
9665.621
9666.581
9667.496
9668.365
9669.189
9669.967
9670.698
9671.382
9672.019
9672.609
9673.151
9673.644
9674.089
9674.486
9674.833
9675.13
9675.378
9675.576
9675.723
9675.819
9675.864
9675.857
9675.798
9675.686
9675.521
9675.302
9675.029
9674.7
9674.316
9673.875
9673.376
9672.819
9672.202
9671.524
9670.783
9669.977
9669.106
9668.166
9667.155
9666.069
9664.907
9663.663
9662.333
9660.911
9659.393
9657.771
9656.037
9654.182
9652.197
9650.073
9647.799
9645.37
9642.784
9640.065
9637.246
9634.434
9631.738
9629.395
9627.525
9626.495
9626.383
9627.682
5437.028
5380.096
5323.892
5264.346
5201.286
5134.56
5069.539
5004.897
4940.002
4875.671
4812.476
4753.77
4696.526
4642.073
4593.264
4548.639
4504.875
4476.33
4455.688
4437.525
4415.619
4393.702
4378.019
4371.933
4376.453
4391.653
4417.538
4453.909
4500.822
4558.454
4625.56
4702.718
4791.561
4891.402
5001.865
5122.614
5253.203
5393.332
5542.492
5699.597
5863.983
6035.956
6205.969
6385.434
6569.38
6755.305
6941.617
7126.36
7307.562
7483.446
7652.03
7810.513
7955.521
8085.769
8199.846
8296.252
8373.233
8429.72
8465.491
8480.754
8476.22
8452.996
8412.239
8355.064
8283.034
8198.297
8102.877
7999.028
7888.444
7772.72
7653.599
7531.863
7408.457
7284.861
7162.256
7041.183
6922.022
6804.799
6690.464
6580.151
6477.081
6381.53
6292.169
6209.692
6136.119
6073.011
6021.133
5980.801
5952.154
5935.047
5929.105
5933.975
5949.12
5973.499
6005.626
6043.856
6086.298
6130.851
6175.365
6217.471
6255.163
6286.8
6310.754
6325.503
6329.814
6322.6
6303.783
6274.351
6235.551
6189.375
6138.68
6086.831
6037.386
5993.833
5958.99
5934.764
5922.844
5923.633
5937.15
5963.663
6002.831
6054.026
6116.536
6189.361
6270.968
6359.595
6453.313
6550.114
6648
6745.622
6842.003
6936.114
7027.211
7114.646
7198.116
7277.276
7351.66
7420.769
7484.672
7544.647
7602.113
7657.374
7710.128
7760.711
7809.924
7858.339
7906.107
7953.189
7999.568
8045.29
8090.416
8134.966
8178.891
8222.093
8264.466
8305.902
8346.318
8385.612
8423.598
8460.024
8494.613
8526.963
8556.772
8584.082
8609.335
8633.121
8656.237
8679.406
8702.781
8726.036
8748.837
8771.069
8792.753
8813.915
8834.553
8854.656
8874.223
8893.266
8911.801
8929.845
8947.418
8964.537
8981.221
8997.493
9013.383
9028.876
9043.976
9058.699
9073.061
9087.044
9100.634
9113.815
9126.575
9138.894
9150.755
9162.142
9173.043
9183.446
9193.345
9202.732
9211.604
9219.968
9227.835
9235.219
9242.139
9248.616
9254.674
9260.342
9265.656
9270.647
9275.339
9279.772
9283.978
9287.99
9291.834
9295.529
9299.083
9302.487
9305.739
9308.858
9311.866
9314.78
9317.605
9320.339
9322.983
9325.529
9327.975
9330.318
9332.551
9334.67
9336.671
9338.55
9340.303
9341.929
9343.428
9344.8
9346.048
9347.176
9348.187
9349.089
9349.888
9350.591
9351.207
9351.744
9352.212
9352.619
9352.975
9353.287
9353.564
9353.814
9354.045
9354.262
9354.472
9354.68
9354.891
9355.11
9355.341
9355.588
9355.855
9356.148
9356.471
9356.83
9357.231
9357.666
9358.146
9358.646
9359.209
9359.808
9360.401
9360.979
9361.539
9362.101
9362.68
9363.27
9363.873
9364.489
9365.119
9365.763
9366.419
9367.095
9367.766
9368.452
9369.149
9369.854
9370.566
9371.285
9372.008
9372.736
9373.465
9374.196
9374.926
9375.656
9376.386
9377.119
9377.863
9378.637
9379.469
9380.408
9381.518
9382.883
9384.593
9386.711
9389.215
9391.975
9394.855
9397.783
9400.74
9403.719
9406.714
9409.718
9412.725
9415.734
9418.745
9421.759
9424.774
9427.791
9430.811
9433.833
9436.858
9439.885
9442.916
9445.951
9448.989
9452.031
9455.076
9458.125
9461.178
9464.235
9467.294
9470.355
9473.417
9476.474
9479.522
9482.546
9485.541
9488.532
9491.533
9494.503
9497.402
9500.275
9503.181
9506.139
9509.134
9512.144
9515.158
9518.175
9521.195
9524.217
9527.239
9530.258
9533.271
9536.277
9539.273
9542.259
9545.234
9548.196
9551.144
9554.078
9556.998
9559.901
9562.789
9565.661
9568.517
9571.355
9574.178
9576.983
9579.772
9582.545
9585.301
9588.04
9590.763
9593.469
9596.157
9598.825
9601.471
9604.09
9606.674
9609.213
9611.697
9614.111
9616.438
9618.666
9620.792
9622.833
9624.816
9626.762
9628.679
9630.561
9632.38
9634.11
9635.768
9637.399
9639.015
9640.615
9642.191
9643.737
9645.256
9646.754
9648.234
9649.694
9651.132
9652.543
9653.925
9655.277
9656.596
9657.881
9659.128
9660.337
9661.506
9662.635
9663.721
9664.766
9665.766
9666.723
9667.636
9668.503
9669.325
9670.101
9670.831
9671.514
9672.15
9672.738
9673.279
9673.771
9674.215
9674.611
9674.957
9675.254
9675.501
9675.698
9675.845
9675.941
9675.986
9675.979
9675.92
9675.808
9675.644
9675.426
9675.154
9674.827
9674.445
9674.007
9673.512
9672.959
9672.347
9671.676
9670.942
9670.146
9669.286
9668.359
9667.363
9666.296
9665.155
9663.938
9662.64
9661.257
9659.786
9658.221
9656.557
9654.789
9652.913
9650.925
9648.824
9646.615
9644.31
9641.939
9639.546
9637.213
9635.026
9633.136
9631.633
9630.753
9630.487
9631.197
5964.111
5908.205
5855.416
5802.652
5752.871
5698.546
5649.856
5599.528
5547.29
5493.947
5439.99
5384.097
5326.719
5267.729
5204.77
5131.162
5066.237
5001.756
4936.992
4872.462
4808.889
4747.482
4688.504
4632.322
4580.152
4533.678
4493.409
4458.752
4429.525
4403.703
4380.451
4361.807
4349.892
4346.279
4351.892
4367.087
4392
4426.95
4472.146
4527.535
4593.869
4670.591
4757.84
4855.842
4964.571
5083.768
5212.997
5351.729
5499.357
5655.145
5818.471
5987.819
6160.2
6338.466
6520.258
6703.887
6887.408
7069.348
7248.855
7422.816
7589.304
7746.304
7890.708
8019.971
8132.32
8226.369
8300.738
8354.517
8387.482
8399.929
8392.729
8367.056
8324.332
8265.881
8193.388
8108.718
8013.7
7910.911
7802.006
7688.15
7570.57
7450.026
7328.103
7206.572
7086.337
6967.562
6850.425
6735.203
6622.863
6514.238
6410.479
6312.699
6221.558
6138.054
6063.812
6000.437
5949.031
5910.156
5883.987
5870.467
5869.416
5880.485
5903.053
5936.095
5978.012
6026.931
6080.694
6136.814
6192.643
6245.467
6292.611
6331.646
6360.449
6377.155
6380.549
6369.191
6342.642
6302.167
6249.644
6187.823
6120.423
6051.938
5987.045
5930.443
5885.494
5853.652
5836.047
5833.05
5844.317
5869.42
5907.823
5958.937
6022.507
6097.501
6182.516
6275.609
6374.486
6476.791
6580.322
6683.436
6784.783
6883.242
6978.064
7068.688
7154.707
7235.997
7312.428
7383.941
7450.741
7513.495
7573.194
7630.523
7685.676
7738.933
7790.806
7841.741
7891.93
7941.392
7990.098
8038.039
8085.211
8131.593
8177.126
8221.749
8265.37
8307.842
8349.057
8388.914
8427.278
8463.958
8498.772
8531.529
8562.05
8590.381
8616.848
8641.895
8666.017
8689.668
8713.056
8736.11
8758.668
8780.647
8802.05
8822.896
8843.193
8862.942
8882.146
8900.816
8918.969
8936.625
8953.804
8970.529
8986.824
9002.712
9018.218
9033.352
9048.115
9062.514
9076.553
9090.245
9103.573
9116.516
9129.059
9141.184
9152.872
9164.104
9174.865
9185.147
9194.944
9204.24
9213.029
9221.318
9229.116
9236.435
9243.294
9249.712
9255.713
9261.326
9266.58
9271.508
9276.14
9280.508
9284.645
9288.58
9292.338
9295.94
9299.399
9302.722
9305.912
9308.98
9311.943
9314.815
9317.603
9320.308
9322.928
9325.459
9327.898
9330.239
9332.478
9334.609
9336.627
9338.528
9340.308
9341.965
9343.497
9344.904
9346.188
9347.351
9348.398
9349.334
9350.165
9350.898
9351.541
9352.103
9352.592
9353.018
9353.39
9353.715
9354.003
9354.261
9354.497
9354.719
9354.932
9355.143
9355.356
9355.576
9355.808
9356.056
9356.324
9356.617
9356.938
9357.291
9357.679
9358.103
9358.567
9359.07
9359.61
9360.162
9360.708
9361.254
9361.806
9362.369
9362.946
9363.534
9364.133
9364.745
9365.369
9366.006
9366.654
9367.314
9367.991
9368.676
9369.372
9370.075
9370.788
9371.509
9372.239
9372.976
9373.721
9374.473
9375.233
9376.005
9376.791
9377.597
9378.436
9379.327
9380.297
9381.383
9382.636
9384.109
9385.856
9387.907
9390.248
9392.813
9395.518
9398.304
9401.144
9404.024
9406.934
9409.865
9412.812
9415.77
9418.737
9421.712
9424.695
9427.683
9430.677
9433.677
9436.682
9439.692
9442.707
9445.727
9448.751
9451.78
9454.814
9457.852
9460.894
9463.939
9466.987
9470.035
9473.084
9476.128
9479.164
9482.188
9485.202
9488.207
9491.188
9494.131
9497.046
9499.968
9502.923
9505.912
9508.923
9511.943
9514.967
9517.992
9521.02
9524.048
9527.076
9530.101
9533.121
9536.133
9539.136
9542.13
9545.113
9548.083
9551.04
9553.983
9556.91
9559.823
9562.719
9565.599
9568.463
9571.309
9574.138
9576.949
9579.742
9582.518
9585.276
9588.015
9590.735
9593.435
9596.114
9598.769
9601.397
9603.993
9606.552
9609.066
9611.524
9613.918
9616.237
9618.474
9620.629
9622.71
9624.73
9626.704
9628.635
9630.517
9632.343
9634.116
9635.849
9637.541
9639.19
9640.8
9642.381
9643.935
9645.467
9646.976
9648.464
9649.93
9651.37
9652.782
9654.164
9655.515
9656.832
9658.113
9659.358
9660.564
9661.73
9662.856
9663.941
9664.983
9665.982
9666.938
9667.849
9668.715
9669.536
9670.311
9671.04
9671.722
9672.358
9672.946
9673.486
9673.978
9674.422
9674.817
9675.163
9675.46
9675.707
9675.904
9676.051
9676.147
9676.192
9676.185
9676.127
9676.017
9675.854
9675.638
9675.368
9675.044
9674.665
9674.231
9673.741
9673.193
9672.588
9671.924
9671.2
9670.416
9669.568
9668.657
9667.679
9666.635
9665.52
9664.333
9663.072
9661.733
9660.315
9658.813
9657.227
9655.553
9653.791
9651.943
9650.014
9648.013
9645.961
9643.887
9641.834
9639.866
9638.055
9636.506
9635.291
9634.552
9634.276
9634.735
6141.083
6138.428
6113.886
6066.484
6010.489
5955.026
5900.546
5848.929
5799.909
5750.28
5692.919
5643.653
5594.283
5543.469
5490.83
5436.481
5380.365
5322.214
5262.144
5200.904
5139.809
5075.94
5011.159
4945.727
4880.347
4815.426
4751.833
4689.913
4630.042
4573.197
4520.831
4474.873
4434.82
4400.15
4370.334
4345.926
4328.262
4318.068
4316.156
4323.067
4339.154
4364.626
4399.616
4444.359
4498.995
4563.872
4639.142
4724.903
4821.298
4928.345
5045.86
5173.468
5310.599
5456.531
5610.436
5771.405
5938.355
6109.901
6286.015
6464.69
6644.328
6823.743
7002.061
7178.35
7350.053
7514.162
7668.144
7809.239
7934.965
8043.338
8132.941
8202.598
8251.646
8279.932
8287.947
8276.734
8247.639
8202.343
8142.233
8069.434
7985.661
7892.725
7792.087
7684.976
7573.715
7459.262
7342.482
7225.16
7108.262
6992.127
6876.83
6762.503
6649.422
6538.184
6429.47
6324.261
6224.009
6130.265
6044.655
5968.968
5904.995
5854.156
5817.233
5794.452
5785.78
5791.117
5810.243
5842.538
5887.008
5941.892
6005.101
6074.107
6145.99
6217.395
6284.801
6344.584
6393.599
6429.132
6448.287
6449.167
6431.349
6394.952
6340.272
6269.323
6186.115
6095.82
6004.91
5919.866
5846.44
5788.889
5748.59
5725.967
5719.836
5728.96
5752.603
5790.164
5841.557
5906.889
5985.251
6075.286
6174.707
6280.797
6390.787
6501.993
6612.166
6719.7
6823.538
6922.984
7017.523
7106.868
7191.041
7270.026
7343.972
7413.25
7478.5
7540.546
7600.153
7657.771
7713.718
7768.359
7822.023
7874.885
7926.971
7978.242
8028.646
8078.132
8126.639
8174.076
8220.357
8265.407
8309.111
8351.368
8392.088
8431.158
8468.437
8503.854
8537.306
8568.639
8597.922
8625.419
8651.467
8676.422
8700.591
8724.159
8747.174
8769.595
8791.39
8812.568
8833.144
8853.135
8872.551
8891.402
8909.702
8927.468
8944.725
8961.494
8977.801
8993.674
9009.141
9024.225
9038.946
9053.318
9067.344
9081.03
9094.372
9107.378
9120.028
9132.3
9144.176
9155.639
9166.667
9177.239
9187.349
9197.001
9206.162
9214.821
9222.997
9230.693
9237.92
9244.693
9251.032
9256.96
9262.502
9267.687
9272.545
9277.107
9281.403
9285.465
9289.32
9292.993
9296.507
9299.879
9303.119
9306.236
9309.242
9312.151
9314.972
9317.71
9320.371
9322.956
9325.455
9327.869
9330.192
9332.419
9334.545
9336.564
9338.472
9340.264
9341.937
9343.49
9344.923
9346.235
9347.429
9348.508
9349.477
9350.342
9351.108
9351.784
9352.377
9352.895
9353.348
9353.744
9354.092
9354.4
9354.676
9354.927
9355.162
9355.387
9355.607
9355.828
9356.056
9356.294
9356.547
9356.82
9357.115
9357.436
9357.786
9358.169
9358.585
9359.036
9359.517
9360.021
9360.539
9361.068
9361.608
9362.158
9362.718
9363.29
9363.873
9364.467
9365.074
9365.694
9366.327
9366.972
9367.63
9368.303
9368.987
9369.688
9370.385
9371.099
9371.826
9372.564
9373.314
9374.077
9374.853
9375.646
9376.458
9377.297
9378.169
9379.089
9380.074
9381.147
9382.339
9383.686
9385.225
9386.986
9388.987
9391.218
9393.643
9396.21
9398.874
9401.608
9404.394
9407.221
9410.081
9412.966
9415.87
9418.791
9421.725
9424.672
9427.628
9430.594
9433.569
9436.551
9439.54
9442.537
9445.539
9448.548
9451.562
9454.582
9457.607
9460.636
9463.669
9466.704
9469.741
9472.778
9475.812
9478.841
9481.864
9484.876
9487.875
9490.855
9493.819
9496.779
9499.746
9502.729
9505.73
9508.744
9511.766
9514.794
9517.825
9520.858
9523.892
9526.926
9529.956
9532.982
9536.001
9539.013
9542.015
9545.006
9547.985
9550.95
9553.902
9556.84
9559.761
9562.667
9565.556
9568.427
9571.281
9574.117
9576.935
9579.734
9582.514
9585.274
9588.014
9590.733
9593.429
9596.1
9598.746
9601.361
9603.942
9606.484
9608.98
9611.423
9613.807
9616.124
9618.37
9620.545
9622.655
9624.704
9626.701
9628.65
9630.551
9632.404
9634.212
9635.975
9637.689
9639.358
9640.99
9642.592
9644.168
9645.719
9647.244
9648.743
9650.216
9651.661
9653.076
9654.459
9655.81
9657.126
9658.406
9659.65
9660.855
9662.02
9663.145
9664.228
9665.269
9666.268
9667.223
9668.133
9668.999
9669.82
9670.595
9671.323
9672.006
9672.641
9673.229
9673.769
9674.262
9674.706
9675.101
9675.447
9675.744
9675.992
9676.19
9676.337
9676.434
9676.48
9676.475
9676.418
9676.309
9676.148
9675.935
9675.668
9675.347
9674.973
9674.543
9674.059
9673.518
9672.921
9672.267
9671.554
9670.782
9669.95
9669.057
9668.1
9667.08
9665.995
9664.842
9663.621
9662.331
9660.969
9659.535
9658.029
9656.451
9654.804
9653.093
9651.326
9649.517
9647.686
9645.863
9644.087
9642.409
9640.888
9639.599
9638.596
9637.972
9637.712
9638.047
6145.131
6125.389
6071.806
6023.956
5974.257
5925.249
5877.499
5830.925
5785.07
5739.661
5694.772
5648.069
5599.949
5550.105
5498.419
5444.608
5388.634
5330.373
5269.784
5207.564
5145.209
5081.392
5016.122
4949.784
4882.772
4815.209
4748
4682.218
4618.744
4558.388
4502.322
4452.194
4408.601
4371.253
4340.148
4315.713
4298.631
4289.364
4288.391
4296.052
4312.585
4338.076
4372.882
4417.124
4470.976
4534.7
4608.577
4692.852
4787.688
4893.107
5008.945
5134.84
5270.198
5414.254
5566.111
5724.687
5889.132
6057.835
6229.571
6403.234
6578.212
6754.04
6929.3
7101.913
7269.362
7428.813
7577.572
7713.009
7832.786
7934.841
8017.811
8080.644
8123.035
8144.914
8147.189
8131.065
8098.175
8050.628
7990.071
7917.963
7835.472
7744.798
7647.035
7543.101
7436.003
7327.213
7217.139
7106.386
6995.305
6884.034
6772.716
6661.335
6549.993
6439.078
6329.281
6221.645
6117.855
6020.138