/*--------------------------------*- C++ -*----------------------------------*\
| =========                 |                                                 |
| \\      /  F ield         | foam-extend: Open Source CFD                    |
|  \\    /   O peration     | Version:     3.1                                |
|   \\  /    A nd           | Web:         http://www.extend-project.de       |
|    \\/     M anipulation  |                                                 |
\*---------------------------------------------------------------------------*/
FoamFile
{
    version     2.0;
    format      ascii;
    class       surfaceScalarField;
    location    "7.5";
    object      phi;
}
// * * * * * * * * * * * * * * * * * * * * * * * * * * * * * * * * * * * * * //

dimensions      [0 3 -1 0 0 0 0];

internalField   nonuniform List<scalar> 
275122
(
-0.000216804
0.0002178147
-1.698343e-07
-8.409257e-07
-0.0001889136
0.0001781239
7.631844e-07
1.002657e-05
-0.0001806751
0.0001839657
-2.017994e-07
-3.088796e-06
-0.0001950677
0.0001988082
-2.428261e-07
-3.497718e-06
-0.0002077079
0.0002085636
-2.643705e-07
-5.912663e-07
-0.0002042448
0.0002023601
-2.194748e-07
2.104167e-06
-0.0001967859
0.000194838
-1.839282e-07
2.13182e-06
-0.0001884255
0.0001861055
-1.602749e-07
2.480219e-06
-0.0001788978
0.0001764186
-1.383625e-07
2.617522e-06
-0.0001687404
0.0001660721
-1.203994e-07
2.788667e-06
-0.0001578125
0.000154983
-1.050502e-07
2.934497e-06
-0.0001463191
0.0001433946
-9.422697e-08
3.01872e-06
-0.0001346739
0.0001318457
-9.496334e-08
2.923107e-06
-0.0001238656
0.0001214412
-9.564021e-08
2.520016e-06
-0.0001150448
0.0001132409
-9.153564e-08
1.895518e-06
-0.0001087567
0.0001075467
-8.42677e-08
1.294265e-06
-0.0001045696
0.0001037213
-7.368015e-08
9.220112e-07
-0.000101522
0.0001008256
-6.230487e-08
7.587109e-07
-9.865494e-05
9.796833e-05
-6.675817e-08
7.533649e-07
-9.635135e-05
9.627859e-05
-1.697722e-07
2.425362e-07
-0.0001050589
0.0001087276
-3.976726e-07
-3.27098e-06
-0.0001088104
0.0001085619
-8.381606e-08
3.323767e-07
-0.0001080491
0.0001082119
-2.517929e-08
-1.37594e-07
-0.0001175442
0.0001211811
1.700983e-07
-3.807036e-06
-0.00012038
0.0001200744
1.97569e-07
1.080518e-07
-0.0001200202
0.0001198496
3.04478e-08
1.401379e-07
-0.0001190864
0.000118647
-5.05529e-10
4.39923e-07
-0.000117013
0.0001158836
-4.868457e-09
1.134324e-06
-0.0001088299
0.0001018831
-1.301049e-08
6.959796e-06
-0.0001770367
0.0001817517
4.88367e-09
-4.719894e-06
-0.0002089667
0.0002194612
-5.650369e-08
-1.043802e-05
-0.0002497326
0.0002597998
5.777746e-09
-1.007299e-05
-0.0002907628
0.0003012035
7.090093e-09
-1.044775e-05
-0.0003335368
0.0003446001
7.395537e-09
-1.10706e-05
-0.000378926
0.000390651
6.671596e-09
-1.173173e-05
-0.0004270551
0.0004395145
8.017282e-09
-1.246743e-05
-0.0004779021
0.0004910491
5.20573e-09
-1.315226e-05
-0.0005313951
0.0005451742
1.094927e-08
-1.379008e-05
-0.0005873373
0.0006017117
2.327954e-09
-1.437676e-05
-0.000645898
0.0006609811
1.938445e-07
-1.527693e-05
1.1478e-05
-0.00045047
0.0004539485
3.175682e-12
-1.49565e-05
1.254292e-05
-0.0004635807
0.0004668369
2.649256e-10
-1.579944e-05
1.307089e-05
-0.0004761458
0.0004791126
-1.046197e-10
-1.603761e-05
1.371127e-05
-0.0004873792
0.0004899897
-1.815087e-10
-1.63216e-05
1.419263e-05
-0.000497182
0.0004994519
-2.084135e-10
-1.646237e-05
1.448858e-05
-0.0005056955
0.0005076544
-1.814002e-10
-1.644738e-05
1.462493e-05
-0.0005129915
0.0005146386
-2.230063e-10
-1.627183e-05
1.457355e-05
-0.0005190421
0.0005204002
-6.219033e-10
-1.593103e-05
1.473323e-05
-0.0005241187
0.0005243168
-3.89181e-10
-1.493093e-05
1.269837e-05
-0.002131054
0.002139793
5.436118e-11
-5.984781e-05
1.287896e-05
1.268049e-05
1.285122e-05
1.286154e-05
-0.00214611
0.002150185
-1.76255e-11
-5.619322e-05
1.321845e-05
1.284404e-05
1.319481e-05
1.253546e-05
-0.002152848
0.002153704
-4.928464e-11
-5.115758e-05
1.263444e-05
1.251635e-05
1.261568e-05
1.188609e-05
-0.002153588
0.002152549
-5.41575e-11
-4.5338e-05
1.13265e-05
1.186048e-05
1.130417e-05
1.100433e-05
-0.002150194
0.002145569
-2.681826e-11
-3.930666e-05
1.098375e-05
1.097968e-05
1.096442e-05
9.939978e-06
-0.002140181
0.002133076
-9.727525e-12
-3.244332e-05
9.852379e-06
9.923248e-06
9.833498e-06
8.761768e-06
-0.002125039
0.002115381
4.417396e-12
-2.515078e-05
8.660173e-06
8.744003e-06
8.643631e-06
7.426327e-06
-0.002104926
0.002092755
1.186863e-11
-1.739858e-05
7.373492e-06
7.410105e-06
7.359237e-06
6.0628e-06
-0.002079629
0.002064213
1.636342e-11
-9.288862e-06
6.30215e-06
6.049954e-06
6.290087e-06
3.816682e-06
-0.002049156
0.002035733
1.939121e-11
-2.232898e-06
4.021817e-06
3.808408e-06
4.008977e-06
3.247767e-06
-0.002018336
0.001999058
2.171878e-11
6.87544e-06
2.962602e-06
3.237805e-06
2.95432e-06
1.833434e-06
-0.001979319
0.001958957
2.064631e-11
1.362003e-05
1.545059e-06
1.825899e-06
1.537441e-06
7.305225e-07
-0.001937983
0.001916233
1.193477e-11
1.923173e-05
5.357376e-07
7.230008e-07
5.293526e-07
3.369152e-08
-0.001893799
0.001870735
-8.741797e-12
2.323402e-05
-1.115854e-07
2.556125e-08
-1.176421e-07
-3.352706e-07
-0.001847208
0.00182325
-4.09538e-11
2.542054e-05
-3.807775e-07
-3.501087e-07
-3.96128e-07
-3.010911e-07
-0.001798913
0.001774343
-5.529477e-11
2.585254e-05
-3.120835e-07
-3.326144e-07
-3.369136e-07
7.881001e-08
-0.001749618
0.001724895
-5.842206e-11
2.454832e-05
1.181897e-07
-3.942865e-08
1.808921e-08
1.032545e-06
-0.001699997
0.001675062
8.142215e-12
2.154071e-05
1.17046e-06
5.459024e-07
6.453932e-07
4.059297e-06
-0.001647934
0.001615054
5.697778e-11
1.962203e-05
4.405503e-06
2.662307e-06
2.130092e-06
-1.59073e-05
-0.001580457
0.001569844
-1.183852e-11
2.652061e-05
-1.40181e-05
-0.001560382
0.001537384
-1.022421e-10
3.701641e-05
-6.426173e-06
-0.001513898
0.001492586
-1.268595e-10
2.773785e-05
-8.67139e-06
-0.001472498
0.001452935
-1.112764e-10
2.823459e-05
-1.557388e-05
-0.001433757
0.00141653
-8.701531e-11
3.28006e-05
-2.327148e-05
-0.00140144
0.001386836
-6.416122e-11
3.787594e-05
-2.561653e-05
-0.001372241
0.001357766
-4.506693e-11
4.009109e-05
-2.768792e-05
-0.001343542
0.001329625
-3.654874e-11
4.160476e-05
-2.96259e-05
-0.001315854
0.001302219
-2.731737e-11
4.326161e-05
-3.1494e-05
-0.001288649
0.001275222
-2.08268e-11
4.492099e-05
-3.330941e-05
-0.001261883
0.001248626
-1.985798e-11
4.656638e-05
-3.476717e-05
-0.001235402
0.001222213
-2.04362e-11
4.795553e-05
-3.539907e-05
-0.00120897
0.001195632
-1.700163e-11
4.873693e-05
-3.474874e-05
-0.001182092
0.001168305
-5.572044e-12
4.853513e-05
-3.27708e-05
-0.001154161
0.001139662
9.718598e-12
4.726941e-05
-2.999401e-05
-0.001124727
0.001109461
1.729263e-11
4.525958e-05
-2.705778e-05
-0.001093814
0.001078015
1.545535e-11
4.285673e-05
-2.43221e-05
-0.001061969
0.001046052
6.026408e-12
4.023903e-05
-2.174036e-05
-0.001030045
0.001014509
-1.298206e-12
3.727571e-05
-1.87068e-05
-0.0009987722
0.0009837766
1.79359e-12
3.370234e-05
-1.4031e-05
-0.0009677322
0.0009522957
2.143633e-11
2.946748e-05
-1.443882e-05
-0.0009386928
0.0009260357
5.905352e-11
2.709587e-05
-1.012353e-05
-0.0009127139
0.0009002638
1.023428e-10
2.257349e-05
-3.504515e-06
-0.0008842045
0.0008700215
1.310683e-10
1.768734e-05
-7.646468e-06
-0.0008572621
0.0008465677
1.349121e-10
1.834075e-05
-9.879375e-06
-0.0008365573
0.0008268413
1.168386e-10
1.959528e-05
-1.157918e-05
-0.0008175823
0.0008088276
8.377291e-11
2.033375e-05
-1.595581e-05
-0.000800879
0.000794124
4.957317e-11
2.271075e-05
-2.778815e-05
-0.0007886865
0.0007889302
2.10152e-11
2.754447e-05
-5.293095e-06
-0.0007907668
0.0007862129
1.157248e-11
2.375262e-05
-4.291143e-06
-5.307694e-06
-4.306775e-06
-2.926595e-06
-0.0007808926
0.0007764552
3.187143e-12
1.579198e-05
-2.742647e-06
-2.932838e-06
-2.752554e-06
-2.127763e-06
-0.0007719101
0.00076763
5.464302e-13
1.253769e-05
-1.989073e-06
-2.138991e-06
-2.001837e-06
-1.681082e-06
-0.0007635224
0.0007598527
3.535741e-13
1.030109e-05
-1.62537e-06
-1.690933e-06
-1.634001e-06
-1.43083e-06
-0.0007564441
0.0007534081
7.364302e-14
8.687883e-06
-1.389211e-06
-1.437067e-06
-1.394844e-06
-1.227362e-06
-0.000750577
0.0007480694
4.66083e-13
7.360779e-06
-1.193525e-06
-1.233097e-06
-1.199241e-06
-1.061939e-06
-0.0007457361
0.0007436868
2.13419e-12
6.254558e-06
-1.03451e-06
-1.068164e-06
-1.040647e-06
-9.240003e-07
-0.0007417833
0.0007401254
4.810755e-12
5.320229e-06
-9.006419e-07
-9.307434e-07
-9.069687e-07
-8.051959e-07
-0.0007385904
0.0007372795
8.311285e-12
4.500305e-06
-7.846914e-07
-8.102049e-07
-7.892582e-07
-7.022925e-07
-0.0007360817
0.0007350853
1.207393e-11
3.778216e-06
-6.844651e-07
-7.065873e-07
-6.885432e-07
-6.106873e-07
-0.0007341939
0.0007334887
1.549846e-11
3.123743e-06
-5.948718e-07
-6.144697e-07
-5.984998e-07
-5.27844e-07
-0.0007328804
0.0007324443
1.811759e-11
2.526103e-06
-5.138057e-07
-5.312799e-07
-5.170287e-07
-4.542442e-07
-0.0007320987
0.000731914
1.961025e-11
1.982247e-06
-4.416551e-07
-4.571782e-07
-4.444863e-07
-3.888658e-07
-0.0007318124
0.0007318618
2.000783e-11
1.489657e-06
-3.780847e-07
-3.914793e-07
-3.80629e-07
-3.319332e-07
-0.0007319881
0.0007322543
1.959015e-11
1.048016e-06
-3.228474e-07
-3.342958e-07
-3.251509e-07
-2.82941e-07
-0.0007325941
0.000733061
1.845987e-11
6.540208e-07
-2.754005e-07
-2.850897e-07
-2.774973e-07
-2.411908e-07
-0.0007336009
0.0007342568
1.702066e-11
3.004101e-07
-2.350166e-07
-2.431645e-07
-2.369501e-07
-2.070488e-07
-0.0007349818
0.0007358145
1.553629e-11
-1.050949e-08
-2.022001e-07
-2.088958e-07
-2.040219e-07
-1.809033e-07
-0.0007367099
0.0007376973
1.406007e-11
-2.668228e-07
-1.776486e-07
-1.826521e-07
-1.793747e-07
-1.617075e-07
-0.0007387444
0.0007398749
1.25051e-11
-4.84799e-07
-1.595211e-07
-1.633712e-07
-1.611645e-07
-1.487682e-07
-0.000741058
0.0007423147
1.103768e-11
-6.608008e-07
-1.47616e-07
-1.503508e-07
-1.491767e-07
-1.419817e-07
-0.0007436173
0.0007449829
9.694953e-12
-7.951112e-07
-1.417854e-07
-1.434746e-07
-1.432523e-07
-1.410595e-07
-0.0007463875
0.0007478438
8.473902e-12
-8.879755e-07
-1.417452e-07
-1.424536e-07
-1.431088e-07
-1.456388e-07
-0.0007493319
0.0007508604
7.35815e-12
-9.403344e-07
-1.471415e-07
-1.469197e-07
-1.483852e-07
-1.553481e-07
-0.0007524134
0.0007539951
6.332895e-12
-9.53505e-07
-1.576404e-07
-1.564974e-07
-1.587374e-07
-1.699079e-07
0.0007572108
5.347656e-12
-9.287682e-07
-1.729501e-07
-1.709127e-07
-1.739236e-07
-0.0007555944
-1.889543e-07
-0.0007588378
0.0007604708
4.673226e-12
-8.675783e-07
-1.928222e-07
-1.899145e-07
-1.937475e-07
-2.123146e-07
-0.0007621077
0.0007637396
4.12545e-12
-7.717739e-07
-2.169083e-07
-2.132001e-07
-2.177271e-07
-2.396771e-07
-0.0007653687
0.0007669829
3.748186e-12
-6.435218e-07
-2.449585e-07
-2.40362e-07
-2.456085e-07
-2.707216e-07
-0.000768588
0.0007701688
3.684275e-12
-4.854514e-07
-2.763964e-07
-2.712733e-07
-2.769199e-07
-3.04746e-07
-0.0007717347
0.0007732679
3.621868e-12
-3.014624e-07
-3.106979e-07
-3.051992e-07
-3.111258e-07
-3.408555e-07
-0.0007747813
0.0007762563
3.455326e-12
-9.853267e-08
-3.470163e-07
-3.412286e-07
-3.473618e-07
-3.793985e-07
-0.0007777086
0.0007791079
3.965165e-12
1.319782e-07
-3.859522e-07
-3.797051e-07
-3.862257e-07
-4.187634e-07
-0.0007804791
0.0007817968
4.086736e-12
3.706772e-07
-4.251718e-07
-4.19016e-07
-4.25394e-07
-4.580909e-07
-0.000783083
0.0007843108
4.231936e-12
6.175696e-07
-4.643775e-07
-4.58318e-07
-4.645526e-07
-4.972261e-07
-0.0007855054
0.0007866384
1.582984e-12
8.682984e-07
-5.033655e-07
-4.973979e-07
-5.03391e-07
-5.364178e-07
-0.0007877373
0.0007887691
6.029108e-12
1.124141e-06
-5.420039e-07
-5.360262e-07
-5.414599e-07
-5.735188e-07
-0.0007897621
0.0007906868
6.371561e-12
1.37972e-06
-5.789807e-07
-5.731441e-07
-5.787524e-07
-6.087282e-07
-0.0007915738
0.0007923942
5.058248e-12
1.624509e-06
-6.138983e-07
-6.085109e-07
-6.136817e-07
-6.414933e-07
-0.0007931768
0.0007938945
5.454371e-12
1.85733e-06
-6.462312e-07
-6.41273e-07
-6.459954e-07
-6.716962e-07
-0.000794575
0.0007951931
5.819867e-12
2.076834e-06
-6.760386e-07
-6.714273e-07
-6.75755e-07
-6.993674e-07
-0.0007957753
0.0007962988
6.320521e-12
2.281342e-06
-7.033223e-07
-6.991634e-07
-7.030454e-07
-7.241138e-07
-0.000796788
0.0007972231
6.618242e-12
2.468407e-06
-7.277238e-07
-7.241234e-07
-7.275748e-07
-7.457751e-07
-0.0007976257
0.000797978
7.557862e-12
2.634576e-06
-7.481248e-07
-7.452639e-07
-7.477003e-07
-7.647562e-07
-0.0007983026
0.0007985835
7.601031e-12
2.782889e-06
-7.672941e-07
-7.645784e-07
-7.671243e-07
-7.800573e-07
-0.0007988377
0.0007990553
8.127184e-12
2.907106e-06
-7.8248e-07
-7.798898e-07
-7.823049e-07
-7.903624e-07
-0.0007992498
0.0007994144
8.766682e-12
3.00375e-06
-7.940007e-07
-7.900247e-07
-7.939723e-07
-7.962883e-07
-0.0007995698
0.0007997028
9.927315e-12
3.053185e-06
-7.970734e-07
-7.959743e-07
-7.968954e-07
-7.739486e-07
-0.0007998235
0.0007998776
9.97798e-12
3.023076e-06
-7.659147e-07
-7.727531e-07
-7.645432e-07
-6.601587e-07
-0.0007998038
0.0007995387
1.16466e-11
2.805304e-06
-6.173845e-07
-6.532314e-07
-6.093497e-07
-5.792955e-07
-0.0007996524
0.0007992474
9.925938e-12
2.839512e-06
-6.290243e-07
-5.902751e-07
-6.359431e-07
-7.883854e-07
-0.0007992348
0.0007992043
9.965643e-12
3.182694e-06
-7.894552e-07
-7.879725e-07
-7.863905e-07
-8.15118e-07
-0.0007991464
0.0007990753
1.048847e-11
3.320116e-06
-8.105462e-07
-8.13477e-07
-8.099021e-07
-8.274581e-07
-0.0007989942
0.0007988905
1.154713e-11
3.405161e-06
-8.243592e-07
-8.265055e-07
-8.23205e-07
-8.494245e-07
-0.0007987874
0.0007986913
1.243783e-11
3.478517e-06
-8.428074e-07
-8.483563e-07
-8.418096e-07
-8.46563e-07
-0.0007985642
0.0007984237
1.084181e-11
3.525334e-06
-8.466805e-07
-8.457938e-07
-8.45775e-07
-8.538281e-07
-0.0007982823
0.0007981266
7.224165e-12
3.570573e-06
-8.540521e-07
-8.533157e-07
-8.536861e-07
-8.584792e-07
-0.0007979665
0.0007977941
4.912382e-12
3.606508e-06
-8.591749e-07
-8.579518e-07
-8.5845e-07
-8.636249e-07
-0.0007976196
0.0007974338
4.891338e-12
3.639655e-06
-8.639537e-07
-8.630167e-07
-8.63337e-07
-8.676999e-07
-0.0007972453
0.0007970456
3.948802e-12
3.670118e-06
-8.676604e-07
-8.674766e-07
-8.675785e-07
-8.711753e-07
-0.0007968427
0.0007966292
2.524138e-12
3.69884e-06
-8.711241e-07
-8.714928e-07
-8.715025e-07
-8.744232e-07
-0.0007964121
0.0007961846
3.498619e-12
3.725619e-06
-8.743635e-07
-8.747386e-07
-8.746601e-07
-8.779598e-07
-0.0007959535
0.0007957129
3.818035e-12
3.752594e-06
-8.78062e-07
-8.779222e-07
-8.779916e-07
-8.818853e-07
-0.0007954688
0.000795216
1.554352e-12
3.780267e-06
-8.820269e-07
-8.81707e-07
-8.81839e-07
-8.850704e-07
-0.0007949597
0.000794695
-1.703921e-12
3.804291e-06
-8.850733e-07
-8.847386e-07
-8.846611e-07
-8.876886e-07
-0.0007944265
0.0007941506
-2.859782e-12
3.825343e-06
-8.877398e-07
-8.870006e-07
-8.869889e-07
-8.907579e-07
-0.0007938716
0.0007935868
1.126242e-12
3.846687e-06
-8.909429e-07
-8.89977e-07
-8.901872e-07
-8.941989e-07
-0.0007932997
0.0007930078
5.520627e-12
3.868039e-06
-8.944164e-07
-8.936256e-07
-8.938902e-07
-8.974542e-07
-0.0007927138
0.0007924159
8.07295e-12
3.887431e-06
-8.976649e-07
-8.970817e-07
-8.973298e-07
-9.003411e-07
-0.0007921161
0.0007918133
1.036167e-11
3.903884e-06
-9.004895e-07
-9.000718e-07
-9.00225e-07
-9.028317e-07
-0.000791509
0.0007912029
9.965301e-12
3.917067e-06
-9.029237e-07
-9.025772e-07
-9.026645e-07
-9.048814e-07
-0.0007908958
0.0007905883
6.7702e-12
3.926695e-06
-9.049362e-07
-9.046523e-07
-9.047161e-07
-9.064799e-07
-0.0007902805
0.0007899735
1.49033e-12
3.932559e-06
-9.064802e-07
-9.063009e-07
-9.063041e-07
-9.076269e-07
-0.0007896668
0.0007893624
-4.502522e-12
3.934345e-06
-9.075506e-07
-9.074322e-07
-9.073508e-07
-9.083818e-07
-0.0007890592
0.0007887597
-7.736454e-12
3.9323e-06
-9.082128e-07
-9.081778e-07
-9.079944e-07
-9.086331e-07
0.0007881699
-4.108398e-12
3.92608e-06
-0.0007884621
-9.084625e-07
-9.084393e-07
-9.082741e-07
-9.0834e-07
-0.0007878802
0.0007875974
3.791922e-12
3.915519e-06
-9.080954e-07
-9.082231e-07
-9.080031e-07
-9.077258e-07
-0.0007873181
0.0007870469
1.074544e-11
3.901393e-06
-9.073975e-07
-9.076756e-07
-9.073474e-07
-9.064838e-07
-0.0007867798
0.0007865224
1.426423e-11
3.882507e-06
-9.061647e-07
-9.063956e-07
-9.060611e-07
-9.050912e-07
-0.0007862704
0.0007860289
1.065132e-11
3.8607e-06
-9.046294e-07
-9.049795e-07
-9.045074e-07
-9.032256e-07
-0.0007857934
0.0007855699
3.426542e-12
3.835289e-06
-9.027814e-07
-9.031238e-07
-9.026501e-07
-9.012092e-07
-0.0007853536
0.0007851498
6.709093e-12
3.807219e-06
-9.005937e-07
-9.011139e-07
-9.004846e-07
-8.986755e-07
-0.0007849538
0.0007847717
1.277084e-11
3.77577e-06
-8.982588e-07
-8.985825e-07
-8.981712e-07
-8.961219e-07
-0.0007845981
0.0007844388
1.39779e-11
3.742547e-06
-8.956261e-07
-8.96032e-07
-8.954857e-07
-8.933109e-07
-0.0007842885
0.0007841541
1.308588e-11
3.706517e-06
-8.928203e-07
-8.932044e-07
-8.927941e-07
-8.903735e-07
-0.0007840288
0.0007839201
1.4168e-11
3.668631e-06
-8.896788e-07
-8.902722e-07
-8.89533e-07
-8.872262e-07
-0.000783821
0.0007837388
1.743325e-11
3.629411e-06
-8.864328e-07
-8.87197e-07
-8.863382e-07
-8.840222e-07
-0.0007836673
0.000783613
1.817022e-11
3.588052e-06
-8.828769e-07
-8.83897e-07
-8.829582e-07
-8.803895e-07
-0.0007835698
0.0007835434
6.397326e-13
3.546626e-06
-8.796765e-07
-8.804165e-07
-8.798211e-07
-8.778148e-07
-0.0007835284
0.0007835272
2.65144e-11
3.511075e-06
-8.770008e-07
-8.778458e-07
-8.772176e-07
-8.738251e-07
-0.0007835349
0.0007835679
7.974145e-11
3.461253e-06
-8.738141e-07
-8.734521e-07
-8.732489e-07
-8.700558e-07
-0.0007836125
0.0007836775
9.092948e-12
3.41517e-06
-8.700759e-07
-8.702368e-07
-8.697616e-07
-8.661339e-07
-0.0007837495
0.0007838439
3.306548e-11
3.371507e-06
-8.665588e-07
-8.66509e-07
-8.667347e-07
-8.640256e-07
-0.0007839474
0.0007840716
-1.614657e-11
3.32927e-06
-8.626376e-07
-8.633897e-07
-8.634335e-07
-8.60122e-07
-0.0007841998
0.0007843602
-1.574749e-10
3.27996e-06
-8.595847e-07
-8.59577e-07
-8.609204e-07
-8.563166e-07
-0.0007845231
0.0007847229
-1.685701e-10
3.21907e-06
-8.553266e-07
-8.541954e-07
-8.529099e-07
-8.498771e-07
-0.0007849215
0.0007851671
-3.55445e-10
3.151197e-06
-8.478307e-07
-8.506571e-07
-8.480024e-07
-8.272981e-07
-0.0007854095
0.0007856883
4.107823e-10
3.037521e-06
-8.303236e-07
-8.270778e-07
-8.320401e-07
-8.172312e-07
-0.0007860248
0.0007864658
-2.013205e-10
2.814489e-06
-8.101993e-07
-8.174773e-07
-8.104221e-07
-6.486144e-07
-0.0007868584
0.000786794
2.862873e-11
2.317936e-06
-4.770515e-07
-6.493299e-07
-4.785275e-07
-1.049565e-07
-0.0001956132
0.0001948661
-1.268879e-11
8.52098e-07
-5.423616e-07
-0.0001934288
0.0001931145
-4.764378e-11
8.566127e-07
-6.618503e-07
-0.0001925032
0.0001923789
-3.835414e-11
7.862665e-07
-7.268769e-07
-0.0001921706
0.0001921408
-2.488204e-11
7.56721e-07
-7.654247e-07
-0.0001921328
0.0001921496
-1.418611e-11
7.486805e-07
-7.90128e-07
-0.0001922393
0.0001922783
-8.098497e-12
7.511088e-07
-8.069173e-07
-0.000192414
0.0001924638
-5.944725e-12
7.571499e-07
-8.182026e-07
-0.0001926218
0.0001926767
-4.002302e-12
7.633232e-07
-8.260924e-07
-0.0001928458
0.0001929034
2.923762e-12
7.684415e-07
-8.322989e-07
-0.000193079
0.0001931382
1.314983e-11
7.730978e-07
-8.373762e-07
-0.0001933173
0.0001933776
8.882619e-12
7.770299e-07
-8.414448e-07
-0.0001935597
0.000193621
4.738194e-12
7.802194e-07
-8.449063e-07
-0.0001938057
0.0001938678
1.221145e-11
7.828214e-07
-8.480481e-07
-0.0001940552
0.0001941182
1.551276e-11
7.850499e-07
-8.50816e-07
-0.0001943083
0.0001943723
1.792654e-11
7.868721e-07
-8.532873e-07
-0.0001945654
0.0001946303
1.868003e-11
7.883316e-07
-8.556176e-07
-0.0001948266
0.0001948926
2.464371e-11
7.895657e-07
-8.578139e-07
-0.0001950921
0.0001951592
2.680924e-11
7.906886e-07
-8.599345e-07
-0.0001953619
0.0001954301
2.180555e-11
7.917046e-07
-8.619412e-07
-0.0001956363
0.0001957057
2.358233e-11
7.9252e-07
-8.638033e-07
-0.0001959155
0.0001959861
2.93267e-11
7.932078e-07
-8.656574e-07
-0.0001961996
0.0001962715
3.122393e-11
7.937186e-07
-8.672912e-07
-0.0001964891
0.0001965625
3.197295e-11
7.938896e-07
-8.688063e-07
-0.0001967847
0.0001968596
3.536345e-11
7.937958e-07
-8.701426e-07
-0.0001970869
0.0001971637
4.069328e-11
7.932855e-07
-8.712698e-07
-0.0001973971
0.0001974759
4.41642e-11
7.923457e-07
-8.722209e-07
-0.0001977158
0.0001977972
3.760101e-11
7.907777e-07
-8.721711e-07
-0.0001980449
0.0001981288
3.55377e-11
7.882581e-07
-8.723835e-07
-0.0001983855
0.0001984733
3.894461e-11
7.845212e-07
-8.710767e-07
-0.0001987422
0.000198835
4.067015e-11
7.782176e-07
-8.679979e-07
-0.0001991203
0.0001992203
4.636407e-11
7.680261e-07
-8.617334e-07
-0.0001995294
0.0001996401
4.25767e-11
7.509299e-07
-8.490703e-07
-0.000199986
0.0002001149
4.391624e-11
7.201472e-07
-8.2043e-07
-0.0002005235
0.0002006859
4.767991e-11
6.58006e-07
-7.369731e-07
-0.0002012422
0.0002014949
3.994311e-11
4.842424e-07
2.859051e-07
-0.0002023501
0.0002022993
6.275786e-11
-2.352351e-07
8.494388e-07
-0.0002023313
0.0002023854
4.353168e-11
-9.03585e-07
9.286864e-07
-0.000202584
0.0002026747
4.264826e-11
-1.019423e-06
9.766603e-07
-0.0002029723
0.0002030811
4.280007e-11
-1.085517e-06
1.007289e-06
-0.0002034247
0.0002035446
4.058957e-11
-1.127229e-06
1.031526e-06
-0.0002039136
0.00020404
3.973838e-11
-1.157999e-06
1.048672e-06
-0.0002044275
0.0002045596
4.334858e-11
-1.180875e-06
1.063747e-06
-0.0002049618
0.0002050979
4.488408e-11
-1.199916e-06
1.076208e-06
-0.0002055106
0.0002056498
4.12098e-11
-1.215469e-06
1.086802e-06
-0.0002060706
0.0002062122
3.116522e-11
-1.22842e-06
1.095739e-06
-0.0002066394
0.000206783
2.438125e-11
-1.239283e-06
1.10358e-06
-0.0002072152
0.0002073601
2.892858e-11
-1.248563e-06
1.110403e-06
-0.0002077961
0.0002079421
2.662373e-11
-1.256418e-06
1.116612e-06
-0.0002083804
0.000208527
2.550966e-11
-1.263213e-06
1.121911e-06
-0.0002089665
0.0002091133
2.23892e-11
-1.268772e-06
1.126692e-06
-0.000209553
0.0002096997
2.319977e-11
-1.27346e-06
1.131074e-06
-0.0002101385
0.0002102848
2.608352e-11
-1.277412e-06
1.134901e-06
-0.0002107219
0.0002108676
2.501691e-11
-1.280569e-06
1.138403e-06
-0.0002113022
0.0002114469
2.464947e-11
-1.283166e-06
1.141665e-06
-0.0002118784
0.000212022
2.396082e-11
-1.285285e-06
1.144625e-06
-0.0002124495
0.0002125918
2.256402e-11
-1.286914e-06
1.147251e-06
-0.0002130149
0.0002131557
2.295133e-11
-1.288017e-06
1.149546e-06
-0.0002135738
0.0002137128
2.510046e-11
-1.288603e-06
1.151522e-06
-0.0002141253
0.0002142624
2.813152e-11
-1.288712e-06
1.153255e-06
-0.0002146687
0.0002148038
2.631875e-11
-1.288386e-06
1.154664e-06
-0.0002152034
0.0002153363
1.653165e-11
-1.287606e-06
1.155704e-06
-0.0002157289
0.0002158595
1.15896e-11
-1.286338e-06
1.156415e-06
-0.0002162445
0.0002163727
1.742757e-11
-1.284616e-06
1.156755e-06
-0.0002167498
0.0002168754
1.838995e-11
-1.282374e-06
1.156775e-06
-0.000217244
0.0002173669
1.974965e-11
-1.279665e-06
1.15645e-06
-0.0002177265
0.0002178465
1.791898e-11
-1.276455e-06
1.156125e-06
-0.0002181961
0.0002183129
1.988799e-11
-1.272927e-06
1.157073e-06
-0.0002186484
0.0002187598
2.651048e-11
-1.268542e-06
1.143696e-06
-0.000219087
0.0002192067
3.396433e-11
-1.263409e-06
1.166519e-06
-0.0002195861
0.0002196587
1.558542e-10
-1.239218e-06
1.459413e-06
-0.0002181086
0.0008966109
3.489767e-12
-5.537116e-06
6.202726e-08
1.462607e-06
4.734979e-08
-0.0002181127
-0.000228941
-0.0002289429
6.626679e-07
-0.0009006
0.000901882
2.333845e-12
-4.646812e-06
1.037039e-06
6.448691e-07
1.020235e-06
8.605908e-07
-0.0009026934
0.0009037257
3.708588e-12
-4.570782e-06
9.22428e-07
8.464487e-07
9.090598e-07
9.082054e-07
-0.0009050905
0.0009063636
3.840511e-12
-4.982259e-06
9.586157e-07
8.958252e-07
9.465056e-07
9.711245e-07
-0.0009075462
0.0009085187
4.819763e-12
-4.918855e-06
1.013383e-06
9.597231e-07
1.002137e-06
9.974714e-07
-0.0009094316
0.0009102873
4.529831e-12
-4.872111e-06
1.021307e-06
9.868126e-07
1.010818e-06
1.007152e-06
-0.0009111579
0.0009120053
1.209809e-12
-4.881328e-06
1.019903e-06
9.969758e-07
1.009881e-06
1.020578e-06
-0.00091286
0.0009136777
3.525222e-12
-4.89871e-06
1.029924e-06
1.009768e-06
1.020716e-06
1.035516e-06
-0.0009144907
0.000915272
8.670016e-12
-4.915574e-06
1.040749e-06
1.025905e-06
1.032012e-06
1.0436e-06
-0.0009160476
0.0009167988
9.517543e-12
-4.926288e-06
1.052811e-06
1.034275e-06
1.044374e-06
1.057571e-06
-0.000917537
0.0009182403
5.91339e-12
-4.933154e-06
1.064328e-06
1.050592e-06
1.057278e-06
1.070201e-06
-0.0009189342
0.0009196056
5.930576e-12
-4.944323e-06
1.072993e-06
1.06337e-06
1.066358e-06
1.079367e-06
-0.0009202627
0.0009208934
9.245467e-12
-4.941313e-06
1.081858e-06
1.073348e-06
1.076017e-06
1.088125e-06
-0.0009215101
0.0009221035
9.681101e-12
-4.939439e-06
1.090131e-06
1.082818e-06
1.084943e-06
1.095608e-06
-0.0009226838
0.0009232427
8.355615e-12
-4.935157e-06
1.097176e-06
1.090912e-06
1.092585e-06
1.101955e-06
-0.0009237888
0.0009243151
6.700657e-12
-4.928532e-06
1.103249e-06
1.097816e-06
1.099202e-06
1.10734e-06
-0.0009248292
0.0009253253
4.651372e-12
-4.920347e-06
1.108431e-06
1.103655e-06
1.104815e-06
1.111889e-06
-0.00092581
0.0009262783
5.094385e-12
-4.911158e-06
1.112834e-06
1.108587e-06
1.109593e-06
1.115756e-06
-0.000926736
0.0009271786
8.467721e-12
-4.901504e-06
1.116602e-06
1.112805e-06
1.113717e-06
1.119038e-06
-0.0009276115
0.0009280308
1.037441e-11
-4.891713e-06
1.119802e-06
1.116393e-06
1.117211e-06
1.121813e-06
-0.0009284412
0.0009288393
9.472271e-12
-4.881988e-06
1.122522e-06
1.119413e-06
1.120155e-06
1.12415e-06
-0.0009292293
0.0009296083
9.573418e-12
-4.872569e-06
1.124806e-06
1.121984e-06
1.12269e-06
1.126124e-06
-0.00092998
0.0009303417
1.060944e-11
-4.863587e-06
1.126736e-06
1.124188e-06
1.124857e-06
1.127795e-06
-0.0009306969
0.000931043
9.594647e-12
-4.855078e-06
1.128379e-06
1.126064e-06
1.126701e-06
1.129218e-06
-0.0009313834
0.0009317158
8.688928e-12
-4.84707e-06
1.129755e-06
1.127579e-06
1.128103e-06
1.130349e-06
-0.0009320433
0.0009323635
8.909732e-12
-4.839488e-06
1.130879e-06
1.128763e-06
1.129292e-06
1.131353e-06
-0.0009326793
0.0009329887
8.630212e-12
-4.832945e-06
1.131836e-06
1.129905e-06
1.130438e-06
1.13229e-06
-0.0009332942
0.0009335941
7.914259e-12
-4.827499e-06
1.132791e-06
1.130999e-06
1.131535e-06
1.13327e-06
-0.0009338906
0.0009341822
7.074017e-12
-4.82333e-06
1.133777e-06
1.132095e-06
1.132629e-06
1.13426e-06
-0.0009344709
0.0009347553
7.13564e-12
-4.82032e-06
1.134776e-06
1.133172e-06
1.133702e-06
1.135289e-06
-0.0009350374
0.0009353157
8.459008e-12
-4.818454e-06
1.135808e-06
1.13427e-06
1.134808e-06
1.136363e-06
-0.000935592
0.000935865
9.481083e-12
-4.817724e-06
1.1369e-06
1.135427e-06
1.135987e-06
1.137495e-06
-0.0009361366
0.0009364052
9.787458e-12
-4.818023e-06
1.138047e-06
1.13662e-06
1.137187e-06
1.138664e-06
-0.0009366728
0.0009369377
1.0899e-11
-4.819106e-06
1.139233e-06
1.137831e-06
1.138411e-06
1.139846e-06
-0.0009372019
0.0009374637
1.170457e-11
-4.820778e-06
1.140434e-06
1.139071e-06
1.139684e-06
1.141003e-06
-0.000937725
0.0009379838
1.122324e-11
-4.822657e-06
1.141612e-06
1.140283e-06
1.140909e-06
1.142079e-06
-0.0009382427
0.0009384987
1.054251e-11
-4.824283e-06
1.142718e-06
1.141392e-06
1.142037e-06
1.142967e-06
-0.0009387551
0.000939008
1.038432e-11
-4.824877e-06
1.14364e-06
1.142327e-06
1.143025e-06
1.143543e-06
-0.0009392615
0.0009395105
9.818575e-12
-4.823578e-06
1.144277e-06
1.142976e-06
1.143746e-06
1.143573e-06
-0.0009397605
0.0009400041
9.774765e-12
-4.818639e-06
1.144411e-06
1.143065e-06
1.14393e-06
1.142594e-06
-0.0009402488
0.0009404849
1.05869e-11
-4.80734e-06
1.14357e-06
1.142065e-06
1.143019e-06
1.139674e-06
-0.0009407214
0.0009409451
1.103799e-11
-4.783664e-06
1.140881e-06
1.139102e-06
1.140301e-06
1.133042e-06
-0.0009411656
0.0009413672
1.108081e-11
-4.735362e-06
1.134376e-06
1.132508e-06
1.133874e-06
1.116816e-06
-0.0009415561
0.0009417219
1.124773e-11
-4.63152e-06
1.116471e-06
1.116351e-06
1.116032e-06
1.067065e-06
-0.0009418779
0.0009420592
1.133584e-11
-4.42521e-06
1.055302e-06
1.066631e-06
1.05488e-06
9.509205e-07
-0.0009423082
0.0009426589
1.115397e-11
-4.073975e-06
9.111253e-07
9.505079e-07
9.106861e-07
8.095972e-07
-0.0009430637
0.0009434832
1.091689e-11
-3.629649e-06
7.958574e-07
8.092296e-07
7.95486e-07
7.861494e-07
-0.0009438757
0.0009442409
1.092577e-11
-3.518026e-06
7.906235e-07
7.857688e-07
7.902807e-07
7.823974e-07
-0.0009446039
0.0009449623
1.092939e-11
-3.488964e-06
7.831988e-07
7.820634e-07
7.828731e-07
7.730842e-07
-0.0009453234
0.0009456685
1.093351e-11
-3.440684e-06
7.749977e-07
7.727738e-07
7.746986e-07
7.669511e-07
-0.0009460114
0.0009463318
1.120366e-11
-3.395892e-06
7.710713e-07
7.666341e-07
7.707792e-07
7.535855e-07
-0.0009466564
0.000946953
9.577504e-12
-3.31862e-06
7.578298e-07
7.53208e-07
7.574137e-07
7.174071e-07
-0.0009472744
0.0009476627
6.665078e-12
-3.237311e-06
7.07806e-07
7.167754e-07
7.070479e-07
5.227817e-07
-0.0009485326
0.0009499773
1.788473e-12
-3.700106e-06
6.0572e-07
5.211578e-07
6.057697e-07
8.618154e-07
-0.0009509737
0.0009501391
-1.099581e-11
-2.365577e-06
7.338348e-07
8.663175e-07
7.381637e-07
7.29246e-07
-0.000949802
0.0009501596
4.144842e-12
-3.118539e-06
6.445966e-07
7.361864e-07
6.509079e-07
6.997546e-07
-0.000950444
0.0009507981
5.805288e-12
-3.076487e-06
6.561827e-07
7.052862e-07
6.611912e-07
6.720523e-07
-0.0009511055
0.0009515427
6.697815e-12
-3.073104e-06
6.417807e-07
6.763329e-07
6.45725e-07
6.681811e-07
-0.0009519873
0.00095249
7.550918e-12
-3.150024e-06
6.522733e-07
6.714893e-07
6.553205e-07
6.826293e-07
-0.0009529783
0.000953485
6.78803e-12
-3.228987e-06
6.758038e-07
6.855178e-07
6.783844e-07
6.989825e-07
-0.0009539807
0.000954496
5.701514e-12
-3.308198e-06
6.952664e-07
7.01214e-07
6.974011e-07
7.139328e-07
-0.000955006
0.0009555311
5.884487e-12
-3.382235e-06
7.127781e-07
7.158494e-07
7.146423e-07
7.288605e-07
-0.0009560502
0.000956581
6.767403e-12
-3.450354e-06
7.29264e-07
7.305232e-07
7.30904e-07
7.43028e-07
-0.0009571074
0.0009576456
7.914291e-12
-3.51543e-06
7.442361e-07
7.443901e-07
7.455839e-07
7.564573e-07
-0.0009581803
0.0009587249
9.344754e-12
-3.575722e-06
7.578921e-07
7.579184e-07
7.588409e-07
7.682774e-07
-0.0009592682
0.0009598216
9.986528e-12
-3.634458e-06
7.706131e-07
7.698768e-07
7.723431e-07
7.813632e-07
-0.0009603742
0.000960935
8.469424e-12