/*--------------------------------*- C++ -*----------------------------------*\
| =========                 |                                                 |
| \\      /  F ield         | foam-extend: Open Source CFD                    |
|  \\    /   O peration     | Version:     3.1                                |
|   \\  /    A nd           | Web:         http://www.extend-project.de       |
|    \\/     M anipulation  |                                                 |
\*---------------------------------------------------------------------------*/
FoamFile
{
    version     2.0;
    format      ascii;
    class       volScalarField;
    location    "15.5";
    object      k;
}
// * * * * * * * * * * * * * * * * * * * * * * * * * * * * * * * * * * * * * //

dimensions      [0 2 -2 0 0 0 0];

internalField   nonuniform List<scalar> 
119952
(
0.08070723
0.07697054
0.07608411
0.07440467
0.07256929
0.07107377
0.07049792
0.07038345
0.07051349
0.07078005
0.07112719
0.07152007
0.07193721
0.07236426
0.07279177
0.07321431
0.0736337
0.07406197
0.07455578
0.07543207
0.07804344
0.07598667
0.07606879
0.07823218
0.07521826
0.07363104
0.07232713
0.07111185
0.06869711
0.02152442
0.09899383
0.09652026
0.09423932
0.09286131
0.09234627
0.09249887
0.09307602
0.09389448
0.09481889
0.09579676
0.09119021
0.09128369
0.09375233
0.09718558
0.1007962
0.1041809
0.1072184
0.1099102
0.1122513
0.1228771
0.1241413
0.1249687
0.125341
0.1254637
0.1255051
0.1255605
0.125673
0.1258536
0.1260167
0.1266146
0.1269675
0.1270897
0.1270939
0.1270192
0.1268912
0.1267178
0.1264636
0.1263223
0.1285905
0.1284997
0.1276174
0.1274898
0.127497
0.1272179
0.126483
0.12551
0.124506
0.1235242
0.122586
0.1217046
0.1208811
0.1201054
0.119363
0.1186425
0.1179418
0.1172556
0.116559
0.1158378
0.1153017
0.1149005
0.1141531
0.1138502
0.1144729
0.1147269
0.1147626
0.1151318
0.1155821
0.1135489
0.1116092
0.1101154
0.1087704
0.107642
0.1066559
0.105777
0.1049813
0.1042356
0.1035132
0.1028002
0.102093
0.1013971
0.1007229
0.1000781
0.09946232
0.09886645
0.09827699
0.09768335
0.09708288
0.09648161
0.09589128
0.09532496
0.09479325
0.09430371
0.09386355
0.09348235
0.09317152
0.09294011
0.09278788
0.09269909
0.0926413
0.09257176
0.09245049
0.09225302
0.09197446
0.09162235
0.09120423
0.09071867
0.09015547
0.08950399
0.08876167
0.08793888
0.08705818
0.08615344
0.0852502
0.08436754
0.08352488
0.08273533
0.0820321
0.08143629
0.08094553
0.08055657
0.0801835
0.07979511
0.07937301
0.07889242
0.07833821
0.07774333
0.07716923
0.07667167
0.07627861
0.07598417
0.07576366
0.0755934
0.07545202
0.07532932
0.07522813
0.07515735
0.07512347
0.07512429
0.07515492
0.0752045
0.07525695
0.07529319
0.07529458
0.07524355
0.07512315
0.07491887
0.07462263
0.07424216
0.07377924
0.07322359
0.07260628
0.07195944
0.07120317
0.07032809
0.06932256
0.06791699
0.0662979
0.06962721
0.07714583
0.08532709
0.09048655
0.09438364
0.0980002
0.09919833
0.09784034
0.09476956
0.0906913
0.08338565
0.0704315
0.06270291
0.0588378
0.05726177
0.05618086
0.05431796
0.0515699
0.04840326
0.04538547
0.04298287
0.04133676
0.04030469
0.03965388
0.03922048
0.03891954
0.03871852
0.03860892
0.03857976
0.03861553
0.0386981
0.03880714
0.03891981
0.03901592
0.03907823
0.03909383
0.03905533
0.038969
0.03884682
0.03869815
0.03852919
0.03834406
0.03814621
0.0379448
0.03776325
0.03758034
0.03770121
0.0378916
0.03800858
0.03809915
0.03816308
0.03820969
0.03824201
0.03826186
0.038269
0.03826222
0.03823961
0.03819886
0.03813759
0.03805336
0.03794395
0.03780766
0.03764356
0.03745155
0.03723254
0.03698837
0.03672178
0.03643614
0.03613538
0.03582379
0.03550584
0.03518498
0.03486854
0.03455518
0.03424152
0.03392795
0.03361648
0.03331059
0.03301581
0.03274073
0.03385166
0.03371757
0.03352763
0.03318252
0.03285673
0.03302235
0.03391155
0.03502314
0.03596754
0.03665445
0.03715781
0.03757107
0.03794385
0.03828208
0.03856162
0.03874391
0.03878589
0.03864146
0.03826705
0.03764143
0.0367794
0.03573257
0.03457714
0.03340321
0.03230977
0.0313514
0.03058101
0.03005149
0.02980554
0.02988046
0.03027495
0.03095284
0.03187213
0.03301608
0.03436752
0.03589785
0.03758571
0.03939309
0.04128018
0.04322057
0.04520249
0.0472264
0.04930184
0.05144665
0.05367522
0.05599501
0.05842468
0.06089744
0.06335099
0.06573886
0.06801083
0.07010664
0.07195364
0.07348811
0.07456932
0.0751455
0.07535583
0.07527806
0.07499049
0.07451697
0.07382148
0.07284785
0.07155485
0.06992449
0.06796039
0.06569105
0.06317258
0.06048287
0.05770739
0.05492266
0.05218624
0.04953657
0.04700655
0.04462884
0.04243338
0.04046571
0.03875759
0.03728875
0.0360294
0.03494351
0.03399547
0.0331538
0.03239293
0.03169348
0.03104152
0.03042735
0.02984435
0.02928801
0.02875642
0.02824858
0.0277636
0.02730085
0.02685975
0.0264396
0.02603939
0.02565773
0.02529505
0.02495231
0.02462992
0.02432827
0.02404848
0.02379204
0.02356035
0.02335574
0.02318152
0.02304043
0.02293457
0.02286562
0.02283456
0.02284261
0.02289172
0.02298414
0.02312173
0.02330555
0.02353604
0.0238127
0.02413415
0.02449848
0.02490331
0.025346
0.02582377
0.02633367
0.02687238
0.02743637
0.02802196
0.02862592
0.02924511
0.02987629
0.03051621
0.03116196
0.03181056
0.03245877
0.0331034
0.03374118
0.03436725
0.03497077
0.03552183
0.03608101
0.03728011
0.1016215
0.0955031
0.09966531
0.1064384
0.1129832
0.1185502
0.1231107
0.1268296
0.1300043
0.1321326
0.139981
0.1495848
0.1589194
0.1670586
0.1738032
0.1792125
0.1834785
0.1867952
0.2112247
0.211255
0.2110928
0.2105178
0.2097789
0.2090619
0.2084407
0.2079331
0.2075076
0.2070067
0.2067223
0.2062853
0.2054348
0.2043692
0.2032229
0.2020692
0.2009509
0.1998916
0.1988745
0.1980968
0.1974179
0.1964305
0.1952743
0.1940627
0.1928253
0.1915888
0.1903864
0.1892398
0.1881669
0.187213
0.1862558
0.18532
0.1843848
0.183413
0.1824048
0.1813821
0.1803783
0.1794458
0.1884817
0.187482
0.1865278
0.1856196
0.1847119
0.1837705
0.1827896
0.1817791
0.1807692
0.179758
0.178753
0.177793
0.1768602
0.1759221
0.1749594
0.1739651
0.1729548
0.1720322
0.1713841
0.1707899
0.1698592
0.1689593
0.1682779
0.1675925
0.1667013
0.1656117
0.1643868
0.1630994
0.1617914
0.1605008
0.1592529
0.1580524
0.1568871
0.1557366
0.1545887
0.1534472
0.152319
0.1512225
0.1501992
0.1492586
0.1483494
0.1475258
0.1469825
0.1466198
0.1461408
0.1455865
0.1449229
0.1438685
0.1424094
0.1410896
0.1399772
0.1389171
0.1378969
0.1369094
0.1359383
0.1349648
0.1339633
0.1329105
0.131797
0.1306317
0.1294392
0.1282497
0.1270876
0.1259637
0.1248759
0.1238154
0.1227742
0.1217489
0.1207426
0.1197625
0.118817
0.1179112
0.1170454
0.1162153
0.1154136
0.1146314
0.1138601
0.1130924
0.1123227
0.1115466
0.1107605
0.1099617
0.1091495
0.1083254
0.1074921
0.1066514
0.1058024
0.1049413
0.1040632
0.1031642
0.1022445
0.1013106
0.1003747
0.09945308
0.09856636
0.09773705
0.09698405
0.0963487
0.09583981
0.09544224
0.0951396
0.09491576
0.09474777
0.09460466
0.0944538
0.09426588
0.0940214
0.09371379
0.09334793
0.09293603
0.09249198
0.09202845
0.09155792
0.09109326
0.09064787
0.09023536
0.08986818
0.08955747
0.08931433
0.08914419
0.08904785
0.08902281
0.08906687
0.08917633
0.08934283
0.08955628
0.08981127
0.09011676
0.09047802
0.09089485
0.09139773
0.0920239
0.09274175
0.09352692
0.09431354
0.09477332
0.09455006
0.09389858
0.09368861
0.09464809
0.09731806
0.1021568
0.1091364
0.1180313
0.1279675
0.1373243
0.1444926
0.1484469
0.1461652
0.1414273
0.1362046
0.1309378
0.1260543
0.12153
0.1170883
0.1124828
0.1077075
0.1030545
0.09890712
0.09550509
0.09284579
0.09075098
0.08903292
0.08758809
0.08635008
0.08530046
0.08443137
0.0837224
0.08314365
0.08265593
0.08221381
0.08178025
0.08132781
0.08083489
0.08028625
0.07967509
0.07900586
0.07829012
0.07753879
0.07675937
0.07595578
0.07512737
0.0742677
0.07337772
0.07252513
0.07173315
0.07096646
0.07022041
0.06949446
0.06878843
0.06810173
0.06743195
0.06677527
0.06612658
0.06547974
0.06482799
0.06416429
0.06348154
0.06277297
0.0620325
0.0612553
0.06043812
0.05957966
0.05868073
0.05774441
0.05677593
0.05578253
0.05477289
0.05375659
0.0527428
0.05174084
0.0507607
0.04981055
0.04889714
0.0480279
0.04721374
0.04646053
0.04577073
0.04711901
0.04649841
0.04591088
0.04529244
0.04462692
0.04399761
0.04352434
0.04324307
0.04312707
0.04313656
0.0432464
0.04345426
0.043778
0.04424613
0.04488538
0.04570948
0.04670962
0.04784581
0.04903804
0.05016932
0.05113705
0.05183859
0.05218527
0.05213546
0.05170407
0.05099955
0.05021964
0.04954823
0.04913036
0.04908139
0.04947115
0.05032501
0.05162737
0.05332699
0.05534558
0.05758874
0.05995847
0.0623643
0.06473559
0.06702981
0.06923322
0.07135544
0.07342231
0.07547237
0.07755098
0.07969511
0.0819355
0.0842892
0.08671786
0.08917543
0.09160613
0.09394218
0.09610294
0.09799751
0.09951965
0.1005756
0.1011339
0.1012459
0.1010076
0.1004646
0.09960612
0.09840098
0.09682557
0.09487032
0.09253531
0.08984227
0.0868544
0.08365636
0.08033548
0.07696564
0.07360239
0.0702851
0.06704139
0.06389181
0.06085348
0.05794212
0.055178
0.05260588
0.05023968
0.04807526
0.04610519
0.04431923
0.04270513
0.04124951
0.03993861
0.03875893
0.03769755
0.03674229
0.03588181
0.03510553
0.03440368
0.0337674
0.03318875
0.03266092
0.0321782
0.031736
0.03133074
0.03095977
0.03062125
0.03031407
0.03003776
0.02979246
0.02957892
0.0293986
0.02925397
0.02914833
0.02908545
0.02906927
0.02910357
0.02919166
0.02933632
0.02953975
0.02980355
0.03012843
0.03051417
0.03095961
0.03146254
0.03201959
0.03262626
0.03327707
0.03396587
0.03468601
0.03543072
0.03619339
0.03696812
0.03775057
0.03853735
0.03932252
0.04010077
0.04086715
0.04161756
0.04234709
0.04305177
0.04372438
0.0443604
0.04495157
0.04552717
0.04615506
0.04683446
0.05804516
0.06270072
0.06812941
0.07403618
0.08047849
0.08758949
0.09561158
0.104979
0.1164691
0.1303713
0.1922106
0.2093381
0.2266368
0.2434013
0.259106
0.2727654
0.2862411
0.301877
0.3277901
0.3948757
0.4059102
0.414543
0.421693
0.4271337
0.4313026
0.4342552
0.436028
0.4366068
0.4363807
0.4353874
0.4348881
0.4341626
0.4327041
0.4303996
0.4273372
0.4236574
0.4195037
0.4153254
0.408962
0.4030043
0.3974313
0.3921789
0.3872065
0.3824204
0.3777316
0.3730724
0.3684155
0.3637934
0.3590356
0.3541799
0.3493065
0.3444432
0.3396442
0.3349477
0.3303564
0.3258458
0.3340506
0.3297568
0.3253782
0.3210098
0.3166987
0.3124588
0.30831
0.3042678
0.30036
0.2965821
0.2928851
0.2892793
0.2857724
0.2823276
0.2789285
0.2755843
0.2723139
0.2691483
0.2661189
0.2632042
0.2603915
0.2577043
0.2551061
0.2525441
0.2499915
0.247451
0.2449499
0.2425247
0.2401945
0.2379905
0.2359176
0.2339241
0.2319565
0.2299777
0.227975
0.2259649
0.2239853
0.2220563
0.220185
0.218478
0.2169276
0.2154749
0.2140485
0.2125967
0.2111015
0.2095772
0.208059
0.2065813
0.2051786
0.2038615
0.202609
0.2013877
0.2001725
0.1989424
0.1977088
0.1965062
0.1953975
0.1943753
0.193371
0.1924018
0.1915395
0.1907169
0.1897989
0.1886971
0.1874154
0.1860151
0.1845741
0.1831546
0.181796
0.1805061
0.1792647
0.178038
0.1768024
0.1755569
0.174319
0.1731201
0.171992
0.1709413
0.1699664
0.1690581
0.1682278
0.1674112
0.1665639
0.1656129
0.1645984
0.1633764
0.1620113
0.1606674
0.1593951
0.1581879
0.1570277
0.155904
0.1548068
0.1537161
0.1525977
0.151413
0.1501378
0.1487763
0.147359
0.1459284
0.1445209
0.1431548
0.141829
0.1405318
0.1392509
0.1379801
0.136722
0.1354875
0.134291
0.1331443
0.1320522
0.1310118
0.1300119
0.1290345
0.128057
0.1270575
0.1260178
0.124927
0.1237808
0.1225821
0.1213388
0.1200628
0.1187673
0.1174644
0.1161633
0.1148694
0.1135855
0.1123127
0.111054
0.1098157
0.1086089
0.1074498
0.1063607
0.1053638
0.1044769
0.1037348
0.1031618
0.1027493
0.1024812
0.1023337
0.1022751
0.1022678
0.1022729
0.1022542
0.1021826
0.1020402
0.1018209
0.1015281
0.1011694
0.1007545
0.1002948
0.0998041
0.09929845
0.09879513
0.09830901
0.09785018
0.09742485
0.0970368
0.09668772
0.09637895
0.09611073
0.09588769
0.09573174
0.0956611
0.09569595
0.09586504
0.09619813
0.09672688
0.09749258
0.09852599
0.09982599
0.1013854
0.1031614
0.1049218
0.1063189
0.1073174
0.1081579
0.1090585
0.1102138
0.1120808
0.1154195
0.1209177
0.1287304
0.1380218
0.147502
0.1559791
0.1626908
0.166132
0.1665149
0.1645934
0.1611485
0.1569092
0.1524345
0.1480231
0.1437933
0.1398747
0.1363783
0.1333591
0.1307886
0.1285771
0.1266277
0.1248588
0.1231949
0.1215798
0.1199949
0.1184613
0.1169783
0.1155247
0.1140829
0.1126374
0.1111754
0.1096861
0.108159
0.1065847
0.104978
0.1033561
0.1017299
0.1001053
0.09848402
0.09686713
0.09525808
0.09367083
0.09213329
0.09065628
0.08924128
0.08789216
0.08661071
0.08539694
0.08424897
0.08316291
0.08213303
0.08115184
0.08021039
0.07929867
0.07840591
0.07752087
0.07663227
0.0757294
0.07480273
0.0738445
0.07284906
0.07181333
0.07073696
0.06962259
0.06847546
0.06730323
0.06611483
0.0649205
0.06373049
0.0625556
0.061405
0.06028967
0.05921715
0.05819666
0.05721638
0.05627596
0.05539531
0.054543
0.05369145
0.0528331
0.05197547
0.05115756
0.05043609
0.04984032
0.0493663
0.0489984
0.0487225
0.04853218
0.0484314
0.0484349
0.048566
0.04885294
0.04932495
0.05000805
0.05091946
0.05206059
0.05340627
0.05488688
0.05637166
0.05774181
0.05887815
0.05967663
0.06010204
0.06020899
0.06014359
0.06015071
0.060429
0.06110134
0.06222781
0.06380195
0.06575895
0.06799489
0.07038745
0.07281605
0.07517993
0.07741089
0.07947809
0.08138497
0.08316137
0.0848568
0.08653298
0.08825013
0.09005168
0.0919808
0.09403657
0.09619225
0.09840272
0.1006079
0.102736
0.1047024
0.1064019
0.1077239
0.1085867
0.1089746
0.1089594
0.1086085
0.1079464
0.1069557
0.105599
0.1038521
0.1017131
0.09919551
0.0963451
0.09324292
0.08998775
0.08666155
0.0833211
0.08000127
0.07672299
0.07350034
0.07034564
0.06727138
0.06429023
0.06141397
0.05868073
0.05611314
0.05371773
0.05149716
0.04945027
0.04757316
0.04585966
0.04430216
0.04289204
0.04162012
0.04047674
0.03945202
0.03853584
0.03771813
0.03698901
0.03633905
0.03575951
0.03524245
0.03478102
0.03436941
0.03400293
0.03367799
0.03339205
0.03314355
0.03293199
0.03275789
0.03262278
0.03252914
0.03248025
0.0324799
0.03253197
0.03264018
0.03280786
0.03303781
0.03333216
0.0336922
0.03411829
0.03460962
0.03516411
0.03577835
0.03644769
0.03716638
0.03792757
0.03872361
0.03954622
0.04038671
0.04123596
0.04208447
0.04292337
0.04374864
0.04455689
0.04534226
0.04609968
0.04682438
0.04751257
0.04815954
0.04876516
0.04932832
0.04986708
0.05039486
0.05090631
0.04380788
0.0496152
0.05480724
0.08422567
0.1140575
0.1510919
0.1759699
0.2008805
0.2243944
0.2462984
0.2654186
0.2819242
0.2979975
0.3144266
0.3310253
0.3478127
0.3647711
0.3815599
0.3978145
0.4136196
0.4288793
0.4433926
0.4573663
0.4708759
0.4838272
0.496162
0.5077502
0.5186295
0.5286807
0.5378835
0.5467115
0.5787455
0.5812399
0.5822046
0.5817384
0.5800267
0.5772165
0.5734167
0.5687251
0.5633049
0.5574049
0.5510827
0.5444619
0.5376567
0.5307438
0.523764
0.5167406
0.509688
0.5026263
0.4955543
0.4884578
0.4814073
0.4743986
0.4674527
0.4605135
0.453567
0.4466515
0.4397569
0.4328657
0.4259599
0.4190451
0.4121692
0.4053902
0.3987622
0.3923474
0.3861532
0.3802116
0.3744156
0.3683619
0.3625336
0.356905
0.3514318
0.3460975
0.3409122
0.3359013
0.3310954
0.3265155
0.3221588
0.3179973
0.314
0.3101205
0.3063087
0.3025336
0.2987921
0.2951079
0.2915246
0.2880892
0.2848346
0.2817719
0.2788797
0.2760975
0.2733529
0.2705936
0.267805
0.2650141
0.2622807
0.2596763
0.2572584
0.2550415
0.252969
0.250957
0.2489243
0.2468299
0.2446686
0.2424961
0.2403829
0.2384296
0.23671
0.2352178
0.2338717
0.2325664
0.2312148
0.2297763
0.2282652
0.2267378
0.2252644
0.2238977
0.2226537
0.2215147
0.2204402
0.2193821
0.2182943
0.2171512
0.2159672
0.2148117
0.213759
0.212832
0.2120348
0.2113644
0.2107389
0.2099952
0.2090041
0.2077659
0.2063686
0.2049087
0.2034798
0.202142
0.2009039
0.1997287
0.1985609
0.1973599
0.1961124
0.1948493
0.1936196
0.1924546
0.191362
0.190328
0.1893142
0.1882809
0.1871939
0.1860344
0.1848103
0.1835379
0.1822186
0.1808223
0.1794135
0.1780324
0.1766971
0.1754014
0.1741498
0.1729422
0.1717571
0.1705482
0.1692566
0.1678388
0.1662914
0.1646534
0.1629852
0.1613405
0.1597469
0.1582032
0.1566926
0.1551966
0.1537044
0.1522175
0.1507509
0.1493278
0.1479703
0.1466918
0.1454945
0.1443678
0.1432875
0.1422191
0.1411245
0.1399706
0.138734
0.1374042
0.1359818
0.1344767
0.1329058
0.1312896
0.1296487
0.1280013
0.1263611
0.1247373
0.123136
0.1215629
0.1200257
0.1185371
0.1171153
0.115784
0.11457
0.1134998
0.112601
0.1119146
0.1114377
0.1111531
0.1110309
0.1110311
0.1111075
0.111212
0.1112998
0.1113351
0.1112954
0.1111722
0.1109669
0.1106855
0.110337
0.1099328
0.1094885
0.1090241
0.1085593
0.1081089
0.1076798
0.1072722
0.1068822
0.1065037
0.1061315
0.1057644
0.1054052
0.1050594
0.1047691
0.1045705
0.1045048
0.1046181
0.1049583
0.1055804
0.1065345
0.1078491
0.1095446
0.1116248
0.1139707
0.1163455
0.118589
0.1206691
0.1225088
0.1240081
0.1252883
0.1268367
0.1293039
0.1333631
0.1393296
0.1470025
0.1554001
0.1634326
0.1699806
0.1741813
0.1757402
0.1748138
0.1719059
0.1677492
0.1629883
0.1581125
0.1534567
0.1492472
0.1456245
0.142616
0.1401494
0.1382158
0.1367569
0.1356668
0.1348086
0.1340388
0.1332035
0.1321892
0.1309521
0.1294984
0.1278504
0.1260368
0.1240917
0.122049
0.1199396
0.1177879
0.1156147
0.113438
0.1112727
0.1091292
0.1070157
0.1049407
0.1029071
0.100934
0.09904146
0.09724077
0.09553883
0.0939394
0.09244351
0.09104977
0.08975413
0.08855028
0.08742957
0.08638136
0.08539339
0.08445212
0.08354303
0.08265096
0.08176094
0.08085903
0.07993301
0.07897293
0.07797155
0.07692494
0.07583267
0.07469794
0.07352698
0.07232851
0.0711126
0.06989061
0.06867335
0.06747191
0.06629491
0.0651512
0.06404341
0.06297605
0.06194745
0.06096227
0.0600103
0.05908122
0.05816697
0.05727213
0.05642268
0.05565109
0.05497597
0.0544007
0.05392105
0.05353023
0.05322153
0.05299071
0.052838
0.05276847
0.0527913
0.05292002
0.0531743
0.05358202
0.05417997
0.05501126
0.05611717
0.05752342
0.05921579
0.06109197
0.06298738
0.06475563
0.0662456
0.0673955
0.06827146
0.06903548
0.06986618
0.07094595
0.07237605
0.07416016
0.07622875
0.07846865
0.08075173
0.08295924
0.08500103
0.0868251
0.08841924
0.08980824
0.0910493
0.09221892
0.0933971
0.09465206
0.09603526
0.09757819
0.09927518
0.1010948
0.1029858
0.1048846
0.1067185
0.1083997
0.1098161
0.1108806
0.1115352
0.1117637
0.1116183
0.1111671
0.1104363
0.10939
0.1079686
0.1061457
0.1039402
0.101379
0.09853313
0.0955109
0.09240718
0.08928003
0.08615813
0.08305257
0.07996773
0.07690891
0.07388528
0.07090909
0.06799479
0.0651579
0.06243503
0.05984598
0.05740258
0.05511257
0.05297995
0.05100549
0.04918738
0.0475219
0.04600382
0.0446268
0.04338359
0.04226623
0.04126618
0.04037452
0.03958213
0.03887999
0.03825933
0.03771195
0.03723033
0.03680786
0.03643896
0.03611916
0.03584513
0.0356147
0.0354269
0.03528196
0.03518125
0.03512713
0.0351227
0.03517148
0.03527711
0.0354431
0.03567261
0.03596826
0.03633187
0.03676427
0.03726508
0.0378326
0.03846373
0.03915398
0.03989743
0.04068689
0.04151408
0.04236981
0.04324432
0.04412744
0.04500888
0.04587847
0.04672644
0.04754539
0.04833197
0.04908077
0.04978761
0.05044927
0.05106392
0.05163215
0.05215619
0.05264543
0.053104
0.05351937
0.02147326
0.02398997
0.02642911
0.03531142
0.04713722
0.06716886
0.08135315
0.09649154
0.1128582
0.129544
0.1468847
0.1660124
0.1865287
0.2076317
0.2297158
0.2546259
0.2929003
0.3108802
0.329139
0.3476947
0.3667237
0.3854129
0.4032182
0.4202485
0.4369241
0.4532395
0.4689806
0.4844168
0.4995164
0.5142207
0.5284292
0.5419936
0.5547656
0.5665361
0.5772296
0.5867128
0.5950459
0.6020603
0.6078832
0.612461
0.6155213
0.6161713
0.6119244
0.6072773
0.6017479
0.5952001
0.5877636
0.5796212
0.570956
0.5619408
0.5527363
0.5435142
0.5343871
0.5254387
0.5167432
0.5083597
0.5003228
0.4926316
0.485261
0.47816
0.4712725
0.4645397
0.4579463
0.4515073
0.4452575
0.4392534
0.4334927
0.4277975
0.4221121
0.4164137
0.4106605
0.4048391
0.3989837
0.3931683
0.3874794
0.3820039
0.3767839
0.371834
0.3670853
0.362439
0.3578728
0.3533619
0.3488666
0.3443782
0.339928
0.335572
0.3313769
0.3274003
0.323667
0.3201568
0.3168161
0.3135743
0.3103595
0.3071178
0.3038302
0.3005202
0.2972496
0.2941029
0.2911624
0.2884724
0.2860116
0.2836871
0.2813829
0.2790045
0.2765125
0.2739384
0.2713775
0.2689506
0.2667589
0.2648415
0.2631369
0.2615166
0.2598535
0.2580665
0.2561407
0.2541474
0.252223
0.2505202
0.2491489
0.2481078
0.2472818
0.2465089
0.2456519
0.2446475
0.2435235
0.2423772
0.2413203
0.2404271
0.2397136
0.2391447
0.2386493
0.2381343
0.2375091
0.2367269
0.2358328
0.2349529
0.2342235
0.2337371
0.2335104
0.2334453
0.2333405
0.2329485
0.2321263
0.2309558
0.2295727
0.2281187
0.2267261
0.2254738
0.2243617
0.2233189
0.2222453
0.2210777
0.2198022
0.2184703
0.2171543
0.2158871
0.2146862
0.2135185
0.2123206
0.2110241
0.2095996
0.2080686
0.2064907
0.2049197
0.203374
0.2018323
0.2002995
0.198785
0.1972947
0.1958349
0.1944234
0.1930676
0.191743
0.1903926
0.1889414
0.187329
0.1855451
0.1836345
0.1816729
0.1797298
0.1778418
0.1760082
0.1742096
0.1724255
0.1706443
0.1688681
0.1671147
0.1654134
0.1637942
0.1622774
0.1608696
0.1595614
0.1583252
0.1571175
0.1558884
0.1545927
0.1531981
0.151688
0.1500608
0.1483266
0.1465043
0.1446189
0.1426975
0.1407654
0.1388437
0.1369479
0.1350886
0.1332742
0.1315143
0.1298224
0.1282183
0.1267281
0.1253812
0.1242083
0.1232409
0.1225366
0.1220936
0.1218909
0.1218899
0.1220387
0.1222769
0.1225427
0.12278
0.1229464
0.1230191
0.1229944
0.1228793
0.1226837
0.1224188
0.1221002
0.1217512
0.1214
0.1210716
0.1207782
0.1205186
0.1202824
0.1200539
0.1198162
0.1195558
0.1192651
0.118943
0.118596
0.1182484
0.1179633
0.1177814
0.1177476
0.1179102
0.1183219
0.1190331
0.1200885
0.1215354
0.1234124
0.1256917
0.1282599
0.130966
0.1336567
0.1361186
0.1381133
0.1395271
0.1405093
0.1414508
0.1429632
0.1456485
0.1498744
0.1555308
0.1621075
0.1687382
0.1743964
0.1782464
0.179855
0.1792249
0.1767076
0.172839
0.1681606
0.1631154
0.1580363
0.1531756
0.1487272
0.1448371
0.1416012
0.1390576
0.1371754
0.1358165
0.1348113
0.1340485
0.1334048
0.1327565
0.1319852
0.1310047
0.1297609
0.1282566
0.1265165
0.1245818
0.1224995
0.1203147
0.1180669
0.1157893
0.1135086
0.1112457
0.1090185
0.1068445
0.104735
0.1027053
0.1007726
0.09894854
0.09724091
0.09565402
0.09418899
0.09284383
0.09161359
0.09049004
0.08946208
0.08851626
0.08763732
0.08680819
0.08601044
0.08522528
0.08443481
0.08362282
0.08277536
0.08188143
0.08093372
0.07992923
0.07886947
0.07775987
0.07660908
0.07542774
0.07422792
0.07302144
0.07181975
0.07063266
0.06946917
0.06833412
0.06723258
0.06616623
0.06513721
0.06414445
0.06318337
0.06225193
0.06135773
0.06051823
0.059753
0.05907571
0.05849283
0.05800589
0.05761326
0.05731073
0.05709212
0.05695048
0.0568793
0.05687295
0.05692741
0.05704337
0.05723121
0.05751444
0.05793129
0.05853456
0.05938897
0.060563
0.06211236
0.06405066
0.066276
0.06859954
0.07084636
0.07284898
0.07454855
0.07602591
0.07744128
0.07894978
0.08064253
0.08252919
0.0845525
0.08661495
0.08860391
0.09041952
0.09199026
0.0932815
0.09430222
0.09510411
0.095769
0.09639077
0.09705711
0.09783449
0.09877606
0.09990245
0.1012025
0.1026386
0.1041554
0.1056873
0.1071564
0.108465
0.1095628
0.1103762
0.1108365
0.1109382
0.110733
0.1102722
0.1095575
0.1085347
0.1071395
0.1053418
0.103147
0.1006405
0.09794363
0.09516758
0.0923745
0.08958347
0.08679174
0.08399084
0.08117543
0.07834974
0.07552452
0.0727149
0.06993859
0.06721773
0.0645863
0.06206383
0.05966542
0.05740183
0.05527984
0.0533028
0.05147128
0.0497837
0.04823678
0.04682597
0.04554569
0.04438955
0.04335051
0.04242108
0.04159345
0.04085971
0.040212
0.03964274
0.03914483
0.03871181
0.03833806
0.03801895
0.03775087
0.03753144
0.03735946
0.03723496
0.03715908
0.03713392
0.03716223
0.03724722
0.03739224
0.03760052
0.03787493
0.03821769
0.03863012
0.03911239
0.03966336
0.04028045
0.04095954
0.04169498
0.04247967
0.04330517
0.04416197
0.04503975
0.04592764
0.0468146
0.04768976
0.04854253
0.04936289
0.05014302
0.05087849
0.05156521
0.0522004
0.0527833
0.05331496
0.0537982
0.05424078
0.05464079
0.05499491
0.009161311
0.01067097
0.01183364
0.0176054
0.02426451
0.03304006
0.04028563
0.04851292
0.05746276
0.0670438
0.07760127
0.09009647
0.1038667
0.1193343
0.1379536
0.1667335
0.1821372
0.1984164
0.215023
0.2319033
0.2489697
0.2660857
0.2830803
0.2998078
0.316089
0.3318939
0.347372
0.3642615
0.3813747
0.3989965
0.4170997
0.4351385
0.4526139
0.4694391
0.4853565
0.5003677
0.514783
0.5286593
0.5419795
0.5546542
0.5665383
0.5774425
0.5871702
0.5955976
0.6026502
0.6080407
0.6118773
0.6132167
0.6122896
0.6094032
0.6045562
0.5976731
0.5885722
0.5782008
0.5667523
0.5545431
0.5419216
0.5291902
0.5165907
0.5043088
0.4924796
0.4811992
0.4705414
0.4605606
0.4513014
0.4427961
0.4350551
0.4280443
0.4216791
0.4158314
0.4103666
0.4051629
0.4002462
0.3956257
0.3913191
0.3871945
0.3832805
0.3796208
0.3761502
0.372742
0.3692648
0.365642
0.3618759
0.3580416
0.3542568
0.3506424
0.3472785
0.3441839
0.3413135
0.3385689
0.3358502
0.3330807
0.3302099
0.3272264
0.3241635
0.3210945
0.3181199
0.3153328
0.3127875
0.3104782
0.3083372
0.3062672
0.304168
0.3019577
0.2996001
0.2971226
0.2946148
0.2922053
0.2900177
0.288127
0.2865151
0.285056
0.283579
0.2819513
0.2801203
0.2781261
0.2760946
0.2742076
0.2726302
0.2714066
0.2704365
0.2695417
0.2685631
0.2674104
0.2660782
0.2646757
0.2634259
0.2625815
0.2622805
0.262463
0.2629349
0.2633959
0.2636205
0.2635524
0.2633013
0.2630803
0.2630923
0.2634343
0.2640784
0.2649014
0.2657205
0.266328
0.2665656
0.2663845
0.2659595
0.2656146
0.2656364
0.2661698
0.2671171
0.2681583
0.2688461
0.2687494
0.2677927
0.266331
0.2646277
0.2629105
0.2613644
0.260075
0.2590004
0.2579996
0.2569119
0.2556478
0.2542043
0.2526715
0.2511545
0.2496854
0.2482507
0.2467832
0.2451976
0.2434217
0.2414505
0.2393663
0.2372776
0.2352655
0.2333357
0.2314758
0.2296645
0.2278898
0.2261493
0.2244469
0.2227831
0.2211386
0.2194737
0.2177381
0.2158731
0.213833
0.211618
0.2092704
0.2068536
0.2044282
0.2020284
0.1996562
0.1973086
0.1949811
0.1926739
0.1903977
0.1881735
0.1860295
0.1839914
0.1820729
0.1802756
0.178586
0.176972
0.1753848
0.1737708
0.1720839
0.1702952
0.1683936
0.1663814
0.1642702
0.1620796
0.1598359
0.1575689
0.1553088
0.1530828
0.1509121
0.1488122
0.1467953
0.1448727
0.143059
0.1413754
0.1398491
0.1385109
0.1373937
0.1365381
0.136017
0.1358296
0.1359403
0.1362919
0.1368084
0.1374042
0.1379954
0.138512
0.13891
0.1391769
0.1393227
0.1393644
0.139316
0.1391925
0.1390193
0.1388348
0.1386817
0.1385905
0.1385648
0.1385869
0.1386282
0.1386562
0.1386421
0.1385659
0.1384169
0.138194
0.1379092
0.1375869
0.1373068
0.1371085
0.1370241
0.1370872
0.1373355
0.1378099
0.1385537
0.1396154
0.1410418
0.1428508
0.1450036
0.147394
0.1498569
0.1521617
0.1540492
0.1553286
0.1559659
0.1561113
0.1561323
0.1565493
0.1578802
0.1604365
0.1642096
0.1688239
0.1736153
0.177805
0.180684
0.1817824
0.1809926
0.17856
0.1749138
0.1704724
0.165558
0.1604152
0.1552529
0.1502638
0.1456201
0.141461
0.1378774
0.1348998
0.1325065
0.1306375
0.1292005
0.1280792
0.1271383
0.1262535
0.1253241
0.1242514
0.1229928
0.1215483
0.1199343
0.1181778
0.1163051
0.1143522
0.1123528
0.1103348
0.1083216
0.1063355
0.1043975
0.1025267
0.1007396
0.0990498
0.09746862
0.09600437
0.09466196
0.09344281
0.09234466
0.09136125
0.09048222
0.08969401
0.08898082
0.08832438
0.08770399
0.08709808
0.08648583
0.08584804
0.08516762
0.0844305
0.08362676
0.08275158
0.08180556
0.08079406
0.07972612
0.07861326
0.07746846
0.07630479
0.07513484
0.07397021
0.07282133
0.07169401
0.07059395
0.06952541
0.06849251
0.06749764
0.0665417
0.06562798
0.06476501
0.06396603
0.06324555
0.0626156
0.06208434
0.06165641
0.06133341
0.06111344
0.06099022
0.06095319
0.06098894
0.06108263
0.061218
0.06137993
0.06156068
0.06176474
0.06201087
0.06233362
0.06278494
0.06343476
0.06436777
0.06567265
0.0674187
0.06961253
0.07210739
0.07471582
0.07724393
0.07954203
0.08158224
0.08344545
0.08524749
0.08706977
0.08892772
0.09077647
0.09253568
0.0941157
0.09543806
0.09644873
0.09714028
0.09755049
0.09775612
0.09785674
0.09795214
0.0981254
0.0984474
0.09896726
0.09969926
0.1006248
0.1016994
0.1028616
0.1040325
0.1051368
0.1061465
0.1070019
0.1076322
0.1079902
0.1080733
0.1079142
0.1075358
0.1069092
0.1059575
0.1045985
0.1028124
0.1006742
0.09832445
0.09589906
0.09347402
0.09106087
0.08863922
0.08618658
0.08368693
0.08113751
0.07854656
0.07592748
0.07329957
0.07068369
0.06811092
0.06560926
0.06319972
0.06089869
0.05871791
0.05666499
0.05474407
0.05295655
0.05130174
0.04977734
0.04837984
0.04710482
0.04594715
0.04490112
0.04396066
0.0431194
0.04237078
0.04170822
0.04112525
0.04061564
0.04017362
0.03979401
0.0394724
0.03920533
0.03899039
0.03882631
0.03871295
0.03865123
0.03864296
0.03869063
0.03879715
0.03896559
0.03919883
0.03949937
0.0398689
0.04030815
0.04081657
0.04139223
0.04203163
0.04272969
0.04347978
0.04427383
0.04510249
0.04595542
0.04682158
0.0476896
0.04854806
0.0493859
0.05019268
0.05095901
0.05167762
0.05234414
0.05295579
0.05351192
0.054014
0.05446449
0.05487186
0.05523055
0.05554609
0.002244288
0.008690668
0.01296577
0.01793794
0.02349876
0.02987959
0.03718682
0.0452396
0.05429119
0.06523399
0.08179588
0.09179245
0.1026694
0.1141588
0.1263103
0.1390628
0.1523547
0.1660686
0.1800237
0.1940835
0.2082252
0.2242622
0.2406009
0.2570318
0.2734253
0.2896985
0.3057496
0.3215451
0.3370803
0.3522596
0.3672302
0.3822652
0.3978022
0.4135872
0.4295926
0.4456956
0.4614842
0.4765419
0.4906027
0.5037766
0.5163349
0.5284144
0.5400144
0.5510824
0.5615105
0.5711136
0.579587
0.5866778
0.5922304
0.596081
0.5967913
0.5950438
0.5907101
0.5838637
0.5746778
0.5633537
0.5502196
0.5356475
0.5201538
0.5041906
0.488168
0.4724501
0.4573442
0.4430831
0.4298138
0.4176056
0.406471
0.3963985
0.3873742
0.3794059
0.3725109
0.3666911
0.3618956
0.3579748
0.3547062
0.3518459
0.3491851
0.3463888
0.3435556
0.3409164
0.3386236
0.3367835
0.3353974
0.3343028
0.3332516
0.332023
0.3304998
0.328683
0.3266744
0.3246387
0.3227462
0.3211123
0.3197617
0.3186305
0.3175894
0.3164966
0.3152493
0.3137994
0.3121495
0.3103478
0.3084841
0.3066849
0.3050821
0.3037461
0.3026577
0.3017241
0.3008074
0.2997802
0.2985571
0.2971193
0.2955238
0.293892
0.2923871
0.2911718
0.2903264
0.2897717
0.2893038
0.2887038
0.2878414
0.2867071
0.2854005
0.2841113
0.2830881
0.2825313
0.2824425
0.2826068
0.2827453
0.2826785