/*--------------------------------*- C++ -*----------------------------------*\
| =========                 |                                                 |
| \\      /  F ield         | foam-extend: Open Source CFD                    |
|  \\    /   O peration     | Version:     3.1                                |
|   \\  /    A nd           | Web:         http://www.extend-project.de       |
|    \\/     M anipulation  |                                                 |
\*---------------------------------------------------------------------------*/
FoamFile
{
    version     2.0;
    format      ascii;
    class       volScalarField;
    location    "15.5";
    object      omega;
}
// * * * * * * * * * * * * * * * * * * * * * * * * * * * * * * * * * * * * * //

dimensions      [0 0 -1 0 0 0 0];

internalField   nonuniform List<scalar> 
119952
(
404.5126
516.6828
491.6164
428.9425
385.3435
388.7667
395.2817
403.3921
412.5736
422.574
433.2766
444.6195
456.5788
469.152
482.3531
496.2121
510.7887
526.1816
542.6667
561.5154
470.6233
469.2999
474.5161
398.7312
390.9811
386.8398
383.4034
380.1721
373.2666
209.114
823.5927
692.2163
586.222
509.1565
451.3012
406.5471
370.6816
341.2752
316.5706
289.1708
244.1485
212.2576
189.969
173.4066
160.3665
149.5911
140.3897
132.3652
125.2869
97.41857
93.55142
89.77761
86.11536
82.65973
79.45429
76.50534
73.80019
71.30942
69.02107
67.00403
65.09614
63.26389
61.51762
59.85181
58.25645
56.71287
55.18543
53.67568
53.25847
53.03631
52.43167
51.96207
51.66833
51.49333
51.35388
51.27524
51.21583
51.16216
51.10318
51.03876
50.97488
50.91726
50.86675
50.81821
50.75996
50.67355
50.5172
50.21545
49.87211
49.57508
49.13948
48.67984
48.53675
48.57758
48.86677
49.79763
52.25013
55.97255
56.83967
57.44424
57.72621
57.91658
58.1138
58.34567
58.6322
58.97461
59.35521
59.74816
60.12862
60.48035
60.79875
61.08838
61.35717
61.6117
61.8561
62.09502
62.33876
62.60763
62.93297
63.35416
63.91208
64.63996
65.554
66.64604
67.88019
69.19521
70.51352
71.75471
72.84916
73.74613
74.41453
74.83816
75.01013
74.92934
74.59949
74.02909
73.23152
72.22585
71.03745
69.69804
68.24299
66.71855
65.17294
63.64523
62.16622
60.71648
59.34505
58.17284
57.18058
56.36731
55.71242
55.22619
54.93142
54.85648
55.04259
55.49092
56.11121
56.81936
57.55769
58.29917
59.03513
59.75146
60.43639
61.08908
61.69726
62.24465
62.71498
63.09168
63.36424
63.52706
63.57899
63.5237
63.37103
63.13739
62.84592
62.52564
62.20815
61.94266
61.79282
61.82948
62.15765
62.96411
64.52815
67.48525
73.25731
85.25445
100.8239
112.8702
121.202
126.0762
127.1954
123.9687
116.8836
107.6029
98.54282
90.89299
84.50287
86.0473
88.90046
87.16281
83.70969
79.70233
75.78916
72.49435
69.8687
67.8371
66.3083
65.10715
64.14656
63.41301
62.9124
62.60957
62.45094
62.40163
62.44163
62.5551
62.72151
62.92158
63.14595
63.39435
63.67024
63.98256
64.3426
64.77463
65.2806
65.84742
66.47182
67.15919
67.9235
68.78051
69.71116
70.59955
71.18782
71.2848
71.28302
71.12607
70.89412
70.61788
70.31542
69.99967
69.67931
69.35989
69.04608
68.74165
68.44914
68.17118
67.91028
67.6689
67.44934
67.2535
67.0827
66.93744
66.81694
66.71893
66.63955
66.57352
66.51493
66.45626
66.39595
66.32021
66.21151
66.06487
65.87985
65.65951
65.41166
65.15017
64.9097
52.99824
52.90593
53.03554
53.84022
55.82794
58.07549
58.97548
58.97951
58.58708
57.94286
57.24657
56.59836
55.98789
55.3402
54.56492
53.59071
52.37909
50.91648
49.21418
47.32751
45.33744
43.33483
41.40241
39.60288
37.98631
36.60111
35.46489
34.56767
33.88111
33.36316
32.9932
32.77914
32.71828
32.71954
32.71182
32.65246
32.50162
32.25197
31.92336
31.54708
31.15797
30.78579
30.44933
30.15451
29.91206
29.72337
29.52222
29.33467
29.17468
29.04092
28.92904
28.83409
28.75034
28.67321
28.58369
28.32606
27.95498
27.52805
27.09344
26.68229
26.31195
25.98914
25.71567
25.49381
25.32867
25.22776
25.19953
25.25197
25.38971
25.61215
25.91596
26.29949
26.77136
27.34632
28.04038
28.822
29.60543
30.34814
31.01625
31.58239
32.02694
32.33933
32.51783
32.56847
32.50309
32.33702
32.08685
31.76872
31.39722
30.98396
30.53921
30.07254
29.59267
29.10789
28.62727
28.1604
27.70621
27.26244
26.82878
26.40608
25.99628
25.60175
25.22436
24.8654
24.52439
24.20084
23.89539
23.6065
23.3321
23.07119
22.82415
22.59161
22.37367
22.16967
21.97859
21.79917
21.62974
21.46849
21.31354
21.16304
21.01519
20.86846
20.72177
20.57443
20.42605
20.27644
20.12532
19.9725
19.8177
19.66077
19.50198
19.34163
19.17935
19.01338
18.83847
18.64091
18.38645
18.03106
18.1115
774.105
635.554
562.6392
513.0164
472.8942
438.2619
407.764
380.7632
355.7192
297.9219
237.5385
201.15
177.851
161.8857
150.2304
141.2143
133.8911
127.6882
100.846
96.39573
92.1062
88.067
84.35718
81.00829
78.00421
75.31296
72.89556
70.70039
68.773
66.98702
65.23912
63.53571
61.88697
60.30099
58.78481
57.34093
55.96733
54.96239
54.25342
53.43658
52.55129
51.63344
50.70093
49.76476
48.83452
47.91801
47.02643
46.16659
45.33623
44.54179
43.78003
43.0425
42.32242
41.61525
40.9202
40.25082
35.9847
35.4691
34.98734
34.5365
34.11084
33.70327
33.30821
32.92212
32.54417
32.17345
31.81194
31.46432
31.13063
30.8082
30.49373
30.18501
29.88133
29.59012
29.32766
29.09199
28.85305
28.62813
28.43865
28.28043
28.13498
27.99455
27.86269
27.73461
27.60868
27.4851
27.36545
27.2512
27.14234
27.03692
26.93117
26.82219
26.70675
26.58241
26.44975
26.32207
26.20043
26.08842
26.00512
25.95762
25.95905
26.00644
26.11512
26.26826
26.38498
26.44328
26.52207
26.60267
26.68812
26.789
26.90866
27.04803
27.2039
27.36896
27.53443
27.69278
27.83991
27.9758
28.10323
28.22543
28.34433
28.46033
28.5734
28.68484
28.79889
28.92338
29.06939
29.24969
29.47671
29.76046
30.10667
30.51532
30.97974
31.48672
32.01761
32.55022
33.06127
33.52866
33.93325
34.25976
34.49678
34.63615
34.67208
34.60078
34.4207
34.13339
33.74433
33.26367
32.70619
32.08986
31.43483
30.76626
30.11647
29.48265
28.87806
28.31227
27.79289
27.3251
26.91185
26.55341
26.24809
25.99263
25.78305
25.61557
25.48736
25.39665
25.34234
25.32344
25.33885
25.38688
25.46536
25.57229
25.70663
25.86804
26.05019
26.24634
26.44975
26.65305
26.84544
27.01579
27.15808
27.26714
27.3395
27.37585
27.38256
27.37058
27.35975
27.38827
27.51304
27.8159
28.4393
29.63066
31.59337
34.27885
37.78718
42.20923
47.53851
53.22504
58.54479
62.78799
65.37446
66.02768
64.89634
62.45958
61.11571
58.15436
55.3525
52.81247
50.51937
48.42152
46.45344
44.56909
42.74868
40.97861
39.26757
37.63849
36.1097
34.68705
33.37127
32.15909
31.0496
30.04487
29.14133
28.32909
27.59596
26.92923
26.31671
25.74895
25.2194
24.72322
24.25678
23.8174
23.40324
23.01316
22.64615
22.30096
21.97577
21.6674
21.37016
21.07744
20.79613
20.53493
20.29005
20.06049
19.84568
19.64485
19.45784
19.28397
19.12289
18.97431
18.83805
18.71404
18.60231
18.50302
18.41639
18.34276
18.28248
18.23591
18.20338
18.1851
18.18114
18.19134
18.21529
18.25228
18.30129
18.36082
18.42896
18.50412
18.58463
18.66874
18.75421
18.83672
18.92357
19.03017
17.38808
17.51621
17.72103
18.00265
18.31794
18.59566
18.82584
19.05399
19.33125
19.69444
20.16437
20.74801
21.43993
22.22302
23.06902
23.93942
24.78659
25.55581
26.18896
26.629
26.82595
26.74687
26.38761
25.77826
24.98439
24.09442
23.19979
22.37628
21.67197
21.10441
20.66563
20.32929
20.05816
19.81139
19.55209
19.25304
18.90038
18.49412
18.04584
17.57458
17.10171
16.64628
16.22282
15.84241
15.51488
15.24801
15.0418
14.88243
14.76563
14.68544
14.63496
14.60704
14.59439
14.58977
14.58423
14.56697
14.53044
14.47188
14.39423
14.30324
14.20222
14.09185
13.97236
13.8458
13.71712
13.59188
13.47378
13.36687
13.27494
13.20138
13.14952
13.12261
13.12402
13.15721
13.22579
13.33353
13.48092
13.65026
13.8301
14.01355
14.19347
14.36316
14.51684
14.64995
14.75925
14.84272
14.89941
14.92922
14.9327
14.91082
14.86492
14.79656
14.70753
14.59986
14.47579
14.33775
14.18836
14.03037
13.86666
13.70013
13.53364
13.3698
13.21094
13.05899
12.9154
12.78119
12.65691
12.54284
12.43903
12.34525
12.26091
12.18515
12.11685
12.05478
11.99732
11.94282
11.88972
11.83658
11.78211
11.72518
11.66487
11.60041
11.53123
11.45684
11.37678
11.29029
11.19676
11.09691
10.99153
10.8815
10.76779
10.65111
10.53207
10.41049
10.28606
10.15768
10.02777
9.90607
9.810526
630.8936
558.034
498.4937
454.651
421.315
395.6135
375.694
360.8505
350.8445
337.3279
187.7681
175.2704
164.253
154.748
147.0703
142.9724
140.1127
137.4807
130.7597
86.2204
84.34251
83.66784
82.94108
82.20468
81.43829
80.62825
79.76534
78.81367
77.49803
74.91343
72.43921
70.56335
69.13281
67.94944
66.89256
65.90024
64.94233
64.00005
63.99743
63.26214
62.20639
61.03145
59.84602
58.69917
57.60894
56.57742
55.6021
54.68566
53.80437
52.93866
52.08296
51.23299
50.392
49.56598
48.76027
47.987
44.14834
43.49798
42.87726
42.27902
41.69785
41.12984
40.57315
40.02766
39.49492
38.97549
38.46776
37.97302
37.49152
37.02005
36.55571
36.09701
35.64367
35.1969
34.75883
34.33062
33.91453
33.51333
33.12572
32.7478
32.37579
32.00724
31.64165
31.28033
30.92513
30.57963
30.24672
29.9255
29.613
29.30545
28.99922
28.69234
28.38429
28.0696
27.80875
27.55298
27.30757
27.07282
26.84593
26.62309
26.40106
26.17827
25.9553
25.73439
25.51895
25.31162
25.11314
24.92264
24.73858
24.55868
24.3818
24.20832
24.04183
23.88503
23.73632
23.5966
23.47294
23.36595
23.26801
23.16992
23.06733
22.9625
22.85589
22.74975
22.64682
22.54907
22.4567
22.36764
22.27876
22.18805
22.09501
22.00102
21.90828
21.81997
21.73976
21.66737
21.60607
21.56112
21.53503
21.52219
21.52516
21.53997
21.55054
21.55008
21.54998
21.55785
21.5742
21.60107
21.64104
21.69505
21.76112
21.834
21.90685
21.97399
22.03289
22.08443
22.13174
22.17793
22.22456
22.27139
22.31736
22.36183
22.40592
22.45328
22.51012
22.58432
22.68416
22.81718
22.98899
23.20212
23.45518
23.74247
24.05431
24.37803
24.69924
25.00343
25.27722
25.50919
25.69016
25.81294
25.87182
25.8623
25.78112
25.62673
25.39986
25.10421
24.74684
24.338
23.89059
23.41997
22.94819
22.49492
22.06263
21.6589
21.2888
20.95503
20.6581
20.39668
20.16814
19.969
19.79552
19.64441
19.51326
19.40052
19.30519
19.22653
19.1639
19.11689
19.0854
19.06971
19.07026
19.0872
19.12021
19.16868
19.23157
19.30779
19.39892
19.50648
19.62399
19.74715
19.87335
20.00186
20.13512
20.27628
20.43141
20.61549
20.85039
21.16636
21.62059
22.29553
23.25989
24.58202
26.38601
28.80995
31.93007
35.65168
39.72892
43.78088
47.37948
50.17772
51.89279
52.42798
51.9797
50.46502
48.3823
46.16619
44.09384
42.30761
40.85885
39.73869
38.89312
38.24119
37.69959
37.1958
36.66876
36.06722
35.35363
34.51571
33.56311
32.52027
31.42266
30.3079
29.20719
28.14121
27.12184
26.15451
25.24067
24.3792
23.5676
22.8025
22.08064
21.39939
20.75631
20.1493
19.57558
19.03269
18.51884
18.03391
17.57904
17.15351
16.75569
16.38429
16.03797
15.71551
15.41567
15.13722
14.87899
14.63985
14.41876
14.21468
14.02668
13.85387
13.69543
13.55059
13.41866
13.29904
13.19117
13.09457
13.00882
12.93349
12.86821
12.81259
12.76617
12.72843
12.69877
12.67657
12.66104
12.65152
12.64707
12.64871
12.65572
12.66578
12.72655
12.79811
12.88215
12.97716
13.07237
13.15765
13.2383
13.33
13.45029
13.61621
13.84266
14.14179
14.5225
14.99027
15.54657
16.18774
16.9035
17.67656
18.48125
19.28427
20.04843
20.73334
21.29778
21.69796
21.89324
21.85847
21.60286
21.17768
20.65402
20.09846
19.55874
19.05785
18.59675
18.16193
17.73363
17.29349
16.82972
16.33973
15.83001
15.31389
14.80818
14.32904
13.8896
13.49957
13.16671
12.89715
12.6946
12.54971
12.4516
12.3913
12.36053
12.35157
12.35738
12.37123
12.38559
12.39244
12.38107
12.34442
12.28479
12.20872
12.12181
12.02605
11.92016
11.80294
11.6755
11.541
11.40522
11.2728
11.1471
11.03137
10.92823
10.83963
10.7672
10.71255
10.67739
10.6636
10.67308
10.70804
10.76132
10.82646
10.8994
10.97623
11.05322
11.12714
11.19536
11.25587
11.30721
11.34839
11.37871
11.39772
11.40506
11.40044
11.38374
11.35496
11.31437
11.26251
11.20029
11.12897
11.05009
10.96548
10.87707
10.78688
10.69684
10.60877
10.52425
10.44455
10.37071
10.30349
10.24329
10.19016
10.14379
10.10349
10.06827
10.03689
10.00793
9.979848
9.951042
9.919956
9.885156
9.845404
9.799699
9.747306
9.687786
9.621047
9.547361
9.467638
9.382858
9.292556
9.196565
9.095704
8.990901
8.883018
8.772852
8.660914
8.547931
8.434366
8.322267
8.214277
8.120341
364.3254
265.0638
377.8111
171.3745
134.4975
99.00556
85.82617
74.72977
65.56069
61.15582
59.35136
58.38541
57.51739
56.78627
56.0761
55.45017
54.88922
54.44835
54.15815
53.91785
53.72065
53.63861
53.83215
54.2052
54.62108
55.07456
55.56835
56.10556
56.68093
57.24292
57.6303
56.46517
56.9624
57.37867
57.67297
57.84236
57.88527
57.80048
57.58898
57.26208
56.83946
56.3163
55.70732
55.03509
54.31862
53.57061
52.79957
52.01154
51.21215
50.40543
49.59919
48.80011
48.00568
47.21691
46.43762
45.67125
44.92084
44.18688
43.46857
42.76496
42.07568
41.40215
40.74617
40.10954
39.49455
38.9015
38.33119
37.77201
37.27073
36.77712
36.29283
35.81632
35.34655
34.88397
34.43
33.98682
33.55656
33.14052
32.73862
32.34995
31.9721
31.60182
31.23608
30.87299
30.51233
30.15569
29.80587
29.46611
29.13901
28.82526
28.52277
28.22736
27.93438
27.6405
27.34488
27.04976
26.75976
26.48002
26.21427
25.96227
25.72039
25.48287
25.24453
25.00155
24.75411
24.50487
24.2624
24.03374
23.82313
23.62984
23.44943
23.27595
23.10434
22.93222
22.76058
22.59293
22.43335
22.28463
22.14765
22.02142
21.90358
21.79086
21.68012
21.57018
21.46404
21.36674
21.2812
21.20891
21.15105
21.10444
21.05988
21.0081
20.94667
20.88102
20.81444
20.75039
20.69187
20.63999
20.59338
20.54902
20.50374
20.4557
20.40611
20.35762
20.31243
20.27208
20.237
20.2058
20.17637
20.14775
20.11987
20.09397
20.07109
20.05284
20.03387
20.01341
19.99476
19.98081
19.97204
19.96962
19.97522
19.989
20.0085
20.02861
20.04339
20.04875
20.04414
20.0321
20.01674
20.00135
19.98728
19.97404
19.96027
19.94491
19.92819
19.91237
19.90185
19.90235
19.91998
19.9604
20.02807
20.12533
20.25174
20.40393
20.57587
20.7595
20.94555
21.12443
21.28707
21.42551
21.53322
21.60492
21.63628
21.62358
21.56368
21.45423
21.29428
21.08481
20.82929
20.53385
20.20708
19.85974
19.50523
19.16166
18.8362
18.53447
18.26022
18.01502
17.79846
17.60857
17.44223
17.29581
17.16566
17.04876
16.94294
16.84681
16.75947
16.68027
16.60879
16.54498
16.48927
16.44246
16.40536
16.3785
16.36205
16.35591
16.3597
16.373
16.39565
16.4282
16.47421
16.5335
16.60583
16.69262
16.79658
16.92071
17.06982
17.25177
17.47603
17.75687
18.12015
18.59839
19.2237
20.04233
21.13104
22.58123
24.46789
26.81874
29.59204
32.63605
35.71306
38.55305
40.91696
42.6018
43.49503
43.58401
42.95463
41.80092
40.35684
38.82594
37.36331
36.0742
35.01309
34.19148
33.59189
33.18225
32.92262
32.7646
32.65376
32.53724
32.36966
32.11652
31.75152
31.25458
30.61797
29.84888
28.97186
28.02393
27.03905
26.04559
25.06519
24.11254
23.19657
22.32219
21.49196
20.70627
19.96423
19.26444
18.60618
17.98911
17.41243
16.87466
16.37382
15.90784
15.47472
15.07276
14.70003
14.35487
14.03566
13.74084
13.46886
13.21822
12.98748
12.77522
12.58008
12.40073
12.23594
12.08457
11.94561
11.81814
11.70134
11.59455
11.49721
11.40886
11.32911
11.25758
11.19394
11.13777
11.08866
11.04611
11.01002
10.98056
10.95757
10.93955
10.92822
10.92289
10.92244
10.9243
10.92538
10.92495
10.9264
10.93578
10.96043
11.00857
11.08884
11.20989
11.38014
11.60774
11.90028
12.26409
12.7033
13.2185
13.8068
14.46128
15.17118
15.9215
16.69152
17.45566
18.17922
18.81462
19.30218
19.58139
19.62258
19.45016
19.12238
18.69922
18.22406
17.72235
17.20503
16.67446
16.13069
15.5761
15.01759
14.46633
13.93569
13.43914
12.9877
12.58984
12.2515
11.97651
11.76611
11.61575
11.51377
11.45027
11.41614
11.40325
11.40463
11.41442
11.42701
11.43524
11.42867
11.39755
11.33882
11.25824
11.16538
11.0664
10.96119
10.84616
10.71935
10.58308
10.44189
10.29914
10.15902
10.02562
9.901775
9.788714
9.686901
9.596721
9.518768
9.453926
9.403326
9.368308
9.350066
9.344402
9.348625
9.360587
9.378148
9.399316
9.422348
9.445809
9.468568
9.489741
9.508617
9.524545
9.53691
9.545065
9.548348
9.546126
9.537861
9.523187
9.501981
9.474407
9.440937
9.402335
9.359647
9.314088
9.266998
9.219751
9.173684
9.130031
9.089864
9.054032
9.023104
8.997328
8.97661
8.960511
8.948274
8.938864
8.931015
8.923295
8.914181
8.902145
8.885737
8.86365
8.834782
8.798292
8.753629
8.700558
8.639178
8.569889
8.493359
8.410673
8.322627
8.229187
8.13121
8.029617
7.925292
7.819094
7.711892
7.604589
7.498407
7.395181
7.302888
324.9522
218.894
165.4563
147.5176
120.1254
100.7503
86.74551
81.28901
75.18628
71.6326
68.56567
64.43521
60.3279
56.44459
52.90671
49.03555
43.0508
41.67726
40.68349
40.15715
40.05015
40.22161
40.51656
40.87847
41.30044
41.79152
42.37497
43.01543
43.6959
44.41127
45.1577
45.93092
46.72877
47.55328
48.40175
49.26595
50.15909
51.09878
52.04932
53.02631
54.16567
55.09578
55.58412
55.96832
56.22819
56.33048
56.26949
56.04944
55.68011
55.17583
54.55434
53.83933
53.04915
52.20037
51.3101
50.39434
49.46616
48.534
47.60333
46.67615
45.75385
44.83715
43.93022
43.04016
42.17511
41.34543
40.55559
39.80494
39.08995
38.40472
37.74306
37.10064
36.47609
35.87075
35.28753
34.73006
34.20032
33.69874
33.22121
32.76421
32.32385
31.89647
31.47768
31.06473
30.65751
30.25792
29.8693
29.49554
29.13946
28.80137
28.4792
28.16914
27.86634
27.56596
27.26447
26.96078
26.65682
26.35725
26.06811
25.7945
25.53828
25.29641
25.06236
24.8285
24.58889
24.34157
24.0896
23.83992
23.60077
23.37909
23.17634
22.98745
22.80413
22.61812
22.42366
22.22043
22.0142
21.81513
21.63442
21.47909
21.34846
21.23578
21.13235
21.03187
20.93313
20.8401
20.7592
20.69556
20.65091
20.62328
20.60787
20.59829
20.58863
20.5765
20.56619
20.56748
20.59079
20.64359
20.72542
20.8226
20.91285
20.97556
21.00198
21.00822
21.01274
21.02363
21.04653
21.08228
21.12627
21.1704
21.20649
21.23102
21.24477
21.25231
21.2581
21.25881
21.25834
21.25382
21.2415
21.21906
21.18693
21.1479
21.105
21.06218
21.01995
20.97835
20.93746
20.89765
20.85931
20.82263
20.78831
20.75643
20.7252
20.69082
20.64828
20.59315
20.52386
20.4424
20.35319
20.26094
20.16869
20.07721
19.98591
19.89393
19.80091
19.70755
19.61608
19.53026
19.4546
19.39352
19.35085
19.3293
19.32993
19.35173
19.39182
19.44583
19.50848
19.57398
19.63648
19.69035
19.73063
19.7532
19.75469
19.73226
19.68329
19.60524
19.49585
19.35354
19.17804
18.97089
18.73584
18.47885
18.20775
17.93207
17.66491
17.41701
17.19275
16.99447
16.8224
16.67492
16.54895
16.44054
16.34546
16.25988
16.181
16.10722
16.03773
15.972
15.90967
15.85071
15.79572
15.74583
15.70218
15.66541
15.63542
15.61164
15.59321
15.57918
15.56881
15.56171
15.55806
15.55912
15.56891
15.59057
15.62644
15.67954
15.75331
15.85199
15.9806
16.14505
16.35429
16.62243
16.96681
17.40654
17.96733
18.68845
19.61955
20.81151
22.30621
24.1221
26.22495
28.51594
30.83892
33.01356
34.86329
36.25066
37.08278
37.34088
37.0687
36.36777
35.36995
34.21503
33.03008
31.91352
30.92792
30.1037
29.44865
28.95597
28.60891
28.38473
28.2543
28.18542
28.14409
28.09353
27.99834
27.8304
27.57446
27.2185
26.74997
26.16291
25.47997
24.72524
23.9242
23.10046
22.27368
21.45892
20.66662
19.90353
19.17363
18.4793
17.8223
17.20363
16.6229
16.07898
15.5706
15.09641
14.65497
14.24494
13.86496
13.51347
13.18894
12.88981
12.61446
12.36128
12.12863
11.91483
11.71821
11.53719
11.37029
11.21615
11.07352
10.94132
10.81867
10.70487
10.59941
10.50192
10.41214
10.32984
10.25476
10.18663
10.12508
10.06995
10.02131
9.978432
9.940118
9.905523
9.873791
9.84357
9.813313
9.782061
9.750111
9.719232
9.692324
9.673126
9.666141
9.676535
9.709932
9.772271
9.869838
10.00933
10.19766
10.4415
10.74689
11.119
11.56207
12.07923
12.67203
13.33924
14.07462
14.86354
15.68217
16.49502
17.2449
17.85445
18.24559
18.38174
18.28142
17.99716
17.58656
17.09546
16.55485
15.98483
15.40027
14.81478
14.24188
13.69454
13.18424
12.72036
12.31012
11.95838
11.66779
11.43827
11.26674
11.14354
11.05855
11.00252
10.96716
10.94549
10.93204
10.92219
10.9099
10.88823
10.84876
10.78475
10.69789
10.59687
10.49016
10.38118
10.26776
10.14638
10.01587
9.876523
9.731655
9.58722
9.448589
9.318672
9.198114
9.086518
8.983401
8.888639
8.80228
8.724796
8.656987
8.599867
8.553694
8.516139
8.486238
8.462965
8.445275
8.432191
8.422858
8.41657
8.412752
8.410909
8.410577
8.411262
8.412406
8.413378
8.413493
8.412056
8.40842
8.402051
8.392586
8.37988
8.36403
8.345379
8.324495
8.302135
8.279188
8.256624
8.235425
8.216517
8.20071
8.188625
8.180642
8.176862
8.177082
8.180795
8.187204
8.195257
8.203693
8.211109
8.216032
8.216996
8.212618
8.201664
8.183114
8.156204
8.120458
8.075698
8.022045
7.959906
7.889947
7.813101
7.730176
7.641544
7.548167
7.450997
7.351016
7.249175
7.146459
7.044023
6.943148
6.852414
166.4981
122.779
188.3832
92.54181
79.33297
68.0086
64.69305
62.37307
59.81431
58.84112
57.53508
55.62422
53.83884
51.91741
49.62833
44.99901
43.96069
42.98595
42.04098
41.13022
40.20835
39.32468
38.54029
37.8893
37.39649
37.06333
36.81125
36.56697
36.51505
36.6825
37.05303
37.56713
38.15675
38.79255
39.4806
40.22063
40.99464
41.79428
42.61731
43.46122
44.32229
45.19427
46.07619
46.97966
47.92318
48.87645
49.84439
50.89233
51.87282
52.72439
53.44801
53.97891
54.25392
54.33366
54.19308
53.84102
53.30238
52.60378
51.77081
50.8285
49.80086
48.7112
47.58251
46.43635
45.29276
44.16966
43.08096
42.03334
41.02753
40.05777
39.11753
38.20176
37.32195
36.48578
35.69941
34.96948
34.29878
33.68278
33.11344
32.57983
32.07005
31.57484
31.08954
30.61451
30.15409
29.71449
29.30104
28.91615
28.55847
28.22276
27.90202
27.58935
27.27891
26.96694
26.65263
26.33833
26.02921
25.73181
25.452
25.19224
24.95066
24.72247
24.50094
24.27866
24.0497
23.81162
23.56674
23.32166
23.08523
22.86598
22.66875
22.49079
22.32282
22.15376
21.97461
21.78113
21.57569
21.36779
21.17098
20.99598
20.8455
20.71397
20.59185
20.46969
20.34161
20.2094
20.08551
19.98955
19.9381
19.93559
19.97882
20.05007
20.12974
20.21266
20.30996
20.44129
20.62252
20.85641
21.13212
21.4292
21.72245
21.98765
22.21104
22.39716
22.57816
22.79725
23.0879
23.46515
23.90338
24.33826
24.69774
24.93414
25.04934
25.11485
25.17366
25.25093
25.35908
25.49394
25.6371
25.76512
25.86095
25.92085
25.95272
25.97037
25.98164
25.97198
25.94798
25.90023
25.82225
25.71699
25.59466
25.46777
25.34058
25.21798
25.09269
24.96873
24.84637
24.7263
24.60939
24.49495
24.37934
24.25574
24.11663
23.95694
23.77562
23.57574
23.36328
23.14422
22.92259
22.70021
22.47708
22.25225
22.02716
21.80371
21.58375
21.36988
21.16517
20.97274
20.7952
20.63407
20.48993
20.36243
20.25006
20.15029
20.06016
19.97686
19.89813
19.82218
19.74712
19.67079
19.59097
19.50559
19.41285
19.31107
19.19849
19.07314
18.93298
18.77625
18.60203
18.41076
18.20476
17.98827
17.76709
17.54843
17.34219
17.16079
17.00746
16.8828
16.78517
16.71095
16.65508
16.61192
16.57612
16.5436
16.51213
16.48093
16.4497
16.41799
16.38552
16.3528
16.32148
16.29373
16.27106
16.25336
16.23916
16.22641
16.21298
16.19712
16.17789
16.15511
16.1294
16.10246
16.07779
16.0626
16.06004
16.07274
16.10336
16.15474
16.2299
16.33237
16.46736
16.64295
16.86979
17.16018
17.52872
17.9952
18.58559
19.3312
20.26627
21.42002
22.79972
24.37607
26.07584
27.78936
29.39004
30.75539
31.78796
32.42851
32.65744
32.49466
31.99409
31.23847
30.32865
29.36321
28.41897
27.5447
26.76684
26.09831
25.54411
25.10283
24.76664
24.52153
24.34743
24.22095
24.11778
24.01297
23.88689
23.71514
23.48763
23.20184
22.84644
22.4151
21.91655
21.36394
20.77277
20.15812
19.53288
18.90754
18.29016
17.68678
17.10195
16.53905
16.00056
15.48814
15.0028
14.54509
14.11517
13.71292
13.33787
12.98951
12.66688
12.36883
12.09406
11.84115
11.60857
11.39466
11.19766
11.0159
10.84776
10.69172
10.54637
10.41047
10.28303
10.16331
10.05081
9.945208
9.846339
9.754105
9.668418
9.589163
9.516178
9.449404
9.388877
9.33384
9.283346
9.23646
9.192179
9.149339
9.106878
9.06418
9.021326
8.979168
8.939234
8.903654
8.875149
8.857018
8.853011
8.867159
8.903744
8.967463
9.063521
9.197443
9.374956
9.602279
9.886418
10.23515
10.65667
11.15867
11.74677
12.42202
13.17797
13.99667
14.84815
15.68716
16.44298
17.0288
17.37363
17.45894
17.31454
16.99379
16.55126
16.032
15.47043
14.89295
14.32043
13.76948
13.25257
12.77876
12.35467
11.98481
11.67165
11.41469
11.21126
11.05436
10.93467
10.84345
10.7727
10.71553
10.6666
10.62161
10.57605
10.52554
10.46451
10.38778
10.29429
10.18843
10.07753
9.966714
9.855747
9.740352
9.615543
9.479055
9.33445
9.188988
9.049618
8.919918
8.800176
8.688963
8.584671
8.4861
8.392719
8.304665
8.222504
8.146874
8.078636
8.017156
7.961853
7.912447
7.868562
7.829789
7.795741
7.766076
7.740507
7.718778
7.700635
7.685782
7.673852
7.664391
7.656861
7.650664
7.645179
7.63981
7.634036
7.627459
7.619838
7.611116
7.601425
7.591082
7.580562
7.570467
7.561484
7.554329
7.549689
7.548159
7.550185
7.556012
7.565643
7.578815
7.594994
7.613381
7.632943
7.652454
7.670558
7.685835
7.696871
7.702331
7.701027
7.691967
7.674406
7.647863
7.612137
7.567299
7.513683
7.451864
7.382692
7.306633
7.224409
7.13698
7.04536
6.950574
6.853618
6.755787
6.658088
6.569699
68.51442
50.89283
48.99022
46.52049
45.47594
44.2123
43.20829
42.36869
41.66576
40.56063
37.84083
37.71779
37.61405
37.52223
37.40957
37.26379
37.12249
37.01544
36.95347
36.92285
36.77619
36.38888
36.00528
35.63194
35.27641
34.94553
34.66397
34.44972
34.31325
34.25749
34.2733
34.35303
34.51706
34.79436
35.19992
35.72211
36.32612
36.97461
37.66611
38.40491
39.17847
39.98395
40.81597
41.67407
42.5588
43.47141
44.39262
45.32044
46.27854
47.33263
48.34389
49.30429
50.16058
50.85523
51.34334
51.59214
51.59023
51.33957
50.85067
50.14396
49.24827
48.19942
47.03562
45.79239
44.49975
43.1818
41.85817
40.54705
39.26625
38.03526
36.87238
35.79277
34.80329
33.89842
33.06712
32.29363
31.56414
30.87395
30.2246
29.62136
29.068
28.56929
28.12673
27.73276
27.37296
27.03138
26.69534
26.35785
26.0184
25.6824
25.35879
25.05632
24.78032
24.53134
24.30464
24.09192
23.88452
23.67518
23.45883
23.23327
22.99992
22.76469
22.53711
22.3259
22.13579
21.96639
21.8121
21.66461
21.51482
21.35511
21.18167
20.99588
20.80476
20.62023
20.45472
20.31453
20.19653
20.09022
19.98306
19.86469
19.72967
19.58004
19.42767
19.29141
19.18627
19.11484
19.06954
19.04149
19.03051
19.05378
19.13854
19.32541
19.65511
20.1386
20.7432
21.45014
22.15611
22.78303
23.33801
23.88811
24.51292
25.25837
26.11979
27.05526
28.00081
28.87969
29.61567
30.1714
30.56916
30.90829
31.30861
31.84615
32.52362
33.26085
33.92604
34.39507
34.60466
34.61249
34.54205
34.46288
34.4247
34.44929
34.52652
34.6201
34.68676
34.70073
34.65889
34.57854
34.48623
34.39228
34.29027
34.15367
33.96408
33.71338
33.41108
33.08624
32.76789
32.46947
32.1897
31.91287
31.63618
31.36088
31.09267
30.83767
30.594
30.34799
30.07849
29.76749
29.4099
29.01722
28.61059
28.20885
27.82063
27.44356
27.06976
26.69161
26.29577
25.90846
25.52488
25.15272
24.79971
24.47125
24.16882
23.89009
23.62933
23.37909
23.13159
22.87983
22.61858
22.34535
22.06131
21.77211
21.48858
21.2173
20.95873
20.71237
20.47727
20.25233
20.03618
19.82722
19.62361
19.42338
19.22469
19.02626
18.82795
18.63113
18.4387
18.25496
18.08569
17.93917
17.82861
17.75678
17.72171
17.71828
17.73872
17.7742
17.81655
17.85836
17.89529
17.92657
17.95304
17.97472
17.99011
17.99812
18.00021
18.00042
18.00302
18.00942
18.01715
18.02187
18.01962
18.00743
17.98402
17.94974
17.90586
17.85459
17.79995
17.74753
17.70542
17.6781
17.66595
17.66866
17.68657
17.72113
17.77404
17.84649
17.94031
18.05876
18.20741
18.39493
18.63414
18.942
19.34039
19.85694
20.52017
21.34883
22.34169
23.47044
24.67794
25.88457
26.99993
27.94111
28.64517
29.0717
29.20149
29.03613
28.60514
27.9712
27.21632
26.41524
25.61962
24.85977
24.15331
23.51192
22.94405
22.45486
22.04522
21.711
21.4429
21.22689
21.04571
20.88097
20.71446
20.53079
20.31885
20.0771
19.80477
19.48971
19.13148
18.73533
18.30848
17.85922
17.39558
16.92463
16.45232
15.9837
15.52301
15.07376
14.63881
14.22049
13.82064
13.4407
13.08164
12.74404
12.42812
12.13377
11.86046
11.60736
11.37348
11.15763
10.95837
10.77412
10.6033
10.44439
10.29587
10.15632
10.02452
9.899467
9.780463
9.667092
9.559179
9.456707
9.359743
9.268375
9.182677
9.102708
9.028688
8.960649
8.897984
8.839989
8.785912
8.734944
8.686234
8.639039
8.592904
8.547792
8.504126
8.462783
8.42508
8.392781
8.368092
8.353568
8.351923
8.365902
8.398405
8.45271
8.532497
8.641848
8.785688
8.970236
9.203109
9.493282
9.8508
10.28594
10.80748
11.42006
12.12088
12.89615
13.7173
14.54322
15.31539
15.95832
16.40121
16.60594
16.5793
16.35947
15.99646
15.53875
15.02784
14.49666
13.96961
13.46372
12.99085
12.55924
12.17413
11.83829
11.55148
11.31147
11.11377
10.95101
10.81581
10.70122
10.60101
10.51011
10.42473
10.34181
10.25852
10.17143
10.07692
9.973135
9.861905
9.748052
9.635824
9.525799
9.413861
9.293587
9.160817
9.017599
8.872107
8.733383
8.606261
8.490632
8.383908
8.283368
8.187081
8.094172
8.004383
7.917762
7.834709
7.756013
7.682169
7.61276
7.54795
7.487804
7.432298
7.381364
7.334923
7.292907
7.25525
7.221873
7.192655
7.167409
7.145866
7.127672
7.112396
7.099555
7.088645
7.079175
7.070708
7.062895
7.055498
7.048415
7.041681
7.035476
7.030109
7.025995
7.023628
7.023537
7.026235
7.03217
7.041671
7.054896
7.071797
7.09209
7.115245
7.14049
7.166836
7.193115
7.218032
7.24023
7.258352
7.271113
7.277353
7.276097
7.266585
7.248302
7.220986
7.18463
7.13947
7.085976
7.024723
6.956064
6.880855
6.80006
6.714721
6.62582
6.534769
6.442477
6.358287
93.00454
39.31955
32.79878
31.44957
30.75374
30.45059
30.45873
30.64192
30.95458
31.35852
31.69522
31.84263
31.99162
32.127
32.25134
32.35772
32.45438
32.54267
32.61016
32.63513
32.59335
32.50204
32.41445
32.33853
32.28194
32.25022
32.25576
32.30382
32.39441
32.52785
32.7051
32.92886
33.20934
33.55312
33.9699
34.45529
34.99442
35.60068
36.28586
37.03417
37.84282
38.71262
39.61115
40.53834
41.49568
42.51267
43.52379
44.52565
45.53813
46.53443
47.43199
48.16867
48.68795
48.95189
48.93966
48.64774
48.09302
47.30281
46.28078
45.07255
43.72641
42.29145
40.81558
39.34101
37.89919
36.50887
35.17856
33.91379
32.72123
31.61366
30.61321
29.73297
28.97199
28.31498
27.73869
27.21762
26.72895
26.25358
25.79
25.34873
24.94442
24.59035
24.29149
24.0399
23.8173
23.6034
23.38321
23.14956
22.90297
22.65042
22.4031
22.17263
21.96684
21.78792
21.63189
21.48962
21.35065
21.20716