/*--------------------------------*- C++ -*----------------------------------*\
| =========                 |                                                 |
| \\      /  F ield         | foam-extend: Open Source CFD                    |
|  \\    /   O peration     | Version:     3.1                                |
|   \\  /    A nd           | Web:         http://www.extend-project.de       |
|    \\/     M anipulation  |                                                 |
\*---------------------------------------------------------------------------*/
FoamFile
{
    version     2.0;
    format      ascii;
    class       volScalarField;
    location    "15.5";
    object      p;
}
// * * * * * * * * * * * * * * * * * * * * * * * * * * * * * * * * * * * * * //

dimensions      [1 -1 -2 0 0 0 0];

internalField   nonuniform List<scalar> 
119952
(
4917.362
3252.189
3017.646
3247.818
3492.537
3280.452
3214.495
3161.721
3127.747
3102.047
3082.102
3067.052
3055.543
3047.337
3041.65
3037.529
3033.799
3027.594
3006.568
2912.221
3308.162
3115.783
3036.098
3571.107
3563.42
3630.676
3714.645
3881.238
4343.26
7617.104
2761.57
2709.167
2710.955
2706.209
2702.687
2700.901
2697.396
2695.868
2699.058
2673.047
2647.938
2665.186
2658.611
2655.836
2653.324
2652.043
2651.501
2650.831
2650.458
2640.429
2637.433
2615.709
2610.263
2611.403
2611.948
2614
2616.987
2619.772
2631.623
2629.412
2633.086
2649.196
2666.242
2684.157
2704.604
2727.041
2760.931
2855.308
3040.027
2901.654
2846.602
2941.06
2984.934
2960.01
2907.387
2870.483
2843.496
2820.9
2803.004
2789.748
2780.236
2773.743
2769.682
2767.475
2766.07
2765.169
2766.478
2777.611
2825.015
2876.18
2900.565
3044.496
3249.468
3320.648
3372.021
3426.695
3387.814
3132.325
3112.632
3241.707
3324.973
3406.072
3488.91
3568.106
3645.901
3722.352
3796.31
3867.078
3934.151
3997.208
4056.162
4111.15
4162.521
4210.772
4256.478
4300.235
4342.643
4384.28
4425.698
4467.4
4509.824
4553.332
4598.212
4644.709
4693.044
4743.431
4796.032
4850.896
4907.901
4966.751
5027.051
5088.403
5150.474
5212.973
5275.584
5337.92
5399.523
5459.922
5518.68
5575.412
5629.838
5681.734
5730.664
5776.223
5818.224
5856.853
5893.812
5927.591
5956.402
5978.709
5996.48
6011.039
6021.645
6028.63
6032.194
6032.908
6031.039
6027.183
6021.881
6015.556
6008.505
6000.898
5992.825
5984.421
5975.797
5967.061
5958.414
5950.132
5942.322
5935.24
5929.178
5924.446
5921.371
5920.326
5921.688
5925.943
5933.508
5945.076
5960.872
5981.925
6008.398
6041.316
6081.752
6130.704
6186.62
6239.492
6254.643
6281.717
6339.141
6399.47
6428.599
6444.132
6451.312
6450.798
6446.099
6438.813
6430.191
6461.211
6445.337
6436.646
6432.156
6434.893
6445.825
6463.83
6486.771
6512.537
6539.573
6567.1
6594.894
6622.817
6650.485
6677.359
6702.982
6727.106
6749.652
6770.649
6790.235
6808.607
6825.997
6842.632
6858.713
6874.41
6889.831
6905.015
6919.959
6934.585
6948.824
6962.548
6975.61
6987.751
6998.592
7007.262
7012.15
7029.225
7044.001
7056.419
7067.907
7078.069
7087.292
7095.533
7102.91
7109.469
7115.258
7120.328
7124.724
7128.491
7131.671
7134.307
7136.441
7138.122
7139.4
7140.331
7140.972
7141.387
7141.643
7141.811
7141.961
7142.142
7142.481
7142.847
7143.462
7144.374
7145.614
7147.212
7149.168
7151.408
7154.689
7153.591
7139.116
7133.661
7136.438
7138.529
7135.86
7132.909
7134.938
7139.844
7145.413
7150.813
7155.838
7160.392
7164.499
7168.152
7171.352
7174.121
7176.47
7178.562
7180.575
7182.592
7184.682
7186.888
7189.162
7191.63
7194.091
7196.235
7197.768
7198.346
7197.582
7195.046
7190.464
7183.713
7174.588
7163.191
7149.703
7134.485
7117.836
7100.315
7082.548
7065.215
7049.01
7034.667
7022.905
7014.473
7009.75
7008.578
7011.793
7019.777
7032.308
7049.045
7069.448
7092.849
7118.946
7144.13
7169.777
7195.028
7218.25
7239.854
7259.772
7277.874
7293.829
7307.335
7318.213
7326.412
7331.989
7335.165
7336.276
7335.699
7333.793
7330.902
7327.35
7323.435
7319.349
7315.175
7310.969
7306.73
7302.602
7298.468
7294.375
7290.348
7286.403
7282.55
7278.792
7275.13
7271.559
7268.071
7264.652
7261.298
7257.993
7254.722
7251.467
7248.215
7244.953
7241.669
7238.358
7235.015
7231.637
7228.226
7224.781
7221.308
7217.811
7214.275
7210.701
7207.083
7203.433
7199.743
7196.017
7192.255
7188.456
7184.619
7180.733
7176.789
7172.777
7168.674
7164.476
7160.181
7155.784
7151.284
7146.685
7141.992
7137.212
7132.358
7127.441
7122.467
7117.456
7112.409
7107.325
7102.211
7097.051
7091.812
7086.413
7080.709
7074.434
7067.132
7058.255
7049.435
7055.039
7107.688
5164.636
5013.245
4833.815
4665.696
4504.802
4351.827
4207.227
4070.578
3942.145
3796.449
3679.03
3573.722
3473.085
3380.015
3295.071
3217.419
3147.831
3081.253
2977.56
2948.83
2890.997
2835.967
2791.695
2752.715
2717.249
2685.365
2655.734
2630.687
2612.628
2578.257
2558.03
2541.719
2524.72
2509.396
2495.205
2481.876
2471.694
2470.396
2444.931
2428.595
2423.602
2419.138
2413.774
2408.737
2404.15
2399.821
2396.15
2386.373
2385.566
2385.388
2383.279
2380.718
2378.617
2376.754
2375.777
2382.391
2297.789
2296.894
2301.051
2303.695
2303.908
2303.589
2304.274
2306.328
2309.574
2313.24
2320.969
2332.794
2346.153
2361.43
2380.293
2404.362
2435.51
2475.547
2520.268
2559.401
2571.524
2564.787
2571.485
2579.862
2575.968
2558.107
2533.996
2511.198
2493.393
2480.244
2470.65
2463.971
2459.924
2458.34
2458.992
2461.87
2469.076
2483.535
2508.198
2546.199
2599.207
2666.765
2750.238
2842.599
2917.747
2962.861
2978.084
2966.543
2933.967
2924.42
2976.071
3053.469
3131.505
3208.643
3285.729
3363.25
3440.305
3515.199
3586.554
3653.656
3716.181
3774.023
3827.384
3876.785
3922.928
3966.549
4008.32
4048.83
4088.62
4128.224
4168.178
4209.013
4251.237
4295.301
4341.582
4390.359
4441.805
4495.953
4552.683
4611.727
4672.714
4735.237
4798.896
4863.311
4928.093
4992.805
5056.956
5120.023
5181.494
5240.896
5297.84
5351.982
5403.034
5450.74
5494.943
5535.503
5572.788
5605.842
5635.551
5660.407
5680.79
5696.95
5709.063
5717.364
5722.217
5724.01
5723.22
5720.302
5715.729
5709.944
5703.302
5696.021
5688.304
5680.263
5671.955
5663.49
5655.007
5646.522
5638.312
5630.529
5623.47
5617.427
5612.734
5609.707
5608.746
5610.298
5614.629
5622.403
5634.03
5649.679
5670.023
5696.052
5726.944
5762.783
5805.704
5848.544
5890.29
5925.453
5959.867
6011.99
6060.055
6094.965
6116.596
6134.797
6146.69
6148.657
6145.313
6125.603
6190.398
6179.687
6166.165
6161.36
6164.211
6174.864
6192.316
6214.812
6240.483
6267.7
6295.543
6323.643
6351.777
6379.524
6406.309
6431.67
6455.436
6477.493
6497.866
6516.779
6534.425
6551.062
6566.925
6582.237
6597.185
6611.894
6626.426
6640.769
6654.84
6668.555
6681.813
6694.477
6706.379
6717.368
6727.549
6737.882
6750.307
6763.428
6775.235
6786.165
6796.109
6805.109
6813.229
6820.516
6827.022
6832.796
6837.885
6842.337
6846.197
6849.508
6852.314
6854.658
6856.588
6858.151
6859.4
6860.392
6861.184
6861.838
6862.414
6862.974
6863.573
6864.267
6865.08
6866.091
6867.351
6868.904
6870.803
6872.991
6875.55
6879.167
6825.321
6829.634
6829.47
6828.664
6828.774
6829.123
6829.604
6832.01
6836.055
6840.733
6845.545
6850.211
6854.61
6858.742
6862.609
6866.165
6869.392
6872.353
6875.129
6877.767
6880.235
6882.55
6884.705
6886.576
6888.343
6890.316
6892.291
6894.009
6894.874
6894.137
6891.507
6886.782
6879.74
6870.278
6858.464
6844.497
6828.682
6811.44
6793.326
6774.982
6757.1
6740.38
6725.471
6712.996
6703.684
6698.022
6696.406
6699.115
6706.395
6718.12
6733.993
6753.53
6776.076
6800.793
6826.634
6852.149
6876.307
6898.455
6919.145
6938.763
6956.924
6972.931
6986.461
6997.475
7006.07
7012.237
7016.06
7017.784
7017.902
7016.844
7014.939
7012.444
7009.568
7006.445
7003.157
6999.801
6996.354
6992.89
6989.34
6985.758
6982.186
6978.638
6975.125
6971.657
6968.237
6964.867
6961.545
6958.263
6955.015
6951.789
6948.573
6945.353
6942.117
6938.854
6935.557
6932.221
6928.845
6925.429
6921.975
6918.483
6914.957
6911.4
6907.809
6904.183
6900.528
6896.846
6893.137
6889.401
6885.636
6881.841
6878.009
6874.128
6870.183
6866.163
6862.054
6857.86
6853.572
6849.177
6844.678
6840.076
6835.376
6830.583
6825.708
6820.762
6815.76
6810.722
6805.628
6800.524
6795.393
6790.235
6785.04
6779.795
6774.494
6769.187
6764.251
6760.593
6760.354
6764.967
6775.292
2898.963
2962.45
3047.664
3152.029
3273.492
3411.123
3564.359
3732.65
3914.275
4104.469
4288.332
4496.369
4708.411
4924.204
5141.435
5355.022
5563.237
5760.257
5943.439
6096.742
6240.822
6362.082
6457.945
6526.244
6565.341
6574.296
6553.178
6502.997
6429.237
6327.521
6204.786
6063.114
5907.343
5740.656
5566.074
5386.35
5204.403
5023.235
4831.673
4654.578
4480.541
4312.356
4151.902
3998.992
3854.348
3718.553
3592.291
3474.06
3359.327
3255.526
3159.07
3068.818
2986.064
2910.439
2842.422
2790.363
2633.353
2581.998
2541.265
2501.257
2461.576
2424.019
2389.637
2358.602
2330.799
2305.304
2281.94
2262.418
2244.538
2226.941
2210.046
2194.415
2180.083
2166.969
2154.868
2143.444
2134.022
2125.977
2118.475
2111.608
2105.46
2099.748
2094.179
2088.632
2083.342
2079.608
2077.288
2075.312
2073.587
2072.094
2070.392
2068.072
2064.627
2060.64
2056.398
2054.841
2055.157
2054.289
2052.814
2052.003
2052.352
2053.808
2056.332
2060.752
2067.82
2077.415
2090.129
2106.537
2126.946
2151.546
2179.332
2208.437
2237.871
2267.099
2284.627
2286.106
2285.812
2290.238
2290.041
2279.387
2262.106
2245.026
2231.146
2220.84
2213.53
2208.882
2206.753
2207.022
2209.986
2215.307
2225.736
2242.953
2267.972
2303.533
2350.637
2407.306
2472.99
2543.279
2605.5
2649.412
2675.537
2689.339
2693.508
2700.608
2745.601
2816.579
2891.998
2968.158
3045.599
3124.207
3202.835
3279.623
3352.773
3421.169
3484.223
3541.732
3593.98
3641.702
3685.865
3727.417
3767.12
3805.548
3843.181
3880.53
3918.185
3956.799
3997.025
4039.468
4084.645
4132.933
4184.532
4239.439
4297.449
4358.203
4421.261
4486.168
4552.482
4619.759
4687.524
4755.241
4822.31
4888.103
4952.003
5013.452
5071.975
5127.186
5178.787
5226.545
5270.229
5309.688
5344.883
5376.673
5403.998
5426.874
5445.316
5459.306
5469.125
5475.244
5478.142
5478.293
5476.172
5472.245
5466.971
5460.745
5453.868
5446.532
5438.851
5430.903
5422.724
5414.355
5405.837
5397.183
5388.587
5380.308
5372.639
5365.898
5360.435
5356.604
5354.767
5355.333
5358.628
5365.07
5375.055
5388.835
5406.738
5429.198
5456.217
5487.682
5523.158
5560.677
5598.531
5633.3
5670.314
5716.628
5762.485
5801.209
5833.995
5860.898
5876.556
5881.295
5878.075
5866.816
5856.3
5855.177
5851.976
5851.291
5857.511
5871.128
5890.639
5914.553
5941.666
5970.598
6000.265
6030.117
6059.819
6088.544
6115.297
6139.798
6162.206
6182.873
6202.124
6219.981
6236.697
6252.372
6267.224
6281.636
6295.75
6309.68
6323.488
6337.162
6350.645
6363.864
6376.731
6389.142
6401.018
6412.391
6423.512
6434.751
6446.286
6457.808
6468.786
6478.95
6488.245
6496.696
6504.344
6511.225
6517.376
6522.842
6527.668
6531.899
6535.579
6538.75
6541.453
6543.73
6545.626
6547.19
6548.474
6549.533
6550.424
6551.205
6551.935
6552.674
6553.469
6554.377
6555.432
6556.691
6558.173
6559.926
6561.835
6564.329
6566.929
6570.166
6573.384
6575.181
6576.728
6578.629
6580.501
6582.021
6583.873
6586.849
6590.721
6594.997
6599.414
6603.794
6608.025
6612.1
6616.039
6619.801
6623.331
6626.617
6629.645
6632.445
6635.095
6637.697
6640.404
6643.372
6646.468
6649.167
6651.15
6652.566
6653.14
6652.448
6650.085
6645.641
6638.705
6629.173
6617.186
6602.957
6586.788
6569.092
6550.416
6531.395
6512.718
6495.079
6479.115
6465.403
6454.624
6447.41
6444.284
6445.656
6451.549
6461.919
6476.545
6495.005
6516.716
6540.97
6566.857
6592.88
6617.532
6639.735
6659.949
6679.263
6697.622
6714.196
6728.418
6739.958
6748.793
6755.216
6759.518
6761.853
6762.616
6762.319
6761.273
6759.681
6757.701
6755.436
6752.958
6750.311
6747.472
6744.557
6741.556
6738.504
6735.41
6732.293
6729.162
6726.025
6722.891
6719.765
6716.649
6713.541
6710.437
6707.331
6704.212
6701.072
6697.899
6694.686
6691.424
6688.111
6684.746
6681.33
6677.865
6674.355
6670.804
6667.215
6663.593
6659.941
6656.26
6652.553
6648.822
6645.069
6641.294
6637.492
6633.656
6629.775
6625.838
6621.838
6617.763
6613.605
6609.351
6604.993
6600.531
6595.965
6591.297
6586.531
6581.678
6576.749
6571.759
6566.715
6561.662
6556.606
6551.487
6546.399
6541.356
6536.379
6531.583
6527.117
6523.406
6520.794
6520.197
6521.705
6526.462
2642.427
2617.56
2591.948
2554.092
2532.513
2491.291
2494.893
2516.107
2551.775
2568.825
2569.582
2588.65
2630.406
2691.573
2772.179
2870.146
2984.316
3114.598
3259.107
3417.357
3589.171
3772.411
3964.422
4164.287
4369.89
4578.956
4788.836
4996.955
5200.356
5394.678
5576.437
5719.166
5865.764
5983.68
6074.561
6137.392
6170.575
6173.502
6146.683
6091.751
6011.169
5906.507
5780.231
5636.108
5478.231
5310.292
5135.443
4956.281
4775.054
4593.675
4413.999
4238.076
4066.976
3902.381
3745.516
3597.231
3457.953
3327.581
3205.819
3091.994
2985.317
2885.534
2792.727
2706.786
2627.663
2555.241
2489.264
2428.756
2370.266
2320.957
2279.766
2240.054
2200.848
2163.864
2130.044
2099.515
2072.067
2047.808
2026.775
2007.873
1990.267
1973.794
1958.167
1943.187
1928.852
1915.224
1902.714
1892.291
1883.517
1875.531
1868.604
1862.701
1857.222
1851.625
1845.728
1839.918
1835.074
1830.726
1827.891
1827.087
1826.884
1826.384
1824.967
1822.292
1818.531
1814.858
1810.441
1806.352
1804.279
1802.965
1801.975
1801.524
1801.531
1801.918
1803.135
1806.049
1811.309
1819.783
1832.487
1849.59
1870.288
1893.868
1917.791
1940.678
1962.918
1983.645
1998.036
2003.52
2005.323
2008.199
2007.304
1999.892
1988.363
1976.418
1966.289
1958.807
1954.001
1951.718
1951.763
1953.27
1958.063
1964.845
1975.677
1992.578
2016.719
2049.555
2091.361
2140.99
2196.036
2252.814
2305.461
2348.962
2382.25
2408.462
2429.794
2458.034
2506.195
2572.261
2646.202
2723.526
2803.15
2884.148
2965.278
3044.687
3120.31
3190.631
3254.573
3311.63
3362.177
3407.347
3448.604
3487.263
3524.213
3559.979
3594.921
3629.444
3664.149
3699.838
3737.376
3777.569
3821.076
3868.38
3919.763
3975.236
4034.528
4097.173
4162.632
4230.392
4299.98
4370.905
4442.6
4514.399
4585.552
4655.277
4722.818
4787.496
4848.74
4906.088
4959.18
5007.74
5051.571
5090.617
5124.952
5154.703
5179.705
5200.046
5215.752
5226.926
5233.937
5237.333
5237.674
5235.522
5231.446
5225.971
5219.568
5212.585
5205.243
5197.661
5189.89
5181.957
5173.827
5165.445
5156.742
5147.692
5138.466
5129.356
5120.682
5112.792
5106.063
5100.844
5097.507
5096.473
5098.028
5102.477
5110.101
5121.019
5135.52
5154.015
5176.371
5202.405
5231.979
5264.073
5297.475
5331.191
5367.837
5409.85
5452.986
5492.765
5528.299
5559.016
5582.508
5598.274
5606.84
5608.633
5608.059
5611.305
5613.937
5616.423
5623.094
5636.169
5654.985
5678.101
5704.447
5732.899
5762.378
5792.081
5821.408
5849.831
5876.814
5901.942
5925.178
5946.809
5966.552
5984.233
6000.247
6015.244
6029.078
6042.499
6055.659
6068.698
6081.627
6094.478
6107.286
6119.99
6132.472
6144.62
6156.368
6167.71
6178.732
6189.624
6200.549
6211.355
6221.677
6231.28
6240.094
6248.13
6255.417
6261.983
6267.863
6273.097
6277.727
6281.797
6285.351
6288.431
6291.077
6293.327
6295.226
6296.822
6298.169
6299.318
6300.327
6301.251
6302.145
6303.063
6304.055
6305.167
6306.438
6307.912
6309.617
6311.563
6313.813
6316.256
6319.041
6321.766
6324.401
6327.108
6329.735
6332.075
6334.25
6336.423
6338.871
6341.877
6345.389
6349.187
6353.112
6357.037
6360.876
6364.605
6368.234
6371.76
6375.169
6378.468
6381.7
6384.919
6388.144
6391.302
6394.387
6397.499
6400.715
6404.233
6407.831
6410.347
6411.139
6410.317
6407.649
6402.813
6395.533
6385.676
6373.303
6358.613
6341.888
6323.55
6304.18
6284.426
6264.974
6246.511
6229.701
6215.172
6203.391
6195.087
6190.91
6191.296
6196.321
6205.969
6220.03
6238.116
6259.694
6284.195
6310.891
6337.985
6363.893
6387.988
6409.336
6428.342
6445.739
6461.792
6476.441
6488.51
6497.41
6503.596
6507.483
6509.38
6509.987
6509.883
6509.29
6508.281
6506.906
6505.212
6503.215
6500.957
6498.497
6495.921
6493.259
6490.572
6487.812
6485.009
6482.187
6479.348
6476.496
6473.631
6470.755
6467.863
6464.952
6462.017
6459.051
6456.044
6452.989
6449.876
6446.701
6443.461
6440.154
6436.782
6433.348
6429.857
6426.316
6422.73
6419.104
6415.444
6411.756
6408.043
6404.31
6400.558
6396.787
6392.993
6389.17
6385.308
6381.398
6377.429
6373.388
6369.266
6365.051
6360.737
6356.32
6351.797
6347.171
6342.447
6337.633
6332.742
6327.787
6322.786
6317.766
6312.721
6307.785
6302.834
6298.003
6293.342
6288.992
6285.066
6281.894
6279.546
6278.653
6278.857
6281.192
2896.87
2865.974
2835.151
2779.742
2732.672
2651.186
2603.665
2556.277
2509.842
2464.701
2420.863
2380.283
2341.822
2307.629
2278.947
2255.574
2178.382
2174.396
2179.555
2189.961
2202.23
2221.787
2254.741
2303.808
2369.202
2450.691
2549.984
2665.81
2797.469
2944.021
3104.22
3276.669
3460.097
3652.941
3853.297
4058.746
4267.538
4476.707
4683.056
4883.932
5076.554
5253.644
5406.557
5548.378
5665.898
5756.37
5818.359
5850.562
5852.469
5824.526
5768.04
5685.259
5578.672
5451.118
5306.209
5148.014
4980.452
4806.727
4629.342
4450.483
4271.654
4094.209
3920.063
3750.701
3587.617
3432.355
3285.764
3148.532
3021.063
2902.945
2793.179
2690.609
2594.614
2505.019
2421.786
2344.836
2274.381
2210.046
2152.211
2100.404
2054.454
2013.575
1975.279
1938.384
1903.28
1870.53
1840.527
1813.78
1790.639
1770.605
1752.974
1737.134
1722.289
1707.677
1692.927
1678.175
1663.957
1651.18
1640.779
1631.955
1625.229
1620.208
1615.604
1610.496
1604.588
1598.136
1590.808
1584.499
1581.476
1580.094
1580.357
1581.52
1581.929
1580.994
1578.188
1573.241
1566.906
1562.003
1557.769
1554.658
1553.395
1552.46
1551.621
1550.422
1548.658
1547.213
1547.502
1550.789
1558.307
1570.909
1588.396
1608.951
1632.867
1655.392
1673.161
1689.412
1703.994
1715.295
1722.229
1726.636
1729.012
1728.213
1721.308
1713.146
1705.25
1698.716
1694.253
1692.2
1692.544
1694.852
1697.796
1702.742
1709.708
1719.053
1734.126
1756.359
1786.258
1823.614
1868.034
1916.622
1965.053
2011.677
2054.475
2092.423
2126.859
2161.166
2201.61
2253.609
2318.448
2392.91
2473.387
2557.109
2642.066
2727.345
2811.062
2890.43
2963.636
3029.054
3085.589
3133.635
3174.975
3212.058
3246.908
3280.508
3313.136
3344.873
3375.949
3406.951
3438.832
3472.729
3509.792
3550.925
3596.734
3647.602
3703.563
3764.26
3829.088
3897.383
3968.565
4042.152
4117.632
4194.34
4271.443
4347.985
4422.973
4495.453
4564.585
4629.666
4690.133
4745.545
4795.582
4840.052
4878.906
4912.216
4940.06
4962.538
4979.858
4992.224
4999.896
5003.296
5003.042
4999.854
4994.491
4987.699
4980.075
4972.106
4964.101
4956.166
4948.307
4940.497
4932.726
4924.802
4916.518
4907.699
4898.165
4888.058
4877.763
4867.674
4858.2
4849.735
4842.655
4837.374
4834.277
4833.632
4835.602
4840.268
4847.689
4858.107
4871.816
4888.868
4909.331
4933.096
4959.53
4988.279
5019.021
5052.763
5090.743
5131.21
5171.341
5210.133
5246.966
5279.885
5307.436
5329.168
5344.989
5356.766
5366.94
5375.26
5382.755
5392.309
5406.087
5424.296
5446.353
5471.739
5499.606
5528.891
5558.619
5587.91
5616.287
5643.381
5668.634
5691.761
5712.779
5731.87
5749.241
5765.124
5779.721
5793.658
5806.722
5819.185
5831.517
5843.715
5855.852
5867.961
5880.045
5892.025
5903.767
5915.2
5926.285
5936.972
5947.315
5957.475
5967.441
5976.99
5985.929
5994.166
6001.688
6008.51
6014.656
6020.159
6025.056
6029.388
6033.195
6036.521
6039.409
6041.891
6044.003
6045.788
6047.297
6048.581
6049.694
6050.69
6051.625
6052.553
6053.525
6054.589
6055.784
6057.15
6058.719
6060.52
6062.563
6064.873
6067.419
6070.177
6072.989
6075.916
6078.98
6081.939
6084.691
6087.357
6090.024
6092.817
6095.903
6099.284
6102.828
6106.424
6109.993
6113.478
6116.855
6120.137
6123.369
6126.581
6129.762
6132.923
6136.09
6139.281
6142.536
6145.945
6149.498
6152.943
6156.29
6159.591
6162.843
6165.433
6165.861
6163.451
6158.261
6150.519
6140.213
6127.368
6112.189
6094.965
6076.103
6056.159
6035.788
6015.697
5996.561
5979.02
5963.754
5951.283
5942.25
5937.244
5936.77
5941.085
5950.216
5963.93
5981.829
6003.377
6028.032
6054.958
6082.356
6109.183
6135.317
6159.181
6179.551
6196.51
6211.542
6225.359
6237.421
6246.731
6253.069
6256.516
6257.829
6258.095
6257.923
6257.549
6256.963
6256.078
6254.865
6253.307
6251.439
6249.343
6247.072
6244.693
6242.239
6239.772
6237.27
6234.754
6232.226
6229.679
6227.106
6224.5
6221.856
6219.169
6216.432
6213.641
6210.788
6207.869
6204.875
6201.804
6198.653
6195.42
6192.109
6188.723
6185.268
6181.752
6178.181
6174.565
6170.91
6167.224
6163.512
6159.781
6156.033
6152.267
6148.481
6144.67
6140.826
6136.939
6132.997
6128.99
6124.907
6120.738
6116.475
6112.112
6107.646
6103.08
6098.417
6093.666
6088.838
6083.952
6079.026
6074.087
6069.157
6064.275
6059.521
6054.908
6050.517
6046.479
6042.875
6039.951
6037.711
6036.587
6036.238
6037.362
3084.411
3046.464
3004.443
2951.837
2911.991
2836.45
2797.337
2758.109
2718.259
2677.452
2636.372
2594.879
2551.268
2507.141
2460.274
2345.449
2297.934
2250.93
2204.454
2158.872
2114.652
2072.54
2032.957
1996.853
1964.987
1938.456
1918.084
1906.049
1901.795
1904.635
1915.078
1935.848
1969.147
2017.078
2081.424
2162.561
2260.149
2374.055
2503.74
2648.298
2806.52
2976.989
3158.152
3348.375
3546.079
3748.352
3952.488
4157.065
4359.507
4556.707
4746.567
4924.802
5083.571
5222.05
5335.752
5421.86
5478.833
5505.92
5503.01
5470.666
5410.142
5323.48
5213.412
5083.136
4936.518
4777.601
4610.513
4438.7
4264.258
4089.314
3915.008
3742.402
3573.246
3408.71
3249.598
3097.38
2953.821
2820.455
2697.918
2585.385
2481.406
2384.494
2293.602
2208.215
2128.357
2054.289
1986.514
1925.475
1871.881
1824.718
1782.254
1743.662
1707.809
1673.457
1640.187
1608.263
1578.479
1552.518
1530.808
1511.858
1496.221
1482.976
1470.018
1456.319
1441.602
1426.285
1411.197
1396.942
1385.829
1379.415
1375.029
1371.919
1368.648
1363.713
1357.149
1349.321
1340.531
1333.062
1330.59
1331.784
1334.471
1337.167
1338.425
1337.658
1334.276
1328.068
1319.694
1313.351
1309.177
1306.028
1304.144
1302.391
1300.363
1297.291
1292.685
1287.803
1284.694
1285.349
1291.66
1304.513
1323.591
1347.243
1371.202
1392.48
1406.23
1417.173
1426.967
1435.127
1442.332
1450.397
1452.108
1449.403
1441.404
1435.232
1431.113
1428.555
1427.448
1428.45
1431.804
1436.603
1441.698
1445.145
1449.006
1455.745
1468.181
1488.004
1515.15
1548.089
1588.705
1634.986
1677.72
1719.94
1762.053
1803.368
1843.727
1885.246
1932.52
1988.43
2054.869
2132.105
2217.698
2307.562
2398.047
2489.355
2579.68
2664.801
2742.546
2810.118
2865.63
2909.829
2945.555
2976.752
3006.577
3036.188
3065.361
3093.491
3120.382
3146.716
3173.777
3202.963
3235.801
3273.577
3317.18
3367.23
3423.766
3486.188
3553.584
3625.107
3700.184
3778.423
3859.353
3942.203
4025.917
4109.248
4190.898
4269.652
4344.469
4414.502
4479.075
4537.654
4589.858
4635.453
4674.319
4706.682
4732.702
4752.509
4766.338
4774.594
4777.809
4776.576
4771.618
4763.847
4754.287
4743.96
4733.705
4724.012
4715.014
4706.612
4698.659
4691.061
4683.714
4676.278
4668.338
4659.441
4649.199
4637.927
4626.119
4614.206
4602.707
4592.068
4582.691
4575.028
4569.498
4566.358
4565.576
4566.959
4570.421
4576.202
4584.673
4596.038
4610.438
4627.887
4648.154
4671.168
4696.985
4726.619
4761.178
4800.094
4841.85
4885.369
4929.355
4971.728
5010.666
5045.105
5074.497
5098.938
5119.187
5136.081
5150.956
5165.827
5182.347
5201.155
5222.686
5247.157
5274.076
5302.488
5331.436
5360.131
5387.993
5414.511
5439.251
5461.946
5482.52
5501.329
5518.649
5534.457
5548.889
5562.225
5574.601
5586.53
5598.072
5609.384
5620.674
5631.954
5643.187
5654.325
5665.313
5676.083
5686.567
5696.709
5706.483
5715.917
5725.046
5733.78
5741.962
5749.505
5756.385
5762.61
5768.204
5773.2
5777.636
5781.551
5784.981
5787.969
5790.561
5792.778
5794.649
5796.22
5797.545
5798.679
5799.674
5800.587
5801.472
5802.379
5803.361
5804.459
5805.708
5807.14
5808.786
5810.671
5812.809
5815.209
5817.873
5820.762
5823.827
5827.048
5830.371
5833.675
5836.892
5840.038
5843.159
5846.332
5849.63
5853.031
5856.449
5859.813
5863.083
5866.236
5869.261
5872.172
5875.033
5877.903
5880.727
5883.551
5886.438
5889.422
5892.518
5895.742
5899.104
5902.6
5906.144
5909.336
5912.092
5914.333
5915.678
5914.94
5910.794
5903.36
5892.824
5879.55
5863.933
5846.33
5827.156
5806.938
5786.297
5765.873
5746.254
5728.111
5712.173
5699.113
5689.478
5683.857
5682.781
5686.572
5695.307
5708.762
5726.504
5747.944
5772.404
5798.837
5825.989
5853.23
5880.04
5905.467
5927.906
5946.633
5962.116
5974.91
5986.024
5995.097
6001.463
6004.922
6006.074
6006.059
6005.905
6005.948
6005.964
6005.633
6004.812
6003.53
6001.905
6000.061
5998.049
5995.913
5993.718
5991.494
5989.267
5987.043
5984.821
5982.584
5980.314
5977.994
5975.612
5973.162
5970.636
5968.031
5965.342
5962.566
5959.698
5956.737
5953.681
5950.53
5947.288
5943.96
5940.551
5937.071
5933.529
5929.933
5926.294
5922.62
5918.919
5915.197
5911.457
5907.701
5903.927
5900.131
5896.305
5892.441
5888.529
5884.558
5880.518
5876.398
5872.191
5867.891
5863.494
5859.002
5854.417
5849.748
5845.008
5840.214
5835.387
5830.555
5825.75
5821.018
5816.411
5811.986
5807.807
5803.988
5800.593
5797.803
5795.616
5794.315
5793.65
5794.033
3071.658
3023.409
2976.108
2917.164
2858.651
2806.283
2758.21
2714.072
2673.226
2632.401
2526.11
2487.566
2449.118
2410.044
2370.039
2329.061
2286.961
2243.395
2198.477
2152.956
2107.717
2060.88
2013.91
1967.06
1920.72
1875.219
1830.843
1787.761
1746.963
1709.689
1677.197
1651.458
1632.976
1622.78
1621.946
1631.052
1651.829
1685.705
1734.026
1797.84
1877.72
1973.77
2085.888
2213.582
2356.018
2512
2680.236
2858.976
3046.111
3239.54
3436.576
3635.803
3835.774
4034.792
4229.067
4414.51
4586.797
4740.216
4870.977
4976.358
5053.832
5101.948
5120.478
5109.859
5070.919
5004.902
4913.589
4799.739
4666.547
4518.114
4358.766
4192.382
4023.264
3853.636
3684.781
3518.18
3353.744
3191.313
3032.55
2878.798
2731.48
2593.451
2467.015
2352.458
2248.291
2152.429
2063.03
1978.812
1899.024
1823.634
1753.178
1688.573
1631.105
1582.074
1540.118
1502.757
1468.533
1436.231
1404.577
1372.968
1341.573
1311.161
1284.318
1265.239
1249.827
1236.795
1227.254
1216.741
1203.939
1188.994
1172.675
1156.133
1140.48
1128.723
1124.491
1124.095
1124.054
1121.978
1116.912
1109.4
1100.185
1089.865
1080.427
1076.615
1080.905
1087.885
1093.63
1097.164
1097.153
1092.503
1083.891
1073.04
1063.062
1057.971
1056.011
1054.078
1051.885
1048.993
1043.507
1034.444
1024.78
1017.327
1014.25
1018.67
1032.513
1055.098
1086.888
1112.95
1129.034
1138.212
1144.279
1150.831
1157.65
1164.464
1176.739
1178.481
1169.516
1157.912
1153.072
1153.323
1155.652
1158.29
1162.742
1170.652
1178.542
1184.996
1187.031
1183.331
1185.609
1194.772
1211.932
1237.877
1268.24
1306.217
1351.771
1389.715
1427.665
1469.662
1513.697
1557.438
1601.712
1653.753
1713.31
1782.69
1865.486
1958.992
2056.977
2152.835
2252.088
2352.91
2445.015
2530.192
2602.337
2656.244
2693.746
2720.697
2744.028
2767.964
2793.304
2818.939
2843.126
2864.831
2884.998
2905.536
2928.498
2955.849
2988.995
3029.182
3077.673
3134.661
3199.207
3269.784
3345.027
3424.389
3507.829
3595.1
3685.32
3777.111
3868.814
3958.693
4045.184
4127.01
4203.181
4272.92
4335.588
4390.675
4437.931
4477.268
4508.774
4532.824
4549.746
4559.78
4563.379
4561.233
4554.226
4543.372
4529.918
4515.263
4500.632
4487.086
4475.322
4465.304
4456.575
4448.705
4441.517
4434.889
4428.374
4421.486
4413.077
4401.642
4388.561
4374.802
4360.594
4346.642
4333.435
4321.341
4310.92
4302.722
4296.999
4293.448
4291.419
4290.569
4291.211
4293.974
4299.398
4307.654
4318.437
4331.417
4347.007
4366.311
4390.468
4421.274
4459.26
4503.672
4553.125
4605.537
4658.424
4709.581
4757.366
4800.536
4838.26
4870.637
4898.416
4922.625
4944.49
4965.12
4985.5
5007.042
5030.863
5056.753
5083.875
5111.41
5138.646
5165.015
5190.102
5213.617
5235.413
5255.501
5273.998
5290.947
5306.368
5320.401
5333.264
5345.164
5356.382
5367.148
5377.742
5388.196
5398.571
5408.869
5419.061
5429.144
5439.067
5448.751
5458.127
5467.154
5475.824
5484.121
5491.97
5499.276
5505.98
5512.063
5517.536
5522.425
5526.764
5530.595
5533.959
5536.884
5539.419
5541.61
5543.463
5544.993
5546.252
5547.306
5548.216
5549.032
5549.813
5550.618
5551.494
5552.482
5553.615
5554.918
5556.421
5558.154
5560.142
5562.397
5564.926
5567.746
5570.842
5574.185
5577.727
5581.408
5585.144
5588.859
5592.524
5596.145
5599.735
5603.294
5606.787
5610.156
5613.357
5616.367
5619.188
5621.831
5624.306
5626.732
5629.243
5631.619
5634.005
5636.511
5639.115
5641.793
5644.55
5647.416
5650.4
5653.461
5656.478
5659.129
5660.976
5661.826
5661.238
5658.525
5652.694
5643.046
5630.141
5614.661
5597.06
5577.861
5557.685
5537.104
5516.575
5496.648
5478.112
5461.719
5448.166
5438.073
5432.046
5430.608
5434.041
5442.484
5455.725
5473.302
5494.554
5518.645
5544.434
5571.022
5598.121
5624.994
5650.582
5673.931
5694.307
5710.682
5723.546
5734.239
5743.026
5749.32
5752.76
5753.449
5752.765
5752.755
5753.785
5754.954
5755.449
5755.112
5754.103
5752.657
5750.916
5748.978
5746.967
5744.969
5742.986
5741.032
5739.109
5737.205
5735.296
5733.348
5731.334
5729.233
5727.034
5724.73
5722.319
5719.798
5717.167
5714.426
5711.574
5708.612
5705.542
5702.37
5699.1
5695.741
5692.302
5688.794
5685.226
5681.611
5677.958
5674.276
5670.571
5666.847
5663.108
5659.351
5655.574
5651.769
5647.93
5644.048
5640.113
5636.116
5632.048
5627.9
5623.668
5619.348
5614.94
5610.447
5605.877
5601.243
5596.561
5591.855
5587.152
5582.489
5577.909
5573.461
5569.207
5565.207
5561.554
5558.308
5555.6
5553.431
5551.981
5551.09
5550.941
2811.242
2747.223
2617.504
2567.326
2518.761
2473.856
2432.055
2392.623
2354.737
2317.989
2282.242
2245.638
2208.417
2170.212
2130.996
2090.472
2048.525
2005.017
1959.823
1913.394
1867.115
1820.231
1772.979
1725.575
1677.73
1629.322
1581.152
1534.138
1489.268
1448.181
1412.637
1383.827
1362.604
1349.943
1347.038
1354.909
1374.891
1408.166
1455.82
1518.629
1597.128
1691.557
1801.822
1927.437
2067.67
2221.167
2386.509
2561.179
2742.695
2929.418
3120.553
3315.525
3511.492
3705.409
3893.468
4071.332
4234.421
4377.825
4497.394
4590.487
4655.293
4690.995
4698.059
4677.546
4630.571
4558.567
4462.841
4345.857
4210.976
4061.605
3902.651
3738.144
3572.094
3408.322
3248.196
3091.613
2936.805
2782.341
2630.303
2483.309
2343.132
2212.3
2093.845
1988.973
1895.449
1809.899
1729.757
1653.455
1580.05
1509.663
1443.129
1381.494
1327.542
1284.699
1248.184
1215.875
1188.133
1161.464
1133.647