/*--------------------------------*- C++ -*----------------------------------*\
| =========                 |                                                 |
| \\      /  F ield         | foam-extend: Open Source CFD                    |
|  \\    /   O peration     | Version:     3.1                                |
|   \\  /    A nd           | Web:         http://www.extend-project.de       |
|    \\/     M anipulation  |                                                 |
\*---------------------------------------------------------------------------*/
FoamFile
{
    version     2.0;
    format      ascii;
    class       volScalarField;
    location    "15.5";
    object      pd;
}
// * * * * * * * * * * * * * * * * * * * * * * * * * * * * * * * * * * * * * //

dimensions      [1 -1 -2 0 0 0 0];

internalField   nonuniform List<scalar> 
119952
(
4948.057
3289.604
3054.44
3281.345
3523.25
3311.804
3246.46
3194.299
3160.938
3135.851
3116.519
3102.082
3091.187
3083.593
3078.52
3075.012
3071.895
3066.303
3045.89
2952.156
3343.45
3151.333
3071.906
3601.769
3594.082
3661.338
3745.306
3911.9
4373.955
7647.799
3052.055
2996.111
2994.632
2986.619
2979.83
2974.772
2968.004
2963.209
2963.131
2934.972
2923.844
2941.092
2934.517
2931.743
2929.23
2927.949
2927.407
2926.738
2926.364
2946.992
2943.995
2922.272
2916.825
2917.965
2918.51
2920.563
2923.55
2926.334
2938.185
2935.974
2939.649
2955.759
2972.804
2990.72
3011.166
3033.603
3067.493
3161.871
3346.59
3208.216
3153.164
3247.622
3291.496
3266.572
3213.949
3177.045
3150.058
3127.463
3109.566
3096.311
3086.799
3080.305
3076.244
3074.037
3072.633
3071.731
3073.04
3084.173
3131.578
3182.743
3207.127
3351.058
3556.03
3627.21
3678.584
3733.257
3694.376
3438.888
3419.194
3548.27
3631.536
3712.635
3795.472
3874.669
3952.463
4028.915
4102.872
4173.641
4240.713
4303.771
4362.724
4417.712
4469.083
4517.334
4563.04
4606.798
4649.206
4690.843
4732.26
4773.963
4816.386
4859.894
4904.775
4951.271
4999.607
5049.994
5102.595
5157.458
5214.463
5273.314
5333.613
5394.966
5457.037
5519.536
5582.147
5644.483
5706.086
5766.485
5825.242
5881.975
5936.4
5988.296
6037.227
6082.786
6124.786
6163.415
6200.374
6234.153
6262.964
6285.271
6303.042
6317.602
6328.208
6335.192
6338.756
6339.47
6337.602
6333.745
6328.443
6322.119
6315.068
6307.46
6299.388
6290.983
6282.36
6273.624
6264.977
6256.695
6248.885
6241.803
6235.74
6231.008
6227.933
6226.889
6228.25
6232.505
6240.071
6251.638
6267.434
6288.488
6314.96
6347.878
6388.315
6437.267
6493.183
6546.055
6561.205
6588.279
6645.704
6706.033
6735.162
6750.694
6757.875
6757.361
6752.661
6745.375
6736.753
6737.117
6721.243
6712.552
6708.062
6710.799
6721.731
6739.736
6762.677
6788.443
6815.479
6843.006
6870.8
6898.724
6926.391
6953.265
6978.888
7003.013
7025.558
7046.555
7066.141
7084.513
7101.904
7118.538
7134.62
7150.316
7165.737
7180.921
7195.865
7210.491
7224.731
7238.454
7251.516
7263.658
7274.498
7283.168
7288.056
7305.132
7319.907
7332.325
7343.814
7353.976
7363.199
7371.439
7378.817
7385.375
7391.164
7396.234
7400.63
7404.397
7407.577
7410.213
7412.348
7414.029
7415.307
7416.237
7416.878
7417.293
7417.55
7417.717
7417.867
7418.048
7418.387
7418.753
7419.368
7420.28
7421.52
7423.118
7425.074
7427.314
7430.595
7460.153
7445.679
7440.224
7443
7445.091
7442.422
7439.471
7441.501
7446.407
7451.975
7457.375
7462.4
7466.954
7471.062
7474.715
7477.914
7480.684
7483.033
7485.124
7487.138
7489.154
7491.245
7493.45
7495.725
7498.193
7500.654
7502.797
7504.33
7504.909
7504.145
7501.608
7497.027
7490.275
7481.15
7469.754
7456.265
7441.048
7424.399
7406.878
7389.11
7371.778
7355.573
7341.229
7329.468
7321.035
7316.313
7315.14
7318.355
7326.34
7338.87
7355.608
7376.01
7399.412
7425.508
7450.692
7476.339
7501.59
7524.813
7546.417
7566.334
7584.436
7600.392
7613.898
7624.776
7632.974
7638.551
7641.727
7642.839
7642.262
7640.356
7637.465
7633.912
7629.997
7625.911
7621.737
7617.532
7613.293
7609.164
7605.031
7600.937
7596.91
7592.965
7589.112
7585.354
7581.693
7578.122
7574.633
7571.215
7567.86
7564.556
7561.284
7558.029
7554.777
7551.515
7548.232
7544.921
7541.577
7538.2
7534.789
7531.343
7527.871
7524.373
7520.837
7517.263
7513.645
7509.995
7506.306
7502.58
7498.818
7495.019
7491.182
7487.296
7483.352
7479.339
7475.237
7471.038
7466.743
7462.347
7457.847
7453.248
7448.554
7443.775
7438.921
7434.003
7429.029
7423.994
7418.944
7413.884
7408.768
7403.608
7398.373
7392.976
7387.271
7380.996
7373.695
7364.817
7355.997
7361.601
7414.25
5698.478
5543.806
5361.108
5189.722
5025.561
4869.319
4721.452
4581.534
4449.998
4317.605
4200.186
4094.878
3994.241
3901.171
3816.227
3738.575
3668.987
3602.41
3529.372
3500.642
3442.81
3387.779
3343.508
3304.528
3269.061
3237.178
3207.546
3182.5
3164.44
3130.07
3109.843
3093.532
3076.532
3061.209
3047.017
3033.688
3023.507
3022.209
2996.744
2980.407
2975.415
2970.95
2965.586
2960.549
2955.962
2951.634
2947.962
2938.186
2937.378
2937.201
2935.092
2932.531
2930.43
2928.567
2927.589
2934.203
2910.914
2910.019
2914.176
2916.82
2917.033
2916.714
2917.399
2919.453
2922.699
2926.365
2934.094
2945.919
2959.278
2974.555
2993.418
3017.487
3048.635
3088.672
3133.393
3172.526
3184.649
3177.912
3184.61
3192.987
3189.093
3171.232
3147.121
3124.323
3106.518
3093.369
3083.775
3077.096
3073.049
3071.465
3072.117
3074.995
3082.2
3096.66
3121.323
3159.324
3212.332
3279.89
3363.363
3455.724
3530.872
3575.986
3591.209
3579.668
3547.092
3537.545
3589.196
3666.594
3744.63
3821.768
3898.854
3976.375
4053.43
4128.324
4199.679
4266.781
4329.306
4387.148
4440.509
4489.91
4536.053
4579.674
4621.445
4661.955
4701.745
4741.349
4781.303
4822.138
4864.362
4908.426
4954.707
5003.484
5054.93
5109.078
5165.808
5224.852
5285.839
5348.362
5412.021
5476.436
5541.218
5605.93
5670.081
5733.148
5794.619
5854.021
5910.965
5965.107
6016.159
6063.865
6108.068
6148.628
6185.913
6218.967
6248.676
6273.532
6293.915
6310.075
6322.188
6330.489
6335.342
6337.135
6336.345
6333.427
6328.854
6323.069
6316.427
6309.146
6301.429
6293.388
6285.08
6276.615
6268.132
6259.647
6251.437
6243.654
6236.595
6230.552
6225.859
6222.832
6221.871
6223.423
6227.754
6235.528
6247.155
6262.804
6283.148
6309.177
6340.069
6375.908
6418.829
6461.669
6503.415
6538.578
6572.992
6625.115
6673.18
6708.09
6729.721
6747.922
6759.815
6761.782
6758.438
6738.728
6742.21
6731.499
6717.978
6713.173
6716.024
6726.676
6744.129
6766.624
6792.295
6819.512
6847.356
6875.455
6903.589
6931.336
6958.121
6983.483
7007.249
7029.305
7049.679
7068.592
7086.238
7102.874
7118.738
7134.05
7148.998
7163.707
7178.239
7192.581
7206.653
7220.368
7233.625
7246.29
7258.191
7269.181
7279.361
7289.694
7302.119
7315.241
7327.048
7337.977
7347.922
7356.921
7365.041
7372.328
7378.834
7384.608
7389.698
7394.15
7398.01
7401.321
7404.126
7406.471
7408.4
7409.963
7411.213
7412.204
7412.997
7413.65
7414.227
7414.786
7415.385
7416.079
7416.893
7417.903
7419.163
7420.716
7422.616
7424.804
7427.363
7430.979
7438.446
7442.759
7442.595
7441.789
7441.899
7442.248
7442.729
7445.135
7449.18
7453.858
7458.67
7463.336
7467.735
7471.866
7475.734
7479.29
7482.517
7485.478
7488.254
7490.892
7493.36
7495.675
7497.83
7499.701
7501.468
7503.441
7505.416
7507.134
7507.999
7507.262
7504.632
7499.907
7492.865
7483.403
7471.589
7457.622
7441.807
7424.565
7406.451
7388.106
7370.218
7353.462
7338.534
7326.061
7316.76
7311.12
7309.525
7312.24
7319.52
7331.245
7347.118
7366.655
7389.2
7413.911
7439.714
7465.026
7488.955
7511.146
7532.003
7551.8
7570.038
7586.055
7599.586
7610.6
7619.195
7625.362
7629.185
7630.909
7631.027
7629.969
7628.064
7625.569
7622.693
7619.57
7616.282
7612.926
7609.479
7606.015
7602.465
7598.883
7595.311
7591.763
7588.25
7584.782
7581.362
7577.992
7574.67
7571.388
7568.14
7564.914
7561.698
7558.478
7555.242
7551.979
7548.682
7545.346
7541.97
7538.554
7535.1
7531.608
7528.082
7524.525
7520.934
7517.308
7513.653
7509.971
7506.262
7502.526
7498.761
7494.966
7491.134
7487.253
7483.308
7479.288
7475.179
7470.985
7466.697
7462.302
7457.803
7453.201
7448.501
7443.708
7438.833
7433.887
7428.885
7423.847
7418.752
7413.642
7408.46
7403.264
7398.069
7392.847
7387.602
7382.311
7377.376
7373.718
7373.479
7378.092
7388.417
3679.949
3739.894
3821.842
3922.94
4041.135
4175.494
4325.467
4490.491
4668.848
4856.893
5054.738
5262.775
5474.818
5690.61
5907.841
6121.428
6329.643
6526.663
6709.845
6893.805
7037.885
7159.144
7255.007
7323.306
7362.404
7371.359
7350.24
7300.06
7226.299
7124.584
7001.848
6860.176
6704.406
6537.718
6363.136
6183.413
6001.466
5820.297
5628.735
5451.641
5277.604
5109.419
4948.965
4796.054
4651.41
4515.615
4389.353
4271.123
4156.39
4052.589
3956.133
3865.88
3783.126
3707.501
3639.484
3587.425
3491.728
3440.373
3399.64
3359.632
3319.951
3282.394
3248.012
3216.977
3189.174
3163.679
3140.315
3120.793
3102.913
3085.316
3068.421
3052.79
3038.458
3025.344
3013.243
3001.819
2992.397
2984.352
2976.85
2969.983
2963.835
2958.123
2952.554
2947.007
2941.717
2937.983
2935.663
2933.687
2931.962
2930.469
2928.767
2926.447
2923.002
2919.015
2914.773
2913.216
2913.532
2912.664
2911.189
2910.378
2910.727
2912.183
2914.707
2919.127
2926.195
2935.79
2948.504
2964.912
2985.321
3009.921
3037.707
3066.812
3096.246
3125.474
3143.002
3144.481
3144.187
3148.613
3148.416
3137.762
3120.481
3103.401
3089.521
3079.215
3071.905
3067.257
3065.128
3065.397
3068.361
3073.682
3084.111
3101.328
3126.347
3161.908
3209.012
3265.681
3331.365
3401.654
3463.875
3507.787
3533.912
3547.714
3551.883
3558.983
3603.976
3674.954
3750.373
3826.533
3903.974
3982.582
4061.21
4137.998
4211.148
4279.544
4342.598
4400.107
4452.355
4500.077
4544.24
4585.792
4625.495
4663.923
4701.556
4738.905
4776.56
4815.174
4855.4
4897.843
4943.02
4991.308
5042.907
5097.814
5155.824
5216.578
5279.636
5344.543
5410.857
5478.134
5545.899
5613.616
5680.685
5746.478
5810.378
5871.827
5930.35
5985.561
6037.162
6084.92
6128.604
6168.063
6203.258
6235.048
6262.373
6285.249
6303.691
6317.681
6327.5
6333.619
6336.517
6336.668
6334.547
6330.62
6325.346
6319.12
6312.243
6304.907
6297.226
6289.278
6281.099
6272.73
6264.212
6255.558
6246.962
6238.683
6231.014
6224.273
6218.81
6214.979
6213.142
6213.708
6217.003
6223.445
6233.43
6247.21
6265.113
6287.573
6314.592
6346.057
6381.533
6419.052
6456.906
6491.675
6528.689
6575.003
6620.86
6659.584
6692.37
6719.273
6734.931
6739.67
6736.45
6725.191
6714.675
6713.552
6710.351
6709.666
6715.886
6729.503
6749.014
6772.928
6800.041
6828.973
6858.64
6888.492
6918.194
6946.919
6973.672
6998.173
7020.581
7041.248
7060.499
7078.356
7095.072
7110.747
7125.599
7140.011
7154.125
7168.055
7181.863
7195.537
7209.02
7222.239
7235.106
7247.517
7259.393
7270.766
7281.887
7293.126
7304.661
7316.183
7327.161
7337.325
7346.62
7355.071
7362.719
7369.6
7375.751
7381.217
7386.043
7390.274
7393.954
7397.125
7399.828
7402.105
7404.001
7405.565
7406.849
7407.908
7408.799
7409.58
7410.31
7411.049
7411.844
7412.752
7413.807
7415.066
7416.548
7418.301
7420.21
7422.704
7425.304
7428.541
7431.759
7433.556
7435.103
7437.004
7438.876
7440.396
7442.248
7445.224
7449.096
7453.372
7457.789
7462.169
7466.4
7470.475
7474.414
7478.176
7481.706
7484.992
7488.02
7490.82
7493.47
7496.072
7498.779
7501.747
7504.842
7507.542
7509.525
7510.941
7511.515
7510.823
7508.46
7504.016
7497.079
7487.548
7475.561
7461.332
7445.163
7427.467
7408.791
7389.77
7371.091
7353.413
7336.895
7321.808
7311.575
7305.307
7302.574
7304.019
7309.923
7320.294
7334.92
7353.38
7375.09
7399.343
7425.212
7451.062
7474
7490.882
7510.666
7533.075
7554.903
7572.489
7586.791
7598.333
7607.168
7613.591
7617.893
7620.228
7620.991
7620.694
7619.648
7618.056
7616.076
7613.811
7611.333
7608.686
7605.847
7602.932
7599.931
7596.879
7593.785
7590.668
7587.537
7584.4
7581.266
7578.14
7575.024
7571.916
7568.812
7565.705
7562.587
7559.447
7556.274
7553.061
7549.799
7546.486
7543.121
7539.705
7536.24
7532.73
7529.179
7525.59
7521.968
7518.316
7514.635
7510.928
7507.197
7503.444
7499.669
7495.867
7492.031
7488.15
7484.213
7480.213
7476.138
7471.98
7467.725
7463.367
7458.906
7454.34
7449.672
7444.906
7440.053
7435.124
7430.134
7425.09
7420.036
7414.98
7409.845
7404.699
7399.658
7394.721
7389.953
7385.492
7381.781
7379.169
7378.572
7380.08
7384.837
3659.632
3623.21
3594.125
3565.748
3544.169
3533.603
3537.206
3558.419
3594.088
3611.137
3611.894
3630.962
3672.718
3733.886
3814.492
3912.458
4026.628
4156.911
4301.42
4459.669
4631.483
4814.723
5006.735
5206.6
5412.203
5621.269
5831.149
6039.268
6242.668
6436.99
6618.75
6822.791
6969.389
7087.305
7178.186
7241.017
7274.2
7277.127
7250.308
7195.376
7114.794
7010.132
6883.856
6739.733
6581.856
6413.917
6239.068
6059.906
5878.679
5697.3
5517.624
5341.701
5170.601
5006.006
4849.141
4700.856
4561.578
4431.206
4309.444
4195.619
4088.942
3989.159
3896.352
3810.411
3731.288
3658.866
3592.889
3532.381
3473.891
3424.582
3383.391
3343.679
3304.473
3267.489
3233.669
3203.14
3175.692
3151.433
3130.4
3111.498
3093.892
3077.419
3061.792
3046.812
3032.477
3018.849
3006.339
2995.916
2987.142
2979.156
2972.229
2966.326
2960.847
2955.25
2949.353
2943.543
2938.699
2934.351
2931.516
2930.712
2930.509
2930.009
2928.592
2925.917
2922.156
2918.483
2914.066
2909.977
2907.904
2906.59
2905.6
2905.149
2905.156
2905.543
2906.76
2909.674
2914.934
2923.408
2936.112
2953.215
2973.913
2997.493
3021.416
3044.303
3066.543
3087.27
3101.661
3107.145
3108.948
3111.824
3110.929
3103.517
3091.988
3080.043
3069.914
3062.432
3057.626
3055.343
3055.388
3056.895
3061.688
3068.47
3079.302
3096.203
3120.344
3153.18
3194.986
3244.615
3299.661
3356.439
3409.086
3452.587
3485.875
3512.087
3533.419
3561.659
3609.82
3675.886
3749.827
3827.151
3906.775
3987.773
4068.902
4148.312
4223.935
4294.256
4358.198
4415.255
4465.802
4510.972
4552.229
4590.888
4627.838
4663.604
4698.546
4733.069
4767.774
4803.463
4841.001
4881.194
4924.701
4972.005
5023.388
5078.861
5138.153
5200.798
5266.257
5334.017
5403.605
5474.53
5546.225
5618.024
5689.177
5758.902
5826.443
5891.121
5952.365
6009.713
6062.805
6111.365
6155.196
6194.242
6228.577
6258.328
6283.33
6303.671
6319.377
6330.551
6337.562
6340.958
6341.299
6339.147
6335.071
6329.596
6323.193
6316.21
6308.868
6301.286
6293.515
6285.582
6277.452
6269.07
6260.367
6251.317
6242.091
6232.981
6224.307
6216.417
6209.688
6204.469
6201.132
6200.098
6201.653
6206.102
6213.726
6224.644
6239.145
6257.64
6279.996
6306.03
6335.604
6367.698
6401.1
6434.816
6471.462
6513.475
6556.611
6596.39
6631.924
6662.641
6686.133
6701.899
6710.465
6712.257
6711.684
6714.927
6717.558
6720.045
6726.717
6739.794
6758.61
6781.726
6808.072
6836.524
6866.003
6895.706
6925.033
6953.456
6980.439
7005.567
7028.803
7050.434
7070.177
7087.858
7103.872
7118.869
7132.703
7146.124
7159.284
7172.323
7185.252
7198.103
7210.911
7223.615
7236.097
7248.245
7259.993
7271.335
7282.357
7293.249
7304.174
7314.98
7325.302
7334.905
7343.719
7351.755
7359.042
7365.608
7371.488
7376.722
7381.352
7385.422
7388.976
7392.056
7394.702
7396.952
7398.851
7400.447
7401.794
7402.943
7403.952
7404.876
7405.77
7406.688
7407.68
7408.792
7410.063
7411.536
7413.242
7415.188
7417.438
7419.881
7422.666
7425.391
7428.026
7430.733
7433.36
7435.7
7437.875
7440.048
7442.496
7445.502
7449.014
7452.812
7456.737
7460.662
7464.501
7468.23
7471.859
7475.385
7478.794
7482.093
7485.325
7488.544
7491.768
7494.927
7498.012
7501.124
7504.34
7507.858
7511.456
7513.972
7514.764
7513.942
7511.273
7506.438
7499.157
7489.3
7476.928
7462.238
7445.513
7427.175
7407.805
7388.051
7368.598
7350.113
7332.955
7316.093
7303.652
7295.348
7292.088
7294.376
7299.919
7309.594
7323.655
7341.741
7363.319
7387.819
7414.509
7441.526
7466.176
7474.521
7485.028
7506.346
7536.834
7561.798
7579.484
7592.103
7601.034
7607.221
7611.108
7613.005
7613.612
7613.508
7612.915
7611.906
7610.531
7608.837
7606.84
7604.581
7602.122
7599.545
7596.883
7594.197
7591.436
7588.634
7585.812
7582.973
7580.121
7577.256
7574.38
7571.488
7568.577
7565.642
7562.676
7559.669
7556.614
7553.501
7550.326
7547.086
7543.779
7540.406
7536.973
7533.482
7529.941
7526.355
7522.729
7519.069
7515.381
7511.668
7507.935
7504.183
7500.412
7496.618
7492.795
7488.933
7485.023
7481.054
7477.013
7472.891
7468.676
7464.362
7459.945
7455.422
7450.796
7446.071
7441.257
7436.366
7431.412
7426.411
7421.391
7416.346
7411.41
7406.459
7401.627
7396.964
7392.614
7388.69
7385.519
7383.171
7382.278
7382.482
7384.817
4165.215
4122.601
4080.754
4036.649
3989.578
3938.748
3891.227
3843.84
3797.405
3752.263
3708.425
3667.845
3629.384
3595.192
3566.509
3543.137
3527.257
3523.271
3528.43
3538.836
3551.105
3570.662
3603.616
3652.683
3718.077
3799.566
3898.859
4014.685
4146.344
4292.896
4453.095
4625.544
4808.972
5001.816
5202.172
5407.621
5616.413
5825.582
6031.931
6232.807
6425.429
6602.519
6755.432
6897.253
7014.773
7105.245
7167.234
7199.437
7201.344
7173.401
7116.915
7034.134
6927.547
6799.993
6655.084
6496.889
6329.327
6155.602
5978.217
5799.358
5620.529
5443.084
5268.938
5099.576
4936.492
4781.23
4634.639
4497.407
4369.938
4251.82
4142.054
4039.484
3943.489
3853.894
3770.661
3693.711
3623.256
3558.921
3501.086
3449.279
3403.329
3362.45
3324.154
3287.259
3252.155
3219.405
3189.402
3162.655
3139.514
3119.48
3101.849
3086.009
3071.164
3056.552
3041.802
3027.05
3012.832
3000.055
2989.654
2980.83
2974.104
2969.083
2964.479
2959.371
2953.463
2947.011
2939.683
2933.374
2930.351
2928.969
2929.232
2930.395
2930.804
2929.869
2927.063
2922.116
2915.781
2910.878
2906.644
2903.533
2902.27
2901.335
2900.496
2899.297
2897.533
2896.088
2896.377
2899.664
2907.182
2919.784
2937.271
2957.826
2981.742
3004.267
3022.036
3038.287
3052.869
3064.17
3071.104
3075.511
3077.887
3077.088
3070.183
3062.021
3054.125
3047.591
3043.128
3041.075
3041.419
3043.727
3046.671
3051.617
3058.583
3067.928
3083.001
3105.234
3135.133
3172.489
3216.909
3265.497
3313.928
3360.552
3403.35
3441.298
3475.734
3510.041
3550.485
3602.484
3667.323
3741.785
3822.262
3905.984
3990.941
4076.22
4159.937
4239.305
4312.511
4377.929
4434.464
4482.51
4523.85
4560.933
4595.783
4629.383
4662.011
4693.748
4724.824
4755.826
4787.707
4821.604
4858.667
4899.8
4945.609
4996.477
5052.438
5113.135
5177.963
5246.258
5317.44
5391.027
5466.507
5543.215
5620.318
5696.86
5771.848
5844.328
5913.46
5978.541
6039.008
6094.42
6144.457
6188.927
6227.781
6261.091
6288.934
6311.413
6328.733
6341.099
6348.771
6352.171
6351.917
6348.729
6343.366
6336.574
6328.95
6320.981
6312.975
6305.041
6297.182
6289.372
6281.601
6273.677
6265.393
6256.574
6247.04
6236.933
6226.638
6216.549
6207.075
6198.61
6191.53
6186.249
6183.152
6182.507
6184.477
6189.143
6196.564
6206.982
6220.691
6237.743
6258.206
6281.971
6308.405
6337.154
6367.896
6401.638
6439.618
6480.084
6520.216
6559.008
6595.841
6628.76
6656.311
6678.043
6693.864
6705.641
6715.814
6724.12
6731.581
6741.151
6754.95
6773.169
6795.228
6820.614
6848.481
6877.766
6907.494
6936.785
6965.162
6992.256
7017.509
7040.636
7061.654
7080.745
7098.116
7113.999
7128.596
7142.533
7155.597
7168.06
7180.392
7192.59
7204.727
7216.836
7228.92
7240.9
7252.642
7264.075
7275.16
7285.847
7296.19
7306.35
7316.316
7325.865
7334.804
7343.041
7350.563
7357.385
7363.531
7369.034
7373.931
7378.263
7382.07
7385.396
7388.284
7390.766
7392.878
7394.663
7396.172
7397.456
7398.569
7399.565
7400.5
7401.428
7402.4
7403.464
7404.659
7406.025
7407.594
7409.395
7411.437
7413.747
7416.294
7419.052
7421.864
7424.791
7427.855
7430.814
7433.566
7436.232
7438.899
7441.692
7444.778
7448.159
7451.703
7455.299
7458.868
7462.353
7465.73
7469.012
7472.244
7475.456
7478.637
7481.798
7484.965
7488.156
7491.41
7494.82
7498.372
7501.818
7505.165
7508.466
7511.718
7514.308
7514.736
7512.326
7507.136
7499.393
7489.087
7476.243
7461.064
7443.84
7424.977
7405.032
7384.662
7364.571
7345.431
7327.837
7311.989
7296.715
7287.013
7283.479
7285.119
7289.932
7299.09
7312.805
7330.704
7352.252
7376.907
7403.83
7431.198
7457.71
7481.092
7486.636
7494.176
7511.135
7530.584
7564.254
7585.315
7595.586
7601.944
7605.391
7606.704
7606.97
7606.797
7606.421
7605.828
7604.938
7603.727
7602.177
7600.314
7598.218
7595.947
7593.568
7591.114
7588.646
7586.145
7583.629
7581.101
7578.554
7575.981
7573.375
7570.731
7568.043
7565.307
7562.516
7559.663
7556.744
7553.75
7550.679
7547.528
7544.295
7540.984
7537.598
7534.143
7530.627
7527.056
7523.44
7519.785
7516.099
7512.387
7508.656
7504.907
7501.142
7497.356
7493.545
7489.701
7485.814
7481.872
7477.865
7473.782
7469.613
7465.35
7460.987
7456.521
7451.955
7447.29
7442.539
7437.712
7432.826
7427.901
7422.962
7418.032
7413.15
7408.396
7403.783
7399.392
7395.354
7391.75
7388.826
7386.586
7385.462
7385.113
7386.237
4592.046
4542.55
4497.081
4453.993
4414.148
4369.262
4330.149
4290.922
4251.072
4210.264
4169.184
4127.691
4084.08
4039.954
3993.087
3939.574
3892.059
3845.055
3798.579
3752.997
3708.777
3666.665
3627.082
3590.978
3559.112
3532.581
3512.209
3500.174
3495.92
3498.76
3509.203
3529.973
3563.272
3611.203
3675.549
3756.686
3854.274
3968.18
4097.865
4242.423
4400.645
4571.114
4752.277
4942.5
5140.204
5342.477
5546.613
5751.19
5953.632
6150.832
6340.692
6518.927
6677.696
6816.175
6929.877
7015.985
7072.958
7100.045
7097.135
7064.791
7004.267
6917.605
6807.537
6677.261
6530.643
6371.726
6204.638
6032.825
5858.383
5683.439
5509.133
5336.527
5167.371
5002.835
4843.723
4691.505
4547.946
4414.58
4292.043
4179.51
4075.531
3978.619
3887.727
3802.34
3722.482
3648.414
3580.639
3519.6
3466.006
3418.843
3376.379
3337.787
3301.934
3267.582
3234.312
3202.388
3172.604
3146.643
3124.933
3105.983
3090.346
3077.101
3064.143
3050.444
3035.727
3020.41
3005.322
2991.067
2979.954
2973.54
2969.154
2966.044
2962.773
2957.838
2951.274
2943.446
2934.656
2927.187
2924.715
2925.909
2928.596
2931.292
2932.55
2931.783
2928.401
2922.193
2913.819
2907.476
2903.302
2900.153
2898.269
2896.516
2894.488
2891.416
2886.81
2881.928
2878.819
2879.474
2885.785
2898.638
2917.716
2941.368
2965.327
2986.605
3000.355
3011.298
3021.092
3029.252
3036.457
3044.522
3046.233
3043.528
3035.529
3029.357
3025.238
3022.68
3021.573
3022.575
3025.929
3030.728
3035.823
3039.27
3043.131
3049.87
3062.306
3082.129
3109.275
3142.214
3182.83
3229.111
3271.845
3314.065
3356.178
3397.493
3437.852
3479.371
3526.645
3582.555
3648.994
3726.23
3811.823
3901.687
3992.172
4083.48
4173.805
4258.926
4336.671
4404.243
4459.755
4503.954
4539.68
4570.877
4600.702
4630.313
4659.486
4687.616
4714.507
4740.841
4767.902
4797.088
4829.926
4867.702
4911.305
4961.355
5017.891
5080.313
5147.709
5219.232
5294.309
5372.548
5453.478
5536.328
5620.042
5703.373
5785.023
5863.777
5938.594
6008.627
6073.2
6131.779
6183.983
6229.578
6268.444
6300.807
6326.827
6346.634
6360.463
6368.719
6371.934
6370.701
6365.743
6357.972
6348.412
6338.085
6327.83
6318.137
6309.139
6300.737
6292.784
6285.186
6277.839
6270.403
6262.463
6253.566
6243.324
6232.052
6220.244
6208.331
6196.832
6186.193
6176.816
6169.153
6163.623
6160.483
6159.701
6161.084
6164.546
6170.327
6178.798
6190.163
6204.563
6222.012
6242.279
6265.293
6291.11
6320.743
6355.303
6394.219
6435.975
6479.494
6523.48
6565.853
6604.791
6639.23
6668.622
6693.063
6713.312
6730.202
6745.06
6759.812
6776.327
6795.206
6816.784
6841.272
6868.198
6896.613
6925.561
6954.256
6982.118
7008.636
7033.376
7056.071
7076.645
7095.454
7112.774
7128.582
7143.014
7156.35
7168.726
7180.655
7192.197
7203.509
7214.799
7226.079
7237.312
7248.45
7259.438
7270.208
7280.692
7290.834
7300.608
7310.042
7319.171
7327.905
7336.087
7343.63
7350.51
7356.735
7362.329
7367.325
7371.761
7375.676
7379.106
7382.094
7384.686
7386.903
7388.774
7390.345
7391.67
7392.803
7393.799
7394.712
7395.597
7396.504
7397.486
7398.584
7399.833
7401.265
7402.911
7404.796
7406.933
7409.334
7411.998
7414.887
7417.952
7421.173
7424.496
7427.8
7431.017
7434.163
7437.284
7440.457
7443.755
7447.156
7450.574
7453.938
7457.208
7460.36
7463.386
7466.297
7469.158
7472.028
7474.852
7477.676
7480.563
7483.547
7486.643
7489.867
7493.229
7496.725
7500.269
7503.461
7506.217
7508.458
7509.803
7509.065
7504.919
7497.485
7486.949
7473.674
7458.058
7440.455
7421.28
7401.06
7380.404
7359.979
7340.364
7322.214
7306.171
7292.768
7283.059
7277.516
7276.612
7280.613
7289.424
7302.886
7320.629
7342.069
7366.529
7392.961
7420.11
7447.334
7474.048
7498.59
7511.213
7502.387
7516.944
7550.384
7577.224
7589.088
7595.586
7599.045
7600.198
7600.18
7600.011
7599.981
7599.896
7599.612
7598.897
7597.652
7596.029
7594.186
7592.174
7590.038
7587.843
7585.619
7583.392
7581.168
7578.946
7576.709
7574.439
7572.118
7569.737
7567.286
7564.761
7562.156
7559.467
7556.691
7553.823
7550.862
7547.806
7544.655
7541.413
7538.085
7534.676
7531.196
7527.654
7524.058
7520.419
7516.745
7513.044
7509.322
7505.582
7501.826
7498.052
7494.256
7490.43
7486.566
7482.654
7478.683
7474.643
7470.523
7466.316
7462.016
7457.619
7453.127
7448.541
7443.872
7439.132
7434.338
7429.512
7424.68
7419.875
7415.143
7410.536
7406.111
7401.932
7398.113
7394.717
7391.928
7389.741
7388.44
7387.775
7388.158
4819.906
4801.472
4754.171
4695.227
4636.713
4584.345
4536.273
4492.135
4451.288
4410.463
4365.485
4326.942
4288.493
4249.419
4209.414
4168.436
4126.336
4082.77
4037.852
3992.331
3947.092
3900.255
3853.285
3806.435
3760.095
3714.594
3670.218
3627.136
3586.338
3549.064
3516.572
3490.833
3472.351
3462.155
3461.321
3470.427
3491.204
3525.08
3573.401
3637.215
3717.095
3813.145
3925.263
4052.957
4195.393
4351.375
4519.611
4698.351
4885.486
5078.915
5275.951
5475.178
5675.149
5874.167
6068.442
6253.885
6426.172
6579.591
6710.352
6815.733
6893.207
6941.323
6959.853
6949.234
6910.294
6844.277
6752.964
6639.114
6505.922
6357.489
6198.141
6031.757
5862.639
5693.011
5524.156
5357.555
5193.119
5030.688
4871.925
4718.173
4570.855
4432.826
4306.39
4191.833
4087.666
3991.804
3902.405
3818.187
3738.399
3663.009
3592.553
3527.948
3470.48
3421.449
3379.493
3342.132
3307.908
3275.606
3243.952
3212.343
3180.948
3150.536
3123.693
3104.614
3089.202
3076.17
3066.629
3056.116
3043.314
3028.369
3012.05
2995.508
2979.855
2968.098
2963.866
2963.47
2963.429
2961.353
2956.287
2948.775
2939.56
2929.24
2919.802
2915.99
2920.28
2927.26
2933.005
2936.539
2936.528
2931.878
2923.266
2912.415
2902.437
2897.346
2895.386
2893.453
2891.259
2888.368
2882.882
2873.819
2864.155
2856.702
2853.625
2858.044
2871.888
2894.473
2926.263
2952.325
2968.409
2977.587
2983.654
2990.206
2997.025
3003.839
3016.114
3017.856
3008.891
2997.287
2992.447
2992.698
2995.027
2997.665
3002.117
3010.027
3017.917
3024.371
3026.406
3022.706
3024.984
3034.147
3051.307
3077.251
3107.614
3145.592
3191.145
3229.09
3267.04
3309.037
3353.072
3396.813
3441.087
3493.128
3552.685
3622.065
3704.861
3798.366
3896.352
3992.21
4091.463
4192.284
4284.389
4369.566
4441.712
4495.619
4533.121
4560.072
4583.402
4607.339
4632.679
4658.314
4682.501
4704.205
4724.373
4744.911
4767.873
4795.224
4828.37
4868.557
4917.048
4974.036
5038.582
5109.159
5184.402
5263.764
5347.204
5434.475
5524.695
5616.486
5708.189
5798.068
5884.559
5966.385
6042.556
6112.295
6174.963
6230.05
6277.306
6316.643
6348.149
6372.199
6389.121
6399.155
6402.754
6400.608
6393.601
6382.747
6369.293
6354.637
6340.007
6326.461
6314.697
6304.679
6295.95
6288.08
6280.891
6274.262
6267.748
6260.86
6252.452
6241.017
6227.936
6214.176
6199.967
6186.012
6172.802
6160.708
6150.289
6142.096
6136.373
6132.823
6130.794
6129.944
6130.586
6133.348
6138.772
6147.029
6157.812
6170.792
6186.382
6205.686
6229.843
6260.649
6298.635
6343.047
6392.5
6444.912
6497.799
6548.956
6596.741
6639.911
6677.635
6710.012
6737.791
6761.996
6783.842
6804.383
6824.533
6846.039
6869.905
6895.92
6923.187
6950.779
6978.021
7004.39
7029.477
7052.992
7074.788
7094.876
7113.373
7130.322
7145.743
7159.776
7172.639
7184.539
7195.757
7206.523
7217.117
7227.571
7237.946
7248.244
7258.436
7268.519
7278.442
7288.126
7297.502
7306.529
7315.199
7323.496
7331.345
7338.651
7345.355
7351.438
7356.911
7361.8
7366.139
7369.97
7373.334
7376.259
7378.794
7380.985
7382.838
7384.367
7385.625
7386.68
7387.591
7388.407
7389.188
7389.993
7390.869
7391.857
7392.99
7394.293
7395.796
7397.529
7399.517
7401.772
7404.301
7407.121
7410.217
7413.56
7417.102
7420.783
7424.519
7428.234
7431.899
7435.52
7439.11
7442.669
7446.162
7449.531
7452.732
7455.742
7458.562
7461.206
7463.681
7466.107
7468.618
7470.994
7473.38
7475.886
7478.49
7481.168
7483.925
7486.791
7489.775
7492.836
7495.853
7498.504
7500.351
7501.201
7500.613
7497.9
7492.069
7482.421
7469.516
7454.036
7436.435
7417.236
7397.06
7376.47
7355.85
7335.696
7317.187
7300.97
7287.522
7277.443
7271.42
7269.982
7273.415
7281.859
7295.1
7312.677
7333.929
7358.02
7383.809
7410.397
7437.496
7464.363
7489.873
7512.453
7528.823
7541.892
7555.981
7570.913
7582.062
7588.612
7591.976
7592.558
7591.772
7591.482
7592.152
7593.545
7594.605
7594.47
7593.477
7592.032
7590.291
7588.353
7586.342
7584.344
7582.36
7580.407
7578.484
7576.58
7574.67
7572.723
7570.708
7568.607
7566.408
7564.105
7561.694
7559.173
7556.542
7553.801
7550.949
7547.987
7544.917
7541.745
7538.475
7535.116
7531.677
7528.169
7524.601
7520.986
7517.333
7513.651
7509.945
7506.222
7502.482
7498.726
7494.949
7491.144
7487.305
7483.423
7479.488
7475.491
7471.423
7467.275
7463.043
7458.723
7454.315
7449.822
7445.252
7440.617
7435.936
7431.23
7426.527
7421.864
7417.284
7412.836
7408.582
7404.582
7400.929
7397.683
7394.975
7392.806
7391.356
7390.465
7390.316
4803.896
4770.535
4702.129
4651.951
4603.386
4558.481
4516.68
4477.248
4439.362
4402.614
4366.867
4330.263
4293.042
4254.837
4215.621
4175.097
4133.15
4089.642
4044.448
3998.019
3951.74
3904.856
3857.604
3810.2
3762.355
3713.947
3665.777
3618.763
3573.893
3532.806
3497.262
3468.452
3447.229
3434.568
3431.663
3439.534
3459.516
3492.791
3540.445
3603.254
3681.753
3776.182
3886.447
4012.062
4152.295
4305.792
4471.134
4645.804
4827.32
5014.043
5205.178
5400.15
5596.117
5790.034
5978.093
6155.957
6319.046
6462.45
6582.019
6675.112
6739.918
6775.62
6782.684
6762.171
6715.196
6643.192
6547.466
6430.482
6295.601
6146.23
5987.276
5822.769
5656.719
5492.947
5332.821
5176.238
5021.43
4866.966
4714.928
4567.934
4427.757
4296.925
4178.47
4073.598
3980.074
3894.524
3814.382
3738.08
3664.675
3594.288
3527.754
3466.119
3412.167
3369.324
3332.809
3300.5
3272.758
3246.089
3218.272
3188.483
3157