/*--------------------------------*- C++ -*----------------------------------*\
| =========                 |                                                 |
| \\      /  F ield         | foam-extend: Open Source CFD                    |
|  \\    /   O peration     | Version:     3.1                                |
|   \\  /    A nd           | Web:         http://www.extend-project.de       |
|    \\/     M anipulation  |                                                 |
\*---------------------------------------------------------------------------*/
FoamFile
{
    version     2.0;
    format      ascii;
    class       surfaceScalarField;
    location    "15.5";
    object      phi;
}
// * * * * * * * * * * * * * * * * * * * * * * * * * * * * * * * * * * * * * //

dimensions      [0 3 -1 0 0 0 0];

internalField   nonuniform List<scalar> 
275122
(
-0.0003988975
0.0004043964
-4.008957e-07
-5.098009e-06
-0.0003568717
0.0003401561
1.370131e-06
1.534546e-05
-0.0003537682
0.0003628122
-3.845104e-07
-8.659484e-06
-0.0003932061
0.0004036912
-4.692576e-07
-1.001585e-05
-0.0004298275
0.0004328781
-5.432227e-07
-2.507315e-06
-0.0004325658
0.0004318082
-4.803543e-07
1.237917e-06
-0.0004277522
0.0004261857
-4.431888e-07
2.009659e-06
-0.000420871
0.0004189321
-4.195954e-07
2.358552e-06
-0.0004128153
0.0004107068
-3.982609e-07
2.506759e-06
-0.0004042596
0.0004020737
-3.761412e-07
2.562076e-06
-0.000395427
0.0003931836
-3.507132e-07
2.594176e-06
-0.0003864251
0.0003841606
-3.645795e-07
2.629135e-06
-0.000377334
0.0003750542
-3.380129e-07
2.617815e-06
-0.0003681978
0.0003659118
-3.107861e-07
2.596848e-06
-0.000359041
0.0003567518
-2.845477e-07
2.573769e-06
-0.0003498799
0.0003475936
-2.580928e-07
2.544389e-06
-0.0003407549
0.0003385121
-2.370374e-07
2.479865e-06
-0.000331783
0.000329589
-2.020273e-07
2.395972e-06
-0.0003234405
0.00032168
-2.51441e-07
2.011952e-06
-0.0003179904
0.0003183539
-6.471718e-07
2.83672e-07
-0.0003527533
0.0003665526
-1.274208e-06
-1.25251e-05
-0.0003700926
0.0003698509
-2.773074e-07
5.189811e-07
-0.0003730964
0.0003750793
-1.54268e-07
-1.828701e-06
-0.0004153555
0.000430157
3.276092e-07
-1.512908e-05
-0.0004316802
0.0004307561
6.069122e-07
3.171309e-07
-0.0004324167
0.0004329291
-2.568753e-07
-2.555186e-07
-0.0004324113
0.0004311884
-2.451724e-07
1.468009e-06
-0.0004261131
0.0004220774
-2.091573e-07
4.244776e-06
-0.0003967524
0.0003705595
-2.827746e-07
2.647568e-05
-0.0001848275
0.0001901959
4.879092e-09
-5.373296e-06
-0.0002666749
0.0002803184
-7.094705e-08
-1.357263e-05
-0.0003192155
0.0003321141
7.919697e-09
-1.290655e-05
-0.0003715081
0.0003848478
8.885686e-09
-1.334859e-05
-0.0004252468
0.00043888
9.698297e-09
-1.364283e-05
-0.0004805039
0.0004945471
7.395507e-09
-1.405064e-05
-0.0005373617
0.0005517452
2.275734e-08
-1.440629e-05
-0.0005954129
0.0006100793
2.180543e-08
-1.468823e-05
-0.0006544003
0.0006692711
1.561305e-08
-1.488641e-05
-0.0007140292
0.0007290208
9.42788e-09
-1.500104e-05
-0.0007734548
0.0007896556
2.345684e-07
-1.643537e-05
1.297634e-05
-0.0005362794
0.0005383845
1.312738e-09
-1.508276e-05
1.326259e-05
-0.0005446774
0.0005466173
-5.678223e-10
-1.520191e-05
1.353386e-05
-0.0005521039
0.0005538416
-1.632007e-09
-1.52699e-05
1.386195e-05
-0.0005587596
0.000560273
-1.762193e-09
-1.53736e-05
1.425992e-05
-0.0005643763
0.0005656043
-1.529483e-09
-1.548638e-05
1.457094e-05
-0.0005689955
0.0005700032
-1.011966e-09
-1.557755e-05
1.480267e-05
-0.0005728597
0.0005737228
-8.183528e-10
-1.566498e-05
1.495329e-05
-0.0005761768
0.0005769818
-7.179575e-10
-1.575754e-05
1.545406e-05
-0.0005791823
0.0005789273
-6.78799e-10
-1.519841e-05
1.379214e-05
-0.002358412
0.002367666
1.306324e-10
-6.484415e-05
1.40504e-05
1.375143e-05
1.399561e-05
1.464923e-05
-0.002374884
0.002380903
8.189179e-12
-6.566853e-05
1.52073e-05
1.462085e-05
1.517208e-05
1.505066e-05
-0.002385853
0.002390488
-9.740403e-11
-6.531445e-05
1.531861e-05
1.50191e-05
1.529074e-05
1.518856e-05
-0.002395304
0.002399909
-5.120444e-11
-6.556484e-05
1.531866e-05
1.516056e-05
1.52921e-05
1.522077e-05
-0.002404593
0.002408874
-3.233544e-11
-6.547481e-05
1.540106e-05
1.519445e-05
1.537781e-05
1.53737e-05
-0.002412827
0.002416421
-3.340094e-10
-6.527181e-05
1.54918e-05
1.534799e-05
1.546523e-05
1.53897e-05
-0.002419954
0.002423007
-2.251062e-10
-6.468748e-05
1.54522e-05
1.536468e-05
1.542808e-05
1.532834e-05
-0.002426084
0.002428743
-3.551227e-10
-6.392136e-05
1.532911e-05
1.529745e-05
1.530812e-05
1.518027e-05
-0.00243189
0.002434693
-3.855181e-10
-6.353791e-05
1.5212e-05
1.515402e-05
1.518898e-05
1.475069e-05
-0.002434009
0.002437017
-2.795269e-10
-6.203289e-05
1.478193e-05
1.472335e-05
1.476928e-05
1.533915e-05
-0.002440123
0.002441912
-2.002906e-10
-6.334108e-05
1.544705e-05
1.533048e-05
1.543576e-05
1.524247e-05
-0.002443162
0.002444126
-1.929163e-10
-6.165551e-05
1.510996e-05
1.52353e-05
1.510355e-05
1.511091e-05
-0.00244515
0.002446148
-2.680412e-10
-6.122736e-05
1.501139e-05
1.510267e-05
1.500504e-05
1.505824e-05
-0.002447124
0.002447921
-1.877494e-10
-6.088358e-05
1.49923e-05
1.504891e-05
1.498799e-05
1.505197e-05
-0.002448655
0.002449281
-1.223869e-10
-6.069373e-05
1.499204e-05
1.503616e-05
1.498784e-05
1.509447e-05
-0.002449907
0.002450402
-7.879103e-11
-6.069163e-05
1.50361e-05
1.504616e-05
1.502021e-05
1.534898e-05
-0.002450995
0.002451325
-4.564185e-11
-6.126384e-05
1.530704e-05
1.512538e-05
1.515289e-05
1.664189e-05
-0.002451298
0.002449034
-2.620738e-12
-6.292281e-05
1.691097e-05
1.567707e-05
1.595634e-05
2.1262e-05
-0.002442229
0.002426472
3.684336e-11
-6.466734e-05
2.261034e-05
1.858074e-05
1.797113e-05
2.692999e-05
-0.002406552
0.002428286
4.207208e-11
-4.866407e-05
1.94789e-05
-0.002448342
0.002450849
3.500786e-11
-2.198552e-05
4.002183e-05
-0.002443565
0.002439575
2.458364e-11
-3.603202e-05
3.429629e-05
-0.002436917
0.002434876
1.847011e-11
-3.225609e-05
1.854802e-05
-0.002432278
0.002433545
1.56976e-11
-1.981514e-05
3.434576e-06
-0.002437764
0.0024419
1.08649e-11
-7.571386e-06
-1.744349e-06
-0.002444794
0.002447475
6.071181e-12
-9.370607e-07
-4.617828e-06
-0.002449826
0.002451654
-1.34244e-12
2.789686e-06
-6.539362e-06
-0.00245318
0.002454313
-1.05849e-11
5.407213e-06
-7.904399e-06
-0.00245519
0.002455767
-1.79972e-11
7.326904e-06
-8.714123e-06
-0.002456185
0.002456416
-2.448154e-11
8.483158e-06
-9.127858e-06
-0.00245657
0.002456644
-2.785658e-11
9.054822e-06
-9.302334e-06
-0.002456691
0.002456722
-2.810719e-11
9.271248e-06
-9.357018e-06
-0.002456749
0.002456782
-2.581516e-11
9.323918e-06
-9.355638e-06
-0.002456805
0.002456821
-2.322529e-11
9.33988e-06
-9.291244e-06
-0.002456828
0.002456851
-1.443184e-11
9.268262e-06
-8.960159e-06
-0.0024569
0.002457011
2.416422e-11
8.849346e-06
-8.080684e-06
-0.00245716
0.00245741
1.590806e-11
7.830707e-06
-5.7457e-06
-0.002457577
0.002457756
-1.686695e-12
5.566265e-06
8.936052e-08
-0.002457895
0.002456717
-1.178526e-11
1.088809e-06
9.445189e-06
-0.002450927
0.002445833
-2.497883e-11
-4.351331e-06
3.024842e-06
-0.002446708
0.002447739
-5.379355e-11
-4.056632e-06
1.446033e-05
-0.002447427
0.002444058
-5.572552e-11
-1.109207e-05
3.745017e-05
-0.002427507
0.002409531
-6.262802e-11
-1.947335e-05
7.946712e-06
-0.00239991
0.002398325
-7.077732e-11
-6.361292e-06
-7.12129e-06
-0.002396105
0.002391762
-8.109593e-11
1.146481e-05
-1.896221e-05
-0.002385057
0.002380363
-8.554941e-11
2.365653e-05
-3.966142e-05
-0.002376612
0.00237578
-8.795677e-11
4.049305e-05
-9.022011e-05
-0.002375782
0.002401145
-8.776997e-11
6.485671e-05
-2.006783e-05
-0.002432029
0.002429206
-8.738796e-11
6.925209e-05
-1.335235e-05
-1.993291e-05
-1.307525e-05
-7.93325e-06
-0.002417788
0.002413429
-8.6499e-11
3.614891e-05
-8.330465e-06
-7.587386e-06
-7.939154e-06
-7.548367e-06
-0.002411856
0.002408045
-7.60675e-11
3.281918e-05
-7.242911e-06
-7.25834e-06
-6.958595e-06
-6.080841e-06
-0.002401997
0.002395734
-6.44895e-11
2.964192e-05
-5.850688e-06
-5.832235e-06
-5.614925e-06
-5.583777e-06
-0.002389905
0.002384469
-5.154412e-11
2.731832e-05
-5.567272e-06
-5.37154e-06
-5.35917e-06
-5.507557e-06
-0.002379214
0.002373941
-3.723632e-11
2.689475e-05
-5.491966e-06
-5.317358e-06
-5.304483e-06
-5.467137e-06
-0.002368521
0.002363005
-2.545415e-11
2.702671e-05
-5.457646e-06
-5.295962e-06
-5.289984e-06
-5.508212e-06
-0.002357377
0.002351621
-1.596836e-11
2.750991e-05
-5.519564e-06
-5.356079e-06
-5.370024e-06
-5.606058e-06
-0.002345725
0.002339625
-8.133467e-12
2.828735e-05
-5.621912e-06
-5.47073e-06
-5.488863e-06
-5.703519e-06
-0.002333352
0.002326835
-2.512697e-12
2.91205e-05
-5.715744e-06
-5.584545e-06
-5.599479e-06
-5.775965e-06
-0.002320142
0.002313212
5.88687e-13
2.984484e-05
-5.782922e-06
-5.672946e-06
-5.682691e-06
-5.808235e-06
-0.002306125
0.002298841
1.676436e-12
3.034128e-05
-5.8074e-06
-5.720217e-06
-5.72209e-06
-5.794896e-06
-0.002291442
0.002283912
3.787757e-13
3.054732e-05
-5.78712e-06
-5.720591e-06
-5.715333e-06
-5.744226e-06
-0.002276317
0.002268653
-1.337896e-12
3.049538e-05
-5.731804e-06
-5.682664e-06
-5.672674e-06
-5.673428e-06
-0.002260961
0.002253235
-3.021977e-12
3.029509e-05
-5.659614e-06
-5.62361e-06
-5.612092e-06
-5.60171e-06
-0.002245496
0.002237724
-4.193949e-12
3.007722e-05
-5.589439e-06
-5.562093e-06
-5.551781e-06
-5.544295e-06
-0.002229933
0.002222091
-4.965861e-12
2.993973e-05
-5.53566e-06
-5.512575e-06
-5.505324e-06
-5.509888e-06
-0.002214216
0.002206271
-6.358691e-12
2.992367e-05
-5.50612e-06
-5.483008e-06
-5.479691e-06
-5.50208e-06
-0.002198283
0.002190214
-8.995055e-12
3.002948e-05
-5.503754e-06
-5.476467e-06
-5.477846e-06
-5.523225e-06
-0.002182097
0.002173898
-1.272254e-11
3.025403e-05
-5.53122e-06
-5.496512e-06
-5.503694e-06
-5.579845e-06
-0.002165651
0.002157322
-1.608149e-11
3.061913e-05
-5.595977e-06
-5.550068e-06
-5.564831e-06
-5.682864e-06
-0.002148944
0.00214048
-1.707417e-11
3.117653e-05
-5.709322e-06
-5.647751e-06
-5.67201e-06
-5.843229e-06
-0.002131954
0.002123324
-1.475658e-11
3.199236e-05
-5.881642e-06
-5.800834e-06
-5.836375e-06
-6.067718e-06
-0.002114608
0.002105753
-8.988785e-12
3.312134e-05
-6.11804e-06
-6.016588e-06
-6.063552e-06
-6.35059e-06
-0.002096774
0.0020876
-1.722278e-12
3.457385e-05
-6.409375e-06
-6.292134e-06
-6.348112e-06
-6.669661e-06
0.002068632
7.56169e-12
3.629291e-05
-6.730348e-06
-6.608738e-06
-6.668261e-06
-0.002078248
-6.988012e-06
-0.002058771
0.002048567
1.425876e-11
3.815575e-05
-7.042289e-06
-6.932897e-06
-6.98838e-06
-7.263075e-06
-0.002038044
0.002027098
1.845768e-11
3.999857e-05
-7.302832e-06
-7.222133e-06
-7.265192e-06
-7.45688e-06
-0.002015763
0.002003945
1.930249e-11
4.16478e-05
-7.477062e-06
-7.435599e-06
-7.460224e-06
-7.547529e-06
-0.001991687
0.001978924
1.650884e-11
4.295591e-05
-7.547284e-06
-7.546923e-06
-7.551071e-06
-7.533853e-06
-0.001965711
0.001952027
1.057091e-11
4.382129e-05
-7.516568e-06
-7.55046e-06
-7.536384e-06
-7.43163e-06
-0.001937937
0.001923469
3.492373e-12
4.419389e-05
-7.402457e-06
-7.45962e-06
-7.432172e-06
-7.260792e-06
-0.001908686
0.001893664
-6.526605e-12
4.406022e-05
-7.223289e-06
-7.295361e-06
-7.25874e-06
-7.032636e-06
-0.001878447
0.001863147
-1.857522e-11
4.341816e-05
-6.987185e-06
-7.071639e-06
-7.026901e-06
-6.746157e-06
-0.001847774
0.00183247
-3.153308e-11
4.226513e-05
-6.691046e-06
-6.788851e-06
-6.73428e-06
-6.394926e-06
-0.0018172
0.001802132
-4.359199e-11
4.060421e-05
-6.328741e-06
-6.439631e-06
-6.373357e-06
-5.977867e-06
-0.001787193
0.001772578
-5.312642e-11
3.845992e-05
-5.901544e-06
-6.021221e-06
-5.943815e-06
-5.504587e-06
-0.001758178
0.001744219
-5.976439e-11
3.58855e-05
-5.421175e-06
-5.542931e-06
-5.457615e-06
-4.991873e-06
-0.001730562
0.001717466
-6.423044e-11
3.294973e-05
-4.904733e-06
-5.02314e-06
-4.933824e-06
-4.45647e-06
-0.001704761
0.001692733
-6.852663e-11
2.972379e-05
-4.368315e-06
-4.480765e-06
-4.390618e-06
-3.909446e-06
-0.001681181
0.001670414
-7.374605e-11
2.626526e-05
-3.82152e-06
-3.928268e-06
-3.838909e-06
-3.358226e-06
-0.001660194
0.001650857
-7.891611e-11
2.26248e-05
-3.271346e-06
-3.373246e-06
-3.285011e-06
-2.805486e-06
-0.001642117
0.001634329
-8.192436e-11
1.887762e-05
-2.722153e-06
-2.824104e-06
-2.736817e-06
-2.257746e-06
-0.001627166
0.001620998
-8.029554e-11
1.505915e-05
-2.171812e-06
-2.274414e-06
-2.186805e-06
-1.736016e-06
-0.001615456
0.001610959
-7.31857e-11
1.130654e-05
-1.657017e-06
-1.748418e-06
-1.668351e-06
-1.262798e-06
-0.001607093
0.001604299
-6.265802e-11
7.720644e-06
-1.19124e-06
-1.272415e-06
-1.200343e-06
-8.252437e-07
-0.001602115
0.001600963
-5.122459e-11
4.332431e-06
-7.592335e-07
-8.314495e-07
-7.64101e-07
-4.238956e-07
-0.00160044
0.001600904
-4.010722e-11
1.096774e-06
-3.539865e-07
-4.273292e-07
-3.559795e-07
-2.432562e-08
-0.001601925
0.001603738
-3.139915e-11
-1.985729e-06
1.117447e-07
-2.43166e-08
1.097695e-07
4.779435e-07
-0.001605639
0.001608247
-2.350271e-11
-5.116105e-06
7.760741e-07
4.822089e-07
7.726323e-07
6.419544e-07
-0.00161209
0.001615583
-1.817353e-11
-6.218321e-06
7.116351e-07
6.776779e-07
6.942123e-07
5.314485e-07
-0.001620317
0.001625908
-1.433169e-11
-7.664048e-06
5.295841e-07
4.980514e-07
5.135043e-07
6.038936e-07
-0.001631649
0.001637713
-9.067954e-12
-8.540942e-06
6.245194e-07
6.121134e-07
6.364467e-07
6.038152e-07
-0.001644059
0.001650721
-6.042106e-12
-9.105835e-06
6.040457e-07
6.175504e-07
6.186426e-07
5.28118e-07
-0.001657614
0.001664698
-4.981176e-12
-9.215019e-06
5.238016e-07
5.41717e-07
5.371643e-07
3.957262e-07
-0.001671916
0.001679236
-4.79964e-12
-8.89421e-06
3.782546e-07
4.086225e-07
3.914572e-07
1.957739e-07
-0.001686622
0.001694
-4.194672e-12
-8.13126e-06
1.684504e-07
2.085044e-07
1.811894e-07
-5.009542e-08
-0.001701337
0.001708586
-1.306258e-12
-7.004201e-06
-8.671162e-08
-3.488401e-08
-7.303174e-08
-3.159652e-07
-0.001715781
0.001722782
6.763084e-12
-5.68592e-06
-3.477527e-07
-3.087335e-07
-3.426454e-07
-5.397684e-07
-0.001729648
0.001736239
1.772086e-11
-4.377725e-06
-5.631141e-07
-5.424459e-07
-5.682464e-07
-7.026888e-07
-0.00174264
0.001748717
2.936907e-11
-3.216287e-06
-7.164358e-07
-7.130163e-07
-7.279854e-07
-8.10785e-07
-0.001754567
0.001760072
4.101649e-11
-2.224929e-06
-8.179923e-07
-8.224233e-07
-8.291739e-07
-8.899062e-07
-0.001765342
0.001770276
5.400794e-11
-1.348405e-06
-8.957996e-07
-8.973177e-07
-9.020594e-07
-9.639612e-07
-0.001774984
0.001779374
6.796298e-11
-5.162025e-07
-9.716828e-07
-9.6594e-07
-9.725719e-07
-1.04378e-06
-0.001783537
0.001787443
8.115485e-11
2.801619e-07
-1.051597e-06
-1.041994e-06
-1.049183e-06
-1.124896e-06
-0.001791162
0.001794627
9.083555e-11
1.047148e-06
-1.134078e-06
-1.121746e-06
-1.130851e-06
-1.201804e-06
-0.001797932
0.001801007
9.499981e-11
1.743201e-06
-1.209882e-06
-1.199082e-06
-1.207301e-06
-1.264847e-06
-0.001803949
0.001806689
9.156347e-11
2.328139e-06
-1.270899e-06
-1.263148e-06
-1.269356e-06
-1.311103e-06
-0.001809323
0.001811778
7.879765e-11
2.794307e-06
-1.314836e-06
-1.310146e-06
-1.313951e-06
-1.34553e-06
-0.001814143
0.001816324
5.488583e-11
3.204502e-06
-1.347922e-06
-1.344864e-06
-1.34727e-06
-1.3699e-06
-0.00181843
0.001820373
2.245579e-11
3.535918e-06
-1.370298e-06
-1.369278e-06
-1.369723e-06
-1.38726e-06
-0.001822254
0.001823979
-1.374539e-11
3.823068e-06
-1.387233e-06
-1.386608e-06
-1.386593e-06
-1.404195e-06
-0.001825651
0.001827168
-5.327786e-11
4.098659e-06
-1.404443e-06
-1.403319e-06
-1.403404e-06
-1.4262e-06
-0.001828639
0.001829953
-9.178937e-11
4.389502e-06
-1.427316e-06
-1.42467e-06
-1.425544e-06
-1.457092e-06
-0.001831225
0.001832335
-1.250801e-10
4.718233e-06
-1.459507e-06
-1.454771e-06
-1.456941e-06
-1.500915e-06
0.001834294
-1.490932e-10
5.111924e-06
-0.001833401
-1.504611e-06
-1.497841e-06
-1.501762e-06
-1.561432e-06
-0.001835134
0.001835793
-1.593178e-10
5.59178e-06
-1.566701e-06
-1.55838e-06
-1.563946e-06
-1.643887e-06
-0.001836384
0.001836737
-1.558513e-10
6.232882e-06
-1.651623e-06
-1.641097e-06
-1.648848e-06
-1.754175e-06
-0.001837018
0.001837008
-1.379141e-10
7.038144e-06
-1.762511e-06
-1.751312e-06
-1.759851e-06
-1.874663e-06
-0.001836901
0.001836441
-1.141691e-10
7.995984e-06
-1.895902e-06
-1.872279e-06
-1.89364e-06
-2.034992e-06
-0.001835901
0.001834929
-8.909598e-11
9.177354e-06
-2.070865e-06
-2.032427e-06
-2.066871e-06
-2.273901e-06
-0.001833803
0.001832124
-7.64978e-11
1.080473e-05
-2.292826e-06
-2.26996e-06
-2.288924e-06
-2.568096e-06
-0.00183016
0.001827572
-1.824729e-11
1.291645e-05
-2.59491e-06
-2.56708e-06
-2.59925e-06
-2.948898e-06
-0.001824587
0.001820935
3.533844e-11
1.553705e-05
-2.99444e-06
-2.947819e-06
-2.994355e-06
-3.451491e-06
-0.001816709
0.001811331
1.359865e-10
1.93269e-05
-3.531309e-06
-3.443678e-06
-3.522821e-06
-4.275518e-06
-0.001804942
0.001797501
2.348259e-10
2.470607e-05
-4.394914e-06
-4.239157e-06
-4.356284e-06
-5.481101e-06
-0.001788604
0.00177774
6.064947e-10
3.305352e-05
-5.765271e-06
-5.342375e-06
-5.601424e-06
-7.4465e-06
-0.001765556
0.001752337
9.693601e-10
4.287835e-05
-7.854236e-06
-7.03248e-06
-7.32737e-06
-1.261211e-05
-0.00173856
0.001724954
1.878007e-09
6.545234e-05
-1.40278e-05
-1.193811e-05
-1.327027e-05
-1.717526e-05
-0.00171115
0.001693049
1.157328e-09
8.625934e-05
-1.68835e-05
-1.696641e-05
-1.713435e-05
-1.261927e-05
-0.00166725
0.00163347
8.742242e-10
8.337217e-05
-1.158846e-05
-1.323167e-05
-1.215362e-05
-9.369785e-06
-0.001592003
0.001543961
1.117004e-09
8.536001e-05
-8.888415e-06
-9.816268e-06
-9.244251e-06
-7.80082e-06
-0.001490259
0.001432889
2.320416e-09
8.934491e-05
-7.82082e-06
-8.1706e-06
-8.185169e-06
-8.978493e-06
-0.00137511
0.001317648
1.621595e-09
9.426751e-05
-9.208967e-06
-9.188691e-06
-9.430533e-06
-7.956869e-06
-0.001261793
0.001206123
-9.611162e-10
8.698131e-05
-7.598982e-06
-8.078069e-06
-7.677041e-06
-6.263686e-06
-0.0011527
0.00110206
-2.800453e-09
7.527415e-05
-6.079383e-06
-6.244335e-06
-6.044415e-06
-5.445301e-06
-0.001056156
0.001014933
-2.915059e-09
6.284818e-05
-5.395668e-06
-5.413244e-06
-5.367582e-06
-4.957913e-06
-0.0009781801
0.0009456157
-2.015932e-09
5.230358e-05
-4.915035e-06
-4.952206e-06
-4.91204e-06
-4.567609e-06
-0.0009156966
0.0008887481
-9.015364e-10
4.517263e-05
-4.54175e-06
-4.569718e-06
-4.544104e-06
-3.70593e-06
-0.000862701
0.0008343953
-1.104498e-10
4.202185e-05
-3.148654e-06
-3.708748e-06
-3.152722e-06
-3.43186e-06
-0.0001976653
0.0001937015
-1.979534e-10
7.395858e-06
-3.856982e-06
-0.0001829278
0.0001797456
-1.415716e-09
7.040544e-06
-3.478546e-06
-0.0001716019
0.0001692762
-1.073321e-09
5.805267e-06
-2.794486e-06
-0.000163164
0.0001614143
-6.414362e-10
4.544854e-06
-1.903152e-06
-0.0001569323
0.0001557153
-4.242355e-10
3.120574e-06
-1.100334e-06
-0.0001527388
0.0001519821
-3.008633e-10
1.857322e-06
-6.506555e-07
-0.000150226
0.0001498085
-1.951114e-10
1.068355e-06
-4.771865e-07
-0.0001489052
0.0001487119
-1.157126e-10
6.706261e-07
-4.441064e-07
-0.0001483047
0.0001482169
-6.498575e-11
5.319426e-07
-4.813236e-07
-0.0001480082
0.0001479558
-3.603941e-11
5.337943e-07
-4.885581e-07
-0.0001478355
0.0001478173
-2.40108e-11
5.068342e-07
-4.378042e-07
-0.000147844
0.0001478934
-1.130931e-11
3.884203e-07
-3.56848e-07
-0.0001481562
0.0001482896
5.642991e-12
2.234517e-07
-2.870361e-07
-0.0001487982
0.0001490052
1.865729e-11
7.999497e-08
-2.428112e-07
-0.0001497052
0.0001499637
2.891208e-11
-1.569947e-08
-2.189549e-07
-0.0001507897
0.0001510818
3.083548e-11
-7.317172e-08
-2.050063e-07
-0.0001519965
0.0001523162
3.356177e-11
-1.147112e-07
-1.952758e-07
-0.0001533123
0.0001536584
3.779714e-11
-1.508684e-07
-1.879345e-07
-0.0001547324
0.0001551052
4.349249e-11
-1.849081e-07
-1.787427e-07
-0.0001562649
0.0001566695
5.587787e-11
-2.258366e-07
-1.646354e-07
-0.0001579341
0.000158378
7.363706e-11
-2.793293e-07
-1.451994e-07
-0.0001597717
0.0001602628
9.299021e-11
-3.459572e-07
-1.219242e-07
-0.0001618065
0.0001623509
1.14655e-10
-4.225153e-07
-9.63916e-08
-0.0001640615
0.0001646642
1.408833e-10
-5.064155e-07
-7.048064e-08
-0.0001665551
0.0001672197
1.655894e-10
-5.942574e-07
-4.508653e-08
-0.0001692977
0.000170025
1.22937e-10
-6.82292e-07
-2.38079e-08
-0.0001722906
0.0001730752
1.901444e-10
-7.609457e-07
-1.454713e-08
-0.0001755139
0.0001763564
2.127776e-10
-8.281328e-07
-1.047737e-08
-0.0001789562
0.00017985
2.229662e-10
-8.835112e-07
-1.360808e-08
-0.0001825973
0.0001835381
2.461778e-10
-9.274343e-07
-2.155109e-08
-0.0001864209
0.0001874052
2.607858e-10
-9.630016e-07
-3.425027e-08
-0.0001904155
0.0001914412
2.70621e-10
-9.917404e-07
-4.966941e-08
-0.0001945776
0.000195646
2.90676e-10
-1.019014e-06
-5.339025e-08
-0.0001989166
0.0002000365
3.049802e-10
-1.06674e-06
-8.127586e-10
-0.0002035053
0.0002047275
4.820898e-10
-1.221807e-06
8.261571e-07
-0.0002086141
0.0002096415
3.536325e-10
-1.853875e-06
1.80003e-06
-0.0002123301
0.000213308
3.2468e-10
-2.778254e-06
1.77393e-06
-0.0002164033
0.0002174643
3.459207e-10
-2.8352e-06
1.87827e-06
-0.0002206534
0.0002217209
3.326432e-10
-2.946125e-06
1.921671e-06
-0.0002249414
0.0002260232
3.246282e-10
-3.00378e-06
1.966766e-06
-0.0002292686
0.0002303498
3.12002e-10
-3.048215e-06
2.00338e-06
-0.0002335886
0.0002346677
3.091502e-10
-3.082779e-06
2.037196e-06
-0.0002378921
0.0002389633
3.062658e-10
-3.10871e-06
2.065299e-06
-0.0002421615
0.0002432223
2.989514e-10
-3.126345e-06
2.089276e-06
-0.0002463839
0.0002474308
2.794639e-10
-3.136469e-06
2.108139e-06
-0.0002505466
0.0002515764
2.660381e-10
-3.138197e-06
2.121423e-06
-0.000254636
0.0002556452
2.637226e-10
-3.130823e-06
2.128622e-06
-0.0002586376
0.0002596222
2.560607e-10
-3.113394e-06
2.128994e-06
-0.0002625353
0.0002634909
2.496484e-10
-3.084859e-06
2.121707e-06
-0.0002663113
0.0002672332
2.360414e-10
-3.043929e-06
2.105695e-06
-0.0002699461
0.0002708294
2.26706e-10
-2.98919e-06
2.080548e-06
-0.0002734187
0.0002742575
2.183336e-10
-2.919577e-06
2.045411e-06
-0.000276706
0.0002774946
2.029688e-10
-2.834222e-06
2.00012e-06
-0.0002797845
0.000280517
1.874747e-10
-2.732796e-06
1.94467e-06
-0.0002826307
0.0002833014
1.759462e-10
-2.61553e-06
1.879793e-06
-0.0002852219
0.0002858255
1.581402e-10
-2.483471e-06
1.80695e-06
-0.0002875379
0.0002880693
1.376533e-10
-2.338467e-06
1.726748e-06
-0.000289561
0.0002900169
1.251966e-10
-2.182745e-06
1.640871e-06
-0.0002912781
0.0002916563
1.122607e-10
-2.019149e-06
1.551402e-06
-0.0002926804
0.0002929793
9.606561e-11
-1.850408e-06
1.464003e-06
-0.0002937716
0.0002939904
6.397313e-11
-1.682825e-06
1.353733e-06
-0.0002945361
0.0002946833
4.748487e-11
-1.501002e-06
1.272449e-06
-0.0002950178
0.0002950868
3.604012e-11
-1.341514e-06
1.197856e-06
-0.0002951962
0.0002951947
2.454915e-11
-1.196378e-06
1.122922e-06
-0.0002951001
0.0002950334
1.662573e-11
-1.056195e-06
1.048155e-06
-0.0002947495
0.0002946218
-1.884685e-11
-9.204606e-07
9.731401e-07
-0.0002941608
0.0002939763
-5.808967e-11
-7.88497e-07
8.96318e-07
-0.000293349
0.000293111
-4.536226e-11
-6.582532e-07
8.143421e-07
-0.0002923312
0.000292051
-2.371912e-11
-5.341063e-07
7.848298e-07
-0.0002910891
0.000290612
1.065696e-10
-3.07814e-07
4.250671e-07
-0.0002868429
0.001176848
-3.733871e-11
5.083733e-07
-3.915379e-07
4.256615e-07
-4.058462e-07
-0.0002868463
-0.0003018591
-0.0003018618
-2.242304e-07
-0.00117707
0.001174727
-9.096925e-11
2.733936e-06
4.361737e-08
-2.37055e-07
2.704788e-08
-2.293619e-07
-0.001172007
0.00116861
-1.3147e-10
4.249456e-06
-1.880411e-07
-2.388927e-07
-1.963503e-07
-4.201294e-07
-0.001164955
0.001160627
-3.414564e-10
6.054395e-06
-4.231491e-07
-4.297223e-07
-4.533743e-07
-1.193403e-06
-0.001155854
0.001150919
-4.544786e-10
1.033128e-05
-1.40329e-06
-1.305936e-06
-1.492464e-06
-2.150679e-06
-0.001146376
0.001142205
-4.815704e-11
1.263335e-05
-2.130412e-06
-2.113466e-06
-2.066877e-06
-1.016528e-06
-0.001137722
0.001132156
1.998259e-10
8.770297e-06
-6.554079e-07
-9.293811e-07
-6.026431e-07
2.370636e-07
-0.001126322
0.001120609
1.277598e-10
4.572717e-06
3.448323e-07
2.258459e-07
3.322989e-07
6.5755e-07
-0.001115217
0.001110124
1.588909e-11
2.448151e-06
6.763003e-07
6.456912e-07
6.648911e-07
6.792675e-07
-0.001105269
0.001100512
-8.525475e-11
2.085376e-06
6.662574e-07
6.695035e-07
6.568427e-07
5.5141e-07
-0.001095761
0.001090872
-1.526636e-10
2.735765e-06
5.330016e-07
5.434408e-07
5.253292e-07
4.117454e-07
-0.001085776
0.001080371
-1.767596e-10
3.797598e-06
3.986809e-07
4.049905e-07
3.921609e-07
3.015376e-07
-0.001074648
0.001068556
-1.427316e-10
4.914144e-06
2.925693e-07
2.959305e-07
2.872477e-07
2.214136e-07
-0.00106214
0.001055388
-4.53738e-11
5.887307e-06
2.148465e-07
2.171564e-07
2.108599e-07
1.664116e-07
-0.001048382
0.001041131
1.217e-10
6.599914e-06
1.616026e-07
1.634996e-07
1.588981e-07
1.315299e-07
-0.00103373
0.001026193
3.151006e-10
7.019585e-06
1.285837e-07
1.297487e-07
1.268789e-07
1.120667e-07
-0.001018612
0.001011012
4.651787e-10
7.15343e-06
1.120055e-07
1.111824e-07
1.109397e-07
1.19482e-07
-0.001003483
0.0009960597
4.961445e-10
6.944236e-06
1.207751e-07
1.185611e-07
1.199391e-07
1.696411e-07
-0.0009888182
0.0009817995
3.904631e-10
6.331308e-06
1.74484e-07
1.689861e-07
1.739091e-07
2.603235e-07
-0.0009750556
0.0009686289
2.144845e-10
5.366665e-06
2.701729e-07
2.59723e-07
2.696124e-07
3.772312e-07
-0.0009625303
0.0009568107
4.960123e-11
4.186757e-06
3.897899e-07
3.766085e-07
3.891883e-07
5.055108e-07
-0.000951454
0.0009465222
-5.95125e-11
2.880148e-06
5.208032e-07
5.049325e-07
5.204116e-07
6.437212e-07
-0.0009419539
0.0009377954
-1.094572e-10
1.536877e-06
6.672571e-07
6.435772e-07
6.671518e-07
7.921679e-07
-0.0009339673
0.000930553
-1.130359e-10
2.133244e-07
8.085992e-07
7.919234e-07
8.084435e-07
9.084243e-07
-0.0009274142
0.0009246539
-9.718222e-11
-9.002482e-07
9.221813e-07
9.082038e-07
9.218862e-07
9.859103e-07
-0.0009221148
0.0009198553
-7.459232e-11
-1.699257e-06
9.937672e-07
9.856591e-07
9.934521e-07
1.002264e-06
-0.000917719
0.0009156872
-5.341748e-11
-1.976727e-06
1.002054e-06
1.002192e-06
1.002033e-06
9.531018e-07
-0.000913674
0.0009115769
-3.730517e-11
-1.696785e-06
9.438124e-07
9.531401e-07
9.438802e-07
8.344396e-07
-0.00090937
0.0009068822
-2.692388e-11
-8.113048e-07
8.150426e-07
8.345055e-07
8.151037e-07
6.496524e-07
-0.0009041412
0.0009008791
-2.192563e-11
7.153138e-07
6.237247e-07
6.497106e-07
6.237909e-07
4.015835e-07
-0.0008972232
0.0008929381
-2.123352e-11
2.744563e-06
3.685651e-07
4.016989e-07
3.686826e-07
9.996193e-08
-0.0008882043
0.0008827988
-2.356585e-11
5.087268e-06
5.900745e-08
1.000965e-07
5.913325e-08
-2.074714e-07
-0.0008769108
0.0008702999
-2.82829e-11
7.51597e-06
-2.45233e-07
-2.072881e-07
-2.450403e-07
-5.168066e-07
-0.000863259
0.0008555657
-3.212456e-11
9.831116e-06
-5.523186e-07
-5.1657e-07
-5.520673e-07
-8.010943e-07
-0.0008475119
0.0008389191
-3.522704e-11
1.186073e-05
-8.331924e-07
-8.00736e-07
-8.328071e-07
-1.064417e-06
-0.00083009
0.0008209231
-3.638176e-11
1.349141e-05
-1.098301e-06
-1.063938e-06
-1.097823e-06
-1.246362e-06
-0.0008116104
0.0008020863
-3.42762e-11
1.454137e-05
-1.262682e-06
-1.245879e-06
-1.262245e-06
-1.338996e-06
-0.0007925014
0.0007828822
-3.057203e-11
1.498635e-05
-1.344907e-06
-1.338652e-06
-1.344552e-06
-1.3578e-06
-0.0007733112
0.0007638867
-2.575873e-11
1.484582e-05
-1.353425e-06
-1.357247e-06
-1.352787e-06
-1.302916e-06
-0.000754609
0.000745642
-2.014294e-11
1.414695e-05
-1.288722e-06
-1.301311e-06
-1.286932e-06
-1.17971e-06
-0.0007369077
0.0007286311
-1.473161e-11
1.29476e-05
-1.156074e-06
-1.179535e-06
-1.155675e-06
-9.894806e-07
-0.0007206543
0.0007132497
-9.599725e-12
1.130073e-05
-9.56841e-07
-9.912483e-07
-9.584838e-07
-7.45997e-07
-0.0007062097
0.000699861
-4.453726e-12
9.254608e-06
-7.072918e-07
-7.45362e-07
-7.072343e-07
-4.463836e-07
-0.000693946
0.0006888581
6.511248e-13
6.786616e-06
-4.029234e-07
-4.464783e-07
-4.029571e-07
-9.692957e-08
-0.0006842944
0.0006807011
5.527332e-12
3.891401e-06
-5.197746e-08
-9.709141e-08
-5.209672e-08
2.519793e-07
-0.0006777416
0.0006759597
1.01662e-11
7.047212e-07
2.872817e-07
2.512492e-07
2.866738e-07
6.886975e-07
-0.0006748372
0.0006748758
1.480371e-11
-2.945706e-06
7.656731e-07
6.877372e-07
7.650013e-07
1.233426e-06
-0.0006755384
0.0006774064
1.886826e-11
-6.960781e-06
1.314242e-06
1.23209e-06
1.312984e-06
1.795875e-06
-0.0006799179
0.0006836685
2.171571e-11
-1.110009e-05
1.880495e-06
1.794299e-06
1.878849e-06
2.371329e-06
-0.0006880634
0.0006936994
2.337403e-11
-1.529001e-05
2.457603e-06
2.369519e-06
2.455576e-06
2.946593e-06
-0.0006999711
0.0007074618
2.408213e-11
-1.944445e-05
3.032459e-06
2.944596e-06
3.030053e-06
3.50662e-06
-0.0007155669
0.0007248353
2.396736e-11
-2.345921e-05
3.591126e-06
3.504584e-06
3.588401e-06
4.046794e-06
-0.000734667
0.0007454882
2.303684e-11
-2.719326e-05
4.141643e-06
4.044808e-06
4.138818e-06
4.487067e-06
-0.0007566222
0.0007688089
2.113755e-11
-3.036584e-05
4.604331e-06
4.485317e-06
4.602384e-06
4.662768e-06
-0.0007824578
0.0007959525
1.895381e-11
-3.23812e-05
4.784118e-06
4.658735e-06
4.780816e-06
5.013642e-06
-0.0008094446
0.0008236258
1.63269e-11
-3.412019e-05
4.958044e-06
5.01128e-06
4.956006e-06
5.049392e-06
-0.0008380653
0.0008526304
1.395423e-11
-3.475444e-05
5.048065e-06
5.046457e-06
5.04538e-06
5.109392e-06
-0.0008672219
0.0008818668
1.183859e-11
-3.506973e-05
5.105612e-06
5.106894e-06
5.102991e-06
5.161089e-06
-0.0008965155
0.0009112194
9.718667e-12
-3.535834e-05
5.168761e-06
5.158472e-06
5.166119e-06
5.237029e-06
-0.0009259547
0.0009407874
7.85588e-12
-3.579346e-05
5.246107e-06
5.234308e-06
5.243352e-06
5.29704e-06
-0.0009556765
0.0009706206
6.513855e-12
-3.613281e-05
5.300128e-06
5.294258e-06
5.297358e-06
5.298652e-06
-0.0009855959
0.001000516
4.863793e-12
-3.609291e-05
5.290342e-06
5.295918e-06
5.287639e-06
5.219198e-06
-0.001015414
0.001030126
3.589156e-12
-3.553949e-05
5.197342e-06
5.21657e-06
5.194766e-06
5.048367e-06
-0.001044756
0.001059061
3.707042e-12
-3.442066e-05
5.011484e-06
5.045929e-06
5.009113e-06
4.77548e-06
-0.001073222
0.001086905
4.27106e-12
-3.267416e-05
4.721931e-06
4.773273e-06
4.719807e-06
4.393016e-06
-0.001100369
0.001113201
3.609412e-12
-3.026056e-05
4.323096e-06
4.391037e-06
4.321162e-06
3.908386e-06
-0.001125734
0.001137504
1.809173e-12
-2.723254e-05
3.824892e-06
3.906679e-06
3.823242e-06
3.342792e-06
-0.001148905
0.001159466
6.710018e-15
-2.374298e-05
3.249711e-06