/*--------------------------------*- C++ -*----------------------------------*\
| =========                 |                                                 |
| \\      /  F ield         | foam-extend: Open Source CFD                    |
|  \\    /   O peration     | Version:     3.1                                |
|   \\  /    A nd           | Web:         http://www.extend-project.de       |
|    \\/     M anipulation  |                                                 |
\*---------------------------------------------------------------------------*/
FoamFile
{
    version     2.0;
    format      ascii;
    class       volScalarField;
    location    "14.5";
    object      alpha1;
}
// * * * * * * * * * * * * * * * * * * * * * * * * * * * * * * * * * * * * * //

dimensions      [0 0 0 0 0 0 0];

internalField   nonuniform List<scalar> 
119952
(
1
1
1
1
1
1
1
1
1
1
1
1
1
1
1
1
1
1
1
0.9999999
1
1
1
0.9999998
1
0.9999999
0.9999999
1
0.9999998
1
1
0.9999999
0.9999999
1
1
0.9999999
1
0.9999999
1
1
1
0.9999998
1
1
1
1
0.9999999
1
0.9999999
1
0.9999999
0.9999999
1
1
1
1
0.9999999
1
1
1
1
1
1
1
1
1
1
1
1
1
1
1
1
1
1
1
1
1
1
1
1
1
1
1
0.9999999
1
1
1
0.9999999
0.9999999
1
1
0.9999997
0.9999997
0.9999999
1
1
1
0.9999997
0.9999999
1
0.9999999
0.9999999
1
1
1
1
1
1
0.9999998
0.9999997
1
1
1
1
0.9999998
0.9999999
1
1
0.9999999
0.9999999
1
1
1
1
1
1
1
1
1
1
1
1
1
1
1
0.9999999
1
1
1
1
1
1
0.9999999
1
1
1
1
1
1
1
1
0.9999999
1
1
1
1
1
0.9999999
1
1
1
1
1
1
1
1
1
1
1
1
1
1
1
1
1
1
1
1
1
1
1
1
1
1
1
1
1
1
1
1
1
1
1
1
1
1
1
1
1
1
1
1
1
1
1
1
1
1
1
1
1
1
1
1
1
1
1
1
1
1
1
1
1
1
1
1
1
1
1
1
1
1
1
1
1
1
1
1
1
1
1
1
1
1
1
1
1
1
1
1
1
1
1
1
1
1
1
1
1
1
1
1
1
1
1
1
1
1
1
1
1
1
1
1
1
1
1
1
1
1
1
1
1
1
1
1
1
1
1
1
1
1
1
1
1
1
1
1
1
1
1
1
1
1
1
1
1
1
1
1
1
1
1
1
1
1
1
1
1
1
1
0.9999999
1
1
1
0.9999999
1
1
1
0.9999999
0.9999999
1
1
0.9999998
1
1
0.9999998
1
0.9999999
0.9999998
1
1
0.9999998
0.9999998
1
1
1
1
0.9999998
0.9999997
1
1
0.9999998
1
1
0.9999999
1
1
1
1
1
1
1
1
1
1
1
1
1
1
1
1
1
1
1
1
1
1
1
1
1
1
1
1
1
1
1
1
1
1
1
1
1
1
1
1
1
0.9999999
1
1
1
0.9999999
1
1
1
1
1
1
1
1
1
1
1
1
1
1
1
1
1
1
1
1
1
1
1
1
1
1
1
1
1
1
1
1
1
1
1
1
1
1
0.9999999
1
1
1
0.9999999
0.9999999
1
1
1
0.9999999
0.9999999
1
1
1
1
1
1
1
1
1
1
1
1
1
1
1
1
1
1
1
1
1
1
1
1
1
1
1
1
1
1
1
1
1
1
1
0.9999999
0.9999999
0.9999999
1
1
1
1
1
1
1
0.9999999
1
1
1
1
1
1
0.9999999
0.9999998
0.9999999
1
1
1
1
1
1
1
1
1
1
1
1
1
1
1
1
1
1
1
1
1
1
1
1
1
1
1
0.9999999
0.9999999
0.9999999
1
1
1
0.9999999
0.9999999
1
1
1
1
0.9999999
0.9999999
0.9999999
1
1
1
1
1
1
0.9999999
0.9999999
0.9999999
1
1
1
1
1
1
1
1
1
1
1
1
1
0.9999999
0.9999999
1
1
1
1
1
1
1
1
1
1
1
1
1
1
1
1
1
1
1
1
1
1
1
1
1
1
1
1
1
1
1
1
1
1
1
1
1
1
1
1
1
1
1
1
1
1
1
1
1
1
1
1
1
1
1
1
1
1
1
1
1
1
1
1
1
1
1
1
1
1
1
1
1
1
1
1
1
0.9999999
1
1
1
1
1
1
1
1
1
1
1
1
1
1
1
1
1
1
1
1
1
1
1
1
1
1
1
1
1
1
1
1
1
1
1
1
1
1
1
1
1
1
1
1
1
1
1
1
1
1
1
1
1
1
1
1
1
1
1
1
1
1
1
1
1
1
1
1
1
1
1
1
1
1
1
1
1
1
1
1
1
1
1
1
0.9999999
0.9999999
1
1
1
1
1
1
1
1
0.9999999
0.9999999
1
1
1
1
1
1
1
0.9999999
0.9999999
0.9999999
0.9999999
1
0.9999999
0.9999993
0.9999992
0.9999992
0.9999992
0.9999992
0.9999993
0.9999998
1
1
1
1
0.9999999
0.9999999
1
1
1
1
1
1
1
1
1
1
1
1
1
1
1
1
1
1
1
1
1
1
1
1
1
1
1
1
1
1
1
1
1
1
1
1
1
1
1
1
1
1
1
1
1
1
1
1
1
1
1
0.9999999
1
1
1
1
1
1
1
1
1
1
1
1
1
1
1
1
1
1
1
1
1
1
1
1
1
1
1
1
1
1
1
1
1
1
1
1
1
1
1
1
1
1
1
1
1
1
1
1
1
1
1
1
1
1
1
1
1
1
1
1
1
1
1
1
1
1
1
1
1
1
1
1
1
1
0.9999999
1
1
1
1
0.9999999
0.9999999
0.9999999
1
1
1
1
1
1
1
1
1
1
1
1
1
1
1
1
1
1
1
1
1
1
1
1
1
1
1
1
1
1
1
1
1
0.9999999
0.9999999
0.9999999
0.9999999
1
1
1
1
1
1
1
1
0.9999999
0.9999999
1
1
1
1
0.9999999
0.9999999
1
1
1
1
1
0.9999999
0.9999999
1
1
1
1
1
1
1
1
1
1
1
1
1
0.9999999
0.9999999
1
1
1
0.9999999
0.9999999
0.9999999
1
1
1
1
1
1
1
1
1
1
0.9999999
0.9999999
1
1
1
1
1
1
1
1
0.9999999
0.9999999
1
1
1
1
1
1
1
1
1
1
1
1
1
0.9999999
0.9999999
0.9999999
1
1
1
1
1
1
1
1
1
1
1
1
1
1
1
1
1
1
1
1
1
1
1
1
1
1
1
1
1
1
1
1
1
1
1
1
1
1
1
1
1
1
1
1
1
1
1
1
1
1
1
1
1
1
1
1
1
1
1
1
1
1
1
1
1
1
1
1
1
1
1
1
0.9999999
0.9999999
1
1
1
1
1
1
0.9999999
0.9999999
0.9999999
1
1
1
1
1
1
1
1
1
1
1
1
1
1
1
1
1
1
1
1
1
1
1
1
1
1
1
1
1
1
1
1
1
1
1
1
1
1
1
1
1
1
1
1
1
1
1
1
1
1
0.9999999
0.9999999
1
1
1
1
1
1
1
1
1
1
1
1
1
1
1
1
1
1
1
1
1
1
0.9999998
0.9999996
0.9999997
0.9999999
1
1
1
1
1
1
1
1
1
1
1
1
1
1
1
1
0.9999998
0.999999
0.9999943
0.9999872
0.9999912
0.9999977
0.9999998
1
1
1
0.9999999
0.9999998
0.9999998
0.9999998
0.9999999
1
1
1
1
0.9999999
0.9999999
0.9999999
1
1
1
1
1
1
1
1
1
1
1
1
1
1
1
1
1
1
1
1
1
1
1
1
1
1
1
1
1
1
1
1
1
1
1
1
1
1
1
1
1
1
1
1
1
1
1
1
1
1
1
1
1
1
1
1
1
1
1
1
1
1
1
1
1
1
1
1
1
1
1
1
1
1
1
1
1
1
1
1
1
1
1
1
1
1
1
1
1
1
1
1
1
1
1
1
1
1
1
1
0.9999999
0.9999999
0.9999999
1
1
1
1
1
1
1
1
1
1
1
1
1
1
1
1
1
1
0.9999999
0.9999999
1
1
1
1
1
1
1
1
1
1
1
1
1
1
1
1
1
1
1
0.9999999
0.9999999
0.9999999
1
1
1
1
1
1
1
1
1
1
1
1
1
1
1
1
1
1
1
1
1
1
1
1
1
1
1
1
1
1
1
1
1
1
0.9999999
0.9999999
0.9999999
1
1
1
1
1
1
1
1
1
1
1
1
1
1
1
1
1
1
1
0.9999999
0.9999998
0.9999998
0.9999998
0.9999999
1
1
1
1
1
1
1
1
1
1
0.9999999
0.9999998
0.9999999
1
1
1
1
1
0.9999999
0.9999999
1
1
1
1
1
1
1
1
1
1
1
1
1
1
1
1
1
1
1
1
1
1
1
1
1
1
1
1
1
1
1
1
1
1
0.9999999
0.9999999
0.9999999
1
1
1
1
1
1
1
1
1
1
1
0.9999999
0.9999999
1
1
1
1
1
1
1
1
1
1
1
1
1
1
0.9999999
0.9999999
0.9999999
1
1
1
1
1
1
1
1
1
1
1
1
1
1
1
1
1
1
1
1
1
1
1
1
1
1
1
1
1
1
1
1
1
1
1
1
1
1
1
1
1
1
1
1
1
1
1
1
1
1
1
1
1
1
1
1
1
1
1
1
1
0.9999999
0.9999999
0.9999999
1
1
1
1
1
1
1
1
1
1
1
1
1
1
1
1
1
1
1
1
1
1
1
1
1
1
1
1
1
1
1
0.9999999
0.9999999
0.9999999
1
1
1
1
1
1
0.9999999
0.9999999
1
1
1
1
1
1
0.9999999
0.9999999
1
1
1
1
1
1
1
1
1
1
0.9999999
0.9999997
0.9999986
0.9999969
0.9999975
0.9999992
0.9999999
1
1
1
1
1
1
1
1
0.9999999
0.9999998
0.9999999
1
1
1
1
0.9999997
0.9999984
0.99999
0.9999539
0.9999432
0.9999747
0.9999965
0.9999999
1
1
1
1
1
1
1
1
1
1
0.9999999
0.9999998
0.9999991
0.999999
0.9999994
0.9999999
1
1
1
1
1
1
1
1
1
1
1
1
1
1
1
1
1
1
1
1
1
1
1
1
1
1
1
1
1
1
1
1
1
1
1
1
1
1
1
1
1
1
1
1
1
1
1
1
1
1
1
1
1
1
1
1
1
1
1
1
1
1
1
1
1
1
1
1
1
1
1
1
1
1
1
1
1
1
1
1
1
1
1
1
1
1
1
1
1
1
1
1
1
1
1
1
1
1
1
1
0.9999999
0.9999999
0.9999999
1
1
1
1
1
1
1
1
1
1
0.9999999
0.9999999
0.9999999
1
1
1
1
1
1
1
1
1
1
1
1
1
1
1
1
1
1
1
1
1
1
1
1
1
1
1
1
1
1
1
1
1
1
1
1
1
1
1
1
1
0.9999999
0.9999999
1
1
1
1
0.9999999
0.9999998
0.9999993
0.9999986
0.9999981
0.999998
0.999998
0.9999983
0.9999993
0.9999999
1
1
1
0.9999999
0.9999996
0.9999992
0.9999994
0.9999997
1
1
1
1
1
1
1
1
1
1
0.9999999
1
1
1
1
1
1
1
1
1
1
1
1
1
1
1
1
1
1
0.9999998
0.9999993
0.9999988
0.9999989
0.9999992
0.9999992
0.9999985
0.9999954
0.9999906
0.9999906
0.9999917
0.9999937
0.9999968
0.9999994
0.9999992
0.9999947
0.9999936
0.9999963
0.9999994
1
1
1
1
1
1
1
0.9999999
1
1
1
1
1
1
1
1
1
1
1
1
1
1
1
1
1
1
1
1
1
1
0.9999999
0.9999999
1
1
1
1
1
1
1
1
1
0.9999999
0.9999998
0.9999998
0.9999998
0.9999999
1
1
1
1
1
1
1
1
1
1
1
1
1
1
1
1
1
1
1
1
1
1
1
1
1
1
0.9999999
0.9999999
1
1
1
1
1
1
1
1
1
1
1
1
1
1
1
1
1
1
1
1
1
1
1
1
1
1
1
1
1
1
1
1
1
1
1
1
1
1
1
1
1
1
1
1
1
1
1
1
1
1
1
1
1
1
1
1
1
1
1
1
1
1
1
1
0.9999999
0.9999999
1
1
1
1
1
1
1
1
1
1
1
1
1
1
1
1
0.9999998
0.9999999
1
1
1
1
1
1
1
1
1
1
1
1
0.9999999
0.9999999
0.9999999
0.9999999
1
1
1
1
1
1
0.9999999
0.9999999
1
1
1
1
0.9999999
0.9999998
0.9999999
1
1
1
1
1
1
1
0.9999999
0.9999995
0.9999975
0.9999865
0.9999722
0.9999813
0.9999951
0.9999996
1
1
1
1
1
1
0.9999999
0.9999996
0.9999984
0.9999962
0.9999961
0.9999982
0.9999997
1
1
0.9999998
0.999998
0.9999848
0.9999143
0.9997513
0.9997631
0.9999136
0.9999909
0.9999998
1
1
1
1
1
1
1
0.9999999
0.9999996
0.9999979
0.99999
0.9999683
0.9999692
0.9999891
0.9999989
0.9999999
0.9999999
0.9999999
0.9999998
0.9999996
0.9999991
0.9999991
0.9999997
1
1
1
1
1
1
1
1
1
1
1
1
1
1
1
1
1
1
1
1
1
1
1
1
1
1
1
1
1
1
1
1
1
1
1
1
1
1
1
1
1
1
1
1
1
1
1
1
1
1
1
1
1
1
1
1
1
1
1
1
1
1
1
1
1
1
1
1
1
1
1
1
1
1
1
1
1
1
1
1
1
1
1
1
1
1
1
1
1
1
1
1
1
1
1
1
1
1
1
1
1
1
1
1
1
1
0.9999999
0.9999999
0.9999999
1
1
1
1
1
1
1
1
1
1
0.9999999
1
1
1
1
1
1
1
1
1
1
1
1
1
1
1
1
1
1
1
1
1
1
1
1
1
1
1
1
1
1
1
1
1
1
1
1
1
0.9999999
0.999999
0.9999946
0.999985
0.9999783
0.9999841
0.9999948
0.9999993
0.9999993
0.9999977
0.9999901
0.9999632
0.99987
0.9995269
0.9989138
0.9990904
0.9997386
0.9999807
0.9999998
1
1
0.9999997
0.9999963
0.9999813
0.9999752
0.9999822
0.9999949
0.9999995
1
1
1
1
1
1
1
0.9999999
0.9999998
0.9999995
0.999999
0.9999975
0.9999956
0.9999966
0.9999992
1
1
1
1
1
0.9999999
0.9999995
0.9999987
0.9999986
0.9999994
0.9999999
0.9999999
0.9999997
0.9999988
0.9999956
0.9999939
0.9999953
0.9999962
0.9999921
0.999956
0.9997265
0.9986313
0.9972131
0.9970688
0.9972316
0.9986677
0.999794
0.999992
0.9999992
0.9999985
0.9999961
0.9999972
0.9999993
0.9999999
1
1
1
1
1
1
1
1
1
1
1
1
1
1
1
1
1
1
1
1
1
1
0.9999998
0.9999997
0.9999998
0.9999999
0.9999998
0.9999996
0.9999994
0.9999997
0.9999999
1
1
1
1
1
1
1
0.9999999
0.9999991
0.9999975
0.9999974
0.9999983
0.9999995
0.9999998
0.9999998
0.9999997
0.9999997
0.9999996
0.9999996
0.9999997
0.9999999
1
1
1
1
1
1
1
1
0.9999999
0.9999996
0.9999984
0.9999978
0.9999983
0.9999996
1
1
1
1
1
1
1
1
1
1
1
1
0.9999999
0.9999998
0.9999999
1
1
1
1
1
1
1
1
1
1
1
1
1
1
1
1
1
1
1
1
1
1
1
1
1
1
1
1
1
1
1
1
1
1
1
1
1
1
1
1
1
1
1
1
1
1
1
1
1
1
1
0.9999999
1
1
1
1
1
1
1
1
1
1
1
1
1
1
1
1
1
1
1
1
0.9999999
0.9999996
0.9999996
0.9999998
1
1
1
1
1
1
1
1
1
1
1
1
1
0.9999999
0.9999999
1
1
1
1
1
0.9999999
0.9999997
0.9999997
0.9999999
1
1
1
0.9999999
0.9999997
0.9999997
0.9999999
1
1
1
1
0.9999999
0.9999997
0.999999
0.9999947
0.9999636
0.9998501
0.9998556
0.9999467
0.9999945
0.9999999
1
1
1
1
0.9999998
0.9999993
0.9999973
0.9999888
0.9999612
0.9999387
0.9999567
0.9999894
0.999999
0.9999991
0.9999985
0.9999971
0.9999918
0.9999558
0.9997012
0.9987592
0.9989063
0.9996066
0.9999578
0.9999991
1
1
1
1
1
0.9999999
0.9999996
0.9999981
0.9999907
0.999952
0.9997909
0.9996851
0.9998343
0.9999714
0.9999984
0.9999994
0.9999993
0.9999985
0.9999951
0.9999853
0.9999831
0.9999925
0.999999
1
1
1
1
1
1
1
1
1
1
1
1
1
1
1
1
1
1
1
1
1
1
1
1
1
1
1
1
1
1
1
1
1
1
1
1
1
1
1
1
1
1
1
1
1
1
1
1
1
1
1
1
1
1
1
1
1
1
1
1
1
1
1
1
1
1
1
1
1
1
1
1
1
1
1
1
1
1
1
1
1
1
1
1
1
1
1
1
1
1
1
1
1
1
1
1
1
1
1
1
1
0.9999999
0.9999999
1
1
1
1
1
1
1
1
1
1
1
0.9999999
1
1
1
1
1
1
1
1
1
1
1
1
1
1
1
1
1
1
1
1
1
1
1
1
0.9999999
0.9999995
0.9999975
0.999997
0.9999975
0.9999985
0.9999995
0.9999999
1
1
1
1
1
1
1
1
1
1
1
1
1
0.9999999
0.9999996
0.999996
0.9999653
0.9997858
0.9992801
0.9990961
0.9993538
0.9998113
0.9999812
0.9999882
0.9999763
0.9999015
0.999361
0.9948316
0.9786181
0.9802828
0.9936365
0.9994026
0.9999876
0.9999999
1
0.9999994
0.9999951
0.9999711
0.9998734
0.99979
0.9998827
0.9999739
0.9999979
0.9999989
0.9999988
0.9999988
0.9999989
0.999999
0.9999988
0.9999977
0.9999936
0.9999756
0.9998834
0.9995135
0.9993958
0.9996893
0.9999589
0.9999987
1
1
0.9999999
0.9999994
0.9999953
0.9999696
0.9999062
0.9999206
0.999977
0.9999983
0.9999999
0.9999998
0.9999985
0.9999927
0.9999794
0.9999709
0.9999595
0.9999593
0.9999663
0.999891
0.9988317
0.99087
0.9588454
0.9331666
0.9592185
0.9911869
0.9994347
0.999988
0.9999992
0.9999992
0.999999
0.9999994
0.9999996
0.9999998
1
1
1
1
1
1
1
1
1
1
1
1
1
1
1
0.9999998
0.9999996
0.9999997
0.9999999
0.9999999
0.9999999
0.9999994
0.9999973
0.9999972
0.9999989
0.9999996
0.9999992
0.9999977
0.9999979
0.9999992
0.9999999
1
1
1
1
1
1
1
1
0.9999993
0.999993
0.9999882
0.9999903
0.9999906
0.9999877
0.9999845
0.9999851
0.9999932
0.9999989
0.9999999
1
1
0.9999999
0.9999999
0.9999998
0.9999993
0.999997
0.9999855
0.9999256
0.9995975
0.999041
0.9991307
0.999658
0.9999543
0.9999985
1
1
1
1
1
1
1
1
1
1
0.9999998
0.999998
0.9999973
0.9999982
0.9999996
1
1
1
1
1
1
1
1
1
1
0.9999999
0.9999994
0.999999
0.9999992
0.9999997
1
1
1
1
1
1
1
1
1
1
1
1
1
1
1
1
1
1
1
1
1
1
1
1
1
1
1
1
1
1
1
1
0.9999999
1
1
1
1
0.9999999
0.9999999
1
1
1
1
1
1
1
1
1
1
1
1
1
1
1
1
1
1
1
0.9999998
0.9999991
0.9999986
0.9999992
0.9999999
1
1
1
1
1
1
1
1
1
1
1
1
1
1
1
1
1
0.9999999
0.9999997
0.9999989
0.9999977
0.999998
0.9999994
0.9999999
1
1
1
0.9999999
0.9999997
0.9999997
0.9999999
1
1
1
0.9999993
0.999995
0.999982
0.9999408
0.9997362
0.9996465
0.9996465
0.9997663
0.9999545
0.9999981
1
1
0.9999999
0.9999997
0.9999977
0.9999867
0.9999352
0.9997484
0.9994237
0.999403
0.9996987
0.9999558
0.9999899
0.9999777
0.9998914
0.9996805
0.9996004
0.9995604
0.9988783
0.9982599
0.9982599
0.9982599
0.9989616
0.9998357
0.9999945
1
1
1
1
0.9999999
0.9999985
0.9999862
0.9999095
0.9994571
0.9982289
0.9983015
0.9993965
0.9999357
0.9999958
0.9999955
0.9999888
0.99996
0.9998639
0.999783
0.999866
0.9999729
0.9999984
1
1
1
1
1
1
1
1
1
1
1
1
1
1
1
1
1
1
1
1
1
1
1
1
1
1
1
1
1
1
1
1
1
1
1
1
1
1
1
1
1
1
1
1
1
1
1
1
1
1
1
1
1
1
1
1
1
1
1
1
1
1
1
1
1
1
1
1
1
1
1
1
1
1
1
1
1
1
1
1
1
1
1
1
1
1
1
1
1
1
1
1
1
1
1
1
1
1
1
1
1
1
1
0.9999999
0.9999999
1
1
1
1
1
1
1
1
1
1
1
1
1
1
1
1
1
1
1
1
1
1
1
1
1
1
1
0.9999999
0.9999997
0.9999996
0.9999997
0.9999997
0.9999996
0.9999986
0.9999889
0.999928
0.9995502
0.9981843
0.997867
0.9981022
0.998981
0.9998223
0.9999926
0.9999999
1
1
1
0.9999999
0.9999999
0.9999999
0.9999999
0.9999999
0.9999999
0.9999995
0.9999985
0.9999966
0.9999896
0.9999505
0.9997156
0.9981194
0.9932671
0.9910725
0.9946496
0.998721
0.9998504
0.9998674
0.9997817
0.9990929
0.9911009
0.9292823
0.8973832
0.9329141
0.9870457
0.9993454
0.9999908
0.9999994
0.9999992
0.9999889
0.9998948
0.9996709
0.999243
0.9992612
0.9996837
0.9999531
0.9999844
0.9999779
0.9999553
0.9999442
0.9999485
0.9999597
0.9999608
0.9999442
0.9997861
0.9982849
0.991057
0.9898822
0.9952459
0.9993225
0.999956
0.9999978
0.9999998
0.9999997
0.999998
0.9999816
0.9998353
0.9991691
0.9990895
0.9996101
0.9999574
0.9999988
0.9999998
0.9999997
0.9999985
0.9999855
0.9999286
0.9997768
0.9995832
0.9990813
0.9985765
0.9989045
0.9983915
0.9895639
0.8980997
0.8433773
0.8671143
0.9606959
0.9968396
0.9999464
0.999996
0.999996
0.9999961
0.9999964
0.9999974
0.999999
0.9999999
1
1
1
1
1
1
1
0.9999999
0.9999998
0.9999999
0.9999999
0.9999999
0.9999997
0.9999983
0.999996
0.9999971
0.9999992
0.9999998
0.9999997
0.9999988
0.9999912
0.9999856
0.9999902
0.9999976
0.9999987
0.9999959
0.9999919
0.9999947
0.9999986
0.9999998
0.9999998
0.9999997
0.999999
0.9999972
0.9999969
0.9999974
0.9999986
0.9999987
0.9999979
0.9999955
0.9999887
0.9999582
0.9998793
0.9997111
0.9996951
0.999834
0.9999735
0.9999987
0.9999997
0.9999996
0.9999987
0.9999896
0.9999235
0.9997167
0.9996102
0.9994342
0.9968681
0.9869203
0.9859489
0.991267
0.9983338
0.9998956
0.9999931
0.9999991
1
1
1
1
1
1
0.9999999
0.9999994
0.9999952
0.9999833
0.9999845
0.9999938
0.9999989
0.9999997
0.9999998
0.9999998
0.9999999
0.9999999
0.9999999
0.9999997
0.9999979
0.9999977
0.9999989
0.9999999
1
0.9999997
0.9999964
0.9999929
0.9999951
0.9999987
0.9999999
1
1
1
1
1
1
1
1
1
1
1
1
1
1
1
1
1
1
1
1
1
1
1
1
1
1
1
1
1
1
0.9999998
0.9999997
0.9999998
1
1
1
0.9999999
0.9999998
0.9999998
1
1
1
1
1
1
1
1
1
1
1
1
1
1
1
1
1
1
0.9999999
0.9999986
0.9999951
0.9999966
0.9999992
0.9999999
1
1
0.9999999
0.9999996
0.9999996
0.9999999
1
1
1
1
1
1
1
1
1
1
0.9999998
0.9999978
0.9999882
0.9999818
0.9999882
0.9999973
0.9999998
1
1
1
1
1
0.9999999
0.9999998
0.9999997
0.9999994
0.9999994
0.9999995
0.9999977
0.9999536
0.999386
0.9989758
0.999492
0.9999202
0.9999909
0.9999945
0.9999971
0.9999985
0.9999989
0.9999992
0.9999989
0.999994
0.9999608
0.9997464
0.9983054
0.9945225
0.9950547
0.9980293
0.9997546
0.9998855
0.9996831
0.9992996
0.9979661
0.9955663
0.9955254
0.9958142
0.998492
0.9998266
0.9999944
0.9999997
0.9999998
0.9999998
0.9999998
0.9999998
0.9999999
1
1
0.9999996
0.9999921
0.9998324
0.9973403
0.9916829
0.9932095
0.9978319
0.999794
0.9999911
0.9999844
0.9998686
0.9990562
0.9977605
0.9981221
0.9993395
0.9999314
0.9999979
1
1
1
1
1
1
1
1
1
0.9999998
0.9999994
0.9999993
0.9999996
0.9999999
1
1
1
1
1
1
1
1
1
1
1
1
1
1
1
1
1
1
1
1
1
1
1
1
1
1
1
1
1
1
1
1
1
1
1
1
1
1
1
1
1
1
1
1
1
1
1
1
1
1
1
1
1
1
1
1
1
1
1
1
1
1
1
1
1
1
1
1
1
1
1
1
1
1
1
1
1
1
1
1
1
1
1
1
1
1
1
1
1
1
1
1
1
1
1
1
1
1
1
1
1
1
1
1
1
1
1
1
1
1
1
1
1
1
1
1
1
1
1
1
1
1
0.9999999
0.9999997
0.9999991
0.9999986
0.9999985
0.9999984
0.9999982
0.9999973
0.9999962
0.999996
0.9999961
0.9999966
0.9999961
0.9999909
0.9999695
0.9999229
0.9999078
0.9999102
0.9998911
0.9997728
0.9994731
0.9976425
0.9857317
0.9530266
0.9208926
0.944001
0.9856178
0.9988531
0.9999754
0.9999979
0.9999977
0.9999966
0.9999937
0.9999856
0.9999589
0.9999213
0.9999388
0.9999845
0.9999936
0.9999888
0.9999707
0.9999286
0.9997936
0.9994578
0.997951
0.9928983
0.9752713
0.9671038
0.9815606
0.9945943
0.9974056
0.9975059
0.9972832
0.9914132
0.9047456
0.6907589
0.7410973
0.9191702
0.9909224
0.9987637
0.9987836
0.9988092
0.9991773
0.9998463
0.9998213
0.9989453
0.99694
0.9971957
0.9985934
0.9996969
0.9998613
0.9998426
0.9997288
0.9993845
0.9992003
0.9992843
0.99938
0.9991505
0.9958985
0.9702208
0.956169
0.9731423
0.994439
0.999431
0.9999621
0.9999984
0.9999986
0.9999972
0.999977
0.999732
0.9975816
0.9946401
0.9966048
0.9992091
0.9999465
0.9999989
0.9999985
0.9999829
0.9999677
0.9999744
0.9999408
0.999303
0.993841
0.9894031
0.9919223
0.9907777
0.9885952
0.985249
0.9356089
0.8418564
0.8483822
0.92301
0.9788694
0.996016
0.998818
0.9993487
0.9996004
0.9997966
0.9999328
0.9999872
0.9999985
0.9999999
0.9999999
0.9999998
0.9999997
0.9999994
0.9999973
0.9999932
0.9999949
0.9999986
0.9999997
0.9999997
0.9999988
0.9999914
0.9999778
0.999983
0.9999948
0.9999992
0.9999993
0.9999984
0.999987
0.9999502
0.9999542
0.9999836
0.9999963
0.9999949
0.9999858
0.9999843
0.9999889
0.9999968
0.999997
0.9999946
0.9999833
0.9999426
0.9998101
0.9996571
0.999759
0.9999423
0.9999921
0.9999897
0.999965
0.9997761
0.9983405
0.9946999
0.9948726
0.9979408
0.9997057
0.99999
0.9999988
0.9999978
0.999987
0.9999046
0.9996107
0.9994522
0.9987657
0.9791678
0.9541871
0.9541871
0.9788241
0.9965434
0.9995603
0.9997586
0.9998807
0.9999729
0.9999983
0.9999997
0.9999998
0.9999998
0.9999998
0.9999998
0.9999993
0.9999941
0.9999504
0.9999178
0.9999383
0.9999826
0.9999978
0.9999995
0.9999996
0.9999996
0.9999993
0.9999966
0.9999833
0.9999806
0.9999894
0.9999979
0.9999981
0.9999978
0.999998
0.9999989
0.9999994
0.9999972
0.9999924
0.9999927
0.9999969
0.9999996
1
1
1
1
1
1
1
1
1
0.9999998
0.9999991
0.9999988
0.9999993
0.9999998
0.9999999
0.9999999
0.9999999
1
1
1
1
1
1
1
0.9999999
0.9999999
1
1
1
1
0.9999997
0.999999
0.9999994
0.9999999
1
1
0.9999999
0.9999995
0.9999994
0.9999997
1
1
1
1
1
1
0.9999999
0.9999998
0.9999999
1
1
1
1
1
1
1
1
1
0.9999994
0.9999947
0.9999935
0.9999954
0.999999
0.9999997
0.9999995
0.9999985
0.999998
0.9999987
0.9999997
1
1
1
1
1
1
0.9999999
0.9999998
0.9999998
0.9999999
0.9999999
0.999999
0.999985
0.9999365
0.999948
0.9999837
0.9999986
1
1
1
1
0.9999999
0.9999997
0.9999985
0.9999914
0.9999595
0.9999182
0.9999313
0.9999788
0.9999879
0.999943
0.999314
0.9987057
0.999208
0.9997896
0.9999726
0.9999807
0.9999772
0.9999699
0.9999682
0.9999723
0.9999843
0.9999675
0.9995922
0.9944205
0.9892345
0.9892345
0.9893916
0.9959177
0.9996056
0.9990575
0.9916063
0.9870755
0.9899626
0.9973544
0.9998128
0.9999956
0.9999978
0.9999974
0.9999957
0.999989
0.9999536
0.999896
0.9999106
0.9999556
0.999989
0.9999991
0.9999998
0.9999987
0.9999729
0.9993763
0.9936803
0.9916599
0.9931248
0.9980268
0.9998608
0.9999919
0.9999313
0.9988712
0.9936925
0.9928371
0.9956842
0.9992438
0.9999671
0.9999997
1
1
0.9999999
0.9999999
0.9999997
0.9999992
0.9999976
0.9999922
0.9999773
0.9999731
0.9999879
0.9999984
0.9999999
1
1
1
1
1
1
1
1
0.9999999
0.9999999
0.9999999
1
1
1
1
1
1
1
1
1
1
1
1
1
1
1
1
1
1
1
1
1
1
1
0.9999999
1
1
1
1
1
1
1
1
1
1
1
1
0.9999999
0.9999999
1
1
1
1
1
1
1
1
1
1
1
1
1
1
1
1
1
1
1
1
1
1
1
1
1
1
1
1
1
1
1
1
1
1
1
1
1
1
1
1
1
1
1
1
1
1
1
1
1
1
1
1
1
1
1
1
1
1
1
1
1
1
1
1
1
1
1
1
1
1
1
1
1
1
1
1
1
1
1
1
1
0.9999999
0.9999996
0.9999974
0.9999935
0.999993
0.9999925
0.999982
0.9999084
0.9996753
0.999519
0.9995487
0.9995979
0.9995384
0.999225
0.9988573
0.9988146
0.9990637
0.9994298
0.9993773
0.9987454
0.9977952
0.9973261
0.996413
0.9948945
0.9918386
0.978125
0.9510418
0.9153464
0.6482785
0.4770469
0.7422567
0.9627758
0.9983744
0.9996784
0.9997351
0.9997485
0.9997352
0.9995485
0.9982297
0.9960065
0.9974132
0.9994469
0.9999635
0.9999609
0.9997298
0.9990363
0.9987403
0.9978879
0.9918251
0.9870366
0.9794951
0.9428679
0.9393926
0.9569067
0.9610727
0.9475644
0.9276838
0.935406
0.8536772
0.4169137
0.3118857
0.5483004
0.9158563
0.9657876
0.9665019
0.9630034
0.956959
0.9784015
0.9967456
0.9998349
0.9997851
0.9986851
0.9936463
0.9925163
0.9961941
0.9983028
0.9977528
0.9958914
0.9923136
0.9889072
0.9890656
0.9904713
0.9895335
0.9649411
0.8691947
0.8935004
0.9699528
0.9957277
0.9991193
0.9995219
0.9997926
0.9999506
0.9999642
0.9998613
0.9979398
0.9864764
0.9845066
0.9930929
0.9989444
0.9999431
0.9999989
0.9999976
0.9999482
0.9996244
0.9996807
0.9998906
0.9997655
0.995689
0.9564538
0.9436215
0.9798779
0.9857944
0.9556917
0.9219464
0.9007234
0.8639425
0.7735608
0.6626856
0.6717408
0.7505807
0.8756231
0.9600342
0.9911734
0.9983803
0.9997231
0.9999665
0.999997
0.9999972
0.9999963
0.9999849
0.9998898
0.9998714
0.9999375
0.9999903
0.999998
0.9999981
0.9999964
0.9999798
0.9999175
0.9999183
0.9999703
0.9999961
0.9999984
0.9999979
0.9999873
0.9999101
0.9998667
0.9999035
0.9999762
0.9999862
0.9999692
0.9999675
0.9999829
0.9999924
0.9999906
0.9999805
0.9999335
0.9996876
0.9981582
0.9943657
0.9954693
0.9986855
0.9998841
0.9999422
0.9998513
0.9989304
0.9904989
0.973619
0.9755205
0.9904337
0.9987669
0.9999649
0.9999969
0.999996
0.999983
0.9998794
0.9990377
0.9915651
0.9428251
0.9316868
0.97039
0.9963533
0.9996157
0.9996192
0.999519
0.9994716
0.9996724
0.9999231
0.9999734
0.9999721
0.9999363
0.9997667
0.999734
0.9998479
0.9999731
0.999978
0.99992
0.9998354
0.9998596
0.9999458
0.9999902
0.999999
0.9999995
0.9999995
0.9999988
0.9999903
0.9999401
0.9999261
0.9999555
0.9999897
0.9999941
0.9999942
0.9999928
0.9999811
0.9999542
0.9999629
0.9999879
0.9999983
0.9999988
0.9999987
0.9999988
0.9999991
0.9999991
0.9999994
0.9999998
0.9999999
0.9999999
0.9999998
0.9999991
0.9999946
0.999979
0.9999781
0.9999908
0.9999986
0.9999997
0.9999997
0.9999998
0.9999999
1
1
1
1
1
1
0.9999998
0.9999998
0.9999999
1
1
1
0.9999999
0.9999989
0.9999979
0.9999985
0.9999995
1
1
1
0.9999996
0.9999981
0.9999987
0.9999997
1
1
1
1
0.9999998
0.9999995
0.9999996
0.9999998
1
1
1
1
1
1
1
1
1
1
0.9999995
0.9999956
0.9999939
0.9999975
0.9999975
0.9999951
0.9999911
0.9999936
0.9999978
0.9999997
1
1
1
1
0.9999999
0.9999991
0.9999955
0.999991
0.9999922
0.999997
0.9999997
0.9999991
0.9999909
0.9999458
0.9999349
0.9999383
0.9999766
0.9999969
0.9999972
0.9999957
0.9999939
0.9999939
0.9999933
0.9999833
0.9999159
0.9995738
0.9988464
0.9989381
0.9996157
0.9999495
0.9999266
0.9997276
0.9990249
0.9975781
0.9968908
0.9978068
0.9993966
0.9993035
0.9973564
0.9852565
0.9754697
0.9867154
0.9977032
0.9998681
0.9998972
0.9998784
0.9988776
0.9970125
0.9982144
0.9996388
0.9996439
0.9979387
0.988464
0.9870755
0.9917587
0.9983808
0.9999223
0.9999978
0.9999972
0.9999698
0.9997407
0.9988166
0.9945482
0.9742055
0.9725208
0.9871907
0.9983694
0.9999457
0.9999994
0.9999992
0.9999867
0.9997651
0.9975885
0.996394
0.9980526
0.999627
0.9999842
0.9999823
0.9997496
0.9959102
0.9927356
0.9933195
0.9974481
0.9997232
0.9999931
0.999998
0.9999978
0.9999969
0.9999919
0.9999755
0.9999356
0.9998363
0.9996093
0.9995028
0.9997352
0.9999554
0.9999975
0.9999999
1
1
1
1
1
1
0.9999999
0.9999994
0.9999985
0.9999989
0.9999997
1
1
1
1
1
1
1
1
1
1
1
1
1
1
1
1
1
1
1
1
1
1
1
1
1
1
1
1
0.9999999
1
1
1
1
1
1
1
1
1
1
1
1
1
1
1
1
1
1
1
0.9999999
0.9999999
1
1
1
1
1
1
1
1
1
1
1
1
0.9999999
1
1
1
1
1
1
1
1
1
1
1
1
1
1
1
1
1
1
1
1
1
1
1
1
1
1
1
1
1
1
1
1
1
1
1
1
1
1
1
1
1
1
1
1
1
1
1
1
1
1
1
1
1
1
1
1
1
1
1
1
1
1
1
1
1
1
1
0.9999997
0.9999979
0.9999895
0.9999624
0.9998396
0.9991571
0.9978349
0.9978011
0.9983805
0.9982763
0.9947275
0.9799585
0.9719389
0.976878
0.9839796
0.98013
0.9580723
0.9437568
0.951389
0.9773282
0.9871474
0.9797791
0.9604185
0.9623485
0.9789059
0.9688842
0.9068605
0.8415824
0.7104398
0.3469291
0.2935224
0.2935224
0.3830358
0.8159094
0.9325818
0.9450069
0.9612808
0.9796233
0.9838144
0.9780834
0.9555806
0.9654492
0.9908746
0.9992219
0.9995912
0.9994665
0.9984391
0.9924246
0.9838129
0.9811337
0.9675083
0.9328844
0.9191543
0.9348971
0.9206564
0.839592
0.7136992
0.6602751
0.5637746
0.288063
0.07371935
0.04184607
0.07384535
0.5337624
0.7849897
0.7304249
0.4233102
0.3529049
0.5924682
0.9165569
0.9943115
0.9995746
0.9994821
0.9967689
0.9810623
0.9776277
0.9852903
0.9964863
0.9935328
0.9777858
0.9066883
0.7770502
0.7675842
0.7719387
0.6681619
0.5059064
0.5312814
0.723241
0.907083
0.9622627
0.9755609
0.9823835
0.989043
0.9960881
0.9994277
0.999221
0.9920474
0.968572
0.974674
0.9905423
0.9985552
0.9999466
0.9999969
0.9999916
0.9998216
0.9990158
0.9991734
0.9997501
0.9997771
0.9985806
0.9857371
0.9143302
0.9268143
0.9795378
0.976716
0.9173668
0.7623906
0.4834971
0.1939923
0.05488364
0.03365151
0.04033582
0.06334343
0.1063947
0.2988112
0.7567331
0.9699554
0.9984444
0.999945
0.999965
0.9996685
0.9993037
0.9994747
0.9998299
0.9999642
0.9999921
0.999997
0.9999965
0.9999798
0.9997726
0.9995683
0.9997625
0.9999529
0.9999955
0.999996
0.9999868
0.9998864
0.9997055
0.9997494
0.9999107
0.9999569
0.9999368
0.9999419
0.999974
0.9999951
0.9999971
0.9999936
0.999937
0.9995083
0.9956423
0.9730459
0.9683951
0.9833803
0.9977688
0.9998054
0.9997248
0.9981446
0.9751677
0.9136613
0.918352
0.9683921
0.9956351
0.9998322
0.9999885
0.9999871
0.9999827
0.9999476
0.9996302
0.9967224
0.9639879
0.8840333
0.8815968
0.9044479
0.9769636
0.9987593
0.9999814
0.9999865
0.9999801
0.9999511
0.9998136
0.9989453
0.9963007
0.9959329
0.9975045
0.9995206
0.9999154
0.9999154
0.999881
0.9996299
0.9996176
0.9998311
0.9999667
0.9999969
0.9999995
0.9999995
0.9999995
0.9999979
0.9999674
0.9998776
0.9998947
0.9999518
0.9999554
0.9999503
0.9998838
0.9995037
0.9992689
0.999537
0.9999024
0.9999924
0.9999982
0.9999982
0.9999979
0.9999949
0.9999887
0.9999916
0.9999971
0.999999
0.9999989
0.9999977
0.9999875
0.9999179
0.9997664
0.9998119
0.9999368
0.9999918
0.9999979
0.9999979
0.9999981
0.9999993
0.9999999
1
1
1
1
1
0.9999997
0.9999994
0.9999995
0.9999998
1
1
0.9999999
0.9999991
0.9999965
0.9999962
0.9999977
0.9999995
1
1
0.9999999
0.9999999
0.999999
0.999998
0.9999982
0.9999994
0.9999999
0.9999999
0.9999997
0.999999
0.9999989
0.9999994
0.9999999
1
1
1
1
0.9999999
0.9999996
0.9999987
0.9999986
0.9999992
0.9999999
1
1
0.9999997
0.9999986
0.9999929
0.9999721
0.9999713
0.9999872
0.9999981
0.9999999
1
1
1
0.9999997
0.9999976
0.9999833
0.9999293
0.9998666
0.9998993
0.9999719
0.9999978
0.9999997
0.9999972
0.999963
0.9999349
0.9999523
0.9999866
0.99999
0.9999772
0.9998672
0.9995461
0.9994928
0.9996988
0.9998291
0.9996189
0.9978449
0.9935075
0.9949218
0.998592
0.9998929
0.9999071
0.999286
0.9948054
0.9723677
0.9642253
0.982531
0.9976646
0.9985074
0.9909123
0.9392458
0.9227426
0.9571544
0.9929259
0.9996861
0.999868
0.9997114
0.9972895
0.9859992
0.9838716
0.9892212
0.9977381
0.9998677
0.9999911
0.9999892
0.9999784
0.999951
0.9997889
0.9996862
0.9997371
0.9999153
0.9998751
0.9985256
0.9711259
0.9372969
0.9380346
0.9740938
0.9963717
0.9998826
0.9999984
0.9999989
0.9999931
0.9999388
0.9994138
0.9961965
0.9955943
0.9982554
0.9997904
0.9999911
0.9999785
0.9997401
0.9979967
0.9965576
0.9976045
0.9993127
0.9997012
0.9996528
0.9996043
0.999648
0.9998469
0.999828
0.9991826
0.9944371
0.9914352
0.9946938
0.9987635
0.9999146
0.9999974
1
1
1
1
1
0.9999998
0.9999993
0.9999965
0.9999875
0.9999868
0.9999948
0.9999994
1
1
1
1
1
1
1
1
1
1
0.9999999
1
1
1
1
1
1
1
1
1
1
1
1
1
1
1
1
1
1
1
1
1
1
1
0.9999999
1
1
1
1
1
1
1
1
1
1
1
1
1
1
1
1
1
1
1
1
1
1
1
1
1
1
1
1
1
1
1
1
1
1
1
1
1
1
1
1
1
1
1
1
1
1
1
1
1
1
1
1
1
1
1
1
1
1
1
1
1
1
1
1
1
1
1
1
1
1
1
1
1
1
1
1
1
1
1
1
1
1
1
1
1
1
1
0.9999999
0.9999999
0.9999999
0.9999999
0.9999999
1
1
1
1
1
1
1
1
1
1
1
1
1
0.9999999
0.999998
0.9999818
0.9998813
0.9994191
0.9979269
0.9949685
0.9874347
0.957425
0.9095528
0.9115985
0.9427322
0.9508027
0.9075901
0.7217972
0.6548522
0.7348242
0.8287684
0.7852566
0.5121081
0.4572402
0.713407
0.9381778
0.9213954
0.7519044
0.6663961
0.7500814
0.8954961
0.9118396
0.6214956
0.2306359
0.2131235
0.2131235
0.3223986
0.7113391
0.729695
0.5476405
0.1923626
0.1344939
0.1873771
0.2614454
0.3228986
0.5470255
0.8617171
0.9790546
0.9967735
0.9974431
0.9726816
0.9122934
0.9384798
0.9781441
0.9732372
0.8618622
0.8044252
0.8770274
0.8959728
0.8318607
0.5586754
0.1689122
0.02747108
0.02217553
0.04445292
0.1426025
0.1249578
0.03792017
0.03049698
0.06658128
0.09911346
0.08235096
0.03041279
0.05359784
0.4832024
0.9310068
0.9978336
0.9985094
0.9914945
0.9541034
0.9518124
0.9792329
0.995788
0.9934855
0.9753149
0.8271436
0.3503119
0.06294732
0.02782428
0.03324538
0.04950937
0.06921977
0.1099211
0.2200706
0.4126128
0.4832051
0.4858048
0.5771807
0.8263641
0.9727561
0.993336
0.975908
0.9596355
0.9716687
0.9907006
0.9987605
0.9999544
0.9999868
0.9999565
0.999482
0.9986178
0.9992004
0.9995152
0.9989528
0.9970422
0.9850188
0.9757901
0.9871725
0.9876985
0.96322
0.8150386
0.3339447
0.04969056
0.006211936
0.00608293
0.006391109
0.007123738
0.01046222
0.01284829
0.01321982
0.02729062
0.1238684
0.594029
0.9414413
0.9970704
0.9997532
0.9998368
0.9996939
0.9997425
0.9999112
0.9999918
0.9999969
0.9999969
0.9999717
0.9996403
0.9994054
0.9995231
0.9998643
0.9999781
0.9999702
0.9998439
0.9993943
0.999351
0.9996649
0.9999242
0.9999285
0.9998854
0.9999047
0.999969
0.999994
0.9999971
0.9999971
0.9999808
0.9993135
0.9815999
0.9022884
0.9135333
0.9719789
0.997281
0.9997021
0.999307
0.9826222
0.8637514
0.8443964
0.909449
0.9826197
0.998629
0.9996684
0.9994248
0.9976051
0.9970791
0.9986443
0.9991731
0.997172
0.958987
0.881642
0.8815968
0.8815968
0.9174027
0.9832484
0.9992425
0.9996595
0.9988032
0.9925405
0.9660672
0.9616545
0.9769474
0.9959367
0.9997311
0.9999534
0.9999658
0.9998215
0.9990823
0.9989783
0.9991448
0.9997454
0.9999762
0.9999992
0.9999995
0.9999995
0.9999993
0.9999938
0.999964
0.9999065
0.9998978
0.9999256
0.9998691
0.9981789
0.9896541
0.9891448