/*--------------------------------*- C++ -*----------------------------------*\
| =========                 |                                                 |
| \\      /  F ield         | foam-extend: Open Source CFD                    |
|  \\    /   O peration     | Version:     3.1                                |
|   \\  /    A nd           | Web:         http://www.extend-project.de       |
|    \\/     M anipulation  |                                                 |
\*---------------------------------------------------------------------------*/
FoamFile
{
    version     2.0;
    format      ascii;
    class       volScalarField;
    location    "8";
    object      k;
}
// * * * * * * * * * * * * * * * * * * * * * * * * * * * * * * * * * * * * * //

dimensions      [0 2 -2 0 0 0 0];

internalField   nonuniform List<scalar> 
119952
(
0.04951186
0.0455539
0.04479797
0.04490852
0.0449653
0.04473348
0.04527904
0.04626753
0.0474926
0.04881085
0.05013196
0.05138168
0.05249602
0.05341675
0.05408943
0.05447969
0.05450364
0.05409662
0.05317539
0.05180763
0.05114926
0.04615232
0.04052834
0.03093614
0.02509251
0.02680801
0.02837963
0.02851426
0.02673595
0.01653116
0.0837604
0.07797293
0.07619404
0.07679857
0.07877755
0.08149176
0.08448038
0.08747918
0.09032242
0.09306201
0.09188193
0.09514807
0.09999407
0.1050731
0.1097071
0.1136113
0.1167107
0.1190559
0.1206569
0.1339375
0.1332836
0.1320822
0.1305176
0.1287529
0.1269451
0.1251862
0.1235238
0.1219662
0.1206785
0.1195885
0.1182719
0.1169017
0.1155796
0.1143682
0.1133176
0.1124591
0.1117724
0.1113892
0.1132735
0.1130429
0.1125597
0.1129527
0.1136582
0.1143506
0.1150299
0.1158671
0.116927
0.118231
0.1197567
0.1214368
0.1231634
0.1248036
0.1261788
0.1271576
0.12768
0.1276583
0.1270228
0.1257742
0.1242692
0.1219678
0.1185073
0.1140108
0.1094472
0.1072128
0.1081175
0.1116521
0.1157238
0.1178773
0.1177887
0.1152323
0.1111049
0.1062614
0.1013393
0.09658953
0.09213021
0.08802964
0.08422079
0.08065032
0.07737175
0.07445894
0.07193049
0.06975482
0.06788997
0.06628468
0.0648748
0.06359827
0.06240533
0.0612563
0.06013092
0.05902155
0.05792559
0.05684259
0.05577391
0.0547239
0.05370683
0.05273487
0.0517975
0.0508905
0.05001126
0.0491591
0.04833412
0.04753617
0.04676526
0.04602136
0.04530414
0.04461302
0.04394721
0.04330564
0.04268717
0.04209056
0.04151435
0.040957
0.04041688
0.03989225
0.03938094
0.0388787
0.03839649
0.03795952
0.0375234
0.03706397
0.03658217
0.03608926
0.03558975
0.0350825
0.03457196
0.03406212
0.03355568
0.03305414
0.03255822
0.03206839
0.03158506
0.03110887
0.03064124
0.03018525
0.02974396
0.02931512
0.02889951
0.02849922
0.02811639
0.02775106
0.0274012
0.02706639
0.02674815
0.02644535
0.02615771
0.02588434
0.0256239
0.02537562
0.02513912
0.02491302
0.02469631
0.02448802
0.02428716
0.02409279
0.02390387
0.02371952
0.02353887
0.02336119
0.02318568
0.02301177
0.02283884
0.02266658
0.02249454
0.02232256
0.02215033
0.02197613
0.02181001
0.0215625
0.02097644
0.02041652
0.01992145
0.01948763
0.01910158
0.01875773
0.01844435
0.0181562
0.01789009
0.01764394
0.01741684
0.01720765
0.01701537
0.01683897
0.01667756
0.0165303
0.01639638
0.01627504
0.01616555
0.0160672
0.01597927
0.01590113
0.01583235
0.01577242
0.01572097
0.01567777
0.0156418
0.01561222
0.01559156
0.01557791
0.01557142
0.01557236
0.01557927
0.01559168
0.0155775
0.01573934
0.01594792
0.01614877
0.01633028
0.01649099
0.01663034
0.01674966
0.01685078
0.01693587
0.01700728
0.01706726
0.01711791
0.01716104
0.01719816
0.01723054
0.01725932
0.01728538
0.01730944
0.01733206
0.01735373
0.01737481
0.01739559
0.0174163
0.01743709
0.01745814
0.01747947
0.0175011
0.01752308
0.01754541
0.01756806
0.01759093
0.01761411
0.01763862
0.01766139
0.01855738
0.0186761
0.01871969
0.01869403
0.01864827
0.01860109
0.01856736
0.01855392
0.01856033
0.01858463
0.01862463
0.01867664
0.01873735
0.01880372
0.01887307
0.01894307
0.01901188
0.01907805
0.0191405
0.01919849
0.01925154
0.01929914
0.01934111
0.01937751
0.01940852
0.01943441
0.01945548
0.01947206
0.01948447
0.01949304
0.01949805
0.01949979
0.01949849
0.01949437
0.01948762
0.01947841
0.01946686
0.01945312
0.01943727
0.01941944
0.01939974
0.01937829
0.01935534
0.0193316
0.01930907
0.01928833
0.01925982
0.01922485
0.01918861
0.01915075
0.01911125
0.01907115
0.01903163
0.01900998
0.01904108
0.01894698
0.01885262
0.01875601
0.01865653
0.01855522
0.01845324
0.01835247
0.01825476
0.01816158
0.01807388
0.01799223
0.01791691
0.01784774
0.01778435
0.01772625
0.01767284
0.01762352
0.01757771
0.01753483
0.0174944
0.01745594
0.01741908
0.01738348
0.01734883
0.01731491
0.01728151
0.01724846
0.01721562
0.01718288
0.01715016
0.0171174
0.01708453
0.01705154
0.01701842
0.01698514
0.01695171
0.01691813
0.0168844
0.01685053
0.01681651
0.01678235
0.01674805
0.01671361
0.01667903
0.01664431
0.01660944
0.01657443
0.01653928
0.01650397
0.0164685
0.01643288
0.01639709
0.01636114
0.01632503
0.01628876
0.01625233
0.01621575
0.01617902
0.01614217
0.01610519
0.01606811
0.01603094
0.0159937
0.01595641
0.0159191
0.01588178
0.0158445
0.01580726
0.0157701
0.01573302
0.01569607
0.0156592
0.01562248
0.01558579
0.01554915
0.01551227
0.01547497
0.01543634
0.01539504
0.01534642
0.01528032
0.01516762
0.014999
0.0151442
0.06546278
0.08301397
0.09307914
0.09983157
0.1054697
0.1104421
0.1149032
0.1189156
0.1228028
0.1342499
0.1588177
0.1778083
0.1914069
0.2009097
0.2075227
0.2121476
0.2153745
0.217589
0.2468976
0.2464126
0.2456129
0.24458
0.2435656
0.2425933
0.2415939
0.2405084
0.2393145
0.2379517
0.2365848
0.234898
0.2329646
0.2310703
0.2293646
0.2279206
0.2267628
0.2258847
0.2252714
0.2248614
0.2244259
0.2240578
0.2238503
0.2238534
0.2240329
0.2243367
0.2247052
0.2250699
0.225356
0.2255201
0.2254134
0.2250033
0.2242427
0.2230985
0.2215693
0.2196624
0.217399
0.2148397
0.2243251
0.2210114
0.2175721
0.21408
0.2105695
0.2071393
0.2037831
0.2004753
0.1971868
0.1938937
0.1906086
0.1873147
0.1839882
0.1806342
0.1772806
0.1739687
0.1707995
0.1679267
0.1655432
0.1634319
0.1613237
0.1596576
0.1585628
0.1578744
0.1575254
0.1575674
0.1580615
0.1590048
0.1603716
0.162109
0.1641355
0.1663437
0.1686012
0.1707539
0.1726324
0.1741739
0.1752677
0.175829
0.1757792
0.1750186
0.1732329
0.1700751
0.1656011
0.1602498
0.1545556
0.1489048
0.1437541
0.1394042
0.1361742
0.1344768
0.1340806
0.1342582
0.1346289
0.1347759
0.1343219
0.1329975
0.1306981
0.127511
0.1236733
0.1194877
0.1152365
0.1111314
0.1072946
0.1038074
0.1007306
0.09805731
0.0957395
0.0937099
0.09189893
0.09024535
0.0887001
0.08722607
0.08579619
0.08439163
0.08299914
0.08160539
0.08020155
0.0788138
0.07745602
0.07612554
0.07482132
0.07354438
0.07229676
0.07108085
0.06989887
0.06875268
0.0676436
0.06657233
0.06553894
0.0645429
0.06358308
0.06265785
0.06176516
0.06090257
0.06006719
0.05925668
0.05846893
0.05770778
0.05697157
0.05624999
0.05553991
0.05484116
0.05415303
0.05347394
0.05280199
0.05213565
0.05147386
0.05081594
0.05016149
0.04951022
0.04886199
0.04821672
0.04757439
0.04693501
0.04629891
0.04566712
0.04504054
0.0444198
0.04380539
0.04319765
0.04259874
0.04201303
0.04144371
0.04089408
0.04036802
0.03986668
0.0393885
0.03893283
0.03849899
0.03808606
0.03769305
0.037319
0.03696286
0.03662365
0.03630011
0.03599125
0.03569554
0.03541202
0.03513882
0.03487521
0.03461894
0.0343697
0.03412478
0.03388448
0.03364548
0.03340853
0.03316794
0.03294967
0.03231686
0.03150587
0.03088597
0.03039414
0.02998774
0.02963708
0.02932313
0.02903394
0.02876212
0.02850321
0.02825465
0.02801507
0.02778385
0.02756075
0.02734578
0.02713906
0.02694078
0.0267511
0.02657013
0.02639793
0.02623442
0.02607946
0.02593278
0.02579411
0.02566317
0.02553952
0.02542272
0.02531254
0.02520811
0.02510916
0.02501504
0.02492496
0.02483768
0.02475108
0.02466333
0.02458276
0.0245264
0.02449635
0.02447911
0.02447019
0.02446802
0.02447115
0.02447862
0.02448966
0.02450362
0.02451998
0.02453819
0.02455779
0.02457836
0.02459952
0.02462095
0.02464235
0.02466351
0.02468424
0.0247044
0.02472386
0.02474253
0.02476032
0.02477715
0.02479297
0.02480772
0.02482134
0.0248338
0.02484503
0.024855
0.02486366
0.02487103
0.02487711
0.02488208
0.02488613
0.02618868
0.02619532
0.0262197
0.02624399
0.02626035
0.02626755
0.02626659
0.02625841
0.0262438
0.02622359
0.02619851
0.02616914
0.02613595
0.02609939
0.02605983
0.02601754
0.02597277
0.02592568
0.02587644
0.02582514
0.02577187
0.02571669
0.02565963
0.02560074
0.02554003
0.02547753
0.02541326
0.02534724
0.0252795
0.02521008
0.02513899
0.02506628
0.02499198
0.02491613
0.02483876
0.02475991
0.02467964
0.02459798
0.02451499
0.02443075
0.02434538
0.02425907
0.02417214
0.02408497
0.02399739
0.0239084
0.02381615
0.02372088
0.02362375
0.02352569
0.02342649
0.02332683
0.02322706
0.02313749
0.02304986
0.02294546
0.02283249
0.02271913
0.02260731
0.02249707
0.02238809
0.02228003
0.02217261
0.02206566
0.02195907
0.0218528
0.0217469
0.02164146
0.02153657
0.02143234
0.02132888
0.02122629
0.02112468
0.02102413
0.02092473
0.02082655
0.02072966
0.02063411
0.02053993
0.02044716
0.02035581
0.02026588
0.02017736
0.02009025
0.02000451
0.01992013
0.01983705
0.01975524
0.01967466
0.01959525
0.01951696
0.01943974
0.01936353
0.01928827
0.0192139
0.01914035
0.01906757
0.01899549
0.01892405
0.01885319
0.01878285
0.01871296
0.01864347
0.01857434
0.01850549
0.01843689
0.0183685
0.01830027
0.01823216
0.01816415
0.01809621
0.01802831
0.01796044
0.0178926
0.01782477
0.01775695
0.01768917
0.0176214
0.0175537
0.01748603
0.0174185
0.01735102
0.01728376
0.01721657
0.0171497
0.01708287
0.01701647
0.01694997
0.01688398
0.01681748
0.01675137
0.01668364
0.01661523
0.0165419
0.0164639
0.01637609
0.0162934
0.01624502
0.0162391
0.04931547
0.05221585
0.05559337
0.05928365
0.0633038
0.06766272
0.07237593
0.07741139
0.08269823
0.08774649
0.1203014
0.1328582
0.1457137
0.1589913
0.1728726
0.1876693
0.2037931
0.2221941
0.2489117
0.2883145
0.2998798
0.3109201
0.321225
0.3312004
0.3409025
0.3504983
0.3604701
0.3712782
0.3821394
0.3910735
0.3982826
0.404646
0.4102817
0.4149172
0.4185843
0.4213856
0.4234958
0.4254075
0.4248189
0.4259845
0.4271359
0.4277192
0.4276616
0.4270029
0.4257658
0.4240174
0.4218094
0.4192765
0.416219
0.4128526
0.4092335
0.4054265
0.4014311
0.3972321
0.3927961
0.3880017
0.4007944
0.3956791
0.3902651
0.3846807
0.3789919
0.3732417
0.3674704
0.361713
0.3560119
0.3503839
0.3448315
0.3394073
0.334146
0.3290615
0.324182
0.3195409
0.3151793
0.3111405
0.3074609
0.3041455
0.3012115
0.2986861
0.2965488
0.294766
0.2932946
0.2920809
0.2910624
0.2901672
0.2893071
0.2884062
0.2873972
0.286212
0.2847901
0.2830944
0.2810889
0.2787625
0.2760832
0.2730304
0.2695407
0.2658334
0.2619492
0.2580295
0.2540781
0.2499988
0.2458393
0.2416482
0.2374496
0.2332667
0.2291035
0.2249524
0.2208044
0.2166738
0.2125875
0.2085731
0.2046602
0.2008303
0.1971788
0.1937988
0.1907404
0.1880769
0.185916
0.184288
0.1832077
0.1826921
0.182761
0.1834233
0.1846557
0.186407
0.1885953
0.191123
0.1938578
0.1966377
0.1992723
0.2016131
0.2035089
0.2048189
0.2054025
0.2051207
0.2037599
0.2010575
0.1970076
0.1918065
0.1857069
0.1789437
0.1718433
0.1647042
0.1579777
0.1521466
0.1474784
0.1440502
0.1418173
0.1406009
0.1400546
0.139679
0.1389735
0.1376989
0.1357308
0.1330818
0.1298778
0.1263094
0.1225794
0.1188962
0.1154472
0.1123388
0.1096074
0.1072392
0.1051905
0.1034039
0.1018192
0.1003803
0.09903798
0.09775223
0.09649103
0.0952293
0.09394756
0.09262321
0.09125491
0.08987166
0.08848299
0.08709234
0.08570447
0.08432544
0.08296185
0.0816201
0.08030583
0.07902363
0.07777695
0.07656806
0.07539809
0.07426709
0.0731742
0.07211783
0.07109582
0.07010607
0.06914666
0.06821681
0.06731493
0.06643559
0.06557495
0.06473126
0.06390309
0.06308874
0.06228652
0.06149487
0.06071237
0.05993778
0.05917001
0.0584081
0.05765126
0.05689886
0.05615046
0.05540586
0.05466506
0.05392832
0.05319618
0.05246951
0.05174945
0.05103716
0.05033386
0.04964117
0.04896067
0.04829344
0.04763963
0.04700126
0.04638347
0.04579082
0.04522381
0.04468218
0.04416573
0.04367387
0.04320604
0.04276147
0.04233946
0.04193892
0.041559
0.04119826
0.04085581
0.04052974
0.0402193
0.03992191
0.03963747
0.03936217
0.03909764
0.03883756
0.03858984
0.03834004
0.03813207
0.03790471
0.03766837
0.0374277
0.03718563
0.03694352
0.0367021
0.03646179
0.0362229
0.03598589
0.0357513
0.03551976
0.03529196
0.03506856
0.03485024
0.03463764
0.03443133
0.03423185
0.03403963
0.03385502
0.03367823
0.03350939
0.03334849
0.03319543
0.03305003
0.03291201
0.032781
0.03265654
0.03253802
0.03242476
0.03231584
0.03221019
0.03210668
0.0320049
0.03190627
0.03181555
0.03173914
0.03167597
0.03162189
0.03157483
0.03153341
0.03149642
0.03146293
0.03143224
0.03140379
0.03137713
0.03135191
0.03132781
0.03130457
0.03128197
0.03125982
0.03123796
0.03121625
0.03119458
0.03117284
0.03115096
0.03112884
0.03110641
0.03108361
0.03106038
0.03103662
0.03101231
0.03098735
0.03096172
0.0309353
0.03090818
0.03088018
0.03085155
0.03082117
0.03078895
0.0307644
0.03073708
0.03070093
0.03065667
0.03060894
0.03056058
0.03051203
0.03046262
0.03041162
0.03035858
0.03030328
0.03024554
0.0301852
0.03012213
0.03005627
0.02998757
0.02991604
0.0298417
0.02976459
0.02968476
0.02960227
0.0295172
0.02942962
0.02933961
0.02924726
0.02915265
0.02905587
0.028957
0.02885614
0.02875337
0.02864877
0.02854243
0.02843442
0.02832482
0.02821371
0.02810115
0.02798722
0.02787199
0.02775556
0.027638
0.02751946
0.02740007
0.02728
0.02715929
0.02703787
0.02691523
0.02679081
0.0266642
0.02653592
0.0264062
0.02627559
0.02614378
0.02601094
0.02587599
0.02573969
0.02560315
0.0254681
0.02533448
0.02520103
0.02506692
0.02493213
0.02479701
0.02466196
0.02452721
0.02439294
0.02425929
0.02412638
0.02399432
0.02386324
0.02373322
0.02360435
0.02347671
0.02335037
0.02322538
0.02310181
0.0229797
0.0228591
0.02274005
0.02262258
0.0225067
0.02239245
0.02227983
0.02216884
0.02205948
0.02195174
0.02184561
0.02174104
0.02163803
0.02153654
0.02143652
0.02133793
0.02124072
0.02114485
0.02105027
0.0209569
0.02086469
0.02077359
0.02068351
0.02059441
0.02050621
0.02041885
0.02033225
0.02024636
0.02016111
0.02007644
0.01999229
0.0199086
0.01982531
0.01974238
0.01965977
0.01957743
0.01949533
0.01941343
0.01933172
0.01925017
0.01916878
0.01908752
0.01900642
0.01892546
0.01884468
0.01876403
0.01868362
0.01860337
0.0185234
0.0184436
0.01836415
0.01828482
0.01820586
0.01812685
0.01804807
0.01796875
0.01788913
0.01780782
0.0177252
0.01763992
0.01755454
0.01747129
0.01739855
0.01734356
0.03671585
0.04038897
0.04357306
0.06383827
0.08490817
0.1105442
0.1282177
0.1459107
0.1627241
0.1781102
0.1911449
0.202328
0.2132906
0.2244739
0.2356332
0.2468036
0.2580392
0.2694047
0.2809171
0.2925674
0.3043341
0.3161855
0.3281649
0.3402904
0.3523153
0.3640438
0.3755415
0.3869436
0.3982904
0.4099069
0.4236118
0.4558004
0.464419
0.4726809
0.4804801
0.4878211
0.4948055
0.5015402
0.508027
0.5142345
0.5196322
0.5239095
0.5274813
0.5301448
0.5319902
0.5329982
0.5330923
0.532512
0.5313914
0.5298955
0.5281551
0.5262004
0.5240132
0.5216228
0.5190509
0.5163066
0.5133708
0.5101008
0.5065256
0.5026722
0.4984704
0.4938495
0.4888326
0.4834767
0.477871
0.4720696
0.4662101
0.4602354
0.4534774
0.4468416
0.4402814
0.4337307
0.4271762
0.4206245
0.4140776
0.4075367
0.4010032
0.3944865
0.3880025
0.3815763
0.3752393
0.3690316
0.3629952
0.3571734
0.3516185
0.346387
0.3415361
0.3371133
0.3331542
0.329689
0.3267251
0.3242496
0.3222289
0.3206106
0.3193249
0.3182899
0.3174121
0.3165964
0.3157555
0.3148055
0.3136727
0.3122944
0.3106259
0.3086246
0.3062741
0.3035421
0.3004592
0.2970534
0.293406
0.2894574
0.2852373
0.2808174
0.2762567
0.2716149
0.2669414
0.2622696
0.2576119
0.25297
0.2483363
0.2437136
0.2391158
0.2345663
0.230101
0.2257521
0.2215657
0.2175716
0.2138612
0.2105746
0.2078104
0.2056415
0.2041108
0.2032545
0.2031102
0.2036955
0.2049969
0.2069711
0.2095394
0.212603
0.2160187
0.2195995
0.2231237
0.2263794
0.2291833
0.231338
0.2326537
0.2329608
0.2320964
0.229863
0.2261935
0.2211879
0.2150594
0.2079728
0.2001148
0.1917551
0.1832854
0.1751354
0.1676772
0.1611829
0.1558248
0.1516553
0.1485926
0.1464237
0.1448398
0.1434923
0.1420494
0.1402578
0.1379868
0.1352351
0.1321071
0.1287728
0.1254158
0.1221941
0.119219
0.1165519
0.1142108
0.1121815
0.1104286
0.1089047
0.1075579
0.1063374
0.1051968
0.1040956
0.103001
0.1018857
0.1007271
0.09950225
0.09821871
0.09689787
0.09554574
0.0941694
0.09277755
0.09137996
0.08998638
0.08860588
0.0872463
0.085914
0.08461375
0.08334871
0.08212053
0.08092962
0.07977528
0.07865623
0.07757071
0.07651688
0.07549293
0.07449549
0.07352078
0.07256618
0.07162991
0.07071034
0.06980583
0.06891482
0.06803579
0.06716737
0.06630822
0.06545708
0.06461278
0.06377428
0.06294068
0.06211126
0.06128553
0.06046332
0.05964471
0.05883011
0.05802026
0.05721621
0.05641924
0.05563083
0.05485258
0.05408609
0.05333312
0.05259561
0.0518751
0.05117208
0.05049015
0.04983387
0.04920416
0.04860136
0.04802555
0.0474765
0.04695396
0.04645735
0.04598614
0.04553933
0.04511622
0.04471535
0.04433597
0.04397603
0.04363506
0.04331021
0.04300176
0.04270581
0.04242463
0.0421545
0.04190107
0.04165943
0.04142254
0.04118794
0.04095543
0.04072512
0.04049681
0.04027024
0.04004521
0.03982176
0.03960008
0.03938055
0.03916365
0.03894994
0.03874001
0.0385345
0.03833403
0.03813923
0.03795065
0.0377688
0.03759407
0.03742675
0.03726704
0.03711498
0.03697053
0.03683351
0.03670362
0.03658044
0.03646343
0.0363519
0.03624506
0.03614207
0.03604229
0.03594563
0.03585216
0.03576376
0.03568429
0.03561468
0.03555337
0.03549843
0.03544845
0.03540234
0.03535925
0.03531847
0.0352794
0.03524154
0.03520448
0.03516791
0.03513153
0.03509511
0.03505847
0.03502145
0.03498392
0.03494579
0.03490699
0.03486745
0.03482715
0.03478603
0.0347441
0.03470133
0.03465772
0.03461324
0.03456794
0.0345217
0.03447474
0.0344267
0.0343782
0.03432823
0.0342785
0.03422615
0.03417317
0.03411734
0.03405938
0.03400035
0.03394039
0.03387908
0.03381593
0.03375054
0.03368269
0.03361227
0.03353927
0.03346367
0.03338542
0.03330446
0.03322073
0.03313418
0.03304477
0.03295248
0.0328573
0.03275924
0.03265832
0.03255458
0.03244807
0.03233887
0.03222705
0.0321127
0.0319959
0.03187677
0.0317554
0.0316319
0.03150638
0.03137894
0.03124968
0.03111871
0.03098613
0.03085204
0.03071653
0.03057969
0.03044163
0.03030244
0.03016226
0.03002115
0.0298792
0.02973642
0.02959276
0.02944799
0.02930182
0.02915393
0.02900439
0.0288534
0.02870122
0.02854788
0.02839347
0.02823847
0.02808371
0.02792845
0.02777181
0.02761387
0.02745519
0.02729627
0.02713745
0.02697897
0.02682102
0.02666374
0.02650723
0.02635159
0.02619689
0.02604325
0.02589077
0.02573954
0.02558965
0.02544119
0.02529423
0.02514885
0.0250051
0.02486305
0.02472274
0.02458423
0.02444754
0.02431271
0.02417976
0.0240487
0.02391954
0.02379229
0.02366694
0.02354347
0.02342186
0.0233021
0.02318414
0.02306796
0.02295351
0.02284075
0.02272962
0.02262008
0.02251206
0.0224055
0.02230034
0.02219652
0.02209395
0.02199259
0.02189234
0.02179314
0.02169491
0.0215976
0.02150111
0.02140539
0.02131037
0.02121598
0.02112216
0.02102885
0.02093601
0.02084358
0.02075152
0.02065979
0.02056836
0.02047722
0.02038632
0.02029568
0.02020525
0.02011508
0.02002511
0.01993541
0.01984592
0.01975672
0.01966773
0.01957904
0.01949051
0.01940228
0.01931404
0.01922594
0.01913751
0.01904889
0.01895948
0.01886968
0.01877936
0.01868967
0.01860196
0.01851898
0.01844862
0.01795556
0.01989137
0.02167819
0.02816498
0.0370804
0.05190763
0.06262816
0.07415484
0.08667135
0.09947575
0.1128225
0.1275784
0.1433932
0.1596574
0.1767644
0.1962209
0.2258014
0.2393486
0.2531088
0.2669013
0.2806775
0.2938828
0.306308
0.318135
0.3295898
0.3408146
0.3518855
0.3628314
0.3737707
0.3847776
0.3959067
0.4069754
0.4178495
0.4286828
0.4394688
0.4501959
0.4608484
0.4713765
0.4816053
0.491411
0.5006337
0.5086927
0.5153792
0.5223536
0.5288736
0.5346353
0.5397597
0.5442922
0.5483508
0.5518906
0.5549679
0.5569979
0.557418
0.5568406
0.555511
0.5535471
0.551049
0.5481043
0.5448376
0.5413756
0.5378404
0.5343456
0.530933
0.5276265
0.5244255
0.5213387
0.5183402
0.5153854
0.5124107
0.5093595
0.5061795
0.502776
0.4988156
0.4944706
0.4898527
0.4850611
0.4801646
0.4752055
0.4701738
0.4649596
0.4596833
0.4543759
0.4489896
0.4434993
0.4379033
0.432197
0.4263722
0.42042
0.4143454
0.4081689
0.4019102
0.3956109
0.389325
0.3831061
0.3770216
0.3711483
0.3655664
0.3603607
0.3556103
0.3513795
0.3477182
0.3446518
0.3421796
0.3402749
0.3388849
0.3379334
0.3373231
0.3369392
0.3366612
0.3363751
0.3359729
0.335358
0.3344516
0.3331996
0.3315641
0.3295297
0.3270847
0.3242353
0.3210391
0.3174489
0.3134309
0.3090496
0.3043784
0.2994985
0.2944977
0.2894533
0.2844197
0.2794233
0.2744685
0.2695508
0.2646532
0.2597682
0.2549061
0.2500977
0.2453879
0.2408394
0.2365164
0.2324876
0.2288905
0.2258567
0.2234806
0.2218405
0.2209975
0.2209986
0.221866
0.2235907
0.226136
0.229435
0.233366
0.2377523
0.2423583
0.2469019
0.251103
0.2547538
0.2576055
0.2594359
0.2600658
0.2593645
0.2572117
0.2535831
0.2486064
0.2423977
0.2350756
0.2267917
0.2177932
0.2084099
0.1989713
0.189843
0.1813362
0.1736886
0.1670616
0.1615292
0.1570612
0.153524
0.1507
0.1483222
0.1461198
0.1438647
0.1414054
0.1386836
0.1357283
0.1326302
0.1295084
0.1264802
0.1236412
0.1210565
0.1187588
0.1167524
0.1150189
0.1135244
0.1122255
0.111075
0.1100259
0.1090349
0.1080634
0.1070796
0.1060572
0.1049744
0.1038149
0.1025925
0.1013188
0.1000012
0.09864906
0.09727334
0.09588578
0.09449773
0.09311938
0.09175933
0.09042433
0.08911925
0.08784713
0.0866094
0.08540619
0.08423662
0.08309914
0.0819918
0.0809118
0.07985592
0.07882152
0.07780657
0.07680933
0.07582821
0.07486174
0.07390856
0.07296733
0.07203682
0.07111568
0.07020261
0.06929633
0.0683956
0.06749933
0.0666066
0.0657167
0.0648292
0.06394405
0.06306158
0.06218252
0.06130795
0.06043924
0.05957808
0.05872633
0.05788602
0.05705917
0.0562477
0.05545368
0.05467898
0.05392476
0.05319534
0.05249283
0.05181802
0.05117129
0.05055284
0.04996258
0.04940029
0.04886542
0.04835739
0.04787522
0.04741809
0.0469846
0.04657384
0.04618408
0.04581451
0.04546332
0.04512993
0.04481307
0.0445118
0.04422476
0.04395001
0.04368593
0.04343132
0.04318518
0.04294654
0.04271453
0.0424884
0.04226757
0.04205167
0.0418405
0.04163401
0.04143224
0.04123537
0.04104365
0.04085741
0.04067701
0.04050285
0.0403353
0.04017471
0.04002136
0.03987543
0.03973703
0.03960615
0.03948267
0.03936635
0.03925683
0.0391536
0.03905609
0.03896362
0.03887557
0.03879148
0.03871123
0.0386351
0.03856262
0.03849581
0.0384363
0.03838355
0.03833615
0.0382928
0.03825251
0.03821452
0.03817812
0.03814272
0.03810778
0.03807285
0.03803756
0.03800159
0.03796466
0.03792657
0.03788712
0.03784617
0.03780363
0.03775943
0.03771351
0.03766587
0.0376165
0.03756543
0.03751268
0.03745831
0.03740235
0.03734491
0.03728598
0.03722574
0.0371641
0.03710133
0.03703719
0.036972
0.03690502
0.03683621
0.03676564
0.03669352
0.03661987
0.03654458
0.03646763
0.03638902
0.03630867
0.03622642
0.03614215
0.03605571
0.035967
0.03587592
0.03578234
0.03568616
0.03558729
0.03548565
0.03538118
0.03527384
0.03516362
0.03505049
0.03493449
0.03481564
0.03469399
0.03456961
0.03444258
0.03431298
0.03418092
0.03404649
0.03390982
0.03377101
0.03363019
0.03348747
0.03334298
0.03319682
0.03304911
0.03289995
0.03274945
0.03259772
0.03244486
0.03229094
0.03213606
0.03198024
0.0318235
0.03166579
0.03150696
0.03134683
0.0311852
0.03102203
0.03085744
0.03069159
0.0305246
0.03035667
0.03018801
0.03001867
0.02984817
0.02967639
0.02950367
0.02933044
0.02915695
0.02898332
0.02880969
0.02863622
0.0284631
0.02829048
0.02811853
0.02794739
0.02777722
0.02760815
0.02744031
0.02727382
0.0271088
0.02694533
0.02678352
0.02662346
0.02646521
0.02630886
0.02615445
0.02600204
0.02585168
0.0257034
0.02555722
0.02541317
0.02527125
0.02513146
0.02499381
0.02485828
0.02472484
0.02459348
0.02446417
0.02433686
0.02421151
0.02408808
0.02396651
0.02384674
0.02372872
0.02361238
0.02349766
0.02338447
0.02327275
0.02316242
0.0230534
0.02294562
0.022839
0.02273345
0.02262891
0.02252529
0.02242252
0.02232054
0.02221926
0.02211863
0.02201858
0.02191906
0.02182003
0.02172142
0.02162322
0.02152537
0.02142785
0.02133065
0.02123374
0.02113711
0.02104076
0.02094467
0.02084885
0.02075326
0.02065794
0.0205628
0.02046788
0.02037302
0.02027827
0.02018341
0.02008852
0.01999341
0.01989839
0.01980359
0.01970962
0.01961754
0.01952838
0.01945107
0.006965077
0.008365627
0.009373879
0.0140182
0.01929785
0.02616482
0.03187874
0.03841764
0.04554438
0.05324238
0.06182117
0.0720104
0.08333409
0.0961311
0.1115841
0.1353093
0.1475809
0.1604751
0.1735604
0.1867643
0.1999856
0.2131128
0.2260498
0.2386985
0.250972
0.2628569
0.2745836
0.2875223
0.3007268
0.314183
0.3277365
0.3410106
0.3537585
0.3659743
0.3777471
0.3891731
0.400333
0.4112936
0.4220351
0.4325135
0.4425269
0.4522449
0.4617451
0.4710664
0.4802295
0.4892254
0.4980104
0.5065021
0.5146007
0.5221863
0.5290894
0.5350571
0.5402609
0.545468
0.5498744
0.553276
0.5558137
0.5574732
0.5582169
0.5574987
0.5558426
0.5531379
0.5493283
0.5446653
0.5394011
0.5337356
0.5278517
0.5219108
0.5161005
0.5105663
0.5054353
0.5007847
0.4966596
0.4930545
0.4899283
0.4872296
0.4848686
0.4827779
0.4808749
0.4791201
0.4774161
0.4753954
0.4730779
0.4705872
0.4679972
0.4653484
0.4626568
0.4599131
0.4570967
0.4541647
0.4511065
0.4479003
0.4445035
0.4408846
0.4370302
0.4329287
0.4285676
0.4239327
0.4190298
0.4138847
0.4085263
0.4030084
0.3973972
0.3917545
0.3861625
0.3807241
0.375548
0.3707447
0.3664169
0.3626526
0.3595196
0.3570546
0.355268
0.3541396
0.3536114
0.3535905
0.3539478
0.3545234
0.3551499
0.3556696
0.355933
0.3558093
0.3552023
0.3540558
0.3523497
0.3501025
0.3473584
0.3441923
0.3407091
0.3368159
0.3325131
0.32784
0.3228636
0.3176733
0.3123703
0.3070489
0.3017794
0.2965985
0.2915089
0.2864886
0.2815059
0.2765362
0.2715753
0.2666462
0.261798
0.2571043
0.2526536
0.2485487
0.2449229
0.241942
0.2397259
0.238381
0.2379931
0.2386202
0.2402788
0.2429396
0.2465368
0.2509716
0.2560946
0.2616809
0.2674201
0.2729431
0.2778807
0.2820415
0.2851616
0.2870312
0.2875119
0.2865397
0.2840949
0.2802062
0.2749501
0.2684015
0.2606475
0.2518699
0.2422964
0.2322194
0.2219255
0.2117381
0.2019365
0.1927461
0.1843669
0.176929
0.170492
0.1650355
0.1604627
0.1566153
0.1532963
0.1503001
0.1474419
0.1445846
0.1416541
0.13864
0.1355824
0.1325505
0.1296233
0.1268724
0.1243523
0.1220955
0.120112
0.1183917
0.1169088
0.1156266
0.1145022
0.1134907
0.1125486
0.1116362
0.1107194
0.1097705
0.1087677
0.1076917
0.1065401
0.1053269
0.1040592
0.1027463
0.1013997
0.1000319
0.09865546
0.09728163
0.09592028
0.09457927
0.09326439
0.09197938
0.09072614
0.08950503
0.0883152
0.0871549
0.08602169
0.08491269
0.08382525
0.08275713
0.08170642
0.08067154
0.07965113
0.078644
0.0776491
0.07666525
0.07569132
0.07472605
0.0737681
0.07281611
0.0718687
0.07092459
0.06998265
0.06904199
0.06810206
0.06716273
0.06622433
0.06528763
0.06435385
0.06342459
0.0625018
0.06158768
0.06068459
0.05979494
0.05892112
0.05806537
0.05722977
0.05641586
0.05562711
0.05486569
0.05413257
0.05342839
0.05275346
0.05210784
0.05149125
0.05090325
0.05034308
0.04980988
0.04930253
0.04881991
0.04836067
0.04792363
0.04750744
0.04711092
0.04673292
0.04637219
0.04602766
0.04569831
0.04538301
0.04508076
0.04479071
0.04451216
0.04424449
0.04398715
0.04373967
0.04350166
0.04327281
0.04305288
0.04284169
0.04263915
0.04244518
0.04225978
0.042083
0.04191491
0.04175559
0.04160512
0.04146356
0.04133091
0.04120711
0.04109203
0.04098544
0.04088703
0.04079637
0.04071296
0.04063619
0.04056546
0.04050016
0.04043982
0.04038417
0.04033328
0.04028729
0.04024584
0.04020911
0.04017744
0.04015014
0.04012615
0.04010449
0.04008439
0.04006514
0.04004611
0.04002673
0.04000649
0.03998496
0.03996176
0.03993656
0.0399091
0.03987915
0.03984654
0.03981114
0.03977286
0.03973164
0.03968748
0.03964038
0.03959039
0.03953758
0.03948203
0.03942386
0.03936318
0.03930011
0.03923483
0.03916742
0.03909805
0.03902676
0.03895363
0.03887863
0.03880184
0.03872329
0.03864283
0.03856031
0.03847578
0.03838944
0.03830145
0.03821183
0.03812049
0.03802733
0.03793222
0.03783506
0.03773572
0.0376341
0.03753006
0.03742352
0.03731436
0.0372025
0.03708789
0.03697048
0.03685024
0.03672716
0.03660125
0.03647254
0.03634109
0.03620696
0.03607022
0.03593097
0.03578932
0.03564536
0.03549923
0.03535104
0.03520093
0.03504901
0.03489541
0.03474025
0.03458365
0.0344257
0.03426653
0.03410621
0.03394483
0.03378243
0.03361907
0.03345472
0.03328934
0.03312284
0.03295507
0.03278592
0.03261532
0.03244333
0.03227002
0.03209549
0.03191982
0.03174304
0.03156512
0.03138602
0.0312058
0.03102465
0.03084275
0.03066026
0.0304773
0.03029403
0.03011063
0.02992728
0.02974417
0.02956146
0.02937933
0.02919795
0.02901747
0.02883805
0.02865983
0.02848295
0.02830754
0.02813372
0.0279616
0.02779128
0.02762286
0.02745642
0.02729203
0.02712976
0.02696965
0.02681176
0.02665612
0.02650275
0.02635167
0.02620289
0.0260564
0.0259122
0.02577028
0.02563061
0.02549316
0.0253579
0.02522478
0.02509376
0.02496478
0.02483779
0.02471272
0.02458952
0.0244681
0.02434839
0.02423031
0.0241138
0.02399876
0.02388511
0.02377277
0.02366165
0.02355168
0.02344276
0.02333483
0.02322779
0.02312159
0.02301613
0.02291136
0.02280722
0.02270364
0.02260057
0.02249797
0.02239579
0.022294
0.02219257
0.02209146
0.02199067
0.02189017
0.02178994
0.02168996
0.02159023
0.02149069
0.02139134
0.02129212
0.02119303
0.02109399
0.02099507
0.02089627
0.02079778
0.02069988
0.02060288
0.02050778
0.02041505
0.02033437
0.001606009
0.006785383
0.01013809
0.01420594
0.01882704
0.02420403
0.03041625
0.037385
0.04528309
0.05494395
0.06975072
0.07831638
0.08758842
0.09736019
0.1076151
0.1182719
0.1292742
0.1405115
0.1518297
0.1631351
0.174477
0.1873388
0.2003061
0.2132264
0.2260297
0.2386358
0.2510155
0.2631516
0.2750494
0.2868157
0.2985204
0.3102837
0.3225419
0.3351262
0.3480341
0.361107
0.3739469
0.3862807
0.39802
0.4091507
0.419687
0.4296458
0.4390351
0.4478168
0.4559871
0.4637673
0.4712781
0.4786092
0.485814
0.4929223
0.4999385
0.5068315
0.5135231
0.5198693
0.5257087
0.5308507
0.5351019
0.5385713
0.5416293
0.5438566
0.5448873
0.5445802
0.5426362
0.5393946
0.5348059
0.5290613
0.5223082
0.5146882
0.506484
0.4980007
0.4895221
0.4812991