/*--------------------------------*- C++ -*----------------------------------*\
| =========                 |                                                 |
| \\      /  F ield         | foam-extend: Open Source CFD                    |
|  \\    /   O peration     | Version:     3.1                                |
|   \\  /    A nd           | Web:         http://www.extend-project.de       |
|    \\/     M anipulation  |                                                 |
\*---------------------------------------------------------------------------*/
FoamFile
{
    version     2.0;
    format      ascii;
    class       volScalarField;
    location    "8";
    object      nut;
}
// * * * * * * * * * * * * * * * * * * * * * * * * * * * * * * * * * * * * * //

dimensions      [0 2 -1 0 0 0 0];

internalField   nonuniform List<scalar> 
119952
(
4.826584e-05
3.154886e-05
3.230962e-05
3.645142e-05
3.957154e-05
3.786704e-05
3.686372e-05
3.629103e-05
3.594116e-05
3.566987e-05
3.54079e-05
3.511074e-05
3.475511e-05
3.431961e-05
3.379119e-05
3.316244e-05
3.243613e-05
3.158464e-05
3.059229e-05
2.943144e-05
3.627278e-05
3.366468e-05
3.118043e-05
3.367097e-05
3.355795e-05
4.004103e-05
4.604128e-05
4.961366e-05
4.965775e-05
2.612436e-05
3.475262e-05
3.615289e-05
4.076432e-05
4.617933e-05
5.226886e-05
5.888028e-05
6.586298e-05
7.299797e-05
8.018153e-05
9.226675e-05
0.0003976141
0.0004873151
0.00058265
0.0006776758
0.0007683876
0.0008524819
0.0009289103
0.0009975401
0.001058401
0.001492629
0.001536934
0.001575355
0.001608856
0.001638016
0.001664074
0.001688058
0.001710719
0.001732343
0.001754289
0.001775444
0.001794426
0.001814063
0.001836568
0.001864107
0.00189881
0.001942756
0.001997922
0.002068035
0.002151663
0.002201463
0.002265221
0.002347693
0.002435935
0.002523709
0.002612448
0.002703797
0.00279742
0.002892297
0.002986109
0.003075189
0.003154588
0.003218247
0.003255618
0.003259168
0.003226622
0.003154423
0.003041646
0.002890141
0.002711867
0.002464072
0.002164613
0.001849614
0.001564895
0.001373703
0.001262856
0.001187208
0.001120706
0.001032829
0.001065475
0.001126736
0.001194175
0.001272655
0.001354329
0.001420452
0.001461426
0.001494164
0.001517843
0.001533158
0.00154346
0.00155276
0.001563755
0.001577551
0.001594517
0.001614351
0.001635998
0.001658136
0.001679487
0.00169892
0.001715868
0.00173013
0.001741656
0.001750472
0.001756675
0.001760505
0.001762737
0.001763856
0.001763063
0.00176046
0.001756126
0.001750157
0.001742664
0.001733748
0.00172353
0.001712127
0.001699636
0.001686142
0.001671715
0.001656422
0.001640324
0.001623469
0.001605896
0.001587636
0.00156872
0.00154918
0.00152907
0.001508501
0.001488059
0.001461347
0.001431007
0.001400714
0.001371445
0.001343452
0.001316211
0.001288891
0.001261622
0.001234579
0.001207799
0.001181281
0.001155022
0.001129042
0.00110337
0.001078058
0.001053206
0.001029027
0.001005813
0.0009833733
0.0009616862
0.0009408329
0.0009208964
0.000901903
0.0008838284
0.0008664877
0.0008499159
0.0008341799
0.0008192372
0.0008050355
0.0007915241
0.0007786278
0.0007663289
0.000754569
0.0007432947
0.0007324587
0.0007220111
0.0007119067
0.0007020937
0.0006925292
0.0006831727
0.0006739862
0.0006649318
0.0006559783
0.0006470954
0.0006382618
0.0006294572
0.0006206761
0.0006119269
0.0006033147
0.0005960123
0.0005171632
0.0004902312
0.0004486478
0.0004208748
0.0004011014
0.0003859028
0.0003737364
0.0003634616
0.0003544456
0.0003463183
0.0003388478
0.000331899
0.0003253702
0.0003191965
0.0003133238
0.0003077146
0.0003023415
0.0002971795
0.0002922094
0.0002874132
0.0002827739
0.0002782736
0.0002738995
0.0002696429
0.0002654937
0.0002614417
0.0002574766
0.0002536194
0.0002497874
0.0002460683
0.0002424254
0.0002388744
0.0002354483
0.0002322395
0.0002294193
0.000229748
0.0002360119
0.0002427127
0.0002492571
0.0002555355
0.0002615514
0.0002673065
0.0002728224
0.0002781221
0.0002832329
0.0002881804
0.000292987
0.0002976761
0.0003022684
0.00030678
0.0003112239
0.0003156124
0.0003199561
0.000324263
0.0003285398
0.0003327923
0.0003370242
0.0003412385
0.0003454377
0.0003496239
0.0003537989
0.0003579618
0.0003621111
0.0003662481
0.0003703723
0.0003744825
0.000378578
0.0003826591
0.0003867265
0.0003907677
0.000511582
0.000522225
0.0005322271
0.0005417164
0.0005506714
0.0005591053
0.0005672084
0.0005751876
0.0005829748
0.0005905209
0.0005978064
0.0006047904
0.0006114673
0.0006178367
0.0006239042
0.0006296792
0.0006351748
0.0006404058
0.0006453873
0.0006501381
0.0006546985
0.000659092
0.0006633241
0.0006674024
0.0006713348
0.0006751283
0.0006787904
0.0006823278
0.0006857471
0.0006890542
0.0006922551
0.0006953551
0.0006983588
0.0007012707
0.0007040946
0.0007068345
0.0007094932
0.0007120733
0.0007145771
0.0007170059
0.0007193601
0.0007216366
0.0007238283
0.0007259182
0.000727878
0.000729614
0.000730865
0.0007318344
0.0007327097
0.0007334835
0.0007341646
0.0007347655
0.0007352837
0.0007362672
0.0007373851
0.000736279
0.0007355306
0.0007350209
0.000734767
0.0007347546
0.0007349508
0.0007353259
0.0007358529
0.0007365073
0.0007372663
0.000738111
0.0007390282
0.0007400025
0.0007410207
0.000742072
0.0007431477
0.0007442414
0.0007453484
0.000746466
0.0007475926
0.0007487281
0.0007498726
0.0007510269
0.0007521917
0.000753368
0.0007545563
0.0007557571
0.0007569703
0.0007581957
0.0007594324
0.0007606797
0.0007619367
0.0007632028
0.0007644771
0.000765759
0.0007670477
0.0007683424
0.0007696421
0.000770946
0.0007722529
0.0007735617
0.0007748713
0.0007761807
0.0007774887
0.0007787943
0.0007800964
0.000781394
0.0007826863
0.0007839721
0.0007852506
0.0007865211
0.0007877832
0.0007890362
0.00079028
0.0007915145
0.0007927397
0.0007939562
0.0007951643
0.000796365
0.0007975593
0.0007987487
0.0007999348
0.00080112
0.0008023065
0.0008034976
0.0008046964
0.0008059077
0.0008071357
0.0008083872
0.0008096679
0.0008109878
0.0008123553
0.0008137859
0.0008152926
0.0008169012
0.0008186346
0.0008205397
0.0008226657
0.0008251202
0.0008280567
0.0008318155
0.0008368288
0.0008448883
0.0006401247
0.0001053348
0.0001400892
0.0001608134
0.0001700723
0.0001785173
0.0001866154
0.0001945086
0.0002022036
0.000212233
0.0004978512
0.0008038903
0.0010724
0.001274056
0.001422915
0.001539796
0.00163856
0.00172679
0.001808872
0.002589844
0.002739225
0.002889211
0.003031697
0.003163199
0.003281811
0.003387146
0.003480151
0.003562619
0.003636165
0.003702047
0.003766857
0.003835516
0.00391066
0.003992478
0.004080233
0.004173001
0.004269939
0.004370532
0.004442386
0.004495662
0.004568367
0.004656473
0.004756103
0.004863169
0.004973938
0.005084941
0.005192883
0.00529438
0.005386981
0.005467653
0.005535346
0.005588797
0.005626912
0.005649
0.00565459
0.005643683
0.005615766
0.006376251
0.006314448
0.006243223
0.006166563
0.006088196
0.00601474
0.00594599
0.005880596
0.005817386
0.005755477
0.005694659
0.005634696
0.005575603
0.005518151
0.005463818
0.005414834
0.005375474
0.005352556
0.005350769
0.005363599
0.005387638
0.005432548
0.005499271
0.005582408
0.005680441
0.005794137
0.005923235
0.006065637
0.006218421
0.006377371
0.006537027
0.006690857
0.006831223
0.006948941
0.007031004
0.007071636
0.007062093
0.006993846
0.006857923
0.006643308
0.006332842
0.005922258
0.005434044
0.004906819
0.0043818
0.003890555
0.003457576
0.003096939
0.002824143
0.002638854
0.002525013
0.00233446
0.002219957
0.002183696
0.002207145
0.002273655
0.002368647
0.002479265
0.002594378
0.002704799
0.002804408
0.002890851
0.002963304
0.003002047
0.003042064
0.003085177
0.00313188
0.003181705
0.003233649
0.003286536
0.003339224
0.003390708
0.003440146
0.00348685
0.003530165
0.003569169
0.003603147
0.003633733
0.003661703
0.003686824
0.003709003
0.003728243
0.003744609
0.003758208
0.003769164
0.00377761
0.00378367
0.003787457
0.003789065
0.003788563
0.003786001
0.003781405
0.003774787
0.00376614
0.003755445
0.003742703
0.003727914
0.003711242
0.003692476
0.003671234
0.003647511
0.003621433
0.003593101
0.003562581
0.003529943
0.003495281
0.003458711
0.003420362
0.003380369
0.003338868
0.003295994
0.003251878
0.003206645
0.003160416
0.003113325
0.003065567
0.00301736
0.002968876
0.002920203
0.002871284
0.002822325
0.002774061
0.002727032
0.00268175
0.002638769
0.002598235
0.002559891
0.002523598
0.002489237
0.002456707
0.002425916
0.002396781
0.002369223
0.002343171
0.002318545
0.002295285
0.002273311
0.00225257
0.002232981
0.002214503
0.002197045
0.002180588
0.002165032
0.002150388
0.002136582
0.002123677
0.002111561
0.00210311
0.002027108
0.001938134
0.001876067
0.001831742
0.001799192
0.00177452
0.001755211
0.001739604
0.001726609
0.001715514
0.001705852
0.001697312
0.001689682
0.001682812
0.001676595
0.001670954
0.001665833
0.001661186
0.001656978
0.001653175
0.001649742
0.001646643
0.001643847
0.001641325
0.001639042
0.001636973
0.001635092
0.001633381
0.001631814
0.001630395
0.001629134
0.001628076
0.001627336
0.001627202
0.001628359
0.001632203
0.001638145
0.001645712
0.001654148
0.00166318
0.001672652
0.001682438
0.001692448
0.001702613
0.001712878
0.001723197
0.001733529
0.001743843
0.001754111
0.00176431
0.00177442
0.001784427
0.001794319
0.001804088
0.001813727
0.001823231
0.001832594
0.001841812
0.00185088
0.001859793
0.001868545
0.001877129
0.00188554
0.001893768
0.001901807
0.001909646
0.001917274
0.001924675
0.001931801
0.001938293
0.002275326
0.002289067
0.002301875
0.002313349
0.002323474
0.002332406
0.002340326
0.002347378
0.002353683
0.002359343
0.002364428
0.002368985
0.002373046
0.002376637
0.002379773
0.002382465
0.002384722
0.00238655
0.002387954
0.00238894
0.002389514
0.002389683
0.002389455
0.002388839
0.002387846
0.002386486
0.002384771
0.002382712
0.002380324
0.002377619
0.002374612
0.002371315
0.002367742
0.002363908
0.002359825
0.002355506
0.002350964
0.00234621
0.002341257
0.002336114
0.002330789
0.002325287
0.002319616
0.002313775
0.002307738
0.00230143
0.002294782
0.002287877
0.002280828
0.002273707
0.002266505
0.002259285
0.002252086
0.002245509
0.002238765
0.002231262
0.002223555
0.002216004
0.002208681
0.002201603
0.002194775
0.002188198
0.002181862
0.002175759
0.002169887
0.002164242
0.002158825
0.002153633
0.002148664
0.002143915
0.002139381
0.002135057
0.002130938
0.002127019
0.002123294
0.002119758
0.002116404
0.002113229
0.002110227
0.002107391
0.002104719
0.002102203
0.002099839
0.002097622
0.002095546
0.002093606
0.002091798
0.002090116
0.002088555
0.002087111
0.002085779
0.002084556
0.002083436
0.002082415
0.002081489
0.002080653
0.002079903
0.002079235
0.002078644
0.002078125
0.002077674
0.002077288
0.002076961
0.002076689
0.002076468
0.002076295
0.002076165
0.002076076
0.002076024
0.002076007
0.002076023
0.002076068
0.002076144
0.002076248
0.002076382
0.002076545
0.00207674
0.002076967
0.002077234
0.00207754
0.002077898
0.002078306
0.002078786
0.002079333
0.002079982
0.002080721
0.002081608
0.002082622
0.002083854
0.002085266
0.002087016
0.002089036
0.002091593
0.002094545
0.002098268
0.002102531
0.002108901
0.002119091
0.002133525
2.663423e-05
3.152707e-05
3.87821e-05
4.701863e-05
5.637612e-05
6.701688e-05
7.921334e-05
9.304652e-05
0.0001086817
0.0001349876
0.000649539
0.0007692876
0.0008963555
0.001032098
0.001178628
0.001341207
0.001531639
0.001788535
0.002333706
0.003764176
0.004042021
0.004278576
0.004485604
0.004683399
0.004867175
0.005037687
0.005226075
0.005482564
0.005957183
0.006281708
0.006427426
0.00655509
0.006676937
0.006786703
0.00688342
0.006970191
0.007051804
0.007146877
0.007187961
0.00735922
0.00750148
0.007608195
0.007690927
0.007757921
0.007812981
0.007859404
0.007899027
0.007934343
0.007972364
0.008018303
0.008068608
0.0081181
0.008162283
0.008198416
0.008225106
0.008239643
0.009070449
0.009073126
0.009063861
0.00904848
0.009029706
0.009008901
0.00898697
0.008964622
0.008942664
0.008921642
0.00890197
0.008884946
0.008871776
0.00886343
0.008860986
0.008865466
0.008877839
0.008898896
0.008929113
0.008967771
0.009014308
0.009068524
0.009129422
0.00919567
0.009265618
0.009337281
0.009408405
0.009476495
0.009538767
0.009592741
0.009636174
0.009666915
0.009683079
0.009683407
0.009666811
0.009632991
0.009581612
0.009515029
0.009411324
0.00929903
0.009181575
0.009067294
0.008955795
0.008838612
0.00871834
0.008598024
0.008479334
0.008363654
0.008251905
0.008144727
0.008042636
0.007947242
0.007860501
0.007783789
0.007717243
0.007656382
0.007604791
0.007568632
0.00755139
0.007555281
0.00758248
0.0076327
0.007705433
0.007800598
0.007917535
0.008054496
0.008208301
0.008374239
0.00854619
0.008717812
0.008881528
0.009028526
0.00914739
0.009227622
0.009260628
0.009237284
0.009147937
0.008982725
0.008728399
0.008374154
0.007926952
0.007402714
0.00682372
0.006218525
0.005620748
0.005059026
0.004563578
0.004156118
0.003838286
0.003605687
0.00344989
0.003360024
0.00332347
0.003311832
0.003242038
0.003240251
0.003290414
0.003373835
0.003474228
0.003577872
0.003674564
0.003724169
0.003774237
0.003826955
0.003883607
0.003944573
0.004009507
0.00407757
0.004147655
0.004218568
0.004289152
0.00435837
0.004425303
0.004489106
0.004548931
0.004603263
0.004651943
0.004697005
0.004738837
0.004777381
0.004812667
0.004844785
0.004873862
0.004900046
0.004923483
0.004944302
0.004962607
0.004978474
0.004991943
0.00500302
0.005011679
0.005017865
0.005021506
0.005022526
0.00502085
0.005016437
0.00500918
0.004998859
0.004985347
0.004968609
0.004948626
0.004925384
0.004898888
0.004869169
0.004836284
0.004800315
0.004761369
0.004719571
0.004675072
0.004628037
0.004578657
0.00452714
0.004473715
0.004418635
0.004362167
0.004304587
0.004246173
0.004187198
0.004127966
0.004068776
0.004009866
0.003951349
0.003893114
0.003835471
0.003779375
0.003725688
0.003674477
0.003625593
0.003578932
0.003534379
0.00349183
0.003451188
0.003412366
0.00337528
0.003339861
0.003306038
0.003273762
0.003242974
0.003213653
0.003185741
0.003159268
0.003134135
0.003110473
0.003088102
0.003067555
0.003048114
0.003026523
0.003008273
0.002992824
0.002979665
0.002968407
0.002958783
0.002950619
0.002943796
0.002938231
0.002933871
0.002930679
0.002928624
0.002927676
0.002927804
0.002928973
0.002931147
0.002934285
0.002938347
0.002943287
0.002949058
0.002955607
0.002962882
0.002970829
0.002979387
0.002988499
0.002998114
0.003008179
0.003018643
0.00302946
0.003040589
0.003052005
0.003063708
0.003075752
0.003088308
0.003101641
0.003115742
0.003130894
0.003146948
0.003163612
0.00318073
0.003198185
0.003215877
0.003233722
0.003251653
0.003269617
0.003287564
0.003305453
0.003323247
0.003340916
0.003358432
0.00337577
0.003392911
0.003409837
0.003426532
0.003442984
0.003459181
0.003475113
0.003490768
0.003506139
0.003521214
0.003535984
0.003550439
0.003564568
0.00357836
0.003591802
0.003604881
0.003617587
0.0036299
0.003641801
0.003654306
0.003657683
0.003661619
0.003665584
0.003669516
0.003673556
0.003677739
0.003681975
0.003686141
0.003690131
0.003693871
0.003697306
0.003700389
0.003703082
0.003705352
0.003707171
0.003708521
0.003709384
0.003709749
0.003709607
0.003708952
0.003707783
0.003706098
0.0037039
0.003701193
0.003697983
0.003694277
0.003690085
0.003685416
0.003680283
0.003674697
0.003668672
0.003662221
0.003655359
0.0036481
0.003640459
0.00363245
0.003624089
0.00361539
0.003606367
0.003597036
0.003587409
0.003577499
0.003567318
0.003556868
0.003546142
0.003535113
0.003523765
0.00351212
0.003500256
0.003488229
0.00347609
0.003463861
0.00345157
0.003439188
0.003426682
0.003414224
0.003401966
0.003389913
0.003378003
0.00336621
0.003354558
0.00334309
0.003331842
0.00332084
0.003310099
0.003299634
0.003289454
0.003279567
0.003269979
0.003260694
0.003251712
0.003243035
0.00323466
0.003226586
0.003218811
0.003211331
0.003204143
0.003197244
0.003190629
0.003184293
0.003178233
0.003172443
0.003166918
0.003161654
0.003156643
0.003151882
0.003147365
0.003143085
0.003139037
0.003135216
0.003131616
0.003128231
0.003125055
0.003122083
0.003119308
0.003116724
0.003114326
0.003112106
0.003110059
0.003108177
0.003106454
0.003104883
0.003103458
0.003102171
0.003101017
0.003099989
0.003099081
0.003098286
0.0030976
0.003097017
0.003096532
0.003096141
0.003095841
0.003095628
0.003095502
0.00309546
0.003095503
0.003095633
0.00309585
0.003096161
0.003096568
0.003097082
0.003097709
0.003098466
0.00309936
0.003100419
0.003101656
0.003103109
0.003104799
0.003106783
0.003109093
0.003111808
0.003114985
0.003118729
0.00312317
0.00312855
0.003135397
0.003144195
0.003154995
3.474079e-05
5.436817e-05
0.0001251478
0.0004101914
0.0006963604
0.001218733
0.001634249
0.002130487
0.002701814
0.003157679
0.003483265
0.003740638
0.004006247
0.00429043
0.004581654
0.00487701
0.005178877
0.005489928
0.005811331
0.006142059
0.006478254
0.006811765
0.007126725
0.007432268
0.007725739
0.007999081
0.008261478
0.008519717
0.00877804
0.009053634
0.009415044
0.01
0.01
0.01
0.01
0.01
0.01
0.01
0.01
0.01
0.01
0.01
0.01
0.01
0.01
0.009976399
0.009849497
0.009748971
0.009684219
0.009639429
0.009597481
0.009591214
0.009623537
0.009681629
0.009759791
0.009856075
0.009978602
0.01
0.01
0.01
0.01
0.01
0.01
0.01
0.01
0.01
0.01
0.01
0.01
0.01
0.01
0.01
0.01
0.01
0.01
0.01
0.01
0.01
0.01
0.01
0.01
0.01
0.01
0.01
0.01
0.01
0.01
0.01
0.01
0.01
0.01
0.01
0.01
0.01
0.01
0.01
0.01
0.01
0.01
0.01
0.01
0.01
0.01
0.01
0.01
0.01
0.01
0.01
0.01
0.01
0.01
0.01
0.01
0.01
0.01
0.01
0.01
0.01
0.009906957
0.009791959
0.009684741
0.009587135
0.009500667
0.009425843
0.009362965
0.009310268
0.009271379
0.009253144
0.009257972
0.009287225
0.009341361
0.009420522
0.009524345
0.009651302
0.009798424
0.009961269
0.01
0.01
0.01
0.01
0.01
0.01
0.01
0.01
0.01
0.01
0.01
0.01
0.009989337
0.009547763
0.009030368
0.008452028
0.007833417
0.007201039
0.00658777
0.006024643
0.00553185
0.005119873
0.004791751
0.004544384
0.00437024
0.00425883
0.004198213
0.004176319
0.004182122
0.004206182
0.004241153
0.004282042
0.004326193
0.004372923
0.004422727
0.0044766
0.004535448
0.004599758
0.00466948
0.004744046
0.004822482
0.004903554
0.004985919
0.005068258
0.005149362
0.005228179
0.005303815
0.005375436
0.005442225
0.005502697
0.005557711
0.005609132
0.005657066
0.005701661
0.005743096
0.005781577
0.005817316
0.005850504
0.005881305
0.005909839
0.00593618
0.005960351
0.005982322
0.006002023
0.006019339
0.006034133
0.006046245
0.006055512
0.006061756
0.006064746
0.006064257
0.006060117
0.006052199
0.006040395
0.006024617
0.006004808
0.005980937
0.005953001
0.005921034
0.005885107
0.005845321
0.005801816
0.005754765
0.005704374
0.005650888
0.005594594
0.005535805
0.00547486
0.005412121
0.005347966
0.005282773
0.005216912
0.005150724
0.005084507
0.005018522
0.004953012
0.004888123
0.004823812
0.004760799
0.004700001
0.004641458
0.004585085
0.004530778
0.00447842
0.004427893
0.004379077
0.004331866
0.004286149
0.004241852
0.004198889
0.004157236
0.004116828
0.004077716
0.004039834
0.004003342
0.003968131
0.003934551
0.003902408
0.003871886
0.003843065
0.003815871
0.003790423
0.003766872
0.003745332
0.003725876
0.003708554
0.003693395
0.003680411
0.003669602
0.003660957
0.00365445
0.003650041
0.003647683
0.003647312
0.00364886
0.003652253
0.003657409
0.003664241
0.003672659
0.003682561
0.00369385
0.003706429
0.003720201
0.003735059
0.003750908
0.003767656
0.003785214
0.0038035
0.003822448
0.003842
0.003862143
0.00388292
0.003904216
0.003925973
0.003948452
0.003971636
0.003995381
0.00401953
0.004043969
0.004068608
0.004093371
0.004118189
0.004143007
0.004167765
0.004192418
0.004216931
0.004241273
0.004265406
0.004289303
0.004312944
0.004336308
0.004359378
0.004382138
0.004404572
0.004426668
0.004448412
0.004469794
0.0044908
0.004511421
0.004531643
0.004551456
0.004570842
0.004589798
0.004608293
0.004626346
0.00464388
0.004660972
0.004677497
0.004693003
0.00470746
0.004720993
0.004733744
0.004745782
0.004757121
0.004767756
0.004777683
0.0047869
0.00479541
0.004803217
0.004810324
0.004816726
0.00482242
0.004827399
0.004831659
0.004835197
0.00483801
0.004840097
0.004841461
0.004842103
0.00484203
0.004841247
0.004839763
0.004837588
0.004834733
0.004831211
0.004827035
0.00482222
0.004816781
0.004810734
0.004804096
0.004796884
0.004789114
0.004780804
0.004771971
0.004762633
0.004752808
0.004742512
0.004731765
0.004720583
0.004708982
0.004696976
0.004684575
0.004671786
0.004658606
0.004645036
0.004631088
0.004616808
0.004602249
0.00458746
0.004572479
0.004557335
0.004542089
0.004526814
0.004511498
0.004496118
0.00448072
0.004465375
0.004450142
0.004435067
0.004420188
0.004405536
0.004391132
0.004376996
0.004363143
0.004349588
0.004336342
0.004323418
0.004310823
0.004298565
0.004286649
0.004275079
0.004263858
0.004252988
0.004242469
0.004232301
0.004222484
0.004213015
0.004203894
0.004195118
0.004186684
0.004178589
0.004170829
0.004163401
0.004156302
0.004149526
0.004143071
0.004136931
0.004131101
0.004125579
0.004120357
0.004115433
0.004110799
0.004106452
0.004102384
0.004098591
0.004095065
0.0040918
0.00408879
0.004086027
0.004083505
0.004081215
0.004079151
0.004077305
0.004075669
0.004074236
0.004072999
0.004071951
0.004071085
0.004070394
0.004069874
0.004069519
0.004069325
0.004069287
0.004069404
0.004069673
0.004070096
0.004070671
0.004071402
0.004072293
0.004073352
0.004074583
0.004076002
0.004077617
0.004079451
0.004081517
0.00408385
0.004086467
0.004089418
0.004092731
0.004096471
0.004100704
0.004105512
0.004111066
0.004117454
0.004125088
0.00413396
0.004144668
2.039149e-05
3.247823e-05
4.805626e-05
0.0002072385
0.0003352455
0.0005545171
0.0007758336
0.0009806857
0.001240726
0.001497519
0.001779861
0.002148193
0.002590081
0.003096938
0.003678612
0.004435829
0.005843261
0.006421518
0.006985122
0.007497702
0.007951417
0.008347453
0.008703503
0.009033628
0.009344838
0.009640871
0.009923215
0.01
0.01
0.01
0.01
0.01
0.01
0.01
0.01
0.01
0.01
0.01
0.01
0.01
0.01
0.01
0.01
0.01
0.01
0.01
0.01
0.01
0.01
0.01
0.01
0.01
0.009802833
0.009544369
0.009302767
0.009090539
0.008910051
0.008764064
0.008652036
0.008572409
0.00852472
0.008501744
0.008512965
0.008554571
0.008628185
0.008724752
0.008845857
0.008996955
0.009179839
0.009405265
0.009672979
0.009993748
0.01
0.01
0.01
0.01
0.01
0.01
0.01
0.01
0.01
0.01
0.01
0.01
0.01
0.01
0.01
0.01
0.01
0.01
0.01
0.01
0.01
0.01
0.01
0.01
0.01
0.01
0.01
0.01
0.01
0.01
0.01
0.01
0.01
0.01
0.01
0.01
0.01
0.01
0.01
0.01
0.01
0.01
0.01
0.01
0.01
0.01
0.01
0.01
0.01
0.01
0.01
0.01
0.01
0.01
0.01
0.01
0.01
0.01
0.01
0.01
0.01
0.01
0.01
0.01
0.01
0.01
0.01
0.01
0.01
0.01
0.01
0.01
0.01
0.01
0.01
0.01
0.01
0.01
0.01
0.01
0.01
0.01
0.01
0.01
0.01
0.01
0.01
0.01
0.01
0.01
0.01
0.009737322
0.009143195
0.008529262
0.007920448
0.007342439
0.006815792
0.00635439
0.005965687
0.005651467
0.005408621
0.005230355
0.005107668
0.005030589
0.004989182
0.004974403
0.004978768
0.004996765
0.005024907
0.005061399
0.005105586
0.005157378
0.005216795
0.005283653
0.005357409
0.005437124
0.00552152
0.005609097
0.005698267
0.005787485
0.005875345
0.005960647
0.006042403
0.006119834
0.006192253
0.006258852
0.006318697
0.006373694
0.006424917
0.006472653
0.006517217
0.006558944
0.006598156
0.006635145
0.006670146
0.006703336
0.006734818
0.006764631
0.006792742
0.006819057
0.006843429
0.006865668
0.006885553
0.006902836
0.006917234
0.006928451
0.006936216
0.006940289
0.006940452
0.006936507
0.006928286
0.006915654
0.006898502
0.006876751
0.006850356
0.006819331
0.006783726
0.006743635
0.006699192
0.006650591
0.006598077
0.006541943
0.00648253
0.006420225
0.00635545
0.006288652
0.006220288
0.006150817
0.006080678
0.006010282
0.005939991
0.005870101
0.005800845
0.005732365
0.005664728
0.005598864
0.005535085
0.005473342
0.005413539
0.005355553
0.00529923
0.005244411
0.005190926
0.00513862
0.00508734
0.005036975
0.004987415
0.00493862
0.004890537
0.004843223
0.00479668
0.004751066
0.004706449
0.004662996
0.004620855
0.00458014
0.004541028
0.00450372
0.004468414
0.004435288
0.004404507
0.004376211
0.004350525
0.004327547
0.004307353
0.00428999
0.004275483
0.004263829
0.004255005
0.004248967
0.004245652
0.004244985
0.004246872
0.00425121
0.004257886
0.004266778
0.00427776
0.0042907
0.004305463
0.004321913
0.004339918
0.004359344
0.004380067
0.004401968
0.004424946
0.004448925
0.004473855
0.004499681
0.004526044
0.004553095
0.004580962
0.004609538
0.004638679
0.004668255
0.004698161
0.004728306
0.00475861
0.004788999
0.00481941
0.004849783
0.00488007
0.004910225
0.004940209
0.004969988
0.004999522
0.005028783
0.005057751
0.005086402
0.005114716
0.005142675
0.00517026
0.005197455
0.005224244
0.005250615
0.005276553
0.005302037
0.005327048
0.005351583
0.005375616
0.005399146
0.005422136
0.005444583
0.005466426
0.005487609
0.005508094
0.005527867
0.005546911
0.005565208
0.005582743
0.005599505
0.005615476
0.005630637
0.005644973
0.005658468
0.005671113
0.005682894
0.005693802
0.005703828
0.005712964
0.005721205
0.005728549
0.005734993
0.00574054
0.005745192
0.005748955
0.005751836
0.005753845
0.005754992
0.00575529
0.005754753
0.005753396
0.005751234
0.005748286
0.005744568
0.0057401
0.005734899
0.005728984
0.005722375
0.00571509
0.005707149
0.005698572
0.005689378
0.005679586
0.005669216
0.005658285
0.005646811
0.005634807
0.005622285
0.005609255
0.005595725
0.005581709
0.005567241
0.005552365
0.005537128
0.005521575
0.005505751
0.005489709
0.005473483
0.005457069
0.005440498
0.005423836
0.00540715
0.00539049
0.005373894
0.0053574
0.005341045
0.005324863
0.005308886
0.005293141
0.005277653
0.005262443
0.005247532
0.005232934
0.005218665
0.005204736
0.005191157
0.005177935
0.005165077
0.005152588
0.005140471
0.005128731
0.005117367
0.005106382
0.005095776
0.005085549
0.0050757
0.005066228
0.005057131
0.005048408
0.005040057
0.005032075
0.005024461
0.005017211
0.005010323
0.005003794
0.00499762
0.004991798
0.004986324
0.004981193
0.004976402
0.004971944
0.004967815
0.004964009
0.00496052
0.004957341
0.004954467
0.004951889
0.004949602
0.004947597
0.004945868
0.004944408
0.004943209
0.004942264
0.004941568
0.004941113
0.004940895
0.004940908
0.004941147
0.00494161
0.004942294
0.004943198
0.004944322
0.004945666
0.004947234
0.004949032
0.004951064
0.004953341
0.004955872
0.004958675
0.004961761
0.004965158
0.004968883
0.004972973
0.004977458
0.004982388
0.004987828
0.004993842
0.005000573
0.005008057
0.005016623
0.005026155
0.005037381
1.924295e-05
2.935203e-05
5.630061e-05
0.0001668224
0.0002665769
0.000417184
0.0005324839
0.000663903
0.0008184544
0.0009708438
0.001150337
0.001385109
0.001657095
0.001985261
0.002417698
0.003241346
0.003631905
0.004055775
0.00450588
0.0049802
0.005482351
0.006003859
0.006530284
0.007047708
0.007542412
0.008005666
0.008456614
0.008961988
0.009440411
0.009879668
0.01
0.01
0.01
0.01
0.01
0.01
0.01
0.01
0.01
0.01
0.01
0.01
0.01
0.01
0.01
0.01
0.01
0.01
0.01
0.01
0.01
0.01
0.01
0.01
0.01
0.01
0.01
0.01
0.009972744
0.009627612
0.009269177
0.008944282
0.008656737
0.00839797
0.008168641
0.007976275
0.007821996
0.007711185
0.007635328
0.007595978
0.007590146
0.007618564
0.007682478
0.00778206
0.007926886
0.008109747
0.008354327
0.008656551
0.009021162
0.00942895
0.00988859
0.01
0.01
0.01
0.01
0.01
0.01
0.01
0.01
0.01
0.01
0.01
0.01
0.01
0.01
0.01
0.01
0.01
0.01
0.01
0.01
0.01
0.01
0.01
0.01
0.01
0.01
0.01
0.01
0.01
0.01
0.01
0.01
0.01
0.01
0.01
0.01
0.01
0.01
0.01
0.01
0.01
0.01
0.01
0.01
0.01
0.01
0.01
0.01
0.01
0.01
0.01
0.01
0.01
0.01
0.01
0.01
0.01
0.01
0.01
0.01
0.01
0.01
0.01
0.01
0.01
0.01
0.01
0.01
0.01
0.01
0.01
0.01
0.01
0.01
0.01
0.01
0.01
0.01
0.01
0.01
0.01
0.01
0.01
0.01
0.01
0.01
0.01
0.01
0.01
0.01
0.01
0.01
0.01
0.01
0.01
0.009591723
0.009017325
0.008460584
0.007938094
0.007464402
0.007049195
0.00669741
0.006409546
0.006182508
0.00601063
0.005886649
0.005802632
0.005750839
0.005724438
0.005717995
0.005727611
0.005750748
0.005785868
0.005832015
0.005888447
0.005954349
0.006028664
0.006110031
0.006196817
0.006287211
0.006379355
0.006471466
0.006561944
0.006649441
0.006732901
0.006811535
0.006884778
0.006952183
0.007012802
0.007067136
0.007117205
0.007163509
0.00720655
0.007246813
0.007284753
0.007320774
0.007355206
0.007388299
0.007420212
0.00745102
0.007480708
0.007509188
0.007536299
0.007561828
0.007585513
0.007607054
0.007626125
0.007642398
0.00765556
0.007665309
0.00767136
0.007673449
0.007671335
0.007664815
0.007653695
0.007637805
0.007617028
0.007591299
0.007560592
0.007524928
0.007484388
0.007439111
0.007389302
0.007335233
0.007277241
0.007215724
0.007151134
0.007083962
0.007014731
0.006943971
0.006872208
0.006799943
0.00672763
0.00665566
0.006584341
0.006513888
0.006444382
0.006376546
0.006310699
0.006246831
0.006184865
0.006124665
0.006066053
0.006008817
0.00595273
0.005897556
0.005843074
0.005789074
0.005735387
0.00568187
0.005628445
0.005575066
0.00552176
0.005468592
0.005415676
0.005363177
0.005311292
0.005260252
0.005210325
0.005161798
0.005114964
0.005070114
0.005027524
0.004987455
0.004950138
0.004915776
0.004884538
0.004856554
0.00483192
0.004810695
0.004792905
0.004778543
0.004767574
0.004759939
0.004755553
0.004754313
0.004756098
0.004760777
0.004768203
0.004778224
0.004790681
0.004805413
0.004822257
0.004841052
0.004861646
0.004883895
0.004907673
0.004932874
0.004959408
0.004987151
0.005015805
0.005045265
0.005075673
0.005106926
0.00513888
0.005171413
0.005204415
0.005237789
0.005271444
0.0053053
0.005339284
0.005373329
0.005407378
0.005441377
0.00547528
0.005509042
0.005542623
0.00557599
0.00560911
0.005641953
0.005674494
0.005706707
0.005738569
0.00577006
0.005801163
0.005831847
0.005862094
0.005891887
0.005921212
0.005950048
0.005978377
0.006006174
0.006033416
0.006060074
0.006086122
0.006111534
0.006136272
0.006160302
0.006183607
0.006206177
0.006227999
0.006249054
0.006269313
0.00628875
0.00630734
0.006325061
0.006341891
0.00635781
0.0063728
0.006386848
0.006399939
0.006412064
0.006423216
0.006433389
0.006442582
0.006450795
0.006458032
0.006464298
0.0064696
0.006473948
0.006477354
0.00647983
0.00648139
0.00648205
0.006481826
0.006480735
0.006478796
0.006476025
0.006472442
0.006468065
0.006462912
0.006457003
0.006450356
0.006442989
0.006434922
0.006426172
0.006416755
0.006406687
0.006395982
0.006384651
0.006372708
0.00636017
0.006347064
0.006333427
0.006319301
0.006304729
0.006289753
0.006274411
0.006258739
0.006242768
0.006226544
0.00621012
0.00619355
0.006176881