/*--------------------------------*- C++ -*----------------------------------*\
| =========                 |                                                 |
| \\      /  F ield         | foam-extend: Open Source CFD                    |
|  \\    /   O peration     | Version:     3.1                                |
|   \\  /    A nd           | Web:         http://www.extend-project.de       |
|    \\/     M anipulation  |                                                 |
\*---------------------------------------------------------------------------*/
FoamFile
{
    version     2.0;
    format      ascii;
    class       volScalarField;
    location    "8";
    object      omega;
}
// * * * * * * * * * * * * * * * * * * * * * * * * * * * * * * * * * * * * * //

dimensions      [0 0 -1 0 0 0 0];

internalField   nonuniform List<scalar> 
119952
(
316.9359
397.7096
377.4824
333.4811
303.5599
308.6927
317.0836
327.3804
338.9282
351.2656
364.1052
377.2097
390.371
403.3906
416.0701
428.2664
439.6069
449.7566
458.2287
465.1216
380.5897
365.0662
345.0837
249.1556
226.0754
234.0244
240.4281
240.7711
232.7127
183.2309
757.9552
622.5065
527.4115
463.2869
417.0534
381.7874
353.3187
329.5513
309.088
285.1023
231.0832
195.2496
171.6194
155.0492
142.7758
133.2713
125.6426
119.3495
113.9992
89.73262
86.72046
83.84281
81.12448
78.60294
76.28569
74.15993
72.20577
70.4053
68.79057
67.35698
65.91072
64.4419
62.93236
61.35284
59.67819
57.88636
55.94431
53.86233
52.64465
51.349
49.69037
48.11219
46.65895
45.31053
44.03146
42.85348
41.79815
40.87791
40.10459
39.48922
39.04261
38.77999
38.75723
39.01536
39.5708
40.4696
41.7612
43.51835
45.82423
49.49846
54.74755
61.64031
69.93898
78.04655
85.6135
92.16167
96.92732
99.4515
97.96793
93.52591
87.31029
80.45623
73.84875
67.99917
63.04133
58.91564
55.48716
52.60404
50.12878
47.95263
45.99856
44.21717
42.57713
41.05964
39.65457
38.35527
37.15738
36.05602
35.04402
34.11394
33.25892
32.47273
31.74971
31.08421
30.46786
29.89749
29.37926
28.9075
28.47818
28.08839
27.73576
27.41815
27.13341
26.87965
26.6552
26.45864
26.2887
26.14409
26.02362
25.9263
25.8512
25.79747
25.76424
25.75056
25.75483
25.77308
25.80307
25.9757
26.22167
26.46076
26.67418
26.86308
27.03954
27.21913
27.40278
27.59006
27.7825
27.98162
28.18839
28.40319
28.626
28.85639
29.09332
29.33377
29.57206
29.81078
30.05088
30.29148
30.53154
30.76945
31.00285
31.2369
31.47153
31.70221
31.92935
32.15304
32.37286
32.59019
32.80461
33.01622
33.22546
33.43263
33.6382
33.84262
34.04655
34.25056
34.45523
34.66123
34.86925
35.08007
35.2944
35.51298
35.73642
35.96491
36.19767
36.42565
36.59321
38.83062
42.78888
45.50678
47.33344
48.58529
49.49843
50.18975
50.74634
51.22423
51.65793
52.0704
52.47633
52.88637
53.30689
53.74304
54.19813
54.67427
55.17331
55.69649
56.24498
56.81996
57.42289
58.05464
58.71601
59.40787
60.13182
60.89007
61.67428
62.50203
63.36275
64.25855
65.18666
66.13922
67.08278
67.96152
67.80253
66.68873
65.70698
64.78762
63.90613
63.05064
62.21447
61.39401
60.58772
59.79487
59.01609
58.25262
57.50515
56.77419
56.06024
55.36382
54.68517
54.02423
53.38085
52.75482
52.14582
51.55359
50.97781
50.41805
49.87387
49.34481
48.83054
48.33074
47.84482
47.37235
46.91289
46.46581
46.03081
45.61007
45.19665
36.2745
35.76256
35.17237
34.50888
33.86461
33.26939
32.73463
32.25716
31.83728
31.47158
31.15496
30.88118
30.64325
30.43478
30.24994
30.08369
29.93174
29.79057
29.65738
29.52987
29.4052
29.2814
29.15786
29.03422
28.91035
28.78624
28.66198
28.53769
28.4135
28.28956
28.166
28.04293
27.92045
27.79865
27.67756
27.55724
27.4377
27.31898
27.20109
27.08408
26.96806
26.85325
26.74024
26.63054
26.5279
26.43636
26.35209
26.2694
26.18856
26.10931
26.0313
25.95543
25.88338
25.81941
25.82244
25.73343
25.63132
25.51766
25.39109
25.25363
25.10813
24.95828
24.80763
24.65906
24.51473
24.37606
24.24387
24.11848
23.9998
23.8875
23.78106
23.67985
23.58321
23.49047
23.40097
23.31413
23.22939
23.14628
23.06438
22.98334
22.90287
22.82275
22.74279
22.66286
22.58287
22.50276
22.42251
22.34209
22.26151
22.18079
22.09995
22.019
21.93799
21.85695
21.77591
21.69491
21.61397
21.53314
21.45244
21.37189
21.29153
21.21137
21.13143
21.05173
20.97229
20.89312
20.81422
20.73561
20.65728
20.57923
20.50147
20.42398
20.34677
20.26981
20.19309
20.1166
20.0403
19.96417
19.88817
19.81226
19.73637
19.66044
19.58438
19.5081
19.43144
19.35426
19.2763
19.19729
19.1168
19.03431
18.94895
18.8595
18.76381
18.65794
18.53306
18.36984
18.12511
17.75264
17.66653
621.4732
592.5794
543.7398
496.8401
456.8976
423.0063
393.9339
368.6886
345.7218
269.6588
197.5613
165.8042
150.2343
141.1959
134.7728
129.4719
124.7254
120.2899
95.33299
89.95705
85.01037
80.6743
76.99978
73.92055
71.32668
69.1086
67.17377
65.44029
63.9065
62.35914
60.73879
59.08728
57.44919
55.85969
54.34045
52.90115
51.54325
50.61725
49.92055
49.04548
48.07292
47.06655
46.06727
45.10244
44.19032
43.34199
42.56514
41.86391
41.22673
40.64847
40.12361
39.64849
39.22275
38.84674
38.52077
38.25652
35.18135
35.00091
34.84933
34.71626
34.58652
34.43861
34.27235
34.09099
33.89611
33.68855
33.47146
33.24309
32.99879
32.73456
32.44629
32.12817
31.77385
31.37318
30.9382
30.47057
29.94331
29.38908
28.83342
28.2807
27.73118
27.19428
26.685
26.21402
25.78976
25.41941
25.10859
24.86134
24.68096
24.57264
24.55302
24.62993
24.8181
25.14054
25.63156
26.34509
27.35469
28.71794
30.47474
32.65859
35.27218
38.27342
41.57655
45.01355
48.21787
50.96031
53.10095
54.46817
54.98465
54.64878
53.53845
51.79628
49.60987
47.18007
44.69183
42.28701
40.05267
38.02585
36.20775
34.57888
33.11257
31.78336
30.56934
29.45274
28.41957
27.45911
26.56309
25.72503
24.93969
24.20283
23.51141
22.86397
22.25875
21.68949
21.153
20.648
20.17289
19.72628
19.30689
18.9135
18.54493
18.20005
17.87777
17.57705
17.29687
17.03625
16.79426
16.56999
16.36255
16.17108
15.99469
15.83259
15.68409
15.54945
15.4291
15.32182
15.2268
15.14349
15.07139
15.00989
14.95831
14.91601
14.88238
14.85689
14.83906
14.82844
14.82466
14.82735
14.83619
14.8509
14.87121
14.8968
14.92714
14.96182
15.0008
15.04472
15.09349
15.14495
15.19736
15.24903
15.29805
15.34376
15.38678
15.42751
15.46618
15.50289
15.53765
15.57047
15.60126
15.62995
15.65642
15.68052
15.70201
15.72071
15.73628
15.74855
15.75705
15.76167
15.76179
15.75738
15.74734
15.73145
15.70778
15.66712
15.94235
16.25577
16.46315
16.59302
16.66734
16.70146
16.70633
16.68997
16.65816
16.61497
16.56336
16.50555
16.44324
16.3778
16.31031
16.24165
16.17256
16.10361
16.0353
15.96802
15.90214
15.83795
15.77567
15.71543
15.65742
15.60168
15.54819
15.49702
15.44791
15.40066
15.35481
15.30946
15.26278
15.21082
15.14613
15.06109
14.97206
14.88496
14.79862
14.71289
14.62827
14.54505
14.46343
14.38357
14.30553
14.22935
14.15505
14.08257
14.01186
13.94286
13.87549
13.80968
13.74533
13.68239
13.62079
13.56047
13.50137
13.44345
13.38669
13.33104
13.27649
13.22303
13.17066
13.11936
13.06915
13.02004
12.97208
12.92536
12.88025
12.8392
11.50986
11.44367
11.39058
11.34459
11.3022
11.262
11.22348
11.18627
11.1501
11.11478
11.08027
11.04656
11.01367
10.98165
10.95056
10.92043
10.89132
10.86325
10.83624
10.81029
10.7854
10.76155
10.7387
10.71681
10.69584
10.67575
10.65648
10.63798
10.62019
10.60308
10.58657
10.57063
10.55519
10.54023
10.52568
10.51151
10.49767
10.48413
10.47086
10.45786
10.44512
10.43272
10.42075
10.40938
10.39867
10.3885
10.3784
10.36808
10.35753
10.34684
10.33595
10.32487
10.31358
10.30389
10.2958
10.28362
10.26846
10.25229
10.23566
10.2185
10.20063
10.18191
10.16225
10.14159
10.11991
10.0972
10.07349
10.04882
10.02324
9.996825
9.969652
9.941792
9.913322
9.884316
9.854843
9.824969
9.794755
9.764256
9.733521
9.702593
9.67151
9.640304
9.609004
9.577631
9.546206
9.514743
9.483253
9.451746
9.420225
9.388695
9.357154
9.325603
9.294037
9.262452
9.230843
9.199204
9.167528
9.135809
9.10404
9.072213
9.040323
9.008362
8.976326
8.944208
8.912004
8.879709
8.847321
8.814834
8.782248
8.749559
8.716767
8.683869
8.650866
8.617754
8.584535
8.551203
8.51776
8.484198
8.450517
8.416701
8.382751
8.348635
8.314354
8.279851
8.245122
8.210069
8.174674
8.138764
8.102284
8.06491
8.026468
7.986286
7.943817
7.897607
7.846425
7.788752
7.726015
7.666035
7.611397
581.6431
509.3294
450.3628
406.8851
373.6993
347.7397
326.8932
309.888
295.652
276.756
185.2104
172.7029
162.5624
154.0467
146.6727
139.9257
133.0556
124.2325
106.6594
76.59432
74.19055
72.66905
71.61243
70.71795
70.04114
69.57526
68.97531
67.71982
64.14766
62.25592
61.96611
61.73004
61.4476
61.13678
60.81051
60.45538
60.05497
59.52355
59.10145
57.88446
56.94022
56.21822
55.60599
55.04089
54.49467
53.95032
53.40017
52.84326
52.20773
51.48878
50.71922
49.94105
49.18122
48.4523
47.75574
47.08963
44.18683
43.61001
43.05727
42.5133
41.97167
41.43033
40.88924
40.34894
39.8105
39.27347
38.73653
38.20026
37.66394
37.12575
36.58532
36.04333
35.5018
34.96395
34.43353
33.91539
33.41482
32.93658
32.48275
32.05487
31.65408
31.28115
30.93642
30.61967
30.32961
30.06505
29.82483
29.60738
29.41111
29.235
29.07772
28.93831
28.81385
28.69464
28.64004
28.58722
28.52988
28.45717
28.37025
28.28485
28.19795
28.10508
28.00333
27.89052
27.76371
27.61939
27.45423
27.26403
27.04504
26.79583
26.51985
26.23044
25.92824
25.60552
25.25897
24.89344
24.51916
24.14454
23.77643
23.42027
23.08307
22.77278
22.49621
22.25958
22.06777
21.92328
21.82707
21.7796
21.78461
21.84886
21.97571
22.17306
22.45342
22.83502
23.34448
24.0093
24.85288
25.91029
27.21491
28.77591
30.57304
32.55649
34.61708
36.60786
38.42297
39.95083
41.10776
41.84521
42.14108
41.99929
41.44821
40.53606
39.33299
37.92688
36.41052
34.86702
33.35891
31.92557
30.58823
29.35463
28.2231
27.18652
26.23528
25.35921
24.54863
23.79487
23.09034
22.42862
21.80439
21.21342
20.65267
20.12121
19.61652
19.13382
18.67188
18.23014
17.8081
17.40541
17.02179
16.65701
16.31078
15.98277
15.6726
15.37983
15.10396
14.84445
14.60074
14.37221
14.15827
13.95833
13.7719
13.59866
13.43831
13.29015
13.15354
13.02804
12.9133
12.8089
12.71442
12.62944
12.55352
12.48622
12.4271
12.37572
12.33163
12.29438
12.26352
12.2386
12.21916
12.20475
12.1949
12.18921
12.18731
12.18886
12.19338
12.20052
12.21005
12.22201
12.23689
12.25436
12.27279
12.29057
12.30755
12.3241
12.34048
12.35687
12.37347
12.39036
12.40765
12.42531
12.44333
12.46152
12.47977
12.49771
12.51513
12.53144
12.54641
12.55918
12.56968
12.57652
12.58
12.57828
12.5993
12.60016
12.58623
12.56104
12.52713
12.48605
12.43878
12.38598
12.32813
12.26567
12.19898
12.12848
12.0546
11.97777
11.89845
11.81709
11.73415
11.65004
11.56517
11.47994
11.39469
11.30973
11.22531
11.1417
11.05907
10.97757
10.89729
10.81828
10.74054
10.66397
10.5884
10.51347
10.43865
10.36325
10.2869
10.21123
10.13741
10.06562
9.995503
9.926915
9.859782
9.794038
9.729635
9.66654
9.60473
9.54419
9.484908
9.426868
9.370056
9.314458
9.260056
9.206831
9.154764
9.103833
9.054018
9.005297
8.957648
8.911051
8.865483
8.820929
8.777366
8.734782
8.693156
8.652489
8.612753
8.573978
8.536127
8.499283
8.463168
8.425389
8.410899
8.394396
8.375455
8.35442
8.332236
8.309611
8.286865
8.264094
8.241337
8.218637
8.196045
8.173611
8.151371
8.129359
8.107602
8.086127
8.064962
8.04413
8.023651
8.003542
7.98382
7.964495
7.945576
7.927068
7.908976
7.8913
7.874038
7.857187
7.840741
7.824692
7.809032
7.793749
7.778832
7.764267
7.750042
7.736142
7.722554
7.709264
7.696265
7.683549
7.671125
7.659001
7.647201
7.635732
7.624588
7.613682
7.602894
7.592051
7.581135
7.570088
7.55895
7.547583
7.535974
7.523868
7.511548
7.498964
7.48629
7.473491
7.460335
7.446632
7.432315
7.417395
7.401898
7.385845
7.369248
7.352116
7.334463
7.316308
7.297673
7.27858
7.259054
7.239119
7.218803
7.19813
7.177127
7.155819
7.134233
7.112392
7.09032
7.068038
7.045567
7.022925
7.000131
6.977198
6.954141
6.930971
6.907698
6.88433
6.860874
6.837333
6.813712
6.790012
6.766235
6.742379
6.718445
6.69443
6.670331
6.646147
6.621872
6.597505
6.573041
6.548477
6.523809
6.499033
6.474147
6.449148
6.424032
6.398799
6.373445
6.34797
6.322373
6.296653
6.27081
6.244845
6.218755
6.192545
6.166209
6.139754
6.11317
6.086465
6.059623
6.032653
6.005524
5.978251
5.950777
5.923119
5.89518
5.866974
5.838331
5.80925
5.779418
5.748788
5.716823
5.68347
5.648083
5.611078
5.572272
5.533546
5.497173
333.5867
239.1757
348.1728
155.6305
121.9314
90.70422
78.45665
68.48699
60.22773
56.40543
54.87521
54.08916
53.23952
52.31967
51.42973
50.60553
49.82531
49.07254
48.33955
47.63344
46.97779
46.41756
46.04708
45.78554
45.6028
45.5107
45.45695
45.41742
45.3735
45.27541
44.99308
43.53032
43.89386
44.24318
44.59714
44.95812
45.33093
45.71102
46.08072
46.41402
46.68027
46.99716
47.35751
47.65726
47.89463
48.0715
48.18925
48.24064
48.22235
48.14437
48.01149
47.81064
47.54943
47.23905
46.88828
46.50247
46.08315
45.63635
45.16626
44.67561
44.16251
43.63171
43.08748
42.53455
41.97906
41.42506
40.8807
40.33746
39.82937
39.32434
38.82566
38.33158
37.8416
37.35582
36.87358
36.39372
35.91475
35.43537
34.95457
34.4716
33.98618
33.49896
33.01083
32.52295
32.0375
31.55756
31.08699
30.63001
30.19072
29.77351
29.38207
29.01931
28.68713
28.38636
28.11669
27.87687
27.66466
27.47717
27.31154
27.1647
27.03385
26.91629
26.81004
26.7126
26.62255
26.53628
26.45477
26.37271
26.28097
26.18471
26.08561
25.98228
25.87317
25.75786
25.63643
25.50855
25.3728
25.22676
25.06686
24.88916
24.68996
24.46678
24.21946
23.95034
23.66405
23.36899
23.06682
22.75708
22.44665
22.14241
21.85022
21.57572
21.32537
21.10549
20.92142
20.77758
20.67688
20.62076
20.60858
20.6376
20.7045
20.80963
20.94964
21.1228
21.32963
21.57447
21.86712
22.21861
22.64349
23.16646
23.81513
24.60626
25.54629
26.62881
27.82207
29.06983
30.31124
31.48182
32.51938
33.37203
34.00102
34.3812
34.50034
34.35856
33.96586
33.34564
32.53521
31.58191
30.53657
29.44775
28.35711
27.29619
26.28606
25.3387
24.45899
23.6468
22.8987
22.20933
21.57233
20.98106
20.42909
19.91049
19.42017
18.95394
18.50843
18.08245
17.67251
17.27502
16.88963
16.51614
16.15462
15.80537
15.46871
15.145
14.83451
14.53745
14.2539
13.98386
13.7272
13.48372
13.25316
13.03522
12.82957
12.63591
12.45397
12.28336
12.12363
11.97439
11.83535
11.70624
11.58677
11.47661
11.37544
11.28294
11.19876
11.1225
11.05376
10.99212
10.93714
10.88836
10.84529
10.80745
10.77435
10.7455
10.72043
10.69869
10.67985
10.66355
10.64949
10.63743
10.62726
10.61891
10.61248
10.60822
10.60539
10.60295
10.60101
10.59988
10.59984
10.60117
10.60413
10.60894
10.61578
10.62477
10.63597
10.64933
10.66477
10.68202
10.70086
10.72079
10.74146
10.7622
10.78258
10.80218
10.82188
10.84016
10.85533
10.86632
10.87253
10.87357
10.86907
10.85874
10.84238
10.81992
10.79138
10.7569
10.7167
10.67109
10.62044
10.56518
10.50575
10.44266
10.37638
10.3074
10.2362
10.16324
10.08894
10.01368
9.937779
9.86156
9.785262
9.709072
9.633122
9.557486
9.482159
9.4071
9.332199
9.25737
9.182934
9.109527
9.037538
8.967257
8.898617
8.831488
8.765757
8.70134
8.638175
8.576214
8.515408
8.45574
8.397179
8.339692
8.28325
8.227848
8.173466
8.12008
8.067674
8.016233
7.965744
7.916195
7.867576
7.819876
7.773089
7.727204
7.682219
7.638121
7.594918
7.552592
7.511167
7.470599
7.430962
7.392144
7.354367
7.317193
7.281727
7.247504
7.214454
7.18255
7.151696
7.121762
7.092629
7.064206
7.03643
7.009259
6.982667
6.956635
6.931143
6.906172
6.881704
6.857723
6.834215
6.811165
6.788562
6.766396
6.744655
6.723333
6.702421
6.681913
6.661802
6.642083
6.622751
6.6038
6.585225
6.567021
6.549183
6.531704
6.514579
6.497801
6.481365
6.465261
6.449484
6.434026
6.418882
6.404047
6.389519
6.375295
6.361369
6.34773
6.334356
6.321202
6.308201
6.295264
6.282346
6.269413
6.256451
6.243415
6.23028
6.217067
6.203857
6.190505
6.176843
6.162821
6.148464
6.133798
6.118836
6.103579
6.088027
6.072179
6.056033
6.039587
6.022844
6.005811
5.988496
5.970911
5.953069
5.934983
5.91667
5.898143
5.879419
5.860514
5.841443
5.82222
5.80286
5.783378
5.763784
5.744092
5.724311
5.704451
5.684519
5.664523
5.644466
5.624354
5.604189
5.583973
5.563707
5.54339
5.523021
5.502598
5.482119
5.46158
5.440978
5.420309
5.399568
5.378752
5.357854
5.336871
5.315798
5.29463
5.273364
5.251995
5.230519
5.208932
5.187233
5.165417
5.143484
5.12143
5.099255
5.076958
5.054538
5.031995
5.009327
4.986536
4.963618
4.940577
4.917405
4.894105
4.870663
4.847083
4.823339
4.79943
4.775311
4.750977
4.726341
4.701389
4.675975
4.650072
4.623468
4.596182
4.568003
4.539133
4.509471
4.479719
4.451169
297.2742
199.3607
149.8685
135.9061
110.6067
93.60871
80.72371
75.61529
69.85538
66.42705
63.38838
59.38873
55.36244
51.55331
48.05192
44.23544
38.64304
37.2729
36.23541
35.59775
35.29905
35.20628
35.19365
35.21675
35.26971
35.35101
35.46084
35.59871
35.76587
35.96481
36.19861
36.47618
36.8079
37.17907
37.5764
37.99495
38.43247
38.88685
39.36007
39.85239
40.36182
40.85421
41.26812
41.7558
42.25646
42.75339
43.25909
43.78227
44.324
44.87995
45.44355
45.93428
46.3565
46.72793
47.02778
47.24509
47.37579
47.41746
47.37327
47.24848
47.05051
46.78911
46.4677
46.09194
45.66662
45.19994
44.69735
44.16295
43.60014
43.01373
42.40937
41.79534
41.18552
40.58614
40.00022
39.43069
38.87942
38.34683
37.83103
37.32796
36.84127
36.37086
35.9122
35.46192
35.01805
34.57844
34.14058
33.70182
33.26005
32.81408
32.3625
31.90524
31.44347
30.97859
30.51288
30.04963
29.59291
29.14773
28.71958
28.31381
27.93558
27.58924
27.27795
27.00359
26.76647
26.56531
26.39731
26.25815
26.14263
26.04546
25.96143
25.88574
25.81441
25.7448
25.67501
25.60411
25.53065
25.45254
25.36609
25.27126
25.16727
25.05257
24.92684
24.79093
24.64701
24.49762
24.34455
24.18809
24.02666
23.85689
23.67486
23.47672
23.2596
23.02238
22.766
22.49375
22.21093
21.9243
21.63883
21.35955
21.09327
20.8467
20.62632
20.43856
20.28918
20.18257
20.12171
20.10804
20.14127
20.21815
20.33211
20.47422
20.63837
20.81755
21.00333
21.18935
21.37308
21.55725
21.74746
21.95411
22.1947
22.4882
22.84952
23.29098
23.82025
24.43469
25.12122
25.85558
26.6053
27.33364
28.00375
28.58181
29.03905
29.3525
29.50466
29.48406
29.28733
28.92099
28.40168
27.75467
27.0111
26.20426
25.36603
24.52412
23.70061
22.91151
22.16721
21.47319
20.83103
20.23934
19.69467
19.19227
18.72672
18.29246
17.88417
17.49715
17.12741
16.77214
16.42979
16.09624
15.76967
15.4498
15.13668
14.83064
14.53221
14.242
13.96062
13.68861
13.42639
13.1743
12.9325
12.70108
12.48003
12.26925
12.06862
11.87799
11.69713
11.5258
11.36376
11.21085
11.06691
10.93176
10.80523
10.68714
10.57727
10.47541
10.38131
10.29465
10.21508
10.14224
10.07574
10.01514
9.959978
9.909778
9.864057
9.822331
9.784125
9.748981
9.71647
9.686206
9.657858
9.631165
9.605935
9.582067
9.559587
9.538642
9.51939
9.501095
9.483655
9.467345
9.452464
9.439332
9.428272
9.419607
9.413624
9.410581
9.41066
9.414001
9.420632
9.430536
9.44356
9.45951
9.478081
9.498907
9.52163
9.545752
9.570688
9.595778
9.620273
9.643432
9.664543
9.68292
9.697916
9.708946
9.71551
9.717207
9.71374
9.704919
9.690658
9.670972
9.64597
9.615846
9.580862
9.541342
9.497651
9.450183
9.399348
9.345558
9.289214
9.230697
9.170367
9.108547
9.045523
8.981535
8.916779
8.851409
8.785546
8.719293
8.652768
8.586187
8.52016
8.454866
8.390443
8.326984
8.264454
8.202808
8.142019
8.082074
8.022957
7.964653
7.907146
7.850424
7.794472
7.739277
7.68483
7.631118
7.578148
7.52591
7.474396
7.423603
7.37353
7.324179
7.275554
7.227659
7.180499
7.13408
7.088406
7.043503
6.99937
6.956024
6.913458
6.871704
6.830739
6.790601
6.751216
6.712617
6.674839
6.637917
6.601849
6.566616
6.532207
6.498614
6.465822
6.433805
6.402537
6.371991
6.342142
6.312966
6.284436
6.256528
6.229216
6.202478
6.17629
6.150634
6.125489
6.100839
6.076668
6.052961
6.029706
6.006892
5.984508
5.962546
5.940999
5.919858
5.899118
5.878772
5.858816
5.839244
5.820051
5.801231
5.782779
5.76469
5.746958
5.729576
5.712539
5.695839
5.679469
5.663416
5.647665
5.632191
5.61696
5.601925
5.587034
5.572245
5.557532
5.542871
5.528242
5.513628
5.499018
5.484382
5.469634
5.454718
5.439631
5.424381
5.408961
5.393356
5.377551
5.361539
5.34532
5.328891
5.312257
5.295421
5.278388
5.261169
5.243771
5.226206
5.208486
5.190622
5.172627
5.154514
5.136296
5.117986
5.099595
5.081137
5.062621
5.044059
5.025459
5.00683
4.988178
4.96951
4.95083
4.932142
4.913448
4.894751
4.876049
4.857343
4.83863
4.819909
4.801177
4.782429
4.763662
4.744871
4.72605
4.707194
4.688297
4.669353
4.650356
4.6313
4.612178
4.592986
4.573717
4.554365
4.534926
4.515394
4.495765
4.476034
4.456198
4.436254
4.416198
4.396028
4.375743
4.355339
4.334816
4.314171
4.293404
4.272511
4.251491
4.230337
4.209048
4.187611
4.166021
4.144254
4.122301
4.100121
4.077697
4.054963
4.031905
4.00844
3.984585
3.960265
3.935582
3.910507
3.885352
3.861346
145.3132
108.754
166.4969
84.03066
72.3913
62.71769
59.868
57.86634
55.64681
54.84135
53.74181
51.98896
50.28927
48.42239
46.15305
41.74478
40.63458
39.56705
38.51865
37.50138
36.47807
35.49596
34.61561
33.86895
33.27476
32.83386
32.46968
32.08243
31.85526
31.80097
31.89471
32.08341
32.31818
32.57824
32.85671
33.15119
33.4607
33.78458
34.12438
34.48308
34.86994
35.27879
35.7043
36.14454
36.59963
37.06957
37.55331
38.04836
38.55251
39.0625
39.57203
40.06857
40.56268
41.1148
41.67519
42.22911
42.78872
43.37811
43.97252
44.54527
45.07475
45.51384
45.84067
46.05785
46.16819
46.17182
46.07188
45.87193
45.58466
45.22071
44.79266
44.31084
43.78535
43.22369
42.63096
42.01445
41.37835
40.73125
40.08208
39.44715
38.83174
38.24422
37.68579
37.15691
36.65703
36.18477
35.73819
35.31446
34.91066
34.523
34.14939
33.78717
33.43249
33.08195
32.7331
32.38357
32.0307
31.67155
31.30403
30.92723
30.54027
30.14383
29.73983
29.33
28.91738
28.5068
28.10396
27.71535
27.34782
27.00803
26.70216
26.4351
26.21042
26.02997
25.89317
25.79691
25.73535
25.70011
25.68162
25.67046
25.65755
25.63494
25.59685
25.54014
25.46405
25.37023
25.26166
25.14232
25.01831
24.88863
24.74945
24.59869
24.43619
24.26369
24.08452
23.90255
23.72089
23.54093
23.36171
23.18017
22.99189
22.79232
22.57779
22.34648
22.09876
21.83737
21.5672
21.29521
21.0301
20.77912
20.55002
20.35077
20.18908
20.07192
20.00451
19.98974
20.02839
20.11944
20.25927
20.44024
20.64996
20.87271
21.09496
21.30939
21.50426
21.67084
21.80526
21.90944
21.98961
22.0556
22.12039
22.19683
22.29669
22.43161
22.61215
22.84635
23.13719
23.48126
23.86792
24.28116
24.69948
25.09918
25.4564
25.74839
25.95431
26.05638
26.04136
25.90205
25.63833
25.25743
24.77339
24.20556
23.57647
22.90936
22.22616
21.54598
20.88428
20.2525
19.65817
19.10525
18.5947
18.12513
17.6934
17.29529
16.92602
16.5807
16.25469
15.94394
15.64511
15.35644
15.07543
14.79892
14.52628
14.25734
13.99231
13.73169
13.4761
13.22623
12.98273
12.74617
12.517
12.29554
12.08202
11.87652
11.67908
11.48965
11.30815
11.13445
10.96845
10.81007
10.65925
10.51594
10.3801
10.25167
10.13059
10.01676
9.910089
9.810395
9.717454
9.631006
9.550748
9.476338
9.407394
9.343506
9.284239
9.229147
9.17778
9.12969
9.084443
9.041629
9.000873
8.961846
8.924279
8.887966
8.852785
8.818706
8.785808
8.75427
8.723706
8.694075
8.665605
8.638571
8.613282
8.590073
8.569283
8.551245
8.536261
8.524602
8.516479
8.512052
8.511401
8.514542
8.521414
8.531867
8.545696
8.562585
8.582163
8.603992
8.627536
8.652196
8.677346
8.702341
8.726529
8.749267
8.769939
8.787969
8.802843
8.814115
8.821418
8.824473
8.823086
8.817154
8.80666
8.791663
8.772295
8.748746
8.721252
8.690087
8.655543
8.617928
8.577547
8.534701
8.489671
8.442719
8.394083
8.343976
8.292594
8.240121
8.186742
8.13268
8.078216
8.023806
7.969672
7.915686
7.861901
7.808345
7.755036
7.701997
7.649247
7.5968
7.544668
7.492857
7.441375
7.390228
7.339422
7.28896
7.238854
7.189112
7.139744
7.090761
7.042179
6.994012
6.94628
6.899001
6.852196
6.805882
6.760098
6.714867
6.670208
6.626148
6.582706
6.53991
6.497774
6.456314
6.415537
6.375462
6.3361
6.297444
6.259483
6.222223
6.185683
6.149881
6.114819
6.08049
6.046882
6.013981
5.98177
5.950232
5.919349
5.889101
5.859466
5.830424
5.801954
5.774039
5.746658
5.719794
5.693431
5.667555
5.642151
5.617209
5.592717
5.568666
5.545049
5.521858
5.499088
5.476733
5.454789
5.433252
5.412118
5.391383
5.371043
5.351093
5.33153
5.312347
5.293538
5.275095
5.257007
5.239263
5.221843
5.204727
5.187885
5.171282
5.15488
5.138647
5.122555
5.10658
5.090701
5.074893
5.059126
5.043368
5.02758
5.011737
4.995821
4.979818
4.963712
4.947487
4.931131
4.914636
4.897999
4.881217
4.864291
4.847222
4.830015
4.812676
4.795212
4.777632
4.759945
4.742162
4.724295
4.706355
4.688354
4.670304
4.652217
4.634103
4.615972
4.597836
4.579702
4.561578
4.543471
4.525388
4.507332
4.489307
4.471315
4.453359
4.435438
4.417552
4.399699
4.381876
4.364082
4.346311
4.328559
4.310822
4.293093
4.275366
4.257635
4.239893
4.222134
4.20435
4.186534
4.168679
4.150777
4.132822
4.114808
4.096726
4.078571
4.060337
4.042018
4.02361
4.005106
3.986502
3.967795
3.948981
3.930056
3.911017
3.891861
3.872584
3.853185
3.833657
3.813998
3.794199
3.774256
3.754155
3.733887
3.713432
3.692778
3.671897
3.65078
3.629397
3.607759
3.585848
3.563713
3.541372
3.518985
3.497815
58.13362
43.64913
45.3888
43.29163
42.28164
41.12693
40.27895
39.60093
39.06628
38.15198
35.76144
35.6678
35.57216
35.46952
35.32087
35.1154
34.89286
34.68592
34.50688
34.34419
34.06669
33.54128
33.01667
32.496
31.99463
31.51752
31.08815
30.72758
30.44623
30.24043
30.1045
30.02898
30.02162
30.11289
30.30455
30.5779
30.90252
31.25124
31.60939
31.96925
32.32693
32.68039
33.02864
33.37808
33.73815
34.10683
34.48629
34.88008
35.29097
35.72142
36.17324
36.64661
37.13891
37.64196
38.15133
38.6633
39.17674
39.69102
40.24689
40.84383
41.44119
42.02245
42.59458
43.11912
43.559
43.89417
44.10586
44.17764
44.11445
43.92738
43.62831
43.23044
42.74771
42.19778
41.59471
40.95392
40.28744
39.60957
38.92866
38.25611
37.59894
36.97668
36.39756
35.86434
35.38241
34.95096
34.56155
34.20705
33.88284
33.58441
33.30701
33.04637
32.79843
32.55916
32.32427
32.09002
31.85328
31.61126
31.36202
31.10452
30.83771
30.56003
30.26962
29.9656
29.64855
29.32004
28.98209
28.63719
28.28861
27.94083
27.59946
27.27113
26.96372
26.68567
26.44527
26.25005
26.10581
26.017
25.98485
26.00617
26.07282
26.17157
26.28572
26.39864
26.49507
26.56065
26.58344
26.55569
26.47398
26.33939
26.15768
25.9392
25.70122
25.46317
25.22356
24.98137
24.73592
24.48744
24.23769
23.98996
23.74826
23.51604
23.29492
23.08404
22.88
22.6776
22.47112
22.25566
22.02826
21.78855
21.53899
21.28465
21.03326
20.79605
20.58429
20.40753
20.27531
20.19642
20.17758
20.22202
20.32929
20.49639
20.71845
20.98734
21.28928
21.60374
21.90562
22.17115
22.39636
22.5706
22.68686
22.74441
22.7496
22.71421
22.65184
22.57433
22.49044
22.40748
22.33329
22.27753
22.2513
22.2637
22.32039
22.42247
22.56573
22.74115
22.93637
23.135
23.31854
23.46796
23.56515
23.59412
23.54238
23.40198
23.17027
22.85024
22.45021
21.98289
21.46395
20.91044
20.33931
19.76615
19.20427
18.66418
18.15334
17.67625
17.23473
16.82836
16.455
16.1113
15.79323
15.4965
15.21689
14.9506
14.69447
14.44616
14.20446
13.96636
13.73068
13.49719
13.26598
13.03743
12.81213
12.59072
12.37383
12.16202
11.95575
11.75535
11.56105
11.37295
11.19108
11.01542
10.8459
10.68247
10.52508
10.37372
10.22842
10.08921
9.956135
9.829244
9.708556
9.594103
9.485842
9.383673
9.287455
9.197003
9.11208
9.032404
8.957652
8.88747
8.821482
8.759296
8.700515
8.644744
8.591599
8.540715
8.491756
8.444427
8.398475
8.353706
8.309989
8.267271
8.225593
8.185055
8.145393
8.106686
8.069111
8.032901
7.998328
7.965693
7.93531
7.907494
7.882549
7.86075
7.84234
7.827514
7.816416
7.809133
7.805684
7.806031
7.810062
7.817597
7.828386
7.842102
7.858353
7.876702
7.896668
7.917741
7.939383
7.961044
7.982176
8.002247
8.02075
8.037222
8.051247
8.06247
8.0706
8.075417
8.076769
8.074576
8.06882
8.059542
8.046832
8.030824
8.011682
7.989592
7.964755
7.937377
7.907666
7.875821
7.842038
7.806504
7.769404
7.730922
7.691256
7.650626
7.609268
7.567414
7.525384
7.483174
7.440617
7.397719
7.354541
7.311118
7.267481
7.223656
7.179666
7.135532
7.091272
7.046905
7.002446
6.957913
6.913325
6.868703
6.824069
6.779447
6.734867
6.690356
6.645949
6.601677
6.557575
6.513692
6.470069
6.426741
6.383749
6.341132
6.29893
6.257179
6.215914
6.175167
6.134966
6.095331
6.05627
6.017799
5.979939
5.942714
5.906143
5.870234
5.83499
5.800409
5.766484
5.733209
5.700573
5.668563
5.637165
5.606362
5.576138
5.546475
5.517357
5.488765
5.460685
5.433099
5.405995
5.37936
5.353182
5.327451
5.302159
5.277298
5.252862
5.228846
5.205247
5.18206
5.159285
5.136918
5.114957
5.093401
5.072246
5.05149
5.031128
5.011154
4.991562
4.972341
4.953479
4.934961
4.916766
4.898869
4.881244
4.863861
4.84669
4.829705
4.812882
4.796196
4.77962
4.763126
4.746687
4.730276
4.713866
4.697435
4.680962
4.66443
4.647825
4.631135
4.614352
4.597469
4.580482
4.563389
4.54619
4.528887
4.511484
4.493988
4.476405
4.458743
4.441013
4.423224
4.405388
4.387516
4.369619
4.351708
4.333794
4.315888
4.298
4.280138
4.262311
4.244526
4.22679
4.209107
4.191483
4.173919
4.156419
4.138983
4.121612
4.104304
4.087058
4.069872
4.052742
4.035664
4.018633
4.001644
3.984691
3.967767
3.950866
3.93398
3.917102
3.900225
3.88334
3.86644
3.849516
3.83256
3.815565
3.798524
3.781427
3.764269
3.747042
3.729739
3.712354
3.694882
3.677317
3.659652
3.641885
3.624009
3.606021
3.587916
3.56969
3.551337
3.532852
3.514229
3.49546
3.476539
3.457455
3.438201
3.418764
3.399141
3.379324
3.35932
3.339135
3.318793
3.298334
3.277853
3.258631
91.12759
35.54311
31.14204
30.05027
29.43376
29.1849
29.22378
29.42034
29.72194
30.09303
30.39998
30.52428
30.62811
30.69969
30.73903
30.74223
30.72042
30.67627
30.60099
30.47724
30.28325
30.03265
29.78087
29.53524
29.30733
29.10669
28.9445
28.83157
28.77204
28.76203
28.80116
28.88964
29.03506
29.24384
29.51266
29.82582
30.16178
30.50161
30.83423
31.15344
31.45641
31.74253
32.02656
32.32124
32.62602
32.94513
33.28415
33.64918
34.04385
34.4702
34.92991
35.42298
35.94884
36.48233
37.02214
37.57114
38.15171
38.71365
39.2964
39.88897
40.47322
41.00788
41.45394
41.78515
41.97829
42.02581
41.92504
41.67976
41.30352
40.81336
40.22985
39.5733
38.86537
38.12708
37.37878
36.63801
35.92314
35.25354
34.64684
34.11997
33.67256
33.30621
33.01782
32.79655
32.62769
32.50139
32.40654
32.33291
32.2724
32.21794
32.16324
32.10359
32.035
31.95329
31.85387
31.7334
31.58956