/*--------------------------------*- C++ -*----------------------------------*\
| =========                 |                                                 |
| \\      /  F ield         | foam-extend: Open Source CFD                    |
|  \\    /   O peration     | Version:     3.1                                |
|   \\  /    A nd           | Web:         http://www.extend-project.de       |
|    \\/     M anipulation  |                                                 |
\*---------------------------------------------------------------------------*/
FoamFile
{
    version     2.0;
    format      ascii;
    class       volScalarField;
    location    "8";
    object      pd;
}
// * * * * * * * * * * * * * * * * * * * * * * * * * * * * * * * * * * * * * //

dimensions      [1 -1 -2 0 0 0 0];

internalField   nonuniform List<scalar> 
119952
(
7554.61
6793.878
6684.534
6804.999
6930.657
6843.247
6823.921
6807.976
6798.047
6792.431
6791.102
6794.679
6804.356
6820.608
6844.057
6875.797
6916.376
6963.137
7012.482
7018.706
7329.995
7302.981
7383.925
7631.801
7568.303
7631.868
7721.777
7810.239
7914.115
9637.086
6105.509
6069.275
6064.929
6050.267
6029.701
6005.515
5977.527
5946.652
5916.962
5875.872
5831.882
5806.679
5774.809
5749.213
5729.822
5717.925
5714.025
5718.33
5730.284
5791.831
5793.568
5819.632
5860.879
5908.633
5961.524
6018.627
6078.588
6140.785
6205.328
6254.791
6312.123
6370.594
6424.016
6474.219
6521.519
6566.204
6612.673
6685.826
6801.142
6741.931
6736.968
6796.468
6827.5
6825.344
6805.733
6793.518
6785.63
6780.596
6780.101
6784.76
6795.256
6812.617
6837.223
6870.407
6912.47
6963.025
7023.185
7098.125
7196.233
7309.642
7394.184
7494.342
7589.18
7656.6
7732.059
7797.37
7832.825
7820.331
7852.132
7893.79
7925.812
7957.858
7990.813
8025.268
8061.18
8098.039
8135.038
8171.359
8206.346
8239.799
8271.805
8302.501
8331.872
8359.989
8386.991
8413.039
8438.287
8462.852
8486.833
8510.329
8533.422
8556.176
8578.645
8600.86
8622.836
8644.58
8666.087
8687.324
8708.259
8728.852
8749.065
8768.854
8788.188
8807.037
8825.371
8843.169
8860.413
8877.089
8893.193
8908.72
8923.669
8938.04
8951.836
8965.053
8977.684
8989.771
9001.722
9013.377
9024.41
9034.57
9044.207
9053.385
9062.102
9070.36
9078.182
9085.565
9092.523
9099.066
9105.209
9110.963
9116.342
9121.357
9126.02
9130.355
9134.344
9138.033
9141.417
9144.513
9147.334
9149.913
9152.239
9154.362
9156.257
9157.952
9159.479
9160.853
9162.09
9163.211
9164.232
9165.17
9166.042
9166.865
9167.653
9168.421
9169.181
9169.943
9170.714
9171.503
9172.314
9173.15
9174.01
9174.892
9175.783
9176.66
9177.461
9178.15
9178.747
9183.138
9183.626
9184.801
9185.991
9187.191
9188.383
9189.461
9190.568
9191.654
9192.725
9193.784
9194.824
9195.843
9196.84
9197.816
9198.768
9199.699
9200.607
9201.494
9202.36
9203.203
9204.026
9204.825
9205.596
9206.34
9207.046
9207.711
9208.329
9208.855
9209.295
9209.595
9209.68
9209.418
9208.647
9206.458
9203.386
9210.217
9215.253
9219.536
9223.226
9226.723
9230.011
9233.177
9236.257
9239.275
9242.245
9245.179
9248.084
9250.97
9253.842
9256.705
9259.562
9262.419
9265.277
9268.14
9271.011
9273.892
9276.784
9279.691
9282.613
9285.555
9288.517
9291.499
9294.505
9297.538
9300.599
9303.699
9306.882
9310.001
9312.996
9327.287
9325.472
9322.414
9325.762
9328.9
9331.586
9334.567
9337.707
9340.862
9344.044
9347.273
9350.52
9353.777
9357.047
9360.32
9363.59
9366.854
9370.109
9373.351
9376.575
9379.78
9382.964
9386.124
9389.261
9392.371
9395.452
9398.504
9401.526
9404.516
9407.474
9410.398
9413.29
9416.147
9418.971
9421.76
9424.517
9427.244
9429.941
9432.614
9435.268
9437.913
9440.563
9443.248
9446.004
9448.794
9451.25
9452.91
9454.164
9455.571
9457.084
9458.611
9460.163
9461.585
9461.961
9458.636
9462.989
9465.14
9466.121
9467.262
9468.333
9469.308
9470.249
9471.165
9472.053
9472.906
9473.718
9474.485
9475.208
9475.887
9476.521
9477.107
9477.645
9478.132
9478.57
9478.957
9479.295
9479.583
9479.822
9480.012
9480.153
9480.247
9480.293
9480.292
9480.244
9480.15
9480.01
9479.824
9479.593
9479.316
9478.994
9478.627
9478.215
9477.759
9477.259
9476.714
9476.125
9475.491
9474.814
9474.092
9473.327
9472.517
9471.664
9470.766
9469.823
9468.835
9467.803
9466.724
9465.599
9464.427
9463.207
9461.938
9460.618
9459.247
9457.821
9456.34
9454.799
9453.196
9451.528
9449.788
9447.972
9446.072
9444.081
9441.987
9439.78
9437.442
9434.954
9432.292
9429.423
9426.304
9422.877
9419.065
9414.751
9409.779
9403.852
9396.511
9387.363
9378.649
9384.064
9429.033
8416.433
8388.269
8341.014
8279.047
8204.927
8120.4
8027.123
7926.386
7818.319
7696.337
7585.139
7469.338
7353.443
7238.94
7126.483
7016.943
6910.911
6808.01
6695.565
6616.256
6528.481
6449.082
6379.332
6317.845
6264.928
6220.399
6183.734
6155.875
6135.394
6112.359
6101.44
6094.625
6090.531
6088.657
6087.709
6086.479
6085.128
6083.474
6065.485
6049.633
6032.31
6011.643
5985.895
5956.337
5923.911
5889.979
5855.931
5817.979
5784.061
5755.639
5731.021
5712.432
5701.418
5698.733
5705.248
5723.435
5738.994
5776.325
5816.664
5861.547
5912.297
5968.592
6028.676
6091.169
6154.422
6217.665
6279.449
6338.3
6394.65
6448.673
6500.525
6550.279
6599.089
6647.634
6693.948
6733.029
6754.15
6764.476
6777.759
6790.155
6794.085
6785.756
6775.539
6768.18
6763.221
6762.042
6765.964
6776.005
6793.228
6818.733
6853.293
6897.562
6951.633
7016.535
7092.927
7179.972
7272.967
7364.109
7452.488
7536.655
7614.586
7685.823
7746.48
7793.018
7827.794
7861.573
7899.24
7937.542
7974.905
8011.735
8048.499
8085.322
8121.725
8157.105
8191.386
8224.6
8256.66
8287.538
8317.289
8345.86
8373.169
8399.38
8424.671
8449.191
8473.069
8496.416
8519.329
8541.894
8564.173
8586.216
8608.051
8629.697
8651.099
8672.307
8693.237
8713.892
8734.217
8754.159
8773.683
8792.754
8811.338
8829.411
8846.949
8863.938
8880.365
8896.225
8911.515
8926.237
8940.394
8953.995
8967.052
8979.594
8991.671
9003.348
9014.619
9025.274
9035.333
9044.88
9053.957
9062.575
9070.742
9078.47
9085.769
9092.652
9099.129
9105.214
9110.919
9116.255
9121.235
9125.866
9130.16
9134.145
9137.823
9141.203
9144.302
9147.128
9149.73
9152.083
9154.206
9156.122
9157.833
9159.392
9160.788
9162.038
9163.169
9164.199
9165.148
9166.033
9166.87
9167.676
9168.461
9169.24
9170.021
9170.815
9171.627
9172.464
9173.325
9174.217
9175.136
9176.086
9177.075
9178.091
9179.111
9180.704
9184.005
9184.267
9184.995
9186.125
9187.283
9188.425
9189.54
9190.656
9191.753
9192.83
9193.888
9194.924
9195.939
9196.932
9197.902
9198.849
9199.773
9200.674
9201.553
9202.411
9203.247
9204.06
9204.85
9205.613
9206.347
9207.047
9207.708
9208.313
9208.849
9209.3
9209.632
9209.802
9209.761
9209.512
9209.301
9209.993
9212.939
9216.96
9220.604
9224.064
9227.392
9230.588
9233.691
9236.724
9239.704
9242.642
9245.549
9248.432
9251.298
9254.152
9256.998
9259.841
9262.684
9265.529
9268.381
9271.241
9274.111
9276.994
9279.892
9282.806
9285.739
9288.692
9291.666
9294.664
9297.689
9300.743
9303.836
9306.971
9310.222
9314.431
9318.379
9322.584
9325.062
9326.842
9329.074
9331.889
9334.993
9338.162
9341.33
9344.511
9347.725
9350.972
9354.236
9357.507
9360.777
9364.044
9367.305
9370.555
9373.793
9377.015
9380.218
9383.401
9386.561
9389.695
9392.803
9395.883
9398.934
9401.954
9404.943
9407.899
9410.822
9413.711
9416.566
9419.387
9422.173
9424.926
9427.646
9430.337
9432.999
9435.638
9438.255
9440.854
9443.426
9445.941
9448.33
9450.502
9452.374
9454
9455.54
9457.08
9458.601
9460.067
9461.399
9462.372
9462.763
9463.367
9464.685
9466.268
9467.659
9468.776
9469.735
9470.642
9471.531
9472.396
9473.223
9474.004
9474.74
9475.434
9476.085
9476.691
9477.251
9477.763
9478.227
9478.643
9479.01
9479.328
9479.598
9479.819
9479.992
9480.117
9480.195
9480.226
9480.21
9480.148
9480.039
9479.885
9479.685
9479.439
9479.149
9478.813
9478.433
9478.008
9477.538
9477.024
9476.466
9475.864
9475.218
9474.527
9473.793
9473.015
9472.192
9471.326
9470.415
9469.46
9468.46
9467.415
9466.324
9465.187
9464.003
9462.771
9461.49
9460.159
9458.777
9457.34
9455.848
9454.298
9452.686
9451.008
9449.26
9447.436
9445.532
9443.536
9441.443
9439.237
9436.909
9434.435
9431.803
9428.974
9425.93
9422.609
9418.988
9414.983
9410.611
9405.907
9401.336
9397.776
9396.817
9399.261
9405.638
4419.644
4411.339
4419.276
4439.726
4470.897
4513.365
4565.569
4629.424
4704.195
4791.054
4888.121
4998.593
5117.246
5245.948
5384.241
5531.141
5686.047
5847.392
6012.047
6207.344
6384.168
6562.521
6742.266
6920.937
7096.285
7266.051
7429.044
7583.931
7731.708
7863.571
7981.717
8085.922
8174.169
8245.393
8298.656
8333.387
8349.573
8348.384
8325.068
8291.728
8241.493
8178.158
8103.472
8019.111
7926.586
7827.477
7723.648
7616.676
7506.309
7395.086
7282.506
7170.954
7061.466
6955.083
6853.472
6761.233
6626.739
6542.948
6468.436
6396.751
6330.937
6273.483
6224.818
6184.524
6152.102
6126.781
6108.05
6095.448
6087.506
6083.185
6081.839
6082.404
6083.515
6083.689
6081.466
6075.603
6065.237
6050.016
6029.639
6004.383
5974.623
5940.933
5904.228
5865.642
5826.38
5788.203
5752.577
5721.132
5695.492
5677.047
5666.595
5664.894
5671.965
5688.85
5715.529
5751.507
5791.925
5838.323
5892.659
5952.983
6017.09
6082.837
6149.4
6215.54
6280.18
6342.866
6403.212
6460.668
6514.861
6565.669
6612.944
6656.432
6695.579
6730.218
6752.571
6763.207
6770.862
6777.922
6779.274
6771.882
6760.696
6750.879
6743.25
6739.232
6740.234
6747.457
6762.217
6785.72
6818.88
6861.887
6915.102
6978.57
7051.858
7133.558
7221.306
7310.553
7397.203
7480.341
7560.474
7635.738
7702.058
7759.661
7808.747
7852.051
7895.61
7939.759
7982.743
8023.387
8061.684
8098.569
8134.845
8170.416
8204.765
8237.595
8268.903
8298.83
8327.506
8355.073
8381.601
8407.148
8431.846
8455.82
8479.185
8502.045
8524.496
8546.62
8568.482
8590.129
8611.588
8632.872
8653.986
8674.906
8695.613
8716.036
8736.133
8755.851
8775.181
8794.071
8812.48
8830.378
8847.747
8864.57
8880.837
8896.543
8911.686
8926.269
8940.3
8953.788
8966.749
8979.205
8991.182
9002.692
9013.75
9024.31
9034.324
9043.815
9052.832
9061.398
9069.523
9077.219
9084.494
9091.361
9097.833
9103.921
9109.639
9114.996
9120.006
9124.679
9129.025
9133.057
9136.786
9140.222
9143.38
9146.27
9148.905
9151.296
9153.461
9155.417
9157.19
9158.768
9160.207
9161.496
9162.683
9163.752
9164.732
9165.645
9166.508
9167.337
9168.144
9168.944
9169.747
9170.563
9171.398
9172.259
9173.151
9174.076
9175.036
9176.039
9177.08
9178.17
9179.355
9180.775
9182.393
9184.139
9185.398
9186.445
9187.509
9188.642
9189.801
9190.95
9192.075
9193.175
9194.25
9195.3
9196.324
9197.322
9198.295
9199.242
9200.165
9201.063
9201.94
9202.793
9203.626
9204.436
9205.224
9205.988
9206.726
9207.434
9208.108
9208.741
9209.326
9209.853
9210.32
9210.737
9211.152
9211.687
9212.561
9214.083
9216.426
9219.401
9222.586
9225.739
9228.815
9231.831
9234.805
9237.745
9240.653
9243.535
9246.395
9249.239
9252.071
9254.897
9257.719
9260.541
9263.366
9266.195
9269.032
9271.879
9274.737
9277.609
9280.497
9283.402
9286.325
9289.269
9292.234
9295.223
9298.233
9301.274
9304.33
9307.42
9310.504
9313.724
9316.728
9319.125
9321.625
9324.532
9327.721
9331.009
9334.303
9337.572
9340.819
9344.06
9347.312
9350.577
9353.852
9357.128
9360.403
9363.673
9366.936
9370.189
9373.429
9376.652
9379.858
9383.043
9386.205
9389.343
9392.455
9395.539
9398.595
9401.62
9404.613
9407.575
9410.502
9413.396
9416.255
9419.079
9421.869
9424.623
9427.343
9430.029
9432.682
9435.302
9437.888
9440.433
9442.922
9445.33
9447.628
9449.776
9451.733
9453.492
9455.122
9456.695
9458.232
9459.7
9461.099
9462.485
9464.114
9465.597
9466.69
9467.555
9468.374
9469.203
9470.038
9470.875
9471.708
9472.528
9473.321
9474.08
9474.799
9475.477
9476.114
9476.709
9477.258
9477.761
9478.217
9478.625
9478.986
9479.298
9479.563
9479.78
9479.949
9480.07
9480.145
9480.173
9480.154
9480.088
9479.977
9479.82
9479.617
9479.369
9479.076
9478.738
9478.355
9477.928
9477.456
9476.94
9476.379
9475.775
9475.126
9474.434
9473.697
9472.917
9472.093
9471.225
9470.313
9469.356
9468.355
9467.309
9466.218
9465.081
9463.897
9462.666
9461.387
9460.059
9458.68
9457.248
9455.761
9454.218
9452.615
9450.948
9449.215
9447.409
9445.526
9443.558
9441.498
9439.337
9437.062
9434.662
9432.12
9429.418
9426.538
9423.46
9420.176
9416.701
9413.112
9409.58
9406.411
9403.984
9402.709
9403.15
9405.667
4788.459
4734.641
4686.057
4638.863
4595.803
4559.346
4534.836
4525.877
4531.088
4510.319
4467.308
4432.788
4414.871
4410.821
4419.32
4438.975
4469.578
4510.528
4561.956
4623.805
4696.391
4780.421
4874.394
4979.26
5095.095
5220.709
5355.997
5499.696
5651.168
5808.364
5973.493
6183.905
6360.551
6540.022
6717.941
6893.912
7066.615
7234.781
7396.543
7550.334
7693.742
7823.284
7938.585
8038.968
8123.27
8190.394
8239.561
8270.72
8284.265
8280.859
8260.971
8224.808
8173.209
8108.038
8031.36
7945.153
7851.216
7751.249
7646.917
7539.782
7430.994
7320.997
7210.363
7100.517
6992.749
6887.857
6786.417
6688.042
6591.574
6506.291
6430.894
6360.57
6296.392
6240.491
6193.545
6155.279
6125.135
6102.681
6087.309
6077.78
6073.283
6072.965
6075.626
6080.055
6084.644
6087.71
6087.858
6083.866
6074.232
6058.337
6036.393
6008.642
5975.42
5937.419
5895.774
5851.973
5807.677
5764.514
5724.278
5688.887
5659.889
5638.521
5625.842
5622.67
5629.713
5647.243
5674.083
5709.645
5753.024
5804.08
5862.676
5927.049
5995.041
6065.134
6136.262
6207.198
6276.863
6344.42
6409.088
6470.149
6527.021
6579.298
6626.642
6668.767
6704.969
6734.269
6754.628
6765.714
6770.914
6772.264
6768.74
6759.477
6746.378
6732.961
6721.101
6712.372
6708.468
6711.089
6721.774
6741.711
6771.604
6811.919
6862.802
6923.889
6994.384
7072.963
7157.659
7245.09
7331.659
7416.654
7499.933
7579.389
7652.417
7718.382
7776.951
7830.031
7880.753
7930.268
7977.845
8022.703
8064.971
8105.117
8143.729
8180.841
8216.006
8249.094
8280.292
8309.851
8337.981
8364.954
8390.929
8415.969
8440.185
8463.697
8486.615
8509.042
8531.077
8552.802
8574.285
8595.576
8616.705
8637.684
8658.508
8679.152
8699.606
8719.816
8739.767
8759.192
8778.284
8796.961
8815.167
8832.871
8850.048
8866.682
8882.763
8898.286
8913.253
8927.667
8941.537
8954.874
8967.692
8980.005
8991.833
9003.185
9014.075
9024.48
9034.373
9043.765
9052.69
9061.168
9069.211
9076.828
9084.032
9090.835
9097.25
9103.289
9108.965
9114.29
9119.274
9123.928
9128.264
9132.292
9136.022
9139.466
9142.635
9145.539
9148.193
9150.608
9152.798
9154.778
9156.568
9158.177
9159.623
9160.944
9162.133
9163.223
9164.224
9165.153
9166.031
9166.874
9167.696
9168.511
9169.33
9170.164
9171.019
9171.905
9172.825
9173.785
9174.785
9175.837
9176.93
9178.105
9179.337
9180.709
9182.102
9183.466
9184.786
9186.066
9187.325
9188.577
9189.814
9191.024
9192.201
9193.345
9194.456
9195.535
9196.584
9197.602
9198.59
9199.55
9200.483
9201.389
9202.272
9203.131
9203.969
9204.786
9205.581
9206.356
9207.109
9207.839
9208.544
9209.223
9209.875
9210.504
9211.122
9211.758
9212.466
9213.333
9214.483
9216.08
9218.208
9220.813
9223.683
9226.609
9229.514
9232.396
9235.264
9238.119
9240.96
9243.785
9246.599
9249.403
9252.2
9254.995
9257.79
9260.587
9263.388
9266.196
9269.013
9271.84
9274.68
9277.535
9280.405
9283.293
9286.199
9289.125
9292.072
9295.041
9298.031
9301.044
9304.072
9307.123
9310.17
9313.185
9316.121
9319.088
9322.133
9325.195
9328.251
9331.33
9334.452
9337.612
9340.796
9343.998
9347.218
9350.455
9353.707
9356.966
9360.227
9363.487
9366.741
9369.987
9373.222
9376.443
9379.646
9382.83
9385.993
9389.132
9392.246
9395.332
9398.39
9401.418
9404.414
9407.378
9410.308
9413.204
9416.064
9418.889
9421.677
9424.428
9427.142
9429.819
9432.457
9435.054
9437.607
9440.106
9442.541
9444.895
9447.149
9449.276
9451.254
9453.079
9454.784
9456.412
9457.987
9459.509
9460.994
9462.449
9463.846
9465.005
9465.983
9466.939
9467.93
9468.927
9469.892
9470.814
9471.697
9472.544
9473.355
9474.126
9474.854
9475.54
9476.181
9476.777
9477.327
9477.829
9478.284
9478.691
9479.049
9479.359
9479.622
9479.836
9480.003
9480.122
9480.195
9480.22
9480.199
9480.132
9480.019
9479.86
9479.655
9479.405
9479.11
9478.77
9478.385
9477.956
9477.482
9476.964
9476.402
9475.796
9475.146
9474.452
9473.715
9472.933
9472.108
9471.239
9470.327
9469.37
9468.369
9467.324
9466.233
9465.098
9463.917
9462.689
9461.414
9460.09
9458.717
9457.293
9455.816
9454.284
9452.695
9451.046
9449.333
9447.552
9445.7
9443.77
9441.757
9439.654
9437.453
9435.145
9432.722
9430.174
9427.499
9424.695
9421.785
9418.803
9415.849
9413.03
9410.568
9408.583
9407.416
9407.156
9408.185
5415.402
5365.577
5316.087
5262.936
5205.248
5146.23
5087.259
5028.355
4968.608
4908.876
4849.969
4794.475
4739.769
4687.195
4639.145
4594.148
4549.453
4518.653
4495.015
4473.535
4448.757
4424.153
4405.311
4395.56
4395.967
4406.704
4427.888
4459.428
4501.379
4553.937
4616.291
4688.918
4772.547
4867.644
4973.582
5090.014
5216.555
5352.973
5498.538
5651.956
5812.344
5979.593
6143.99
6316.712
6492.444
6668.514
6843.243
7015.016
7182.679
7343.95
7496.609
7638.545
7767.586
7883.174
7984.217
8068.986
8136.093
8185.075
8216.07
8229.131
8224.613
8203.345
8166.247
8114.333
8049.085
7972.397
7886.186
7792.005
7691.753
7587.166
7480.166
7371.562
7261.577
7151.621
7043.015
6936.517
6832.721
6731.902
6635.103
6543.48
6459.897
6384.196
6314.997
6252.698
6198.68
6153.762
6118
6091.011
6072.282
6061.117
6056.498
6057.541
6063.175
6071.85
6082.033
6092.042
6099.971
6104.112
6102.84
6094.632
6078.727
6054.976
6023.608
5985.185
5940.724
5891.772
5840.226
5788.125
5737.546
5690.585
5649.119
5614.732
5588.8
5572.472
5566.589
5571.805
5588.208
5615.171
5652.276
5699.05
5754.515
5817.577
5886.745
5960.354
6036.728
6114.367
6191.911
6268.156
6341.974
6412.401
6478.603
6539.765
6595.197
6644.292
6686.58
6721.404
6748.109
6766.094
6775.499
6777.541
6773.847
6765.035
6751.214
6733.63
6714.616
6696.211
6680.281
6669.032
6664.753
6669.213
6683.624
6708.725
6744.986
6792.366
6850.294
6917.957
6994.199
7077.403
7165.223
7254.603
7344.11
7432.637
7517.898
7597.75
7671.336
7738.815
7801.176
7859.582
7915.004
7967.706
8017.399
8064.109
8108.057
8149.595
8188.739
8225.335
8259.428
8291.274
8321.185
8349.458
8376.362
8402.076
8426.757
8450.56
8473.63
8496.094
8518.068
8539.658
8560.952
8582.022
8602.92
8623.677
8644.305
8664.796
8685.126
8705.262
8725.138
8744.677
8764.032
8782.926
8801.35
8819.291
8836.746
8853.681
8870.074
8885.917
8901.207
8915.946
8930.141
8943.799
8956.932
8969.554
8981.676
8993.314
9004.476
9015.168
9025.383
9035.112
9044.362
9053.152
9061.498
9069.413
9076.909
9083.998
9090.695
9097.012
9102.961
9108.557
9113.81
9118.733
9123.336
9127.629
9131.625
9135.331
9138.758
9141.917
9144.818
9147.472
9149.891
9152.089
9154.079
9155.876
9157.496
9158.955
9160.28
9161.481
9162.587
9163.603
9164.552
9165.442
9166.297
9167.13
9167.958
9168.79
9169.639
9170.513
9171.421
9172.366
9173.357
9174.393
9175.485
9176.627
9177.839
9179.101
9180.433
9181.785
9183.158
9184.556
9185.93
9187.261
9188.559
9189.828
9191.07
9192.28
9193.458
9194.603
9195.714
9196.791
9197.836
9198.849
9199.831
9200.784
9201.71
9202.611
9203.488
9204.343
9205.178
9205.995
9206.794
9207.576
9208.343
9209.095
9209.836
9210.571
9211.31
9212.072
9212.888
9213.804
9214.881
9216.202
9217.852
9219.877
9222.241
9224.848
9227.565
9230.314
9233.073
9235.84
9238.612
9241.383
9244.151
9246.916
9249.678
9252.44
9255.202
9257.968
9260.739
9263.516
9266.302
9269.098
9271.906
9274.728
9277.564
9280.417
9283.288
9286.178
9289.088
9292.017
9294.968
9297.939
9300.929
9303.935
9306.954
9309.972
9312.984
9316.016
9319.071
9322.113
9325.117
9328.127
9331.186
9334.304
9337.467
9340.657
9343.866
9347.091
9350.33
9353.58
9356.836
9360.095
9363.352
9366.605
9369.849
9373.083
9376.303
9379.506
9382.691
9385.855
9388.996
9392.111
9395.2
9398.26
9401.29
9404.288
9407.254
9410.185
9413.081
9415.941
9418.765
9421.55
9424.297
9427.004
9429.669
9432.292
9434.868
9437.393
9439.859
9442.258
9444.577
9446.8
9448.913
9450.904
9452.771
9454.531
9456.208
9457.821
9459.374
9460.868
9462.284
9463.596
9464.798
9465.931
9467.026
9468.087
9469.106
9470.077
9471
9471.882
9472.727
9473.535
9474.303
9475.028
9475.71
9476.347
9476.938
9477.483
9477.981
9478.431
9478.834
9479.188
9479.495
9479.754
9479.965
9480.129
9480.245
9480.315
9480.338
9480.315
9480.245
9480.13
9479.968
9479.761
9479.509
9479.212
9478.87
9478.484
9478.052
9477.577
9477.057
9476.493
9475.885
9475.234
9474.538
9473.8
9473.017
9472.191
9471.322
9470.409
9469.452
9468.452
9467.408
9466.319
9465.186
9464.008
9462.785
9461.515
9460.198
9458.833
9457.419
9455.954
9454.437
9452.866
9451.238
9449.55
9447.801
9445.986
9444.102
9442.145
9440.11
9437.993
9435.79
9433.499
9431.118
9428.653
9426.117
9423.54
9420.964
9418.466
9416.133
9414.102
9412.47
9411.441
9411.04
9411.506
5869.743
5822.618
5777.933
5733.057
5690.432
5643.552
5601.704
5558.086
5512.557
5466.127
5418.829
5369.637
5318.847
5266.292
5209.752
5143.642
5084.78
5026.001
4966.631
4907.009
4847.675
4789.695
4733.447
4679.169
4627.788
4581.245
4540.446
4504.067
4472.33
4443.539
4417.117
4395.052
4379.363
4371.613
4372.771
4383.263
4403.291
4433.235
4473.394
4523.797
4584.995
4656.752
4738.961
4832.125
4936.255
5051.119
5176.314
5311.345
5455.516
5607.91
5767.66
5932.879
6100.267
6272.287
6446.39
6620.81
6794.03
6964.214
7129.674
7289.026
7440.543
7581.399
7709.415
7823.945
7923.7
8006.915
8072.321
8119.273
8147.834
8158.263
8151.085
8127.294
8087.986
8034.482
7968.148
7890.969
7804.67
7710.925
7611.816
7508.842
7402.871
7294.268
7184.474
7075.807
6969.122
6864.638
6762.763
6664.07
6569.703
6480.55
6397.643
6321.754
6253.167
6192.436
6140.608
6098.531
6066.433
6044.03
6030.725
6025.82
6028.503
6037.538
6051.503
6068.853
6087.539
6105.39
6120.266
6130.123
6132.868
6126.723
6110.673
6084.124
6047.399
6001.426
5947.702
5888.32
5825.716
5762.574
5701.635
5645.313
5595.466
5553.684
5521.539
5500.278
5490.708
5493.498
5508.944
5536.744
5576.193
5626.735
5687.388
5756.779
5833.332
5915.158
6000.174
6086.508
6172.626
6257.205
6339.018
6416.96
6489.923
6556.814
6616.68
6668.711
6712.277
6746.817
6772
6787.744
6794.204
6792.249
6783.204
6768.06
6747.517
6722.719
6695.455
6667.747
6642.005
6621.033
6607.569
6603.743
6610.893
6629.654
6660.314
6702.759
6756.732
6821.4
6895.834
6978.975
7069.246
7163.994
7260.637
7356.867
7450.205
7538.602
7621.193
7697.895
7769.092
7835.407
7897.575
7955.938
8010.426
8061.348
8108.944
8153.435
8194.958
8233.533
8269.271
8302.41
8333.245
8362.085
8389.229
8414.936
8439.437
8462.939
8485.625
8507.656
8529.172
8550.293
8571.122
8591.738
8612.199
8632.54
8652.773
8672.89
8692.864
8712.655
8732.211
8751.485
8770.462
8789.057
8807.258
8824.85
8841.988
8858.621
8874.72
8890.271
8905.273
8919.729
8933.65
8947.044
8959.923
8972.299
8984.184
8995.59
9006.523
9016.989
9026.989
9036.52
9045.587
9054.202
9062.379
9070.131
9077.47
9084.411
9090.965
9097.149
9102.974
9108.454
9113.602
9118.43
9122.949
9127.169
9131.101
9134.753
9138.136
9141.259
9144.132
9146.765
9149.17
9151.358
9153.344
9155.14
9156.763
9158.23
9159.56
9160.765
9161.871
9162.899
9163.857
9164.762
9165.628
9166.473
9167.313
9168.16
9169.024
9169.915
9170.843
9171.811
9172.828
9173.895
9175.017
9176.194
9177.431
9178.717
9180.056
9181.434
9182.843
9184.266
9185.669
9187.037
9188.374
9189.685
9190.972
9192.23
9193.455
9194.646
9195.801
9196.921
9198.005
9199.055
9200.072
9201.058
9202.015
9202.946
9203.852
9204.736
9205.602
9206.45
9207.284
9208.107
9208.921
9209.73
9210.541
9211.361
9212.204
9213.09
9214.046
9215.108
9216.323
9217.743
9219.421
9221.38
9223.603
9226.024
9228.568
9231.18
9233.829
9236.503
9239.193
9241.895
9244.604
9247.318
9250.036
9252.758
9255.486
9258.221
9260.963
9263.715
9266.477
9269.251
9272.039
9274.841
9277.659
9280.494
9283.348
9286.221
9289.113
9292.026
9294.96
9297.912
9300.884
9303.871
9306.872
9309.882
9312.903
9315.937
9318.97
9321.988
9325.002
9328.042
9331.128
9334.261
9337.429
9340.62
9343.828
9347.051
9350.287
9353.533
9356.785
9360.04
9363.294
9366.545
9369.787
9373.02
9376.24
9379.443
9382.629
9385.794
9388.936
9392.053
9395.143
9398.205
9401.237
9404.237
9407.203
9410.135
9413.032
9415.891
9418.712
9421.494
9424.235
9426.934
9429.589
9432.197
9434.755
9437.258
9439.7
9442.073
9444.367
9446.572
9448.677
9450.678
9452.574
9454.372
9456.085
9457.725
9459.296
9460.795
9462.214
9463.556
9464.827
9466.029
9467.166
9468.245
9469.273
9470.254
9471.19
9472.085
9472.939
9473.752
9474.523
9475.25
9475.931
9476.567
9477.157
9477.699
9478.194
9478.642
9479.042
9479.393
9479.697
9479.954
9480.162
9480.323
9480.438
9480.505
9480.526
9480.5
9480.428
9480.31
9480.146
9479.937
9479.683
9479.384
9479.039
9478.651
9478.217
9477.74
9477.218
9476.652
9476.043
9475.389
9474.693
9473.953
9473.169
9472.342
9471.473
9470.56
9469.604
9468.604
9467.562
9466.476
9465.346
9464.172
9462.954
9461.691
9460.382
9459.027
9457.625
9456.174
9454.675
9453.124
9451.521
9449.864
9448.15
9446.378
9444.546
9442.651
9440.691
9438.665
9436.573
9434.417
9432.202
9429.939
9427.646
9425.353
9423.103
9420.956
9418.983
9417.276
9415.918
9415.022
9414.613
9414.851
6020.526
6017.142
5995.386
5955.552
5908.669
5862.128
5816.138
5772.328
5730.585
5688.068
5638.726
5596.193
5553.462
5509.334
5463.453
5415.884
5366.537
5315.101
5261.635
5206.822
5151.894
5094.167
5035.312
4975.502
4915.342
4855.079
4795.265
4736.625
4679.334
4623.752
4571.539
4524.811
4483.061
4445.971
4413.187
4385.255
4363.639
4349.246
4342.848
4345.03
4356.194
4376.613
4406.532
4446.153
4495.681
4555.434
4625.605
4706.289
4797.751
4900.099
5013.234
5136.836
5270.363
5413.024
5563.824
5721.633
5884.844
6051.988
6222.566
6394.888
6566.976
6737.119
6904.191
7066.552
7222.942
7372.066
7510.966
7636.974
7748.597
7844.62
7923.684
7984.824
8027.436
8051.597
8057.684
8046.462
8019.003
7976.618
7920.904
7853.207
7775.777
7690.345
7598.308
7500.848
7399.414
7295.332
7189.314
7083.069
6978.137
6874.961
6773.623
6674.503
6578.286
6485.884
6398.124
6315.94
6240.438
6172.613
6113.494
6064.292
6025.988
5998.869
5982.646
5976.682
5980.265
5992.578
6012.224
6037.554
6066.645
6096.91
6125.583
6150.075
6167.777
6175.813
6171.891
6154.955
6124.21
6080.136
6023.91
5957.782
5884.614
5807.372
5729.506
5654.723
5585.977
5525.167
5473.932
5433.939
5406.373
5392.131
5392.382
5407.619
5437.008
5478.857
5533.989
5601.434
5679.541
5766.3
5859.253
5955.674
6053.223
6150.18
6245.203
6337.041
6424.397
6505.89
6580.145
6645.924
6702.179
6748.152
6783.353
6807.508
6820.797
6823.472
6816.365
6800.724
6777.807
6748.68
6714.383
6676.252
6636.264
6597.51
6563.817
6538.636
6524.41
6522.468
6533.264
6556.85
6592.446
6640.998
6702.098
6775.246
6859.8
6954.936
7057.85
7164.41
7271.026
7374.806
7473.741
7566.816
7653.51
7734.001
7808.664
7877.983
7942.375
8002.065
8057.42
8108.701
8156.253
8200.415
8241.274
8278.973
8313.73
8345.816
8375.552
8403.266
8429.258
8453.811
8477.181
8499.598
8521.261
8542.345
8562.999
8583.345
8603.477
8623.464
8643.347
8663.142
8682.84
8702.415
8721.823
8741.014
8759.931
8778.526
8796.727
8814.464
8831.842
8848.655
8864.926
8880.665
8895.863
8910.519
8924.637
8938.227
8951.3
8963.87
8975.948
8987.546
8998.674
9009.338
9019.544
9029.294
9038.589
9047.433
9055.836
9063.808
9071.361
9078.509
9085.265
9091.643
9097.658
9103.324
9108.655
9113.665
9118.364
9122.766
9126.88
9130.718
9134.287
9137.597
9140.658
9143.478
9146.068
9148.438
9150.6
9152.566
9154.349
9155.964
9157.428
9158.757
9159.967
9161.078
9162.107
9163.074
9163.992
9164.873
9165.734
9166.59
9167.453
9168.335
9169.245
9170.193
9171.185
9172.225
9173.318
9174.467
9175.672
9176.931
9178.243
9179.602
9181.002
9182.428
9183.863
9185.288
9186.695
9188.08
9189.442
9190.78
9192.089
9193.366
9194.608
9195.813
9196.981
9198.112
9199.207
9200.268
9201.296
9202.294
9203.264
9204.209
9205.133
9206.038
9206.928
9207.806
9208.677
9209.545
9210.417
9211.299
9212.201
9213.138
9214.128
9215.195
9216.367
9217.679
9219.166
9220.859
9222.77
9224.893
9227.187
9229.602
9232.096
9234.641
9237.226
9239.836
9242.468
9245.117
9247.778
9250.45
9253.131
9255.823
9258.524
9261.236
9263.96
9266.697
9269.448
9272.214
9274.995
9277.794
9280.611
9283.447
9286.302
9289.178
9292.075
9294.991
9297.928
9300.883
9303.856
9306.844
9309.846
9312.86
9315.882
9318.908
9321.938
9324.983
9328.053
9331.156
9334.292
9337.456
9340.642
9343.847
9347.067
9350.299
9353.542
9356.792
9360.045
9363.297
9366.546
9369.789
9373.021
9376.242
9379.446
9382.633
9385.8
9388.944
9392.063
9395.155
9398.219
9401.252
9404.254
9407.221
9410.154
9413.05
9415.908
9418.727
9421.505
9424.241
9426.933
9429.578
9432.174
9434.717
9437.203
9439.627
9441.981
9444.258
9446.452
9448.555
9450.565
9452.479
9454.303
9456.043
9457.706
9459.296
9460.813
9462.257
9463.63
9464.932
9466.162
9467.322
9468.424
9469.473
9470.475
9471.431
9472.341
9473.206
9474.027
9474.802
9475.532
9476.215
9476.851
9477.439
9477.981
9478.474
9478.92
9479.317
9479.667
9479.969
9480.222
9480.429
9480.588
9480.699
9480.764
9480.783
9480.754
9480.68
9480.56
9480.394
9480.182
9479.926
9479.624
9479.278
9478.886
9478.451
9477.971
9477.447
9476.879
9476.268
9475.613
9474.914
9474.173
9473.389
9472.561
9471.691
9470.778
9469.823
9468.825
9467.784
9466.7
9465.574
9464.405
9463.193
9461.938
9460.638
9459.295
9457.906
9456.472
9454.992
9453.465
9451.89
9450.265
9448.591
9446.865
9445.088
9443.258
9441.377
9439.444
9437.464
9435.441
9433.384
9431.306
9429.228
9427.178
9425.195
9423.328
9421.633
9420.179
9419.024
9418.242
9417.848
9417.978
6023.328
6005.583
5960.126
5919.863
5877.997
5836.615
5796.189
5756.628
5717.54
5678.686
5640.142
5599.898
5558.314
5515.106
5470.151
5423.166
5374.072
5322.687
5268.891
5213.27
5157.225
5099.606
5040.479
4980.103
4918.93
4856.946
4794.321
4732.012
4671.033
4612.079
4556.111
4504.879
4459.35
4419.426
4385.16
4357.028
4335.82
4322.116
4316.435
4319.173
4330.638
4351.039
4380.648
4419.715
4468.395
4526.951
4595.666
4674.807
4764.624
4865.254
4976.654
5098.535
5230.365
5371.291
5520.247
5676.066
5837.215
6002.443
6170.308
6338.837
6506.752
6672.897
6836.426
6996.002
7149.328
7294.362
7428.676
7549.876
7656.143
7746.198
7818.933
7873.654
7909.906
7927.956
7928.232
7911.887
7880.054
7834.369
7776.726
7708.842
7631.862
7546.949
7456.46
7361.333
7262.761
7162.872
7062.462
6962.171
6862.592
6763.934
6666.329
6570.194
6476.273
6385.456
6298.694
6217.031
6141.708
6074.237