/*--------------------------------*- C++ -*----------------------------------*\
| =========                 |                                                 |
| \\      /  F ield         | foam-extend: Open Source CFD                    |
|  \\    /   O peration     | Version:     3.1                                |
|   \\  /    A nd           | Web:         http://www.extend-project.de       |
|    \\/     M anipulation  |                                                 |
\*---------------------------------------------------------------------------*/
FoamFile
{
    version     2.0;
    format      ascii;
    class       volScalarField;
    location    "10";
    object      omega;
}
// * * * * * * * * * * * * * * * * * * * * * * * * * * * * * * * * * * * * * //

dimensions      [0 0 -1 0 0 0 0];

internalField   nonuniform List<scalar> 
119952
(
292.8208
351.8448
319.647
274.2959
245.274
246.1631
251.0938
258.3264
266.7234
275.2733
284.3985
294.5919
306.1371
319.2273
334.0819
350.9557
370.1523
391.957
416.6759
446.1555
396.6363
411.1977
429.9614
379.4199
385.0396
389.832
392.2884
390.4684
381.1381
177.7798
779.2338
639.8301
539.017
469.1701
417.7611
377.9301
345.5209
318.342
294.9541
268.8638
222.5233
191.1268
169.8015
154.273
142.2085
132.3173
123.8865
116.5171
109.9959
86.43996
82.24091
78.14837
74.26719
70.68812
67.43289
64.52508
61.9679
59.75073
57.87348
56.35514
55.05386
53.99073
53.21727
52.76236
52.68968
53.02295
53.70733
54.53651
57.33349
60.72332
62.36074
63.14148
63.03631
61.91793
59.72621
56.79252
53.48354
50.08607
46.81901
43.84283
41.26898
39.05651
37.20365
35.72603
34.62176
33.87447
33.44721
33.27702
33.3224
33.59605
33.91315
34.25531
34.844
35.55397
36.35128
37.4659
40.47662
46.44295
51.71094
58.78515
66.34419
72.67497
78.24906
83.87218
88.44397
90.04309
87.68866
82.02004
74.6159
66.94318
59.93213
54.00014
49.14529
45.2715
42.2279
39.88631
38.14073
36.90028
36.08254
35.62213
35.48399
35.62191
35.979
36.47992
37.06826
37.69998
38.33022
38.90604
39.384
39.75309
40.14267
40.61026
41.17729
41.91454
42.95351
44.17696
45.56652
47.15018
48.98416
51.14781
53.76106
57.04324
61.36337
67.5439
77.76599
94.57292
109.7832
124.1307
135.6608
140.8819
138.9518
131.0399
118.9592
105.8042
93.7275
83.44507
74.97728
68.13204
62.62747
58.18567
54.59247
51.69147
49.3849
47.61472
46.35333
45.65882
45.71982
47.11481
52.01016
64.58492
76.98092
85.54462
89.30937
88.87103
84.21885
77.11135
69.57575
62.18192
54.9559
48.55062
43.54075
39.90396
37.39417
35.67441
34.45972
33.56969
32.88749
32.35676
31.93146
31.57282
31.26609
31.00528
30.77867
30.57546
30.39175
30.22781
30.13563
37.00458
44.38915
45.80732
45.69393
45.39913
45.21756
45.17789
45.25274
45.40875
45.62141
45.87818
46.1716
46.49365
46.89373
47.36453
47.83194
48.29474
48.75308
49.20656
49.6553
50.0999
50.54109
50.9797
51.4166
51.85266
52.28907
52.72765
53.17167
53.62395
54.08575
54.5589
55.04518
55.54611
56.06038
56.57133
56.94798
56.89327
56.6963
56.38144
56.00923
55.60358
55.18053
54.75003
54.31751
53.88579
53.45634
53.03008
52.60631
52.1852
51.76704
51.35228
50.94156
50.53554
50.13471
49.73938
49.34969
48.96574
48.58764
48.2155
47.84945
47.48951
47.13602
46.78945
46.44962
46.11678
45.79115
45.47277
45.16045
44.85469
44.55103
35.68432
34.84922
34.00974
33.19904
32.48589
31.89108
31.41566
31.05032
30.78082
30.59113
30.46554
30.39
30.35209
30.34073
30.34717
30.36524
30.39051
30.41945
30.4491
30.47697
30.50097
30.51932
30.53066
30.53369
30.5274
30.51102
30.48395
30.44563
30.39604
30.33443
30.26005
30.17278
30.07278
29.96027
29.83536
29.6982
29.54913
29.38874
29.21782
29.03724
28.84797
28.65109
28.44801
28.24106
28.03408
27.83413
27.63641
27.43506
27.23267
27.0293
26.82582
26.62423
26.42451
26.23517
26.11401
25.89935
25.67611
25.44248
25.19797
24.94537
24.68814
24.43054
24.1766
23.92944
23.69141
23.46405
23.2482
23.04404
22.85124
22.66918
22.49711
22.33418
22.17952
22.03222
21.8914
21.75625
21.62605
21.50015
21.37802
21.25915
21.14312
21.02957
20.91824
20.80893
20.70149
20.59582
20.49185
20.38953
20.28881
20.18971
20.09221
19.99634
19.90211
19.80954
19.71863
19.62942
19.54191
19.45614
19.37211
19.28984
19.20934
19.13058
19.05358
18.97833
18.90481
18.833
18.76286
18.69439
18.62752
18.56224
18.49847
18.43619
18.37533
18.31585
18.25769
18.20079
18.14509
18.09051
18.03698
17.98444
17.93279
17.88195
17.83178
17.7821
17.73271
17.68343
17.63403
17.58425
17.53374
17.48204
17.42852
17.37215
17.31103
17.24178
17.15673
17.03884
16.84983
16.54715
16.525
625.1305
587.1359
545.4292
501.2176
461.7994
427.7807
398.395
372.7934
349.4105
275.9956
204.3337
170.7621
153.4581
143.2638
136.1762
130.5197
125.5918
121.0689
96.019
90.8464
86.03188
81.7448
78.05779
74.93024
72.27218
69.9877
67.99292
66.21071
64.64563
63.09596
61.49821
59.89208
58.32527
56.83241
55.43622
54.14796
52.96765
52.24583
51.79193
51.17681
50.47462
49.73924
49.00282
48.28534
47.59747
46.94347
46.3248
45.72469
45.1331
44.54152
43.93116
43.28841
42.60526
41.87839
41.11011
40.32073
36.39471
35.63865
34.9011
34.18394
33.49347
32.83765
32.22536
31.66739
31.1727
30.74742
30.40073
30.14447
29.98566
29.92857
29.97805
30.13544
30.40444
30.83907
31.45077
32.23667
33.08179
33.88838
34.60896
35.13368
35.35048
35.1953
34.65727
33.76833
32.59598
31.232
29.77782
28.3328
26.98716
25.79316
24.79555
24.03285
23.52104
23.25678
23.22432
23.40111
23.74855
24.22008
24.78841
25.42426
26.07388
26.70826
27.33314
27.98049
28.74894
29.80229
31.18538
32.86069
34.87515
37.3264
40.16435
43.08703
45.61697
47.30816
47.90167
47.36147
45.83164
43.57698
40.90991
38.09208
35.26973
32.64184
30.35525
28.48349
27.04658
26.02398
25.37069
25.03261
24.95505
25.07632
25.32291
25.62532
25.92299
26.16202
26.29826
26.31562
26.22565
26.05016
25.83141
25.60786
25.41307
25.28578
25.25582
25.33258
25.53059
25.8687
26.37174
27.08021
28.05047
29.35835
31.15861
33.66862
36.8123
40.56868
44.8773
49.38732
53.51937
57.01696
59.85299
61.93852
63.13405
63.33621
62.51095
60.69109
57.96557
54.5158
50.6177
46.5914
42.72089
39.18495
36.07561
33.44013
31.29124
29.67023
28.68512
28.50593
29.02972
29.84756
31.00424
32.54381
34.6618
37.32173
40.23608
43.03041
45.25302
46.69072
47.22212
46.45402
44.07138
40.40562
36.26839
32.35477
29.0253
26.35498
24.25975
22.62415
21.34069
20.32238
19.50227
18.8295
18.26753
17.79232
17.38307
17.02997
17.40527
17.57577
17.59938
17.55539
17.46556
17.34715
17.21715
17.08861
16.9695
16.86413
16.77457
16.70145
16.64314
16.59092
16.54177
16.49469
16.44901
16.40416
16.35969
16.31523
16.27047
16.22514
16.17905
16.13211
16.08436
16.03592
15.98689
15.93728
15.88703
15.83621
15.78486
15.73287
15.67972
15.62392
15.56178
15.48831
15.40851
15.32934
15.25031
15.17142
15.09249
15.0134
14.93404
14.85433
14.77418
14.69353
14.61239
14.53089
14.4493
14.36796
14.28725
14.20752
14.12902
14.05188
13.97616
13.90187
13.82906
13.75778
13.6881
13.62012
13.55394
13.48967
13.42745
13.36739
13.30963
13.25433
13.20161
13.15168
13.10482
13.063
11.82237
11.75474
11.70298
11.66063
11.62394
11.59136
11.56237
11.53677
11.51457
11.49586
11.48077
11.46936
11.46164
11.45753
11.45694
11.45976
11.46587
11.4751
11.4873
11.50228
11.51984
11.53976
11.56185
11.58589
11.61165
11.63891
11.66743
11.69693
11.72715
11.75779
11.7885
11.81892
11.84868
11.8774
11.90468
11.93014
11.9534
11.97408
11.99182
12.00628
12.01721
12.02439
12.02772
12.02723
12.02288
12.01438
12.00112
11.98284
11.95989
11.93243
11.90062
11.86436
11.82463
11.78477
11.74321
11.69381
11.63916
11.58208
11.52335
11.46312
11.40145
11.33846
11.27432
11.20921
11.14332
11.07683
11.00992
10.94277
10.87554
10.8084
10.7415
10.67495
10.60889
10.5434
10.47857
10.41445
10.3511
10.28855
10.22684
10.16597
10.10597
10.04685
9.988605
9.931255
9.874808
9.819274
9.764663
9.710988
9.658262
9.606495
9.555699
9.505885
9.457062
9.409238
9.362418
9.316607
9.271807
9.228018
9.185235
9.143452
9.102663
9.062854
9.024011
8.986119
8.949157
8.913103
8.877935
8.843625
8.810147
8.777471
8.745567
8.714402
8.683945
8.654163
8.625022
8.596488
8.568526
8.541099
8.514172
8.487704
8.461659
8.435988
8.410653
8.385589
8.360751
8.336043
8.311408
8.286689
8.2618
8.236453
8.210463
8.183217
8.154193
8.122009
8.085488
8.042975
7.996157
7.953129
7.917157
561.7948
494.1703
438.9099
398.2409
367.2777
343.1758
323.97
308.4965
295.7657
278.3067
182.4926
170.4479
160.6476
152.3984
145.251
138.7792
132.3598
124.1513
107.2588
75.96654
73.97257
72.81006
71.81664
71.03646
70.51991
70.02664
69.49399
68.52827
64.91269
62.57988
62.21615
61.92027
61.6231
61.31493
60.98508
60.62673
60.23461
59.76202
59.6292
58.44008
57.37288
56.5323
55.84059
55.22938
54.65786
54.10318
53.55386
53.00868
52.40508
51.73189
51.00924
50.27128
49.54311
48.83832
48.16029
47.50906
44.67161
44.10032
43.55236
43.01366
42.47736
41.94098
41.40474
40.86992
40.33916
39.81423
39.29634
38.78904
38.29456
37.81329
37.34687
36.89786
36.46902
36.06298
35.68134
35.32445
34.9929
34.68729
34.40465
34.14125
33.89377
33.65894
33.43341
33.21277
32.99248
32.76857
32.53374
32.28115
32.00537
31.7026
31.36976
31.00705
30.61232
30.18142
29.77852
29.3512
28.90744
28.45714
28.01047
27.57726
27.16757
26.7929
26.4627
26.18299
25.96036
25.80234
25.71328
25.69366
25.74329
25.86223
26.07263
26.38184
26.78363
27.26888
27.81053
28.36207
28.88219
29.31705
29.59871
29.66625
29.4814
29.03303
28.33819
27.44055
26.40458
25.30761
24.2335
23.26644
22.46283
21.87011
21.51624
21.41085
21.54701
21.90647
22.45797
23.15206
23.93477
24.74883
25.52643
26.20681
26.74485
27.12277
27.36126
27.57232
27.87707
28.36025
29.09969
30.13723
31.46031
32.96282
34.44431
35.66376
36.41962
36.59475
36.16417
35.18308
33.76725
32.07747
30.2967
28.51604
26.87249
25.48625
24.43408
23.74245
23.39291
23.34027
23.52423
23.87665
24.32372
24.79442
25.22522
25.55861
25.74556
25.75613
25.59535
25.30017
24.9216
24.51052
24.11206
23.7609
23.49346
23.32037
23.24972
23.29191
23.46068
23.77514
24.25673
24.93321
25.83537
27.00127
28.45169
30.18996
32.19968
34.39227
36.60919
38.72835
40.67971
42.37557
43.76557
44.79662
45.43552
45.65049
45.39449
44.62464
43.32669
41.54419
39.39067
37.01842
34.59261
32.25333
30.09653
28.20235
26.63946
25.44738
24.6118
24.09364
23.90639
24.10421
24.7494
25.84014
27.33313
29.16244
31.20643
33.34995
35.48395
37.44329
38.98466
39.82067
39.56874
37.96651
35.223
31.97028
28.79568
26.01294
23.71653
21.86936
20.3935
19.21291
18.26119
17.48649
16.84918
16.31736
15.86724
15.47484
15.14821
14.87998
14.6563
14.4663
14.30291
14.16175
14.04006
13.93585
13.84748
13.77353
13.70965
13.64969
13.59094
13.53206
13.47222
13.41083
13.34747
13.28183
13.21367
13.14281
13.06917
12.99273
12.91356
12.83173
12.74735
12.66054
12.57144
12.48023
12.38703
12.29185
12.19454
12.09474
11.99213
11.88727
11.78172
11.67636
11.57148
11.46725
11.36375
11.26104
11.15915
11.05807
10.95781
10.85841
10.75999
10.66275
10.56695
10.47284
10.38061
10.29037
10.20213
10.11584
10.03151
9.94919
9.868944
9.790864
9.715031
9.641508
9.570342
9.50156
9.435174
9.371184
9.309592
9.250391
9.193618
9.139288
9.087535
9.036091
9.013951
8.987822
8.959686
8.930535
8.901241
8.872473
8.844658
8.818065
8.792884
8.769272
8.747361
8.727254
8.709028
8.692739
8.678432
8.666141
8.655886
8.647672
8.641492
8.637331
8.635165
8.634966
8.636701
8.640336
8.645828
8.653128
8.662174
8.672893
8.685194
8.698971
8.7141
8.730436
8.747815
8.766053
8.784945
8.804269
8.823786
8.843238
8.862351
8.880853
8.898461
8.914917
8.929962
8.943364
8.954846
8.964121
8.970802
8.974598
8.975305
8.972905
8.967315
8.95861
8.946593
8.931415
8.913253
8.892823
8.870477
8.846107
8.819501
8.790628
8.759645
8.726779
8.692254
8.656298
8.619113
8.580872
8.54173
8.501835
8.46133
8.420338
8.378966
8.337306
8.295435
8.253416
8.211299
8.169126
8.126928
8.08473
8.04255
8.000404
7.958306
7.916273
7.874324
7.832478
7.790759
7.749193
7.707812
7.666647
7.625734
7.585111
7.544817
7.504892
7.465373
7.426299
7.387706
7.349629
7.312099
7.275144
7.238788
7.203052
7.167951
7.133498
7.099701
7.066562
7.034081
7.002255
6.971075
6.94053
6.910606
6.881287
6.852553
6.824384
6.796759
6.769653
6.743042
6.7169
6.6912
6.665917
6.64102
6.616483
6.592273
6.568363
6.54471
6.521289
6.498042
6.474938
6.451891
6.428864
6.405708
6.382365
6.358557
6.334173
6.308698
6.282018
6.253469
6.223515
6.192016
6.161324
6.133471
315.399
227.447
329.6793
148.9549
117.4817
87.93774
76.56465
67.21509
59.38911
55.76748
54.34879
53.62496
52.86496
52.01805
51.18412
50.40273
49.65504
48.92492
48.20415
47.50163
46.84548
46.28852
45.94379
45.7417
45.65043
45.6365
45.65712
45.69237
45.70634
45.65981
45.4434
44.00541
44.40492
44.77891
45.14461
45.51025
45.87667
46.24734
46.62203
46.94501
47.16741
47.41486
47.68866
47.93726
48.14153
48.29265
48.38365
48.41212
48.38067
48.29637
48.16585
47.97638
47.72935
47.43554
47.10326
46.73976
46.35025
45.93867
45.50872
45.06223
44.59956
44.12041
43.6275
43.12318
42.61096
42.0928
41.57519
41.0499
40.55212
40.05026
39.54926
39.04904
38.55017
38.05367
37.56014
37.07001
36.58403
36.10388
35.63178
35.17073
34.72343
34.29223
33.87992
33.48957
33.12401
32.78528
32.47409
32.18965
31.92995
31.69268
31.47488
31.27334
31.08476
30.90593
30.73358
30.56397
30.39253
30.2136
30.02041
29.80609
29.56369
29.29058
28.98761
28.65676
28.30095
27.92361
27.53172
27.12672
26.71205
26.29472
25.88363
25.48779
25.11625
24.78052
24.48999
24.24967
24.06432
23.94025
23.88015
23.88121
23.93906
24.05401
24.23081
24.46619
24.75482
25.08938
25.45566
25.83351
26.19864
26.5172
26.74546
26.83856
26.7586
26.48248
26.00689
25.35141
24.55802
23.68754
22.81426
22.01956
21.37616
20.93828
20.74297
20.80915
21.14129
21.72528
22.52426
23.47656
24.50445
25.52682
26.46472
27.24162
27.79034
28.07542
28.10639
27.95927
27.75484
27.60114
27.58783
27.76931
28.16106
28.72757
29.38532
30.01627
30.49113
30.69618
30.5595
30.06062
29.23052
28.14621
26.92418
25.7002
24.57556
23.66392
23.04642
22.75706
22.78323
23.07777
23.57037
24.1819
24.84463
25.50828
26.12527
26.63323
26.96071
27.05753
26.92368
26.60486
26.15867
25.64662
25.13386
24.66516
24.26931
23.95088
23.7104
23.55357
23.49069
23.53571
23.70202
23.99856
24.41566
24.94066
25.57978
26.33655
27.2061
28.17689
29.21872
30.29362
31.36706
32.40933
33.38314
34.25444
34.98228
35.54362
35.89886
35.99803
35.7917
35.24424
34.35408
33.15122
31.70503
30.11324
28.46984
26.8608
25.36776
24.03703
22.88559
21.94116
21.23997
20.81377
20.68143
20.85891
21.36994
22.22463
23.39528
24.8237
26.47959
28.34331
30.36165
32.41287
34.28799
35.7217
36.37373
35.90476
34.24039
31.72751
28.93818
26.31637
24.05101
22.17404
20.6487
19.41391
18.41207
17.59361
16.92685
16.37639
15.91856
15.53817
15.2214
14.95623
14.73302
14.54428
14.38432
14.24882
14.13448
14.03877
13.95724
13.88142
13.80714
13.73223
13.65536
13.5757
13.49272
13.40607
13.31557
13.22112
13.12269
13.02038
12.91436
12.80475
12.69175
12.57562
12.45659
12.33488
12.21069
12.08419
11.95545
11.82456
11.69169
11.5575
11.42298
11.28883
11.15539
11.02289
10.89153
10.76147
10.63282
10.50565
10.38004
10.25604
10.1338
10.01353
9.895496
9.780004
9.667338
9.557628
9.450839
9.346877
9.245707
9.147365
9.051926
8.959463
8.87003
8.783654
8.700329
8.620025
8.542688
8.468251
8.39664
8.327772
8.261589
8.197989
8.136962
8.078258
8.023399
7.971619
7.922434
7.87546
7.830468
7.787329
7.745966
7.706332
7.668402
7.632163
7.597614
7.564763
7.533618
7.504197
7.476518
7.450603
7.426471
7.404134
7.383604
7.364889
7.347997
7.332939
7.319722
7.308354
7.298838
7.29117
7.285343
7.281337
7.27913
7.278687
7.279963
7.2829
7.287424
7.29345
7.300874
7.309579
7.319427
7.330262
7.34191
7.354177
7.366855
7.379723
7.392546
7.405078
7.417051
7.42818
7.438137
7.446602
7.453301
7.458135
7.461153
7.462389
7.461827
7.459445
7.454994
7.448149
7.438811
7.427214
7.413685
7.398478
7.381757
7.363645
7.344113
7.323273
7.301246
7.278154
7.254096
7.229168
7.203468
7.177083
7.150097
7.122582
7.094601
7.066203
7.037425
7.008297
6.978836
6.949055
6.91896
6.888554
6.857842
6.826825
6.795511
6.763909
6.732032
6.699898
6.66753
6.634958
6.602213
6.569333
6.53636
6.503338
6.470314
6.437336
6.404451
6.371707
6.339151
6.306826
6.274773
6.24303
6.21163
6.180601
6.149968
6.119751
6.089966
6.060621
6.031725
6.003279
5.975281
5.947727
5.920608
5.893914
5.867631
5.841746
5.81624
5.791096
5.766295
5.741815
5.717635
5.693734
5.670087
5.64667
5.623454
5.600414
5.577511
5.554716
5.531972
5.509242
5.486435
5.463497
5.440281
5.416711
5.392579
5.367849
5.342343
5.316235
5.289561
5.263075
5.238275
276.7856
186.0831
140.3137
126.8218
103.4796
87.66776
75.91303
71.412
66.28867
63.33555
60.74179
57.23083
53.65782
50.24064
47.06975
43.53891
38.1444
36.85528
35.87348
35.27272
35.00355
34.93808
34.94821
34.99132
35.06323
35.16434
35.29583
35.45872
35.65492
35.88797
36.1623
36.48819
36.87752
37.31111
37.77342
38.25883
38.76338
39.28694
39.82882
40.38637
40.95575
41.49866
41.95474
42.48009
43.00328
43.5135
44.02991
44.53347
45.04598
45.60945
46.11935
46.56552
46.94467
47.26911
47.52853
47.71181
47.81538
47.83732
47.77982
47.64784
47.44693
47.18742
46.87574
46.5162
46.11392
45.67541
45.20622
44.71028
44.19276
43.65705
43.10875
42.5515
41.99316
41.44164
40.89957
40.36701
39.84329
39.3271
38.81585
38.3064
37.80354
37.30956
36.82266
36.34144
35.86516
35.39285
34.92348
34.4569
33.99465
33.53983
33.09662
32.66898
32.25999
31.873
31.51174
31.17974
30.87951
30.61166
30.37475
30.16569
29.98073
29.81593
29.66702
29.52986
29.40098
29.27746
29.15616
29.03262
28.90043
28.75067
28.57274
28.36353
28.12032
27.84185
27.52972
27.18777
26.82073
26.4343
26.03434
25.62794
25.22139
24.82078
24.43593
24.07683
23.75658
23.48616
23.26983
23.11123
23.01593
22.98502
23.01228
23.09038
23.21702
23.38612
23.59147
23.82696
24.08556
24.35695
24.62902
24.88619
25.10594
25.25969
25.31625
25.24631
25.02775
24.65169
24.12727
23.48396
22.77085
22.05311
21.40653
20.90827
20.61918
20.58583
20.83875
21.38809
22.21583
23.27195
24.48031
25.75062
26.99143
28.11297
29.01079
29.57398
29.7547
29.59995
29.21455
28.72168
28.20767
27.74833
27.40272
27.20771
27.16871
27.25685
27.41234
27.55454
27.60084
27.48157
27.15252
26.60588
25.87479
25.03372
24.19571
23.47325
22.96504
22.73901
22.81712
23.18124
23.77725
24.52039
25.32967
26.15763
26.98223
27.76944
28.45524
28.96291
29.23606
29.26195
29.0723
28.71348
28.239
27.73333
27.26514
26.83917
26.44543
26.06931
25.71726
25.40351
25.15447
25.0078
24.98226
25.05091
25.16401
25.2974
25.45039
25.63291
25.86428
26.15607
26.5063
26.90738
27.35122
27.82739
28.32149
28.81808
29.28097
29.6797
29.96971
30.10131
30.02762
29.71695
29.15635
28.36059
27.37474
26.25447
25.06229
23.86216
22.70297
21.62023
20.65027
19.82831
19.1808
18.72522
18.47893
18.46266
18.69347
19.18044
19.93232
20.96656
22.28966
23.86848
25.63819
27.54379
29.51676
31.42408
33.04172
34.06723
34.18704
33.27689
31.51702
29.29735
27.00964
24.91524
23.1201
21.62727
20.40027
19.40134
18.58631
17.91603
17.36276
16.90454
16.52303
16.20335
15.93365
15.70451
15.50868
15.3406
15.19604
15.07076
14.95487
14.84268
14.73105
14.61797
14.50216
14.38285
14.2596
14.13219
14.00057
13.86479
13.72498
13.58147
13.43463
13.28462
13.13156
12.97563
12.81707
12.65611
12.49301
12.32802
12.16138
11.99346
11.82489
11.65656
11.48918
11.32312
11.15861
10.99587
10.8351
10.67646
10.52009
10.36608
10.21454
10.06563
9.919606
9.776777
9.637462
9.501991
9.370541
9.243102
9.119559
8.999842
8.883962
8.77196
8.663865
8.559677
8.459361
8.362853
8.270058
8.180864
8.095145
8.012766
7.933584
7.857458
7.784228
7.713751
7.645861
7.580488
7.517573
7.457029
7.39872
7.342513
7.288304
7.23601
7.185564
7.136907
7.089989
7.044774
7.001233
6.95935
6.919121
6.880551
6.843658
6.808454
6.774953
6.743168
6.713114
6.684811
6.658279
6.63354
6.610614
6.58952
6.570266
6.55286
6.537304
6.523596
6.51173
6.501692
6.493456
6.486991
6.482253
6.479189
6.477733
6.477808
6.47932
6.482158
6.486196
6.491289
6.497279
6.503987
6.511219
6.51876
6.52638
6.533832
6.540884
6.547335
6.553083
6.557926
6.561674
6.564135
6.565176
6.564727
6.56276
6.559259
6.554212
6.547617
6.5395
6.529929
6.519027
6.50704
6.494073
6.480212
6.465471
6.449889
6.433564
6.416572
6.398975
6.380829
6.362182
6.343072
6.323527
6.303568
6.283206
6.262442
6.241273
6.219692
6.197685
6.175241
6.152346
6.128989
6.105163
6.080864
6.056092
6.030857
6.00517
5.979052
5.952529
5.925634
5.898403
5.87088
5.843109
5.81514
5.787023
5.758809
5.730548
5.702289
5.67408
5.645963
5.61798
5.590167
5.562555
5.535171
5.508039
5.481176
5.454595
5.428307
5.402315
5.376623
5.351228
5.326125
5.301307
5.276765
5.252488
5.228461
5.204671
5.1811
5.157733
5.134551
5.111534
5.08866
5.065908
5.043249
5.020658
4.998096
4.975529
4.952903
4.930175
4.907265
4.88413
4.86068
4.836903
4.812749
4.788297
4.763621
4.739008
4.715932
133.8522
100.0736
154.0117
77.39904
66.71573
57.79097
55.23477
53.47647
51.51214
50.8775
49.97587
48.50705
47.09493
45.54152
43.62981
39.69699
38.81564
37.97068
37.1337
36.31189
35.46545
34.63577
33.87873
33.22772
32.70375
32.3142
31.98889
31.63197
31.42702
31.39037
31.5026
31.71096
31.9669
32.25064
32.5572
32.88494
33.23336
33.60205
33.99223
34.40614
34.8546
35.3326
35.83277
36.3517
36.88838
37.44173
38.00911
38.58814
39.17543
39.76494
40.34407
40.89695
41.44021
42.04359
42.62178
43.18493
43.78953
44.34806
44.88679
45.42349
45.91763
46.32959
46.63262
46.82194
46.90033
46.87127
46.74114
46.51675
46.20943
45.82908
45.38851
44.89962
44.37324
43.81794
43.23901
42.643
42.03416
41.41933
40.80487
40.20415
39.62624
39.07399
38.5532
38.06313
37.60098
37.16202
36.74052
36.33034
35.92677
35.52644
35.1292
34.73566
34.34557
33.95823
33.57249
33.18654
32.79826
32.40695
32.0142
31.6242
31.24267
30.8753
30.52682
30.20062
29.90016
29.6293
29.39077
29.18462
29.00807
28.85672
28.72585
28.6106
28.50576
28.4067
28.31044
28.21562
28.12127
28.0252
27.92217
27.80295
27.66104
27.48712
27.27488
27.02224
26.73108
26.40597
26.05289
25.67845
25.28937
24.89255
24.49625
24.11067
23.74468
23.40858
23.11653
22.88147
22.70654
22.59294
22.54361
22.55614
22.62088
22.72994
22.87534
23.04783
23.23946
23.44405
23.65632
23.86986
24.07595
24.26232
24.41207
24.50421
24.51579
24.42566
24.21743
23.88396
23.43208
22.88589
22.28757
21.69573
21.1818
20.82475
20.6945
20.84535
21.31351
22.10836
23.20071
24.52488
26.00466
27.57409
29.16448
30.65883
31.85071
32.50291
32.52895
32.05329
31.31037
30.47767
29.61765
28.79229
28.05323
27.43741
26.96442
26.63268
26.41498
26.26195
26.11504
25.91609
25.62025
25.20815
24.69457
24.13234
23.61064
23.23892
23.09965
23.23895
23.6583
24.31858
25.14818
26.05633
26.9778
27.89642
28.81599
29.70696
30.51587
31.20508
31.75589
32.1536
32.36284
32.36776
32.1819
31.87718
31.5533
31.18948
30.76652
30.25006
29.67435
29.1025
28.53571
27.98794
27.53087
27.19089
26.91611
26.63613
26.31799
25.97383
25.64495
25.37099
25.17319
25.05843
25.02449
25.0667
25.17995
25.35638
25.58025
25.82081
26.04034
26.19466
26.23877
26.13075
25.85061
25.39069
24.76327
23.99667
23.12999
22.20732
21.27028
20.3548
19.49325
18.71513
18.04445
17.49839
17.09102
16.83718
16.75302
16.85557
17.16443
17.70196
18.48651
19.52655
20.82022
22.34585
24.04536
25.85033
27.70115
29.5075
31.09706
32.23968
32.69463
32.33254
31.23167
29.64137
27.85639
26.10544
24.51498
23.13831
21.97887
21.0124
20.20784
19.53685
18.97523
18.50238
18.10109
17.75717
17.45907
17.19759
16.96575
16.75953
16.56981
16.38851
16.21099
16.03439
15.85688
15.67735
15.49519
15.31012
15.12206
14.93109
14.73738
14.54123
14.34309
14.1432
13.94169
13.73873
13.53454
13.32938
13.12353
12.9173
12.71097
12.50491
12.2996
12.09568
11.89369
11.694
11.49683
11.30234
11.11071
10.92208
10.73664
10.5545
10.37581
10.20074
10.02959
9.862861
9.700941
9.544021
9.392244
9.245564
9.103877
8.967095
8.835174
8.708081
8.585759
8.46813
8.355088
8.246504
8.14223
8.042109
7.945974
7.853648
7.764948
7.679691
7.597681
7.518727
7.442639
7.369226
7.298333
7.229825
7.16357
7.099452
7.037367
6.97721
6.918893
6.862341
6.807485
6.754274
6.702666
6.652635
6.604167
6.557268
6.511954
6.468242
6.426153
6.385703
6.346914
6.309806
6.274408
6.240748
6.208854
6.17875
6.150449
6.123966
6.09931
6.07649
6.055507
6.036361
6.019041
6.003528
5.989797
5.977819
5.967554
5.958954
5.951961
5.946501
5.942489
5.939827
5.938402
5.938088
5.938743
5.940208
5.942315
5.944887
5.94775
5.950731
5.953597
5.956162
5.958258
5.959738
5.960487
5.960396
5.959358
5.957278
5.9541
5.949806
5.944413
5.937958
5.930486
5.922067
5.912792
5.902753
5.892103
5.880974
5.869413
5.857389
5.844938
5.832108
5.81893
5.805424
5.791602
5.77747
5.763023
5.748251
5.733136
5.717657
5.701786
5.685497
5.668761
5.651549
5.633837
5.6156
5.596824
5.577494
5.557605
5.53716
5.516166
5.494639
5.472603
5.450086
5.427125
5.40376
5.380034
5.355995
5.331693
5.307176
5.282494
5.257694
5.232824
5.207924
5.183035
5.158193
5.133428
5.108768
5.084234
5.059846
5.035617
5.011557
4.987673
4.963967
4.940439
4.917087
4.893905
4.870885
4.848019
4.825295
4.802701
4.780223
4.757846
4.735553
4.713327
4.691146
4.668989
4.64683
4.624641
4.602389
4.580042
4.557559
4.534913
4.512067
4.489017
4.465759
4.442332
4.418821
4.39536
4.373449
50.982
39.48346
40.96938
39.21487
38.41385
37.43979
36.73467
36.17519
35.74687
34.97137
32.83456
32.83526
32.84489
32.85763
32.83764
32.7729
32.69631
32.6368
32.60418
32.58532
32.45266
32.08608
31.71278
31.33424
30.96205
30.59856
30.2629
29.97473
29.74731
29.58401
29.47767
29.42323
29.43312
29.53946
29.74685
30.0411
30.39073
30.77024
31.16579
31.57044
31.98022
32.39284
32.8067
33.2238
33.66018
34.112
34.58022
35.06761
35.57689
36.10989
36.66659
37.24264
37.83315
38.43454
39.04206
39.63252
40.19517
40.76071
41.38989
41.98689
42.57228
43.15069
43.70204
44.19485
44.59854
44.89212
45.05937
45.08596
44.97232
44.729
44.37165
43.91689
43.38159
42.78492
42.14221
41.47016
40.78211
40.092
39.40843
38.74052
38.09506
37.48704
36.92606
36.41411
35.95491
35.54997
35.19613
34.88475
34.60893
34.36078
34.13058
33.90818
33.68465
33.45352
33.21124
32.95752
32.6945
32.42489
32.1503
31.8707
31.58445
31.28925
30.98454
30.67305
30.36101
30.05657
29.76653
29.49601
29.2489
29.02792
28.83602
28.67467
28.54155
28.43089
28.33559
28.24886
28.16423
28.07537
27.97761
27.86948
27.75237
27.62912
27.50257
27.37414
27.24052
27.09087
26.91391
26.70158
26.4507
26.16277
25.84265
25.49693
25.13265
24.75682
24.37664
24.00058
23.63998
23.30844
23.01775
22.78202
22.61435
22.5154
22.48139
22.50948
22.58987
22.70924
22.8578
23.02249
23.1919
23.35782
23.51642
23.66753
23.81152
23.94539
24.06086
24.14426
24.17791
24.14326
24.02391
23.80829
23.49274
23.08531
22.6091
22.1038
21.62546
21.24459
21.0427
21.09592
21.46362
22.18363
23.25558
24.63025
26.23584
28.05133
30.13655
32.53274
35.00051
37.071
38.20955
38.19705
37.28793
35.96577
34.4236
32.79535
31.24688
29.87512
28.70578
27.74551
26.98522
26.39966
25.95026
25.58925
25.26611
24.94006
24.59168
24.23089
23.8996
23.6691
23.62999
23.84612
24.32682
25.03571
25.91029
26.86913
27.82138
28.72246
29.59093
30.4383
31.23577
31.97801
32.72329
33.5421
34.45795
35.41062
36.31802
37.13493
37.66486
37.80976
37.58018
37.03643
36.27805
35.43596
34.45264
33.28584
32.10656
31.09035
30.32443
29.71123
29.08712
28.37248
27.57865
26.76978
26.00981
25.34028
24.77964
24.33048
23.98905
23.75135
23.60959
23.55092
23.55596
23.59753
23.63865
23.63867
23.55889
23.36928
23.05197
22.60414
22.03756
21.37536
20.64767
19.88667
19.1227
18.38312
17.6923
17.07042
16.53237
16.08955
15.75284
15.53401
15.44583
15.50344
15.72578
16.13454
16.75112
17.59149
18.6585
19.93865
21.40541
23.01265
24.69555
26.38552
28.00846
29.45131
30.55721
31.16457
31.17892
30.6252
29.64207
28.41231
27.09953
25.83217
24.67933
23.6622
22.77919
22.0182
21.36291
20.79641
20.3028
19.86761
19.47773
19.12146
18.79135
18.4838
18.19123
17.90845
17.63203
17.35958
17.08959
16.82112
16.55367
16.28698
16.02098
15.75573
15.49143
15.22841
14.96701
14.70752
14.45016
14.19514
13.94266
13.69292
13.44607
13.20219
12.96137
12.72372
12.4894
12.2586
12.03148
11.80814
11.58865
11.37304
11.16138
10.95376
10.75029
10.55108
10.35627
10.16607
9.980826
9.800987
9.627167
9.459845
9.298844
9.143753
8.994375
8.850585
8.712253
8.579242
8.451401
8.328575
8.210598
8.0973
7.988509
7.884047
7.783727
7.68736
7.594746
7.505681
7.419959
7.33737
7.257704
7.180764
7.106369
7.034358
6.964585
6.896896
6.83115
6.767232
6.70504
6.644491
6.585515
6.52806
6.472091
6.41759
6.364565
6.313043
6.263061
6.214624
6.167746
6.122445
6.078743
6.036669
5.996254
5.957535
5.920541
5.885291
5.851803
5.820088
5.790158
5.762021
5.735679
5.711126
5.688348
5.667329
5.648046
5.630472
5.614575
5.600311
5.587629
5.576466
5.566753
5.558408
5.55134
5.545446
5.54061
5.536707
5.533605
5.531167
5.529253
5.527659
5.526192
5.524722
5.523119
5.521264
5.519042
5.51635
5.513101
5.509232
5.504702
5.49949
5.49359
5.487011
5.479781
5.471942
5.463549
5.454672
5.445379
5.435745
5.42591
5.415934
5.405791
5.395478
5.385018
5.374419
5.363679
5.352787
5.341726
5.330472
5.318993
5.307255
5.295218
5.282844
5.270089
5.256914
5.243281
5.229155
5.214505
5.199308
5.183545
5.167206
5.150287
5.132792
5.114735
5.096134
5.077015
5.05741
5.037355
5.016891
4.996061
4.974909
4.953482
4.931823
4.909978
4.887986
4.865888
4.843719
4.821511
4.799293
4.777088
4.754918
4.732798
4.71074
4.688756
4.666849
4.645023
4.623278
4.601611
4.580019
4.558493
4.537027
4.515611
4.494233
4.472881
4.451541
4.430197
4.408833
4.38743
4.365969
4.344427
4.322784
4.301018
4.279115
4.25706
4.234855
4.212515
4.190063
4.167577
4.145147
4.124269
79.75293
31.93578
27.96145
27.01745
26.50036
26.32093
26.40911
26.64779
26.99017
27.40367
27.76207
27.96056
28.15018
28.31891
28.46599
28.58562
28.68574
28.7674
28.81977
28.82298
28.75331
28.62303
28.48511
28.34724
28.21682
28.09865
28.00454
27.94322
27.92244
27.94573
28.00986
28.11802
28.2807
28.50841
28.8011
29.1465
29.52232
29.91002
30.29792
30.67999
31.053
31.4158
31.77546
32.15926
32.56312
32.98986
33.44314
33.92728
34.4468
35.00434
35.6006
36.21874
36.84676
37.48341
38.14232
38.77595
39.37727
39.97752
40.58593
41.18664
41.75842
42.26195
42.66085
42.93092
43.04967
43.01203
42.8189
42.47717
42.0031
41.41578
40.74053
40.00074
39.22159
38.4255
37.63345
36.8637
36.13365
35.46048
34.85999
34.34412
33.91331
33.56786
33.30588
33.11986
32.99639
32.92457
32.89447
32.89488
32.91526
32.94322
32.9644
32.96488
32.93382
32.86478
32.75656
32.61347