/*--------------------------------*- C++ -*----------------------------------*\
| =========                 |                                                 |
| \\      /  F ield         | foam-extend: Open Source CFD                    |
|  \\    /   O peration     | Version:     3.1                                |
|   \\  /    A nd           | Web:         http://www.extend-project.de       |
|    \\/     M anipulation  |                                                 |
\*---------------------------------------------------------------------------*/
FoamFile
{
    version     2.0;
    format      ascii;
    class       surfaceScalarField;
    location    "10";
    object      phi;
}
// * * * * * * * * * * * * * * * * * * * * * * * * * * * * * * * * * * * * * //

dimensions      [0 3 -1 0 0 0 0];

internalField   nonuniform List<scalar> 
275122
(
-0.0002420173
0.0002413563
-2.185921e-07
8.795656e-07
-0.0002057504
0.0001919542
8.348171e-07
1.296138e-05
-0.0001910322
0.0001934655
-2.329276e-07
-2.200373e-06
-0.0002028553
0.0002062287
-2.766867e-07
-3.096664e-06
-0.0002151119
0.0002158633
-2.786922e-07
-4.726478e-07
-0.0002141664
0.0002135886
-2.168919e-07
7.946971e-07
-0.0002120408
0.0002116211
-1.828617e-07
6.026464e-07
-0.0002105377
0.0002102433
-1.524696e-07
4.468491e-07
-0.000209481
0.0002092599
-1.318943e-07
3.530463e-07
-0.0002085693
0.000208325
-1.149624e-07
3.592375e-07
-0.0002075531
0.0002072885
-9.961612e-08
3.6421e-07
-0.0002064758
0.0002062068
-8.566514e-08
3.546981e-07
-0.000205405
0.000205148
-7.342309e-08
3.304835e-07
-0.000204386
0.0002041384
-6.25768e-08
3.100943e-07
-0.000203422
0.0002032039
-5.272178e-08
2.70807e-07
-0.0002025903
0.0002024182
-4.391379e-08
2.15992e-07
-0.0002019717
0.0002018829
-3.638671e-08
1.251718e-07
-0.0002017366
0.0002018065
-3.288952e-08
-3.702021e-08
-0.0002022148
0.0002025912
-5.322629e-08
-3.23226e-07
-0.0002049008
0.0002066622
-2.745361e-07
-1.486877e-06
-0.0002356088
0.0002451333
-5.793132e-07
-8.945197e-06
-0.0002543463
0.0002568692
-2.425697e-07
-2.280267e-06
-0.0002669948
0.0002707892
-1.336943e-07
-3.660757e-06
-0.0003082993
0.0003203709
3.33858e-07
-1.240545e-05
-0.000332515
0.0003359667
3.40484e-07
-3.792135e-06
-0.0003471283
0.0003502628
9.970306e-08
-3.234134e-06
-0.0003583154
0.0003602267
7.787295e-08
-1.989139e-06
-0.0003639559
0.0003634775
7.535518e-08
4.030643e-07
-0.0003484732
0.000327642
1.018218e-07
2.072937e-05
-0.0001646242
0.0001689954
4.23317e-09
-4.375452e-06
-0.0002252646
0.0002367326
-6.411219e-08
-1.140388e-05
-0.0002695992
0.0002805227
5.047515e-09
-1.092856e-05
-0.0003139119
0.0003252226
5.558747e-09
-1.131629e-05
-0.0003595392
0.0003711053
6.71275e-09
-1.157276e-05
-0.0004063416
0.0004182012
6.791429e-09
-1.186641e-05
-0.0004540935
0.0004660941
6.610931e-09
-1.200719e-05
-0.0005021959
0.0005142228
5.878007e-09
-1.203276e-05
-0.000550176
0.0005621168
5.875701e-09
-1.194672e-05
-0.0005975935
0.0006093322
3.59716e-09
-1.174233e-05
-0.0006441455
0.0006562371
1.979836e-07
-1.228965e-05
1.019002e-05
-0.0004434232
0.0004443925
-1.126555e-08
-1.114798e-05
1.008358e-05
-0.0004468848
0.0004475248
-7.507571e-09
-1.071605e-05
1.012301e-05
-0.0004491227
0.0004495272
-6.907105e-09
-1.05206e-05
1.021105e-05
-0.0004502526
0.000450345
-4.548172e-09
-1.029888e-05
1.028663e-05
-0.0004502039
0.0004500426
-3.008117e-09
-1.012223e-05
1.0332e-05
-0.0004492808
0.0004489543
-1.705521e-09
-1.000386e-05
1.036815e-05
-0.000447813
0.0004473931
-1.1479e-09
-9.94709e-06
1.04239e-05
-0.0004460484
0.0004455792
-7.276658e-10
-9.953946e-06
1.073336e-05
-0.0004439761
0.0004428277
-2.518899e-10
-9.584775e-06
8.622143e-06
-0.001796237
0.00179664
-9.014606e-11
-3.647927e-05
9.444181e-06
8.589995e-06
9.420342e-06
1.027827e-05
-0.001794909
0.001793397
4.071654e-11
-4.005568e-05
1.052877e-05
1.025769e-05
1.050243e-05
1.03087e-05
-0.001791157
0.001788958
1.922676e-10
-3.941909e-05
1.052266e-05
1.028577e-05
1.050158e-05
1.054451e-05
-0.001786992
0.001785528
3.058808e-10
-4.083113e-05
1.062402e-05
1.052361e-05
1.060301e-05
1.073461e-05
-0.001784291
0.001783196
1.313864e-10
-4.205574e-05
1.085885e-05
1.071551e-05
1.084179e-05
1.09706e-05
-0.001782316
0.001781697
2.775062e-11
-4.33652e-05
1.103697e-05
1.095484e-05
1.102186e-05
1.117153e-05
-0.001781293
0.00178118
-5.649268e-11
-4.465369e-05
1.122679e-05
1.11562e-05
1.121135e-05
1.122894e-05
-0.001781274
0.001781599
-1.711594e-10
-4.527943e-05
1.126286e-05
1.121123e-05
1.125148e-05
1.130085e-05
-0.001782135
0.001782438
-9.698943e-11
-4.556045e-05
1.134522e-05
1.12838e-05
1.132802e-05
1.084442e-05
-0.001781842
0.001783263
-7.603723e-11
-4.476459e-05
1.084196e-05
1.08232e-05
1.083421e-05
1.102386e-05
-0.001784759
0.001784896
-7.377904e-11
-4.420022e-05
1.101018e-05
1.102221e-05
1.100701e-05
1.06054e-05
-0.001784791
0.001784463
-6.118585e-11
-4.177159e-05
1.044408e-05
1.060614e-05
1.044427e-05
9.970054e-06
-0.001783994
0.00178294
-3.589021e-11
-3.849805e-05
9.806155e-06
9.969861e-06
9.805777e-06
8.960533e-06
-0.001781744
0.001780041
-7.302163e-12
-3.374193e-05
8.763687e-06
8.95863e-06
8.761549e-06
7.91373e-06
-0.001777473
0.001774094
1.392373e-11
-2.765165e-05
7.607995e-06
7.905183e-06
7.603455e-06
6.35868e-06
-0.001770264
0.001765312
2.553443e-11
-1.979174e-05
6.043152e-06
6.323037e-06
6.019443e-06
4.638909e-06
-0.00175971
0.001752888
2.943258e-11
-1.073369e-05
4.283074e-06
4.480051e-06
4.153325e-06
3.207534e-06
-0.001745103
0.001735526
2.580026e-11
-1.639992e-06
2.974544e-06
2.637657e-06
2.397247e-06
3.74687e-06
-0.00172216
0.001702025
1.835091e-11
8.661229e-06
4.055639e-06
2.183527e-06
1.487484e-06
-2.780452e-05
-0.00167693
0.001675523
1.248399e-11
2.921161e-05
-3.262877e-05
-0.001674409
0.001658728
1.94168e-11
4.831002e-05
-2.244394e-05
-0.001638561
0.001617198
2.474089e-11
4.38064e-05
-2.043869e-05
-0.001595335
0.001572647
1.515655e-11
4.312679e-05
-2.238232e-05
-0.001549182
0.001527101
-8.158649e-12
4.446308e-05
-2.191036e-05
-0.001505981
0.001484899
-3.077839e-11
4.299274e-05
-1.773716e-05
-0.001464269
0.001444501
-3.758975e-11
3.750479e-05
-1.335197e-05
-0.001425648
0.001408178
-3.181484e-11
3.082184e-05
-9.567396e-06
-0.001391862
0.001377165
-1.35054e-11
2.42637e-05
-6.260391e-06
-0.001363705
0.001351957
2.140259e-12
1.800883e-05
-3.276519e-06
-0.00134144
0.001332616
-5.74703e-13
1.210085e-05
-3.876024e-07
-0.001324942
0.001318833
-2.004384e-11
6.496885e-06
2.114603e-06
-0.001313854
0.001310461
-4.352758e-11
1.277937e-06
4.860562e-06
-0.001308112
0.00130737
-5.561853e-11
-4.11804e-06
7.771216e-06
-0.00130764
0.001309582
-5.590724e-11
-9.713967e-06
1.104752e-05
-0.001312559
0.001317317
-4.979565e-11
-1.580529e-05
1.492033e-05
-0.001323123
0.001330826
-4.150987e-11
-2.262356e-05
1.944705e-05
-0.001339545
0.00135025
-3.427087e-11
-3.01521e-05
2.485185e-05
-0.001361767
0.001375266
-2.961464e-11
-3.835047e-05
3.165678e-05
-0.001388807
0.001404488
-2.700065e-11
-4.733745e-05
4.140286e-05
-0.001417934
0.001433344
-2.482431e-11
-5.681321e-05
4.271767e-05
-0.001452067
0.001471959
-2.227948e-11
-6.260943e-05
5.437316e-05
-0.001490541
0.001508631
-1.892934e-11
-7.24636e-05
6.912096e-05
-0.001522567
0.001535436
-1.464565e-11
-8.199051e-05
5.616282e-05
-0.001551361
0.001570936
-8.184429e-12
-7.573819e-05
4.49058e-05
-0.001592276
0.001612712
1.498705e-12
-6.534152e-05
3.299441e-05
-0.001632606
0.001651783
1.556144e-11
-5.217125e-05
1.079446e-05
-0.001670683
0.001689811
3.102476e-11
-2.992185e-05
-4.221071e-05
-0.00171075
0.001747468
5.125494e-11
5.492263e-06
-1.148529e-05
-0.001789521
0.001804401
9.106982e-11
2.356249e-05
-7.672911e-06
-1.152015e-05
-7.764478e-06
-9.153232e-06
-0.001812287
0.001819957
1.506245e-10
3.047572e-05
-1.073987e-05
-8.495867e-06
-9.757028e-06
-1.662712e-05
-0.001827686
0.001833268
1.462985e-10
6.075483e-05
-1.805314e-05
-1.528995e-05
-1.636708e-05
-2.236147e-05
-0.001839845
0.001843104
2.20975e-11
8.520674e-05
-2.241644e-05
-2.163711e-05
-2.205097e-05
-2.091341e-05
-0.001842817
0.001835904
-4.773841e-13
9.064771e-05
-2.01472e-05
-2.158975e-05
-2.108453e-05
-1.694514e-05
-0.001819539
0.001794677
1.0614e-10
9.351866e-05
-1.635919e-05
-1.799553e-05
-1.735638e-05
-1.56974e-05
-0.00176433
0.001728553
3.182795e-10
9.927033e-05
-1.554071e-05
-1.626325e-05
-1.599321e-05
-1.523481e-05
-0.00168843
0.001644655
5.29625e-10
0.0001047291
-1.508897e-05
-1.541455e-05
-1.521644e-05
-1.381582e-05
-0.0015989
0.001552207
4.56882e-10
0.0001013196
-1.345415e-05
-1.386521e-05
-1.349257e-05
-1.113662e-05
-0.001506283
0.001462514
7.791973e-11
8.736841e-05
-1.064892e-05
-1.115233e-05
-1.066188e-05
-7.961873e-06
-0.001421885
0.001385645
-2.819386e-10
6.708057e-05
-7.463961e-06
-7.956072e-06
-7.45774e-06
-5.035714e-06
-0.001353639
0.001327041
-4.547787e-10
4.58847e-05
-4.621573e-06
-5.020199e-06
-4.608607e-06
-2.649662e-06
-0.001304751
0.00128784
-4.876886e-10
2.681612e-05
-2.310431e-06
-2.642009e-06
-2.303073e-06
-4.877879e-07
-0.001274534
0.001265791
-4.314611e-10
1.014055e-05
-2.091947e-07
-4.90008e-07
-2.099228e-07
1.460897e-06
-0.00125994
0.001257651
-3.315467e-10
-4.126765e-06
1.746743e-06
1.460708e-06
1.747763e-06
3.101985e-06
-0.001257354
0.001260377
-2.271531e-10
-1.584214e-05
3.307661e-06
3.102311e-06
3.30822e-06
4.212769e-06
-0.001265064
0.001272434
-1.442495e-10
-2.447224e-05
4.340844e-06
4.210802e-06
4.338458e-06
5.006078e-06
-0.001281148
0.001292165
-8.422157e-11
-3.124355e-05
5.111156e-06
5.002122e-06
5.107034e-06
5.71431e-06
-0.001304281
0.001318548
-4.293435e-11
-3.732173e-05
5.818064e-06
5.709506e-06
5.813154e-06
6.449804e-06
-0.001333829
0.001351247
-1.597378e-11
-4.342992e-05
6.561544e-06
6.444422e-06
6.556012e-06
7.253748e-06
-0.001369684
0.001390282
1.105267e-12
-4.984553e-05
7.375852e-06
7.247896e-06
7.36984e-06
8.174041e-06
-0.001411954
0.001435833
1.03886e-11
-5.685855e-05
8.322132e-06
8.167668e-06
8.315662e-06
9.328819e-06
-0.00146094
0.001488331
1.47127e-11
-6.505676e-05
9.511352e-06
9.321972e-06
9.504279e-06
1.065885e-05
-0.001517197
0.001548223
1.426563e-11
-7.401265e-05
1.084201e-05
1.065135e-05
1.083444e-05
1.18493e-05
-0.00158078
0.001615091
9.372395e-12
-8.193097e-05
1.196919e-05
1.184129e-05
1.196102e-05
1.261279e-05
0.001687656
-1.541271e-12
-8.75401e-05
1.267396e-05
1.260462e-05
1.266579e-05
-0.001650673
1.306968e-05
-0.001725736
0.001764977
-1.43314e-11
-9.153078e-05
1.308366e-05
1.306129e-05
1.30751e-05
1.325688e-05
-0.001805224
0.00184626
-2.854765e-11
-9.399988e-05
1.32342e-05
1.324788e-05
1.322505e-05
1.320877e-05
-0.001888027
0.001930092
-4.350245e-11
-9.476637e-05
1.315084e-05
1.319962e-05
1.314228e-05
1.289234e-05
-0.001972518
0.002014552
-5.703526e-11
-9.339409e-05
1.279638e-05
1.288359e-05
1.278763e-05
1.217237e-05
-0.002056463
0.002097172
-6.737245e-11
-8.900063e-05
1.198202e-05
1.21639e-05
1.197352e-05
1.082968e-05
-0.002137236
0.002175179
-7.36739e-11
-8.069862e-05
1.055694e-05
1.082119e-05
1.054866e-05
9.219229e-06
-0.002212032
0.002245985
-7.583264e-11
-7.025757e-05
8.940779e-06
9.211516e-06
8.933284e-06
7.131486e-06
-0.002278154
0.002306654
-7.177871e-11
-5.623821e-05
6.744382e-06
7.12461e-06
6.737644e-06
4.692907e-06
-0.002332942
0.00235519
-6.614823e-11
-4.023461e-05
4.306685e-06
4.686198e-06
4.300723e-06
2.285271e-06
-0.002375106
0.002391118
-5.733763e-11
-2.439315e-05
1.910502e-06
2.279445e-06
1.905726e-06
4.759769e-08
-0.002404877
0.002415028
-4.53418e-11
-9.708982e-06
-2.654131e-07
4.489463e-08
-2.689863e-07
-1.914481e-06
-0.002423144
0.002428111
-2.756668e-11
3.260733e-06
-2.196522e-06
-1.917706e-06
-2.199052e-06
-3.618337e-06
-0.002431383
0.002431935
-1.852877e-11
1.444637e-05
-3.879154e-06
-3.620102e-06
-3.880837e-06
-5.133097e-06
-0.002430948
0.002427526
-4.70411e-12
2.443196e-05
-5.371045e-06
-5.133998e-06
-5.371928e-06
-6.545331e-06
-0.002422659
0.002415454
1.824278e-11
3.385511e-05
-6.779679e-06
-6.545387e-06
-6.78e-06
-7.95899e-06
-0.002406801
0.002395748
4.345189e-11
4.338298e-05
-8.206507e-06
-7.95857e-06
-8.205941e-06
-9.438371e-06
-0.002383156
0.00236822
7.193666e-11
5.32198e-05
-9.704679e-06
-9.437332e-06
-9.704043e-06
-1.103834e-05
-0.002351644
0.002332899
1.079493e-10
6.350712e-05
-1.134542e-05
-1.103328e-05
-1.134534e-05
-1.286956e-05
-0.002312483
0.002289501
1.570825e-10
7.51986e-05
-1.3253e-05
-1.285204e-05
-1.324159e-05
-1.518832e-05
-0.002264687
0.002238164
2.269575e-10
8.806925e-05
-1.566377e-05
-1.511856e-05
-1.557657e-05
-1.873467e-05
-0.002208836
0.002178931
3.898891e-10
0.0001062375
-1.967385e-05
-1.856696e-05
-1.935655e-05
-2.406942e-05
-0.002151656
0.002121166
4.149472e-10
0.00012899
-2.52001e-05
-2.42073e-05
-2.502347e-05
-3.512095e-05
-0.002091601
0.002070793
4.725658e-10
0.0001598445
-3.4529e-05
-3.430675e-05
-3.508083e-05
-2.586353e-05
-0.002038564
0.001991462
4.30544e-10
0.0001484569
-2.420098e-05
-2.674107e-05
-2.454983e-05
-2.449211e-05
-0.001938351
0.001887479
8.202261e-10
0.0001496924
-2.617372e-05
-2.345696e-05
-2.46985e-05
-2.345736e-05
-0.001831285
0.001768152
1.021841e-09
0.0001536453
-2.241746e-05
-2.276512e-05
-2.187314e-05
-1.731007e-05
-0.001700756
0.001629316
7.088896e-10
0.0001394862
-1.62258e-05
-1.773276e-05
-1.677866e-05
-9.789635e-06
-0.001555506
0.001481206
6.525458e-10
0.0001129184
-8.878104e-06
-1.044955e-05
-9.501015e-06
-5.439332e-06
-0.001409667
0.00134412
6.282513e-10
8.765731e-05
-5.285968e-06
-5.79064e-06
-5.595655e-06
-5.132155e-06
-0.00128706
0.001238681
-1.303039e-10
6.959766e-05
-5.304443e-06
-5.316263e-06
-5.466484e-06
-5.340697e-06
-0.001198118
0.001163749
-8.187612e-10
5.580882e-05
-5.335825e-06
-5.391197e-06
-5.371335e-06
-4.660914e-06
-0.001134203
0.001108701
-1.070929e-09
4.390507e-05
-4.539783e-06
-4.663706e-06
-4.53809e-06
-3.647408e-06
-0.001086402
0.00106743
-1.052456e-09
3.323819e-05
-3.492135e-06
-3.641275e-06
-3.484756e-06
-2.530883e-06
-0.001051226
0.001038032
-9.250947e-10
2.300219e-05
-2.379386e-06
-2.524885e-06
-2.372527e-06
-1.596016e-06
-0.001027121
0.001018534
-7.272916e-10
1.477444e-05
-1.500913e-06
-1.592427e-06
-1.497173e-06
-1.051144e-06
-0.001011577
0.001006113
-5.70961e-10
9.56865e-06
-1.003746e-06
-1.048619e-06
-1.00131e-06
-8.169207e-07
-0.001001539
0.0009977628
-4.12621e-10
7.025081e-06
-8.088341e-07
-8.152148e-07
-8.072316e-07
-8.122793e-07
-0.000994277
0.0009911925
-2.722541e-10
6.357612e-06
-8.254262e-07
-8.109475e-07
-8.241865e-07
-9.144899e-07
-0.000988151
0.0009853396
-1.634388e-10
6.509478e-06
-9.359478e-07
-9.129305e-07
-9.345895e-07
-1.053603e-06
-0.0009825543
0.0009798533
-8.553466e-11
6.963546e-06
-1.07978e-06
-1.050857e-06
-1.078253e-06
-1.256585e-06
-0.0009771032
0.0009743339
-3.553772e-11
7.843984e-06
-1.28271e-06
-1.254224e-06
-1.281069e-06
-1.520151e-06
-0.0009714478
0.0009684659
-2.516251e-11
9.129206e-06
-1.557282e-06
-1.517805e-06
-1.551995e-06
-1.875569e-06
-0.0009653474
0.000961694
1.680631e-11
1.125921e-05
-1.942542e-06
-1.864247e-06
-1.923473e-06
-2.609807e-06
-0.0009572752
0.0009522373
-3.786541e-11
1.564005e-05
-2.74899e-06
-2.553581e-06
-2.68972e-06
-3.887762e-06
-0.0009462733
0.0009393105
-3.928037e-11
2.27358e-05
-4.192727e-06
-3.654761e-06
-4.037675e-06
-6.91773e-06
-0.0009313268
0.0009247747
-9.519152e-11
3.439342e-05
-7.469952e-06
-6.23898e-06
-7.214533e-06
-1.685796e-05
-0.0009190911
0.000921702
-5.465644e-10
6.909991e-05
-1.963148e-05
-1.587453e-05
-1.934632e-05
-1.566302e-05
-0.0009232756
0.0009191539
-8.614792e-10
6.345262e-05
-1.230491e-05
-1.703714e-05
-1.4325e-05
-5.351958e-06
-0.0009032414
0.0008788234
-1.031704e-09
4.427876e-05
-4.293156e-06
-5.859585e-06
-4.354993e-06
-6.86079e-07
0.0008186196
-6.440573e-10
3.2845e-05
-0.0008494922
-3.406514e-07
-6.344969e-07
-3.105104e-07
1.355473e-06
-0.0007865547
0.0007546681
-2.54439e-10
2.663541e-05
1.278299e-06
1.348814e-06
1.268879e-06
-1.640454e-07
-0.0007242519
0.0006967009
1.579957e-09
2.892159e-05
-5.12937e-07
-1.74608e-07
-5.205611e-07
-1.836813e-06
-0.0006717621
0.0006495069
3.11803e-09
2.997671e-05
-2.022996e-06
-1.839673e-06
-2.025054e-06
-2.509325e-06
-0.0006290972
0.0006100052
2.724217e-09
2.93519e-05
-2.6221e-06
-2.509331e-06
-2.621842e-06
-2.930797e-06
-0.0005915733
0.0005739357
7.84924e-10
2.934234e-05
-2.922735e-06
-2.930108e-06
-2.921895e-06
-2.231372e-06
-0.0005578892
0.0005443153
-9.392001e-10
2.212653e-05
-2.045128e-06
-2.230825e-06
-2.04439e-06
-8.511232e-07
-0.0005338838
0.0005266636
-1.673756e-09
1.033959e-05
-7.079889e-07
-8.50874e-07
-7.077273e-07
-5.322348e-10
-0.0005222595
0.0005196294
-1.619421e-09
2.546395e-06
4.305832e-08
-3.80716e-10
4.319751e-08
1.020102e-07
-0.0005181832
0.0005170511
-1.20259e-09
7.903978e-07
6.938471e-08
1.020896e-07
6.943925e-08
-2.757303e-07
-0.0005157724
0.0005142163
-7.503029e-10
2.785427e-06
-3.386866e-07
-2.755972e-07
-3.385579e-07
-7.101674e-07
-0.0005120652
0.000509444
-4.241442e-10
5.548652e-06
-7.535944e-07
-7.098929e-07
-7.533496e-07
-1.012256e-06
-0.0005063242
0.0005026782
-2.306043e-10
7.752434e-06
-1.041176e-06
-1.011909e-06
-1.040883e-06
-1.233166e-06
-0.0004985916
0.0004939591
-1.303146e-10
9.607752e-06
-1.254699e-06
-1.232823e-06
-1.254397e-06
-1.389151e-06
-0.0004889967
0.000483581
-8.182155e-11
1.100294e-05
-1.404739e-06
-1.388799e-06
-1.404414e-06
-1.518344e-06
-0.0004779146
0.0004718124
-5.982401e-11
1.220457e-05
-1.533162e-06
-1.517951e-06
-1.532795e-06
-1.645639e-06
-0.0004654401
0.0004586323
-5.00746e-11
1.341614e-05
-1.658855e-06
-1.645247e-06
-1.658509e-06
-1.752548e-06
-0.0004515654
0.0004441432
-4.58605e-11
1.445056e-05
-1.761865e-06
-1.752244e-06
-1.761589e-06
-1.828628e-06
-0.0004365228
0.0004286396
-4.348864e-11
1.520841e-05
-1.834263e-06
-1.828356e-06
-1.833989e-06
-1.878834e-06
-0.0004206116
0.0004123919
-4.115906e-11
1.573945e-05
-1.881334e-06
-1.878523e-06
-1.881027e-06
-1.902954e-06
-0.0004040691
0.0003956338
-3.806917e-11
1.604406e-05
-1.901713e-06
-1.902642e-06
-1.9014e-06
-1.895709e-06
-0.0003871492
0.0003786489
-3.419774e-11
1.607162e-05
-1.890272e-06
-1.895388e-06
-1.889963e-06
-1.856447e-06
-0.0003701599
0.0003617624
-2.945915e-11
1.580171e-05
-1.84601e-06
-1.856052e-06
-1.845664e-06
-1.783487e-06
-0.0003534544
0.0003453634
-2.420468e-11
1.5202e-05
-1.77284e-06
-1.782527e-06
-1.77212e-06
-1.598867e-06
-0.0003373302
0.0003288595
-1.844474e-11
1.449804e-05
-1.41692e-06
-1.595537e-06
-1.416009e-06
-1.558097e-06
-7.867183e-05
7.741464e-05
1.882621e-10
2.815106e-06
-1.643059e-06
-7.41532e-05
7.320681e-05
-1.436302e-10
2.589586e-06
-1.555713e-06
-7.060214e-05
6.978811e-05
-7.991997e-11
2.369827e-06
-1.389272e-06
-6.745086e-05
6.671284e-05
-9.370516e-11
2.127393e-06
-1.209228e-06
-6.46162e-05
6.396487e-05
-9.200788e-11
1.860649e-06
-1.027658e-06
-6.214212e-05
6.158679e-05
-8.765667e-11
1.583076e-06
-8.55677e-07
-6.006087e-05
5.960671e-05
-7.492325e-11
1.309916e-06
-6.966523e-07
-5.838556e-05
5.803307e-05
-5.773164e-11
1.049199e-06
-5.498893e-07
-5.71141e-05
5.686148e-05
-3.609976e-11
8.025469e-07
-4.141806e-07
-5.623753e-05
5.608182e-05
-1.579462e-11
5.699012e-07
-2.898525e-07
-5.574263e-05
5.56805e-05
-1.268863e-11
3.519937e-07
-1.806427e-07
-5.561712e-05
5.564594e-05
1.578088e-11
1.518008e-07
-8.155872e-08
-5.584679e-05
5.596003e-05
3.876903e-11
-3.172135e-08
1.000119e-08
-5.641213e-05
5.660519e-05
4.428994e-11
-2.031071e-07
9.341943e-08
-5.728557e-05
5.755225e-05
7.02435e-11
-3.601709e-07
1.630443e-07
-5.845086e-05
5.878742e-05
8.714653e-11
-4.996925e-07
2.224648e-07
-5.988929e-05
6.029074e-05
1.01747e-10
-6.240187e-07
2.710257e-07
-6.15811e-05
6.204327e-05
1.16168e-10
-7.333132e-07
3.113462e-07
-6.351e-05
6.402822e-05
1.294915e-10
-8.297045e-07
3.441224e-07
-6.565651e-05
6.622625e-05
1.438461e-10
-9.140062e-07
3.691872e-07
-6.800305e-05
6.862e-05
1.566943e-10
-9.862943e-07
3.869554e-07
-7.053253e-05
7.119249e-05
1.671786e-10
-1.047079e-06
3.97955e-07
-7.322828e-05
7.392715e-05
1.772478e-10
-1.096999e-06
4.027158e-07
-7.607416e-05
7.680797e-05
1.871531e-10
-1.136707e-06
4.012923e-07
-7.90544e-05
7.981958e-05
2.049259e-10
-1.166679e-06
3.94548e-07
-8.215392e-05
8.294624e-05
2.285543e-10
-1.187089e-06
3.836501e-07
-8.535574e-05
8.617052e-05
2.248019e-10
-1.19866e-06
3.645709e-07
-8.864268e-05
8.947638e-05
1.934738e-10
-1.198461e-06
3.402502e-07
-9.200141e-05
9.2851e-05
2.377871e-10
-1.19008e-06
3.145081e-07
-9.541793e-05
9.627972e-05
2.339716e-10
-1.176532e-06
2.860568e-07
-9.888035e-05
9.975205e-05
2.386192e-10
-1.157993e-06
2.55978e-07
-0.0001023799
0.00010326
2.420972e-10
-1.136381e-06
2.257808e-07
-0.0001059137
0.0001068032
2.463534e-10
-1.115514e-06
2.018715e-07
-0.0001094909
0.0001103959
2.515243e-10
-1.107162e-06
2.191567e-07
-0.0001131598
0.0001141054
2.637347e-10
-1.165031e-06
6.465699e-07
-0.0001170145
0.0001178717
2.539798e-10
-1.504035e-06
1.179635e-06
-0.0001200934
0.0001208696
2.415987e-10
-1.95605e-06
1.18282e-06
-0.000123256
0.0001240552
2.425375e-10
-1.982271e-06
1.228978e-06
-0.0001264462
0.0001272421
2.348186e-10
-2.025141e-06
1.255259e-06
-0.000129624
0.0001304149
2.272444e-10
-2.046386e-06
1.278178e-06
-0.0001327746
0.000133556
2.16928e-10
-2.059732e-06
1.297528e-06
-0.0001358829
0.0001366521
2.108927e-10
-2.066947e-06
1.31422e-06
-0.0001389403
0.0001396957
2.059089e-10
-2.069859e-06
1.329504e-06
-0.000141941
0.0001426817
1.971436e-10
-2.070409e-06
1.34379e-06
-0.0001448823
0.000145608
1.873367e-10
-2.069696e-06
1.35765e-06
-0.0001477638
0.0001484749
1.805558e-10
-2.068901e-06
1.371551e-06
-0.0001505877
0.0001512849
1.744817e-10
-2.06889e-06
1.38567e-06
-0.0001533576
0.0001540419
1.698486e-10
-2.070206e-06
1.399947e-06
-0.0001560777
0.0001567503
1.663753e-10
-2.072753e-06
1.413938e-06
-0.000158752
0.0001594137
1.599752e-10
-2.075761e-06
1.427047e-06
-0.0001613829
0.0001620339
1.562662e-10
-2.07813e-06
1.438663e-06
-0.0001639705
0.0001646103
1.537996e-10
-2.078657e-06
1.448259e-06
-0.0001665124
0.0001671403
1.489344e-10
-2.076309e-06
1.455737e-06
-0.0001690049
0.0001696197
1.444558e-10
-2.070686e-06
1.461222e-06
-0.0001714435
0.0001720442
1.424254e-10
-2.062059e-06
1.465026e-06
-0.0001738245
0.0001744105
1.381367e-10
-2.051143e-06
1.467667e-06
-0.000176146
0.000176717
1.325526e-10
-2.038781e-06
1.469497e-06
-0.0001784073
0.0001789634
1.310026e-10
-2.02568e-06
1.470803e-06
-0.0001806091
0.0001811505
1.307488e-10
-2.012372e-06
1.471792e-06
-0.0001827527
0.0001832799
1.256717e-10
-1.999171e-06
1.472413e-06
-0.0001848399
0.0001853535
1.177345e-10
-1.986104e-06
1.472648e-06
-0.0001868728
0.0001873732
1.122759e-10
-1.973113e-06
1.472433e-06
-0.0001888532
0.0001893407
1.097753e-10
-1.960022e-06
1.471592e-06
-0.0001907823
0.0001912572
1.07225e-10
-1.946593e-06
1.469978e-06
-0.000192661
0.0001931234
1.054883e-10
-1.932537e-06
1.467416e-06
-0.0001944897
0.0001949397
1.014856e-10
-1.917581e-06
1.464342e-06
-0.0001962684
0.0001967061
1.013452e-10
-1.902179e-06
1.466662e-06
-0.0001979962
0.0001984197
1.089878e-10
-1.890273e-06
1.447025e-06
-0.0001996359
0.0002000608
3.067672e-10
-1.872175e-06
1.487013e-06
-0.0002013329
0.0002017197
2.723244e-10
-1.874104e-06
1.68701e-06
-0.000201594
0.0008239829
-2.002246e-11
-8.555861e-06
2.899644e-07
1.687177e-06
2.796287e-07
-0.0002015961
-0.0002080898
-0.0002080909
9.298835e-07
-0.0008300059
0.0008338516
-8.623279e-12
-8.196339e-06
1.257973e-06
9.165677e-07
1.246279e-06
1.124999e-06
-0.0008372304
0.0008404576
-2.566425e-12
-7.873722e-06
1.208664e-06
1.114269e-06
1.198554e-06
1.172719e-06
-0.000843759
0.0008468996
-3.21745e-13
-7.91749e-06
1.224991e-06
1.16331e-06
1.215852e-06
1.208012e-06
-0.0008499607
0.0008528461
5.852267e-13
-7.766878e-06
1.241381e-06
1.199243e-06
1.232838e-06
1.221673e-06
-0.0008556685
0.0008583765
1.084839e-12
-7.611084e-06
1.238162e-06
1.213177e-06
1.230088e-06
1.220737e-06
-0.0008610478
0.0008636118
1.311216e-12
-7.45866e-06
1.234047e-06
1.213189e-06
1.226746e-06
1.223818e-06
-0.0008661327
0.0008685409
1.555175e-12
-7.303103e-06
1.229974e-06
1.217459e-06
1.223674e-06
1.221994e-06
-0.0008709031
0.0008731605
1.870128e-12
-7.139674e-06
1.22511e-06
1.216018e-06
1.219151e-06
1.215562e-06
-0.000875369
0.0008774748
2.050858e-12
-6.960891e-06
1.217335e-06
1.210187e-06
1.212027e-06
1.205744e-06
-0.0008795277
0.0008814817
1.818928e-12
-6.768919e-06
1.206494e-06
1.200866e-06
1.201805e-06
1.192623e-06
-0.0008833823
0.0008851858
1.741875e-12
-6.565054e-06
1.192343e-06
1.188359e-06
1.18815e-06
1.17466e-06
-0.0008869398
0.0008886028
1.606258e-12
-6.351243e-06
1.173273e-06
1.170832e-06
1.169537e-06
1.154845e-06
-0.0008902183
0.0008917459
1.974958e-12
-6.137334e-06
1.153386e-06
1.151461e-06
1.150053e-06
1.135995e-06
-0.0008932261
0.0008946208
1.764701e-12
-5.929924e-06
1.134641e-06
1.132952e-06
1.13166e-06
1.118292e-06
-0.0008959685
0.0008972334
1.65343e-12
-5.729872e-06
1.116908e-06
1.115575e-06
1.114239e-06
1.101554e-06
-0.0008984519
0.0008995901
1.763029e-12
-5.537005e-06
1.100301e-06
1.099103e-06
1.097887e-06
1.086115e-06
-0.0009006825
0.000901698
1.534944e-12
-5.353262e-06
1.084965e-06
1.083892e-06
1.082773e-06
1.071382e-06
-0.0009026697
0.0009035683
1.526006e-12
-5.17787e-06
1.07021e-06
1.069394e-06
1.068259e-06
1.05736e-06
-0.0009044249
0.0009052119
2.42368e-12
-5.010739e-06
1.056282e-06
1.055574e-06
1.05453e-06
1.043935e-06
-0.0009059589
0.0009066412
2.151538e-12
-4.852828e-06
1.042913e-06
1.042327e-06
1.04131e-06
1.031517e-06
-0.0009072851
0.0009078678
-7.782062e-13
-4.704429e-06
1.030781e-06
1.030059e-06
1.029419e-06
1.019815e-06
-0.0009084144
0.0009089038
-6.078517e-12
-4.564068e-06
1.018822e-06
1.018527e-06
1.017577e-06
1.008975e-06
-0.0009093607
0.0009097642
1.040662e-11
-4.435924e-06
1.008358e-06
1.007848e-06
1.007205e-06
1.000318e-06
-0.0009101358
0.0009104573
1.570162e-11
-4.319021e-06
9.997712e-07
9.990873e-07
9.983168e-07
9.907933e-07
-0.0009107512
0.0009109997
-1.318763e-13
-4.209909e-06
9.906925e-07
9.899468e-07
9.899324e-07
9.844145e-07
-0.0009112207
0.0009113981
6.603189e-11
-4.110709e-06
9.828275e-07
9.836514e-07
9.823486e-07
9.778629e-07
-0.0009115518
0.000911665
-1.095893e-10
-4.022782e-06
9.771959e-07
9.780919e-07
9.7646e-07
9.736329e-07
-0.0009117568
0.0009118118
5.293221e-11
-3.942297e-06
9.723925e-07
9.723251e-07
9.689074e-07
9.563344e-07
-0.0009118402
0.0009118703
3.14164e-11
-3.864517e-06
9.638419e-07
9.617245e-07
9.525094e-07
9.706462e-07
-0.0009118502
0.0009118008
-2.343285e-10
-3.807916e-06
9.58633e-07
9.713534e-07
9.569333e-07
9.621334e-07
-0.0009117348
0.0009116373
-2.711954e-11
-3.74568e-06
9.597422e-07
9.625097e-07
9.588265e-07
9.579555e-07
-0.0009115283
0.0009113937
1.989236e-12
-3.69694e-06
9.582245e-07
9.576446e-07
9.576864e-07
9.56128e-07
-0.0009112462
0.0009110761
-2.234084e-13
-3.65481e-06
9.567819e-07
9.556651e-07
9.563108e-07
9.552021e-07
-0.0009108942
0.0009106913
-8.00993e-12
-3.618519e-06
9.559525e-07
9.547069e-07
9.555089e-07
9.552317e-07
-0.0009104772
0.0009102434
-9.008477e-12
-3.587792e-06
9.559617e-07
9.548413e-07
9.555422e-07
9.555039e-07
-0.0009099999
0.0009097385
-6.458406e-12
-3.560954e-06
9.561245e-07
9.550849e-07
9.557006e-07
9.555581e-07
-0.000909469
0.0009091828
-1.013023e-11
-3.536111e-06
9.559336e-07
9.552079e-07
9.556087e-07
9.552454e-07
-0.0009088899
0.0009085811
-5.436635e-12
-3.511566e-06
9.552708e-07
9.548987e-07
9.550056e-07
9.541224e-07
-0.000908267
0.0009079367
5.67755e-12
-3.485692e-06
9.541079e-07
9.538822e-07
9.539034e-07
9.520888e-07
-0.0009076021
0.0009072505
2.137527e-11
-3.456415e-06
9.521862e-07
9.518106e-07
9.518843e-07
9.483995e-07
-0.0009068953
0.0009065204
1.641862e-11
-3.41876e-06
9.487285e-07
9.481114e-07
9.484006e-07
9.417003e-07
-0.0009061396
0.0009057349
3.454022e-12
-3.362531e-06
9.421819e-07
9.414254e-07
9.419326e-07
9.253747e-07
-0.0009053202
0.0009048863
8.706047e-12
-3.264635e-06
9.240745e-07
9.251734e-07
9.238788e-07
8.941426e-07
-0.0009044322
0.0009039238
1.885713e-11
-3.05449e-06
8.8739e-07
8.940587e-07
8.872293e-07
7.586168e-07
-0.0009034979
0.0009032743
9.808861e-12
-2.702305e-06
7.043262e-07
7.584377e-07
7.045043e-07
6.255408e-07
-0.0009030842
0.0009028773
-8.319935e-12
-2.280378e-06
6.182912e-07
6.253176e-07
6.182094e-07
6.177618e-07
-0.0009026374
0.0009023695
-3.578023e-12
-2.207773e-06
6.201962e-07
6.176511e-07
6.200239e-07
6.110491e-07
-0.0009021145
0.0009018535
1.613961e-11
-2.180962e-06
6.101162e-07
6.108512e-07
6.099567e-07
6.051639e-07
-0.0009016028
0.0009013285
2.444743e-11
-2.152572e-06
6.084146e-07
6.049839e-07
6.083148e-07
6.024945e-07
-0.0009010705
0.000900782
9.431219e-12
-2.124306e-06
6.041212e-07
6.022591e-07
6.039906e-07
5.946878e-07
-0.0009005251
0.000900195
5.102575e-12
-2.048938e-06
5.95096e-07
5.944164e-07
5.948467e-07
5.618466e-07
-0.0008999215
0.0008997602
2.21109e-11
-2.06222e-06
5.503823e-07
5.614038e-07
5.498708e-07
3.6837e-07
-0.0009000958
0.0009008995
1.875215e-11
-2.464553e-06
4.622224e-07
3.673061e-07
4.628826e-07
7.097166e-07
-0.0009011249
0.0008997151
-2.944386e-11
-1.1931e-06
5.873544e-07
7.143184e-07
5.915488e-07
5.700287e-07
-0.0008989616
0.000898777
-1.99722e-11
-1.968015e-06
4.997062e-07
5.768622e-07
5.060725e-07
5.517026e-07
-0.0008985149
0.0008983136
-1.118788e-11
-1.939441e-06
5.13179e-07
5.57415e-07
5.184334e-07
5.278439e-07
-0.0008981125
0.0008980561
-1.148634e-11
-2.012107e-06
5.018065e-07
5.325689e-07
5.062562e-07
5.306032e-07
-0.0008980155
0.0008980272
-4.4978e-12
-2.119154e-06
5.191811e-07
5.346289e-07
5.23013e-07
5.499116e-07
-0.0008980283
0.0008980514
9.658749e-12
-2.222727e-06
5.461949e-07
5.53793e-07
5.497144e-07
5.696076e-07
-0.0008980715
0.0008981167
9.358306e-12
-2.326514e-06
5.679844e-07
5.727454e-07
5.709968e-07
5.876344e-07
-0.0008981631
0.0008982293
-2.736718e-12
-2.423068e-06
5.881339e-07
5.9038e-07
5.907751e-07
6.054241e-07
-0.0008982942
0.0008983767
-4.874648e-12
-2.511947e-06
6.070166e-07
6.077942e-07
6.092934e-07
6.221465e-07
-0.0008984602
0.0008985623
4.895717e-12
-2.599177e-06
6.243393e-07
6.242356e-07
6.263578e-07
6.377505e-07
-0.0008986677
0.000898792
6.490073e-12
-2.683192e-06
6.398238e-07
6.396388e-07
6.416363e-07
6.528586e-07
-0.0008989194
0.0008990639
-3.158937e-12
-2.764618e-06
6.55616e-07
6.544963e-07
6.571769e-07
6.680415e-07
-0.0008992117
0.0008993751
-2.622591e-12
-2.843015e-06
6.705145e-07
6.693524e-07
6.717843e-07
6.816309e-07
-0.000899542
0.0008997234
5.493894e-12
-2.914746e-06
6.838901e-07
6.828038e-07