/*--------------------------------*- C++ -*----------------------------------*\
| =========                 |                                                 |
| \\      /  F ield         | foam-extend: Open Source CFD                    |
|  \\    /   O peration     | Version:     3.1                                |
|   \\  /    A nd           | Web:         http://www.extend-project.de       |
|    \\/     M anipulation  |                                                 |
\*---------------------------------------------------------------------------*/
FoamFile
{
    version     2.0;
    format      ascii;
    class       volScalarField;
    location    "18";
    object      alpha1;
}
// * * * * * * * * * * * * * * * * * * * * * * * * * * * * * * * * * * * * * //

dimensions      [0 0 0 0 0 0 0];

internalField   nonuniform List<scalar> 
119952
(
1
1
1
1
1
1
1
1
1
1
1
1
1
1
1
1
1
1
1
1
1
1
1
1
1
1
1
1
1
1
1
1
1
1
1
1
1
1
1
1
1
1
1
1
1
1
1
1
1
1
1
1
1
1
1
1
0.9999999
1
1
1
1
0.9999999
1
1
1
1
1
0.9999999
1
1
1
1
1
1
1
0.9999999
1
1
1
1
1
1
1
1
1
1
1
1
1
1
0.9999999
1
1
1
1
1
1
1
1
1
1
1
1
1
1
1
0.9999999
1
1
1
1
1
1
1
1
0.9999999
1
1
1
1
1
1
1
1
1
0.9999999
0.9999999
1
1
0.9999999
1
1
1
1
1
1
1
1
1
1
1
0.9999999
1
1
1
1
1
1
0.9999999
1
1
1
1
0.9999999
0.9999999
1
1
1
0.9999999
1
1
1
1
1
1
1
0.9999999
0.9999999
1
1
1
1
1
1
1
1
1
1
1
1
1
1
1
1
1
1
1
1
1
1
1
1
1
1
1
1
1
1
1
1
1
1
0.9999999
1
0.9999999
1
0.9999999
1
1
1
0.9999999
1
1
1
0.9999998
0.9999999
1
1
1
1
1
0.9999998
1
1
1
1
0.9999998
0.9999999
1
1
1
1
0.9999998
1
1
1
1
1
1
1
1
1
1
1
1
0.9999999
0.9999999
1
0.9999998
1
0.9999998
0.9999999
1
0.9999998
0.9999998
1
1
1
1
0.9999999
1
0.9999999
1
0.9999999
1
1
0.9999999
1
1
1
1
0.9999999
1
1
1
1
0.9999999
1
1
1
1
1
1
1
1
1
1
1
1
1
1
1
1
1
1
1
1
1
1
1
1
1
1
1
1
1
1
1
1
1
1
1
1
1
1
1
1
1
1
1
1
1
1
1
1
1
1
1
1
1
1
1
1
1
1
1
1
1
1
1
1
1
1
1
1
1
1
1
1
1
1
1
1
1
1
1
1
1
1
1
1
1
1
0.9999996
0.9999994
0.9999999
0.999998
0.9999984
1
0.9999999
0.9999925
0.9999988
0.9999999
0.9999906
0.9999913
0.9999999
1
0.9999984
0.9999657
0.999995
1
0.9999999
0.9999815
0.999975
0.999999
1
1
0.999988
0.9999948
1
1
1
1
1
1
1
1
1
0.9999998
0.9999785
0.9970984
0.9976353
0.9998598
0.9997362
0.9998582
0.9999964
1
1
1
1
1
1
1
1
1
1
1
1
1
1
1
1
0.9999999
1
1
1
1
1
1
1
1
1
1
1
1
1
1
1
1
1
1
1
1
1
1
1
1
1
1
1
1
1
0.9999999
1
1
1
1
1
1
1
1
1
1
1
1
1
1
1
1
1
1
1
1
1
1
1
1
1
1
1
1
1
1
1
1
1
1
1
1
1
1
1
1
1
1
1
1
1
1
1
1
1
1
1
1
1
1
1
1
1
1
1
1
1
1
1
1
1
1
1
1
1
1
1
1
1
1
1
1
1
1
1
1
1
1
1
1
1
1
1
1
1
1
1
1
1
1
1
1
1
1
1
1
1
1
1
1
1
1
1
1
1
1
1
1
1
1
1
1
1
1
1
1
1
1
1
1
1
1
1
1
1
1
0.9999999
1
1
1
1
1
1
1
1
1
1
1
1
1
1
1
1
1
1
1
1
1
1
1
1
1
1
1
1
1
1
1
1
0.9999999
1
1
0.9999999
0.9999999
1
1
1
1
1
0.9999998
0.9999999
1
1
1
1
1
0.9999998
0.9999999
1
1
1
1
1
1
1
1
1
1
1
1
1
1
1
1
0.9999999
0.9999999
1
1
1
1
1
1
1
0.9999999
0.9999998
1
0.9999998
0.9999999
1
1
0.9999999
1
1
1
1
1
0.9999999
0.9999999
1
1
1
1
1
1
0.9999999
0.9999999
0.9999999
1
1
1
1
1
1
1
1
1
1
1
1
1
1
1
1
1
1
1
1
1
1
1
1
1
1
1
1
1
1
1
1
1
1
1
1
1
1
1
1
1
1
1
1
1
1
1
1
1
1
1
1
1
1
1
1
1
1
1
1
1
1
1
1
1
1
1
1
1
1
1
1
1
1
1
1
1
1
1
1
1
1
1
1
1
1
1
1
1
1
1
0.9999998
0.9999978
0.9999962
0.9999966
0.9999987
0.9999998
1
1
1
0.9999999
0.9999999
0.9999999
0.9999999
1
0.9999998
0.9999985
0.9999919
0.9999897
0.9999956
0.9999994
1
1
1
1
1
1
1
1
1
1
1
1
1
1
1
0.9999998
0.9999957
0.9999667
0.9997788
0.9979
0.9922858
0.9920269
0.9920839
0.996192
1
1
1
1
1
1
1
1
1
1
1
1
1
1
1
1
1
1
1
1
1
1
1
1
1
1
1
1
1
1
1
1
1
1
1
1
1
1
1
1
1
1
1
1
1
1
1
1
1
1
1
1
1
1
1
1
1
1
1
1
1
1
1
1
1
1
1
1
1
1
1
1
1
1
1
1
1
1
1
1
1
1
1
1
1
1
1
1
1
1
1
1
1
1
1
1
1
1
1
1
1
1
1
1
1
1
1
1
1
1
1
1
1
1
1
1
1
1
1
1
1
1
1
1
1
1
1
1
1
1
1
1
1
1
1
1
1
1
1
1
1
1
1
1
1
1
1
1
1
1
1
1
1
1
1
1
1
1
1
1
1
1
1
1
1
1
1
1
1
1
1
1
1
1
1
1
1
1
1
1
1
1
1
1
1
1
1
1
1
1
1
1
1
1
1
1
1
1
1
1
1
1
1
1
1
1
1
1
1
1
1
1
1
1
1
0.9999999
1
1
1
1
1
1
1
1
1
1
1
1
1
1
1
1
1
1
1
1
1
1
1
1
1
1
1
1
1
1
1
1
1
1
1
1
0.9999999
0.9999999
1
1
1
1
1
1
0.9999999
0.9999999
0.9999999
1
1
1
1
1
1
1
1
1
1
1
1
1
1
1
1
1
1
1
1
1
1
1
1
1
1
1
1
1
1
0.9999999
1
1
1
1
1
1
1
1
1
1
1
1
0.9999999
1
1
1
1
1
1
1
0.9999999
0.9999999
1
1
1
1
1
1
1
1
1
1
1
1
1
1
1
1
1
1
1
1
1
1
1
1
1
1
1
1
1
1
1
1
1
1
1
1
1
1
1
1
1
1
1
1
1
1
1
1
1
1
1
1
1
1
1
1
1
1
1
1
1
1
1
1
1
1
1
1
1
1
1
1
1
1
1
1
1
1
1
1
1
1
1
1
1
1
1
1
1
1
1
1
1
0.9999999
0.9999997
0.999999
0.9999988
0.9999992
0.9999998
1
1
1
0.9999997
0.9999997
0.9999997
0.9999999
1
1
1
1
1
1
0.9999999
0.9999999
0.9999999
0.9999999
0.9999999
1
1
1
1
1
1
1
1
1
0.9999999
0.9999995
0.9999974
0.999991
0.9999713
0.9998699
0.9990163
0.9934314
0.9906465
1
1
1
1
1
1
1
1
1
1
1
1
1
1
1
1
1
1
1
1
1
1
1
1
1
1
1
1
1
1
1
1
1
1
1
1
1
1
1
1
1
1
1
1
1
1
1
1
1
1
1
1
1
1
1
1
1
1
1
1
1
1
1
1
1
1
1
1
1
1
1
1
1
1
1
1
1
1
1
1
1
1
1
1
1
1
1
1
1
1
1
1
1
1
1
1
1
1
1
1
1
1
1
1
1
1
1
1
1
1
1
1
1
1
1
1
1
1
1
1
1
1
1
1
1
1
1
1
1
1
1
1
1
1
1
1
1
1
1
1
1
1
1
1
1
1
1
1
1
1
1
1
1
1
1
1
1
1
1
1
1
1
1
1
1
1
1
1
1
1
1
1
1
1
1
1
1
1
1
1
1
1
1
1
1
1
1
1
1
1
1
1
1
1
1
1
1
1
1
1
1
1
1
1
1
1
1
1
1
1
1
1
1
1
1
1
1
1
1
1
1
1
1
1
1
1
1
1
1
1
1
1
1
1
1
1
1
1
1
1
1
1
1
1
1
1
1
1
1
1
1
1
1
1
1
1
1
1
1
1
1
1
1
1
1
1
1
1
1
1
1
1
1
1
1
1
1
1
1
1
1
1
1
1
1
1
1
1
1
1
1
1
1
1
1
1
1
1
1
1
1
1
1
1
1
1
1
1
1
1
1
1
1
1
1
1
1
1
1
1
1
1
1
1
1
1
1
1
1
1
1
1
1
1
1
1
1
1
1
1
1
1
1
1
1
1
1
0.9999999
0.9999994
0.9999984
0.9999981
0.9999985
0.9999995
1
1
1
1
1
1
1
1
1
1
1
1
1
1
1
1
1
1
1
1
1
1
1
1
1
1
1
1
1
1
1
1
1
1
1
1
1
1
1
1
1
1
1
1
1
1
1
1
1
1
1
1
1
1
1
1
1
1
1
1
1
1
1
1
1
1
1
1
1
1
1
1
1
1
0.9999998
0.9999998
0.9999998
0.9999999
1
1
1
1
1
1
1
1
1
0.9999997
0.9999972
0.999993
0.9999935
0.9999961
0.9999988
0.9999999
1
1
1
1
1
1
1
1
1
0.9999999
0.9999997
0.999999
0.999996
0.9999843
0.9999017
0.9973199
1
1
1
1
1
1
1
1
1
1
1
1
1
1
1
1
1
1
1
1
1
1
1
1
1
1
1
1
1
1
1
1
1
1
1
1
1
1
1
1
1
1
1
1
1
1
1
1
1
1
1
1
1
1
1
1
1
1
1
1
1
1
1
1
1
1
1
1
1
1
1
1
1
1
1
1
1
1
1
1
1
1
1
1
1
1
1
1
1
1
1
1
1
1
1
1
1
1
1
1
1
1
1
1
1
1
1
1
1
1
1
1
1
1
1
1
1
1
1
1
1
1
1
1
1
1
1
1
1
1
1
1
1
1
1
1
1
1
1
1
1
1
1
1
1
1
1
1
1
1
1
1
1
1
1
1
1
1
1
1
1
1
1
1
1
1
1
1
1
1
1
1
1
1
1
1
1
1
1
1
1
1
1
1
1
1
1
1
1
1
1
1
1
1
1
1
1
1
1
1
1
1
1
1
1
1
1
1
1
1
1
1
1
1
1
1
1
1
1
1
1
1
1
1
0.9999999
0.9999998
0.9999995
0.9999989
0.9999975
0.9999943
0.9999854
0.9999704
0.9999729
0.9999832
0.9999954
0.9999997
1
1
1
1
1
1
1
1
1
1
1
1
1
1
1
1
1
1
1
1
1
1
0.9999999
0.9999997
0.9999996
0.9999995
0.9999996
0.9999996
0.9999997
0.9999998
1
1
1
1
1
1
1
1
1
1
1
1
1
1
1
1
1
1
1
1
1
1
1
1
1
1
1
1
1
1
1
1
1
1
1
1
1
1
1
1
1
1
1
1
1
1
1
1
1
1
1
1
1
1
1
1
1
1
1
1
1
1
1
1
1
1
1
1
1
1
1
1
1
1
1
1
1
1
1
1
1
1
1
1
1
1
1
1
1
0.9999999
0.9999993
0.9999951
0.9999803
0.9999543
0.9999589
0.9999857
0.9999984
1
1
1
1
1
1
1
1
1
1
1
1
1
1
1
1
1
1
1
1
1
1
1
1
1
1
1
1
1
1
1
1
1
1
1
1
1
1
1
1
1
1
1
1
1
1
1
1
1
1
1
1
1
1
1
1
1
1
1
1
1
1
1
1
1
1
1
1
1
1
1
1
1
1
1
1
1
0.9999999
0.9999999
1
1
1
1
1
1
1
1
1
0.9999999
0.9999975
0.9999817
0.9999778
0.9999778
0.9999866
0.9999977
0.9999999
1
1
1
1
1
1
1
1
1
1
1
0.9999999
0.9999997
0.9999925
0.9996776
1
1
1
1
1
1
1
1
1
1
1
1
1
1
1
1
1
1
1
1
1
1
1
1
1
1
1
1
1
1
1
1
1
1
1
1
1
1
1
1
1
1
1
1
1
1
1
1
1
1
1
1
1
1
1
1
1
1
1
1
1
1
1
1
1
1
1
1
1
1
1
1
1
1
1
1
1
1
1
1
1
1
1
1
1
1
1
1
1
1
1
1
1
1
1
1
1
1
1
1
1
1
1
1
1
1
1
1
1
1
1
1
1
1
1
1
1
1
1
1
1
1
1
1
1
1
1
1
1
1
1
1
1
1
1
1
1
1
1
1
1
1
1
1
1
1
1
1
1
1
1
1
1
1
1
1
1
1
1
1
1
1
1
1
1
1
1
1
1
1
1
1
1
1
1
1
1
1
1
1
1
1
1
1
1
1
1
1
1
1
1
1
1
1
1
1
1
1
1
1
1
1
1
1
1
1
1
1
1
1
1
1
1
1
1
1
1
1
1
1
1
1
1
1
1
1
1
1
1
1
1
1
1
0.9999999
0.9999981
0.9999823
0.9998843
0.9995197
0.998855
0.998366
0.9983596
0.9985445
0.9991967
0.9998327
0.9999855
0.9999991
1
1
1
1
1
1
1
1
1
1
1
1
1
1
1
1
1
1
1
1
0.9999997
0.9999972
0.9999856
0.9999536
0.9998829
0.9997427
0.9996663
0.9997935
0.9999603
0.9999983
1
1
1
1
1
1
1
1
1
1
1
1
1
1
1
1
1
1
1
1
1
1
1
1
1
1
1
1
1
1
1
1
1
1
1
1
1
1
1
1
1
1
1
1
1
1
1
1
1
1
1
1
1
1
1
1
1
1
1
1
1
1
1
1
1
1
1
1
1
1
1
1
1
1
1
1
1
1
1
1
1
1
1
1
1
1
1
0.9999998
0.9999985
0.9999874
0.9999272
0.999694
0.999605
0.9997849
0.9999606
0.9999982
0.9999999
0.9999998
0.9999998
0.9999996
0.9999993
0.9999984
0.9999949
0.9999834
0.9999774
0.9999862
0.9999971
0.9999999
1
1
1
1
1
1
1
1
1
1
1
1
1
1
1
1
1
1
1
1
1
1
1
1
1
1
1
1
1
1
1
1
1
1
1
1
1
1
1
1
1
1
1
1
1
1
1
1
1
1
1
1
1
1
1
1
1
1
1
1
1
1
1
1
1
1
1
1
1
1
1
1
1
1
1
1
1
1
0.9999999
0.999999
0.9999891
0.9999778
0.9999848
0.9999963
0.9999997
1
1
1
1
1
1
1
1
1
1
1
1
1
0.9999998
0.9999921
1
1
1
1
1
1
1
1
1
1
1
1
1
1
1
1
1
1
1
1
1
1
1
1
1
1
1
1
1
1
1
1
1
1
1
1
1
1
1
1
1
1
1
1
1
1
1
1
1
1
1
1
1
1
1
1
1
1
1
1
1
1
1
1
1
1
1
1
1
1
1
1
1
1
1
1
1
1
1
1
1
1
1
1
1
1
1
1
1
1
1
1
1
1
1
1
1
1
1
1
1
1
1
1
1
1
1
1
1
1
1
1
1
1
1
1
1
1
1
1
1
1
1
1
1
1
1
1
1
1
1
1
1
1
1
1
1
1
1
1
0.9999999
0.9999999
0.9999999
0.9999999
0.9999999
1
1
1
0.9999999
0.9999999
0.9999997
0.9999996
0.9999995
0.9999995
0.9999996
0.9999998
0.9999999
0.9999999
0.9999998
0.9999997
0.9999995
0.9999991
0.999999
0.999999
0.9999993
0.9999997
0.9999998
0.9999998
0.9999998
0.9999996
0.9999993
0.9999989
0.9999987
0.9999988
0.999999
0.9999995
0.9999997
0.9999997
0.9999996
0.9999994
0.999999
0.9999989
0.9999989
0.999999
0.9999993
0.9999996
0.9999998
0.9999998
0.9999997
0.9999996
0.9999995
0.9999994
0.9999994
0.9999995
0.9999997
0.9999998
0.9999998
0.9999998
0.9999997
0.9999997
0.9999996
0.9999996
0.9999996
0.9999997
0.9999998
0.9999999
0.9999999
0.9999998
0.9999998
0.9999998
0.9999998
0.9999998
0.9999998
0.9999999
0.9999999
0.9999999
0.9999999
0.9999999
0.9999999
0.9999999
0.9999999
1
1
1
1
1
1
1
1
1
1
1
1
1
1
1
1
1
0.9999993
0.9999861
0.9997472
0.9965087
0.9728562
0.9293823
0.9300173
0.9576734
0.989784
0.9992242
0.9997395
0.9997081
0.9997623
0.9998991
0.9999861
0.9999996
1
0.9999999
0.9999999
1
1
1
1
1
1
1
1
1
1
1
1
1
0.9999999
0.9999973
0.9999619
0.9996511
0.9972954
0.9923707
0.9944455
0.998593
0.9998977
0.9999974
1
1
1
1
1
1
1
1
1
1
1
1
1
1
1
1
1
1
1
1
1
1
1
1
1
1
1
1
1
1
1
1
1
1
1
1
1
1
1
1
1
1
1
1
1
0.9999999
0.9999997
0.9999992
0.9999988
0.9999989
0.9999993
0.9999997
0.9999999
1
1
0.9999999
0.9999999
1
1
1
1
1
1
1
1
1
1
1
1
1
1
1
1
1
1
1
1
1
1
1
0.9999999
0.9999999
1
1
1
1
0.9999998
0.9999983
0.9999858
0.9998972
0.999375
0.9980019
0.9984602
0.9995351
0.9999518
0.9999986
0.9999994
0.999999
0.9999939
0.9999656
0.9998215
0.9991084
0.9979272
0.9983659
0.9995369
0.9999637
0.9999991
1
1
1
1
1
1
1
1
1
1
1
1
1
1
1
1
1
1
1
1
1
1
1
1
1
1
0.9999999
0.9999997
0.9999985
0.9999956
0.9999957
0.9999984
0.9999998
1
1
1
1
1
1
1
1
1
1
1
1
1
1
1
1
1
1
1
1
1
1
1
1
1
1
1
1
1
1
1
1
1
1
1
1
1
1
1
1
1
1
1
1
1
1
1
1
1
1
0.9999999
0.9999998
0.9999992
0.9999992
0.9999996
0.9999999
1
1
1
1
1
1
1
1
1
1
1
1
0.9999944
1
1
1
1
1
1
1
1
1
1
1
1
1
1
1
1
1
1
1
1
1
1
1
1
1
1
1
1
1
1
1
1
1
1
1
1
1
1
1
1
1
1
1
1
1
1
1
1
1
1
1
1
1
1
1
1
1
1
1
1
1
1
1
1
1
1
1
1
1
1
1
1
1
1
1
1
1
1
1
1
1
1
1
1
1
1
1
1
1
1
1
1
1
1
1
1
1
1
1
1
1
1
1
1
1
1
0.9999999
0.9999998
0.9999998
0.9999998
0.9999998
0.9999998
0.9999998
0.9999998
0.9999998
0.9999997
0.9999995
0.9999991
0.9999987
0.9999981
0.9999971
0.9999965
0.9999968
0.9999983
0.999999
0.999999
0.9999986
0.9999975
0.9999947
0.9999889
0.9999807
0.9999778
0.9999793
0.9999865
0.999994
0.9999952
0.9999946
0.9999903
0.9999762
0.9999476
0.999915
0.9999032
0.9999064
0.999929
0.9999649
0.9999806
0.9999807
0.9999736
0.9999466
0.9998868
0.9997838
0.9996837
0.9996696
0.999735
0.9998752
0.9999464
0.9999504
0.9999441
0.9999153
0.9998348
0.9996735
0.9995208
0.9995074
0.9995929
0.9997907
0.9999217
0.9999373
0.9999328
0.9999042
0.9998117
0.9996251
0.9994754
0.9994722
0.9995575
0.9997533
0.999896
0.9999146
0.9999066
0.9998592
0.9997307
0.9995718
0.9995286
0.9995435
0.9996315
0.9998051
0.9999226
0.9999373
0.9999325
0.9999064
0.9998432
0.9997632
0.999726
0.9997298
0.9998068
0.9999223
0.9999558
0.999954
0.9999415
0.9999071
0.9998552
0.9998254
0.9998242
0.9998465
0.9999143
0.9999636
0.9999685
0.9999657
0.9999522
0.9999154
0.9998621
0.9998522
0.9998987
0.999971
0.9999896
0.9999891
0.9999866
0.9999806
0.9999688
0.9999583
0.9999578
0.9999662
0.9999868
0.9999973
0.9999983
0.9999982
0.9999979
0.9999975
0.9999972
0.9999972
0.999998
0.9999996
0.9999999
0.9999999
0.9999996
0.9999994
0.9999995
0.9999997
0.9999989
0.999981
0.9996892
0.9962516
0.9631225
0.7447845
0.3669393
0.4225997
0.7612443
0.9700125
0.995512
0.9956221
0.9963138
0.9978072
0.9992316
0.99988
0.9999941
0.9999999
1
1
1
1
1
1
1
1
0.9999999
0.9999998
0.9999994
0.9999983
0.9999944
0.9999929
0.9999943
0.9999949
0.9999804
0.9996173
0.9933913
0.9751834
0.9824396
0.9955767
0.9996854
0.9999952
0.9999999
1
1
1
1
1
1
1
0.9999999
0.9999993
0.999997
0.9999946
0.9999968
0.9999994
1
1
1
1
1
1
1
1
1
1
1
1
1
1
1
1
1
1
1
1
1
1
1
1
1
1
1
0.9999999
0.9999997
0.9999991
0.9999974
0.9999911
0.9999572
0.9998345
0.9996746
0.999619
0.9996897
0.9998985
0.9999896
0.9999998
1
1
1
1
1
1
1
1
1
1
1
1
1
1
1
1
1
1
1
1
1
1
1
1
1
0.9999999
0.9999995
0.9999996
0.9999999
1
1
0.9999999
0.9999988
0.999988
0.9998931
0.9992666
0.9961014
0.9949932
0.9963352
0.9990958
0.9999153
0.9999225
0.9999179
0.9999403
0.9999775
0.9999444
0.999227
0.9926264
0.9889817
0.9925396
0.998203
0.9998729
0.999998
1
1
1
1
1
1
1
1
1
1
1
1
1
1
1
1
1
1
1
1
1
1
1
1
0.9999999
0.9999995
0.9999966
0.9999766
0.9999203
0.9999288
0.999976
0.9999973
0.9999999
1
1
1
1
1
1
1
0.9999999
0.9999999
1
1
1
1
1
1
1
1
1
1
1
1
1
1
1
1
1
1
1
1
1
1
1
1
1
1
1
1
1
1
1
1
1
1
1
1
1
1
1
1
1
1
1
1
1
1
1
1
1
1
1
1
1
1
1
1
1
1
0.9999999
0.9999987
0.9999658
1
1
1
1
1
1
1
1
1
1
1
1
1
1
1
1
1
1
1
1
1
1
1
1
1
1
1
1
1
1
1
1
1
1
1
1
1
1
1
1
1
1
1
1
1
1
1
1
1
1
1
1
1
1
1
1
1
1
1
1
1
1
1
1
1
1
1
1
1
1
1
1
1
1
1
1
1
1
1
1
1
1
1
1
1
1
1
1
1
1
1
1
1
1
1
1
1
1
1
1
1
1
0.9999999
0.9999998
0.9999997
0.9999995
0.9999995
0.9999995
0.9999996
0.9999998
0.9999998
0.9999995
0.9999982
0.9999943
0.9999866
0.9999771
0.9999734
0.999974
0.9999791
0.9999893
0.9999941
0.9999937
0.9999887
0.9999662
0.999903
0.9998055
0.9997342
0.9997199
0.9997413
0.9998409
0.9999463
0.9999655
0.9999574
0.9999029
0.9997376
0.99941
0.9989338
0.9986717
0.9987412
0.9991891
0.9996806
0.9998221
0.9998212
0.9997645
0.9995112
0.9986976
0.9968395
0.9952157
0.9952162
0.9963472
0.998368
0.999322
0.9993749
0.9992999
0.998775
0.9965842
0.9907456
0.9844439
0.9839198
0.9872283
0.9941775
0.9975539
0.9977532
0.9978261
0.9975755
0.995102
0.986647
0.9727613
0.9680253
0.9731314
0.9858494
0.9940502
0.9960801
0.9963116
0.9957494
0.9927397
0.9846522
0.9722819
0.967992
0.9717408
0.9834701
0.9934594
0.9962899
0.996364
0.9956927
0.9930685
0.9857342
0.9739658
0.9704178
0.9744878
0.9856242
0.9944971
0.996163
0.995984
0.9950007
0.9916026
0.9833812
0.9745313
0.9740794
0.9790413
0.9889185
0.9958652
0.9972253
0.9971964
0.9967898
0.9942278
0.9850843
0.979521
0.9872703
0.9972023
0.9992998
0.9992152
0.9990048
0.998584
0.9972597
0.9925799
0.9866568
0.9888697
0.9956162
0.999018
0.9992543
0.9991978
0.998863
0.997367
0.9938701
0.9929439
0.9952956
0.9988325
0.9997917
0.9998072
0.9997829
0.9996564
0.9991088
0.9977283
0.9971842
0.997766
0.9991439
0.9998533
0.9999371
0.999939
0.9999355
0.9999125
0.9998719
0.9998615
0.9998793
0.9999492
0.9999948
0.9999996
0.999999
0.999995
0.9999856
0.9999855
0.9999942
0.9999957
0.9999795
0.9995795
0.9912226
0.9189374
0.5504974
0.1175519
0.06007486
0.05755278
0.2477506
0.7818243
0.8983875
0.899342
0.9262707
0.9670761
0.9918062
0.9991839
0.9999774
0.9999999
1
1
1
0.9999999
0.9999993
0.9999993
0.9999998
0.9999996
0.999998
0.9999917
0.9999759
0.9999034
0.9995366
0.9990944
0.9991124
0.9991579
0.9988049
0.9949663
0.9765449
0.9636412
0.973226
0.9910018
0.9989575
0.9998748
0.9999132
0.9999333
0.9999598
0.9999882
0.999999
0.9999994
0.9999985
0.99999
0.9999408
0.9998847
0.9999316
0.9999859
0.9999991
1
1
1
1
1
0.9999999
0.9999997
0.9999997
0.9999998
1
1
1
1
1
1
1
1
1
1
1
1
0.9999999
0.9999991
0.9999982
0.9999979
0.9999979
0.9999973
0.9999923
0.9999729
0.9999119
0.9997484
0.9995248
0.9993287
0.9987638
0.9950123
0.9940801
0.9973105
0.9996058
0.9999854
0.9999999
1
1
1
1
1
1
1
1
1
1
1
1
0.9999999
0.9999998
0.9999998
0.9999999
1
1
1
1
1
1
1
1
0.9999999
0.9999995
0.9999982
0.9999986
0.9999996
0.9999999
0.9999998
0.999999
0.9999915
0.9999319
0.9994882
0.9956742
0.9874256
0.9901982
0.996548
0.9994405
0.9995562
0.999132
0.9971942
0.9963177
0.9972864
0.9992911
0.9995269
0.9974541
0.9894921
0.9889817
0.9889817
0.9911797
0.9978163
0.9998838
0.9999991
1
1
1
1
1
1
1
1
1
1
1
1
1
1
1
1
1
1
1
1
1
0.9999999
0.9999994
0.9999957
0.9999627
0.99974
0.9996061
0.9997863
0.9999593
0.9999977
1
1
1
1
1
0.9999999
0.9999995
0.9999991
0.9999993
0.9999998
1
1
1
1
1
1
1
0.9999999
0.9999998
0.9999999
1
1
1
1
1
1
1
1
1
1
1
1
1
1
1
1
1
1
1
0.9999999
1
1
1
1
1
1
1
1
1
1
1
1
1
1
1
1
1
1
1
1
1
1
1
1
1
1
1
1
0.9999999
0.9999991
0.9999893
0.9996357
1
1
1
1
1
1
1
1
1
1
1
1
1
1
1
1
1
1
1
1
1
1
1
1
1
1
1
1
1
1
1
1
1
1
1
1
1
1
1
1
1
1
1
1
1
1
1
1
1
1
1
1
1
1
1
1
1
1
1
1
1
1
1
1
1
1
1
1
1
1
1
1
1
1
1
1
1
1
1
1
1
1
1
1
1
1
1
1
1
1
1
1
1
1
1
1
1
1
1
1
1
1
1
1
1
1
0.9999999
0.9999998
0.9999997
0.9999996
0.9999996
0.9999996
0.9999996
0.9999991
0.9999957
0.9999782
0.9999181
0.9997879
0.9996528
0.9996201
0.9996301
0.9996898
0.9998126
0.9998983
0.9998966
0.9997896
0.9992434
0.9975392
0.9945751
0.9932043
0.9934428
0.9950874
0.997817
0.9992272
0.9993217
0.9991878
0.9982281
0.9935926
0.9798602
0.9649292
0.9639642
0.9723159
0.9889509
0.9972534
0.9977548
0.9976689
0.9964718
0.9878833
0.958451
0.9192855
0.9151662
0.9406327
0.9761549
0.9840364
0.98594
0.9884898
0.9879337
0.978691
0.9437878
0.8627821
0.8140515
0.8288334
0.8919235
0.9575419
0.9771403
0.9761203
0.967768
0.951913
0.9164134
0.7766212
0.6061736
0.616009
0.74203
0.9121659
0.9535992
0.932564
0.9078548
0.9190776
0.9182888
0.7473666
0.3983117
0.4293391
0.7012259
0.8700247
0.8634163
0.8599544
0.8931562
0.9333165
0.86943
0.4489844
0.2930666
0.5070802
0.8154063
0.8400311
0.8354552
0.8683964
0.9413791
0.9472452
0.7695628
0.3415491
0.3771664
0.6973691
0.8480495
0.8462218
0.8669307
0.9297848
0.9386376
0.7648468
0.3437125
0.3743883
0.687059
0.8368194
0.8289874
0.8440595
0.9135352
0.9567401
0.9180015
0.6144352
0.5087312
0.6974656
0.9265254
0.9853384
0.9876587
0.987641
0.9841067
0.9446958
0.7999291
0.7654192
0.8351551
0.938949
0.9795477
0.983711
0.9837526
0.9803385
0.9570637
0.9091364
0.9001029
0.9164757
0.9587642
0.9886575
0.9935627
0.9932011
0.9904157
0.983016
0.9750737
0.9716186
0.9691899
0.9745081
0.9884259
0.9950471
0.9960513
0.9966467
0.997557
0.9984178
0.9985292
0.9983937
0.998366
0.9992229
0.9999108
0.9999961
0.9999941
0.9999757
0.999912
0.9999019
0.999969
0.9999805
0.9999061
0.9991305
0.99102
0.9054549
0.4682595
0.2349308
0.1810749
0.07703123
0.05232039
0.1289921
0.3914986
0.3836373
0.2075996
0.2295656
0.5988954
0.9350609
0.9969975
0.999968
0.9999999
1
0.9999996
0.9999961
0.9999947
0.9999974
0.9999997
0.9999998
0.9999985
0.999975
0.9998095
0.9989477
0.9971667
0.9916476
0.9819786
0.9732252
0.9660548
0.9533677
0.9246535
0.8776556
0.8712309
0.8967679
0.9488372
0.9828799
0.993173
0.9956001
0.9972134
0.9991159
0.9999277
0.9999757
0.9999229
0.9994858
0.9988733
0.9992755
0.9998231
0.9999829
0.9999989
1
1
1
0.9999999
0.9999995
0.9999971
0.9999947
0.999997
0.9999995
1
1
1
1
1
1
1
1
1
1
0.9999999
0.9999999
0.9999999
0.9999996
0.9999952
0.9999739
0.9999008
0.9998383
0.9998526
0.999765
0.9990421
0.996792
0.9927389
0.990174
0.9901935
0.9902129
0.9902383
0.9934388
0.9981908
0.9997937
0.9999882
0.9999996
0.9999999
0.9999999
0.9999999
0.9999999
0.9999999
0.9999999
0.9999999
0.9999999
0.9999993
0.9999958
0.9999918
0.9999932
0.9999977
0.9999997
1
1
1
1
1
1
1
1
1
0.9999996
0.9999973
0.9999959
0.9999966
0.999999
0.9999996
0.9999991
0.9999932
0.9999405
0.9995527
0.9969942
0.9845213
0.981017
0.9848397
0.9958744
0.9984854
0.998435
0.9985329
0.9961478
0.9865154
0.9861867
0.9865447
0.9949702
0.9994764
0.9999114
0.9998864
0.9997202
0.9994507
0.9994377
0.9996213
0.9999068
0.999995
1
1
1
1
1
1
1
1
1
1
1
1
1
1
1
1
1
1
1
1
0.9999996
0.9999969
0.9999656
0.9995625
0.9988133
0.998918
0.9995538
0.9999338
0.9999975
0.9999999
1
0.9999999
0.9999996
0.9999978
0.9999906
0.9999891
0.9999938
0.9999989
0.9999999
1
1
1
1
1
0.9999998
0.9999992
0.999999
0.9999994
0.9999999
1
1
1
1
1
1
1
1
1
1
1
1
1
1
1
1
1
1
0.9999999
0.9999998
0.9999998
0.9999999
1
1
1
1
1
1
1
1
1
1
1
1
1
1
1
1
1
1
1
1
1
1
1
1
1
1
0.9999999
0.9999977
0.99997
0.9997666
0.9979419
1
1
1
1
1
1
1
1
1
1
1
1
1
1
1
1
1
1
1
1
1
1
1
1
1
1
1
1
1
1
1
1
1
1
1
1
1
1
1
1
1
1
1
1
1
1
1
1
1
1
1
1
1
1
1
1
1
1
1
1
1
1
1
1
1
1
1
1
1
1
1
1
1
1
1
1
1
1
1
1
1
1
1
1
1
1
1
1
1
1
1
1
1
1
1
1
1
1
1
1
1
1
1
1
1
1
1
1
1
1
1
1
1
1
1
1
0.9999999
0.999999
0.9999911
0.9999517
0.9998454
0.9997444
0.9997195
0.9997189
0.99972
0.9997328
0.9997378
0.9995878
0.9984505
0.9934233
0.9815731
0.971048
0.9684957
0.9689201
0.9731631
0.9823419
0.9900698
0.9927917
0.9921233
0.9809493
0.9285291
0.8272055
0.7856316
0.7965055
0.8504873
0.9327321
0.9760807
0.9779031
0.9706823
0.9530753
0.9148631
0.7148429
0.4166605
0.4239866
0.6168701
0.8639905
0.9415117
0.9292334
0.9019588
0.9043168
0.859114
0.4521531
0.1200594
0.1768686
0.5572783
0.7758178
0.7447965
0.7293812
0.7809169
0.8120873
0.6352482
0.2030439
0.04384683
0.04567818
0.09291477
0.2744051
0.5647512
0.7452168
0.7523195
0.5870915
0.2113181
0.04278991
0.02384337
0.01883122
0.01704087
0.0354222
0.286396
0.6565997
0.5552838
0.2077384
0.03087313
0.01612775
0.01732415
0.0146882
0.01652723
0.05887653
0.2248611
0.2622532
0.1781612
0.06243394
0.04509597
0.04906848
0.04040156
0.03590427
0.04963069
0.1066445
0.14014
0.1257597
0.09125109
0.08644416
0.09243491
0.08795787
0.07944264
0.08556178
0.09152476
0.08984405
0.08097472
0.07342922
0.07510474
0.08549755
0.08918454
0.08422151
0.08466379
0.08505826
0.07835701
0.06686635
0.06712183
0.08688114
0.139941
0.1500626
0.1288644
0.1299428
0.1618647
0.1762259
0.1714075
0.181
0.2547013
0.3246195
0.3077965
0.252742
0.234136
0.2236347
0.1988449
0.2038879
0.3337841
0.5522635
0.5643451
0.4810582
0.3223581
0.1884812
0.172775
0.2249019
0.5486182
0.6778062
0.6434728
0.6666158
0.683398
0.528708
0.272327
0.2690891
0.5823564
0.8917287
0.9545886
0.9710151
0.9649823
0.9044939
0.8394385
0.8655359
0.9439071
0.992753
0.9997501
0.9999481
0.9999284
0.9997608
0.9991977
0.999284
0.9997966
0.9999846
0.9999594
0.9990096
0.9409147
0.5231456
0.5402162
0.8036373
0.8036373
0.7535293
0.3246656
0.05379813
0.02171509
0.0416605
0.06335558
0.04310379
0.02881339
0.1092266
0.6439681
0.9649331
0.9992522
0.999997
0.9999998
0.9999957
0.9999889
0.9999911
0.9999975
0.9999992
0.9999989
0.9999921
0.9997271
0.9935994
0.960394
0.9676835
0.958798
0.8999703
0.7659808
0.6495117
0.4790631
0.2311693
0.1882244
0.2750368
0.4919738
0.5397721
0.5526401
0.6737428
0.8849735
0.9833799
0.9991626
0.999813
0.9978818
0.9950763
0.9961345
0.998745
0.9998044
0.9999805
0.9999994
1
1
0.9999998
0.9999986
0.9999888
0.9999611
0.9999675
0.9999904
0.9999991
1
1
1
1
1
1
1
0.9999998
0.9999994
0.9999982
0.9999958
0.9999943
0.9999947
0.9999965
0.9999962
0.999966
0.9994522
0.9958041
0.9926864
0.9950936
0.99817
0.9951063
0.9760804
0.9732521
0.9750979
0.9917244
0.999099
0.9993393
0.9991715
0.9983167
0.9974267
0.997573
0.9986424
0.9997052
0.9999787
0.9999941
0.9999939
0.9999924
0.9999802
0.9998982
0.9998387
0.9998688
0.9999592
0.9999958
0.9999996
0.9999999
1
1
1
1
1
1
1
1
0.9999997
0.9999962
0.9999892
0.9999915
0.9999972
0.9999991
0.9999987
0.9999944
0.9999575
0.9996763
0.9975378
0.9811752
0.97143
0.975432
0.992146
0.9970137
0.9962447
0.9826575
0.9719394
0.9751372
0.9913557
0.9990598
0.9999176
0.9999181
0.999889
0.9997834
0.9998013
0.9999199
0.9999835
0.9999959
0.9999961
0.9999955
0.999996
0.9999984
0.9999988
0.9999981
0.9999928
0.9999806
0.9999823
0.9999938
0.9999993
1
1
1
1
1
1
1
1
1
1
1
0.9999998
0.9999982
0.9999777
0.9997146
0.9983639
0.9982012
0.9990646
0.9997964
0.9999745
0.9999985
0.9999992
0.9999989
0.999996
0.999975
0.9999196
0.9999226
0.9999689
0.999995
0.9999996
1
1
1
1
0.9999998
0.9999989
0.9999953
0.9999946
0.999997
0.9999994
0.9999999
1
1
1
1
1
1
1
1
1
1
1
1
1
1
1
1
1
1
0.9999997
0.9999992
0.9999995
0.9999999
1
1
1
1
1
1
1
1
1
1
0.9999999
0.9999997
0.9999998
0.9999999
1
1
1
1
1
1
1
1
0.9999999
0.9999997
0.9999998
0.9999999
0.9999999
0.9999996
0.9999874
0.9996475
0.9957793
0.9927645
1
1
1
1
1
1
1
1
1
1
1
1
1
1
1
1
1
1
1
1
1
1
1
1
1
1
1
1
1
1
1
1
1
1
1
1
1
1
1
1
1
1
1
1
1
1
1
1
1
1
1
1
1
1
1
1
1
1
1
1
1
1
1
1
1
1
1
1
1
1
1
1
1
1
1
1
1
1
1
1
1
1
1
1
1
1
1
1
1
1
1
1
1
1
1
1
1
1
1
1
1
1
1
1
1
1
1
1
1
1
1
1
1
1
1
1
1
1
1
1
1
1
0.9999999
0.9999999
0.9999999
0.9999998
0.9999995
0.9999979
0.999991
0.9999416
0.9994573
0.996238
0.9852348
0.9758997
0.9758289
0.9770765
0.9769569
0.9764517
0.9780873
0.9775425
0.9582752
0.8743704
0.7060731
0.6151783
0.60536
0.6070445
0.6488037
0.7498743
0.808134
0.8312496
0.8420153
0.7704502
0.3838064
0.107347
0.09420642
0.1043797
0.1756963
0.4378955
0.7225178
0.7608712
0.6488876
0.2837684
0.06183522
0.02705142
0.01969448
0.01572654
0.02058327
0.1205119
0.4671636
0.4755384
0.2432104
0.04923855
0.009867279
0.008328826
0.008325313
0.01041497
0.02437776
0.06991
0.0987382
0.08958487
0.05594934
0.02055165
0.008378254
0.007503082
0.007671625
0.008906461
0.01092507
0.01332087
0.01536966
0.01616635
0.01590946
0.01342996
0.008587463
0.006692184
0.007430696
0.007781095
0.006322405
0.004153244
0.003591868
0.003765918
0.004130542
0.005305231
0.01247872
0.01443144
0.007960086
0.001995772
0.00090018
0.0009361488
0.001200747
0.002777735
0.007900579
0.01009504
0.007640074
0.002840093
0.001021728
0.001378743
0.003671517
0.009859307
0.009779104
0.004512177
0.004870237
0.02202832
0.01894592
0.007705439
0.004500192
0.004500195
0.03315715
0.07401195
0.04006268
0.01045456
0.01002991
0.01209013
0.01120815
0.008279634
0.0057761
0.009565544
0.04959289
0.06644712
0.04942529
0.0155143
0.008507839
0.00965624
0.01147975
0.0111646
0.009646828
0.009298824
0.01335622
0.0297485
0.03809103
0.03611841
0.02977391
0.01790968
0.01686257
0.01686225
0.02073682
0.07776122
0.09177396
0.07950259
0.05430903
0.02954914
0.01739068
0.03076196
0.1690936
0.2128512
0.1413115
0.08533158
0.09090272
0.110227
0.06631167
0.05421363
0.2481567
0.7819384
0.7916705
0.3782617
0.1050673
0.1180137
0.1878761
0.1856826
0.1433706
0.1972358
0.6194282
0.9475932
0.9975504
0.9986527
0.9975873
0.9954149
0.9970842
0.999389
0.9999722
0.999966
0.9990199
0.9628828
0.7072828
0.7023818
0.7866773
0.7629227
0.8036373
0.8036373
0.7083168
0.2106068
0.02234204
0.01944115
0.02023355
0.01941543
0.01940436
0.0215241
0.2526225
0.8295247
0.9910507
0.9999129
0.9999981
0.9999976
0.9999944
0.9999974
0.9999971
0.999981
0.9999013
0.9997113
0.9962494
0.9153417
0.7785272
0.9236626
0.9264757
0.7261368
0.2090628
0.02442506
0.006224745
0.006434087
0.007932614
0.01468636
0.03533878
0.05887964
0.06845473
0.09321237
0.3069004
0.8024331
0.9834485
0.9987289
0.9989705
0.9973967
0.9977734
0.9992503
0.9999318
0.9999988
0.9999998
0.9999997
0.9999979
0.9999811
0.9998736
0.9998185
0.9998939
0.9999805
0.9999988
1
1
1
1
1
1
1
0.9999995
0.9999955
0.9999743
0.999912
0.9998819
0.9999164
0.9999441
0.9999286
0.9998706
0.9993889
0.993794
0.9640618
0.9587592
0.9761438
0.9968586
0.9970996
0.9810821
0.9732521
0.9779634
0.9935369
0.9989575
0.9980986
0.9925673
0.9822796
0.9826728
0.989686
0.9960498
0.9983581
0.9986492
0.9982853
0.9961459
0.9958409
0.9978122
0.9996531
0.9999764
0.9999923
0.9999935
0.9999969
0.9999995
1
1
1
1
1
1
1
0.9999999
0.9999979
0.9999834
0.999979
0.999986
0.9999975
0.9999987
0.9999955
0.999959
0.9996737
0.9973925
0.9756801
0.9543117
0.9640316
0.9889436
0.9966737
0.9952678
0.9693185
0.9399135
0.954951
0.9864438
0.9988008
0.9998564
0.9998425
0.9996252
0.998221
0.9968866
0.9980752
0.9995329
0.99997
0.9999996
0.9999999
0.9999999
0.9999999
0.9999991
0.9999863
0.9998253
0.9995043
0.9996765
0.9999222
0.9999943
0.9999997
1
1
1
1
1
1
1
1
1
1
1
0.9999995
0.9999929
0.9999248
0.9993053
0.9966105
0.9967191
0.9988911
0.9998785
0.999994
0.9999952
0.9999938
0.9999749
0.9998172
0.9995604
0.9996222
0.9998606
0.9999799
0.9999982
0.9999999
0.9999999
0.9999999
0.9999998
0.9999991
0.9999935
0.9999751
0.9999739
0.9999882
0.9999979
0.9999998
1
1
1
1
1
0.9999999
0.9999999
1
1
1
1
0.9999999
0.9999999
1
1
1
1
1
0.9999998
0.9999984
0.9999979
0.9999986
0.9999997
1
1
1
1
1
1
1
0.9999999
0.9999997
0.9999984
0.9999978
0.9999982
0.9999995
1
1
1
1
1
1
1
1
1
0.9999999
0.9999994
0.9999988
0.9999994
0.9999999
0.9999999
0.9999985
0.9999483
0.9982149
0.9870358
0.9917032
1
1
1
1
1
1
1
1
1
1
1
1
1
1
1
1
1
1
1
1
1
1
1
1
1
1
1
1
1
1
1
1
1
1
1
1
1
1
1
1
1
1
1
1
1
1
1
1
1
1
1
1
1
1
1
1
1
1
1
1
1
1
1
1
1
1
1
1
1
1
1
1
1
1
1
1
1
1
1
1
1
1
1
1
1
1
1
1
1
1
1
1
1
1
1
1
1
1
1
1
1
1
1
1
1
1
1
1
1
1
1
1
1
1
1
1
1
1
1
1
1
1
1
1
1
1
1
1
1
1
1
1
0.9999999
0.9999989
0.9999905
0.9999521
0.9998925
0.9998671
0.9998416
0.9997325
0.9993123
0.9981097
0.9957124
0.9851153
0.92498
0.7526013
0.6520906
0.6644316
0.6922018
0.6913226
0.672212
0.6780727
0.6774568
0.5136356
0.1802856
0.06543247
0.06833946
0.06873836
0.0671997
0.085077
0.1603873
0.1838467
0.146432
0.06741454
0.02148897
0.01708512
0.01746581
0.01744375
0.01752195
0.01827451
0.0184324
0.01817606
0.01625836
0.01165812
0.009130531
0.009995392
0.01796226
0.01681848
0.008442594
0.003059583
0.002043648
0.002011958
0.002178745
0.00381969
0.01310932
0.01779891
0.01347986
0.003627129
0.000427989
0.0002750004
0.0002768613
0.0003397633
0.0009356225
0.004982765
0.01224034
0.009294301
0.003042463
0.0003790618
0.0001123709
0.0001126206
0.0001334436
0.0002905573
0.001072755
0.00275426
0.002938572
0.00189667
0.0005125413
9.034443e-05
6.653154e-05
6.640629e-05
7.765237e-05
0.0002002656
0.0008132372
0.001445472
0.001294683
0.0009201368
0.0006783751
0.0003750745
0.0001076457
7.754382e-05
0.000280411
0.001645784
0.001316275
0.0007373495
0.000799206
0.001136694
0.0022251
0.002968495
0.003069033
0.007675482
0.02141199
0.05956848
0.06992907
0.07237735
0.07523523
0.05901153
0.06069579
0.08704663
0.0870473
0.07034579
0.02725835
0.0128626
0.02308764
0.02674402
0.02665861
0.02274458
0.01101879
0.003503095
0.003266059
0.003715783
0.0034313
0.001804512
0.001604999
0.01583283
0.01099509
0.003179144
0.001976007
0.007282223
0.01266609
0.01115291
0.01019118
0.01019118
0.01019118
0.04586481
0.2901845
0.3313644
0.3313644
0.2943918
0.08140498
0.02146671
0.02572907
0.03312753
0.02060106