/*--------------------------------*- C++ -*----------------------------------*\
| =========                 |                                                 |
| \\      /  F ield         | foam-extend: Open Source CFD                    |
|  \\    /   O peration     | Version:     3.1                                |
|   \\  /    A nd           | Web:         http://www.extend-project.de       |
|    \\/     M anipulation  |                                                 |
\*---------------------------------------------------------------------------*/
FoamFile
{
    version     2.0;
    format      ascii;
    class       volScalarField;
    location    "18";
    object      nut;
}
// * * * * * * * * * * * * * * * * * * * * * * * * * * * * * * * * * * * * * //

dimensions      [0 2 -1 0 0 0 0];

internalField   nonuniform List<scalar> 
119952
(
5.471044e-05
3.726307e-05
3.872231e-05
4.31501e-05
4.615789e-05
4.400878e-05
4.261621e-05
4.158905e-05
4.078317e-05
4.007647e-05
3.941791e-05
3.878052e-05
3.814592e-05
3.750344e-05
3.684808e-05
3.61773e-05
3.548942e-05
3.478129e-05
3.403136e-05
3.320474e-05
4.154064e-05
3.95927e-05
3.875101e-05
4.958979e-05
4.819787e-05
4.729435e-05
4.675246e-05
4.665206e-05
4.675426e-05
3.604502e-05
3.262103e-05
3.586457e-05
4.067456e-05
4.5429e-05
5.033808e-05
5.545523e-05
6.084717e-05
6.638484e-05
7.202952e-05
8.185774e-05
0.0003740482
0.0004295919
0.0004918655
0.0005577809
0.0006252139
0.0006929068
0.0007603252
0.0008271656
0.000892702
0.001255229
0.001319288
0.001382525
0.001444668
0.001506416
0.001568766
0.001632037
0.001696156
0.001760933
0.001824199
0.001890385
0.001953043
0.002013235
0.002072407
0.002131419
0.002190887
0.002251527
0.002313162
0.002379169
0.002194809
0.002452216
0.002463384
0.002482451
0.002495992
0.002498953
0.002494119
0.002482404
0.002469179
0.002455771
0.002442161
0.002427938
0.002412839
0.002397078
0.002381254
0.002366174
0.00235263
0.002341337
0.002333534
0.002331895
0.002336239
0.002341644
0.002347021
0.002363416
0.002383986
0.002388709
0.002377165
0.002341577
0.002240145
0.002052472
0.001989064
0.001944085
0.001913744
0.00189114
0.001872025
0.001855692
0.001841577
0.001829091
0.001817801
0.001807264
0.001797034
0.001786795
0.001776407
0.001765885
0.001755326
0.001744827
0.001734395
0.001723902
0.001713125
0.00170184
0.001689909
0.001677297
0.00166405
0.00165026
0.001636004
0.001621284
0.001606007
0.001590031
0.001573253
0.001555672
0.001537418
0.001518712
0.001499786
0.001480782
0.001461681
0.001442295
0.001422335
0.001401561
0.001379905
0.001357598
0.001335241
0.001313766
0.001294316
0.001278106
0.001266282
0.001259856
0.001259667
0.001266614
0.001281814
0.001304693
0.001332331
0.001366553
0.001408992
0.001458982
0.001516153
0.001579684
0.001648027
0.001718971
0.001789217
0.001853961
0.001906156
0.001934219
0.001922931
0.00185226
0.001722128
0.001547594
0.001351414
0.001163659
0.001009077
0.0008790546
0.0007833494
0.0007344273
0.0007257785
0.0007479641
0.0007936072
0.0008499312
0.0009157814
0.0009861756
0.001039067
0.001079401
0.001121311
0.001164833
0.001209337
0.00125373
0.001296405
0.001334953
0.001366078
0.001387169
0.001395622
0.001386962
0.001351253
0.001290162
0.001212254
0.001120164
0.001015979
0.0009031303
0.0007876866
0.0006891496
0.0006403836
0.0004790834
0.0004740363
0.0004760791
0.0004966806
0.0005276141
0.0005563458
0.0005759915
0.0005738157
0.000576298
0.0005847394
0.0005968062
0.0006078638
0.0006140134
0.0006158975
0.0006135592
0.0006078575
0.0006004229
0.000592401
0.0005842307
0.00057577
0.0005668911
0.0005575228
0.0005476679
0.0005373811
0.000526735
0.0005157874
0.0005045648
0.0004930767
0.0004813651
0.0004695781
0.0004578923
0.0004462679
0.0004347993
0.0004236902
0.0004134076
0.0004086611
0.0004126675
0.000410872
0.0004076286
0.0004033948
0.000398655
0.0003936725
0.0003893623
0.0003869241
0.0003873713
0.0003912583
0.0003984419
0.0004081328
0.0004194311
0.000431336
0.0004431121
0.0004543322
0.0004648808
0.0004748903
0.0004846191
0.0004943344
0.0005043001
0.0005148279
0.000525717
0.0005366092
0.000545056
0.0005507117
0.0005565532
0.0005625782
0.0005687424
0.0005750042
0.0005813534
0.0005877606
0.0005942167
0.0006008388
0.0007654999
0.0007821687
0.0007991525
0.0008153184
0.0008310852
0.0008465157
0.0008617108
0.0008767334
0.000891656
0.000906295
0.0009204783
0.0009340308
0.0009467763
0.0009585368
0.0009691263
0.0009783439
0.0009859778
0.0009918067
0.0009955902
0.0009970713
0.0009960073
0.0009922306
0.0009856385
0.0009761383
0.0009637733
0.000948908
0.0009323533
0.0009155437
0.0009003676
0.0008865044
0.0008747974
0.000866385
0.000861822
0.0008613179
0.0008645925
0.0008712599
0.0008808128
0.0008926515
0.0009060635
0.0009202044
0.0009341553
0.000947065
0.0009583823
0.0009684606
0.0009777784
0.0009864832
0.0009942951
0.001001306
0.001007435
0.001012537
0.001016463
0.001019099
0.001020396
0.001020288
0.001019437
0.001013959
0.001006422
0.0009980391
0.0009887738
0.0009788648
0.0009688838
0.0009594243
0.0009509774
0.0009451203
0.0009450577
0.0009511656
0.0009610403
0.0009718993
0.0009822342
0.0009918457
0.001001159
0.001010717
0.001020913
0.001031897
0.001043709
0.001056372
0.001069902
0.001084312
0.001099473
0.001114937
0.001129811
0.001143527
0.001156117
0.001167642
0.001178267
0.001188264
0.001197955
0.001207675
0.001217735
0.00122841
0.001240021
0.001252842
0.00126686
0.001281993
0.001298094
0.001314974
0.001332339
0.00134985
0.00136733
0.001384726
0.001402052
0.001419358
0.001436749
0.001454437
0.00147275
0.001492089
0.001512875
0.001535497
0.00156027
0.001587441
0.001617216
0.001649752
0.001685113
0.001723235
0.001763974
0.001807127
0.001852449
0.001899642
0.001948376
0.001998304
0.002049051
0.002100201
0.002151286
0.002201785
0.002251114
0.002298633
0.002343636
0.00238535
0.002422921
0.002455423
0.002481891
0.002501442
0.002513587
0.00251901
0.002520308
0.002519456
0.00251903
0.002529138
0.002512334
5.017297e-05
5.367227e-05
6.182011e-05
7.180356e-05
8.212398e-05
9.220888e-05
0.0001019052
0.0001112077
0.0001214646
0.0004417055
0.0005835465
0.0007344251
0.0008817227
0.001018237
0.001141733
0.00125266
0.001352879
0.00144467
0.002068281
0.002164074
0.002263625
0.002361791
0.002457908
0.002551564
0.002642384
0.002730087
0.002814371
0.002893996
0.002970473
0.003043125
0.003112319
0.003180599
0.003249282
0.003318609
0.003388124
0.003457161
0.003524797
0.00357496
0.003608362
0.003644079
0.003683263
0.003726502
0.003773469
0.003823604
0.003875937
0.003929207
0.003981994
0.004034552
0.004084907
0.004134183
0.004183513
0.004233651
0.00428525
0.004338441
0.004392717
0.004446249
0.005226723
0.005271833
0.005313589
0.005353827
0.005393323
0.005432784
0.005472719
0.005513098
0.005553713
0.005593528
0.005631599
0.005668032
0.005702639
0.005735556
0.005767587
0.00579948
0.00583202
0.005866337
0.005904148
0.005938096
0.005959433
0.005976789
0.00599279
0.006001588
0.006001519
0.005995387
0.005986649
0.005976451
0.005964409
0.005950509
0.005934207
0.005915526
0.005894841
0.005873104
0.005851606
0.005831603
0.005814233
0.00580083
0.005790436
0.005782669
0.005774889
0.005768609
0.005766427
0.005763221
0.005749539
0.005722495
0.005678417
0.005610318
0.005535807
0.005481575
0.005432277
0.005385017
0.005339753
0.00529548
0.005252507
0.00521119
0.005171777
0.005134311
0.00509846
0.005063682
0.005029515
0.004995733
0.004962367
0.004929632
0.004897778
0.004866869
0.004836649
0.00480662
0.004776242
0.004745093
0.004712932
0.004679736
0.004645659
0.004610892
0.004575475
0.004539205
0.004501687
0.004462491
0.004421343
0.004378221
0.004333368
0.004287167
0.004239925
0.004191653
0.00414198
0.004090301
0.004036015
0.003978793
0.003918922
0.003857491
0.003796328
0.00373778
0.003684447
0.003639035
0.003604218
0.003582758
0.003576991
0.003589416
0.003621092
0.003673078
0.00374666
0.003842577
0.003968283
0.00412686
0.004318195
0.004538668
0.004780417
0.005031057
0.005274834
0.005494226
0.005669571
0.005777608
0.005789292
0.005666242
0.005388145
0.004982394
0.004486677
0.003965061
0.00348471
0.003089667
0.002793247
0.002587855
0.002458007
0.002387857
0.002363406
0.002374116
0.002412209
0.002471249
0.002543807
0.002632334
0.002742135
0.002872398
0.003021452
0.003186094
0.003360752
0.003537129
0.003622654
0.003736749
0.003870145
0.00403545
0.004106424
0.004085752
0.004003894
0.003852916
0.003630551
0.003345183
0.003035413
0.002737888
0.002478308
0.002100855
0.001845937
0.001681087
0.001536816
0.001423034
0.001366982
0.001358604
0.00138946
0.001452537
0.00154101
0.001649938
0.001775404
0.001909474
0.002017984
0.002089978
0.002155193
0.00221468
0.002271949
0.002327817
0.002382163
0.002434641
0.002484841
0.002532328
0.002576652
0.002617343
0.00265388
0.002685665
0.002712048
0.002732394
0.002746168
0.00275298
0.00275258
0.002744838
0.002729778
0.002707939
0.002680599
0.002647159
0.002606479
0.002558174
0.002502215
0.00243882
0.002369141
0.002294287
0.002216149
0.002136882
0.002058639
0.001984972
0.001918793
0.001861207
0.001812834
0.001773977
0.001744655
0.001724621
0.001713385
0.001710252
0.001714346
0.001724771
0.001740701
0.001761305
0.0017856
0.001811934
0.001839048
0.001867952
0.001900047
0.00193511
0.001972705
0.00201225
0.002053248
0.002095252
0.00239868
0.002449389
0.002501926
0.002555858
0.00261075
0.002666483
0.002723043
0.002780363
0.002838309
0.002896629
0.002955
0.003012999
0.003070112
0.003125749
0.003179236
0.003229835
0.003276754
0.003319129
0.003355984
0.003386199
0.003408458
0.003421239
0.003422831
0.003411331
0.003384658
0.003340622
0.003276974
0.003191488
0.00308392
0.002961683
0.002830238
0.002695744
0.002564753
0.002443282
0.00233643
0.002247745
0.002179027
0.002130384
0.002100519
0.002087204
0.002087792
0.002099619
0.002120228
0.002147437
0.002179335
0.002214216
0.002250667
0.002287641
0.002324076
0.002358891
0.002390932
0.00241908
0.002442065
0.002458994
0.002468913
0.002470114
0.002461792
0.002444263
0.002418177
0.002384703
0.002345629
0.002303077
0.00225969
0.002218597
0.002182591
0.002153337
0.002131306
0.002116099
0.002106855
0.002097822
0.002085768
0.002084248
0.002091405
0.002105385
0.002124527
0.002147427
0.002172315
0.002192001
0.002213407
0.002236314
0.002260373
0.002285171
0.002310358
0.002335748
0.00236138
0.002387513
0.002414572
0.002443079
0.002473576
0.002506546
0.002542353
0.002581221
0.002623166
0.002667941
0.002715012
0.002763587
0.002813307
0.002864088
0.002915932
0.002969014
0.003023375
0.003078664
0.003134713
0.003191563
0.003249431
0.003308651
0.003369637
0.003432797
0.003498496
0.00356705
0.00363872
0.003713691
0.003792033
0.003873672
0.003958386
0.00404583
0.004135558
0.004227054
0.004319753
0.004413075
0.00450642
0.004599176
0.004690706
0.004780341
0.004867369
0.004951029
0.005030508
0.005104919
0.005173304
0.00523465
0.005287991
0.005332503
0.005367548
0.005392873
0.005408406
0.005414981
0.005413988
0.005412575
0.005411049
3.233453e-05
3.957399e-05
5.048589e-05
6.344933e-05
7.894994e-05
9.762287e-05
0.0001206413
0.0001496092
0.0001874603
0.0002545766
0.001039694
0.001212837
0.001401085
0.001595455
0.001781917
0.001920381
0.002056923
0.002207461
0.002503649
0.004585728
0.004818246
0.004958871
0.005083346
0.005191355
0.005287732
0.005373774
0.005449785
0.005519808
0.005603285
0.005769422
0.005951464
0.006097668
0.00620352
0.006278841
0.006333455
0.006374302
0.006405925
0.006436802
0.006340931
0.006320354
0.006336649
0.006370678
0.006411714
0.00645351
0.006492843
0.006528175
0.006559065
0.006585532
0.006607125
0.006626237
0.006644285
0.006661493
0.006677943
0.006693629
0.006708464
0.006721149
0.007493642
0.00750835
0.007517719
0.007524556
0.007530294
0.007535328
0.007539863
0.007543873
0.007547629
0.007551145
0.007553994
0.007556902
0.007560751
0.007565789
0.007572382
0.00758078
0.007590789
0.007602005
0.007613935
0.007625205
0.007635127
0.007644697
0.007654563
0.007665406
0.007678024
0.007692814
0.007709603
0.007727503
0.007744969
0.007761222
0.00777609
0.00778966
0.007802989
0.007817536
0.00783461
0.007854863
0.007878184
0.007904554
0.007914878
0.007925885
0.007936718
0.00794731
0.007958309
0.007970804
0.007985818
0.008003773
0.00802431
0.008046224
0.008068216
0.008089075
0.008107871
0.008124552
0.008140026
0.008155698
0.008173051
0.008193029
0.008215645
0.008238423
0.008257031
0.008270213
0.008278602
0.008281155
0.008277491
0.008268943
0.008258238
0.008247766
0.008238418
0.00822943
0.008218953
0.008204969
0.0081873
0.008167672
0.008148043
0.008129937
0.008114803
0.008103299
0.008094643
0.008087802
0.008081421
0.008074918
0.008068419
0.008061454
0.008045899
0.008019788
0.007984179
0.007936
0.007882209
0.007834397
0.007791325
0.007747916
0.007703973
0.007659559
0.007615121
0.007571717
0.007530188
0.007490744
0.007452931
0.007415913
0.007378904
0.007341457
0.00730355
0.007265548
0.007227998
0.007191218
0.007155008
0.007118753
0.0070817
0.007043186
0.007002777
0.006960408
0.006916405
0.006871278
0.006825359
0.006778545
0.006730301
0.006679926
0.006626869
0.006570931
0.006512358
0.006451693
0.006389494
0.006325929
0.006260527
0.006192362
0.006120333
0.00604354
0.0059619
0.00587653
0.005789646
0.005704221
0.005623662
0.005551587
0.005491639
0.00544767
0.005423195
0.005422122
0.005447924
0.005503341
0.005591111
0.005712478
0.00587035
0.006069983
0.006308738
0.00657899
0.006868093
0.007159806
0.007437787
0.007688054
0.007897766
0.008052487
0.008132948
0.00811135
0.007946789
0.007623193
0.007155163
0.006580814
0.005964388
0.005374257
0.004860148
0.004445021
0.004131078
0.003909257
0.003766199
0.003689098
0.003667331
0.003692385
0.003757007
0.003852413
0.003986251
0.004159355
0.004369847
0.004612987
0.004878623
0.005151995
0.00541525
0.005572199
0.00578663
0.005982515
0.006100435
0.006136728
0.006101747
0.005991644
0.005798313
0.005522386
0.005179535
0.0047999
0.004429169
0.004070487
0.003740281
0.003447746
0.003200245
0.003002162
0.00285453
0.002755218
0.002699767
0.00268195
0.002694867
0.002731806
0.002786829
0.002855029
0.002932658
0.003017096
0.00310654
0.003199499
0.003294501
0.00339283
0.003497115
0.003606652
0.00372022
0.003836457
0.003953892
0.004070959
0.004186012
0.004297354
0.004403284
0.004502175
0.004592579
0.004673239
0.004743243
0.004801968
0.004849101
0.004884711
0.004908966
0.00492131
0.004920725
0.004906267
0.00487702
0.004832222
0.004771336
0.004694224
0.004601132
0.004492694
0.004369901
0.004234624
0.004093916
0.003952288
0.003813144
0.00367989
0.003555674
0.003443139
0.003344235
0.003260132
0.003191256
0.003137375
0.00309776
0.003071322
0.003056755
0.003052604
0.00305738
0.003069571
0.003087653
0.003110011
0.003136442
0.003168468
0.003207418
0.003253265
0.003304168
0.003361442
0.003425138
0.003494936
0.003570552
0.003651874
0.003738815
0.003831147
0.003928394
0.004029942
0.004134951
0.004242415
0.004351213
0.004460133
0.004567891
0.004673165
0.004774603
0.004870898
0.004960656
0.005042354
0.005114207
0.005174087
0.005219556
0.005247807
0.005255707
0.005239835
0.0051965
0.005121786
0.005011575
0.004865373
0.004690069
0.004491492
0.004277364
0.004056896
0.003839651
0.003634765
0.003449881
0.003290407
0.003159239
0.003056968
0.002982405
0.002933073
0.002905883
0.002897487
0.002904614
0.00292424
0.002953694
0.002990779
0.003033474
0.003079903
0.003128193
0.003176468
0.003222725
0.003265183
0.003301142
0.003328648
0.003345991
0.003351365
0.003343339
0.003321381
0.003285929
0.003238419
0.003181423
0.003118483
0.00305351
0.002990119
0.002931315
0.002879322
0.002835531
0.002800611
0.00277453
0.002756836
0.002746786
0.002743485
0.002745993
0.00275342
0.002764977
0.002780009
0.00279793
0.002818177
0.002840163
0.002863304
0.00288705
0.002911004
0.002934995
0.002959122
0.002983754
0.003009478
0.003037031
0.003067212
0.003100815
0.00313862
0.003181164
0.003228641
0.003281016
0.003338066
0.003399498
0.003464953
0.003533998
0.003606016
0.003680534
0.003757439
0.003836715
0.003918382
0.004002494
0.004089055
0.004178008
0.004269315
0.004362914
0.004458703
0.004556528
0.004656179
0.004757508
0.004860378
0.004964465
0.00506936
0.005174602
0.005279705
0.005384232
0.005487763
0.005589931
0.005690418
0.005788933
0.005885175
0.005978853
0.006069602
0.006157002
0.006240559
0.006319646
0.006393539
0.006461381
0.006522298
0.006575253
0.006619513
0.006654233
0.006679943
0.00669663
0.006708907
0.006717809
4.057432e-05
6.584546e-05
0.0001470012
0.0004984452
0.000860281
0.001549525
0.002081588
0.002729264
0.003474167
0.004086523
0.004535977
0.004896062
0.005251117
0.005608128
0.005974642
0.006343322
0.006713569
0.007067461
0.00739643
0.007716072
0.008021507
0.008298551
0.008523153
0.008707415
0.008871341
0.00901399
0.009132593
0.009226013
0.009293226
0.009348508
0.009423105
0.009431425
0.009127264
0.008878766
0.008662287
0.008484392
0.008346328
0.008248453
0.008190809
0.008164649
0.008150073
0.008166011
0.008209509
0.00827577
0.008361723
0.008468594
0.008595699
0.008739501
0.008899287
0.009080419
0.009270273
0.00943679
0.009622386
0.009818608
0.009864919
0.00987872
0.009888719
0.009894939
0.009898076
0.009898863
0.009897952
0.009895768
0.009892291
0.009887158
0.009880333
0.009871558
0.009861733
0.009851985
0.009820489
0.009793416
0.009770308
0.009750551
0.009733716
0.009719344
0.009706895
0.009695778
0.009685486
0.009675545
0.009665644
0.009656048
0.009647214
0.009639714
0.009634286
0.009631493
0.009631396
0.009633542
0.00963694
0.009640273
0.009642653
0.009644045
0.009645125
0.0096472
0.009651762
0.009659817
0.009671632
0.009686147
0.009701261
0.009715032
0.009726367
0.00973526
0.009743035
0.009751726
0.009763528
0.009779792
0.009800858
0.009825165
0.009849626
0.00987222
0.009891619
0.009907723
0.009921864
0.009936192
0.009952832
0.009973099
0.009997022
0.01
0.01
0.01
0.01
0.01
0.01
0.01
0.01
0.01
0.01
0.01
0.01
0.01
0.01
0.01
0.01
0.01
0.01
0.01
0.01
0.01
0.01
0.01
0.01
0.01
0.01
0.01
0.01
0.01
0.01
0.01
0.01
0.01
0.01
0.01
0.01
0.01
0.01
0.009982394
0.009938347
0.009893334
0.009848401
0.009801599
0.009752163
0.009700198
0.009646518
0.009592799
0.009540653
0.009490816
0.009442986
0.009396159
0.009349221
0.009301382
0.009252321
0.00920228
0.009151955
0.009101933
0.009052449
0.009003084
0.008953123
0.00890186
0.008848716
0.008793434
0.008736335
0.008678242
0.008620004
0.008562011
0.008504022
0.008445379
0.008385358
0.008323489
0.008259805
0.008194827
0.008129376
0.008064059
0.007998705
0.007932449
0.007863969
0.007791566
0.007713988
0.007631308
0.007545012
0.007457652
0.007372494
0.007293203
0.007223611
0.007167749
0.007129741
0.007113945
0.007124601
0.007165356
0.007238852
0.00734542
0.0074821
0.007649922
0.007845472
0.008062595
0.008292921
0.008527187
0.008756453
0.008972565
0.009166216
0.009324611
0.009431217
0.009464068
0.009399965
0.00921901
0.008921323
0.008508928
0.008005225
0.007453046
0.006903222
0.006399827
0.00597154
0.005631012
0.005378974
0.00520976
0.005115323
0.005087628
0.005119827
0.005205489
0.00534473
0.005542723
0.005796053
0.00609504
0.00642106
0.006748807
0.007053022
0.007316204
0.007528294
0.007687112
0.007792889
0.007845124
0.007839386
0.007772899
0.007638504
0.007430578
0.007148758
0.006802595
0.006411831
0.005992026
0.005566186
0.005156065
0.004779105
0.004447513
0.004168417
0.003944465
0.003774589
0.003655017
0.003580344
0.003544527
0.003541602
0.003566068
0.003613113
0.003678781
0.003759935
0.003854028
0.003958856
0.004071839
0.004190609
0.004318064
0.004454599
0.004598555
0.004748104
0.004901105
0.005055328
0.00520836
0.005357745
0.005501132
0.00563636
0.005761718
0.005875953
0.00597829
0.006068395
0.006146229
0.006211844
0.006264988
0.006304905
0.006330513
0.006340543
0.006333631
0.006308464
0.006263835
0.006198808
0.006112805
0.006005608
0.005877218
0.005728455
0.005566316
0.005395354
0.005220108
0.00504523
0.004875224
0.004714176
0.004565496
0.004431787
0.004314734
0.004215201
0.004133272
0.004068518
0.004020025
0.003986722
0.003967227
0.00396021
0.003964222
0.003977946
0.003999522
0.004027482
0.004063768
0.004110865
0.00416874
0.004237554
0.004317546
0.00440883
0.004511397
0.004625076
0.004749429
0.004883657
0.005026593
0.005176735
0.005332297
0.005491319
0.005651771
0.005811602
0.005968812
0.006121565
0.006268143
0.006406924
0.006536147
0.006653772
0.006757406
0.006844298
0.006911405
0.006955457
0.00697298
0.006960309
0.006913607
0.006828939
0.006702378
0.006536474
0.006334513
0.006101226
0.005843405
0.005569712
0.005290163
0.005015231
0.004754738
0.004516862
0.004307577
0.00413036
0.003986445
0.003874975
0.003793764
0.003739789
0.003709669
0.00369993
0.003707344
0.003728895
0.003761814
0.003803528
0.003851604
0.003903555
0.003956938
0.004009078
0.00405725
0.004098613
0.004130288
0.004149569
0.004154183
0.004142528
0.004113882
0.004068685
0.004008701
0.003936845
0.003856861
0.003772852
0.003688979
0.003609058
0.003536237
0.003472768
0.00341996
0.00337825
0.003347353
0.003326474
0.003314499
0.003310221
0.003312421
0.003319956
0.003331755
0.003346797
0.003364096
0.00338274
0.003401941
0.003421116
0.003439956
0.003458465
0.003476967
0.003496046
0.003516412
0.003530083
0.003535858
0.003547572
0.003566917
0.003595397
0.003634303
0.003685163
0.003749645
0.003828785
0.003922559
0.004028392
0.004122084
0.00420792
0.004298103
0.004392463
0.004490884
0.004593156
0.004698886
0.004807599
0.004918814
0.005032037
0.00514676
0.005262335
0.005378077
0.005493456
0.005607956
0.005720994
0.005832102
0.005940946
0.006047332
0.006151199
0.006252608
0.0063517
0.006448658
0.006543643
0.006636779
0.00672809
0.006817488
0.006904705
0.006989276
0.007070442
0.007147285
0.007218546
0.007283289
0.007340187
0.007389511
0.007430085
0.007465682
0.007494517
2.281014e-05
3.695825e-05
5.584386e-05
0.0002433532
0.0003989064
0.0006779244
0.0009536983
0.001207041
0.00152619
0.00183837
0.002177201
0.002617702
0.003140337
0.003734363
0.004405089
0.005263691
0.006886354
0.007543442
0.008174765
0.008741832
0.009237387
0.009658822
0.01
0.01
0.01
0.01
0.01
0.01
0.01
0.01
0.01
0.01
0.01
0.01
0.01
0.01
0.01
0.01
0.01
0.009585776
0.009021662
0.008510183
0.008329401
0.008069686
0.007808216
0.00758793
0.007410096
0.007274708
0.007180487
0.007125674
0.007103181
0.007106046
0.007133136
0.007185921
0.007263927
0.007364374
0.007488901
0.007638218
0.007813038
0.008015307
0.008239092
0.008495264
0.008760201
0.009029323
0.009307535
0.0095936
0.009919871
0.01
0.01
0.01
0.01
0.01
0.01
0.01
0.01
0.01
0.01
0.01
0.01
0.01
0.01
0.01
0.01
0.01
0.01
0.01
0.01
0.01
0.01
0.01
0.01
0.01
0.01
0.01
0.01
0.01
0.01
0.01
0.01
0.01
0.01
0.01
0.01
0.01
0.01
0.01
0.01
0.01
0.01
0.01
0.01
0.01
0.01
0.01
0.01
0.01
0.01
0.01
0.01
0.01
0.01
0.01
0.01
0.01
0.01
0.01
0.01
0.01
0.01
0.01
0.01
0.01
0.01
0.01
0.01
0.01
0.01
0.01
0.01
0.01
0.01
0.01
0.01
0.01
0.01
0.01
0.01
0.01
0.01
0.01
0.01
0.01
0.01
0.01
0.01
0.01
0.01
0.01
0.01
0.01
0.01
0.01
0.01
0.01
0.01
0.01
0.01
0.01
0.01
0.01
0.01
0.01
0.01
0.01
0.01
0.01
0.01
0.01
0.01
0.01
0.01
0.009966944
0.009882505
0.009799022
0.009717272
0.009637496
0.00955949
0.009482635
0.009406077
0.009329345
0.009252952
0.009178239
0.009106697
0.009039369
0.008976637
0.008918213
0.008863295
0.008811005
0.008760906
0.008713424
0.008669667
0.008630779
0.008597242
0.008568592
0.008543005
0.008517675
0.008489759
0.008457299
0.008419949
0.008379221
0.008337916
0.008299239
0.008266443
0.008242816
0.008231694
0.008236244
0.008258821
0.008299988
0.008357351
0.008425031
0.008507323
0.008619876
0.00877397
0.008970008
0.009201381
0.009454966
0.009715743
0.009966928
0.01
0.01
0.01
0.01
0.01
0.009981748
0.009669819
0.009290532
0.008857531
0.008395486
0.007936149
0.00751035
0.007141932
0.006845271
0.006626206
0.006484667
0.006417593
0.006421513
0.006494006
0.006635427
0.006849205
0.007128137
0.007453793
0.007796859
0.008125169
0.008413678
0.008649496
0.008829426
0.008955577
0.009032844
0.009066826
0.009060944
0.009013936
0.008921173
0.008776525
0.008574833
0.008314474
0.007998501
0.007634364
0.007235193
0.006818873
0.006404555
0.006009718
0.005648384
0.005330439
0.00506163
0.004843982
0.004676553
0.00455638
0.004479331
0.004440727
0.004435824
0.00446019
0.004509886
0.004581542
0.004672282
0.004779429
0.00490019
0.005031011
0.005173149
0.005327579
0.005491901
0.005663515
0.005839512
0.00601677
0.006192146
0.006362664
0.006525715
0.006679257
0.006821938
0.006953092
0.007072575
0.007180565
0.007277283
0.007362622
0.00743589
0.007495863
0.007540994
0.007569538
0.007579707
0.007569784
0.007538312
0.007484208
0.007406841
0.007305887
0.007181069
0.007034234
0.006870452
0.006693277
0.006506856
0.006315743
0.006124651
0.005938154
0.005760423
0.005594967
0.005444525
0.005310984
0.005195472
0.005098442
0.005019784
0.004958999
0.004915365
0.004887986
0.004875895
0.004878018
0.004893197
0.004919937
0.00495758
0.005009733
0.005077984
0.005162752
0.00526434
0.00538279
0.00551778
0.005668508
0.005833594
0.006011098
0.006198597
0.006393301
0.006592228
0.006792438
0.006991144
0.007185748
0.007374068
0.00755424
0.007724527
0.007883153
0.008028153
0.00815723
0.008267778
0.008357006
0.008422057
0.008460024
0.008467947
0.008442848
0.008381793
0.008281852
0.008141981
0.007964394
0.007750895
0.007504795
0.00723122
0.006937222
0.006631434
0.006323446
0.006023002
0.005739096
0.005479198
0.005248756
0.00505094
0.004886871
0.004756078
0.004656889
0.004586701
0.004542551
0.004521279
0.004519721
0.004534801
0.004563538
0.004602976
0.004650174
0.004702107
0.004755633
0.004807515
0.004854416
0.004892962
0.004919892
0.004932251
0.004927607
0.004904359
0.004862025
0.004801377
0.004724435
0.004634366
0.004535256
0.004431742
0.00432855
0.004230024
0.004139747
0.004060296
0.003993172
0.003938874
0.003897085
0.003866905
0.003847082
0.003836189
0.003832747
0.003835273
0.003842323
0.003852517
0.003864594
0.003877463
0.003890279
0.003902516
0.003914027
0.003925043
0.003936138
0.003948152
0.003962079
0.003978961
0.003999754
0.004025182
0.004055605
0.00405879
0.004069387
0.004092567
0.004129317
0.004179932
0.004244612
0.004323624
0.004416252
0.004521907
0.004640873
0.004770709
0.004901172
0.005008552
0.005119474
0.005233304
0.00534928
0.005466574
0.00558431
0.005701557
0.005817483
0.005931449
0.006042933
0.006151624
0.006257431
0.006360477
0.006461073
0.006559675
0.006656823
0.006753065
0.006848895
0.00694469
0.007040677
0.007136854
0.007232945
0.007328275
0.007421888
0.007512381
0.007598601
0.007678932
0.007753193
0.007819612
0.007881057
0.007933276
2.091377e-05
3.223576e-05
6.415445e-05
0.0001944085
0.0003123128
0.0004963644
0.0006359371
0.0007940853
0.0009804463
0.001162271
0.001375209
0.001650754
0.001965274
0.002340381
0.002828925
0.003768627
0.004212059
0.004690138
0.005194049
0.005722448
0.006280372
0.006858147
0.007439137
0.008007637
0.008546428
0.009047814
0.009527347
0.01
0.01
0.01
0.01
0.01
0.01
0.01
0.01
0.01
0.01
0.01
0.01
0.01
0.01
0.01
0.01
0.01
0.01
0.01
0.009847257
0.009386803
0.008912492
0.008453285
0.008018529
0.007624255
0.007303055
0.007001902
0.006763678
0.006581144
0.006444499
0.006351776
0.006302315
0.006293578
0.006321113
0.006380002
0.006465041
0.006575435
0.006710896
0.006870365
0.007063232
0.00729044
0.007572711
0.007919608
0.00832089
0.00875555
0.009197686
0.009613213
0.01
0.01
0.01
0.01
0.01
0.01
0.01
0.01
0.01
0.01
0.01
0.01
0.01
0.01
0.01
0.01
0.01
0.01
0.01
0.01
0.01
0.01
0.01
0.01
0.01
0.01
0.01
0.01
0.01
0.01
0.01
0.01
0.01
0.01
0.01
0.01
0.01
0.01
0.01
0.01
0.01
0.01
0.01
0.01
0.01
0.01
0.01
0.01
0.01
0.01
0.01
0.01
0.01
0.01
0.01
0.01
0.01
0.01
0.01
0.01
0.01
0.01
0.01
0.01
0.01
0.01
0.01
0.01
0.01
0.01
0.01
0.01
0.01
0.01
0.01
0.01
0.01
0.01
0.01
0.01
0.01
0.01
0.01
0.01
0.01
0.01
0.01
0.01
0.01
0.01
0.01
0.01
0.01
0.01
0.01
0.01
0.01
0.01
0.01
0.01
0.01
0.01
0.01
0.01
0.01
0.01
0.01
0.01
0.009989824
0.009877247
0.009767258
0.009663549
0.009568249
0.009481047
0.009399515
0.00931973
0.009237416
0.009150239
0.009058961
0.008966489
0.008875993
0.008789796
0.008709019
0.008633289
0.008560736
0.008489188
0.008417962
0.008348571
0.00828391
0.008226822
0.008179138
0.008141299
0.008112172
0.008089488
0.008070969
0.00805587
0.008045864
0.008043821
0.008052621
0.008074869
0.008110225
0.008155071
0.008204293
0.008252272
0.008294963
0.008331627
0.008364158
0.008394866
0.008425038
0.008454829
0.008483602
0.008510576
0.008535418
0.008558993
0.008584696
0.008620969
0.008695214
0.00884716
0.009092495
0.009417259
0.009791449
0.01
0.01000002
0.01000008
0.01000019
0.01000027
0.01000027
0.01000024
0.01000013
0.01000003
0.01
0.01
0.009886568
0.009463304
0.009044631
0.00864745
0.008289913
0.007988874
0.007755732
0.007596221
0.007512078
0.007503578
0.007573037
0.007724043
0.007954103
0.008250706
0.008586266
0.00892522
0.009236968
0.009500165
0.009705758
0.009853558
0.009947902
0.009996189
0.01
0.009989798
0.009943426
0.009864892
0.00974988
0.009593999
0.009393919
0.00914805
0.00885685
0.008525653
0.008164198
0.007785215
0.00740289
0.007031107
0.006682119
0.006365763
0.006089051
0.005856136
0.005668605
0.005525932
0.00542601
0.005365713
0.005341434
0.005349499
0.005386446
0.005449149
0.005534768
0.005640626
0.005763734
0.005900447
0.006051048
0.006215619
0.006390928
0.006573417
0.006759347
0.00694502
0.007127016
0.007302451
0.007469243
0.007626263
0.007773222
0.007910383
0.008038187
0.008156833
0.008265974
0.008364539
0.008450789
0.008522645
0.008578066
0.00861513
0.008632106
0.008627628
0.008600891
0.008551628
0.008479818
0.008385319
0.008267804
0.008130236
0.007974877
0.007804486
0.007622456
0.007432722
0.007239564
0.00704737
0.006860357
0.00668235
0.006516595
0.006365678
0.006231486
0.006115277
0.00601776
0.00593925
0.005879781
0.005839195
0.005817219
0.005813479
0.005827462
0.0058584
0.005905126
0.005970637
0.006057801
0.006166981
0.006298085
0.006450425
0.00662255
0.006812179
0.007016282
0.007231283
0.007453266
0.007678196
0.00790231
0.008122314
0.008335467
0.008539766
0.008733721
0.008915766
0.009084009
0.009237074
0.009372985
0.009489392
0.009583896
0.009654218
0.009698179
0.009713664
0.009698678
0.00965145
0.00957044
0.009454537
0.009304994
0.009122303
0.008907291
0.008661588
0.008389556
0.008097041
0.00779111
0.007479757
0.007171433
0.006874347
0.006595747
0.006341451
0.006115679
0.005921041
0.005758656
0.005628102
0.005527946
0.005456088
0.00541
0.005386877
0.005383736
0.005397478
0.005424918