/*--------------------------------*- C++ -*----------------------------------*\
| =========                 |                                                 |
| \\      /  F ield         | foam-extend: Open Source CFD                    |
|  \\    /   O peration     | Version:     3.1                                |
|   \\  /    A nd           | Web:         http://www.extend-project.de       |
|    \\/     M anipulation  |                                                 |
\*---------------------------------------------------------------------------*/
FoamFile
{
    version     2.0;
    format      ascii;
    class       volScalarField;
    location    "18";
    object      p;
}
// * * * * * * * * * * * * * * * * * * * * * * * * * * * * * * * * * * * * * //

dimensions      [1 -1 -2 0 0 0 0];

internalField   nonuniform List<scalar> 
119952
(
4826.401
3070.376
2819.418
3056.03
3308.674
3078.319
3003.287
2941.052
2897.997
2863.338
2833.569
2807.887
2785.176
2764.258
2744.161
2723.871
2701.972
2675.407
2630.077
2503.37
2904.184
2665.503
2541.248
3088.304
3039.993
3071.929
3120.093
3258.064
3730.453
7241.349
2713.812
2660.097
2659.46
2651.373
2644.49
2634.289
2631.316
2630.195
2625.892
2596.493
2567.733
2581.611
2570.697
2562.122
2554.272
2547.979
2543.327
2538.959
2536.437
2524.638
2520.984
2497.567
2490.45
2489.777
2488.547
2488.452
2489.525
2490.44
2500.071
2497.679
2497.544
2509.579
2521.627
2533.55
2547.079
2562.21
2588.999
2679.679
2868.335
2716.588
2652.972
2746.19
2786.376
2755.024
2692.875
2647.734
2612.09
2580.402
2552.835
2529.259
2508.418
2489.14
2470.641
2452.109
2432.681
2411.792
2390.898
2377.472
2398.916
2425.021
2415.077
2532.987
2717.761
2754.637
2765.128
2777.625
2683.801
2347.084
2260.426
2342.465
2369.027
2391.292
2416.178
2435.691
2452.82
2469.473
2485.896
2502.401
2519.147
2536.154
2553.404
2570.876
2588.556
2606.477
2624.73
2643.451
2662.785
2682.839
2703.664
2725.262
2747.592
2770.605
2794.305
2818.747
2843.985
2870.012
2896.713
2923.863
2951.139
2978.144
3004.451
3029.657
3053.437
3075.598
3096.127
3115.187
3133.083
3150.228
3167.103
3184.208
3201.984
3220.763
3240.727
3261.79
3283.748
3306.498
3332.118
3362.587
3389.998
3409.103
3426.336
3440.872
3451.856
3458.734
3461.639
3460.508
3455.835
3449.3
3444.325
3442.925
3450.048
3473.45
3515.748
3576.43
3652.914
3738.004
3820.725
3894.39
3962.633
4035.39
4117.548
4207.223
4300.062
4393.744
4483.864
4568.306
4645.728
4714.59
4773.228
4821.143
4857.365
4881.028
4891.88
4890.521
4877.507
4855.237
4827.715
4799.107
4773.514
4754.879
4745.598
4747.478
4760.518
4782.716
4804.364
4809.862
4820.716
4930.162
4966.175
4992.978
5030.626
5070.187
5107.737
5141.778
5175.381
5210.841
5249.667
5292.133
5337.664
5384.887
5432.215
5479.186
5525.413
5570.821
5615.383
5658.969
5701.54
5743.05
5783.416
5822.523
5860.265
5896.544
5931.26
5964.318
5995.592
6024.942
6052.206
6077.061
6099.21
6118.158
6132.93
6140.902
6143.048
6177.911
6204.221
6226.048
6244.124
6259.451
6272.466
6283.51
6293.022
6301.572
6309.705
6317.81
6326.051
6334.372
6342.625
6350.668
6358.407
6365.818
6372.945
6379.845
6386.612
6393.347
6400.087
6406.957
6414.084
6421.242
6428.712
6436.537
6444.699
6453.207
6461.976
6471.018
6480.303
6489.643
6497.902
6499.325
6502.382
6496.464
6503.631
6512.619
6519.657
6526.355
6532.89
6539.203
6545.024
6550.213
6554.763
6558.699
6562.061
6564.895
6567.252
6569.19
6570.769
6572.046
6573.063
6573.83
6574.304
6574.511
6574.645
6574.708
6574.715
6574.723
6574.746
6574.984
6575.705
6576.724
6578.087
6579.789
6581.772
6583.95
6586.248
6588.633
6591.156
6593.937
6597.125
6600.848
6605.183
6610.296
6616.165
6622.851
6629.622
6635.015
6640.378
6646.817
6654.15
6662.199
6670.933
6679.982
6685.894
6689.104
6702.62
6716.142
6726.002
6735.731
6745.334
6754.306
6762.576
6770.084
6776.707
6782.772
6788.659
6794.073
6798.839
6802.866
6806.153
6808.715
6810.568
6811.749
6812.343
6812.411
6812.015
6811.223
6810.115
6808.768
6807.269
6805.668
6803.989
6802.206
6800.282
6798.156
6795.779
6793.114
6790.129
6786.808
6783.151
6779.176
6774.912
6770.39
6765.664
6760.796
6755.822
6750.771
6745.684
6740.567
6735.423
6730.241
6725.009
6719.702
6714.281
6708.709
6702.956
6697
6690.829
6684.442
6677.848
6671.068
6664.135
6657.098
6650.02
6642.973
6636.039
6629.303
6622.857
6616.793
6611.197
6606.149
6601.719
6597.959
6594.902
6592.553
6590.888
6589.851
6589.351
6589.258
6589.402
6589.569
6589.485
6588.79
6586.994
6583.241
6577.127
6570.566
6582.982
6656.889
5077.338
4926.609
4748.511
4582.679
4424.562
4274.266
4131.996
3997.299
3871.926
3722.194
3609.531
3506.499
3408.74
3319.02
3237.755
3163.694
3097.256
3031.093
2932.041
2902.629
2844.342
2789.524
2745.634
2707.724
2673.667
2643.43
2615.559
2591.558
2573.695
2538.399
2516.743
2498.725
2480.028
2463.415
2448.574
2434.993
2424.688
2422.831
2395.863
2376.885
2368.454
2359.841
2350.092
2340.948
2332.647
2325.185
2318.802
2305.702
2301.375
2296.611
2289.146
2280.947
2273.458
2267.058
2262.661
2267.528
2180.334
2179.276
2182.931
2184.29
2182.688
2180.148
2178.577
2178.692
2180.34
2182.517
2188.441
2197.775
2207.288
2217.024
2228.775
2244.625
2267.584
2301.277
2341.336
2376.181
2382.92
2371.486
2372.437
2375.198
2365.511
2340.574
2308.564
2277.59
2250.87
2228.313
2208.548
2190.703
2174.046
2158.146
2142.83
2128.361
2116.024
2108.43
2108.751
2120.964
2146.32
2184.334
2236.84
2297.396
2337.196
2339.647
2305.749
2238.707
2148.744
2081.262
2069.131
2084.442
2104.511
2123.243
2139.189
2153.791
2168.774
2184.502
2200.774
2217.462
2234.476
2251.754
2269.247
2286.886
2304.674
2322.727
2341.232
2360.402
2380.41
2401.33
2423.133
2445.687
2468.868
2492.696
2517.314
2542.854
2569.329
2596.63
2624.52
2652.595
2680.317
2707.075
2732.306
2755.594
2776.676
2795.698
2813.158
2829.627
2845.824
2862.565
2880.481
2900.007
2921.362
2944.544
2969.301
2995.404
3022.358
3049.728
3076.454
3101.434
3121.589
3137.921
3149.492
3156.544
3158.658
3155.527
3146.919
3133.331
3116.786
3100.995
3091.351
3093.336
3112.58
3151.965
3211.564
3286.029
3371.019
3462.366
3556.347
3652.107
3750.784
3852.274
3954.352
4054.191
4149.749
4239.419
4321.133
4393.803
4456.835
4508.346
4548.527
4575.994
4589.949
4590.572
4578.828
4556.478
4526.326
4492.544
4459.331
4430.924
4410.868
4400.867
4401.709
4412.759
4432.582
4456.999
4486.503
4517.203
4632.182
4680.382
4721.243
4762.33
4802.265
4840.544
4876.632
4912.367
4949.862
4989.999
5032.718
5077.429
5122.662
5168.093
5213.318
5258.056
5302.269
5345.874
5388.575
5430.124
5470.756
5510.336
5548.724
5585.81
5621.495
5655.685
5688.275
5719.144
5748.143
5775.092
5799.788
5821.978
5841.386
5857.918
5872.458
5887.847
5908.381
5931.237
5950.678
5967.59
5982.41
5995.263
6006.492
6016.488
6025.676
6034.47
6043.109
6051.696
6060.4
6068.974
6077.335
6085.394
6093.119
6100.522
6107.65
6114.57
6121.352
6128.138
6134.977
6141.895
6148.961
6156.269
6163.932
6171.881
6180.155
6188.652
6197.358
6206.269
6215.615
6228.594
6174.047
6184.889
6194.06
6201.604
6207.971
6213.861
6219.809
6225.849
6231.652
6236.947
6241.628
6245.701
6249.213
6252.212
6254.744
6256.84
6258.552
6259.946
6261.063
6261.921
6262.544
6262.95
6263.147
6263.225
6263.225
6263.2
6263.264
6263.552
6263.897
6264.795
6266.01
6267.674
6269.781
6272.295
6275.167
6278.321
6281.692
6285.258
6289.032
6293.045
6297.349
6302.008
6307.056
6312.468
6318.16
6323.97
6329.768
6335.772
6342.323
6349.559
6357.466
6365.993
6374.922
6383.569
6391.308
6399.773
6409.946
6420.71
6430.947
6440.462
6449.429
6457.892
6465.731
6472.92
6479.516
6485.62
6491.149
6495.972
6500.01
6503.244
6505.679
6507.352
6508.327
6508.688
6508.528
6507.926
6506.962
6505.715
6504.259
6502.659
6500.962
6499.181
6497.301
6495.283
6493.077
6490.627
6487.885
6484.811
6481.385
6477.606
6473.484
6469.048
6464.348
6459.439
6454.374
6449.263
6444.055
6438.83
6433.59
6428.361
6423.07
6417.781
6412.433
6406.979
6401.386
6395.619
6389.658
6383.486
6377.095
6370.489
6363.688
6356.713
6349.611
6342.446
6335.293
6328.226
6321.331
6314.699
6308.422
6302.587
6297.276
6292.559
6288.492
6285.109
6282.419
6280.402
6279.01
6278.161
6277.749
6277.63
6277.653
6277.621
6277.371
6276.986
6276.564
6277.101
6281.814
6293.732
6313.885
2879.154
2947.383
3038.17
3148.208
3275.514
3418.927
3578.083
3752.192
3939.385
4134.652
4323.55
4536.298
4752.675
4972.433
5193.1
5409.139
5618.948
5816.656
5998.829
6149.193
6289.418
6404.663
6493.147
6552.718
6581.836
6580.073
6547.969
6487.363
6403.777
6293.148
6162.833
6014.004
5851.405
5678.024
5496.939
5311.189
5124.172
4939.461
4746.057
4568.757
4396.351
4230.818
4073.516
3923.58
3781.475
3647.544
3522.514
3404.891
3291.356
3189.419
3095.672
3008.822
2929.895
2858.008
2793.052
2743.104
2588.084
2536.55
2495.248
2454.975
2415.577
2379.059
2346.486
2317.661
2291.892
2267.616
2244.302
2223.693
2203.768
2183.69
2164.573
2147.562
2132.795
2119.999
2108.433
2096.935
2086.192
2075.244
2063.446
2051.554
2040.456
2030.303
2021.09
2013.067
2005.678
1999.347
1993.175
1985.877
1977.851
1969.766
1961.933
1954.746
1948.143
1942.744
1938.436
1937.553
1937.883
1935.944
1932.56
1929.264
1927.07
1926.674
1927.825
1931.092
1937.178
1944.954
1953.901
1964.237
1976.493
1991.662
2010.335
2031.853
2055.358
2079.725
2093.06
2090.364
2085.17
2084.494
2079.137
2062.404
2037.586
2011.729
1988.788
1969.444
1952.968
1938.072
1924.123
1910.925
1898.668
1887.813
1879.215
1874.402
1876.675
1887.659
1907.683
1933.973
1967.98
2004.266
2026.512
2026.864
2004.487
1965.381
1913.507
1865.089
1846.334
1853.721
1869.26
1885.294
1899.14
1911.992
1925.724
1940.658
1956.46
1972.877
1989.728
2006.926
2024.396
2041.9
2059.37
2076.997
2095.055
2113.813
2133.489
2154.239
2176.091
2198.768
2221.929
2245.621
2270.142
2295.767
2322.597
2350.566
2379.444
2408.749
2437.781
2465.651
2491.471
2514.625
2534.725
2552.012
2567.385
2581.835
2596.449
2612.498
2630.836
2651.904
2675.835
2702.419
2731.242
2761.464
2792.207
2822.43
2850.886
2876.724
2898.158
2914.137
2924.832
2929.131
2926.931
2917.504
2900.187
2875.106
2844.306
2812.522
2786.845
2774.888
2784.087
2818.006
2874.418
2948.083
3036.841
3138.198
3249.252
3367.271
3489.613
3612.911
3733.419
3847.855
3953.852
4049.694
4134.076
4206.607
4267.319
4314.956
4348.779
4368.159
4372.364
4361.913
4338.328
4303.698
4261.898
4218.124
4177.33
4143.087
4118.124
4104.393
4102.547
4112.867
4132.975
4160.737
4192.712
4232.538
4279.896
4336.569
4390.539
4440.83
4488.932
4535.385
4580.115
4623.715
4667.082
4711.009
4755.699
4800.662
4845.365
4889.465
4933.017
4976.03
5018.248
5059.728
5100.746
5140.845
5180.13
5218.43
5255.6
5291.545
5326.185
5359.438
5391.199
5421.346
5449.735
5476.21
5500.625
5522.895
5543.075
5561.493
5578.839
5596.102
5613.991
5632.008
5648.877
5663.883
5676.996
5688.497
5698.75
5708.122
5716.958
5725.58
5734.229
5742.856
5751.613
5760.54
5769.364
5778.015
5786.45
5794.65
5802.624
5810.397
5818.018
5825.538
5833.012
5840.5
5848.056
5855.732
5863.594
5871.628
5879.79
5888.38
5896.716
5905.32
5913.919
5923.381
5933.505
5941.081
5947.412
5953.971
5960.804
5967.465
5973.77
5979.71
5985.212
5990.158
5994.477
5998.171
6001.296
6003.94
6006.179
6008.024
6009.494
6010.67
6011.6
6012.295
6012.777
6013.049
6013.09
6013.013
6012.872
6012.726
6012.671
6012.805
6013.2
6013.783
6014.897
6016.573
6018.826
6021.637
6024.948
6028.676
6032.732
6037.071
6041.644
6046.388
6051.32
6056.449
6061.798
6067.33
6073.038
6078.914
6084.962
6091.175
6097.727
6104.808
6112.476
6120.642
6129.105
6137.891
6147.662
6157.778
6167.533
6176.936
6186.141
6195.143
6203.906
6212.379
6220.407
6227.847
6234.724
6241.098
6246.883
6251.951
6256.213
6259.652
6262.302
6264.188
6265.342
6265.833
6265.746
6265.17
6264.189
6262.899
6261.391
6259.728
6257.959
6256.105
6254.156
6252.081
6249.836
6247.365
6244.618
6241.553
6238.151
6234.417
6230.353
6225.945
6221.218
6216.241
6211.089
6205.851
6200.552
6195.208
6189.836
6184.439
6179.135
6173.826
6168.463
6162.992
6157.392
6151.607
6145.639
6139.467
6133.074
6126.453
6119.632
6112.603
6105.423
6098.143
6090.846
6083.607
6076.509
6069.641
6063.093
6056.956
6051.315
6046.246
6041.81
6038.048
6034.977
6032.588
6030.843
6029.677
6029.007
6028.718
6028.712
6028.854
6029.18
6029.721
6031.03
6033.331
6038.233
6045.66
6060.025
2593.386
2569.157
2544.365
2507.485
2487.484
2447.776
2453.776
2477.755
2516.649
2536.785
2540.742
2563.781
2609.928
2676.027
2761.965
2865.355
2985.284
3121.706
3271.455
3435.372
3612.666
3801.027
3997.91
4202.256
4411.997
4624.729
4837.805
5048.569
5253.264
5447.583
5628.438
5771.045
5911.736
6024.318
6107.774
6161.324
6183.906
6175.424
6137.161
6071.485
5981.357
5868.712
5735.695
5585.515
5421.625
5247.267
5065.617
4879.805
4692.771
4507.343
4325.851
4150.6
3982.395
3821.943
3669.262
3524.571
3387.949
3258.996
3137.56
3023.747
2917.638
2819.515
2729.721
2647.962
2573.577
2505.649
2443.153
2384.732
2326.962
2277.047
2234.503
2193.642
2154.153
2118.179
2086.669
2059.194
2034.601
2012.123
1991.302
1970.883
1950.41
1930.552
1911.979
1895.365
1880.815
1868.238
1857.512
1848.11
1838.444
1827.122
1814.958
1802.962
1792.053
1781.683
1771.31
1763.584
1757.626
1751.778
1745.493
1738.684
1731.029
1722.626
1713.944
1705.9
1698.415
1693.607
1691.046
1689.585
1688.304
1686.119
1683.039
1679.67
1676.685
1675.058
1675.803
1678.592
1683.943
1691.792
1701.006
1711.129
1721.945
1733.739
1746.642
1760.766
1776.074
1791.488
1802.538
1806.709
1804.821
1802.177
1796.734
1784.241
1765.559
1744.991
1726.358
1710.434
1696.996
1685.12
1673.982
1663.565
1653.862
1645.25
1637.944
1635.055
1637.854
1646.474
1660.639
1679.411
1701.776
1721.974
1733.864
1733.025
1718.103
1692.977
1662.109
1632.367
1618.949
1622.004
1632.07
1645.155
1657.352
1668.643
1681.199
1695.397
1710.876
1727.232
1744.098
1761.304
1778.804
1796.111
1813.061
1829.999
1847.391
1865.673
1885.055
1905.583
1927.388
1950.115
1973.091
1996.471
2020.806
2046.507
2073.737
2102.559
2132.845
2163.977
2194.991
2224.666
2251.634
2274.77
2293.405
2308.187
2320.246
2330.91
2342.096
2356.18
2374.201
2396.612
2423.44
2454.187
2487.993
2523.642
2559.794
2595.024
2627.945
2657.234
2681.339
2699.055
2709.464
2711.946
2706.118
2690.697
2663.69
2624.18
2573.879
2518.575
2468.785
2436.839
2433.228
2461.7
2515.892
2587.028
2677.31
2787.346
2915.801
3058.003
3207.574
3357.469
3501.698
3636.062
3757.96
3865.845
3958.835
4036.561
4098.556
4143.73
4171.467
4181.465
4173.684
4148.751
4108.521
4056.216
3997.072
3937.788
3884.463
3840.629
3808.655
3790.16
3785.985
3795.659
3817.076
3848.246
3887.735
3934.83
3989.186
4051.637
4114.67
4174.514
4231.014
4284.777
4336.383
4386.263
4434.886
4482.702
4529.755
4575.771
4620.569
4664.191
4706.801
4748.511
4789.359
4829.418
4868.873
4907.562
4945.382
4982.195
5018.009
5052.777
5086.404
5118.816
5149.918
5179.587
5207.681
5234.058
5258.607
5281.282
5302.147
5321.391
5339.362
5356.467
5373.081
5389.242
5404.399
5417.933
5429.781
5440.224
5449.63
5458.367
5466.781
5475.171
5483.703
5492.34
5500.945
5510.56
5519.966
5529.283
5538.483
5547.528
5556.39
5565.067
5573.566
5581.919
5590.147
5598.299
5606.408
5614.528
5622.682
5630.9
5639.188
5647.667
5656.248
5664.955
5673.951
5683.335
5690.695
5698.201
5705.193
5712.177
5719.2
5725.844
5731.851
5737.233
5742.052
5746.307
5749.969
5753.035
5755.523
5757.556
5759.294
5760.676
5761.738
5762.617
5763.304
5763.804
5764.087
5764.16
5764.021
5763.705
5763.252
5762.761
5762.321
5762.019
5761.971
5762.273
5763.069
5764.448
5766.488
5769.194
5772.519
5776.389
5780.724
5785.476
5790.606
5796.063
5801.776
5807.68
5813.86
5820.072
5826.338
5832.671
5839.109
5845.657
5852.44
5859.603
5867.227
5875.304
5883.802
5892.769
5902.153
5911.5
5920.7
5929.905
5939.127
5948.236
5957.109
5965.646
5973.74
5981.323
5988.391
5994.94
6000.906
6006.203
6010.764
6014.551
6017.549
6019.756
6021.198
6021.933
6022.046
6021.627
6020.77
6019.57
6018.112
6016.47
6014.694
6012.809
6010.815
6008.693
6006.408
6003.914
6001.163
5998.111
5994.728
5991.002
5986.939
5982.551
5977.859
5972.919
5967.816
5962.638
5957.39
5952.055
5946.668
5941.25
5935.834
5930.409
5924.949
5919.407
5913.727
5907.9
5901.893
5895.71
5889.306
5882.639
5875.723
5868.629
5861.373
5854.006
5846.592
5839.2
5831.932
5824.874
5818.12
5811.763
5805.891
5800.583
5795.906
5791.904
5788.601
5785.992
5784.049
5782.716
5781.928
5781.589
5781.632
5781.957
5782.623
5783.603
5785.355
5787.777
5792.191
5798.164
5809.849
2857.635
2825.469
2793.571
2737.14
2687.824
2606.077
2557.557
2509.359
2462.22
2416.524
2372.35
2331.615
2293.413
2259.731
2231.905
2209.709
2134.501
2132.689
2140.251
2153.42
2168.842
2192.079
2229.322
2283.109
2353.29
2440.356
2545.36
2667.013
2804.529
2956.825
3122.544
3300.259
3488.791
3686.395
3891.003
4100.51
4312.529
4524.114
4732.309
4934.371
5127.828
5303.498
5454.526
5592.715
5705.027
5788.038
5840.581
5861.709
5851.468
5811.209
5743.358
5651.015
5537.1
5404.122
5254.749
5091.948
4918.695
4738.085
4553.271
4367.208
4183.228
4003.121
3829.108
3663.326
3506.152
3356.982
3215.575
3081.693
2955.32
2836.622
2725.677
2622.531
2527.587
2441.156
2362.941
2291.946
2227.218
2167.26
2111.649
2059.895
2012.314
1968.858
1928.149
1890.164
1856.146
1826.671
1801.168
1778.648
1758.147
1738.417
1718.437
1698.266
1678.522
1659.973
1643.906
1629.66
1617.295
1608.103
1600.063
1591.022
1580.29
1568.302
1555.506
1543.214
1532.308
1522.117
1514.846
1510.163
1505.337
1499.826
1493.319
1485.369
1476.112
1465.474
1455.524
1448.713
1444.171
1442.022
1441.291
1440.528
1438.742
1435.437
1430.988
1426.367
1422.768
1421.915
1424.001
1429.313
1437.66
1447.12
1456.23
1464.459
1472.112
1479.718
1487.775
1496.7
1506.41
1517.097
1524.548
1525.379
1522.924
1518.185
1508.455
1494.003
1477.338
1461.049
1449.371
1440.801
1431.402
1422.727
1414.965
1407.171
1399.473
1392.849
1390.436
1392.232
1398.499
1409.98
1423.52
1435.813
1446.748
1452.583
1450.007
1438.598
1422.372
1405.498
1388.782
1380.51
1382.911
1390.934
1401.921
1413.269
1423.564
1435.049
1448.567
1463.811
1480.176
1497.223
1514.86
1533.026
1550.168
1566.191
1581.899
1598.011
1615.302
1634.228
1654.73
1676.923
1699.883
1722.184
1744.722
1768.571
1794.316
1822.069
1851.967
1884.221
1918.236
1952.578
1985.356
2014.556
2038.205
2054.013
2064.024
2071.056
2076.523
2081.629
2091.861
2108.606
2132.095
2162.23
2198.217
2238.649
2281.715
2325.467
2368.091
2407.807
2442.85
2471.748
2493.13
2505.573
2507.85
2499.08
2477.639
2439.871
2382.546
2306.486
2218.622
2133.526
2072.156
2052.324
2077.315
2133.54
2199.184
2286.346
2402.968
2550.765
2721.783
2904.18
3086.648
3260.79
3421.505
3565.731
3691.648
3798.245
3884.849
3950.96
3995.871
4018.609
4018.142
3994.967
3950.914
3888.02
3810.515
3726.131
3644.422
3573.558
3517.523
3477.51
3454.222
3448.106
3458.655
3483.861
3521.37
3569.263
3625.97
3690.407
3760.587
3831.967
3900.958
3966.392
4028.4
4087.388
4143.723
4197.753
4249.775
4299.919
4348.189
4394.613
4439.3
4482.41
4524.091
4564.465
4603.676
4641.848
4679.011
4715.186
4750.378
4784.618
4817.947
4850.36
4881.783
4912.123
4941.252
4969.014
4995.242
5019.81
5042.675
5063.864
5083.445
5101.548
5118.339
5134.04
5148.714
5162.14
5173.947
5184.209
5193.237
5201.406
5209.114
5216.719
5224.527
5232.751
5241.529
5251.107
5260.228
5269.879
5279.666
5289.447
5299.155
5308.749
5318.205
5327.513
5336.7
5345.742
5354.674
5363.515
5372.3
5381.056
5389.831
5398.626
5407.461
5416.28
5425.007
5433.53
5441.092
5450.266
5458.347
5465.834
5472.945
5479.684
5485.857
5491.302
5496.009
5500.054
5503.483
5506.31
5508.569
5510.329
5511.694
5512.934
5513.838
5514.407
5514.92
5515.287
5515.546
5515.665
5515.576
5515.272
5514.748
5514
5513.13
5512.25
5511.47
5510.909
5510.683
5510.941
5511.861
5513.562
5516.071
5519.355
5523.386
5528.128
5533.413
5539.103
5545.205
5551.626
5558.173
5564.88
5571.668
5578.551
5585.445
5592.506
5599.604
5606.807
5614.235
5621.992
5630.115
5638.596
5647.39
5656.398
5665.508
5674.673
5683.871
5693.031
5702.041
5710.795
5719.213
5727.237
5734.818
5741.927
5748.537
5754.602
5760.059
5764.844
5768.908
5772.225
5774.784
5776.597
5777.697
5778.146
5778.02
5777.404
5776.385
5775.049
5773.472
5771.709
5769.794
5767.741
5765.544
5763.181
5760.62
5757.818
5754.741
5751.36
5747.654
5743.625
5739.298
5734.695
5729.85
5724.814
5719.642
5714.381
5709.059
5703.688
5698.279
5692.833
5687.38
5681.913
5676.351
5670.641
5664.759
5658.68
5652.39
5645.875
5639.119
5632.145
5624.999
5617.683
5610.226
5602.698
5595.201
5587.804
5580.608
5573.706
5567.19
5561.152
5555.673
5550.821
5546.642
5543.163
5540.382
5538.274
5536.789
5535.867
5535.428
5535.412
5535.732
5536.425
5537.426
5539.061
5541.194
5544.787
5549.376
5558.319
3059.623
3020.369
2976.769
2921.748
2880.918
2803.977
2763.491
2722.89
2681.791
2639.696
2597.291
2554.499
2509.682
2464.354
2416.292
2300.284
2251.829
2203.959
2156.74
2110.584
2066.003
2023.724
1984.26
1948.671
1917.493
1891.914
1872.926
1862.852
1860.96
1866.572
1880.223
1904.649
1942.086
1994.68
2064.389
2151.01
2254.344
2374.139
2509.707
2660.002
2823.717
2999.355
3185.598
3380.544
3582.105
3787.519
3994.151
4202.445
4405.781
4604.084
4794.778
4971.85
5128.052
5262.669
5370.857
5449.547
5497.086
5512.72
5496.839
5451.13
5378.375
5281.995
5165.433
5031.605
4882.854
4721.719
4550.551
4372.143
4189.913
4006.218
3824.738
3648.256
3478.436
3317.477
3165.899
3022.811
2887.296
2758.47
2636.687
2522.337
2415.387
2316.064
2225.041
2142.831
2069.206
2002.96
1942.804
1887.435
1836.144
1788.071
1742.545
1699.673
1659.645
1622.982
1590.85
1563.674
1540.624
1520.697
1502.537
1484.34
1465.216
1445.269
1425.069
1405.543
1388.298
1375.622
1365.448
1358.064
1352.183
1344.408
1334.314
1322.186
1308.621
1294.476
1281.428
1272.373
1266.599
1263.102
1259.462
1254.721
1248.283
1239.607
1228.705
1216.136
1204.409
1197.132
1192.962
1192.076
1193.117
1193.753
1192.27
1187.957
1181.388
1174.12
1167.97
1164.751
1165.896
1172.178
1182.074
1192.135
1199.934
1205.097
1208.632
1211.494
1213.874
1216.593
1220.711
1234.367
1244.722
1245.541
1244.936
1242.194
1234.497
1222.642
1207.996
1194.37
1186.792
1183.089
1177.682
1171.677
1165.697
1159.494
1152.545
1145.82
1141.508
1142.123
1148.02
1157.524
1166.239
1171.506
1176.792
1178.01
1172.91
1162.974
1152.276
1144.429
1139.359
1136.525
1139.592
1147.521
1157.422
1167.251
1176.233
1186.655
1199.999
1215.766
1232.485
1249.217
1266.423
1286.276
1303.914
1318.737
1332.824
1347.282
1363.256
1381.266
1400.782
1423.712
1448.328
1469.233
1490.104
1513.088
1538.7
1566.977
1598.222
1633.004
1670.995
1710.594
1748.935
1782.587
1808.12
1822.911
1825.985
1820.593
1814.45
1811.751
1816.486
1831.178
1855.901
1890.062
1932.467
1981.208
2033.811
2087.58
2140.097
2189.074
2232.403
2268.664
2296.189
2312.645
2316.827
2307.687
2281.612
2231.665
2151.913
2042.011
1908.65
1772.417
1665.273
1627.32
1669.317
1721.384
1786.946
1868.302
1987.396
2152.856
2356.533
2579.268
2801.721
3011.491
3203.785
3375.373
3524.05
3648.733
3748.544
3822.728
3870.059
3888.915
3878.239
3837.602
3769.512
3676.493
3564.201
3444.891
3333.322
3240.4
3169.343
3121.098
3094.09
3087.317
3100.82
3132.228
3178.196
3236.182
3304.34
3380.376
3461.074
3542.6
3621.804
3697.152
3768.279
3835.295
3898.562
3958.487
4015.418
4069.604
4121.176
4170.209
4216.801
4261.1
4303.277
4343.52
4382.035
4419.024
4454.666
4489.126
4522.527
4555.002
4586.678
4617.632
4647.858
4677.265
4705.711
4733.026
4759.015
4783.485
4806.32
4827.495
4847.031
4865.024
4881.466
4896.285
4909.509
4921.156
4931.183
4939.68
4946.945
4953.482
4959.786
4966.274
4973.278
4981.044
4989.714
4999.214
5009.065
5019.272
5029.615
5040.004
5050.383
5060.708
5070.95
5081.075
5091.082
5100.959
5110.716
5120.353
5129.888
5139.348
5148.823
5158.204
5167.518
5176.758
5185.864
5194.77
5203.401
5212.192
5220.437
5228.084
5235.094
5241.518
5247.225
5252.105
5256.154
5259.411
5261.934
5263.805
5265.069
5265.839
5266.455
5266.794
5266.828
5267.031
5267.327
5267.608
5267.819
5267.871
5267.656
5267.159
5266.348
5265.234
5263.95
5262.629
5261.364
5260.256
5259.439
5259.093
5259.512
5260.88
5263.181
5266.312
5270.23
5274.904
5280.354
5286.573
5293.389
5300.64
5308.185
5315.776
5323.229
5330.684
5338.054
5345.464
5352.994
5360.604
5368.319
5376.322
5384.641
5393.156
5401.882
5410.797
5419.858
5428.99
5438.117
5447.16
5456.036
5464.663
5472.978
5480.925
5488.46
5495.549
5502.161
5508.261
5513.803
5518.74
5523.031
5526.641
5529.551
5531.754
5533.263
5534.112
5534.355
5534.059
5533.295
5532.143
5530.681
5528.968
5527.046
5524.945
5522.672
5520.221
5517.574
5514.7
5511.573
5508.176
5504.498
5500.541
5496.31
5491.812
5487.069
5482.114
5476.972
5471.717
5466.406
5461.033
5455.6
5450.117
5444.599
5439.048
5433.428
5427.688
5421.787
5415.683
5409.339
5402.772
5395.989
5388.975
5381.752
5374.356
5366.838
5359.258
5351.694
5344.232
5336.961
5329.975
5323.368
5317.229
5311.636
5306.656
5302.339
5298.708
5295.76
5293.471
5291.79
5290.661
5290.007
5289.771
5289.865
5290.297
5290.989
5292.155
5293.71
5296.254
5299.408
5305.497
3060.087
3010.042
2959.666
2897.673
2836.494
2781.865
2731.898
2686.076
2643.709
2601.404
2493.512
2453.63
2413.874
2373.506
2332.204
2289.933
2246.55
2201.723
2155.584
2108.926
2062.642
2014.837
1966.964
1919.322
1872.32
1826.339
1781.561
1738.253
1697.696
1661.049
1629.538
1605.16
1588.565
1580.786
1582.801
1595.177
1619.699
1657.749
1710.756
1779.732
1865.09
1966.876
2084.878
2218.438
2366.573
2528.048
2701.276
2884.874
3076.175
3272.75
3472.845
3674.993
3878.155
4078.992
4273.814
4458.856
4629.218
4779.393
4905.799
5005.504
5075.754
5114.746
5121.787
5097.513
5043.968
4964.453
4862.89
4743.019
4608.311
4460.912
4302.681
4135.678
3961.727
3784.141
3605.792
3428.537
3255.726
3091.289
2937.392
2793.899
2659.402
2532.582
2412.175
2298.064
2190.334
2089
1994.589
1908.174
1830.919
1763.126
1703.209
1649.296
1599.948
1553.797
1509.583
1466.688
1425.259
1385.872
1349.869
1319.884
1296.099
1276.038
1259.658
1245.272
1229.316
1211.042
1190.839
1169.716
1149.038
1130.379
1118.21
1112.158
1108.553
1105.309
1098.979
1089.082
1076.194
1061.086
1044.601
1028.665
1018.817
1016.407
1016.095
1014.28
1010.414
1004.075
994.5375
981.7036
966.5414
951.8639
941.8119
938.5754
941.032
945.5449
948.342
947.031
940.9411
931.201
920.1725
910.2882
903.9496
903.9802
912.3339
926.1647
938.1192
944.4279
945.5606
944.094
941.8399
938.4103
934.4361
935.7293
952.2066
967.2798
969.8612
971.1166
969.018
962.5467
951.9945
937.1286
923.1554
920.3999
923.004
922.7174
919.7311
915.8828
910.9086
904.32
895.9294
888.5964
888.3972
895.9977
903.6391
908.3939
910.5041
911.0485
907.3398
898.279
886.9212
879.7755
880.0116
883.7432
886.7351
892.6879
902.1169
912.6053
920.208
926.353
934.9705
948.4488
966.0036
984.3394
1002.583
1020.235
1040.939
1057.224
1070.656
1082.595
1095.054
1109.77
1127.779
1147.416
1170.586
1196.487
1215.424
1233.171
1254.439
1279.589
1308.211
1341.004
1379.565
1423.184
1469.9
1517.032
1558.537
1585.689
1599.759
1596.375
1571.689
1544.891
1529.485
1526.127
1537.834
1564.621
1604.921
1656.373
1715.852
1780.214
1846.331
1911.293
1972.142
2026.253
2072.17
2107.823
2130.688
2139.043
2132.238
2105.902
2048.161
1943.867
1788.647
1587.34
1377.938
1188.316
1129.369
1251.556
1314.383
1350.601
1429.786
1541.037
1723.423
1963.094
2233.057
2502.965
2753.91
2981.368
3183.885
3359.059
3505.929
3623.771
3711.085
3765.614
3784.557
3763.592
3702.112
3605.169
3474.78
3316.072
3148.392
2997.321
2878.907
2793.211
2736.256
2706.555
2702.334
2722.823
2762.762
2818.527
2888.882
2971.475
3062.006
3156.146
3250.262
3341.314
3427.389
3507.939
3583.098
3653.376
3719.321
3781.364
3839.858
3895.014
3946.938
3995.742
4041.57
4084.601
4125.051
4163.171
4199.228
4233.494
4266.244
4297.765
4328.335
4358.201
4387.549
4416.465
4444.876
4472.591
4499.369
4524.965
4549.258
4572.101
4593.359
4612.923
4630.585
4646.319
4660.162
4672.037
4681.921
4689.905
4696.25
4701.358
4705.874
4710.422
4715.517
4721.556
4728.826
4737.479
4747.322
4757.85
4768.688
4779.665
4790.696
4801.745
4812.789
4823.801
4834.722
4845.512
4856.191
4866.771
4877.221
4887.522
4897.647
4907.674
4917.628
4927.528
4937.335
4947.009
4956.503
4965.763
4974.802
4983.362
4991.2
4998.335
5004.58
5009.964
5014.362
5017.719
5020.058
5021.447
5022.042
5022.05
5021.745
5021.381
5020.744
5020.153
5020.046
5020.088
5020.249
5020.486
5020.648
5020.508
5019.929
5018.825
5017.309
5015.601
5013.837
5012.076
5010.364
5008.814
5007.628
5007.435
5008.521
5010.667
5013.673
5017.555
5022.35
5027.966
5034.29
5041.295
5048.849
5056.745
5064.978
5073.423
5081.853
5090.141
5098.256
5106.36
5114.44
5122.41
5130.503
5138.84
5147.404
5156.163
5165.087
5174.143
5183.263
5192.365
5201.368
5210.186
5218.747
5226.992
5234.872
5242.35
5249.398
5255.993
5262.108
5267.711
5272.768
5277.244
5281.109
5284.334
5286.9
5288.801
5290.055
5290.691
5290.758
5290.31
5289.407
5288.125
5286.504
5284.608
5282.48
5280.138
5277.598
5274.859
5271.906
5268.725
5265.305
5261.638
5257.721
5253.551
5249.131
5244.476
5239.614
5234.581
5229.419
5224.152
5218.786
5213.334
5207.801
5202.178
5196.49
5190.758
5184.931
5178.956
5172.797
5166.434
5159.867
5153.082
5146.053
5138.789
5131.365
5123.846
5116.281
5108.737
5101.294
5094.036
5087.053
5080.437
5074.273
5068.635
5063.586
5059.167
5055.401
5052.279
5049.773
5047.831
5046.393
5045.385
5044.747
5044.399
5044.315
5044.397
5044.783
5045.521
5046.901
5048.469
5051.545
2798.023
2731.882
2598.584
2546.099
2495.417
2448.651
2405.188
2364.236
2324.918
2286.81
2249.763
2211.858
2173.35
2133.857
2093.349
2051.524
2008.274
1963.475
1917.018
1869.399
1822.058
1774.209
1726.007
1677.715
1628.946
1579.679
1530.983
1483.729
1438.966
1398.563
1364.198
1336.868
1317.552
1307.248
1307.139
1318.249
1341.926
1379.403
1431.697
1499.566
1583.482
1683.579
1799.686
1931.123
2076.954
2235.941
2405.894
2584.358
2769.187
2959.417
3154.401
3352.605
3551.12
3746.385
3934.281
4110.541
4270.582
4409.806
4524.482
4611.931
4670.018
4697.361
4693.404
4658.985
4596.413
4509.165
4401.905
4278.437
4142.712
3997.777
3844.53
3684.389
3518.732
3348.005
3174.854
3002.292
2834.259
2676.177
2530.772
2397.611
2274.424
2159.049
2049.583
1945.053
1845.142
1749.962
1660.702
1579.152
1507.261
1445.955
1393.155
1346.748
1304.783
1265.331
1226.557
1187.287
1147.403
1107.874
1071.153
1040.795