/*--------------------------------*- C++ -*----------------------------------*\
| =========                 |                                                 |
| \\      /  F ield         | foam-extend: Open Source CFD                    |
|  \\    /   O peration     | Version:     3.1                                |
|   \\  /    A nd           | Web:         http://www.extend-project.de       |
|    \\/     M anipulation  |                                                 |
\*---------------------------------------------------------------------------*/
FoamFile
{
    version     2.0;
    format      ascii;
    class       surfaceScalarField;
    location    "18";
    object      phi;
}
// * * * * * * * * * * * * * * * * * * * * * * * * * * * * * * * * * * * * * //

dimensions      [0 3 -1 0 0 0 0];

internalField   nonuniform List<scalar> 
275122
(
-0.000409108
0.0004148422
-4.129178e-07
-5.321291e-06
-0.0003663083
0.0003491972
1.405317e-06
1.570579e-05
-0.0003634867
0.0003728745
-3.950319e-07
-8.992756e-06
-0.0004044513
0.0004153484
-4.8121e-07
-1.041589e-05
-0.0004425308
0.0004457527
-5.60359e-07
-2.661564e-06
-0.0004457323
0.000445033
-4.940884e-07
1.193448e-06
-0.0004410949
0.0004395721
-4.594234e-07
1.982267e-06
-0.0004343897
0.0004324937
-4.34321e-07
2.33024e-06
-0.0004264968
0.0004244248
-4.12794e-07
2.484741e-06
-0.0004180797
0.0004159265
-3.908263e-07
2.54409e-06
-0.0004093761
0.0004071639
-3.671765e-07
2.579349e-06
-0.0004004562
0.0003981996
-3.425839e-07
2.599164e-06
-0.0003913788
0.0003890913
-3.179394e-07
2.605378e-06
-0.0003821906
0.0003798811
-2.9386e-07
2.60335e-06
-0.0003729238
0.0003706002
-2.706976e-07
2.594325e-06
-0.0003636147
0.0003612886
-2.486446e-07
2.574696e-06
-0.0003543212
0.0003520133
-2.281709e-07
2.536071e-06
-0.0003451712
0.0003429503
-2.153753e-07
2.436282e-06
-0.0003367431
0.0003349657
-2.612235e-07
2.038692e-06
-0.0003313358
0.0003317715
-6.676931e-07
2.320308e-07
-0.0003680718
0.0003826138
-1.33979e-06
-1.320215e-05
-0.0003867567
0.0003866367
-2.930627e-07
4.129772e-07
-0.0003905431
0.0003927531
-1.69296e-07
-2.040727e-06
-0.0004356575
0.000451464
3.324992e-07
-1.613904e-05
-0.0004539575
0.0004532246
6.46274e-07
8.661431e-08
-0.0004557191
0.0004564952
-3.028919e-07
-4.731749e-07
-0.000456582
0.0004555757
-2.70319e-07
1.27658e-06
-0.0004509536
0.000447011
-2.299624e-07
4.172516e-06
-0.0004209003
0.0003933585
-3.062822e-07
2.784806e-05
-0.0002120471
0.0002183764
5.459023e-09
-6.334789e-06
-0.0002686565
0.000282427
-7.127041e-08
-1.369929e-05
-0.0003216717
0.0003346976
8.176282e-09
-1.303405e-05
-0.0003744825
0.0003879524
9.134198e-09
-1.347903e-05
-0.000428741
0.0004425004
1.012909e-08
-1.376949e-05
-0.0004845035
0.0004986542
1.088637e-08
-1.416154e-05
-0.0005417816
0.0005563668
8.433432e-09
-1.45936e-05
-0.0006005622
0.0006154434
1.175759e-08
-1.4893e-05
-0.0006603462
0.0006754145
1.5556e-08
-1.508379e-05
-0.0007208177
0.0007360335
1.386621e-08
-1.522964e-05
-0.0007811982
0.0007976609
2.378735e-07
-1.67006e-05
1.314868e-05
-0.0005418825
0.0005440855
1.524543e-09
-1.535322e-05
1.34475e-05
-0.0005506372
0.0005526484
4.113307e-11
-1.54587e-05
1.368568e-05
-0.0005583058
0.00056011
-1.095187e-09
-1.548871e-05
1.403442e-05
-0.0005651104
0.000566644
-1.15534e-09
-1.556689e-05
1.442021e-05
-0.0005707883
0.0005720294
-1.516687e-09
-1.565982e-05
1.473329e-05
-0.0005754314
0.0005764418
-1.344756e-09
-1.574239e-05
1.496381e-05
-0.0005793064
0.0005801841
-1.126468e-09
-1.584041e-05
1.51336e-05
-0.0005826806
0.0005835046
-1.182196e-09
-1.595639e-05
1.564865e-05
-0.0005857915
0.0005855558
-9.046106e-10
-1.541203e-05
1.399338e-05
-0.002385392
0.00239494
1.176076e-10
-6.593414e-05
1.424967e-05
1.395017e-05
1.419205e-05
1.484225e-05
-0.002402439
0.002408655
2.906285e-10
-6.664682e-05
1.540589e-05
1.481248e-05
1.536965e-05
1.523376e-05
-0.002413739
0.002418457
3.862422e-10
-6.613413e-05
1.550233e-05
1.52031e-05
1.547595e-05
1.535959e-05
-0.002423283
0.002427914
2.609937e-10
-6.627721e-05
1.549061e-05
1.533119e-05
1.546408e-05
1.53773e-05
-0.00243238
0.002436663
3.194077e-10
-6.615358e-05
1.558321e-05
1.535093e-05
1.555846e-05
1.56012e-05
-0.002440529
0.002444193
2.28137e-10
-6.626188e-05
1.572511e-05
1.557423e-05
1.569683e-05
1.567572e-05
-0.002447792
0.002451081
1.668803e-10
-6.60922e-05
1.574689e-05
1.565653e-05
1.572422e-05
1.57233e-05
-0.002454447
0.002457629
2.617551e-10
-6.59437e-05
1.569133e-05
1.568321e-05
1.56641e-05
1.567176e-05
-0.00246138
0.002465045
7.417247e-11
-6.631907e-05
1.567794e-05
1.564969e-05
1.565455e-05
1.516024e-05
-0.002464825
0.002468998
-9.274086e-11
-6.504046e-05
1.529463e-05
1.513095e-05
1.528136e-05
1.595892e-05
-0.002473458
0.002476501
-1.561561e-10
-6.713542e-05
1.609763e-05
1.59502e-05
1.608622e-05
1.593897e-05
-0.002478855
0.002480946
-1.618752e-10
-6.557708e-05
1.581083e-05
1.593172e-05
1.580436e-05
1.580687e-05
-0.002483132
0.002485296
-1.167135e-10
-6.517498e-05
1.570486e-05
1.579987e-05
1.569946e-05
1.576406e-05
-0.002487363
0.002489174
-6.106191e-11
-6.471034e-05
1.569281e-05
1.575477e-05
1.568827e-05
1.573615e-05
-0.002490875
0.00249238
2.092074e-14
-6.430566e-05
1.567423e-05
1.572048e-05
1.566961e-05
1.576334e-05
-0.002493802
0.002494998
6.097325e-11
-6.406246e-05
1.57018e-05
1.571557e-05
1.568566e-05
1.602929e-05
-0.00249644
0.002497741
1.028831e-10
-6.496387e-05
1.599046e-05
1.580569e-05
1.583701e-05
1.737472e-05
-0.002498472
0.002496672
1.193161e-10
-6.628797e-05
1.766152e-05
1.639771e-05
1.665456e-05
2.203917e-05
-0.002490425
0.002475449
1.163068e-10
-6.865016e-05
2.345177e-05
1.935754e-05
1.877803e-05
2.929031e-05
-0.002455908
0.002478679
9.655382e-11
-5.206148e-05
2.146128e-05
-0.002500717
0.00250383
7.980646e-11
-2.457443e-05
4.248547e-05
-0.002497007
0.002493996
6.249979e-11
-3.947418e-05
3.687756e-05
-0.002492076
0.002490733
3.187316e-11
-3.553417e-05
2.062164e-05
-0.002488741
0.002490666
-5.386622e-12
-2.254633e-05
4.848428e-06
-0.00249561
0.002500625
-4.244122e-11
-9.863292e-06
5.591939e-08
-0.002504462
0.002507636
-6.894445e-11
-3.229994e-06
-3.001571e-06
-0.002510879
0.002513682
-8.039188e-11
1.981283e-07
-4.693566e-06
-0.00251616
0.002518389
-7.824882e-11
2.464212e-06
-5.8675e-06
-0.002520466
0.002522345
-6.557834e-11
3.988956e-06
-6.574641e-06
-0.002524141
0.002525818
-4.822335e-11
4.8971e-06
-7.050042e-06
-0.002527448
0.002529008
-3.269765e-11
5.490044e-06
-7.431238e-06
-0.002530518
0.002531972
-2.1116e-11
5.977358e-06
-7.742095e-06
-0.002533356
0.002534698
-1.458232e-11
6.40042e-06
-7.951034e-06
-0.002535949
0.002537196
-1.177847e-11
6.704419e-06
-7.956496e-06
-0.002538344
0.002539571
-1.300034e-11
6.728901e-06
-7.574619e-06
-0.002540712
0.00254205
-1.982845e-11
6.23665e-06
-6.45405e-06
-0.002543318
0.002544874
-3.774759e-11
4.897865e-06
-3.831913e-06
-0.002546252
0.002547847
-6.201544e-11
2.236516e-06
2.015594e-06
-0.00254923
0.002549918
-1.905762e-11
-2.703413e-06
1.2523e-05
-0.002545461
0.002542036
7.88347e-12
-9.097464e-06
6.221598e-06
-0.002544205
0.002546959
8.683621e-12
-8.976104e-06
1.82232e-05
-0.002547987
0.002546343
6.940066e-12
-1.657917e-05
4.326769e-05
-0.002531044
0.002513837
3.511e-12
-2.606033e-05
1.275281e-05
-0.002505778
0.002505629
5.977129e-13
-1.260372e-05
-2.718331e-06
-0.002506148
0.002503422
-1.720066e-12
5.443567e-06
-1.531018e-05
-0.002498622
0.002495715
-3.247927e-12
1.821704e-05
-3.707838e-05
-0.002493843
0.00249504
-3.002108e-12
3.588224e-05
-9.130736e-05
-0.00249717
0.002527065
-1.285622e-13
6.141281e-05
-2.030266e-05
-0.002563022
0.002562293
2.913963e-12
6.702941e-05
-1.307376e-05
-2.01512e-05
-1.277331e-05
-7.033447e-06
-0.002552294
0.002549936
5.191247e-12
3.054233e-05
-7.435117e-06
-6.678858e-06
-7.037654e-06
-6.650289e-06
-0.002551395
0.002550796
5.057009e-12
2.59721e-05
-6.327278e-06
-6.35659e-06
-6.038101e-06
-5.008469e-06
-0.002547651
0.002544114
5.704179e-12
2.2583e-05
-4.755417e-06
-4.760907e-06
-4.520944e-06
-4.436457e-06
-0.002540983
0.002538307
6.289469e-12
1.996946e-05
-4.414002e-06
-4.230819e-06
-4.212825e-06
-4.302406e-06
-0.00253591
0.00253353
6.82831e-12
1.916574e-05
-4.268356e-06
-4.122894e-06
-4.092178e-06
-4.14179e-06
-0.002531055
0.002528544
6.494169e-12
1.868412e-05
-4.104027e-06
-3.980174e-06
-3.947023e-06
-4.038863e-06
-0.002526005
0.002523473
5.344418e-12
1.836966e-05
-4.020367e-06
-3.896691e-06
-3.88214e-06
-3.982063e-06
-0.002520914
0.002518365
3.995653e-12
1.820314e-05
-3.968427e-06
-3.856887e-06
-3.84637e-06
-3.927345e-06
-0.002515796
0.002513256
2.939153e-12
1.800509e-05
-3.913927e-06
-3.817101e-06
-3.806542e-06
-3.872639e-06
-0.002510724
0.002508232
1.945709e-12
1.776963e-05
-3.861421e-06
-3.776086e-06
-3.767499e-06
-3.826947e-06
-0.002505759
0.002503314
4.072636e-13
1.756919e-05
-3.818456e-06
-3.742536e-06
-3.736291e-06
-3.793975e-06
-0.002500881
0.002498457
-1.72772e-12
1.744257e-05
-3.788111e-06
-3.720088e-06
-3.71608e-06
-3.773882e-06
-0.002496034
0.0024936
-3.824786e-12
1.739485e-05
-3.770204e-06
-3.709253e-06
-3.707203e-06
-3.764067e-06
-0.002491156
0.002488689
-4.681345e-12
1.740781e-05
-3.761824e-06
-3.707618e-06
-3.706771e-06
-3.760067e-06
-0.002486207
0.0024837
-4.335206e-12
1.744674e-05
-3.758431e-06
-3.710774e-06
-3.710308e-06
-3.756935e-06
-0.002481182
0.002478649
-3.399474e-12
1.747236e-05
-3.755354e-06
-3.713913e-06
-3.713313e-06
-3.753003e-06
-0.002476115
0.002473578
-2.362955e-12
1.747227e-05
-3.751827e-06
-3.715485e-06
-3.715114e-06
-3.752469e-06
-0.002471045
0.002468511
-1.907626e-12
1.748018e-05
-3.752789e-06
-3.719703e-06
-3.720655e-06
-3.762629e-06
-0.002465975
0.002463421
-1.996826e-12
1.755324e-05
-3.765521e-06
-3.733853e-06
-3.737205e-06
-3.788597e-06
-0.00246085
0.002458235
-1.997274e-12
1.773118e-05
-3.794405e-06
-3.763121e-06
-3.769249e-06
-3.830951e-06
-0.002455584
0.002452859
-1.827945e-12
1.801947e-05
-3.8393e-06
-3.80797e-06
-3.816446e-06
-3.887175e-06
-0.002450082
0.002447206
-1.444822e-12
1.840283e-05
-3.897423e-06
-3.86591e-06
-3.876303e-06
-3.953177e-06
-0.002444264
0.002441207
-4.2105e-13
1.885357e-05
-3.964431e-06
-3.93379e-06
-3.945202e-06
-4.02296e-06
-0.002438076
0.00243483
1.707696e-12
1.932564e-05
-4.034278e-06
-4.005301e-06
-4.016726e-06
-4.090588e-06
0.002428092
3.812571e-12
1.977187e-05
-4.101395e-06
-4.074581e-06
-4.085492e-06
-0.002431512
-4.153216e-06
-0.002424612
0.002421047
7.446157e-12
2.016969e-05
-4.163514e-06
-4.13889e-06
-4.149407e-06
-4.212204e-06
-0.002417432
0.002413745
1.174037e-11
2.05306e-05
-4.222362e-06
-4.199353e-06
-4.209647e-06
-4.27055e-06
-0.002410011
0.002406206
1.457807e-11
2.088506e-05
-4.281091e-06
-4.25877e-06
-4.269257e-06
-4.330687e-06
-0.00240235
0.00239841
1.603101e-11
2.126273e-05
-4.341517e-06
-4.319946e-06
-4.330794e-06
-4.391796e-06
-0.00239441
0.002390308
1.632111e-11
2.167081e-05
-4.402278e-06
-4.382321e-06
-4.392904e-06
-4.450914e-06
-0.002386136
0.002381848
1.546689e-11
2.209495e-05
-4.460394e-06
-4.442862e-06
-4.452497e-06
-4.5049e-06
-0.002377482
0.002372996
1.361106e-11
2.250847e-05
-4.512946e-06
-4.498316e-06
-4.506545e-06
-4.552728e-06
-0.002368434
0.002363756
1.144135e-11
2.289265e-05
-4.559689e-06
-4.547462e-06
-4.554567e-06
-4.599292e-06
-0.002359003
0.002354139
9.555302e-12
2.326767e-05
-4.606813e-06
-4.595039e-06
-4.602618e-06
-4.656744e-06
-0.002349196
0.00234413
7.844111e-12
2.370815e-05
-4.667521e-06
-4.653166e-06
-4.663894e-06
-4.742687e-06
-0.002338959
0.002333622
5.575346e-12
2.433576e-05
-4.759881e-06
-4.739499e-06
-4.756538e-06
-4.873361e-06
-0.002328131
0.002322402
2.514201e-12
2.526694e-05
-4.898855e-06
-4.870387e-06
-4.89571e-06
-5.054257e-06
-0.00231645
0.002310175
-6.552337e-13
2.655275e-05
-5.087649e-06
-5.051504e-06
-5.084773e-06
-5.277162e-06
-0.0023036
0.002296617
-3.074837e-12
2.816403e-05
-5.315553e-06
-5.274888e-06
-5.313278e-06
-5.517555e-06
-0.002289262
0.002281441
-5.78249e-12
2.99637e-05
-5.555108e-06
-5.516296e-06
-5.553992e-06
-5.733987e-06
-0.002273205
0.0022645
-8.507716e-12
3.16994e-05
-5.762731e-06
-5.734565e-06
-5.763634e-06
-5.87792e-06
-0.002255378
0.002245851
-1.16896e-11
3.30698e-05
-5.889571e-06
-5.881416e-06
-5.893653e-06
-5.906103e-06
-0.002235944
0.002225756
-1.587507e-11
3.38042e-05
-5.89428e-06
-5.913051e-06
-5.901873e-06
-5.786287e-06
-0.002215263
0.002204659
-2.142534e-11
3.369279e-05
-5.747539e-06
-5.796538e-06
-5.758163e-06
-5.504643e-06
-0.002193853
0.002183148
-2.819078e-11
3.261731e-05
-5.43836e-06
-5.517854e-06
-5.451475e-06
-5.060296e-06
-0.00217237
0.002161931
-3.595241e-11
3.05235e-05
-4.966828e-06
-5.076152e-06
-4.981792e-06
-4.469755e-06
-0.002151558
0.002141855
-4.389473e-11
2.73554e-05
-4.340794e-06
-4.486194e-06
-4.355961e-06
-3.701819e-06
-0.002132358
0.002123608
-5.050413e-11
2.318926e-05
-3.500765e-06
-3.716746e-06
-3.520479e-06
-2.814332e-06
-0.002114775
0.002106456
-5.361946e-11
1.835802e-05
-2.198702e-06
-2.819664e-06
-2.206704e-06
-1.555549e-06
-0.002099871
0.002093286
-5.375234e-11
1.285688e-05
-1.589815e-06
-1.542765e-06
-1.583456e-06
-1.466734e-06
-0.002088899
0.002085715
-4.784066e-11
8.91022e-06
-1.352249e-06
-1.513599e-06
-1.393671e-06
-7.381553e-07
-0.002083418
0.002082517
-3.65735e-11
3.695576e-06
-6.424735e-07
-7.605818e-07
-6.537751e-07
-6.515534e-08
-0.002082677
0.002084436
-2.258969e-11
-1.664509e-06
1.695768e-08
-6.581271e-08
1.998639e-08
5.521858e-07
-0.002087249
0.002091789
-6.748848e-12
-6.903473e-06
6.260862e-07
5.553152e-07
6.298265e-07
1.141213e-06
-0.002097449
0.002104766
8.194297e-12
-1.206374e-05
1.234977e-06
1.139702e-06
1.231294e-06
1.723975e-06
-0.002113063
0.002122867
2.011208e-11
-1.685899e-05
1.804782e-06
1.722481e-06
1.804021e-06
2.179308e-06
-0.002133573
0.002145606
3.162525e-11
-2.086635e-05
2.234942e-06
2.181167e-06
2.237411e-06
2.464619e-06
-0.00215843
0.002172286
4.272185e-11
-2.37711e-05
2.491907e-06
2.46411e-06
2.494435e-06
2.559045e-06
-0.002186756
0.002201862
5.43073e-11
-2.532348e-05
2.55206e-06
2.552123e-06
2.554726e-06
2.395447e-06
-0.002217328
0.002232978
6.641192e-11
-2.520833e-05
2.380671e-06
2.400025e-06
2.38275e-06
1.971612e-06
-0.00224873
0.002264364
7.894228e-11
-2.333276e-05
1.880843e-06
1.970399e-06
1.876341e-06
1.095987e-06
-0.00228011
0.002295275
9.350618e-11
-1.930874e-05
9.717914e-07
1.100589e-06
9.759851e-07
5.688105e-08
-0.002310065
0.002323671
1.08326e-10
-1.339539e-05
-1.668345e-07
6.149131e-08
-1.623409e-07
-1.255183e-06
-0.002336579
0.002347528
1.394092e-10
-5.5243e-06
-1.466274e-06
-1.246914e-06
-1.456403e-06
-3.134761e-06
-0.002357113
0.002364172
1.824295e-10
6.11164e-06
-3.470432e-06
-3.115141e-06
-3.450646e-06
-5.883966e-06
-0.00236904
0.002370361
2.153327e-10
2.314257e-05
-6.382517e-06
-5.850493e-06
-6.347323e-06
-9.418198e-06
-0.002368611
0.0023624
2.215325e-10
4.498007e-05
-1.002772e-05
-9.359321e-06
-9.964247e-06
-1.334289e-05
-0.002352403
0.002337319
1.861648e-10
6.951791e-05
-1.396296e-05
-1.325497e-05
-1.387253e-05
-1.673584e-05
-0.00231812
0.002293686
1.200628e-10
9.20566e-05
-1.71677e-05
-1.664471e-05
-1.70746e-05
-1.82289e-05
-0.002265108
0.002231426
2.616927e-11
0.0001064866
-1.821245e-05
-1.818462e-05
-1.817899e-05
-1.705995e-05
-0.002193866
0.002152273
-6.80259e-11
0.0001090501
-1.664257e-05
-1.708167e-05
-1.667378e-05
-1.400979e-05
-0.002108252
0.002062447
-1.571623e-10
0.0001008323
-1.344354e-05
-1.406862e-05
-1.350561e-05
-1.048547e-05
-0.002016392
0.001971201
-2.498871e-10
8.625261e-05
-9.983227e-06
-1.054775e-05
-1.004459e-05
-7.376927e-06
-0.001927848
0.00188738
-3.236519e-10
6.932388e-05
-7.00041e-06
-7.428479e-06
-7.049428e-06
-4.898585e-06
0.001816475
-3.521742e-10
5.257788e-05
-0.001849963
-4.609045e-06
-4.937698e-06
-4.644681e-06
-2.967983e-06
-0.001786447
0.001760834
-3.399696e-10
3.712301e-05
-2.769196e-06
-2.985984e-06
-2.786493e-06
-1.616025e-06
-0.001738794
0.001721058
-2.966456e-10
2.394118e-05
-1.472552e-06
-1.63088e-06
-1.485699e-06
-5.501613e-07
-0.001706599
0.001696061
-2.342895e-10
1.255312e-05
-4.489901e-07
-5.595992e-07
-4.559393e-07
2.791333e-07
-0.00168855
0.001684495
-1.546252e-10
2.765666e-06
3.709182e-07
2.731166e-07
3.663291e-07
9.671772e-07
-0.001683014
0.001684634
-7.879812e-11
-5.63108e-06
1.038744e-06
9.674602e-07
1.038257e-06
1.564199e-06
-0.001688515
0.001695231
-2.950321e-11
-1.310722e-05
1.636657e-06
1.557125e-06
1.632658e-06
2.091662e-06
-0.001703665
0.001714446
1.799186e-12
-1.926278e-05
2.151831e-06
2.089003e-06
2.149408e-06
2.498738e-06
-0.001726634
0.001740745
1.695374e-11
-2.41973e-05
2.54602e-06
2.497135e-06
2.544565e-06
2.756823e-06
-0.001755945
0.001772563
2.160386e-11
-2.769946e-05
2.783807e-06
2.756716e-06
2.783989e-06
2.827816e-06
-0.001789987
0.001808313
1.971335e-11
-2.965383e-05
2.834471e-06
2.82903e-06
2.836144e-06
2.661572e-06
-0.001827126
0.001846357
1.418623e-11
-2.97933e-05
2.617848e-06
2.663782e-06
2.619291e-06
2.207192e-06
-0.001865992
0.001885444
6.657141e-12
-2.821848e-05
2.17442e-06
2.208992e-06
2.176133e-06
1.700187e-06
-0.001904758
0.00192328
2.42649e-12
-2.521175e-05
1.643112e-06
1.701932e-06
1.644698e-06
1.014344e-06
-0.001941297
0.001958073
-1.102337e-13
-2.067631e-05
9.34005e-07
1.016002e-06
9.355787e-07
2.059894e-07
-0.00197392
0.00198795
2.484659e-12
-1.469801e-05
1.263264e-07
2.074548e-07
1.27934e-07
-7.595196e-07
-0.002000775
0.002011647
1.33337e-11
-7.65439e-06
-8.514774e-07
-7.572558e-07
-8.494073e-07
-1.768382e-06
-0.002020855
0.002027913
3.189655e-11
2.572972e-07
-1.891971e-06
-1.765848e-06
-1.889701e-06
-3.004011e-06
-0.002033326
0.002036328
5.616484e-11
9.282158e-06
-3.141549e-06
-3.000537e-06
-3.137752e-06
-4.384753e-06
-0.002037122
0.002035417
8.744042e-11
1.963669e-05
-4.589996e-06
-4.376687e-06
-4.580711e-06
-6.019513e-06
-0.002031387
0.002025008
1.321085e-10
3.099719e-05
-6.312982e-06
-5.998331e-06
-6.287105e-06
-8.07652e-06
-0.002016064
0.002004932
1.907192e-10
4.415258e-05
-8.496744e-06
-8.020935e-06
-8.426711e-06
-1.07445e-05
-0.001991463
0.001977093
2.43386e-10
5.826793e-05
-1.130529e-05
-1.065153e-05
-1.119752e-05
-1.276337e-05
-0.001960037
0.001940618
2.734658e-10
7.085759e-05
-1.294649e-05
-1.275855e-05
-1.297051e-05
-1.003285e-05
-0.001915118
0.001876901
2.881961e-10
7.401009e-05
-7.829568e-06
-1.006647e-05
-7.864337e-06
-6.117807e-06
-0.0004569889
0.00044858
2.969279e-09
1.452373e-05
-8.30566e-06
-0.0004322603
0.0004259847
-1.933402e-09
1.458319e-05
-6.387899e-06
-0.0004072882
0.000401064
-5.598766e-09
1.26177e-05
-4.746785e-06
-0.0003827757
0.0003769177
-6.776932e-09
1.061153e-05
-3.888666e-06
-0.0003603647
0.0003552654
-5.617612e-09
8.993669e-06
-3.677813e-06
-0.0003413704
0.0003372438
-3.783006e-09
7.80821e-06
-3.551703e-06
-0.0003262618
0.0003230587
-2.31764e-09
6.757078e-06
-3.237704e-06
-0.0003145535
0.000312081
-1.492174e-09
5.711745e-06
-2.748494e-06
-0.0003055561
0.0003036953
-9.511034e-10
4.61022e-06
-2.194728e-06
-0.0002989223
0.0002976258
-8.792955e-10
3.492042e-06
-1.645967e-06
-0.000294482
0.0002936908
-1.099176e-09
2.438342e-06
-1.204169e-06
-0.0002918352
0.000291414
-1.053866e-09
1.626443e-06
-9.681007e-07
-0.0002906127
0.0002904963
-9.130237e-10
1.085444e-06
-7.808324e-07
-0.0002904486
0.000290538
-6.736728e-10
6.921151e-07
-6.578792e-07
-0.0002910362
0.0002912853
-4.240186e-10
4.091668e-07
-5.889783e-07
-0.0002922055
0.0002925742
-2.366553e-10
2.205591e-07
-5.462227e-07
-0.0002938305
0.0002943037
-1.044427e-10
7.313252e-08
-5.202696e-07
-0.0002958538
0.0002964156
-2.519774e-11
-4.147263e-08
-5.049426e-07
-0.0002982198
0.0002988649
3.432625e-11
-1.401931e-07
-4.99559e-07
-0.0003009089
0.0003016292
9.310122e-11
-2.208661e-07
-5.058621e-07
-0.000303882
0.0003046652
1.564227e-10
-2.775381e-07
-5.237878e-07
-0.0003070892
0.0003079229
2.190587e-10
-3.100807e-07
-5.519226e-07
-0.0003104808
0.0003113527
2.80065e-10
-3.203247e-07
-5.886893e-07
-0.0003140102
0.0003149097
3.308223e-10
-3.111743e-07
-6.322936e-07
-0.0003176365
0.0003185546
3.570687e-10
-2.860814e-07
-6.811916e-07
-0.0003213264
0.0003222553
3.377301e-10
-2.481141e-07
-7.341829e-07
-0.0003250508
0.0003259847
2.735139e-10
-1.999652e-07
-7.900191e-07
-0.0003287855
0.0003297176
2.004102e-10
-1.423125e-07
-8.480464e-07
-0.0003325041
0.0003334282
1.343282e-10
-7.62243e-08
-9.065821e-07
-0.0003361854
0.000337099
8.554444e-11
-7.127581e-09
-9.65403e-07
-0.0003398116
0.0003407076
6.629949e-11
6.92711e-08
-1.020002e-06
-0.0003433675
0.0003442481
7.572007e-11
1.393025e-07
-1.063523e-06
-0.0003468589
0.0003477303
1.145124e-10
1.920185e-07
-1.077175e-06
-0.0003503149
0.0003511995
1.67506e-10
1.924224e-07
-9.914351e-07
-0.0003538873
0.0003548963
2.07099e-10
-1.77931e-08
8.025323e-07
-0.0003580038
0.0003582315
3.034653e-10
-1.030457e-06
1.578248e-06
-0.000359628
0.0003601737
3.332213e-10
-2.124207e-06
1.653866e-06
-0.000361554
0.0003620186
4.326725e-10
-2.118855e-06
1.569022e-06
-0.0003633742
0.0003637977
6.190119e-10
-1.993168e-06
1.463556e-06
-0.0003649339
0.0003652563
6.731838e-10
-1.786586e-06
1.318224e-06
-0.0003660751
0.0003662853
8.631864e-10
-1.529316e-06
1.167767e-06
-0.0003667493
0.0003668333
1.016041e-09
-1.252863e-06
1.041475e-06
-0.0003669064
0.0003668566
1.048168e-09
-9.927628e-07
9.737366e-07
-0.0003665244
0.0003663409
8.423179e-10
-7.910386e-07
9.804036e-07
-0.0003656131
0.000365307
3.752625e-10
-6.746727e-07
1.045762e-06
-0.0003642323
0.0003638192
-1.764284e-10
-6.324029e-07
1.129435e-06
-0.0003624572
0.0003619605
-5.005308e-10
-6.322147e-07
1.194421e-06
-0.0003603771
0.0003598159
-5.848871e-10
-6.326062e-07
1.222873e-06
-0.0003580627
0.0003574537
-5.350618e-10
-6.133516e-07
1.217648e-06
-0.0003555773
0.0003549338
-5.248394e-10
-5.73616e-07
1.191081e-06
-0.0003529668
0.0003522985
-5.351479e-10
-5.222279e-07
1.160034e-06
-0.0003502699
0.0003495867
-5.590918e-10
-4.763534e-07
1.138692e-06
-0.0003475294
0.0003468432
-5.723718e-10
-4.519192e-07
1.13614e-06
-0.0003447924
0.0003441153
-5.432793e-10
-4.585776e-07
1.152717e-06
-0.0003421137
0.0003414615
-4.75097e-10
-5.00129e-07
1.18794e-06
-0.0003395575
0.0003389463
-3.96243e-10
-5.76337e-07
1.238063e-06
-0.0003371827
0.0003366237
-3.243594e-10
-6.787755e-07
1.301927e-06
-0.0003350384
0.0003345461
-2.956074e-10
-8.093643e-07
1.374732e-06
-0.0003331695
0.0003327466
-2.893746e-10
-9.515804e-07
1.42877e-06
-0.0003316086
0.0003312736
-2.74887e-10
-1.093456e-06
1.497292e-06
-0.0003303994
0.0003301548
-2.689233e-10
-1.252383e-06
1.581725e-06
-0.0003295583
0.0003294038
-2.456889e-10
-1.426984e-06
1.676737e-06
-0.0003290717
0.0003290038
-2.012996e-10
-1.608714e-06
1.775056e-06
-0.0003289271
0.0003289409
-1.630064e-10
-1.788688e-06
1.874078e-06
-0.0003291005
0.0003291932
-1.106964e-10
-1.966651e-06
1.971353e-06
-0.0003295937
0.0003297652
-7.592311e-11
-2.142794e-06
2.067416e-06
-0.0003303875
0.0003306318
-3.100389e-11
-2.311747e-06
2.161978e-06
-0.0003314649
0.0003317771
2.988646e-12
-2.474147e-06
2.25959e-06
-0.000332811
0.000333193
8.435182e-11
-2.641715e-06
2.360931e-06
-0.0003345673
0.0003350411
3.24577e-10
-2.835044e-06
3.292477e-06
-0.0003336457
0.001373296
1.85886e-11
-1.282009e-05
6.7493e-07
3.29805e-06
6.604168e-07
-0.0003336507
-0.000350552
-0.0003505536
1.806844e-06
-0.001381985
0.001387348
2.071783e-12
-1.370942e-05
2.389901e-06
1.780047e-06
2.369763e-06
2.234896e-06
-0.001392026
0.001396717
-1.007354e-11
-1.39108e-05
2.394875e-06
2.214278e-06
2.375278e-06
2.383839e-06
-0.001401923
0.001407376
-2.018861e-12
-1.514563e-05
2.480773e-06
2.365162e-06
2.462854e-06
2.525442e-06
-0.001413082
0.001418924
1.906241e-11
-1.610178e-05
2.621623e-06
2.5079e-06
2.604837e-06
2.704066e-06
-0.001424846
0.001430849
2.642465e-11
-1.69244e-05
2.773556e-06
2.686617e-06
2.757093e-06
2.79809e-06
-0.001437073
0.001443427
3.921495e-11
-1.761571e-05
2.848764e-06
2.781597e-06
2.832943e-06
2.89711e-06
-0.001449912
0.001456513
4.827032e-11
-1.82252e-05
2.930238e-06
2.881156e-06
2.915356e-06
2.978487e-06
-0.001463229
0.001470047
4.374498e-11
-1.875068e-05
3.001722e-06
2.96398e-06
2.987796e-06
3.047057e-06
-0.001476955
0.001483934
3.426062e-11
-1.917876e-05
3.065638e-06
3.034094e-06
3.052856e-06
3.101522e-06
-0.001490976
0.001498056
2.748511e-11
-1.949236e-05
3.11598e-06
3.08978e-06
3.104411e-06
3.138325e-06
-0.001505174
0.001512289
2.75838e-11
-1.966903e-05
3.149358e-06
3.127682e-06
3.138736e-06
3.156636e-06
-0.001519414
0.001526497
3.283735e-11
-1.970487e-05
3.164153e-06
3.146934e-06
3.154424e-06
3.155369e-06
-0.001533567
0.001540552
3.585115e-11
-1.959713e-05
3.1595e-06
3.14639e-06
3.150524e-06
3.133394e-06
-0.001547501
0.001554326
3.264437e-11
-1.934302e-05
3.134187e-06
3.125021e-06
3.125897e-06
3.088589e-06
-0.001561092
0.001567692
2.592647e-11
-1.893333e-05
3.085677e-06
3.080721e-06
3.077905e-06
3.017754e-06
-0.001574213
0.001580531
2.041851e-11
-1.836077e-05
3.010752e-06
3.010455e-06
3.003189e-06
2.917781e-06
-0.001586754
0.001592744
1.729379e-11
-1.76221e-05
2.90551e-06
2.910699e-06
2.898206e-06
2.784337e-06
-0.001598625
0.001604248
1.586768e-11
-1.670906e-05
2.765917e-06
2.777551e-06
2.758494e-06
2.61303e-06
-0.001609753
0.001614977
1.568057e-11
-1.560848e-05
2.586374e-06
2.605936e-06
2.579028e-06
2.391405e-06
-0.001620084
0.001624903
1.586771e-11
-1.429654e-05
2.35492e-06
2.384095e-06
2.346864e-06
2.130532e-06
-0.001629609
0.001633984
1.614716e-11
-1.280857e-05
2.092631e-06
2.124255e-06
2.085828e-06
1.88159e-06
-0.001638177
0.001641965
1.663679e-11
-1.122515e-05
1.842714e-06
1.875727e-06
1.836495e-06
1.60574e-06
-0.00164554
0.001648678
1.776399e-11
-9.461215e-06
1.561218e-06
1.59988e-06
1.555858e-06
1.299471e-06
-0.001651565
0.001653963
1.859174e-11
-7.49161e-06
1.25246e-06
1.294323e-06
1.247224e-06
9.782391e-07
-0.001656047
0.001657575
1.882658e-11
-5.340859e-06
9.325324e-07
9.738175e-07
9.277183e-07
6.585534e-07
-0.001658714
0.001659227
1.812921e-11
-3.054943e-06
6.160815e-07
6.547238e-07
6.12329e-07
3.540433e-07
-0.00165926
0.001658597
1.650405e-11
-6.747805e-07
3.179834e-07
3.508521e-07
3.149624e-07
6.221521e-08
-0.001657327
0.001655235
1.374043e-11
1.913939e-06
2.895245e-08
5.983433e-08
2.642659e-08
-1.778293e-07
-0.00165243
0.001648722
1.071206e-11
4.473722e-06
-2.031634e-07
-1.796823e-07
-2.049443e-07
-3.905346e-07
-0.001644263
0.001638873
8.04782e-12
6.994868e-06
-4.107112e-07
-3.920481e-07
-4.121267e-07
-5.63291e-07
-0.001632702
0.001625609
6.510305e-12
9.377046e-06
-5.774342e-07
-5.643603e-07
-5.784294e-07
-6.891555e-07
-0.001617747
0.001609013
7.342373e-12
1.150866e-05
-6.975068e-07
-6.898121e-07
-6.981232e-07
-7.669719e-07
-0.001599579
0.001589374
1.000149e-11
1.328087e-05
-7.703646e-07
-7.673512e-07
-7.70664e-07
-7.987314e-07
-0.001578596
0.001567202
1.405722e-11
1.458732e-05
-7.978955e-07
-7.988247e-07
-7.979262e-07
-7.86502e-07
-0.001555414
0.001543219
1.434098e-11
1.533176e-05
-7.817049e-07
-7.864117e-07
-7.816002e-07
-7.316728e-07
-0.001530839
0.001518296
7.508616e-12
1.545269e-05
-7.230387e-07
-7.315556e-07
-7.229459e-07
-6.369385e-07
-0.001505785
0.001493356
-6.631616e-12
1.495151e-05
-6.244058e-07
-6.367769e-07
-6.242638e-07
-5.086115e-07
-0.001481148
0.001469234
-2.346623e-11
1.39166e-05
-4.928289e-07
-5.08412e-07
-4.926512e-07
-3.587878e-07
-0.001457679
0.001446571
-3.632523e-11
1.250774e-05
-3.41211e-07
-3.585101e-07
-3.40929e-07
-2.031275e-07
-0.001435904
0.001425775
-4.218499e-11
1.090495e-05
-1.851538e-07
-2.030986e-07
-1.851381e-07
-5.678468e-08
-0.001416125
0.001407061
-4.223669e-11
9.257841e-06
-3.965719e-08
-5.70191e-08
-3.99356e-08
8.927147e-08
-0.001398453
0.001390385
-3.860272e-11
7.672121e-06
1.085505e-07
8.913422e-08
1.084373e-07
2.08815e-07
-0.001382731
0.001375583
-3.402211e-11
6.276495e-06
2.272714e-07
2.086281e-07
2.271397e-07
2.729391e-07
-0.001368784
0.001362488
-2.902508e-11
5.191093e-06
2.796269e-07
2.728351e-07
2.795441e-07
1.991533e-07
-0.001356598
0.001351394
-2.472144e-11
4.577174e-06
1.141631e-07
1.989589e-07
1.139536e-07
9.627661e-08
-0.00134655
0.001342034
-2.163789e-11
4.117276e-06
1.032213e-07
9.60747e-08
1.030241e-07
1.279886e-07
-0.001337739
0.00133378
-1.97194e-11
3.437897e-06
1.329536e-07
1.278114e-07
1.327877e-07
1.502663e-07
-0.001330026
0.001326566
-1.898661e-11
2.851276e-06
1.542544e-07
1.50109e-07
1.540948e-07
1.599359e-07
-0.001323276
0.001320231
-1.952569e-11
2.397585e-06
1.639893e-07
1.597935e-07
1.638437e-07
1.506653e-07
-0.001317332
0.001314613
-2.159826e-11
2.103019e-06
1.574445e-07
1.505048e-07
1.573049e-07
1.169721e-07
-0.001312016
0.001309493
-3.319813e-11
2.016319e-06
1.370579e-07
1.167574e-07
1.368492e-07
3.4732e-08
-0.001307081
0.001304768
-6.943594e-11
2.083765e-06
8.016172e-08
3.442696e-08
8.004862e-08
-3.458499e-07
-0.001303225
0.001302261
-6.320638e-11
1.610436e-06
2.454768e-08
-3.477903e-07
2.240824e-08
4.99323e-08
-0.001301432
0.001297615
9.857816e-11
3.576862e-06
6.86217e-08
5.151919e-08
7.000039e-08
-1.181935e-07
-0.001294132
0.001291721
1.07852e-10
3.38027e-06
-3.769994e-07
-1.053e-07
-3.689458e-07
-3.529965e-07
-0.001289453
0.001287095
8.470908e-11
3.909554e-06
-4.265735e-07
-3.490583e-07
-4.225181e-07
-4.893629e-07
-0.00128448
0.001281787
6.991295e-11
4.757801e-06
-5.466601e-07
-4.853084e-07
-5.429658e-07
-6.376052e-07
-0.001278908
0.001275843
6.842e-11
5.702213e-06
-6.847591e-07
-6.339534e-07
-6.808868e-07
-8.140542e-07
-0.001272566
0.001269034
8.984957e-11
6.85794e-06
-8.513727e-07
-8.113246e-07
-8.492844e-07
-9.865049e-07
-0.001265243
0.001261167
8.479458e-11
8.086826e-06
-1.018023e-06
-9.877275e-07
-1.019091e-06
-1.147502e-06
-0.001256819
0.001252161
4.499128e-11
9.304055e-06
-1.174366e-06
-1.148481e-06
-1.175313e-06
-1.296499e-06
-0.001247246
0.001242005
-1.942643e-12
1.048399e-05
-1.324116e-06
-1.297485e-06
-1.325036e-06
-1.430425e-06
-0.001236561
0.001230837
-3.331791e-11
1.143451e-05
-1.426336e-06
-1.429158e-06
-1.423976e-06
-1.330617e-06
-0.001224787
0.001218351
-4.717968e-11
1.168925e-05
-1.298063e-06
-1.328466e-06
-1.295996e-06
-1.161904e-06
-0.001211653
0.001204713
-5.74414e-11
1.152747e-05
-1.133996e-06
-1.159812e-06
-1.131914e-06
-1.029206e-06
-0.001197672
0.001190559
-7.469476e-11
1.11981e-05
-1.015039e-06
-1.027516e-06
-1.013531e-06
-9.598659e-07
-0.001183473
0.001176425
-8.972832e-11
1.087542e-05
-9.542314e-07
-9.590182e-07
-9.535554e-07
-9.195235e-07
-0.001169453
0.001162553
-9.332874e-11
1.056455e-05
-9.133089e-07
-9.190335e-07
-9.128257e-07
-8.719242e-07