/*--------------------------------*- C++ -*----------------------------------*\
| =========                 |                                                 |
| \\      /  F ield         | foam-extend: Open Source CFD                    |
|  \\    /   O peration     | Version:     3.1                                |
|   \\  /    A nd           | Web:         http://www.extend-project.de       |
|    \\/     M anipulation  |                                                 |
\*---------------------------------------------------------------------------*/
FoamFile
{
    version     2.0;
    format      ascii;
    class       volScalarField;
    location    "3";
    object      omega;
}
// * * * * * * * * * * * * * * * * * * * * * * * * * * * * * * * * * * * * * //

dimensions      [0 0 -1 0 0 0 0];

internalField   nonuniform List<scalar> 
119952
(
182.6807
235.5507
225.6232
197.3793
177.8876
180.5787
184.5814
189.2172
194.2664
199.6207
205.2318
211.0783
217.1565
223.4762
230.0575
236.9296
244.134
251.7386
259.9178
269.2834
222.9175
222.797
225.6384
187.3276
184.311
182.9497
181.8717
180.8029
177.9584
154.5071
340.4875
280.9591
237.063
206.5024
184.132
166.9134
153.0329
141.508
131.6621
120.5747
100.3057
86.86328
77.82066
71.13003
65.81302
61.34645
57.4585
54.03599
50.96726
39.13916
37.33813
35.55165
33.81806
32.19487
30.69788
29.32588
28.07237
26.92712
25.88309
24.94608
24.0506
23.19661
22.38722
21.62361
20.90583
20.22955
19.58197
18.95621
18.82191
18.792
18.60904
18.44882
18.34421
18.28329
18.23058
18.1851
18.15215
18.13328
18.13826
18.17389
18.22999
18.29609
18.36098
18.421
18.47176
18.50371
18.49826
18.42538
18.32178
18.21337
18.0455
17.84955
17.74804
17.69899
17.74856
18.03945
19.01513
20.61816
20.95979
21.1051
21.09566
21.03467
20.95076
20.85509
20.75732
20.66163
20.56984
20.48299
20.40158
20.32578
20.25561
20.19102
20.13196
20.07841
20.03032
19.98763
19.95026
19.91821
19.89148
19.87007
19.85398
19.84314
19.8375
19.83697
19.84149
19.85095
19.86529
19.88443
19.9083
19.93679
19.96981
20.00729
20.04919
20.09546
20.14606
20.20094
20.26004
20.32333
20.39079
20.4624
20.53817
20.61807
20.70209
20.78995
20.88072
20.96927
21.03781
21.14138
21.30838
21.48626
21.66763
21.84953
22.0277
22.201
22.3688
22.53047
22.68608
22.83583
22.98008
23.1194
23.25446
23.38592
23.5144
23.64049
23.76476
23.88777
24.01004
24.13202
24.25415
24.3768
24.50032
24.62508
24.75144
24.87976
25.01039
25.14366
25.2798
25.41896
25.56136
25.70726
25.85702
26.01104
26.16962
26.33304
26.50157
26.67555
26.85534
27.04135
27.23403
27.43377
27.64101
27.85612
28.07953
28.31143
28.55108
28.78755
28.9867
31.49207
35.73588
38.64062
40.653
42.0958
43.16948
44.00749
44.68642
45.27758
45.79328
46.24665
46.66765
47.06606
47.44933
47.82424
48.19502
48.56493
48.93701
49.31379
49.69927
50.09597
50.5028
50.91944
51.34751
51.79018
52.24838
52.72257
53.21217
53.71767
54.23917
54.77619
55.32669
55.88568
56.43806
56.88043
56.22576
54.5256
53.10293
51.88024
50.8106
49.85703
48.99353
48.20097
47.46522
46.77578
46.12503
45.50735
44.91807
44.35378
43.81188
43.29039
42.78773
42.30266
41.83413
41.38117
40.94291
40.51853
40.10732
39.70861
39.32166
38.94571
38.58035
38.22527
37.87969
37.54318
37.21534
36.89578
36.58399
36.27883
35.97479
29.01529
28.12488
27.18844
26.28479
25.46455
24.74602
24.13321
23.61938
23.19192
22.8369
22.53927
22.28697
22.06939
21.87796
21.70617
21.54925
21.40373
21.26711
21.13758
21.01387
20.89501
20.78033
20.66932
20.56159
20.45683
20.35483
20.25537
20.15831
20.06349
19.97081
19.88015
19.79143
19.70456
19.61947
19.53609
19.45437
19.37426
19.29571
19.2187
19.14321
19.06927
18.99698
18.92659
18.85875
18.79521
18.73866
18.68825
18.64049
18.59452
18.55005
18.50684
18.46492
18.42419
18.38726
18.36588
18.28733
18.15847
17.99183
17.80464
17.6133
17.43041
17.26397
17.11774
16.99241
16.88662
16.79786
16.72321
16.65979
16.60501
16.55672
16.51318
16.47303
16.43526
16.39914
16.36414
16.32989
16.29617
16.2628
16.2297
16.19681
16.16411
16.13159
16.09926
16.06713
16.03521
16.00352
15.97208
15.94089
15.90997
15.87932
15.84896
15.81888
15.78909
15.75959
15.73038
15.70147
15.67284
15.6445
15.61644
15.58866
15.56116
15.53392
15.50696
15.48025
15.45381
15.42762
15.40168
15.37598
15.35052
15.32529
15.30028
15.27548
15.25089
15.2265
15.20229
15.17825
15.15437
15.13064
15.10703
15.08353
15.0601
15.03673
15.01338
14.99
14.96654
14.94293
14.91908
14.89487
14.87012
14.84458
14.81786
14.78934
14.75802
14.722
14.67733
14.61478
14.51426
14.34676
14.52125
470.182
385.3555
327.0798
285.0518
253.3017
228.3264
207.9692
190.9168
175.7359
152.3119
130.0278
115.2645
104.7842
96.78784
90.29023
84.75847
79.8992
75.54549
60.10211
57.49179
54.93684
52.40819
49.98922
47.70822
45.57644
43.59512
41.75588
40.03879
38.50349
36.99829
35.5312
34.11732
32.75805
31.46162
30.23281
29.07202
27.97617
27.09889
26.36763
25.59241
24.80675
24.02858
23.26771
22.53069
21.82187
21.14379
20.49799
19.88185
19.29536
18.73723
18.20239
17.68884
17.19606
16.72376
16.2722
15.84478
13.96454
13.63184
13.31891
13.02235
12.7394
12.46826
12.20803
11.95808
11.7179
11.48668
11.26488
11.05257
10.84908
10.65407
10.46753
10.28952
10.1206
9.962732
9.821402
9.698425
9.584604
9.480725
9.391899
9.317979
9.256152
9.203979
9.16
9.123162
9.092617
9.067716
9.047935
9.032866
9.022304
9.016008
9.013326
9.012872
9.012305
9.00907
9.001945
8.991553
8.978026
8.962695
8.950857
8.944318
8.950865
8.9747
9.021453
9.089968
9.148238
9.179016
9.205205
9.225893
9.24225
9.255866
9.267366
9.277292
9.285847
9.29311
9.299172
9.304125
9.308051
9.31102
9.313097
9.314347
9.314835
9.314627
9.313791
9.3124
9.310526
9.308247
9.30564
9.302778
9.299735
9.296579
9.293377
9.290194
9.287089
9.284121
9.281345
9.278811
9.276564
9.274647
9.2731
9.271961
9.27126
9.271024
9.271275
9.272029
9.273295
9.27508
9.277382
9.280196
9.283502
9.28726
9.291369
9.295667
9.300014
9.304386
9.30925
9.31594
9.324092
9.33372
9.344859
9.357453
9.371454
9.386785
9.40333
9.420968
9.439573
9.459016
9.479171
9.499919
9.521155
9.542787
9.564733
9.586922
9.609293
9.631793
9.654377
9.677007
9.699643
9.722256
9.744823
9.767324
9.789743
9.812066
9.834275
9.856353
9.878281
9.90005
9.921647
9.943075
9.964341
9.985449
10.00641
10.02723
10.04792
10.06849
10.08898
10.10938
10.12972
10.15002
10.17025
10.19044
10.21045
10.23006
10.24764
10.25184
10.64105
11.06696
11.34123
11.52127
11.64368
11.73119
11.79794
11.85259
11.90031
11.94392
11.98478
12.02354
12.06045
12.09555
12.12876
12.15995
12.18898
12.2158
12.24042
12.26293
12.28345
12.30204
12.31878
12.33378
12.34721
12.35925
12.37004
12.37967
12.38817
12.39549
12.40141
12.40545
12.40651
12.40208
12.38656
12.3504
12.29143
12.22368
12.15272
12.08126
12.01078
11.9422
11.87613
11.81299
11.753
11.6963
11.64289
11.59271
11.54563
11.50145
11.45995
11.42085
11.3839
11.34885
11.31546
11.28357
11.25301
11.22367
11.19545
11.16812
11.14152
11.11555
11.09014
11.06524
11.04079
11.01677
10.99314
10.96989
10.94703
10.92609
9.848261
9.791713
9.747505
9.709883
9.674725
9.639737
9.603799
9.566563
9.528166
9.489007
9.449593
9.41042
9.371936
9.334582
9.298634
9.264242
9.231471
9.200328
9.170773
9.142736
9.116126
9.090844
9.066788
9.043855
9.021949
9.000976
8.980852
8.961503
8.942859
8.92486
8.907452
8.890587
8.874226
8.858333
8.842877
8.827833
8.813183
8.798911
8.785009
8.77148
8.758338
8.745616
8.73338
8.721717
8.710751
8.700551
8.690972
8.681848
8.673105
8.664691
8.656575
8.648762
8.641275
8.634367
8.627951
8.621128
8.613516
8.604629
8.59407
8.581669
8.567495
8.551791
8.534905
8.517235
8.499175
8.481081
8.46325
8.445912
8.429229
8.413304
8.398189
8.383898
8.370414
8.3577
8.345706
8.334375
8.323649
8.313468
8.303776
8.294522
8.285657
8.27714
8.268933
8.261003
8.253321
8.245863
8.238606
8.231532
8.224626
8.217873
8.211261
8.20478
8.198421
8.192175
8.186036
8.179997
8.174053
8.168198
8.162428
8.156739
8.151127
8.145589
8.140121
8.134721
8.129385
8.12411
8.118894
8.113733
8.108625
8.103566
8.098553
8.093582
8.088648
8.083748
8.078875
8.074023
8.069187
8.064358
8.059527
8.054683
8.049816
8.044909
8.039946
8.034905
8.02976
8.024475
8.019007
8.013297
8.007265
8.000798
7.993732
7.985824
7.9767
7.965795
7.952253
7.93509
7.91334
7.889866
7.874103
589.0648
522.5129
467.7694
425.1898
388.947
358.8826
332.9867
310.5354
291.0165
272.3998
139.4816
126.5591
120.5512
114.8584
109.533
104.5707
99.95383
95.64476
91.54447
71.39811
66.6131
62.58823
59.29527
56.6138
54.39537
52.51474
50.87943
49.42689
48.12627
46.92557
45.70266
44.47812
43.28701
42.1529
41.08945
40.10182
39.18886
38.33087
37.97419
37.49264
36.94316
36.36201
35.76799
35.17578
34.59455
34.02978
33.48533
32.96024
32.44542
31.94827
31.4619
30.97878
30.49545
30.00942
29.522
29.04993
26.33133
25.86911
25.42022
24.9799
24.53875
24.09169
23.63589
23.16901
22.69233
22.20721
21.71756
21.22618
20.73354
20.24082
19.74957
19.26161
18.77884
18.30289
17.83511
17.37678
16.92936
16.49385
16.07094
15.66059
15.26286
14.87766
14.50496
14.14443
13.79575
13.45932
13.13444
12.82054
12.51753
12.22528
11.94354
11.67196
11.41019
11.15495
10.93154
10.71371
10.50201
10.29613
10.09603
9.901888
9.713859
9.531982
9.356226
9.18652
9.022941
8.865463
8.714019
8.568688
8.429629
8.297146
8.171643
8.053939
7.944933
7.845758
7.754042
7.669048
7.592137
7.523902
7.463555
7.409918
7.362269
7.3202
7.283378
7.251449
7.224028
7.200723
7.181176
7.165051
7.151977
7.141483
7.132972
7.125689
7.118897
7.112176
7.105539
7.099224
7.093477
7.090739
7.095375
7.105886
7.122519
7.144255
7.163776
7.175652
7.183614
7.190048
7.195216
7.199527
7.203255
7.206576
7.209639
7.212523
7.21527
7.217899
7.220421
7.222834
7.225132
7.227303
7.229333
7.231208
7.232915
7.234444
7.235788
7.236942
7.237905
7.238678
7.239267
7.239678
7.23992
7.240006
7.239951
7.239771
7.239486
7.239115
7.23868
7.238204
7.237711
7.237225
7.236771
7.236371
7.236046
7.235816
7.235697
7.235703
7.235844
7.236127
7.236552
7.237115
7.237804
7.238612
7.239516
7.240515
7.241698
7.24336
7.245547
7.248178
7.251292
7.254915
7.259069
7.263776
7.269045
7.274877
7.281267
7.288204
7.295671
7.30365
7.31212
7.321054
7.330432
7.340218
7.350389
7.360917
7.371778
7.382938
7.394365
7.406034
7.417914
7.429977
7.442192
7.454532
7.466961
7.479444
7.491955
7.504458
7.516919
7.529314
7.541619
7.553808
7.56586
7.577753
7.589469
7.600992
7.612304
7.623396
7.634247
7.644855
7.655184
7.665257
7.674981
7.684479
7.693539
7.702185
7.719628
7.72403
7.721926
7.717359
7.712491
7.708359
7.705393
7.703703
7.703255
7.703936
7.705608
7.708128
7.711354
7.715151
7.719379
7.723905
7.728595
7.733327
7.737986
7.742468
7.746675
7.750513
7.753903
7.756779
7.759092
7.760801
7.761872
7.762266
7.761937
7.760813
7.758779
7.755638
7.751075
7.744599
7.735575
7.723503
7.70878
7.692095
7.673839
7.654361
7.633963
7.612901
7.591407
7.569696
7.547972
7.52642
7.505212
7.484492
7.46437
7.444926
7.426203
7.408214
7.390952
7.374395
7.358509
7.343258
7.328601
7.314497
7.300906
7.287789
7.275108
7.262831
7.250927
7.239371
7.228143
7.217227
7.206617
7.196311
7.186211
7.175041
7.191081
7.199219
7.202285
7.201844
7.198859
7.193861
7.18713
7.178867
7.169272
7.158551
7.146914
7.134571
7.121701
7.108364
7.094686
7.080805
7.066842
7.052896
7.039044
7.025341
7.011872
6.998716
6.985906
6.973456
6.961373
6.949657
6.938302
6.927297
6.91663
6.906289
6.896258
6.886524
6.877073
6.867893
6.858973
6.850303
6.841874
6.833681
6.825722
6.817998
6.810514
6.803285
6.796332
6.789684
6.783363
6.777384
6.771712
6.766299
6.761114
6.75614
6.751364
6.74678
6.742382
6.738207
6.734282
6.730461
6.72662
6.722642
6.718413
6.713839
6.708854
6.703426
6.697555
6.691272
6.684629
6.677696
6.670549
6.663265
6.65592
6.648578
6.641298
6.634126
6.627101
6.620248
6.613588
6.607132
6.600886
6.594851
6.589024
6.5834
6.577973
6.572732
6.567669
6.562776
6.558041
6.553456
6.549012
6.544701
6.540514
6.536444
6.532483
6.528626
6.524866
6.521197
6.517614
6.514112
6.510686
6.507333
6.504048
6.500827
6.497667
6.494564
6.491516
6.48852
6.485573
6.482672
6.479814
6.476998
6.474219
6.471475
6.468765
6.466083
6.463427
6.460794
6.458178
6.455577
6.452984
6.450394
6.447801
6.445197
6.442573
6.439919
6.437222
6.434469
6.43164
6.428713
6.425658
6.422439
6.419006
6.415292
6.411205
6.406619
6.401359
6.395196
6.387838
6.379024
6.368596
6.357303
6.347509
379.8082
281.5709
369.7576
166.6355
128.3688
89.41624
77.29758
67.38833
60.14575
57.12045
56.67675
56.32547
55.97892
56.30448
56.4077
56.3709
56.14199
55.67564
54.98448
54.15285
53.1662
52.04735
50.71608
49.30031
47.92881
46.60892
45.33067
44.0899
42.89149
41.732
40.60439
37.53317
36.57441
35.65512
34.77104
33.92539
33.11991
32.35575
31.63359
30.95341
30.31279
29.71014
29.14473
28.61354
28.11375
27.64341
27.20083
26.78445
26.39281
26.02377
25.67685
25.352
25.04698
24.75919
24.48648
24.22598
23.97149
23.72274
23.47939
23.24174
23.00866
22.78181
22.55983
22.34105
22.12275
21.90398
21.67804
21.43913
21.24503
21.03714
20.80957
20.56501
20.30635
20.03507
19.75296
19.46326
19.16591
18.86029
18.54624
18.22347
17.89172
17.55059
17.20181
16.8479
16.49092
16.1325
15.77419
15.41751
15.06347
14.71309
14.36764
14.02812
13.69529
13.36969
13.05176
12.74175
12.43989
12.14634
11.8611
11.58415
11.31556
11.05527
10.80324
10.55923
10.32325
10.09469
9.874545
9.662494
9.458077
9.260808
9.07037
8.886554
8.70918
8.538061
8.373041
8.213979
8.060772
7.913363
7.771747
7.635981
7.506164
7.382465
7.265082
7.154299
7.050481
6.95393
6.864024
6.780222
6.702881
6.632303
6.568189
6.509956
6.457168
6.40957
6.366949
6.329057
6.295606
6.26628
6.240755
6.218708
6.19982
6.183776
6.170253
6.158885
6.149296
6.141137
6.134179
6.128205
6.123783
6.122026
6.123094
6.126552
6.131953
6.138691
6.144925
6.149344
6.152385
6.154514
6.156091
6.157269
6.158141
6.158803
6.159341
6.159822
6.16029
6.160775
6.161298
6.161873
6.162504
6.163192
6.16393
6.16471
6.165521
6.166349
6.167182
6.168005
6.168805
6.16957
6.170289
6.170951
6.171548
6.172073
6.172522
6.172892
6.173184
6.173398
6.173538
6.173612
6.173626
6.173591
6.173517
6.173415
6.173297
6.173175
6.173059
6.172959
6.172885
6.172844
6.172843
6.172887
6.172981
6.173132
6.173343
6.173629
6.174025
6.174593
6.175359
6.176321
6.177491
6.178889
6.180524
6.182416
6.184576
6.187009
6.18973
6.192744
6.196058
6.199678
6.203609
6.207847
6.212391
6.217233
6.222374
6.227809
6.23353
6.239527
6.245787
6.252298
6.259044
6.266009
6.273173
6.280517
6.288022
6.295653
6.303391
6.311208
6.319078
6.326972
6.334865
6.342727
6.350533
6.358256
6.365869
6.373348
6.380667
6.387805
6.394737
6.401444
6.407901
6.414098
6.42001
6.425631
6.430916
6.435867
6.440917
6.445341
6.448718
6.450971
6.45224
6.452729
6.45264
6.452153
6.45143
6.450593
6.449738
6.448937
6.448239
6.447675
6.447257
6.446977
6.446824
6.446771
6.446784
6.446821
6.446832
6.446763
6.446564
6.446181
6.445563
6.444661
6.443428
6.441816
6.43977
6.437229
6.43411
6.430307
6.425685
6.420075
6.413303
6.405243
6.395969
6.385701
6.374607
6.362812
6.350434
6.337575
6.324334
6.310806
6.297088
6.283274
6.26946
6.255738
6.242188
6.228881
6.215877
6.20322
6.190947
6.179083
6.167645
6.156612
6.145945
6.135629
6.125649
6.115991
6.106639
6.097579
6.08879
6.080262
6.071982
6.063945
6.056142
6.04857
6.041228
6.034234
6.029773
6.026523
6.023764
6.02111
6.018359
6.015375
6.012058
6.008342
6.004195
5.999608
5.994588
5.989154
5.983336
5.977172
5.970713
5.964016
5.95714
5.950142
5.943078
5.936004
5.928915
5.921793
5.914655
5.907516
5.900396
5.893357
5.886427
5.879621
5.872947
5.866412
5.860018
5.853767
5.847658
5.841692
5.835867
5.830184
5.824643
5.819243
5.813986
5.808876
5.803918
5.79912
5.794491
5.790044
5.785787
5.781724
5.777845
5.774131
5.770568
5.767148
5.763862
5.760707
5.757679
5.754786
5.752027
5.749366
5.746768
5.744197
5.74162
5.739
5.736304
5.733506
5.730584
5.727524
5.724322
5.720982
5.717512
5.713928
5.710248
5.706493
5.702685
5.698845
5.694993
5.691149
5.687328
5.683544
5.67981
5.676136
5.672529
5.668994
5.665536
5.662158
5.658861
5.655646
5.652513
5.649461
5.646488
5.643593
5.640775
5.63803
5.635356
5.632751
5.630212
5.627737
5.625322
5.622966
5.620666
5.618418
5.616222
5.614073
5.61197
5.609911
5.607893
5.605914
5.603972
5.602065
5.600191
5.598347
5.596533
5.594745
5.592981
5.591239
5.589516
5.587809
5.586115
5.584431
5.582752
5.581074
5.579393
5.577702
5.575994
5.574262
5.572496
5.570685
5.568816
5.566871
5.56483
5.562666
5.560346
5.557826
5.55505
5.551943
5.548413
5.544347
5.539621
5.534133
5.527859
5.52108
5.514897
384.4832
262.0988
200.2004
167.566
134.8888
107.4003
90.2788
82.83182
75.22634
70.82543
67.308
63.23148
59.47729
56.31084
53.8658
51.6665
48.34069
48.00834
48.04624
48.46248
49.19299
50.06837
50.83954
51.38159
51.71867
51.7685
51.49193
50.92704
50.12593
49.13114
47.98074
46.71843
45.3872
44.01157
42.61286
41.21795
39.84992
38.52281
37.24723
36.02722
34.8733
33.77087
32.72488
31.74583
30.83147
29.98018
29.18881
28.45381
27.77199
27.13993
26.55411
26.01102
25.50743
25.04035
24.60681
24.2042
23.83027
23.48294
23.16022
22.86014
22.5809
22.32082
22.07756
21.84852
21.62697
21.41144
21.20366
21.00796
20.82278
20.64657
20.47774
20.31484
20.15632
20.001
19.84747
19.69473
19.54094
19.3859
19.22771
19.06808
18.90286
18.72937
18.54744
18.3572
18.15816
17.94977
17.73155
17.50305
17.26416
17.01505
16.75621
16.48867
16.21498
15.93626
15.65238
15.36305
15.06809
14.76917
14.4677
14.16476
13.86153
13.55932
13.25924
12.96225
12.66913
12.38054
12.09703
11.81905
11.54697
11.28109
11.02163
10.76876
10.52256
10.28312
10.05039
9.824381
9.60499
9.392145
9.185773
8.985796
8.792098
8.604549
8.423026
8.247416
8.077613
7.913526
7.755072
7.602199
7.454895
7.31318
7.177098
7.04672
6.922144
6.803484
6.690879
6.584483
6.484367
6.390316
6.302103
6.219796
6.143485
6.073025
6.008129
5.948543
5.894085
5.844592
5.799883
5.759753
5.723977
5.692264
5.664291
5.639759
5.618391
5.599923
5.584087
5.57061
5.559239
5.549749
5.542014
5.536228
5.532304
5.530096
5.529314
5.529564
5.530481
5.531453
5.532027
5.53224
5.532185
5.531953
5.531578
5.531094
5.530533
5.529932
5.529321
5.528725
5.528162
5.527649
5.527198
5.526816
5.526508
5.526275
5.526117
5.526029
5.526006
5.52604
5.526124
5.526248
5.526403
5.526578
5.526765
5.526954
5.527136
5.527304
5.52745
5.527569
5.527657
5.527712
5.527732
5.527718
5.527671
5.527595
5.527494
5.527373
5.527236
5.527091
5.526941
5.526794
5.526655
5.52653
5.526425
5.526345
5.526299
5.526293
5.52634
5.526453
5.52665
5.526944
5.527343
5.527853
5.528485
5.529245
5.530143
5.531194
5.532393
5.533747
5.535261
5.536947
5.538814
5.540865
5.543098
5.545524
5.548147
5.550969
5.553992
5.557218
5.560645
5.56427
5.568091
5.572102
5.576295
5.580661
5.58519
5.589869
5.594684
5.599617
5.604651
5.609767
5.614945
5.620162
5.625397
5.630626
5.635826
5.640973
5.646042
5.651009
5.655851
5.660544
5.665064
5.669392
5.673506
5.677388
5.68102
5.684384
5.687472
5.690319
5.692907
5.69515
5.696974
5.698338
5.699231
5.699668
5.699681
5.699314
5.698619
5.697648
5.696456
5.695092
5.693603
5.692028
5.690393
5.688723
5.687033
5.685329
5.683609
5.681863
5.680075
5.678223
5.676282
5.674226
5.672019
5.669632
5.667029
5.664172
5.661021
5.657526
5.653637
5.649292
5.64443
5.638993
5.63294
5.626275
5.619041
5.61129
5.603071
5.594436
5.585435
5.576117
5.566533
5.556734
5.546771
5.536699
5.526571
5.51644
5.506354
5.496358
5.486486
5.476773
5.467244
5.457917
5.448811
5.439945
5.431324
5.422949
5.414816
5.406922
5.399253
5.3918
5.384558
5.37752
5.370681
5.364034
5.357578
5.351313
5.345284
5.339745
5.33471
5.330105
5.325849
5.321868
5.318088
5.314438
5.310853
5.30728
5.303676
5.300005
5.296242
5.292371
5.288382
5.284273
5.28005
5.27572
5.271296
5.266792
5.262222
5.257599
5.252941
5.248267
5.243599
5.238948
5.234276
5.229576
5.224857
5.220164
5.215518
5.210931
5.20641
5.20196
5.197583
5.193285
5.189068
5.184936
5.180892
5.176939
5.173082
5.169327
5.165679
5.162145
5.158732
5.155446
5.152287
5.149254
5.146338
5.143534
5.140835
5.138237
5.135737
5.133332
5.131022
5.128804
5.126664
5.124586
5.122559
5.120568
5.118599
5.11664
5.114675
5.112694
5.110684
5.108636
5.106545
5.104405
5.102215
5.099975
5.097689
5.095361
5.092997
5.090602
5.088185
5.085753
5.083313
5.080872
5.078438
5.076015
5.073611
5.071229
5.068875
5.066553
5.064264
5.062013
5.059802
5.057631
5.055503
5.053418
5.051376
5.049379
5.047424
5.045514
5.043645
5.041818
5.040031
5.038284
5.036575
5.034902
5.033263
5.031659
5.030085
5.028543
5.027028
5.025541
5.024078
5.02264
5.021223
5.019826
5.018448
5.017086
5.015738
5.014402
5.013076
5.011756
5.010441
5.009127
5.007809
5.006484
5.005147
5.003792
5.002413
5.001002
4.999549
4.998043
4.996472
4.994818
4.993061
4.991177
4.989134
4.986893
4.984407
4.98162
4.97847
4.974893
4.970843
4.966314
4.961455
4.956942
213.4798
157.1856
237.8291
115.5278
98.16123
82.39322
77.27311
73.23924
69.09518
66.98769
64.52862
61.56352
58.92324
56.422
53.88
49.01124
47.96299
47.13069
46.47191
45.99042
45.6305
45.42994
45.41277
45.58574
45.93445
46.37695
46.82041
47.48115
48.10777
48.68252
49.24552
49.78728
50.11899
50.0952
49.78532
49.20096
48.33115
47.23326
45.95269
44.53364
43.01675
41.44333
39.85664
38.28828
36.76089
35.29276
33.89702
32.58278
31.35343
30.20996
29.15132
28.17217
27.27371
26.45382
25.70908
25.0295
24.40628
23.83458
23.31055
22.83039
22.39045
21.98739
21.61803
21.27948
20.96924
20.68504
20.42485
20.18675
19.96892
19.76965
19.58725
19.41935
19.25933
19.10262
18.95534
18.81848
18.69069
18.5708
18.45783
18.35073
18.24842
18.14994
18.05419
17.96025
17.86709
17.77387
17.67952
17.58339
17.48385
17.38021
17.27147
17.15636
17.03413
16.90421
16.76588
16.61836
16.46097
16.29324
16.11494
15.92604
15.72672
15.51745
15.29889
15.07161
14.83639
14.59458
14.34807
14.09699
13.84105
13.58039
13.31641
13.05033
12.78329
12.51633
12.25041
11.98638
11.72498
11.46685
11.21255
10.96256
10.71725
10.47692
10.2418
10.01208
9.787874
9.569246
9.356229
9.148799
8.946927
8.750594
8.559753
8.37433
8.194256
8.019473
7.849934
7.685599
7.526441
7.372456
7.223662
7.080095
6.941809
6.808872
6.681359
6.559353
6.442941
6.332193
6.227135
6.1277
6.03382
5.945546
5.862869
5.78568
5.713822
5.647142
5.585515
5.528815
5.476897
5.429591
5.386688
5.347981
5.313269
5.282337
5.254963
5.23092
5.209975
5.191886
5.17642
5.163342
5.152532
5.143821
5.136959
5.131698
5.127751
5.124799
5.122554
5.120712
5.119041
5.117459
5.115983
5.114567
5.113188
5.111836
5.110506
5.109197
5.107912
5.106655
5.105431
5.104245
5.103103
5.102009
5.100967
5.099979
5.099047
5.09817
5.097348
5.096578
5.095857
5.095182
5.094547
5.093948
5.093379
5.092834
5.092307
5.091793
5.091286
5.090781
5.090274
5.089761
5.089241
5.088712
5.088172
5.087622
5.087064
5.086499
5.085929
5.085357
5.084787
5.084221
5.083665
5.083122
5.082597
5.082094
5.08162
5.081181
5.080785
5.080437
5.080147
5.079921
5.079764
5.079683
5.079681
5.079764
5.079937
5.080204
5.080578
5.081048
5.081615
5.08229
5.083079
5.083984
5.085011
5.086163
5.087444
5.088859
5.090412
5.092104
5.093939
5.095917
5.09804
5.100306
5.102714
5.10526
5.107939
5.110746
5.113672
5.116709
5.119846
5.12307
5.126367
5.129723
5.13312
5.136541
5.139967
5.143377
5.14675
5.150064
5.153299
5.15643
5.159437
5.162297
5.164991
5.167499
5.169804
5.171891
5.173751
5.17538
5.176774
5.17792
5.178795
5.179381
5.179663
5.179631
5.179285
5.178628
5.177673
5.176438
5.174946
5.173221
5.171292
5.169186
5.16693
5.164548
5.16206
5.159485
5.156834
5.154114
5.151328
5.148473
5.145542
5.142524
5.139405
5.136168
5.132792
5.129256
5.125534
5.1216
5.117425
5.112981
5.108242
5.103184
5.097789
5.092049
5.085967
5.079549
5.072812
5.065774
5.058459
5.050891
5.043098
5.035109
5.026954
5.018665
5.010278
5.001827
4.993345
4.984869
4.976423
4.968039
4.959737
4.951537
4.943473
4.935584
4.927884
4.920378
4.91307
4.905957
4.899031
4.892291
4.885732
4.879348
4.873137
4.867093
4.861215
4.8555
4.849957
4.844624
4.839522
4.834656
4.830026
4.825622
4.821427
4.817418
4.813571
4.809857
4.806251
4.802727
4.799262
4.795835
4.792428
4.789026
4.785619
4.782199
4.778762
4.775304
4.771827
4.768332
4.764822
4.761302
4.757776
4.75425
4.750728
4.747219
4.743727
4.740216
4.736678
4.733148
4.729646
4.726181
4.722756
4.719378
4.716049
4.712773
4.709554
4.706396
4.703304
4.700282
4.697335
4.694468
4.691687
4.688995
4.686394
4.683883
4.68146
4.679122
4.676865
4.674686
4.672583
4.670554
4.668597
4.666708
4.664881
4.663107
4.661381
4.659694
4.658041
4.656415
4.65481
4.65322
4.651638
4.650059
4.648477
4.646887
4.645285
4.64367
4.642037
4.640386
4.638718
4.637032
4.63533
4.633613
4.631884
4.630147
4.628403
4.626656
4.62491
4.623168
4.621432
4.619706
4.617994
4.616297
4.614618
4.612959
4.611323
4.609711
4.608123
4.606562
4.605028
4.603521
4.602042
4.600589
4.599164
4.597766
4.596393
4.595044
4.59372
4.592418
4.591138
4.589878
4.588637
4.587414
4.586206
4.585014
4.583834
4.582666
4.581509
4.580359
4.579217
4.578079
4.576944
4.575809
4.574672
4.57353
4.57238
4.571218
4.570041
4.568842
4.567618
4.56636
4.565062
4.563714
4.562306
4.560823
4.55925
4.557568
4.555754
4.55378
4.551614
4.549221
4.546562
4.543602
4.540316
4.5367
4.532855
4.529265
93.73295
65.36033
60.3265
57.36053
56.17757
54.48497
53.0183
51.65415
50.38763
48.57065
44.67115
44.12036
43.62247
43.17975
42.76578
42.3862
42.09244
41.90283
41.83166
41.85865
41.82026
41.73869
41.73215
41.83818
42.05568
42.38154
42.82673
43.37827
44.05441
44.83597
45.61452
46.3109
47.09358
47.71291
48.07747
48.24857
48.22143
47.93175
47.31681
46.3932
45.21735
43.81212
42.22644
40.51879
38.74001
36.95106
35.19066
33.49301
31.88102
30.36956
28.96721
27.67672
26.49822
25.42657
24.4605
23.59231
22.81305
22.11487
21.48975
20.93032
20.42538
19.96855
19.55514
19.18113
18.84289
18.53715
18.26099
18.01183
17.78734
17.58552
17.40453
17.24273
17.09855
16.97052
16.85716
16.75628
16.65964
16.56906
16.48874
16.41752
16.35427
16.29778
16.24695
16.20075
16.15825
16.11853
16.08078
16.04418
16.00797
15.9714
15.93378
15.89434
15.85237
15.80696
15.75748
15.70321
15.64321
15.57662
15.5027
15.42082
15.33029
15.23048
15.12084
15.00094
14.87049
14.72938
14.57759
14.41528
14.24273
14.06052
13.86941
13.67018
13.46364
13.25123
13.03423
12.81259
12.58592
12.35536
12.12205
11.88702
11.65125
11.41561
11.18093
10.94789
10.71714
10.48919
10.26448
10.04338
9.826181
9.613121
9.404366
9.200038
9.000215
8.80495
8.61428
8.428212
8.246735
8.069835
7.897505
7.729746
7.566562
7.407969
7.253998
7.104695
6.960116
6.820329
6.685408
6.555434
6.430486
6.310638
6.195948
6.086402
5.981966
5.882618
5.788286
5.698913
5.614499
5.53503
5.460467
5.390768
5.325882
5.26573
5.21021
5.159186
5.112543
5.070169
5.031918
4.997619
4.967086
4.940115
4.916487
4.895974
4.878337
4.863418
4.850926
4.840562
4.832031
4.825032
4.819268
4.814469
4.810397
4.806864
4.803752
4.800985
4.798486
4.796191
4.794054
4.792035
4.790107
4.78825
4.786449
4.784692
4.782975
4.781292
4.779642
4.778024
4.776437
4.774882
4.773359
4.771869
4.77041
4.768982
4.767584
4.766216
4.764874
4.763556
4.762261
4.760984
4.759724
4.758476
4.757239
4.75601
4.754785
4.753565
4.752347
4.751131
4.749916
4.748703
4.747492
4.746286
4.745086
4.743895
4.742714
4.741547
4.740398
4.739269
4.738166
4.737093
4.736054
4.735055
4.734101
4.733196
4.732345
4.731551
4.730819
4.730151
4.729552
4.729022
4.728565
4.728188
4.727884
4.727657
4.727509
4.727443
4.727461
4.727567
4.727762
4.728051
4.728435
4.728918
4.729502
4.730191
4.730986
4.731889
4.732901
4.734022
4.735252
4.736588
4.73803
4.739572
4.741211
4.74294
4.744751
4.746636
4.748584
4.750584
4.752622
4.754684
4.756754
4.758813
4.760844
4.762827
4.764742
4.766568
4.768285
4.769874
4.771315
4.772591
4.773687
4.774591
4.775292
4.775784
4.776059
4.776108
4.775923
4.775498
4.774826
4.773904
4.77273
4.771307
4.769641
4.767739
4.765614
4.763279
4.76075
4.758044
4.755179
4.752171
4.749037
4.74579
4.742442
4.739002
4.735475
4.731863
4.728165
4.724379
4.720497
4.716511
4.712409
4.708178
4.703804
4.699274
4.694572
4.689686
4.684604
4.679316
4.673816
4.668097
4.662156
4.655995
4.649622
4.643046
4.636282
4.629345
4.622255
4.615031
4.607698
4.600281
4.592806
4.585301
4.577797
4.57032
4.562899
4.555558
4.548323
4.541213
4.534243
4.527426
4.520767
4.514271
4.507938
4.501766
4.495753
4.489897
4.484193
4.478639
4.473232
4.467967
4.462843
4.45786
4.45302
4.448329
4.44379
4.439407
4.43518
4.431109
4.427189
4.423415
4.419777
4.416266
4.412872
4.409581
4.406381
4.403261
4.400208
4.397212
4.394264
4.391356
4.388481
4.385634
4.38281
4.380006
4.377221
4.374454
4.371705
4.368972
4.366259
4.363565
4.360892
4.358242
4.355584
4.352912
4.350258
4.347629
4.34503
4.342463
4.339932
4.33744
4.334989
4.332583
4.330226
4.327921
4.325672
4.323481
4.321353
4.319288
4.317286
4.315348
4.313471
4.311654
4.309894
4.308191
4.306542
4.304945
4.303398
4.301897
4.300438
4.299015
4.297625
4.296266
4.294932
4.293622
4.292331
4.291058
4.289799
4.28855
4.28731
4.286075
4.284843
4.283611
4.282378
4.281142
4.279903
4.278659
4.27741
4.276156
4.274899
4.273637
4.272374
4.271109
4.269845
4.268583
4.267325
4.266072
4.264827
4.26359
4.262364
4.261151
4.25995
4.258764
4.257593
4.256439
4.2553
4.254179
4.253074
4.251986
4.250914
4.249858
4.248817
4.247791
4.246777
4.245777
4.244787
4.243808
4.242838
4.241876
4.240921
4.239972
4.239027
4.238084
4.237144
4.236203
4.235262
4.234317
4.233367
4.23241
4.231445
4.230467
4.229475
4.228465
4.227433
4.226374
4.225284
4.224157
4.222984
4.221758
4.220469
4.219103
4.217648
4.216087
4.214401
4.212569
4.210568
4.208375
4.205969
4.203336
4.200476
4.19746
4.194645
115.7708
48.5995
38.99303
37.3687
36.6719
36.3383
36.27688
36.36416
36.56921
36.85786
37.02796
36.99449
36.95365
36.93337
36.94273
36.99093
37.0898
37.24275
37.44466
37.67631
37.92471
38.24632
38.63552
39.11652
39.68104
40.32172
41.06636
41.94587
42.93656
43.90071
44.75332
45.49337
46.0898
46.45515
46.51735
46.2895
45.75483
44.89808
43.70044
42.20135
40.47641
38.5933
36.62638
34.64605
32.70465
30.85225
29.11463
27.50664
26.03492
24.70052
23.49913
22.42569
21.47069
20.62284
19.87082
19.20409
18.61324
18.08612
17.61472
17.19329
16.81607
16.4782
16.17558
15.90474
15.66261
15.44655
15.25423
15.08362
14.93291
14.80054
14.68507
14.58519
14.49971
14.42739
14.36658
14.31049
14.26268
14.22526
14.19697
14.17656
14.16282
14.15464
14.15101
14.15097
14.15365
14.15824
14.16399
14.17022
14.17628
14.18156
14.18549
14.18749
14.18701