/*--------------------------------*- C++ -*----------------------------------*\
| =========                 |                                                 |
| \\      /  F ield         | foam-extend: Open Source CFD                    |
|  \\    /   O peration     | Version:     3.1                                |
|   \\  /    A nd           | Web:         http://www.extend-project.de       |
|    \\/     M anipulation  |                                                 |
\*---------------------------------------------------------------------------*/
FoamFile
{
    version     2.0;
    format      ascii;
    class       volScalarField;
    location    "3";
    object      pd;
}
// * * * * * * * * * * * * * * * * * * * * * * * * * * * * * * * * * * * * * //

dimensions      [1 -1 -2 0 0 0 0];

internalField   nonuniform List<scalar> 
119952
(
10062.16
9786.191
9734.116
9769.51
9812.873
9771.715
9758.225
9745.645
9735.569
9726.278
9717.286
9708.441
9699.57
9690.538
9681.225
9671.476
9661.019
9649.196
9633.136
9601.624
9674.726
9611.983
9581.978
9679.586
9650.022
9651.83
9648.193
9666.269
9749.12
7060.127
9432.398
9442.083
9455.615
9469.619
9482.825
9496.343
9509.065
9521.984
9535.153
9542.064
9554.07
9567.057
9577.208
9587.189
9597.546
9607.141
9616.792
9625.755
9635.01
9648.888
9654.009
9658.298
9665.052
9671.937
9678.306
9684.531
9690.661
9696.196
9701.936
9705.134
9709.655
9714.823
9719.314
9723.763
9728.084
9732.293
9737.943
9752.649
9787.129
9757.605
9751.394
9764.919
9769.569
9763.169
9751.138
9741.232
9732.327
9723.57
9714.899
9706.28
9697.601
9688.739
9679.594
9670.055
9659.968
9649.203
9637.972
9627.629
9623.258
9618.869
9607.779
9621.063
9643.797
9639.775
9633.451
9626.905
9600.763
9526.835
9503.293
9504.769
9496.855
9488.864
9480.247
9470.46
9460.163
9449.483
9438.471
9427.183
9415.65
9403.904
9391.969
9379.861
9367.595
9355.179
9342.625
9329.938
9317.127
9304.198
9291.156
9278.007
9264.753
9251.401
9237.954
9224.415
9210.789
9197.079
9183.29
9169.424
9155.484
9141.474
9127.397
9113.257
9099.056
9084.797
9070.485
9056.121
9041.71
9027.253
9012.753
8998.212
8983.631
8969.009
8954.34
8939.609
8924.779
8909.879
8895.406
8882.02
8868.699
8853.701
8838.96
8824.418
8809.884
8795.405
8780.98
8766.603
8752.277
8738.007
8723.796
8709.652
8695.575
8681.564
8667.623
8653.753
8639.957
8626.237
8612.591
8599.021
8585.525
8572.103
8558.753
8545.472
8532.258
8519.106
8506.014
8492.976
8479.989
8467.046
8454.141
8441.269
8428.423
8415.595
8402.779
8389.968
8377.152
8364.325
8351.478
8338.603
8325.691
8312.732
8299.717
8286.636
8273.475
8260.212
8246.788
8233.104
8218.741
8209.496
8195.646
8182.271
8168.34
8154.349
8140.321
8126.158
8111.879
8097.492
8082.966
8068.312
8053.534
8038.634
8023.61
8008.463
7993.192
7977.8
7962.29
7946.665
7930.927
7915.078
7899.121
7883.059
7866.896
7850.634
7834.273
7817.812
7801.245
7784.567
7767.762
7750.801
7733.628
7716.135
7698.052
7678.665
7658.573
7646.362
7632.903
7618.657
7604.073
7589.318
7574.488
7559.635
7544.794
7529.993
7515.252
7500.59
7486.022
7471.563
7457.223
7443.016
7428.95
7415.036
7401.282
7387.697
7374.288
7361.064
7348.035
7335.211
7322.573
7310.137
7297.91
7285.898
7274.105
7262.535
7251.192
7240.078
7229.194
7218.528
7208.197
7203.304
7188.862
7177.189
7167.597
7158.003
7148.821
7139.963
7131.362
7123.016
7114.894
7107.001
7099.365
7091.951
7084.754
7077.771
7071
7064.443
7058.098
7051.962
7046.034
7040.307
7034.776
7029.441
7024.3
7019.35
7014.587
7010.008
7005.609
7001.386
6997.337
6993.458
6989.745
6986.196
6982.807
6979.586
6976.499
6973.574
6970.799
6968.172
6965.693
6963.364
6961.188
6959.179
6957.359
6955.729
6954.154
6952.25
6950.321
6948.616
6947.054
6945.622
6944.319
6943.125
6941.837
6939.105
6939.014
6938.473
6937.665
6936.932
6936.272
6935.697
6935.195
6934.761
6934.396
6934.091
6933.844
6933.651
6933.509
6933.416
6933.369
6933.367
6933.408
6933.489
6933.609
6933.766
6933.958
6934.183
6934.439
6934.725
6935.038
6935.377
6935.74
6936.126
6936.532
6936.957
6937.4
6937.859
6938.332
6938.818
6939.314
6939.821
6940.335
6940.857
6941.383
6941.914
6942.447
6942.98
6943.514
6944.046
6944.574
6945.098
6945.617
6946.128
6946.631
6947.123
6947.605
6948.073
6948.528
6948.967
6949.388
6949.792
6950.174
6950.535
6950.873
6951.184
6951.468
6951.721
6951.942
6952.128
6952.276
6952.381
6952.441
6952.449
6952.401
6952.289
6952.105
6951.837
6951.47
6950.986
6950.356
6949.543
6948.49
6947.108
6945.249
6942.652
6938.978
6934.693
6935.899
6958.755
8664.206
8676.01
8690.231
8706.824
8725.909
8746.209
8768.404
8791.998
8816.794
8826.684
8864.429
8889.756
8916.067
8942.15
8968.258
8994.174
9019.788
9045.141
9083.338
9106.575
9120.725
9141.799
9163.454
9184.349
9205.118
9225.478
9245.231
9264.364
9281.093
9298.708
9317.088
9334.3
9350.818
9367.332
9383.321
9399.001
9414.584
9430.459
9441.427
9455.619
9469.912
9483.518
9496.827
9509.773
9522.339
9534.533
9545.921
9556.972
9568.534
9578.975
9588.872
9598.643
9608.182
9617.418
9626.464
9636.15
9643.157
9651.468
9659.755
9666.834
9673.144
9679.216
9685.188
9690.972
9696.436
9701.49
9706.636
9711.44
9715.819
9720.087
9724.51
9729.246
9734.707
9741.312
9748.935
9754.995
9755.239
9752.838
9752.657
9752.337
9748.967
9742.398
9734.458
9726.382
9718.433
9710.483
9702.396
9694.114
9685.62
9676.9
9667.939
9658.784
9649.59
9640.764
9633.055
9626.742
9622.499
9620.581
9620.946
9622.538
9619.993
9610.869
9595.214
9573.133
9545.815
9522.608
9508.952
9499.438
9490.285
9480.337
9469.74
9458.887
9447.883
9436.68
9425.246
9413.592
9401.748
9389.734
9377.561
9365.238
9352.773
9340.173
9327.445
9314.596
9301.632
9288.556
9275.375
9262.091
9248.711
9235.236
9221.671
9208.021
9194.287
9180.475
9166.587
9152.626
9138.596
9124.5
9110.341
9096.123
9081.848
9067.52
9053.141
9038.716
9024.247
9009.737
8995.188
8980.603
8965.985
8951.338
8936.675
8922.034
8907.481
8893.07
8878.805
8864.58
8850.192
8835.693
8821.169
8806.669
8792.216
8777.809
8763.447
8749.134
8734.878
8720.681
8706.547
8692.478
8678.478
8664.55
8650.695
8636.915
8623.211
8609.583
8596.03
8582.553
8569.149
8555.818
8542.556
8529.362
8516.23
8503.157
8490.139
8477.171
8464.248
8451.362
8438.508
8425.679
8412.869
8400.069
8387.273
8374.471
8361.657
8348.822
8335.958
8323.056
8310.108
8297.101
8284.034
8270.889
8257.678
8244.407
8231.172
8218.001
8208.309
8194.938
8181.084
8167.266
8153.344
8139.291
8125.126
8110.837
8096.427
8081.891
8067.23
8052.444
8037.533
8022.498
8007.338
7992.056
7976.654
7961.132
7945.495
7929.744
7913.884
7897.916
7881.844
7865.67
7849.397
7833.025
7816.553
7799.98
7783.298
7766.496
7749.552
7732.431
7715.083
7697.48
7679.81
7662.8
7647.53
7633.064
7618.405
7603.639
7588.785
7573.888
7558.986
7544.108
7529.276
7514.51
7499.827
7485.242
7470.768
7456.417
7442.2
7428.127
7414.208
7400.449
7386.861
7373.451
7360.225
7347.183
7334.313
7321.687
7309.263
7297.046
7285.043
7273.259
7261.697
7250.362
7239.259
7228.397
7217.796
7207.573
7196.686
7186.503
7175.62
7165.396
7155.929
7146.867
7138.055
7129.487
7121.17
7113.095
7105.247
7097.628
7090.262
7083.087
7076.131
7069.392
7062.869
7056.559
7050.462
7044.58
7038.887
7033.39
7028.091
7022.985
7018.072
7013.345
7008.801
7004.436
7000.248
6996.232
6992.386
6988.706
6985.189
6981.833
6978.633
6975.585
6972.689
6969.942
6967.342
6964.887
6962.578
6960.413
6958.39
6956.497
6954.716
6952.965
6951.194
6949.464
6947.843
6946.342
6944.957
6943.681
6942.507
6941.365
6940.113
6938.999
6938.133
6937.354
6936.62
6935.957
6935.379
6934.881
6934.455
6934.096
6933.799
6933.56
6933.376
6933.243
6933.159
6933.122
6933.128
6933.178
6933.267
6933.395
6933.559
6933.758
6933.99
6934.253
6934.544
6934.863
6935.208
6935.576
6935.966
6936.377
6936.807
6937.253
6937.715
6938.192
6938.68
6939.18
6939.689
6940.205
6940.728
6941.257
6941.788
6942.322
6942.857
6943.391
6943.923
6944.451
6944.975
6945.493
6946.003
6946.504
6946.995
6947.475
6947.941
6948.393
6948.829
6949.247
6949.647
6950.025
6950.382
6950.714
6951.02
6951.298
6951.546
6951.76
6951.939
6952.079
6952.177
6952.229
6952.23
6952.174
6952.055
6951.865
6951.594
6951.229
6950.754
6950.149
6949.388
6948.438
6947.271
6945.866
6944.334
6942.976
6942.742
6944.156
6947.899
8461.998
8643.99
8823.871
8993.32
9152.197
9292.771
9411.294
9505.562
9574.124
9612.967
9629.218
9627.235
9607.583
9573.865
9528.931
9475.52
9416.163
9352.943
9289.954
9211.358
9149.203
9087.25
9027.655
8971.382
8918.937
8870.879
8827.542
8789.273
8757.53
8725.626
8699.914
8680.889
8666.203
8655.997
8650.218
8648.594
8651.043
8658.119
8664.443
8673.415
8689.388
8706.888
8726.326
8747.729
8770.581
8794.631
8819.52
8844.073
8870.994
8897.475
8923.254
8949.016
8974.836
9000.496
9025.769
9051.867
9085.647
9110.736
9130.424
9150.115
9171.051
9192.326
9213.026
9233.078
9252.438
9271.326
9289.861
9307.544
9324.524
9341.142
9357.495
9373.59
9389.365
9404.799
9419.857
9434.561
9448.694
9462.063
9475.307
9488.449
9501.375
9513.986
9526.236
9538.087
9549.565
9560.717
9571.405
9581.69
9591.681
9601.388
9610.778
9619.827
9628.474
9636.735
9644.416
9652.048
9659.333
9666.066
9672.435
9678.606
9684.614
9690.382
9695.883
9701.109
9706.033
9710.658
9715.115
9719.511
9723.967
9728.565
9733.374
9738.248
9743.094
9747.416
9748.988
9747.618
9746.177
9744.986
9742.133
9736.873
9730.097
9722.91
9715.677
9708.316
9700.734
9692.92
9684.891
9676.674
9668.309
9659.874
9651.51
9643.529
9636.303
9629.887
9624.885
9620.959
9617.986
9615.237
9609.906
9600.232
9586.473
9569.133
9548.623
9529.055
9514.336
9503.475
9493.359
9482.722
9471.691
9460.537
9449.313
9437.952
9426.406
9414.674
9402.773
9390.717
9378.513
9366.166
9353.683
9341.068
9328.329
9315.47
9302.497
9289.414
9276.226
9262.937
9249.55
9236.07
9222.501
9208.845
9195.107
9181.29
9167.398
9153.432
9139.398
9125.297
9111.134
9096.91
9082.631
9068.298
9053.915
9039.485
9025.013
9010.501
8995.952
8981.372
8966.767
8952.146
8937.524
8922.922
8908.358
8893.863
8879.463
8865.132
8850.73
8836.219
8821.689
8807.193
8792.74
8778.33
8763.963
8749.643
8735.378
8721.172
8707.028
8692.951
8678.943
8665.006
8651.144
8637.356
8623.646
8610.012
8596.456
8582.976
8569.572
8556.242
8542.983
8529.792
8516.665
8503.6
8490.591
8477.633
8464.721
8451.848
8439.009
8426.196
8413.403
8400.622
8387.845
8375.065
8362.273
8349.461
8336.622
8323.746
8310.825
8297.851
8284.817
8271.722
8258.556
8245.335
8231.995
8218.541
8204.929
8191.688
8178.211
8164.458
8150.535
8136.494
8122.332
8108.043
8093.624
8079.076
8064.4
8049.596
8034.664
8019.605
8004.42
7989.112
7973.681
7958.132
7942.466
7926.686
7910.797
7894.802
7878.703
7862.504
7846.209
7829.819
7813.336
7796.76
7780.091
7763.327
7746.466
7729.515
7712.503
7695.515
7678.726
7662.404
7646.73
7631.511
7616.429
7601.362
7586.301
7571.262
7556.26
7541.309
7526.423
7511.617
7496.905
7482.298
7467.81
7453.45
7439.229
7425.156
7411.241
7397.49
7383.913
7370.517
7357.306
7344.284
7331.46
7318.843
7306.435
7294.239
7282.26
7270.501
7258.967
7247.661
7236.587
7225.752
7215.148
7204.787
7194.413
7183.988
7174.162
7164.812
7155.702
7146.765
7138.02
7129.49
7121.185
7113.107
7105.254
7097.627
7090.2
7083.027
7076.072
7069.331
7062.804
7056.488
7050.383
7044.519
7038.792
7033.273
7027.955
7022.835
7017.913
7013.176
7008.622
7004.248
7000.051
6996.026
6992.172
6988.484
6984.959
6981.594
6978.386
6975.33
6972.426
6969.669
6967.057
6964.588
6962.259
6960.065
6957.999
6956.055
6954.208
6952.417
6950.676
6948.997
6947.405
6945.921
6944.541
6943.261
6942.064
6940.967
6939.988
6938.994
6938.03
6937.15
6936.367
6935.681
6935.088
6934.578
6934.144
6933.779
6933.477
6933.235
6933.049
6932.915
6932.83
6932.793
6932.8
6932.849
6932.939
6933.068
6933.233
6933.433
6933.665
6933.928
6934.221
6934.54
6934.886
6935.255
6935.646
6936.057
6936.488
6936.936
6937.399
6937.876
6938.366
6938.866
6939.377
6939.895
6940.419
6940.949
6941.482
6942.018
6942.554
6943.089
6943.623
6944.153
6944.679
6945.198
6945.71
6946.213
6946.706
6947.188
6947.656
6948.11
6948.548
6948.968
6949.37
6949.751
6950.109
6950.444
6950.752
6951.033
6951.284
6951.502
6951.685
6951.83
6951.933
6951.992
6952.002
6951.957
6951.853
6951.683
6951.439
6951.112
6950.691
6950.167
6949.528
6948.768
6947.9
6946.965
6946.083
6945.445
6945.345
6946.128
6947.79
7192.044
7231.072
7280.751
7343.42
7413.208
7505.399
7602.973
7715.328
7843.351
7970.291
8105.493
8259.905
8422.598
8593.413
8764.597
8929.449
9082.887
9219.544
9335.26
9427.176
9494.52
9539.151
9561.352
9560.772
9542.545
9510.336
9467.356
9416.443
9360.222
9301.278
9243.71
9151.789
9095.406
9041.389
8985.792
8931.984
8882.195
8837.093
8796.669
8760.83
8729.428
8702.834
8680.921
8663.411
8650.437
8642.06
8638.09
8638.22
8642.092
8649.376
8659.991
8672.965
8688.232
8706.032
8726.197
8748.281
8772.005
8796.753
8822.307
8848.488
8874.951
8901.41
8927.882
8954.381
8980.653
9006.716
9032.344
9058.577
9085.115
9108.307
9129.481
9150.784
9172.615
9194.337
9215.448
9235.662
9255.27
9274.189
9292.514
9310.27
9327.48
9344.307
9360.632
9376.6
9392.181
9407.426
9422.308
9436.786
9450.725
9464.172
9477.383
9490.424
9503.208
9515.667
9527.763
9539.505
9550.867
9561.839
9572.475
9582.779
9592.727
9602.337
9611.606
9620.536
9629.077
9637.285
9645.102
9652.502
9659.597
9666.411
9672.932
9679.166
9685.131
9690.818
9696.227
9701.335
9706.142
9710.721
9715.139
9719.428
9723.633
9727.776
9731.827
9735.702
9739.285
9742.228
9743.528
9742.94
9741.561
9739.773
9736.842
9732.323
9726.597
9720.278
9713.667
9706.796
9699.651
9692.248
9684.626
9676.83
9668.919
9660.975
9653.116
9645.535
9638.423
9631.814
9625.962
9620.75
9615.715
9610.302
9603.197
9593.441
9580.923
9566.049
9549.489
9533.08
9518.878
9507.121
9496.038
9484.805
9473.476
9462.118
9450.71
9439.197
9427.54
9415.73
9403.77
9391.668
9379.427
9367.049
9354.54
9341.905
9329.147
9316.272
9303.285
9290.189
9276.989
9263.689
9250.293
9236.803
9223.225
9209.561
9195.814
9181.989
9168.088
9154.114
9140.072
9125.963
9111.791
9097.559
9083.272
9068.93
9054.54
9040.103
9025.624
9011.106
8996.554
8981.974
8967.373
8952.759
8938.143
8923.539
8908.963
8894.433
8879.957
8865.512
8851.039
8836.521
8821.999
8807.503
8793.042
8778.62
8764.24
8749.908
8735.632
8721.414
8707.26
8693.173
8679.156
8665.212
8651.343
8637.551
8623.838
8610.203
8596.647
8583.17
8569.77
8556.446
8543.195
8530.013
8516.899
8503.847
8490.854
8477.913
8465.019
8452.167
8439.35
8426.561
8413.792
8401.037
8388.287
8375.535
8362.773
8349.991
8337.183
8324.34
8311.453
8298.516
8285.521
8272.464
8259.334
8246.13
8232.831
8219.459
8206.057
8192.741
8179.255
8165.529
8151.639
8137.627
8123.493
8109.229
8094.832
8080.303
8065.643
8050.853
8035.932
8020.883
8005.705
7990.402
7974.975
7959.427
7943.762
7927.982
7912.092
7896.094
7879.994
7863.795
7847.501
7831.117
7814.646
7798.092
7781.46
7764.758
7747.997
7731.2
7714.409
7697.693
7681.158
7664.92
7649.076
7633.572
7618.241
7602.977
7587.759
7572.593
7557.486
7542.446
7527.484
7512.61
7497.836
7483.173
7468.632
7454.222
7439.954
7425.836
7411.876
7398.082
7384.463
7371.025
7357.773
7344.713
7331.852
7319.196
7306.75
7294.517
7282.501
7270.707
7259.136
7247.794
7236.679
7225.796
7215.131
7204.697
7194.478
7184.44
7174.622
7165.054
7155.75
7146.696
7137.876
7129.293
7120.95
7112.844
7104.971
7097.325
7089.896
7082.697
7075.722
7068.966
7062.424
7056.094
7049.968
7044.014
7038.329
7032.836
7027.534
7022.422
7017.503
7012.762
7008.207
7003.833
6999.635
6995.61
6991.755
6988.066
6984.54
6981.174
6977.964
6974.907
6971.999
6969.238
6966.62
6964.142
6961.798
6959.585
6957.495
6955.524
6953.645
6951.839
6950.11
6948.458
6946.894
6945.428
6944.059
6942.786
6941.602
6940.512
6939.504
6938.517
6937.582
6936.736
6935.986
6935.324
6934.744
6934.242
6933.812
6933.449
6933.149
6932.909
6932.724
6932.592
6932.51
6932.476
6932.486
6932.54
6932.633
6932.766
6932.935
6933.138
6933.374
6933.642
6933.938
6934.262
6934.611
6934.983
6935.378
6935.794
6936.228
6936.679
6937.146
6937.627
6938.121
6938.625
6939.139
6939.661
6940.189
6940.722
6941.259
6941.799
6942.339
6942.878
6943.415
6943.95
6944.479
6945.002
6945.518
6946.025
6946.522
6947.007
6947.48
6947.938
6948.38
6948.805
6949.211
6949.596
6949.96
6950.3
6950.614
6950.901
6951.159
6951.384
6951.576
6951.731
6951.846
6951.918
6951.944
6951.919
6951.84
6951.702
6951.498
6951.225
6950.877
6950.451
6949.949
6949.378
6948.764
6948.155
6947.634
6947.311
6947.336
6947.775
6948.679
7161.804
7143.065
7129.62
7120.018
7111.271
7106.769
7108.008
7112.896
7123.581
7139.957
7163.502
7190.461
7227.856
7273.734
7327.767
7392.948
7487.759
7581.252
7683.373
7799.504
7929.286
8074.359
8232.526
8400.027
8573.288
8747.505
8913.168
9065.373
9199.055
9310.577
9397.854
9460.423
9499.21
9516.022
9512.868
9492.799
9459.353
9415.673
9364.364
9307.969
9248.233
9186.369
9122.697
9062.986
9007.9
8954.162
8902.376
8854.329
8810.816
8771.838
8737.35
8707.454
8682.084
8661.141
8644.774
8633.012
8625.736
8622.74
8623.756
8628.509
8636.764
8648.063
8661.861
8678.248
8697.225
8718.402
8741.383
8765.58
8790.953
8817.169
8843.926
8871.03
8898.238
8925.459
8952.587
8979.587
9006.256
9032.798
9058.332
9083.342
9107.558
9130.695
9153.19
9175.343
9197.034
9218.075
9238.344
9257.929
9276.88
9295.263
9313.111
9330.462
9347.274
9363.743
9379.738
9395.272
9410.452
9425.208
9439.563
9453.469
9466.983
9480.19
9493.131
9505.779
9518.1
9530.072
9541.694
9552.951
9563.852
9574.421
9584.649
9594.516
9604.035
9613.211
9622.05
9630.529
9638.665
9646.42
9653.791
9660.87
9667.669
9674.152
9680.31
9686.167
9691.735
9697.017
9702.008
9706.726
9711.206
9715.474
9719.547
9723.439
9727.146
9730.632
9733.826
9736.575
9738.624
9739.571
9739.238
9737.939
9735.909
9732.967
9728.914
9723.882
9718.188
9712.065
9705.605
9698.842
9691.81
9684.55
9677.113
9669.561
9661.966
9654.416
9647.032
9639.921
9633.116
9626.661
9620.378
9614.011
9607.079
9598.961
9589.12
9577.406
9564.12
9549.892
9535.366
9521.868
9509.902
9498.333
9486.77
9475.259
9463.752
9452.198
9440.558
9428.801
9416.914
9404.894
9392.74
9380.455
9368.041
9355.501
9342.837
9330.055
9317.158
9304.151
9291.037
9277.819
9264.503
9251.091
9237.587
9223.994
9210.316
9196.556
9182.717
9168.803
9154.817
9140.761
9126.639
9112.455
9098.21
9083.909
9069.555
9055.151
9040.702
9026.21
9011.681
8997.12
8982.531
8967.922
8953.3
8938.675
8924.057
8909.458
8894.887
8880.344
8865.819
8851.292
8836.754
8822.22
8807.707
8793.226
8778.784
8764.386
8750.037
8735.744
8721.51
8707.342
8693.242
8679.214
8665.26
8651.384
8637.587
8623.87
8610.235
8596.681
8583.208
8569.815
8556.499
8543.259
8530.092
8516.994
8503.961
8490.989
8478.071
8465.203
8452.379
8439.59
8426.832
8414.096
8401.374
8388.659
8375.943
8363.217
8350.474
8337.705
8324.901
8312.055
8299.16
8286.208
8273.192
8260.107
8246.949
8233.716
8220.421
8207.072
8193.665
8180.125
8166.415
8152.558
8138.571
8124.456
8110.208
8095.824
8081.307
8066.656
8051.872
8036.954
8021.906
8006.727
7991.42
7975.988
7960.434
7944.76
7928.971
7913.07
7897.063
7880.954
7864.747
7848.448
7832.063
7815.598
7799.061
7782.46
7765.808
7749.123
7732.432
7715.772
7699.195
7682.769
7666.562
7650.624
7634.93
7619.395
7603.957
7588.595
7573.306
7558.093
7542.961
7527.916
7512.969
7498.128
7483.404
7468.806
7454.343
7440.025
7425.859
7411.854
7398.015
7384.352
7370.872
7357.579
7344.48
7331.581
7318.888
7306.406
7294.14
7282.091
7270.265
7258.664
7247.291
7236.146
7225.231
7214.543
7204.088
7193.859
7183.82
7173.989
7164.41
7155.097
7146.034
7137.212
7128.627
7120.281
7112.17
7104.291
7096.641
7089.214
7082.014
7075.038
7068.281
7061.74
7055.411
7049.289
7043.367
7037.662
7032.16
7026.855
7021.743
7016.817
7012.086
7007.539
7003.171
6998.979
6994.961
6991.113
6987.431
6983.911
6980.552
6977.348
6974.296
6971.393
6968.635
6966.019
6963.54
6961.193
6958.974
6956.874
6954.888
6953.002
6951.202
6949.488
6947.859
6946.32
6944.875
6943.524
6942.264
6941.092
6940.002
6938.984
6938.025
6937.136
6936.33
6935.608
6934.966
6934.4
6933.909
6933.487
6933.132
6932.84
6932.606
6932.428
6932.303
6932.229
6932.201
6932.219
6932.28
6932.381
6932.521
6932.698
6932.909
6933.153
6933.427
6933.731
6934.062
6934.418
6934.799
6935.201
6935.623
6936.064
6936.523
6936.996
6937.484
6937.984
6938.495
6939.016
6939.544
6940.079
6940.619
6941.162
6941.708
6942.254
6942.8
6943.343
6943.884
6944.42
6944.949
6945.471
6945.985
6946.488
6946.98
6947.459
6947.924
6948.373
6948.805
6949.219
6949.613
6949.985
6950.333
6950.657
6950.954
6951.223
6951.461
6951.666
6951.836
6951.969
6952.062
6952.112
6952.115
6952.07
6951.973
6951.822
6951.613
6951.346
6951.023
6950.651
6950.243
6949.825
6949.435
6949.132
6948.981
6949.065
6949.365
6949.991
7509.037
7453.521
7409.116
7364.952
7329.103
7292.321
7262.278
7234.858
7209.554
7187.132
7165.846
7148.143
7133.282
7121.187
7111.431
7109.491
7110.397
7115.046
7124.836
7140.046
7161.362
7189.605
7225.107
7268.471
7318.717
7378.084
7447.716
7534.014
7631.475
7742.262
7868.155
8010.955
8169.029
8335.766
8507.779
8679.522
8843.798
8994.536
9126.793
9237.033
9323.265
9385.116
9423.641
9440.876
9439.223
9421.509
9390.915
9350.42
9302.531
9249.522
9192.973
9135.001
9077.032
9020.662
8967.062
8915.26
8865.72
8819.775
8778.053
8740.672
8707.68
8679.147
8655.065
8635.47
8620.435
8609.922
8603.798
8601.878
8603.938
8609.721
8618.914
8631.159
8646.173
8663.786
8683.887
8706.104
8729.978
8755.186
8781.516
8808.675
8836.386
8864.436
8892.61
8920.769
8948.772
8976.551
9003.911
9030.804
9056.89
9082.448
9107.435
9131.491
9154.622
9177.072
9198.949
9220.203
9240.764
9260.642
9279.87
9298.49
9316.532
9334.022
9350.958
9367.395
9383.377
9398.986
9414.137
9428.876
9443.221
9457.051
9470.53
9483.683
9496.528
9509.064
9521.269
9533.131
9544.644
9555.805
9566.618
9577.089
9587.213
9596.985
9606.412
9615.496
9624.24
9632.633
9640.675
9648.357
9655.69
9662.706
9669.412
9675.794
9681.853
9687.604
9693.059
9698.223
9703.098
9707.695
9712.028
9716.11
9719.947
9723.543
9726.881
9729.919
9732.585
9734.744
9736.229
9736.85
9736.488
9735.222
9733.164
9730.287
9726.527
9721.941
9716.704
9710.985
9704.884
9698.453
9691.733
9684.774
9677.624
9670.34
9662.98
9655.609
9648.301
9641.112
9634.063
9627.182
9620.108
9612.848
9605.046
9596.35
9586.451
9575.263
9562.98
9549.99
9536.725
9523.918
9511.902
9500.193
9488.546
9476.935
9465.315
9453.647
9441.901
9430.054
9418.091
9406.005
9393.795
9381.46
9369.001
9356.421
9343.722
9330.907
9317.979
9304.943
9291.801
9278.558
9265.217
9251.782
9238.255
9224.64
9210.94
9197.159
9183.3
9169.365
9155.358
9141.282
9127.14
9112.935
9098.671
9084.349
9069.975
9055.55
9041.081
9026.569
9012.02
8997.438
8982.83
8968.202
8953.56
8938.912
8924.267
8909.633
8895.015
8880.415
8865.83
8851.252
8836.679
8822.116
8807.576
8793.069
8778.601
8764.179
8749.808
8735.493
8721.24
8707.054
8692.939
8678.898
8664.934
8651.05
8637.248
8623.529
8609.895
8596.344
8582.878
8569.495
8556.193
8542.969
8529.822
8516.746
8503.738
8490.793
8477.906
8465.07
8452.28
8439.528
8426.807
8414.11
8401.429
8388.756
8376.083
8363.401
8350.701
8337.976
8325.217
8312.416
8299.564
8286.656
8273.684
8260.643
8247.529
8234.338
8221.071
8207.719
8194.279
8180.723
8167.027
8153.191
8139.22
8125.115
8110.874
8096.496
8081.981
8067.329
8052.54
8037.615
8022.556
8007.364
7992.042
7976.593
7961.019
7945.324
7929.513
7913.59
7897.561
7881.429
7865.203
7848.887
7832.49
7816.019
7799.484
7782.896
7766.272
7749.628
7732.992
7716.396
7699.879
7683.487
7667.263
7651.233
7635.387
7619.686
7604.095
7588.597
7573.186
7557.863
7542.633
7527.499
7512.472
7497.557
7482.766
7468.105
7453.585
7439.212
7424.997
7410.945
7397.064
7383.363
7369.847
7356.524
7343.398
7330.475
7317.76
7305.257
7292.971
7280.906
7269.063
7257.448
7246.06
7234.902
7223.975
7213.278
7202.809
7192.565
7182.535
7172.734
7163.182
7153.883
7144.829
7136.015
7127.439
7119.1
7110.996
7103.125
7095.484
7088.07
7080.881
7073.916
7067.171
7060.642
7054.327
7048.222
7042.322
7036.631
7031.143
7025.854
7020.759
7015.851
7011.132
7006.598
7002.245
6998.071
6994.069
6990.238
6986.572
6983.069
6979.725
6976.536
6973.499
6970.61
6967.864
6965.258
6962.788
6960.448
6958.234
6956.138
6954.154
6952.274
6950.489
6948.795
6947.192
6945.679
6944.259
6942.93
6941.69
6940.535
6939.461
6938.464
6937.538
6936.684
6935.907
6935.208
6934.586
6934.038
6933.561
6933.153
6932.81
6932.529
6932.307
6932.14
6932.026
6931.962
6931.945
6931.973
6932.044
6932.156
6932.306
6932.493
6932.714
6932.968
6933.252
6933.566
6933.906
6934.272
6934.661
6935.073
6935.504
6935.954
6936.421
6936.904
6937.4
6937.908
6938.428
6938.956
6939.493
6940.036
6940.583
6941.135
6941.688
6942.242
6942.796
6943.347
6943.895
6944.438
6944.976
6945.506
6946.027
6946.538
6947.038
6947.526
6947.999
6948.457
6948.898
6949.321
6949.724
6950.106
6950.466
6950.801
6951.111
6951.393
6951.646
6951.867
6952.056
6952.21
6952.326
6952.404
6952.44
6952.433
6952.382
6952.284
6952.142
6951.955
6951.728
6951.471
6951.197
6950.929
6950.696
6950.539
6950.498
6950.624
6950.879
6951.407
7897.207
7835.605
7738.758
7643.694
7563.463
7500.289
7447.68
7402.925
7364.227
7328.157
7291.633
7262.627
7235.727
7210.903
7188.483
7168.508
7150.974
7135.947
7123.668
7114.898
7108.678
7107.88
7110.749
7118.285
7130.69
7148.242
7171.826
7201.941
7239.695
7286.836
7344.103
7411.778
7493.233
7588.533
7697.397
7821.551
7961.699
8115.935
8279.456
8447.458
8614.348
8773.559
8918.956
9045.898
9151.28
9233.526
9292.559
9329.595
9346.746
9346.508
9331.566
9304.661
9268.377
9225.121
9176.933
9125.508
9072.504
9018.982
8966.074
8914.823
8865.519
8818.835
8775.541
8736.085
8700.699
8669.538
8642.714
8620.299
8602.347
8588.875
8579.836
8575.12
8574.566
8577.967
8585.073
8595.584
8609.213
8625.742
8644.969
8666.503
8690.022
8715.201
8741.745
8769.369
8797.795
8826.753
8856.014
8885.369
8914.653
8943.711
8972.435
9000.669
9028.337
9055.329
9081.655
9107.249
9131.938
9155.71
9178.709
9201.041
9222.698
9243.637
9263.852
9283.37
9302.228
9320.461
9338.097
9355.164
9371.711
9387.783
9403.406
9418.536
9433.207
9447.43
9461.367
9474.841
9487.935
9500.675
9513.096
9525.183
9536.931
9548.329
9559.378
9570.078
9580.431
9590.438
9600.101
9609.419
9618.393
9627.025
9635.31
9643.247
9650.838
9658.088
9665.008
9671.605
9677.878
9683.831
9689.473
9694.811
9699.85
9704.591
9709.041
9713.208
9717.096
9720.707
9724.036
9727.052
9729.707
9731.958
9733.704
9734.805
9735.148
9734.657
9733.351
9731.3
9728.512
9724.973
9720.717
9715.847
9710.479
9704.697
9698.555
9692.098
9685.378
9678.444
9671.343
9664.122
9656.829
9649.506
9642.178
9634.83
9627.376
9619.948
9612.145
9603.825
9594.794
9584.882
9574.046
9562.409
9550.225
9537.803
9525.503
9513.519
9501.742
9490.037
9478.342
9466.626
9454.858
9443.018
9431.084
9419.043
9406.888
9394.616
9382.225
9369.716
9357.089
9344.346
9331.491
9318.527
9305.456
9292.281
9279.007
9265.636
9252.172
9238.617
9224.976
9211.25
9197.444
9183.56
9169.601
9155.571
9141.471
9127.306
9113.077
9098.789
9084.444
9070.046
9055.598
9041.104
9026.569
9011.996
8997.39
8982.757
8968.103
8953.434
8938.757
8924.079
8909.406
8894.743
8880.093
8865.457
8850.832
8836.219
8821.623
8807.053
8792.517
8778.022
8763.574
8749.179
8734.843
8720.571
8706.369
8692.239
8678.187
8664.215
8650.326
8636.523
8622.806
8609.177
8595.636
8582.182
8568.815
8555.532
8542.332
8529.21
8516.164
8503.188
8490.279
8477.429
8464.634
8451.886
8439.179
8426.504
8413.855
8401.222
8388.599
8375.975
8363.343
8350.694
8338.018
8325.309
8312.556
8299.753
8286.891
8273.965
8260.966
8247.891
8234.732
8221.487
8208.147
8194.708
8181.154
8167.469
8153.646
8139.686
8125.588
8111.351
8096.975
8082.457
8067.799
8053.001
8038.064
8022.99
8007.78
7992.437
7976.964
7961.365
7945.644
7929.805
7913.853
7897.795
7881.636
7865.383
7849.043
7832.626
7816.14
7799.597
7783.009
7766.392
7749.765
7733.151
7716.577
7700.076
7683.678
7667.413
7651.298
7635.332
7619.498
7603.777
7588.157
7572.635
7557.211
7541.888
7526.671
7511.566
7496.582
7481.726
7467.007
7452.431
7438.009
7423.747
7409.653
7395.734
7381.997
7368.45
7355.098
7341.947
7329
7316.265
7303.744
7291.441
7279.361
7267.506
7255.879
7244.481
7233.315
7222.382
7211.679
7201.209
7190.968
7180.956
7171.179
7161.646
7152.357
7143.313
7134.509
7125.944
7117.617
7109.526
7101.669
7094.042
7086.644
7079.473
7072.524
7065.797
7059.287
7052.992
7046.907
7041.031
7035.361
7029.894
7024.626
7019.552
7014.669
7009.973
7005.462
7001.131
6996.977
6992.997
6989.186
6985.542
6982.06
6978.737
6975.568
6972.549
6969.678
6966.949
6964.359
6961.903
6959.577
6957.374
6955.29
6953.318
6951.452
6949.685
6948.013
6946.435
6944.949
6943.555
6942.25
6941.034
6939.902
6938.852
6937.88
6936.983
6936.159
6935.409
6934.735
6934.136
6933.608
6933.15
6932.759
6932.432
6932.166
6931.958
6931.805
6931.704
6931.653
6931.649
6931.69
6931.773
6931.897
6932.06
6932.258
6932.491
6932.757
6933.053
6933.377
6933.729
6934.106
6934.506
6934.928
6935.369
6935.83
6936.307
6936.799
6937.305
6937.824
6938.353
6938.891
6939.436
6939.989
6940.545
6941.106
6941.668
6942.231
6942.794
6943.354
6943.911
6944.463
6945.009
6945.548
6946.078
6946.599
6947.108
6947.605
6948.087
6948.555
6949.006
6949.44
6949.854
6950.248
6950.619
6950.968
6951.291
6951.588
6951.858
6952.098
6952.307
6952.483
6952.626
6952.733
6952.803
6952.835
6952.83
6952.786
6952.707
6952.594
6952.454
6952.296
6952.133
6951.983
6951.87
6951.823
6951.865
6952.032
6952.285
6952.782
7835.118
7766.715
7654.301
7585.185
7524.929
7474.063
7430.438
7391.976
7357.03
7324.873
7294.82
7266.745
7240.172
7215.416
7192.728
7172.206
7154
7138.243
7125.122
7114.955
7108.427
7106.074
7107.098
7111.924
7121.285
7135.361
7155.059
7181.921
7217.137
7261.755
7316.921
7383.279
7462.752
7556.347
7664.029
7786.409
7923.316
8072.753
8230.56
8391.622
8550.248
8700.425
8836.649
8954.852
9052.578
9128.864
9183.987
9219.218
9236.545
9238.244
9226.744
9204.306
9173.138
9135.252
9092.345
9046.173
8998.047
8948.847
8899.791
8852.049
8806.253
8762.921
8722.581
8685.681
8652.567
8623.498
8598.649
8578.138
8562.026
8550.331
8543.016
8539.992
8541.113
8546.185
8554.968
8567.194
8582.652
8601.059
8622.042
8645.278
8670.485
8697.357
8725.573
8754.827
8784.833
8815.325
8846.063
8876.836
8907.462
8937.784
8967.674
8997.001
9025.681
9053.631
9080.785
9107.095