/*--------------------------------*- C++ -*----------------------------------*\
| =========                 |                                                 |
| \\      /  F ield         | foam-extend: Open Source CFD                    |
|  \\    /   O peration     | Version:     3.1                                |
|   \\  /    A nd           | Web:         http://www.extend-project.de       |
|    \\/     M anipulation  |                                                 |
\*---------------------------------------------------------------------------*/
FoamFile
{
    version     2.0;
    format      ascii;
    class       volScalarField;
    location    "7";
    object      nut;
}
// * * * * * * * * * * * * * * * * * * * * * * * * * * * * * * * * * * * * * //

dimensions      [0 2 -1 0 0 0 0];

internalField   nonuniform List<scalar> 
119952
(
4.299243e-05
2.628894e-05
2.598997e-05
2.950671e-05
3.171214e-05
2.973538e-05
2.865245e-05
2.794241e-05
2.735142e-05
2.679766e-05
2.624989e-05
2.573098e-05
2.529513e-05
2.501279e-05
2.491293e-05
2.493714e-05
2.498586e-05
2.487712e-05
2.438467e-05
2.350072e-05
3.14581e-05
2.897779e-05
2.782924e-05
3.77571e-05
3.552496e-05
3.438347e-05
3.346001e-05
3.300781e-05
3.219823e-05
2.69972e-05
3.102514e-05
3.340309e-05
3.759214e-05
4.193908e-05
4.657351e-05
5.148686e-05
5.669912e-05
6.208606e-05
6.758743e-05
7.707711e-05
0.0003351843
0.0003921977
0.0004550113
0.0005200311
0.0005852252
0.0006490181
0.0007106026
0.000769634
0.0008250768
0.001157175
0.001205064
0.001246864
0.00128254
0.001311437
0.001332246
0.001344512
0.001348215
0.001344747
0.001340331
0.001337874
0.001332578
0.001319712
0.00130351
0.001288765
0.001279751
0.001269804
0.001269528
0.001310126
0.001154708
0.001329125
0.001352199
0.001341798
0.001378766
0.001430911
0.001446378
0.00145609
0.001459519
0.001456201
0.001446024
0.001429781
0.001409193
0.001386918
0.001365955
0.001348789
0.001336778
0.001329858
0.001327546
0.001329925
0.001338845
0.001348915
0.001362292
0.001381114
0.001367431
0.001421307
0.001436442
0.001418629
0.001431962
0.001388969
0.001373407
0.001366164
0.001361763
0.001357273
0.001351939
0.0013456
0.001338244
0.001329947
0.001320841
0.001311099
0.001300906
0.001290416
0.001279738
0.001268957
0.001258163
0.001247465
0.001236996
0.001226888
0.001217279
0.001208277
0.00119997
0.001192412
0.001185631
0.001179623
0.001174349
0.001169733
0.001165672
0.001162045
0.001158721
0.001155586
0.001152544
0.001149516
0.001146436
0.001143243
0.001139879
0.001136285
0.001132405
0.00112819
0.001123597
0.001118595
0.001113193
0.001107341
0.001101025
0.00109429
0.001087179
0.001079744
0.001072051
0.001064261
0.001057079
0.001047903
0.001037036
0.001025592
0.001014003
0.001002507
0.0009912707
0.0009803788
0.0009698518
0.0009596828
0.0009498568
0.0009403455
0.0009311124
0.0009221229
0.0009133472
0.0009047537
0.0008963037
0.0008879619
0.0008797043
0.0008715162
0.0008633851
0.0008552974
0.0008472378
0.0008391918
0.0008311475
0.0008230952
0.0008150258
0.0008069334
0.0007988123
0.0007906644
0.0007824842
0.0007742692
0.0007660043
0.0007576976
0.0007493528
0.0007409597
0.000732517
0.0007240241
0.0007154802
0.0007068855
0.0006982402
0.0006895462
0.0006808034
0.0006720142
0.0006631775
0.0006543023
0.0006453896
0.0006364596
0.0006275215
0.0006186907
0.0006113698
0.0005183151
0.0005027905
0.0004602006
0.0004317448
0.000411408
0.0003959367
0.0003834927
0.0003730098
0.0003638527
0.0003556232
0.0003480659
0.0003410185
0.0003343699
0.0003280445
0.0003219869
0.0003161538
0.000310512
0.00030508
0.0002998068
0.0002946477
0.0002896169
0.0002847103
0.0002799194
0.0002752377
0.0002706597
0.000266184
0.0002618069
0.0002575299
0.0002533524
0.0002492775
0.0002453112
0.0002414655
0.0002377793
0.0002343089
0.0002312904
0.0002313044
0.0002336934
0.0002373346
0.0002410955
0.0002455248
0.0002500475
0.0002546491
0.0002592928
0.0002639516
0.0002685963
0.0002731936
0.0002777587
0.000282243
0.0002866486
0.0002909707
0.000295207
0.0002993577
0.000303424
0.0003074087
0.0003113158
0.0003151492
0.0003189143
0.0003226169
0.0003262622
0.0003298566
0.0003334009
0.0003368894
0.0003403775
0.0003438209
0.0003472404
0.0003506427
0.0003540398
0.0003572495
0.0003604692
0.0003644265
0.0004619708
0.0004499646
0.0004752179
0.0004814083
0.0004870775
0.0004923215
0.000497447
0.0005024697
0.0005073888
0.000512204
0.0005169041
0.0005215159
0.0005260339
0.0005304659
0.0005348221
0.0005391085
0.0005433308
0.0005474934
0.0005516
0.0005556536
0.0005596564
0.0005636105
0.0005675172
0.0005713777
0.0005751933
0.0005789641
0.0005826907
0.0005863734
0.0005900129
0.0005936093
0.000597163
0.000600674
0.0006041424
0.0006075682
0.0006109511
0.000614291
0.0006175874
0.0006208396
0.0006240468
0.0006272073
0.0006303191
0.0006333773
0.0006363744
0.000639297
0.0006421332
0.000644829
0.0006470917
0.0006490668
0.0006509672
0.00065278
0.0006544991
0.0006561395
0.0006577129
0.0006596935
0.0006617622
0.0006618872
0.0006620804
0.0006623657
0.000662775
0.0006633096
0.0006639515
0.0006646885
0.0006655135
0.0006664196
0.0006673992
0.0006684427
0.0006695464
0.0006707039
0.0006719078
0.0006731515
0.0006744294
0.0006757367
0.0006770698
0.0006784255
0.0006798009
0.0006811939
0.0006826022
0.0006840236
0.0006854562
0.0006868979
0.0006883465
0.0006898
0.0006912569
0.0006927158
0.0006941757
0.0006956362
0.0006970968
0.0006985565
0.0007000143
0.0007014685
0.0007029173
0.0007043589
0.0007057917
0.0007072144
0.000708626
0.0007100254
0.0007114118
0.0007127844
0.0007141422
0.0007154848
0.0007168115
0.0007181226
0.0007194183
0.0007206996
0.0007219682
0.0007232264
0.0007244773
0.0007257242
0.0007269711
0.0007282222
0.0007294825
0.0007307571
0.0007320517
0.0007333721
0.0007347242
0.0007361141
0.0007375476
0.0007390305
0.0007405683
0.0007421665
0.00074383
0.0007455643
0.0007473736
0.0007492641
0.00075124
0.0007533094
0.0007554782
0.0007577597
0.0007601589
0.0007626981
0.0007653963
0.000768294
0.0007714254
0.0007748907
0.0007788212
0.0007835023
0.0007892892
0.0007976417
0.0006033692
6.729327e-05
7.881049e-05
9.466452e-05
0.0001077732
0.0001187031
0.00012835
0.000137234
0.0001455904
0.0001552981
0.0004526059
0.0006648232
0.0008723168
0.001052764
0.00120245
0.00132638
0.001431654
0.001524075
0.001608001
0.00229305
0.002403761
0.002517008
0.002626201
0.002729318
0.002825088
0.002912825
0.002992235
0.00306352
0.003126142
0.003181609
0.003230519
0.003275172
0.00331817
0.003360391
0.003402066
0.003443134
0.003483562
0.003523376
0.003545615
0.003552006
0.003564341
0.003583829
0.003609693
0.003640814
0.003676388
0.003715544
0.003757433
0.003801403
0.003846618
0.003891818
0.003936822
0.003980957
0.004023458
0.004063614
0.004100625
0.004133328
0.004159869
0.004832098
0.004838056
0.004834403
0.00482043
0.004796213
0.004766542
0.004732033
0.004682312
0.004610927
0.004517345
0.0044029
0.004272109
0.004128965
0.003979807
0.003832264
0.003693663
0.003570697
0.003466992
0.003385414
0.003317564
0.00326287
0.003229331
0.003211035
0.003201789
0.003197974
0.003197688
0.003198776
0.003198847
0.003195855
0.003188238
0.003175009
0.003155843
0.003131079
0.003101543
0.003068342
0.003032559
0.002995318
0.002957819
0.002921564
0.002887642
0.002856215
0.002829379
0.0028087
0.002789872
0.002763828
0.002724781
0.002695903
0.00271543
0.002698398
0.002689144
0.002684742
0.002683228
0.002683486
0.002684728
0.002686352
0.002687856
0.002688839
0.002689011
0.002688167
0.002686158
0.002682862
0.002678171
0.002671996
0.002664279
0.002654998
0.002644177
0.002631884
0.002618223
0.002603331
0.002587371
0.00257054
0.002553056
0.002535153
0.002517066
0.002499022
0.002481233
0.00246389
0.002447155
0.002431179
0.002416096
0.002402025
0.002389071
0.002377319
0.002366828
0.002357631
0.002349741
0.002343145
0.0023378
0.002333648
0.002330616
0.00232862
0.002327573
0.002327395
0.00232801
0.002329354
0.002331384
0.0023341
0.002337549
0.002341539
0.002345787
0.002350231
0.002354862
0.002359621
0.002364442
0.002369287
0.002374131
0.002378954
0.002383742
0.002388485
0.002393171
0.002397791
0.002402334
0.002406785
0.002411121
0.002415322
0.00241937
0.002423247
0.002426939
0.002430427
0.002433693
0.002436721
0.002439493
0.002441997
0.002444221
0.002446155
0.002447795
0.002449136
0.00245017
0.002450882
0.00245126
0.002451296
0.002450988
0.002450331
0.002449328
0.002447973
0.002446258
0.002444159
0.002441687
0.002438827
0.002435615
0.002432018
0.00242811
0.002423819
0.002419306
0.002414428
0.002409596
0.002404669
0.002403209
0.002307369
0.002201666
0.002130339
0.002080757
0.002044874
0.002017742
0.001996242
0.001978394
0.00196292
0.001948993
0.001936078
0.001923826
0.001912013
0.00190049
0.001889159
0.001877957
0.001866844
0.001855804
0.001844814
0.001833856
0.001822924
0.001812018
0.001801137
0.001790283
0.001779462
0.001768677
0.00175794
0.001747267
0.00173668
0.001726212
0.001715917
0.001705886
0.001696311
0.001687583
0.001681161
0.001676898
0.001674827
0.001674381
0.001674738
0.001675586
0.001676743
0.001678081
0.001679505
0.001680945
0.001682351
0.001683685
0.001684915
0.001686019
0.001686978
0.001687781
0.001688418
0.001688886
0.001689184
0.001689315
0.001689283
0.001689097
0.001688767
0.001688303
0.001687718
0.001687027
0.001686244
0.001685383
0.001684461
0.001683492
0.001682491
0.001681471
0.001680446
0.001679422
0.001678379
0.001677041
0.001968676
0.001972228
0.0019758
0.001978855
0.001981312
0.001983251
0.001984778
0.001985982
0.001986945
0.001987742
0.001988437
0.00198908
0.001989702
0.001990328
0.001990978
0.001991667
0.001992404
0.001993193
0.001994036
0.001994934
0.001995884
0.001996884
0.001997928
0.001999011
0.002000129
0.002001273
0.002002439
0.00200362
0.00200481
0.002006003
0.002007193
0.002008376
0.002009544
0.002010695
0.002011822
0.002012921
0.002013988
0.002015017
0.002016002
0.002016938
0.002017816
0.002018628
0.002019361
0.002020011
0.002020532
0.002020847
0.002020871
0.002020657
0.002020298
0.00201985
0.002019294
0.002018659
0.002017997
0.002017823
0.002017517
0.002016425
0.002014978
0.002013531
0.00201216
0.002010878
0.002009692
0.002008605
0.00200761
0.002006698
0.002005865
0.002005108
0.002004426
0.002003822
0.002003295
0.002002845
0.002002473
0.002002177
0.002001958
0.002001811
0.002001736
0.002001728
0.002001782
0.002001892
0.002002051
0.002002251
0.002002484
0.00200274
0.002003011
0.002003289
0.002003566
0.002003838
0.002004099
0.002004343
0.002004565
0.002004755
0.002004907
0.002005012
0.002005062
0.00200505
0.002004969
0.002004813
0.002004576
0.00200425
0.002003831
0.00200331
0.002002685
0.00200195
0.002001104
0.002000147
0.001999081
0.001997913
0.00199665
0.001995304
0.001993887
0.001992417
0.001990913
0.001989395
0.001987887
0.001986412
0.001984999
0.001983671
0.001982458
0.001981384
0.001980479
0.001979764
0.001979272
0.001979016
0.001979033
0.001979328
0.001979946
0.001980883
0.001982203
0.001983883
0.001986023
0.001988583
0.001991727
0.001995396
0.001999865
0.002005024
0.002011254
0.002018383
0.002027913
0.002041494
0.00205874
2.805616e-05
3.322908e-05
4.095495e-05
4.97783e-05
5.989359e-05
7.14719e-05
8.487945e-05
0.000100335
0.0001181562
0.0001483281
0.0007096022
0.0008379145
0.0009731793
0.001117456
0.00127342
0.001444923
0.001642821
0.00190987
0.002464076
0.003998343
0.004231282
0.004433977
0.00461772
0.004772807
0.004912899
0.005051092
0.005187431
0.005345424
0.005738312
0.006077855
0.006185579
0.006266077
0.006335816
0.00639718
0.006451169
0.006498645
0.006541016
0.006583799
0.006512083
0.00657585
0.006666882
0.00675184
0.006822809
0.006880261
0.006925018
0.006960263
0.006988672
0.007012222
0.007033306
0.007056686
0.007082725
0.007110431
0.007137794
0.007162998
0.0071845
0.007199668
0.007936664
0.00794483
0.007942725
0.007934154
0.007921058
0.007904294
0.007884454
0.007861864
0.00783701
0.007810021
0.007780609
0.007749422
0.007717031
0.007683456
0.007649102
0.007614395
0.007579802
0.007545897
0.007513274
0.007481804
0.007451731
0.007424214
0.007399613
0.007378114
0.007359931
0.007345153
0.007333783
0.00732561
0.007320331
0.007317731
0.007317299
0.00731834
0.00732023
0.00732242
0.007323951
0.007324192
0.007321622
0.007316371
0.00729188
0.007263416
0.007229728
0.007191403
0.007150968
0.007096608
0.007022133
0.006926845
0.006809763
0.006670525
0.006510143
0.006330566
0.006135593
0.005930527
0.005722198
0.005517194
0.005322669
0.005143349
0.004984188
0.004844084
0.004722447
0.004623905
0.004547258
0.004488466
0.004444191
0.004412087
0.004389536
0.004373719
0.004361929
0.004351719
0.00434101
0.004328181
0.004312083
0.004291965
0.004267401
0.004238121
0.00420409
0.004165477
0.004122941
0.004077236
0.004028771
0.003978943
0.003929237
0.003878917
0.003828059
0.003777733
0.00372898
0.003681188
0.003638074
0.003602866
0.003575355
0.003554427
0.003539191
0.003528765
0.00352237
0.003519284
0.00351883
0.003520383
0.003523368
0.003527254
0.003531542
0.003535751
0.003539425
0.003542133
0.003543485
0.003543136
0.003540792
0.003536211
0.003529203
0.003519633
0.003507431
0.003492592
0.00347518
0.003455322
0.003433211
0.003409091
0.003383254
0.003356015
0.003327721
0.00329874
0.003269459
0.003240267
0.003211551
0.003183674
0.003156972
0.00313174
0.003108217
0.003086597
0.003067029
0.003049615
0.003034413
0.003021446
0.003010709
0.003002175
0.002995797
0.002991518
0.002989283
0.002989036
0.002990654
0.002993932
0.002998726
0.003004914
0.003012368
0.003020964
0.00303061
0.003041182
0.003052578
0.003064703
0.003077466
0.003090782
0.003104575
0.003118769
0.00313329
0.003148067
0.003163031
0.003178117
0.003193265
0.003208417
0.003223518
0.003238495
0.003253358
0.003268016
0.003282435
0.003296585
0.003310447
0.003324019
0.003337299
0.003350322
0.003362962
0.003375145
0.003386881
0.003398097
0.003408769
0.003418876
0.003428408
0.003437369
0.003445787
0.003453662
0.003461014
0.003467828
0.003474139
0.00347991
0.003485213
0.003489959
0.003494302
0.003498066
0.003501614
0.00350418
0.003499812
0.003499117
0.003500372
0.003502562
0.00350513
0.003507697
0.003510023
0.003511939
0.003513362
0.003514271
0.003514662
0.003514539
0.003513918
0.003512816
0.003511257
0.003509264
0.003506862
0.00350408
0.00350094
0.003497467
0.003493687
0.003489627
0.003485306
0.003480773
0.003476043
0.003471149
0.003466129
0.003461026
0.00345589
0.003450791
0.003445812
0.003440932
0.003436012
0.003431197
0.00342668
0.003422849
0.003420004
0.003417963
0.003416392
0.00341512
0.00341402
0.003412984
0.003411926
0.003410778
0.003409491
0.003408022
0.003406343
0.003404426
0.003402253
0.00339981
0.003397088
0.003394079
0.003390785
0.003387207
0.003383352
0.00337923
0.003374854
0.00337024
0.003365408
0.003360379
0.003355174
0.003349823
0.003344346
0.003338778
0.003333136
0.003327466
0.003321769
0.003316115
0.003310421
0.003305685
0.003293869
0.003282973
0.003272491
0.003262434
0.003253017
0.003244366
0.003236463
0.003229228
0.003222585
0.00321648
0.003210873
0.003205734
0.003201032
0.003196738
0.003192825
0.003189269
0.003186047
0.003183139
0.003180524
0.003178181
0.003176092
0.003174239
0.003172602
0.003171166
0.003169912
0.003168824
0.003167887
0.003167084
0.003166403
0.003165828
0.003165347
0.003164948
0.003164618
0.003164346
0.003164123
0.003163937
0.003163781
0.003163643
0.003163515
0.003163386
0.003163249
0.00316309
0.0031629
0.003162656
0.003162331
0.003161873
0.00316125
0.003160449
0.003159533
0.003158517
0.00315745
0.003156302
0.003155118
0.003153783
0.003152305
0.003150811
0.003149436
0.003148181
0.003146973
0.003145764
0.003144555
0.003143375
0.003142252
0.003141204
0.003140245
0.003139385
0.003138632
0.003137995
0.003137478
0.003137086
0.003136824
0.003136694
0.003136696
0.003136833
0.003137102
0.003137501
0.003138026
0.003138672
0.003139429
0.003140289
0.003141241
0.003142273
0.003143372
0.003144525
0.003145722
0.003146951
0.003148206
0.003149477
0.003150754
0.003152027
0.00315328
0.003154501
0.003155675
0.003156789
0.003157832
0.00315879
0.003159649
0.003160397
0.003161018
0.003161497
0.003161818
0.003161968
0.003161936
0.003161711
0.003161289
0.003160667
0.003159848
0.00315884
0.003157655
0.003156309
0.003154825
0.003153228
0.003151549
0.003149822
0.003148084
0.003146373
0.003144732
0.003143203
0.003141828
0.003140651
0.003139711
0.003139053
0.003138713
0.003138736
0.003139152
0.003140014
0.00314135
0.003143221
0.003145662
0.003148757
0.003152555
0.003157179
0.003162708
0.003169315
0.003177142
0.003186485
0.003197829
0.003211495
0.003226933
3.735108e-05
5.838238e-05
0.000136488
0.0004498208
0.0007651311
0.001345116
0.001804011
0.002352463
0.002978329
0.003472178
0.003818059
0.004087499
0.004363647
0.004651357
0.004944093
0.005239637
0.005541064
0.005850232
0.006167184
0.006489931
0.006813888
0.007129953
0.007410719
0.007662011
0.007900536
0.008128458
0.008343826
0.008552498
0.00876046
0.008976339
0.009250158
0.01
0.01
0.01
0.01
0.009949466
0.009637003
0.009343723
0.0090703
0.008776311
0.008505101
0.008322992
0.008173266
0.008051308
0.007960476
0.007901621
0.007872908
0.007872649
0.007903179
0.007961211
0.008029521
0.008107017
0.008216152
0.008341564
0.008478987
0.008627745
0.008786505
0.008953859
0.009135773
0.009327082
0.009550523
0.009803449
0.009949449
0.009971783
0.009988294
0.009999543
0.01
0.01
0.009987718
0.009965956
0.009944313
0.009921675
0.009897505
0.009871521
0.009843546
0.009813454
0.009781182
0.009746693
0.009709997
0.009671306
0.009630842
0.009588692
0.009545113
0.009500487
0.00945523
0.009409799
0.009364637
0.009320188
0.009277013
0.009235686
0.009196831
0.009160999
0.009128534
0.009099611
0.009074283
0.009052452
0.009033948
0.009018536
0.009005791
0.008995221
0.008986338
0.008978601
0.008971394
0.008963913
0.008955317
0.008944547
0.008930351
0.008911885
0.008889686
0.008864408
0.008827485
0.008776495
0.008708546
0.008621065
0.008511946
0.008379732
0.008224154
0.008046207
0.007848459
0.007634831
0.007410621
0.007181715
0.006954546
0.006734723
0.00652748
0.006335925
0.006162181
0.006009185
0.005878282
0.005768704
0.005678743
0.005606466
0.005549767
0.005506264
0.005473364
0.005448433
0.005428966
0.005412699
0.005397658
0.005382132
0.005364644
0.005343888
0.005318758
0.005288367
0.005252155
0.005209828
0.005161318
0.005106906
0.005047285
0.004982878
0.004914323
0.00484275
0.004769867
0.004697248
0.004627433
0.004563166
0.004506082
0.004456672
0.004414867
0.004380389
0.004352868
0.00433184
0.004316747
0.004306959
0.004301803
0.004300588
0.004302619
0.004307193
0.004313608
0.004321172
0.004329207
0.004337065
0.004344129
0.004349817
0.004353589
0.004354952
0.004353465
0.004348755
0.004340522
0.00432855
0.004312715
0.004293067
0.004269717
0.004242683
0.004212121
0.00417832
0.004141687
0.004102745
0.004062106
0.004020398
0.003978129
0.003935847
0.003894092
0.003853373
0.003814159
0.003776862
0.003741839
0.003709382
0.003679726
0.003653046
0.003629464
0.003609051
0.003591838
0.003577815
0.003566923
0.003559047
0.003554044
0.003551768
0.003552074
0.003554812
0.003559826
0.003566956
0.003576041
0.003586935
0.003599479
0.00361353
0.003628949
0.003645603
0.003663362
0.003682098
0.003701669
0.003722014
0.003742979
0.003764464
0.003786368
0.003808596
0.003831056
0.003853656
0.003876313
0.003898942
0.003921461
0.003943788
0.003965834
0.003987584
0.004009056
0.004030196
0.004050954
0.004071289
0.004091166
0.004110554
0.00412943
0.004147775
0.004165578
0.004182819
0.004199496
0.004215589
0.004231107
0.004246024
0.00426037
0.004274101
0.004287287
0.004299856
0.004311964
0.004323482
0.004334291
0.00434441
0.004353901
0.004362843
0.004371359
0.004379503
0.00438727
0.004394688
0.004401726
0.004408381
0.004414653
0.004420542
0.004426047
0.00443117
0.004435903
0.00444028
0.004444285
0.004447926
0.004451214
0.004454157
0.004456755
0.004459047
0.004461023
0.004462698
0.004464074
0.004465196
0.004466056
0.004466669
0.004467053
0.004467224
0.004467191
0.004467007
0.004466667
0.004466225
0.004465796
0.004465571
0.00446573
0.004466283
0.004467078
0.004468012
0.004468947
0.004469799
0.004470499
0.004470988
0.004471207
0.004471146
0.004470748
0.004469986
0.00446883
0.004467292
0.004465339
0.004462963
0.004460163
0.004456941
0.004453301
0.004449255
0.004444816
0.004440001
0.004434833
0.004429335
0.004423539
0.00441747
0.004411168
0.004404658
0.004397994
0.004391188
0.004384304
0.004377352
0.004370432
0.004363495
0.004356266
0.004348711
0.004341012
0.004333372
0.004325882
0.004318576
0.004311471
0.004304589
0.004297952
0.004291589
0.004285526
0.004279785
0.004274381
0.004269322
0.00426461
0.004260243
0.004256218
0.004252527
0.004249161
0.004246108
0.004243356
0.004240891
0.004238698
0.00423676
0.004235064
0.004233592
0.004232328
0.004231257
0.004230363
0.004229632
0.004229047
0.004228597
0.004228267
0.004228044
0.004227918
0.004227877
0.004227911
0.004228008
0.004228161
0.004228359
0.004228594
0.004228852
0.004229123
0.004229387
0.004229624
0.004229808
0.004229913
0.004229923
0.004229854
0.004229726
0.004229565
0.004229371
0.004229154
0.004228937
0.004228771
0.00422863
0.004228458
0.004228265
0.004228097
0.004227993
0.004227983
0.00422809
0.004228329
0.004228714
0.004229252
0.004229951
0.004230818
0.004231859
0.004233083
0.004234495
0.004236102
0.004237909
0.004239921
0.004242141
0.00424457
0.004247208
0.004250052
0.004253099
0.004256342
0.004259773
0.004263379
0.004267149
0.004271067
0.004275118
0.004279286
0.00428356
0.004287927
0.004292379
0.004296903
0.004301486
0.004306108
0.004310753
0.0043154
0.004320033
0.004324636
0.00432919
0.004333678
0.004338079
0.004342368
0.004346522
0.004350513
0.004354317
0.004357909
0.004361266
0.004364371
0.004367209
0.004369772
0.004372057
0.004374068
0.004375814
0.004377312
0.004378585
0.004379662
0.004380578
0.004381373
0.004382092
0.004382783
0.004383497
0.004384286
0.004385204
0.004386302
0.004387635
0.004389252
0.004391207
0.004393547
0.004396329
0.0043996
0.004403423
0.004407856
0.004412975
0.004418862
0.00442561
0.00443336
0.004442202
0.004452397
0.004463976
0.004477441
0.004492431
0.004508955
2.270204e-05
3.587653e-05
5.287444e-05
0.0002338778
0.0003780832
0.0006242437
0.000876239
0.001107257
0.001398894
0.001686033
0.001999335
0.00240772
0.002892608
0.003443271
0.004068792
0.004874243
0.006352069
0.006939279
0.007500219
0.007999348
0.008437396
0.008813614
0.009145227
0.009446777
0.009725381
0.009985148
0.01
0.01
0.01
0.01
0.01
0.01
0.01
0.01
0.01
0.01
0.01
0.01
0.01
0.01
0.01
0.01
0.01
0.01
0.009866812
0.009484152
0.009105491
0.008749053
0.008415285
0.008102544
0.007814088
0.007561997
0.007377584
0.007237118
0.00712676
0.007046975
0.006998347
0.006979794
0.006992216
0.00702978
0.007098374
0.007188853
0.007298587
0.007432126
0.007586605
0.007764357
0.007963358
0.008190074
0.008454425
0.008748535
0.00907758
0.009432256
0.009813094
0.01
0.01
0.01
0.01
0.01
0.01
0.01
0.01
0.01
0.01
0.01
0.01
0.01
0.01
0.01000001
0.01000001
0.01000001
0.01
0.01
0.01000001
0.01000001
0.01000001
0.01
0.01
0.01
0.01000001
0.01000001
0.01000001
0.01
0.01
0.01
0.01000001
0.01000001
0.01000001
0.01
0.01
0.01
0.01000001
0.01000001
0.01000001
0.01000001
0.01
0.01
0.01000001
0.01000001
0.01000001
0.01000001
0.01000001
0.01
0.009981061
0.00992803
0.009858734
0.009770357
0.009660588
0.009528171
0.009373114
0.009196697
0.009001294
0.008790007
0.008567422
0.008338887
0.008109746
0.007885134
0.007669522
0.007466557
0.007279625
0.007111389
0.006963164
0.006835075
0.006726456
0.006636217
0.006562807
0.006504253
0.006458294
0.006422561
0.006394717
0.00637253
0.006353897
0.006336846
0.006319519
0.006300187
0.00627727
0.006249395
0.006215434
0.006174513
0.006126052
0.006069872
0.006006056
0.005935011
0.005857597
0.005775299
0.00568997
0.005603902
0.005519709
0.005439702
0.005365485
0.005298056
0.00523805
0.005185854
0.005141619
0.005105266
0.005076506
0.005054892
0.005039853
0.005030733
0.005026811
0.005027323
0.005031473
0.005038455
0.00504746
0.005057691
0.005068365
0.005078721
0.005088021
0.005095563
0.005100689
0.005102796
0.005101346
0.005095885
0.005086116
0.005071806
0.005052743
0.005028824
0.00500005
0.004966536
0.004928514
0.004886309
0.004840384
0.004791533
0.004740552
0.004687996
0.004634485
0.004580677
0.004527229
0.004474771
0.004423891
0.004375119
0.004328924
0.004285701
0.004245776
0.004209401
0.004176757
0.004147956
0.004123036
0.004101974
0.00408471
0.004071152
0.004061182
0.004054657
0.004051417
0.004051287
0.004054097
0.004059641
0.004067752
0.004078245
0.004090939
0.004105649
0.004122222
0.004140476
0.004160244
0.00418137
0.004203701
0.004227092
0.004251401
0.004276492
0.004302236
0.004328506
0.004355178
0.004382133
0.004409246
0.004436384
0.004463398
0.004490221
0.004516894
0.004543432
0.004569764
0.004595833
0.004621586
0.00464698
0.004671973
0.004696531
0.004720622
0.00474422
0.004767297
0.004789837
0.004811813
0.004833223
0.004854041
0.004874282
0.004893926
0.004913011
0.004931506
0.004949395
0.004966688
0.004983382
0.004999466
0.00501494
0.005029815
0.005044104
0.005057822
0.005070986
0.005083615
0.005095728
0.005107343
0.00511848
0.005129153
0.005139379
0.005149173
0.005158549
0.005167524
0.00517611
0.005184321
0.005192172
0.005199674
0.00520684
0.005213684
0.005220216
0.005226446
0.005232387
0.005238044
0.005243427
0.00524854
0.005253394
0.005258
0.005262378
0.005266569
0.005270642
0.005274704
0.005278871
0.005283195
0.005287626
0.005292065
0.005296419
0.005300612
0.00530458
0.005308266
0.005311618
0.005314591
0.005317145
0.005319245
0.005320862
0.005321971
0.005322538
0.00532259
0.005322084
0.005321019
0.005319397
0.005317224
0.005314511
0.005311272
0.005307529
0.005303304
0.005298631
0.005293523
0.005288059
0.005282246
0.005276135
0.005269763
0.005263191
0.005256448
0.005249596
0.00524264
0.005235608
0.005228545
0.005221508
0.005214539
0.00520767
0.005200945
0.005194411
0.005188109
0.005182066
0.005176306
0.005170849
0.005165713
0.005160912
0.005156456
0.005152351
0.0051486
0.005145201
0.005142153
0.005139449
0.005137083
0.005135043
0.00513332
0.005131899
0.005130766
0.005129908
0.005129308
0.005128951
0.005128821
0.005128902
0.005129178
0.005129636
0.005130259
0.005131035
0.005131951
0.005132994
0.005134155
0.005135421
0.005136784
0.005138236
0.005139768
0.00514137
0.005143035
0.005144751
0.005146505
0.005148284
0.005150069
0.005151843
0.005153592
0.005155318
0.005157035
0.005158762
0.005160509
0.005162293
0.005164132
0.005166028
0.005167954
0.005169911
0.005171934
0.00517406
0.005176314
0.00517871
0.00518126
0.005183982
0.005186892
0.005190006
0.005193338
0.005196902
0.005200712
0.005204778
0.005209113
0.005213728
0.005218631
0.00522383
0.005229333
0.005235143
0.005241264
0.005247697
0.00525444
0.005261489
0.005268838
0.005276477
0.005284394
0.005292575
0.005301004
0.005309663
0.005318537
0.005327613
0.005336879
0.005346324
0.005355932
0.005365683
0.005375555
0.005385525
0.005395573
0.00540568
0.005415828
0.005425994
0.005436152
0.005446274
0.005456325
0.00546627
0.00547607
0.00548569
0.005495094
0.00550425
0.005513129
0.005521709
0.005529973
0.00553791
0.005545519
0.005552805
0.005559781
0.005566467
0.005572892
0.005579092
0.005585107
0.005590984
0.005596776
0.005602536
0.00560832
0.005614182
0.00562018
0.005626367
0.005632798
0.005639527
0.005646608
0.005654095
0.005662048
0.005670532
0.005679615
0.005689384
0.005699923
0.005711363
0.005723787
0.005737406
0.005752216
0.005768612
0.00578613
0.005804497
2.164485e-05
3.284655e-05
6.509768e-05
0.0001916915
0.0003051732
0.0004767345
0.0006100226
0.0007615366
0.000939913
0.001115118
0.001321705
0.001589696
0.001898679
0.002269557
0.002755343
0.003674095
0.004102385
0.004563331
0.005046991
0.005550697
0.006077287
0.006616302
0.007151931
0.007669806
0.00815591
0.008604252
0.009040173
0.009518204
0.009961336
0.01
0.01
0.01
0.01
0.01
0.01
0.01
0.01
0.01
0.01
0.01
0.01
0.01
0.01
0.01
0.01
0.01
0.01
0.01
0.01
0.01
0.01
0.01
0.009832889
0.009364946
0.008925928
0.008518082
0.008139724
0.007794463
0.007477593
0.007191504
0.006936372
0.006724169
0.006559918
0.006438737
0.006353517
0.006304983
0.006291248
0.006313284
0.006370558
0.006460147
0.006584293
0.006739337
0.006928289
0.007151194
0.007416879
0.007735325
0.008105397
0.008526676
0.008987718
0.009480114
0.01
0.01
0.01
0.01
0.01
0.01000001
0.01000001
0.01000001
0.01000001
0.01000001
0.01000001
0.01000001
0.01000001
0.01000001
0.01000001
0.01000001
0.01000001
0.01000002
0.01000002
0.01000002
0.01000001
0.01000001
0.01000001
0.01000002
0.01000002
0.01000002
0.01000001
0.01000001
0.01000001
0.01000002
0.01000002
0.01000001
0.01000001
0.01000001
0.01000001
0.01000002
0.01000002
0.01000002
0.01000001
0.01000001
0.01000002
0.01000003
0.01000003
0.01000003
0.01000001
0.01000001
0.01000002
0.01000003
0.01000004
0.01000005
0.01000003
0.01000002
0.01000001
0.01000002
0.01000002
0.01000002
0.01000001
0.01000001
0.01000002
0.01000002
0.01000001
0.009859441
0.00965939
0.009448699
0.009231742
0.009012581
0.008795475
0.008584684
0.008384094
0.008197035
0.008026024
0.00787264
0.007737484
0.007620603
0.007521445
0.007438898
0.007371393
0.007317055
0.007273851
0.007239689
0.007212474
0.007190142
0.00717067
0.007152091
0.007132511
0.007110131
0.007083345
0.007050706
0.007011008
0.006963363
0.006907225
0.00684244
0.006769312
0.006688737
0.006602119
0.006511368
0.006418751
0.006326601
0.006236992
0.006151627
0.006071891
0.005998891
0.005933451
0.005876103
0.005827093
0.005786411
0.005753828
0.005728942
0.00571121
0.005699977
0.005694507
0.005694006
0.005697643
0.005704569
0.005713923
0.005724843
0.005736474
0.005747977
0.005758531
0.005767354
0.005773701
0.00577688
0.005776143
0.005771178
0.005761595
0.005747013
0.005727153
0.005701856
0.005671093
0.005634946
0.005593588
0.00554729
0.005496505
0.005442155
0.005384892
0.005325303
0.005264062
0.005201888
0.005139504
0.005077623
0.005016923
0.004958031
0.004901519
0.004847884
0.004797551
0.004750865
0.004708088
0.004669406
0.004634935
0.004604732
0.004578804
0.004557105
0.004539552
0.004526026
0.004516381
0.00451047
0.00450807
0.004509022
0.004513129
0.004520188
0.004529994
0.004542346
0.004557042
0.004573888
0.00459269
0.004613263
0.004635425
0.004659002
0.004683825
0.004709731
0.004736564
0.004764173
0.004792413
0.004821143
0.004850223
0.004879515
0.00490886
0.00493814
0.004967358
0.004996557
0.005025689
0.005054685
0.005083486
0.005112039