/*--------------------------------*- C++ -*----------------------------------*\
| =========                 |                                                 |
| \\      /  F ield         | foam-extend: Open Source CFD                    |
|  \\    /   O peration     | Version:     3.1                                |
|   \\  /    A nd           | Web:         http://www.extend-project.de       |
|    \\/     M anipulation  |                                                 |
\*---------------------------------------------------------------------------*/
FoamFile
{
    version     2.0;
    format      ascii;
    class       volScalarField;
    location    "7";
    object      pd;
}
// * * * * * * * * * * * * * * * * * * * * * * * * * * * * * * * * * * * * * //

dimensions      [1 -1 -2 0 0 0 0];

internalField   nonuniform List<scalar> 
119952
(
7807.169
7637.562
7636.966
7721.306
7805.682
7830.84
7869.068
7909.413
7949.279
7988.917
8027.062
8064.005
8099.463
8133.752
8167.412
8200.884
8234.441
8267.425
8298.163
8321.73
8391.897
8399.69
8423.049
8500.832
8522.259
8555.405
8582.949
8617.918
8675.757
9587.314
5307.665
5293.877
5317.41
5342.443
5369.055
5397.516
5427.231
5459.302
5493.184
5509.269
5540.898
5588.953
5625.332
5665.98
5707.303
5752.497
5801.629
5852.45
5909.478
6011.444
6049.598
6111.988
6186.442
6263.088
6348.514
6437.745
6531.733
6628.942
6725.39
6814.367
6911.869
7007.531
7093.331
7174.442
7251.473
7325.699
7400.43
7487.593
7588.023
7617.176
7660.572
7731.044
7789.355
7834.703
7874.83
7915.762
7956.183
7995.455
8033.645
8070.623
8106.394
8141.185
8175.317
8209.04
8242.393
8275.217
8307.388
8339.649
8374.371
8408.494
8439.46
8481.668
8525.697
8555.202
8582.317
8606.516
8618.123
8604.572
8621.878
8645.313
8666.427
8686.946
8706.249
8724.447
8741.708
8758.141
8773.834
8788.849
8803.24
8817.06
8830.354
8843.167
8855.537
8867.495
8879.066
8890.28
8901.175
8911.775
8922.054
8932.062
8941.799
8951.264
8960.46
8969.384
8978.033
8986.403
8994.486
9002.276
9009.765
9016.946
9023.814
9030.365
9036.602
9042.529
9048.142
9053.441
9058.432
9063.126
9067.537
9071.664
9075.513
9079.094
9082.417
9085.485
9088.294
9090.886
9093.741
9096.872
9099.884
9101.776
9103.731
9105.607
9107.36
9109.038
9110.65
9112.197
9113.689
9115.129
9116.525
9117.88
9119.2
9120.489
9121.751
9122.988
9124.203
9125.396
9126.57
9127.725
9128.862
9129.981
9131.081
9132.163
9133.225
9134.264
9135.274
9136.271
9137.253
9138.222
9139.141
9140.02
9140.866
9141.681
9142.462
9143.207
9143.915
9144.586
9145.216
9145.804
9146.348
9146.846
9147.293
9147.684
9148.008
9148.236
9148.316
9148.205
9148.351
9151.009
9151.511
9151.564
9151.726
9151.845
9151.92
9151.949
9151.941
9151.907
9151.844
9151.755
9151.636
9151.493
9151.322
9151.125
9150.901
9150.615
9150.332
9150.016
9149.688
9149.32
9148.916
9148.473
9147.988
9147.455
9146.867
9146.213
9145.479
9144.644
9143.674
9142.516
9141.075
9139.192
9136.702
9132.381
9127.026
9133.897
9138.542
9142.162
9145.15
9147.861
9150.38
9152.756
9155.051
9157.298
9159.512
9161.711
9163.904
9166.099
9168.303
9170.522
9172.758
9175.016
9177.296
9179.602
9181.935
9184.295
9186.683
9189.1
9191.546
9194.023
9196.53
9199.068
9201.637
9204.24
9206.88
9209.571
9212.354
9215.088
9217.607
9234.049
9230.869
9225.433
9228.475
9231.383
9233.472
9235.918
9238.642
9241.39
9244.135
9246.912
9249.764
9252.639
9255.529
9258.441
9261.368
9264.304
9267.247
9270.193
9273.14
9276.087
9279.032
9281.972
9284.908
9287.838
9290.76
9293.673
9296.576
9299.468
9302.349
9305.218
9308.075
9310.918
9313.75
9316.568
9319.377
9322.175
9324.968
9327.759
9330.555
9333.367
9336.214
9339.127
9342.146
9345.219
9347.927
9349.777
9351.178
9352.762
9354.513
9356.312
9358.153
9359.864
9360.451
9356.841
9362.041
9364.765
9366.088
9367.655
9369.192
9370.62
9372.021
9373.414
9374.792
9376.149
9377.48
9378.777
9380.042
9381.271
9382.463
9383.616
9384.727
9385.795
9386.819
9387.797
9388.73
9389.617
9390.458
9391.253
9392.001
9392.702
9393.356
9393.963
9394.523
9395.035
9395.499
9395.915
9396.283
9396.603
9396.874
9397.096
9397.269
9397.392
9397.464
9397.486
9397.457
9397.375
9397.241
9397.054
9396.813
9396.517
9396.165
9395.756
9395.288
9394.761
9394.173
9393.522
9392.807
9392.026
9391.177
9390.259
9389.269
9388.205
9387.064
9385.843
9384.539
9383.147
9381.663
9380.082
9378.396
9376.597
9374.677
9372.622
9370.419
9368.05
9365.492
9362.721
9359.697
9356.367
9352.652
9348.483
9343.719
9338.171
9331.557
9323.326
9313.101
9303.361
9309.332
9358.085
8318.147
8224.904
8109.258
7985.496
7854.967
7719.816
7581.876
7442.347
7302.034
7152.199
7018.335
6886.139
6754.998
6629.262
6507.524
6390.134
6276.919
6166.876
6045.349
5958.932
5861.12
5767.628
5683.996
5606.879
5536.915
5474.524
5418.994
5373.041
5337.19
5294.766
5270.398
5254.218
5243.802
5240.124
5242.441
5250.28
5264.036
5288.548
5294.385
5312.153
5339.758
5367.856
5396.89
5427.358
5458.788
5491.218
5523.864
5555.774
5593.498
5632.3
5671.258
5712.584
5756.808
5803.806
5855.383
5912.634
5980.584
6049.014
6118.438
6191.348
6269.48
6353.598
6442.384
6535.781
6631.436
6728.761
6824.833
6918.06
7008.242
7095.399
7179.652
7261.191
7340.96
7419.548
7495.896
7567.835
7629.616
7684.337
7739.483
7793.256
7842.363
7886.829
7928.497
7968.7
8007.875
8045.968
8082.893
8118.736
8153.721
8188.089
8222.035
8255.647
8288.964
8322.099
8355.359
8389.004
8423.007
8457.36
8492.272
8526.334
8556.395
8581.186
8600.776
8614.954
8625.781
8639.308
8657.238
8677.023
8696.526
8714.929
8732.273
8748.798
8764.644
8779.856
8794.454
8808.464
8821.936
8834.919
8847.454
8859.575
8871.313
8882.694
8893.744
8904.483
8914.932
8925.105
8935.011
8944.654
8954.036
8963.156
8972.009
8980.593
8988.898
8996.918
9004.645
9012.07
9019.186
9025.988
9032.463
9038.62
9044.488
9050.021
9055.227
9060.13
9064.733
9069.046
9073.075
9076.834
9080.333
9083.588
9086.624
9089.482
9092.221
9094.898
9097.531
9100
9102.201
9104.185
9106.018
9107.755
9109.42
9111.016
9112.545
9114.014
9115.43
9116.799
9118.129
9119.426
9120.692
9121.932
9123.147
9124.341
9125.515
9126.669
9127.805
9128.924
9130.025
9131.108
9132.172
9133.217
9134.24
9135.24
9136.217
9137.172
9138.101
9139.002
9139.873
9140.712
9141.516
9142.283
9143.009
9143.705
9144.361
9144.979
9145.553
9146.087
9146.571
9147.016
9147.403
9147.759
9148.06
9148.374
9148.679
9148.99
9151.444
9151.295
9151.087
9151.157
9151.302
9151.363
9151.384
9151.368
9151.326
9151.263
9151.173
9151.056
9150.913
9150.743
9150.546
9150.321
9150.07
9149.79
9149.482
9149.145
9148.777
9148.373
9147.931
9147.447
9146.917
9146.334
9145.687
9144.964
9144.147
9143.209
9142.109
9140.786
9139.184
9137.343
9135.542
9134.818
9136.79
9140.173
9143.069
9145.744
9148.281
9150.681
9152.99
9155.241
9157.455
9159.646
9161.826
9164.004
9166.188
9168.385
9170.597
9172.83
9175.085
9177.365
9179.672
9182.006
9184.368
9186.76
9189.181
9191.633
9194.114
9196.627
9199.17
9201.744
9204.352
9206.997
9209.683
9212.416
9215.271
9219.331
9223.197
9227.406
9229.306
9230.184
9231.579
9233.775
9236.416
9239.173
9241.925
9244.681
9247.471
9250.306
9253.182
9256.083
9259.001
9261.93
9264.867
9267.811
9270.759
9273.708
9276.657
9279.603
9282.546
9285.483
9288.414
9291.337
9294.251
9297.155
9300.047
9302.928
9305.797
9308.652
9311.494
9314.322
9317.138
9319.941
9322.733
9325.517
9328.296
9331.072
9333.852
9336.636
9339.413
9342.148
9344.761
9347.16
9349.251
9351.08
9352.827
9354.602
9356.386
9358.139
9359.766
9361.05
9361.636
9362.396
9364.082
9366.175
9368.111
9369.743
9371.181
9372.552
9373.917
9375.275
9376.612
9377.915
9379.182
9380.414
9381.613
9382.776
9383.9
9384.985
9386.027
9387.027
9387.984
9388.896
9389.763
9390.586
9391.362
9392.093
9392.778
9393.417
9394.009
9394.554
9395.051
9395.502
9395.904
9396.258
9396.564
9396.822
9397.031
9397.191
9397.301
9397.361
9397.37
9397.328
9397.234
9397.087
9396.888
9396.634
9396.326
9395.962
9395.542
9395.063
9394.524
9393.925
9393.263
9392.538
9391.747
9390.888
9389.961
9388.961
9387.889
9386.739
9385.511
9384.199
9382.801
9381.311
9379.725
9378.035
9376.236
9374.315
9372.266
9370.07
9367.718
9365.181
9362.446
9359.467
9356.222
9352.637
9348.689
9344.277
9339.436
9334.201
9329.123
9325.121
9323.861
9325.88
9331.971
4260.831
4276.497
4310.658
4358.301
4417.379
4488.874
4572.451
4667.628
4773.783
4892.844
5021.24
5162.192
5311.655
5470.634
5638.662
5814.684
5997.883
6187.446
6381.26
6605.928
6810.412
7015.028
7218.23
7415.67
7605.203
7783.228
7946.942
8092.925
8223.847
8326.627
8406.304
8462.638
8495.136
8503.756
8489.161
8452.621
8395.976
8321.243
8223.384
8122.863
8008.236
7885.153
7755.704
7622.255
7486.454
7349.966
7214.627
7080.87
6947.785
6819.773
6693.576
6571.054
6452.365
6337.873
6228.67
6129.136
5983.583
5887.912
5801.851
5717.732
5637.169
5562.696
5495.501
5435.829
5383.752
5338.868
5301.428
5272.566
5250.962
5236.054
5228.101
5227.022
5232.222
5242.92
5258.104
5276.666
5298.418
5321.948
5347.102
5374.441
5403.511
5433.669
5464.738
5496.653
5529.505
5563.447
5598.396
5634.743
5672.936
5713.43
5756.45
5802.571
5851.821
5905.817
5965.925
6029.394
6095.26
6165.79
6243.211
6327.101
6416.395
6509.035
6604.091
6700.468
6796.398
6891.131
6984.143
7074.733
7162.522
7247.638
7329.858
7409.148
7484.821
7557.045
7623.583
7682.422
7737.635
7791.436
7842.207
7888.689
7931.751
7972.792
8012.504
8050.983
8088.219
8124.323
8159.521
8194.055
8228.112
8261.828
8295.284
8328.557
8361.732
8394.99
8428.392
8461.428
8493.871
8525.325
8554.057
8578.775
8599.618
8617.391
8632.41
8647.236
8664.308
8683.129
8701.955
8719.866
8736.787
8752.922
8768.419
8783.321
8797.634
8811.378
8824.597
8837.339
8849.647
8861.556
8873.096
8884.293
8895.173
8905.758
8916.068
8926.116
8935.91
8945.456
8954.755
8963.805
8972.603
8981.143
8989.416
8997.411
9005.123
9012.542
9019.66
9026.47
9032.969
9039.133
9045
9050.553
9055.783
9060.704
9065.322
9069.647
9073.688
9077.459
9080.974
9084.253
9087.321
9090.206
9092.939
9095.549
9098.06
9100.441
9102.614
9104.582
9106.41
9108.142
9109.796
9111.376
9112.887
9114.335
9115.729
9117.078
9118.387
9119.661
9120.906
9122.124
9123.318
9124.491
9125.644
9126.779
9127.896
9128.996
9130.078
9131.143
9132.189
9133.216
9134.221
9135.205
9136.157
9137.107
9138.025
9138.914
9139.77
9140.595
9141.388
9142.148
9142.879
9143.564
9144.213
9144.823
9145.394
9145.923
9146.412
9146.859
9147.269
9147.642
9148.002
9148.36
9148.811
9149.412
9150.354
9150.916
9150.951
9150.844
9150.826
9150.876
9150.92
9150.926
9150.9
9150.84
9150.749
9150.63
9150.483
9150.31
9150.109
9149.881
9149.625
9149.343
9149.033
9148.693
9148.322
9147.918
9147.478
9147
9146.479
9145.91
9145.287
9144.601
9143.842
9143.001
9142.073
9141.079
9140.087
9139.216
9138.738
9139.031
9140.323
9142.391
9144.722
9147.036
9149.275
9151.463
9153.626
9155.775
9157.914
9160.049
9162.186
9164.333
9166.493
9168.672
9170.872
9173.097
9175.348
9177.627
9179.934
9182.272
9184.639
9187.037
9189.466
9191.925
9194.415
9196.936
9199.486
9202.069
9204.677
9207.323
9209.983
9212.683
9215.375
9218.222
9220.762
9222.493
9224.393
9226.847
9229.679
9232.639
9235.599
9238.521
9241.407
9244.277
9247.151
9250.042
9252.954
9255.88
9258.815
9261.756
9264.703
9267.654
9270.607
9273.561
9276.514
9279.465
9282.411
9285.352
9288.287
9291.213
9294.13
9297.037
9299.932
9302.816
9305.686
9308.542
9311.385
9314.213
9317.026
9319.826
9322.612
9325.385
9328.146
9330.895
9333.631
9336.343
9339.015
9341.619
9344.124
9346.488
9348.667
9350.648
9352.497
9354.304
9356.098
9357.854
9359.562
9361.319
9363.349
9365.269
9366.776
9368.016
9369.203
9370.417
9371.661
9372.926
9374.208
9375.497
9376.78
9378.044
9379.282
9380.491
9381.668
9382.812
9383.92
9384.989
9386.019
9387.007
9387.952
9388.855
9389.714
9390.529
9391.298
9392.023
9392.702
9393.336
9393.923
9394.464
9394.957
9395.402
9395.801
9396.153
9396.456
9396.712
9396.919
9397.076
9397.184
9397.242
9397.25
9397.206
9397.111
9396.964
9396.764
9396.511
9396.203
9395.84
9395.421
9394.944
9394.409
9393.813
9393.156
9392.436
9391.651
9390.8
9389.881
9388.892
9387.831
9386.694
9385.481
9384.186
9382.807
9381.339
9379.778
9378.118
9376.352
9374.473
9372.471
9370.337
9368.055
9365.613
9362.989
9360.166
9357.116
9353.823
9350.266
9346.477
9342.521
9338.607
9335.026
9332.207
9330.489
9330.532
9332.635
4457.278
4406.765
4364.788
4325.698
4292.755
4270.352
4261.73
4272.889
4297.86
4295.22
4267.366
4251.192
4254.921
4274.258
4308.398
4355.128
4413.666
4483.622
4565.259
4658.363
4762.192
4876.901
5001.963
5137.773
5283.335
5438.756
5603.137
5775.31
5954.794
6139.577
6331.907
6573.096
6776.871
6980.539
7179.92
7373.563
7559.309
7734.642
7896.652
8044.349
8170.342
8271.587
8348.39
8400.871
8428.812
8432.51
8412.906
8371.553
8310.448
8232.157
8139.252
8034.148
7918.581
7794.774
7665.14
7531.81
7396.591
7261.297
7127.114
6995.032
6865.42
6739.063
6616.197
6496.78
6381.12
6269.453
6161.6
6056.857
5952.944
5856.89
5769.73
5686.062
5606.061
5531.996
5465.151
5405.871
5354.116
5310.18
5274.398
5246.217
5225.475
5212.38
5206.696
5207.914
5215.35
5228.158
5245.531
5266.803
5290.559
5315.707
5342.564
5371.181
5400.96
5431.371
5462.248
5493.677
5525.762
5558.481
5592.169
5627.23
5663.867
5702.398
5743.279
5786.934
5834.213
5885.536
5940.735
6000.247
6064.584
6134.584
6211.046
6293.58
6380.944
6472.13
6566.378
6662.619
6759.536
6856.154
6951.556
7044.934
7135.762
7223.755
7308.532
7389.995
7467.777
7541.589
7610.21
7672.868
7731.191
7786.633
7838.905
7887.43
7932.584
7975.257
8016.106
8055.405
8093.28
8129.9
8165.498
8200.315
8234.545
8268.335
8301.772
8334.919
8367.831
8400.559
8433.027
8464.956
8496.053
8525.904
8553.613
8578.487
8600.42
8619.854
8637.252
8653.96
8671.355
8689.54
8707.704
8725.183
8741.807
8757.675
8772.901
8787.532
8801.586
8815.084
8828.065
8840.577
8852.66
8864.352
8875.682
8886.679
8897.368
8907.771
8917.908
8927.791
8937.431
8946.834
8956.002
8964.932
8973.622
8982.066
8990.257
8998.185
9005.839
9013.208
9020.286
9027.067
9033.539
9039.714
9045.574
9051.12
9056.351
9061.277
9065.903
9070.238
9074.293
9078.081
9081.615
9084.915
9088.002
9090.898
9093.627
9096.211
9098.664
9100.978
9103.124
9105.102
9106.944
9108.679
9110.328
9111.899
9113.397
9114.835
9116.217
9117.553
9118.848
9120.107
9121.336
9122.538
9123.716
9124.872
9126.008
9127.126
9128.227
9129.311
9130.379
9131.43
9132.463
9133.479
9134.475
9135.451
9136.413
9137.331
9138.227
9139.1
9139.942
9140.754
9141.535
9142.282
9142.995
9143.67
9144.308
9144.909
9145.47
9145.993
9146.477
9146.926
9147.34
9147.731
9148.103
9148.491
9148.88
9149.306
9149.555
9149.773
9150.033
9150.265
9150.442
9150.567
9150.642
9150.67
9150.652
9150.593
9150.502
9150.38
9150.232
9150.055
9149.852
9149.623
9149.367
9149.085
9148.776
9148.44
9148.075
9147.679
9147.253
9146.792
9146.296
9145.761
9145.185
9144.565
9143.903
9143.203
9142.483
9141.776
9141.147
9140.697
9140.575
9140.952
9141.971
9143.587
9145.545
9147.587
9149.623
9151.655
9153.697
9155.752
9157.819
9159.896
9161.987
9164.095
9166.225
9168.379
9170.56
9172.768
9175.006
9177.275
9179.575
9181.907
9184.271
9186.667
9189.095
9191.554
9194.045
9196.567
9199.117
9201.698
9204.305
9206.939
9209.593
9212.266
9214.946
9217.555
9220.076
9222.695
9225.414
9228.108
9230.734
9233.36
9236.045
9238.792
9241.577
9244.387
9247.219
9250.077
9252.96
9255.864
9258.783
9261.713
9264.652
9267.597
9270.546
9273.498
9276.45
9279.401
9282.348
9285.291
9288.227
9291.156
9294.075
9296.984
9299.882
9302.768
9305.639
9308.497
9311.339
9314.166
9316.976
9319.77
9322.547
9325.306
9328.047
9330.766
9333.457
9336.113
9338.718
9341.257
9343.709
9346.048
9348.245
9350.294
9352.226
9354.093
9355.93
9357.741
9359.541
9361.338
9363.069
9364.564
9365.889
9367.214
9368.609
9370.038
9371.452
9372.834
9374.186
9375.516
9376.823
9378.102
9379.349
9380.562
9381.741
9382.886
9383.993
9385.061
9386.087
9387.072
9388.014
9388.913
9389.768
9390.579
9391.344
9392.065
9392.74
9393.369
9393.953
9394.49
9394.981
9395.421
9395.813
9396.163
9396.465
9396.719
9396.925
9397.081
9397.187
9397.243
9397.249
9397.204
9397.108
9396.96
9396.76
9396.506
9396.199
9395.837
9395.419
9394.944
9394.411
9393.819
9393.166
9392.451
9391.673
9390.83
9389.92
9388.941
9387.892
9386.77
9385.572
9384.297
9382.94
9381.498
9379.968
9378.344
9376.62
9374.792
9372.851
9370.79
9368.6
9366.27
9363.789
9361.149
9358.34
9355.366
9352.24
9349.012
9345.769
9342.65
9339.846
9337.526
9335.988
9335.413
9335.964
5160.825
5098.581
5037.56
4974.411
4906.542
4836.239
4771.082
4704.414
4640.431
4577.942
4517.882
4463.153
4411.062
4363.71
4323.197
4288.724
4258.318
4242.865
4236.441
4232.757
4225.537
4219.811
4221.805
4234.734
4259.544
4296.372
4345.091
4405.447
4475.879
4557.23
4650.83
4755.721
4871.425
4997.814
5134.522
5280.961
5436.559
5601.014
5773.739
5953.638
6139.997
6332.931
6521.934
6719.437
6917.716
7114.01
7305.746
7490.889
7666.729
7829.088
7975.394
8101.437
8203.46
8280.306
8332.056
8358.949
8361.526
8340.884
8298.657
8236.959
8158.067
8064.532
7959.196
7844.28
7721.711
7593.599
7462.131
7329.087
7195.943
7063.907
6934.343
6807.661
6683.7
6562.5
6444.789
6331.217
6221.706
6115.552
6012.826
5913.819
5820.188
5732.238
5648.543
5569.124
5495.329
5428.344
5368.792
5316.988
5273.294
5237.86
5210.584
5191.523
5180.599
5177.39
5181.285
5191.582
5207.47
5228.048
5252.288
5278.981
5307.297
5336.843
5367.233
5397.97
5428.709
5459.432
5490.293
5521.41
5552.909
5585.079
5618.171
5652.458
5688.312
5726.155
5766.428
5809.766
5856.549
5907.364
5963.182
6024.961
6092.757
6166.699
6246.599
6331.996
6422.256
6516.543
6613.715
6712.473
6811.597
6909.981
7006.828
7101.462
7193.182
7281.525
7366.262
7447.053
7523.458
7594.941
7661.266
7723
7780.918
7835.266
7886.003
7933.364
7977.9
8020.167
8060.535
8099.245
8136.517
8172.597
8207.729
8242.119
8275.926
8309.252
8342.166
8374.703
8406.853
8438.533
8469.553
8499.627
8528.413
8555.435
8580.298
8602.864
8623.387
8642.319
8660.358
8678.225
8696.172
8713.92
8731.088
8747.499
8763.174
8778.188
8792.593
8806.42
8819.694
8832.454
8844.742
8856.602
8868.069
8879.177
8889.955
8900.428
8910.621
8920.551
8930.234
8939.682
8948.9
8957.893
8966.66
8975.198
8983.5
8991.559
8999.367
9006.913
9014.187
9021.18
9027.89
9034.315
9040.421
9046.231
9051.745
9056.95
9061.854
9066.465
9070.793
9074.848
9078.64
9082.184
9085.496
9088.596
9091.502
9094.233
9096.808
9099.237
9101.521
9103.658
9105.647
9107.503
9109.248
9110.901
9112.474
9113.975
9115.411
9116.792
9118.124
9119.413
9120.666
9121.886
9123.079
9124.247
9125.392
9126.516
9127.622
9128.711
9129.782
9130.836
9131.873
9132.892
9133.892
9134.873
9135.832
9136.771
9137.682
9138.57
9139.431
9140.258
9141.056
9141.824
9142.559
9143.26
9143.924
9144.552
9145.142
9145.694
9146.21
9146.689
9147.135
9147.549
9147.94
9148.309
9148.671
9149.012
9149.339
9149.629
9149.928
9150.2
9150.396
9150.518
9150.591
9150.628
9150.63
9150.596
9150.528
9150.43
9150.304
9150.152
9149.973
9149.769
9149.539
9149.285
9149.005
9148.701
9148.372
9148.016
9147.634
9147.225
9146.788
9146.324
9145.831
9145.311
9144.767
9144.206
9143.64
9143.09
9142.594
9142.205
9142.001
9142.076
9142.53
9143.439
9144.787
9146.436
9148.228
9150.078
9151.966
9153.892
9155.852
9157.841
9159.855
9161.894
9163.961
9166.056
9168.181
9170.338
9172.526
9174.748
9177.003
9179.292
9181.615
9183.972
9186.363
9188.788
9191.244
9193.733
9196.252
9198.801
9201.378
9203.981
9206.607
9209.253
9211.908
9214.563
9217.201
9219.874
9222.584
9225.245
9227.823
9230.4
9233.045
9235.773
9238.562
9241.384
9244.226
9247.084
9249.962
9252.859
9255.773
9258.7
9261.637
9264.582
9267.533
9270.488
9273.445
9276.402
9279.358
9282.31
9285.257
9288.198
9291.132
9294.056
9296.969
9299.871
9302.759
9305.633
9308.493
9311.335
9314.161
9316.968
9319.756
9322.524
9325.269
9327.99
9330.682
9333.34
9335.956
9338.519
9341.017
9343.434
9345.752
9347.958
9350.049
9352.043
9353.966
9355.844
9357.687
9359.49
9361.228
9362.869
9364.414
9365.919
9367.408
9368.88
9370.323
9371.731
9373.102
9374.445
9375.765
9377.06
9378.329
9379.567
9380.773
9381.944
9383.081
9384.18
9385.239
9386.259
9387.236
9388.172
9389.064
9389.913
9390.717
9391.478
9392.193
9392.863
9393.488
9394.068
9394.601
9395.088
9395.525
9395.907
9396.249
9396.552
9396.806
9397.01
9397.165
9397.27
9397.324
9397.328
9397.282
9397.184
9397.036
9396.835
9396.581
9396.275
9395.913
9395.497
9395.024
9394.494
9393.905
9393.257
9392.547
9391.776
9390.94
9390.04
9389.072
9388.037
9386.93
9385.751
9384.498
9383.166
9381.754
9380.258
9378.675
9377
9375.23
9373.358
9371.381
9369.293
9367.089
9364.764
9362.319
9359.755
9357.09
9354.345
9351.578
9348.853
9346.282
9343.976
9342.086
9340.754
9340.084
9340.089
5780.611
5711.926
5647.612
5583.615
5524.146
5460.163
5402.771
5344.593
5284.877
5224.616
5164.111
5102.991
5040.577
4977.186
4910.419
4833.426
4766.974
4701.718
4637.237
4574.355
4513.797
4456.561
4402.987
4353.887
4310.335
4273.208
4242.851
4220.489
4204.778
4193.473
4185.729
4183.852
4189.889
4205.359
4231.079
4267.307
4314.415
4372.67
4442.758
4523.751
4615.735
4718.77
4832.7
4957.286
5092.097
5236.588
5390.179
5552.42
5722.82
5900.684
6085.203
6274.038
6463.933
6658.12
6853.149
7047.818
7238.105
7421.553
7594.921
7754.593
7897.352
8019.807
8118.88
8192.828
8241.37
8264.907
8264.273
8240.782
8196.194
8132.714
8052.724
7958.822
7853.653
7739.668
7618.925
7493.294
7364.938
7235.813
7106.986
6979.557
6854.207
6731.226
6611.168
6494.079
6380.529
6270.975
6165.173
6062.588
5963.238
5867.17
5774.586
5685.953
5601.496
5521.624
5447.296
5379.609
5319.386
5267.184
5223.479
5188.65
5162.87
5146.069
5137.885
5137.804
5145.256
5159.554
5179.807
5204.915
5233.602
5264.671
5297.094
5330.024
5362.801
5394.913
5426.127
5456.62
5486.772
5516.794
5546.792
5576.93
5607.445
5638.655
5670.98
5704.824
5740.529
5778.652
5819.973
5865.515
5916.532
5973.745
6037.759
6108.398
6185.558
6269.1
6358.653
6453.476
6552.367
6653.929
6756.707
6859.404
6960.93
7060.28
7156.708
7249.607
7338.595
7423.35
7503.418
7578.475
7648.467
7713.699
7774.605
7831.538
7884.713
7934.382
7980.939
8024.847
8066.508
8106.229
8144.277
8180.913
8216.396
8250.947
8284.745
8317.913
8350.532
8382.636
8414.209
8445.178
8475.395
8504.638
8532.654
8559.161
8583.921
8606.844
8628.078
8647.93
8666.795
8685.084
8703.028
8720.575
8737.536
8753.783
8769.306
8784.153
8798.376
8812.01
8825.088
8837.647
8849.728
8861.374
8872.623
8883.507
8894.059
8904.306
8914.271
8923.974
8933.434
8942.661
8951.665
8960.45
8969.018
8977.366
8985.487
8993.373
9001.02
9008.419
9015.556
9022.421
9029.012
9035.325
9041.348
9047.079
9052.513
9057.655
9062.51
9067.079
9071.374
9075.403
9079.179
9082.714
9086.024
9089.124
9092.032
9094.764
9097.334
9099.754
9102.03
9104.165
9106.165
9108.039
9109.802
9111.471
9113.057
9114.57
9116.018
9117.408
9118.747
9120.041
9121.296
9122.516
9123.707
9124.87
9126.01
9127.128
9128.226
9129.305
9130.367
9131.411
9132.436
9133.444
9134.431
9135.4
9136.347
9137.273
9138.172
9139.046
9139.891
9140.711
9141.498
9142.253
9142.973
9143.661
9144.312
9144.928
9145.507
9146.05
9146.556
9147.027
9147.466
9147.873
9148.253
9148.61
9148.947
9149.262
9149.564
9149.848
9150.108
9150.321
9150.473
9150.571
9150.628
9150.654
9150.648
9150.609
9150.537
9150.435
9150.305
9150.148
9149.967
9149.76
9149.53
9149.276
9148.999
9148.699
9148.376
9148.031
9147.663
9147.274
9146.863
9146.432
9145.984
9145.521
9145.051
9144.584
9144.134
9143.725
9143.391
9143.178
9143.14
9143.342
9143.844
9144.685
9145.853
9147.28
9148.872
9150.563
9152.322
9154.138
9156.004
9157.914
9159.863
9161.847
9163.868
9165.924
9168.015
9170.144
9172.309
9174.51
9176.749
9179.024
9181.336
9183.685
9186.068
9188.487
9190.939
9193.424
9195.94
9198.485
9201.059
9203.658
9206.28
9208.92
9211.572
9214.234
9216.906
9219.592
9222.267
9224.905
9227.526
9230.177
9232.889
9235.656
9238.462
9241.293
9244.143
9247.01
9249.895
9252.798
9255.717
9258.648
9261.59
9264.541
9267.497
9270.457
9273.419
9276.382
9279.343
9282.301
9285.254
9288.201
9291.14
9294.069
9296.988
9299.894
9302.786
9305.664
9308.525
9311.369
9314.194
9316.998
9319.781
9322.54
9325.274
9327.978
9330.65
9333.282
9335.87
9338.404
9340.873
9343.267
9345.575
9347.79
9349.911
9351.946
9353.911
9355.819
9357.677
9359.479
9361.217
9362.892
9364.516
9366.093
9367.621
9369.106
9370.551
9371.964
9373.345
9374.699
9376.026
9377.325
9378.595
9379.833
9381.037
9382.206
9383.338
9384.432
9385.486
9386.501
9387.473
9388.404
9389.291
9390.135
9390.935
9391.691
9392.403
9393.069
9393.69
9394.266
9394.796
9395.279
9395.715
9396.095
9396.414
9396.714
9396.972
9397.179
9397.335
9397.439
9397.493
9397.495
9397.448
9397.349
9397.2
9396.999
9396.746
9396.44
9396.081
9395.666
9395.195
9394.668
9394.083
9393.44
9392.736
9391.972
9391.145
9390.255
9389.299
9388.278
9387.189
9386.03
9384.799
9383.495
9382.115
9380.657
9379.118
9377.497
9375.789
9373.992
9372.105
9370.124
9368.051
9365.884
9363.631
9361.3
9358.913
9356.497
9354.101
9351.779
9349.621
9347.702
9346.145
9345.002
9344.372
9344.205
6015.475
6007.36
5970.688
5908.77
5838.122
5768.906
5701.952
5639.186
5579.961
5520.609
5452.809
5395.367
5338.31
5280.246
5220.844
5160.233
5098.463
5035.209
4970.67
4905.729
4841.819
4776.043
4710.366
4645.05
4580.897
4518.579
4458.562
4401.229
4347.729
4299.055
4256.299
4221.085
4193.172
4171.811
4156.942
4148.806
4148.257
4156.207
4173.442
4200.465
4237.456
4284.769
4342.639
4411.397
4491.071
4581.638
4683.1
4795.336
4918.082
5050.91
5193.268
5344.612
5504.551
5672.317
5846.754
6026.293
6209.521
6396.063
6586.485
6779.017
6970.498
7157.631
7337.303
7506.167
7660.748
7797.738
7914.077
8007.195
8075.421
8118.358
8136.47
8130.89
8103.176
8055.292
7989.52
7908.324
7814.404
7710.137
7598.143
7480.734
7359.668
7236.532
7112.638
6989.395
6868.145
6748.877
6631.703
6517.862
6407.551
6300.727
6197.204
6096.578
5998.436
5902.516
5808.657
5716.943
5627.945
5542.446
5461.382
5385.891
5317.114
5255.945
5203.086
5159.276
5125.304
5101.524
5087.661
5083.042
5086.997
5099.046
5118.684
5144.909
5176.303
5211.212
5248.125
5285.692
5322.961
5358.918
5392.83
5424.537
5454.563
5483.722
5512.473
5540.657
5568.24
5595.541
5622.886
5651.023
5680.167
5710.136
5741.684
5776.004
5814.228
5858.204
5910.378
5970.186
6037.02
6111.037
6192.485
6281.178
6376.518
6477.41
6582.487
6690.241
6798.637
6905.987
7011.25
7113.625
7212.32
7306.712
7396.42
7481.12
7560.552
7634.71
7703.828
7768.161
7828.068
7883.907
7936.019
7984.726
8030.436
8073.552
8114.423
8153.344
8190.597
8226.458
8261.17
8294.935
8327.904
8360.178
8391.806
8422.79
8453.077
8482.559
8511.081
8538.468
8564.534
8589.131
8612.203
8633.833
8654.208
8673.574
8692.182
8710.206
8727.67
8744.498
8760.619
8776.022
8790.739
8804.814
8818.29
8831.201
8843.584
8855.48
8866.929
8877.97
8888.637
8898.964
8908.978
8918.705
8928.167
8937.383
8946.367
8955.129
8963.676
8972.012
8980.134
8988.041
8995.725
9003.17
9010.381
9017.345
9024.051
9030.5
9036.676
9042.57
9048.171
9053.493
9058.539
9063.307
9067.806
9072.04
9076.019
9079.755
9083.26
9086.547
9089.632
9092.529
9095.253
9097.816
9100.231
9102.504
9104.644
9106.655
9108.548
9110.334
9112.026
9113.634
9115.168
9116.635
9118.043
9119.398
9120.706
9121.972
9123.201
9124.397
9125.564
9126.705
9127.822
9128.918
9129.993
9131.049
9132.086
9133.103
9134.102
9135.08
9136.038
9136.974
9137.887
9138.775
9139.637
9140.47
9141.274
9142.05
9142.793
9143.503
9144.179
9144.814
9145.415
9145.982
9146.513
9147.009
9147.469
9147.896
9148.291
9148.657
9148.997
9149.312
9149.605
9149.878
9150.125
9150.337
9150.507
9150.632
9150.716
9150.763
9150.777
9150.758
9150.707
9150.625
9150.513
9150.375
9150.211
9150.023
9149.812
9149.578
9149.323
9149.047
9148.751
9148.435
9148.1
9147.747
9147.378
9146.993
9146.597
9146.192
9145.785
9145.384
9145
9144.649
9144.355
9144.146
9144.058
9144.133
9144.415
9144.939
9145.728
9146.776
9148.047
9149.483
9151.038
9152.679
9154.393
9156.17
9158.002
9159.884
9161.812
9163.784
9165.798
9167.854
9169.951
9172.09
9174.269
9176.488
9178.747
9181.046
9183.384
9185.759
9188.17
9190.617
9193.097
9195.609
9198.151
9200.722
9203.319
9205.939
9208.579
9211.234
9213.904
9216.584
9219.267
9221.945
9224.621
9227.307
9230.02
9232.768
9235.55
9238.362
9241.199
9244.056
9246.932
9249.826
9252.737
9255.664
9258.603
9261.552
9264.509
9267.472
9270.44
9273.41
9276.38
9279.349
9282.314
9285.275
9288.229
9291.174
9294.111
9297.035
9299.947
9302.845
9305.726
9308.591
9311.436
9314.261
9317.064
9319.843
9322.596
9325.32
9328.012
9330.668
9333.282
9335.85
9338.363
9340.815
9343.196
9345.501
9347.724
9349.866
9351.93
9353.924
9355.857
9357.733
9359.553
9361.317
9363.027
9364.684
9366.286
9367.834
9369.337
9370.802
9372.235
9373.635
9375.004
9376.342
9377.649
9378.922
9380.162
9381.366
9382.533
9383.662
9384.752
9385.804
9386.815
9387.784
9388.711
9389.594
9390.435
9391.231
9391.984
9392.692
9393.355
9393.973
9394.545
9395.073
9395.554
9395.987
9396.365
9396.666
9396.942
9397.208
9397.425
9397.587
9397.693
9397.747
9397.749
9397.7
9397.601
9397.452
9397.253
9397.001
9396.697
9396.339
9395.927
9395.459
9394.936
9394.356
9393.718
9393.021
9392.264
9391.446
9390.566
9389.624
9388.618
9387.546
9386.408
9385.203
9383.927
9382.581
9381.162
9379.67
9378.104
9376.461
9374.741
9372.945
9371.074
9369.129
9367.116
9365.044
9362.926
9360.785
9358.648
9356.558
9354.56
9352.727
9351.112
9349.805
9348.828
9348.266
9348.07
6016.202
5987.442
5915.864
5855.081
5792.849
5732.219
5673.641
5617.001
5561.723
5507.468
5454.334
5399.759
5344.113
5287.108
5228.689
5168.574
5106.781
5043.236
4977.993
4911.913
4846.694
4780.883
4714.508
4647.842
4581.162
4515.225
4451.275
4390.221
4333.028
4280.768
4234.894
4196.46
4165.547
4141.982
4125.933
4117.687
4117.712
4126.496
4144.441
4171.749
4208.853
4255.919
4313.172
4380.861
4459.201
4548.313
4648.197
4758.724
4879.6
5010.421
5150.61
5299.557
5456.726
5620.645
5789.768
5963.589
6142.299
6325.612
6512.313
6700.564
6887.335
7069.232
7242.846
7404.745
7551.524
7679.95
7787.286
7871.4
7931.006
7965.885
7976.652
7964.732
7931.853
7880.334
7812.393
7730.602
7637.838
7536.447
7428.532
7315.782
7200.24
7083.554
6966.361
6850.087
6736.153
6624.93
6516.413
6411.048
6308.948
6210.001
6113.499
6018.734
5925.41
5833.002
5741.195
5650.058
5560.181
5472.706
5389.302
5311.768