/*--------------------------------*- C++ -*----------------------------------*\
| =========                 |                                                 |
| \\      /  F ield         | foam-extend: Open Source CFD                    |
|  \\    /   O peration     | Version:     3.1                                |
|   \\  /    A nd           | Web:         http://www.extend-project.de       |
|    \\/     M anipulation  |                                                 |
\*---------------------------------------------------------------------------*/
FoamFile
{
    version     2.0;
    format      ascii;
    class       surfaceScalarField;
    location    "7";
    object      phi;
}
// * * * * * * * * * * * * * * * * * * * * * * * * * * * * * * * * * * * * * //

dimensions      [0 3 -1 0 0 0 0];

internalField   nonuniform List<scalar> 
275122
(
-0.0001499574
0.0001498116
-1.237556e-07
2.695535e-07
-0.000129997
0.0001224739
5.219647e-07
7.001179e-06
-0.000123946
0.0001261363
-1.450573e-07
-2.045266e-06
-0.0001337965
0.0001364477
-1.61104e-07
-2.490134e-06
-0.0001430472
0.0001436102
-1.621127e-07
-4.008943e-07
-0.0001421344
0.0001414641
-1.332148e-07
8.035259e-07
-0.0001390835
0.0001382553
-1.231886e-07
9.513398e-07
-0.0001354164
0.000134381
-1.03329e-07
1.13867e-06
-0.0001311278
0.0001300001
-8.788859e-08
1.215594e-06
-0.000126479
0.0001252437
-7.626611e-08
1.31154e-06
-0.000121385
0.0001200608
-6.795734e-08
1.392141e-06
-0.0001159926
0.0001146173
-6.307251e-08
1.438342e-06
-0.0001105
0.0001091525
-6.223036e-08
1.40977e-06
-0.0001052668
0.0001040535
-6.451208e-08
1.277815e-06
-0.000100712
9.97134e-05
-6.55219e-08
1.064166e-06
-9.70772e-05
9.63146e-05
-6.465578e-08
8.27256e-07
-9.442049e-05
9.386861e-05
-5.46159e-08
6.064956e-07
-9.237642e-05
9.192634e-05
-5.570543e-08
5.05787e-07
-9.069236e-05
9.033749e-05
-7.362196e-08
4.284894e-07
-8.967878e-05
8.986741e-05
-1.66401e-07
-2.223329e-08
-9.933367e-05
0.0001026144
-3.271932e-07
-2.953556e-06
-0.0001041619
0.0001044764
-1.1417e-07
-2.003722e-07
-0.0001052956
0.0001058975
-3.674377e-08
-5.65124e-07
-0.0001162219
0.000120131
1.493934e-07
-4.058507e-06
-0.0001203581
0.0001203613
1.73112e-07
-1.763657e-07
-0.0001212015
0.0001213375
2.221529e-08
-1.58185e-07
-0.0001213194
0.0001211354
-1.112286e-08
1.950574e-07
-0.0001200852
0.0001191507
-9.453562e-09
9.438663e-07
-0.0001124563
0.0001054132
-1.891793e-08
7.062051e-06
-0.0001789488
0.0001836344
4.903151e-09
-4.690461e-06
-0.0002278273
0.0002391508
-6.131743e-08
-1.126213e-05
-0.0002711531
0.0002817896
6.564773e-09
-1.064307e-05
-0.0003140348
0.0003248819
7.008867e-09
-1.085415e-05
-0.0003577525
0.0003688463
7.420675e-09
-1.110116e-05
-0.0004026093
0.0004139187
7.696039e-09
-1.131701e-05
-0.0004484005
0.000459992
7.651143e-09
-1.159922e-05
-0.0004951616
0.000506956
6.423015e-09
-1.180079e-05
-0.0005426219
0.0005545699
7.355791e-09
-1.195534e-05
-0.0005905644
0.0006026152
6.648946e-09
-1.205741e-05
-0.0006383958
0.000651533
1.92269e-07
-1.332949e-05
1.054629e-05
-0.00044203
0.000443553
4.01181e-10
-1.206974e-05
1.07024e-05
-0.0004480771
0.0004494767
-7.270334e-10
-1.210128e-05
1.09287e-05
-0.0004533648
0.0004545738
-1.164808e-09
-1.213656e-05
1.111126e-05
-0.0004577972
0.0004587587
-1.182916e-09
-1.207165e-05
1.134443e-05
-0.0004612235
0.0004619486
-1.228974e-09
-1.206832e-05
1.146734e-05
-0.0004636999
0.0004642005
-1.053718e-09
-1.196696e-05
1.150509e-05
-0.0004653726
0.0004657018
-9.944343e-10
-1.183327e-05
1.152838e-05
-0.0004664937
0.0004666277
-1.172598e-09
-1.166122e-05
1.149407e-05
-0.0004667299
0.0004660221
-5.728633e-10
-1.078575e-05
9.295119e-06
-0.001892422
0.001895611
-9.776427e-11
-4.159804e-05
9.944713e-06
9.263919e-06
9.904991e-06
1.021071e-05
-0.001895946
0.001893809
-3.457077e-11
-3.893978e-05
1.035424e-05
1.018823e-05
1.032367e-05
9.722973e-06
-0.001891322
0.001887546
3.525322e-11
-3.536917e-05
9.869846e-06
9.700798e-06
9.851178e-06
9.125372e-06
-0.001883651
0.001878986
7.768324e-11
-3.179219e-05
9.135285e-06
9.080434e-06
9.116246e-06
8.590498e-06
-0.001873372
0.001866539
7.030651e-11
-2.749928e-05
8.598326e-06
8.565326e-06
8.577759e-06
7.75214e-06
-0.001859171
0.001850522
3.247661e-11
-2.222863e-05
7.705854e-06
7.733583e-06
7.685572e-06
6.749514e-06
-0.001841293
0.001830817
-2.02081e-11
-1.633585e-05
6.675015e-06
6.730347e-06
6.656604e-06
5.571635e-06
-0.001819765
0.001807374
-5.644885e-11
-9.807944e-06
5.544584e-06
5.553827e-06
5.528348e-06
4.352261e-06
-0.001794245
0.001779314
-5.741206e-11
-2.839696e-06
4.546845e-06
4.338162e-06
4.533556e-06
2.334763e-06
-0.001765406
0.001751975
-2.226056e-11
3.757571e-06
2.511705e-06
2.326569e-06
2.500253e-06
1.652538e-06
-0.001735123
0.001716574
2.197171e-11
1.258944e-05
1.335579e-06
1.643802e-06
1.328259e-06
1.269789e-07
-0.001697637
0.001678156
5.268096e-11
1.979123e-05
-2.730555e-07
1.194957e-07
-2.832513e-07
-1.384205e-06
-0.001658327
0.001637691
6.758829e-11
2.666696e-05
-1.622151e-06
-1.393958e-06
-1.63124e-06
-2.479999e-06
-0.001616386
0.001594574
7.013673e-11
3.217465e-05
-2.690569e-06
-2.491887e-06
-2.700177e-06
-3.214045e-06
-0.001572246
0.001549402
4.266094e-11
3.595963e-05
-3.330051e-06
-3.230552e-06
-3.341138e-06
-3.43432e-06
-0.001526051
0.001502337
-2.602948e-11
3.757285e-05
-3.463518e-06
-3.471158e-06
-3.489929e-06
-3.076062e-06
-0.00147822
0.001453904
-8.215512e-11
3.672969e-05
-3.023073e-06
-3.191678e-06
-3.123338e-06
-2.045344e-06
-0.001429211
0.00140456
-7.550501e-11
3.340108e-05
-1.927445e-06
-2.433328e-06
-2.342971e-06
-7.368806e-09
-0.001376928
0.001347155
-2.89029e-11
3.080029e-05
4.993999e-07
-6.944663e-07
-8.252587e-07
-1.776093e-05
-0.001316255
0.001301345
1.173001e-11
3.267134e-05
-1.476258e-05
-0.001286423
0.001263857
2.296195e-11
3.73286e-05
-6.951185e-06
-0.001240914
0.001219663
2.433549e-11
2.820138e-05
-6.5553e-06
-0.001199795
0.001181094
3.713399e-11
2.525704e-05
-9.487368e-06
-0.001162994
0.001146995
4.283453e-11
2.548623e-05
-1.255633e-05
-0.001132631
0.001119104
3.136907e-11
2.608368e-05
-1.306343e-05
-0.001106159
0.001094009
1.618423e-11
2.521357e-05
-1.332348e-05
-0.001082433
0.001071598
6.945713e-12
2.415887e-05
-1.367387e-05
-0.001061268
0.001051556
4.035675e-12
2.338548e-05
-1.408648e-05
-0.001042242
0.001033496
2.728614e-12
2.28324e-05
-1.453521e-05
-0.001025115
0.001017208
-1.402835e-12
2.2442e-05
-1.48813e-05
-0.001009596
0.001002386
-6.424751e-12
2.209121e-05
-1.494955e-05
-0.0009953923
0.0009887028
-9.74541e-12
2.163909e-05
-1.459643e-05
-0.0009821376
0.0009757816
-1.047132e-11
2.095248e-05
-1.378142e-05
-0.0009694548
0.0009632593
-8.553897e-12
1.997692e-05
-1.262142e-05
-0.0009570269
0.0009508978
-4.745782e-12
1.875053e-05
-1.129658e-05
-0.0009446768
0.0009385944
-1.191826e-12
1.737899e-05
-1.00094e-05
-0.0009324131
0.0009264749
1.461268e-12
1.594764e-05
-8.604631e-06
-0.0009203796
0.0009146562
5.489648e-12
1.432797e-05
-6.624347e-06
-0.0009085187
0.0009028324
1.021935e-11
1.231063e-05
-3.533917e-06
-0.0008956996
0.0008892098
1.2947e-11
1.002361e-05
-4.167349e-06
-0.00088391
0.0008788807
1.663765e-11
9.196566e-06
-6.084693e-07
-0.0008735793
0.0008674851
2.390598e-11
6.702697e-06
4.408605e-06
-0.0008579481
0.0008498014
3.008297e-11
3.738087e-06
-1.055135e-06
-0.0008430463
0.0008376016
3.401238e-11
6.499819e-06
-4.276542e-06
-0.0008323118
0.0008268191
3.659337e-11
9.769211e-06
-6.967307e-06
-0.0008214785
0.0008162122
3.383909e-11
1.223357e-05
-1.222401e-05
-0.0008115283
0.0008076121
2.541622e-11
1.614024e-05
-2.608145e-05
-0.0008054326
0.0008085828
1.249209e-11
2.293121e-05
-4.669369e-06
-0.0008126345
0.000809188
4.250469e-12
2.013891e-05
-3.690674e-06
-4.661677e-06
-3.670662e-06
-2.541218e-06
-0.0008057503
0.0008031369
-5.539688e-12
1.24553e-05
-2.412399e-06
-2.50609e-06
-2.38222e-06
-1.841634e-06
-0.0008002398
0.0007973121
-1.192663e-11
9.994686e-06
-1.706017e-06
-1.823719e-06
-1.695636e-06
-1.462055e-06
-0.0007944113
0.0007917637
-1.44436e-11
8.405465e-06
-1.422647e-06
-1.456532e-06
-1.416641e-06
-1.30306e-06
-0.0007892919
0.0007870302
-1.369334e-11
7.424001e-06
-1.279029e-06
-1.30246e-06
-1.277786e-06
-1.182034e-06
-0.0007848878
0.0007829209
-1.119104e-11
6.659581e-06
-1.162832e-06
-1.183645e-06
-1.164182e-06
-1.092388e-06
-0.0007810569
0.0007793478
-8.225682e-12
6.056622e-06
-1.078501e-06
-1.09517e-06
-1.081402e-06
-1.024939e-06
-0.0007777177
0.0007762186
-5.678323e-12
5.584703e-06
-1.014137e-06
-1.028641e-06
-1.017946e-06
-9.722649e-07
-0.000774781
0.0007734575
-4.18148e-12
5.20367e-06
-9.638519e-07
-9.762861e-07
-9.678205e-07
-9.298191e-07
-0.0007721861
0.000771017
-3.724112e-12
4.882447e-06
-9.229302e-07
-9.337205e-07
-9.26833e-07
-8.93659e-07
-0.0007698947
0.0007688662
-3.769922e-12
4.598737e-06
-8.878268e-07
-8.973888e-07
-8.91389e-07
-8.614684e-07
-0.000767881
0.0007669836
-3.915697e-12
4.339913e-06
-8.562286e-07
-8.650681e-07
-8.5974e-07
-8.32743e-07
-0.0007661272
0.0007653538
-3.949496e-12
4.101529e-06
-8.281301e-07
-8.359809e-07
-8.312354e-07
-8.070533e-07
-0.0007646191
0.0007639623
-3.864986e-12
3.882732e-06
-8.030894e-07
-8.099097e-07
-8.058748e-07
-7.84083e-07
-0.0007633421
0.0007627943
-3.67696e-12
3.682136e-06
-7.806098e-07
-7.866165e-07
-7.830551e-07
-7.63246e-07
-0.0007622804
0.0007618327
-5.43206e-12
3.497545e-06
-7.598112e-07
-7.649903e-07
-7.617686e-07
-7.450574e-07
-0.0007614174
0.0007610639
-3.824798e-12
3.32532e-06
-7.420773e-07
-7.441043e-07
-7.405989e-07
-7.231762e-07
-0.0007607384
0.0007604683
8.581864e-15
3.159857e-06
-7.203432e-07
-7.249436e-07
-7.21281e-07
-7.020352e-07
-0.0007602256
0.0007600324
4.838055e-12
2.997319e-06
-6.987231e-07
-7.030676e-07
-7.002936e-07
-6.7566e-07
-0.0007598597
0.0007597242
9.111729e-12
2.833379e-06
-6.733547e-07
-6.769222e-07
-6.719427e-07
-6.55661e-07
-0.0007596179
0.000759561
1.199043e-11
2.673106e-06
-6.507312e-07
-6.571225e-07
-6.527784e-07
-6.288225e-07
-0.0007595188
0.0007595124
1.537321e-11
2.516077e-06
-6.247923e-07
-6.30115e-07
-6.259453e-07
-6.044928e-07
-0.0007595251
0.000759572
1.804792e-11
2.364949e-06
-6.007526e-07
-6.052138e-07
-6.013589e-07
-5.811771e-07
-0.000759637
0.0007597328
2.028132e-11
2.22261e-06
-5.77687e-07
-5.815651e-07
-5.780222e-07
-5.595229e-07
-0.0007598465
0.0007599884
2.223105e-11
2.090465e-06
-5.564425e-07
-5.597762e-07
-5.566485e-07
-5.401409e-07
0.0007603338
2.365514e-11
1.96997e-06
-5.375082e-07
-5.402715e-07
-5.376201e-07
-0.0007601483
-5.233368e-07
-0.0007605371
0.0007607637
2.409181e-11
1.862874e-06
-5.212562e-07
-5.234758e-07
-5.213872e-07
-5.093513e-07
-0.0007610078
0.0007612727
2.327764e-11
1.769449e-06
-5.077238e-07
-5.094867e-07
-5.078234e-07
-4.982254e-07
-0.0007615548
0.0007618552
2.152387e-11
1.690431e-06
-4.971472e-07
-4.982675e-07
-4.971645e-07
-4.903709e-07
-0.0007621715
0.0007625024
1.977596e-11
1.629458e-06
-4.898478e-07
-4.9038e-07
-4.898375e-07
-4.858005e-07
-0.0007628473
0.0007632031
1.810082e-11
1.587331e-06
-4.857737e-07
-4.85793e-07
-4.857503e-07
-4.841034e-07
-0.0007635708
0.0007639458
1.566322e-11
1.562189e-06
-4.845141e-07
-4.840901e-07
-4.844881e-07
-4.85049e-07
-0.0007643306
0.0007647194
1.306559e-11
1.552897e-06
-4.858537e-07
-4.85041e-07
-4.85837e-07
-4.883409e-07
-0.0007651159
0.0007655139
1.072181e-11
1.557652e-06
-4.894882e-07
-4.883486e-07
-4.894899e-07
-4.936296e-07
-0.0007659178
0.0007663214
8.706538e-12
1.573801e-06
-4.950708e-07
-4.936547e-07
-4.950907e-07
-5.005912e-07
-0.0007667296
0.000767137
7.28326e-12
1.598451e-06
-5.023224e-07
-5.006298e-07
-5.023558e-07
-5.094084e-07
-0.0007675474
0.0007679553
5.450792e-12
1.633923e-06
-5.114559e-07
-5.094572e-07
-5.115002e-07
-5.201635e-07
-0.0007683642
0.0007687692
3.66255e-12
1.680345e-06
-5.224442e-07
-5.202256e-07
-5.225021e-07
-5.323815e-07
-0.0007691734
0.0007695737
2.968912e-12
1.734269e-06
-5.348325e-07
-5.324573e-07
-5.349044e-07
-5.456106e-07
-0.0007699726
0.0007703666
2.859859e-12
1.793852e-06
-5.48231e-07
-5.456931e-07
-5.483116e-07
-5.594317e-07
-0.0007707564
0.0007711404
3.528445e-12
1.858871e-06
-5.619608e-07
-5.594949e-07
-5.619787e-07
-5.732954e-07
-0.0007715213
0.0007718968
3.75433e-12
1.921862e-06
-5.753898e-07
-5.732933e-07
-5.75443e-07
-5.88645e-07
-0.0007722644
0.0007726287
2.667235e-12
1.99729e-06
-5.920056e-07
-5.887829e-07
-5.921533e-07
-6.055445e-07
-0.0007729856
0.0007733396
3.045603e-12
2.074614e-06
-6.086192e-07
-6.057008e-07
-6.08774e-07
-6.212284e-07
-0.0007736856
0.0007740291
1.390217e-12
2.14731e-06
-6.240994e-07
-6.213306e-07
-6.241849e-07
-6.353923e-07
-0.0007743651
0.0007747
2.173718e-12
2.212276e-06
-6.381023e-07
-6.354872e-07
-6.381965e-07
-6.466862e-07
-0.0007750297
0.000775361
1.943739e-12
2.260965e-06
-6.493546e-07
-6.467902e-07
-6.494505e-07
-6.513478e-07
-0.0007756942
0.000776035
1.404387e-12
2.270254e-06
-6.540805e-07
-6.514562e-07
-6.541673e-07
-6.314726e-07
-0.0007763842
0.0007767181
-3.521901e-12
2.186558e-06
-6.286027e-07
-6.316515e-07
-6.286779e-07
-5.275254e-07
-0.000776909
0.000776972
-3.401029e-12
1.996074e-06
-5.009998e-07
-5.28707e-07
-5.019308e-07
-4.517074e-07
-0.0007773131
0.0007772072
-2.542619e-11
2.001488e-06
-4.915578e-07
-4.520567e-07
-5.001559e-07
-6.639865e-07
-0.0007774788
0.0007777878
-2.567952e-10
2.279507e-06
-6.374521e-07
-6.49601e-07
-6.372442e-07
-6.619913e-07
-0.0007780871
0.000778342
-4.366812e-11
2.378238e-06
-6.543615e-07
-6.611637e-07
-6.555908e-07
-6.810385e-07
-0.0007786012
0.0007788709
-2.687672e-12
2.448742e-06
-6.794091e-07
-6.80099e-07
-6.778786e-07
-6.925538e-07
-0.0007791457
0.0007794242
-4.625419e-12
2.486415e-06
-6.914465e-07
-6.910322e-07
-6.89884e-07
-7.024149e-07
-0.0007797095
0.0007799992
-2.92011e-12
2.513932e-06
-7.009259e-07
-7.008999e-07
-6.994714e-07
-7.093309e-07
-0.0007802942
0.0007805971
-3.28917e-12
2.530353e-06
-7.086097e-07
-7.080009e-07
-7.07325e-07
-7.150351e-07
-0.0007809069
0.0007812252
-3.583086e-12
2.539065e-06
-7.14799e-07
-7.13862e-07
-7.136448e-07
-7.200576e-07
-0.0007815497
0.0007818843
-2.490377e-12
2.543741e-06
-7.201344e-07
-7.190271e-07
-7.191037e-07
-7.239287e-07
-0.0007822257
0.000782579
-2.477749e-12
2.540807e-06
-7.240126e-07
-7.230009e-07
-7.231531e-07
-7.267695e-07
-0.0007829395
0.0007833126
-3.43283e-12
2.532964e-06
-7.269497e-07
-7.260613e-07
-7.263102e-07
-7.289948e-07
-0.000783693
0.0007840864
-4.874312e-12
2.521889e-06
-7.291718e-07
-7.284464e-07
-7.286219e-07
-7.308409e-07
-0.0007844874
0.0007849022
-2.663373e-12
2.507906e-06
-7.310235e-07
-7.303461e-07
-7.305483e-07
-7.322381e-07
-0.0007853253
0.0007857631
-2.757107e-12
2.490656e-06
-7.323926e-07
-7.317998e-07
-7.31974e-07
-7.331502e-07
-0.0007862096
0.0007866713
-1.187457e-12
2.470399e-06
-7.332847e-07
-7.327727e-07
-7.329066e-07
-7.339045e-07
-0.000787142
0.000787628
4.644798e-13
2.449304e-06
-7.340396e-07
-7.336001e-07
-7.337506e-07
-7.347505e-07
-0.000788123
0.000788633
2.007738e-12
2.428751e-06
-7.349187e-07
-7.344843e-07
-7.346493e-07
-7.356921e-07
-0.000789152
0.0007896858
2.08393e-12
2.408846e-06
-7.358896e-07
-7.354617e-07
-7.356467e-07
-7.366687e-07
-0.0007902285
0.0007907859
2.282206e-12
2.389296e-06
-7.368611e-07
-7.364763e-07
-7.366661e-07
-7.376169e-07
-0.000791352
0.0007919326
3.138265e-12
2.369903e-06
-7.377972e-07
-7.374545e-07
-7.376352e-07
-7.386076e-07
-0.0007925218
0.0007931253
4.194819e-12
2.350996e-06
-7.387748e-07
-7.384419e-07
-7.3862e-07
-7.39713e-07
-0.0007937373
0.0007943632
3.518857e-12
2.33315e-06
-7.399035e-07
-7.395798e-07
-7.397866e-07
-7.410014e-07
-0.0007949973
0.0007956447
1.631004e-12
2.316846e-06
-7.412373e-07
-7.408925e-07
-7.411122e-07
-7.425287e-07
-0.0007963002
0.0007969683
-9.592962e-13
2.302336e-06
-7.427914e-07
-7.424384e-07
-7.426669e-07
-7.442848e-07
-0.0007976441
0.000798332
1.151818e-12
2.289746e-06
-7.446672e-07
-7.44153e-07
-7.444792e-07
-7.464e-07
0.0007997334
1.07333e-12
2.279739e-06
-0.0007990271
-7.467759e-07
-7.462253e-07
-7.466703e-07
-7.486588e-07
-0.0008004467
0.000801171
-3.97575e-13
2.272114e-06
-7.495549e-07
-7.486037e-07
-7.495844e-07
-7.506003e-07
-0.0008019037
0.000802643
3.756822e-12
2.265507e-06
-7.519176e-07
-7.505595e-07
-7.51725e-07
-7.534219e-07
-0.000803387
0.000804142
-9.224315e-13
2.261262e-06
-7.548002e-07
-7.532642e-07
-7.546956e-07
-7.538739e-07
-0.0008049007
0.000805664
3.523463e-12
2.257986e-06
-7.568576e-07
-7.537479e-07
-7.56864e-07
-7.593527e-07
-0.0008064316
0.0008072111
1.147476e-11
2.260342e-06
-7.601113e-07
-7.599407e-07
-7.604982e-07
-7.646586e-07
-0.0008079969
0.0008087908
7.951177e-12
2.264392e-06
-7.643709e-07
-7.648387e-07
-7.644502e-07
-7.686782e-07
-0.0008095888
0.0008103915
8.591347e-12
2.270153e-06
-7.678073e-07
-7.686449e-07
-7.677492e-07
-7.722403e-07
-0.0008111969
0.0008120072
7.235148e-12
2.277724e-06
-7.718605e-07
-7.721421e-07
-7.717616e-07
-7.763815e-07
-0.0008128205
0.0008136374
3.232988e-12
2.287992e-06
-7.761499e-07
-7.763037e-07
-7.760666e-07
-7.80736e-07
-0.0008144568
0.000815279
6.406224e-13
2.300487e-06
-7.80693e-07
-7.806654e-07
-7.806237e-07
-7.852118e-07
-0.0008161033
0.0008169298
2.087271e-12
2.31433e-06
-7.853032e-07
-7.851392e-07
-7.852312e-07
-7.898387e-07
-0.0008177579
0.0008185882
1.079758e-12
2.329373e-06
-7.900811e-07
-7.897528e-07
-7.899995e-07
-7.945178e-07
-0.0008194199
0.0008202532
7.68636e-13
2.345276e-06
-7.94851e-07
-7.944457e-07
-7.947792e-07
-7.992528e-07
-0.0008210868
0.0008219221
2.361175e-12
2.362446e-06
-7.997207e-07
-7.991711e-07
-7.996385e-07
-8.039563e-07
-0.0008227574
0.0008235946
3.011459e-12
2.379535e-06
-8.045586e-07
-8.03829e-07
-8.04408e-07
-8.085619e-07
-0.0008244301
0.0008252685
-3.742093e-13
2.396958e-06
-8.092964e-07
-8.084163e-07
-8.091627e-07
-8.127139e-07
-0.0008261047
0.0008269453
4.453711e-13
2.412099e-06
-8.136645e-07
-8.126778e-07
-8.136605e-07
-8.165064e-07
-0.0008277794
0.0008286222
3.690223e-12
2.425645e-06
-8.176727e-07
-8.165391e-07
-8.176832e-07
-8.192421e-07
-0.0008294568
0.0008303049
2.084316e-12
2.431718e-06
-8.207381e-07
-8.19218e-07
-8.206692e-07
-8.207318e-07
-0.0008311355
0.0008319934
-1.874218e-12
2.428599e-06
-8.225911e-07
-8.206974e-07
-8.224687e-07
-8.191997e-07
-0.0008328304
0.0008337113
4.493578e-13
2.400102e-06
-8.214015e-07
-8.191959e-07
-8.21228e-07
-8.137793e-07
-0.0008345582
0.0008354991
2.591273e-12
2.318411e-06
-8.159564e-07
-8.138064e-07
-8.157389e-07
-7.915563e-07
-0.0008364155
0.0008374789
-2.723244e-12
2.095722e-06
-7.880152e-07
-7.916995e-07
-7.87852e-07
-6.23181e-07
-0.0008383801
0.0008388101
-2.389488e-12
1.700229e-06
-4.409293e-07
-6.236105e-07
-4.424362e-07
-8.515629e-08
-0.0002086437
0.0002079867
-1.297133e-11
7.421579e-07
-5.368532e-07
-0.0002067742
0.0002064973
-4.390944e-11
8.137732e-07
-6.602639e-07
-0.0002059922
0.0002059016
-3.128942e-11
7.509e-07
-7.363108e-07
-0.0002057925
0.0002057959
-1.891056e-11
7.329787e-07
-7.800215e-07
-0.0002058878
0.0002059379
-8.306224e-12
7.299696e-07
-8.123391e-07
-0.000206128
0.0002062003
-1.668849e-12
7.400196e-07
-8.360917e-07
-0.0002064356
0.0002065179
3.452969e-12
7.538421e-07
-8.539271e-07
-0.0002067718
0.0002068574
7.732248e-12
7.682498e-07
-8.678665e-07
-0.0002071164
0.0002072026
1.329144e-11
7.816558e-07
-8.796517e-07
-0.0002074604
0.0002075455
1.953408e-11
7.945199e-07
-8.898957e-07
-0.0002077987
0.0002078822
1.409876e-11
8.064368e-07
-8.988373e-07
-0.0002081295
0.0002082108
8.825011e-12
8.175771e-07
-9.068898e-07
-0.0002084513
0.0002085302
1.245287e-11
8.279722e-07
-9.143093e-07
-0.0002087637
0.0002088403
1.806057e-11
8.376955e-07
-9.211824e-07
-0.0002090668
0.000209141
2.264505e-11
8.469427e-07
-9.280712e-07
-0.00020936
0.0002094318
2.224236e-11
8.562286e-07
-9.317654e-07
-0.0002096491
0.0002097176
1.533896e-11
8.632599e-07
-9.386656e-07
-0.0002099251
0.0002099943
3.149149e-11
8.694112e-07
-9.413317e-07
-0.0002101907
0.000210255
2.321846e-11
8.769922e-07
-9.469206e-07
-0.0002104468
0.0002105097
2.234334e-11
8.839872e-07
-9.516302e-07
-0.0002106969
0.000210758
2.14711e-11
8.904876e-07
-9.557245e-07
-0.0002109396
0.000210999
2.032417e-11
8.963609e-07
-9.593784e-07
-0.0002111755
0.0002112331
2.244825e-11
9.016823e-07
-9.625602e-07
-0.0002114048
0.000211461
3.057527e-11
9.063541e-07
-9.653428e-07
-0.0002116287
0.0002116836
3.715004e-11
9.10397e-07
-9.675533e-07
-0.0002118482
0.0002119021
3.64179e-11
9.135702e-07
-9.689831e-07
-0.0002120647
0.0002121181
2.604115e-11
9.155533e-07
-9.69587e-07
-0.0002122805
0.000212334
2.306621e-11
9.160625e-07
-9.691048e-07
-0.0002124983
0.0002125529
3.092455e-11
9.145474e-07
-9.675962e-07
-0.0002127225
0.0002127798
3.343838e-11
9.102733e-07
-9.644469e-07
-0.0002129596
0.0002130224
3.639975e-11
9.015629e-07
-9.581548e-07
-0.0002132208
0.000213294
3.458589e-11
8.849619e-07
-9.402615e-07
-0.0002135283
0.0002136174
3.731192e-11
8.51109e-07
-9.215996e-07
-0.0002138895
0.0002140206
2.888618e-11
7.904791e-07
-8.244434e-07
-0.0002144691
0.0002146887
2.38615e-11
6.048395e-07
2.557381e-07
-0.0002154309
0.0002153396
4.312514e-11
-1.644899e-07
8.529358e-07
-0.0002152242
0.0002152486
1.634103e-11
-8.772989e-07
9.120131e-07
-0.0002153348
0.0002153949
2.430263e-11
-9.720767e-07
9.666182e-07
-0.0002155887
0.0002156667
3.414802e-11
-1.044726e-06
9.969411e-07
-0.0002159074
0.0002159923
3.896008e-11
-1.081925e-06
1.020709e-06
-0.0002162559
0.0002163468
3.738455e-11
-1.111625e-06
1.038213e-06
-0.0002166261
0.0002167215
3.983306e-11
-1.133672e-06
1.053212e-06
-0.0002170122
0.0002171105
4.033346e-11
-1.151584e-06
1.06642e-06
-0.0002174082
0.0002175084
3.417901e-11
-1.166632e-06
1.07771e-06
-0.0002178107
0.0002179123
2.231772e-11
-1.179273e-06
1.087559e-06
-0.0002182181
0.0002183206
1.327468e-11
-1.19007e-06
1.096225e-06
-0.0002186289
0.0002187321
1.623433e-11
-1.199439e-06
1.103911e-06
-0.0002190421
0.0002191458
1.485717e-11
-1.207598e-06
1.110861e-06
-0.0002194569
0.0002195608
1.388444e-11
-1.214835e-06
1.117109e-06
-0.0002198726
0.0002199767
1.283378e-11
-1.221227e-06
1.122762e-06
-0.0002202886
0.0002203927
1.216411e-11
-1.22689e-06
1.12793e-06
-0.0002207043
0.0002208083
1.387423e-11
-1.23191e-06
1.132679e-06
-0.0002211192
0.0002212229
1.213436e-11
-1.236396e-06
1.137071e-06
-0.0002215327
0.0002216361
1.065578e-11
-1.240406e-06
1.141146e-06
-0.0002219445
0.0002220473
1.239659e-11
-1.243975e-06
1.144945e-06
-0.0002223539
0.0002224561
1.17508e-11
-1.247165e-06
1.148509e-06
-0.0002227606
0.0002228621
1.025673e-11
-1.250013e-06
1.151844e-06
-0.0002231642
0.0002232648
1.156869e-11
-1.252536e-06
1.155003e-06
-0.0002235641
0.0002236638
1.4768e-11
-1.254797e-06
1.158036e-06
-0.00022396
0.0002240587
1.542865e-11
-1.256808e-06
1.160843e-06
-0.0002243514
0.0002244491
8.355212e-12
-1.258536e-06
1.163391e-06
-0.0002247381
0.0002248346
2.845388e-12
-1.259922e-06
1.165721e-06
-0.0002251197
0.000225215
4.714402e-12
-1.261011e-06
1.167851e-06
-0.0002254959
0.0002255898
6.769855e-12
-1.261817e-06
1.169803e-06
-0.000225866
0.0002259586
8.867415e-12
-1.262346e-06
1.171633e-06
-0.0002262297
0.0002263207
5.461125e-12
-1.262641e-06
1.174228e-06
-0.0002265855
0.0002266743
1.844239e-12
-1.262959e-06
1.173435e-06
-0.0002269273
0.0002270153
5.272031e-13
-1.261471e-06
1.165165e-06
-0.0002272692
0.0002273645
6.284737e-11
-1.260594e-06
1.1784e-06
-0.000227673
0.0002277245
1.434987e-10
-1.230065e-06
1.499915e-06
-0.0002259385
0.0009301552
3.610761e-12
-5.412301e-06
7.191938e-08
1.503298e-06
5.707632e-08
-0.0002259431
-0.0002379958
-0.0002379977
6.920625e-07
-0.0009340479
0.0009350762
2.585466e-12
-4.533972e-06
1.079299e-06
6.729891e-07
1.061293e-06
8.891588e-07
-0.0009356457
0.0009364653
3.883433e-13
-4.472061e-06
9.517821e-07
8.74067e-07
9.37504e-07
9.436929e-07
-0.0009376973
0.0009388589
1.733258e-12
-5.010875e-06
9.940356e-07
9.304384e-07
9.810567e-07
1.011551e-06
-0.0009399329
0.0009407827
2.125445e-12
-4.961229e-06
1.056214e-06
9.993723e-07
1.044206e-06
1.042817e-06
-0.000941572
0.0009422956
2.114751e-12
-4.920903e-06
1.067122e-06
1.031392e-06
1.055999e-06
1.049082e-06
-0.0009430535
0.0009438047
2.874989e-12
-4.95168e-06
1.062527e-06
1.037617e-06
1.051236e-06
1.064052e-06
-0.0009445735
0.0009453153
1.991517e-12
-4.998378e-06
1.07488e-06
1.052834e-06
1.064783e-06
1.081818e-06
-0.00094606
0.0009467846
1.769091e-12
-5.045964e-06
1.089126e-06
1.07145e-06
1.078883e-06
1.089951e-06
-0.0009475135
0.0009482327
3.065615e-12
-5.089777e-06
1.105172e-06
1.079771e-06
1.095709e-06
1.112512e-06
-0.0009489347
0.0009496107
2.191537e-12
-5.124674e-06
1.11982e-06
1.104496e-06
1.111786e-06
1.127316e-06
-0.0009502885
0.0009509575
8.997792e-13
-5.169726e-06
1.130641e-06
1.119609e-06
1.123153e-06
1.139265e-06
-0.0009516197
0.0009522649
1.014882e-12
-5.195236e-06
1.142458e-06
1.132459e-06
1.135845e-06
1.151416e-06
-0.0009529024
0.000953527
1.182624e-12
-5.223739e-06
1.154135e-06
1.145339e-06
1.148189e-06
1.162142e-06
-0.0009541456
0.000954753
2.369709e-12
-5.249553e-06
1.164289e-06
1.156725e-06
1.15899e-06
1.171663e-06
-0.0009553539
0.000955945
2.702695e-12
-5.271804e-06
1.173468e-06
1.16685e-06
1.168761e-06
1.180123e-06
-0.0009565299
0.0009571063
-4.986739e-13
-5.291421e-06
1.181648e-06
1.175824e-06
1.177434e-06
1.187575e-06
-0.000957677
0.0009582404
-2.606324e-13
-5.308726e-06
1.188887e-06
1.183711e-06
1.18509e-06
1.194146e-06
-0.0009587987
0.0009593507
3.468315e-12
-5.32405e-06
1.195299e-06
1.190677e-06
1.191905e-06
1.199948e-06
-0.000959898
0.0009604401
3.904918e-12
-5.337708e-06
1.200973e-06
1.196829e-06
1.197918e-06
1.205085e-06
-0.0009609779
0.0009615113
2.606192e-12
-5.349941e-06
1.206025e-06
1.202253e-06
1.203231e-06
1.209664e-06
-0.0009620409
0.0009625666
2.608824e-12
-5.361066e-06
1.210529e-06
1.207097e-06
1.20802e-06
1.213775e-06
-0.0009630891
0.0009636082
2.769802e-12
-5.371272e-06
1.214582e-06
1.211483e-06
1.212352e-06
1.217492e-06
-0.0009641243
0.0009646374
2.188065e-12
-5.380569e-06
1.218251e-06
1.215425e-06
1.21625e-06
1.22084e-06
-0.000965148
0.0009656561
9.291567e-13
-5.388989e-06
1.221545e-06
1.218897e-06
1.219594e-06
1.223794e-06
-0.000966162
0.0009666656
-5.141582e-14
-5.396433e-06
1.224483e-06
1.22193e-06
1.222616e-06
1.226478e-06
-0.0009671672
0.0009676668
1.316752e-12
-5.403373e-06
1.227098e-06
1.224772e-06
1.225444e-06
1.228911e-06
-0.0009681645
0.0009686603
3.292854e-12
-5.409651e-06
1.229525e-06
1.227379e-06
1.22803e-06
1.231207e-06
-0.0009691544
0.0009696467
3.401339e-12
-5.415512e-06
1.231812e-06
1.229806e-06
1.230439e-06
1.233331e-06
-0.0009701374
0.0009706262
2.990427e-12
-5.420777e-06
1.23392e-06
1.232028e-06
1.232631e-06
1.235284e-06
-0.0009711137
0.0009715992
3.255091e-12
-5.425376e-06
1.235856e-06
1.234065e-06
1.234655e-06
1.237096e-06
-0.0009720833
0.0009725654
3.044809e-12
-5.429403e-06
1.237662e-06
1.235974e-06
1.236563e-06
1.238764e-06
-0.0009730463
0.0009735249
2.898512e-12
-5.432726e-06
1.239321e-06
1.237716e-06
1.238286e-06
1.240261e-06
-0.0009740024
0.0009744773
2.182337e-12
-5.435093e-06
1.240813e-06
1.239269e-06
1.239828e-06
1.241567e-06
-0.0009749511
0.000975422
7.553305e-13
-5.436386e-06
1.242119e-06
1.240647e-06
1.241221e-06
1.242684e-06
-0.0009758918
0.0009763581
1.148663e-12
-5.436427e-06
1.243242e-06
1.241826e-06
1.242399e-06
1.243524e-06
-0.0009768235
0.0009772846
2.11049e-12
-5.434672e-06
1.244096e-06
1.242703e-06
1.243277e-06
1.243989e-06
-0.0009777449
0.0009781997
2.026062e-12
-5.430489e-06
1.244593e-06
1.243227e-06
1.243851e-06
1.243983e-06
-0.000978654
0.0009791012
6.195912e-13
-5.423114e-06
1.244653e-06
1.243297e-06
1.243997e-06
1.243244e-06
-0.0009795479
0.0009799854
-3.851351e-13
-5.41077e-06
1.244025e-06
1.242617e-06
1.243426e-06
1.241297e-06
-0.0009804224
0.0009808474
1.196249e-13
-5.390716e-06
1.242251e-06
1.240654e-06
1.24158e-06
1.237175e-06
-0.0009812708
0.0009816778
3.29941e-12
-5.356742e-06
1.238391e-06
1.236492e-06
1.237693e-06
1.229061e-06
-0.0009820791
0.0009824574
4.229418e-12
-5.295915e-06
1.230393e-06
1.228423e-06
1.229783e-06
1.210747e-06
-0.0009828189
0.0009831535
1.392713e-12
-5.175403e-06
1.210212e-06
1.210183e-06
1.209672e-06
1.156665e-06
-0.0009834741
0.00098382
-5.590585e-13
-4.946616e-06
1.144172e-06
1.156132e-06
1.143651e-06
1.034247e-06
-0.0009842377
0.0009847609
-5.991448e-13
-4.576244e-06
9.928446e-07
1.033732e-06
9.922985e-07
8.84715e-07
-0.0009853333
0.0009859131
1.753903e-12
-4.086168e-06
8.6889e-07
8.842547e-07
8.684408e-07
8.564895e-07
-0.0009864634
0.0009869819
3.255081e-12
-3.952247e-06
8.608033e-07
8.560852e-07
8.60412e-07
8.519283e-07
-0.0009874947
0.000988
1.145531e-12
-3.91343e-06
8.525374e-07
8.515317e-07
8.521336e-07
8.406235e-07
-0.0009885042
0.0009889902
-1.303526e-12
-3.850803e-06
8.421742e-07
8.402337e-07
8.417893e-07
8.326817e-07
-0.0009894682
0.0009899205
-4.016777e-13
-3.790165e-06
8.36571e-07
8.323099e-07
8.362056e-07
8.168153e-07
-0.0009903691
0.0009907967
2.228945e-12
-3.700476e-06
8.200137e-07
8.164317e-07
8.196141e-07
7.790218e-07
-0.0009912438
0.0009917335
6.996803e-12
-3.576386e-06
7.647444e-07
7.786487e-07
7.64237e-07
5.750553e-07
-0.0009927104
0.0009943083
-4.343131e-12
-4.062982e-06
6.577332e-07
5.74421e-07
6.578072e-07
9.23906e-07
-0.0009955416
0.0009947664
-5.314373e-12
-2.666768e-06
7.940102e-07
9.270264e-07
7.970154e-07
7.932915e-07
-0.0009944695
0.000994889
-3.082354e-13
-3.429528e-06
7.069863e-07
7.983577e-07
7.113822e-07
7.653579e-07
-0.0009952417
0.0009956617
1.585258e-12
-3.396388e-06
7.186927e-07
7.696588e-07
7.227391e-07
7.331214e-07
-0.0009960203
0.0009965114
7.003829e-13
-3.36439e-06
6.999396e-07
7.368189e-07
7.034252e-07
7.240255e-07
-0.0009970078
0.0009975705
-1.635899e-12
-3.42759e-06
7.052845e-07
7.272502e-07
7.083566e-07
7.34483e-07
-0.0009981182
0.0009986851
-1.492847e-12
-3.494303e-06
7.261283e-07
7.377288e-07
7.290042e-07
7.49122e-07
-0.0009992369
0.0009998079
1.683814e-13
-3.561918e-06
7.438925e-07
7.516353e-07
7.46288e-07
7.617447e-07
-0.001000372
0.00100095
-3.42231e-13
-3.624864e-06
7.592532e-07
7.638762e-07
7.613209e-07
7.744522e-07
-0.001001521
0.001002103
-1.567176e-12
-3.68173e-06
7.738415e-07
7.763026e-07
7.756379e-07
7.867551e-07
-0.001002678
0.001003263
-1.772998e-12
-3.736117e-06
7.871217e-07
7.884211e-07
7.887392e-07
7.988453e-07
-0.001003844
0.001004432
-1.073644e-12
-3.787325e-06
7.994579e-07
8.003199e-07
8.00924e-07
8.086081e-07
-0.001005017
0.00100561
-1.318108e-13
-3.833938e-06
8.104399e-07
8.100212e-07
8.114946e-07