/*--------------------------------*- C++ -*----------------------------------*\
| =========                 |                                                 |
| \\      /  F ield         | foam-extend: Open Source CFD                    |
|  \\    /   O peration     | Version:     3.1                                |
|   \\  /    A nd           | Web:         http://www.extend-project.de       |
|    \\/     M anipulation  |                                                 |
\*---------------------------------------------------------------------------*/
FoamFile
{
    version     2.0;
    format      ascii;
    class       volScalarField;
    location    "11";
    object      nut;
}
// * * * * * * * * * * * * * * * * * * * * * * * * * * * * * * * * * * * * * //

dimensions      [0 2 -1 0 0 0 0];

internalField   nonuniform List<scalar> 
119952
(
4.943071e-05
3.188672e-05
3.200156e-05
3.541479e-05
3.754007e-05
3.534832e-05
3.404164e-05
3.322235e-05
3.267282e-05
3.224888e-05
3.188237e-05
3.152012e-05
3.112603e-05
3.066363e-05
3.008805e-05
2.942353e-05
2.869579e-05
2.793109e-05
2.712645e-05
2.623516e-05
3.439415e-05
3.233593e-05
3.151197e-05
4.221064e-05
4.048278e-05
3.964464e-05
3.894592e-05
3.873483e-05
3.828506e-05
2.553762e-05
3.432084e-05
3.635933e-05
4.089065e-05
4.583847e-05
5.123892e-05
5.698978e-05
6.306003e-05
6.927889e-05
7.554683e-05
8.62645e-05
0.0003754675
0.0004453312
0.0005205839
0.0005972696
0.000672745
0.0007459195
0.0008163537
0.0008839929
0.0009483477
0.001340639
0.001404045
0.00146467
0.001523814
0.001581628
0.001638503
0.001694597
0.001749546
0.001802959
0.001854589
0.001904885
0.001948867
0.001988851
0.002025614
0.002059371
0.002090259
0.002118605
0.002145336
0.002173031
0.002139736
0.002165606
0.00216439
0.002172222
0.002171622
0.002155037
0.002137843
0.002124947
0.002117533
0.002115297
0.002117517
0.002123241
0.002131464
0.002141301
0.002152084
0.002163413
0.002175167
0.002187554
0.002201634
0.002219807
0.00224806
0.002272136
0.002294514
0.002326084
0.002360958
0.002383058
0.002389253
0.002375778
0.00230595
0.00216241
0.002108607
0.002078705
0.002061649
0.002050052
0.00204154
0.00203502
0.002029732
0.002025081
0.002020586
0.002015764
0.002010089
0.002002964
0.001993752
0.001981789
0.001966429
0.001947173
0.001923753
0.001896146
0.00186456
0.001829417
0.001791314
0.001750969
0.001709148
0.001666616
0.001624131
0.001582461
0.001542428
0.001504941
0.001470978
0.00144152
0.001417388
0.001399044
0.001386453
0.001379146
0.001376404
0.001377426
0.001381412
0.001387589
0.001395241
0.001403756
0.001412679
0.001421752
0.001430918
0.001440303
0.001450149
0.001460754
0.001472391
0.001485634
0.001502214
0.001516827
0.001530545
0.001547134
0.001567454
0.001588571
0.001609852
0.001631585
0.001653751
0.001676181
0.001698485
0.00172047
0.001742378
0.001764395
0.001786735
0.00180967
0.001833533
0.001858667
0.001885352
0.001913727
0.001943729
0.001975011
0.00200693
0.002038602
0.002068959
0.002096733
0.002120466
0.002138611
0.002149354
0.002150506
0.002140128
0.002116218
0.002076808
0.002018918
0.001933233
0.00181889
0.001681723
0.001534775
0.001389826
0.001258555
0.001148267
0.001059867
0.0009897658
0.000933303
0.0008870603
0.0008493546
0.0008196529
0.0007977893
0.0007835461
0.0007766797
0.0007784298
0.0006918209
0.0006971053
0.0006639196
0.0006438087
0.0006321267
0.000627094
0.0006276463
0.0006316063
0.0006366306
0.0006402089
0.0006390145
0.0006293831
0.0006007468
0.0005391419
0.0004328744
0.0002547062
0.0001953859
0.00031173
0.0004313609
0.0004804786
0.0004264248
0.000364265
0.0003222829
0.0002951302
0.0002767426
0.0002650822
0.0002593138
0.0002584552
0.0002613592
0.0002669192
0.0002740917
0.000281994
0.0002898337
0.0002968551
0.0003028693
0.0003124763
0.0003311516
0.0003406261
0.0003480803
0.0003566037
0.0003655572
0.0003747913
0.0003842791
0.0003939866
0.0004039522
0.0004143174
0.0004252419
0.0004368814
0.0004492795
0.0004625129
0.0004762724
0.0004904472
0.0005050581
0.0005201676
0.0005360959
0.0005530743
0.0005710012
0.0005896033
0.0006077523
0.0006253098
0.0006435589
0.0006636503
0.000685328
0.0007076077
0.0007300733
0.0007525363
0.0007748158
0.0007967169
0.0008180958
0.0008390608
0.001240013
0.001383035
0.001512487
0.00161657
0.001692986
0.001746488
0.001783099
0.001807581
0.001823181
0.001832034
0.001835572
0.001834802
0.001830482
0.001823216
0.001813511
0.001801808
0.001788497
0.001773926
0.001758404
0.001742193
0.001725509
0.001708544
0.0016915
0.001674605
0.001658051
0.001641905
0.001626094
0.001610489
0.001594988
0.001579553
0.001564201
0.001548984
0.001533972
0.001519239
0.001504854
0.001490874
0.00147734
0.001464284
0.001451722
0.001439662
0.001428097
0.001417011
0.001406367
0.001396099
0.001386075
0.001376007
0.001365485
0.00135497
0.001344731
0.001334752
0.001325038
0.001315583
0.001306314
0.001297724
0.001288411
0.001277526
0.00126826
0.001260509
0.001253864
0.001247907
0.001242267
0.001236638
0.001230784
0.001224524
0.001217722
0.001210283
0.001202147
0.001193289
0.001183717
0.001173464
0.001162581
0.001151138
0.001139215
0.001126898
0.001114275
0.001101443
0.001088497
0.001075531
0.001062634
0.00104989
0.001037373
0.001025151
0.001013285
0.001001825
0.0009908172
0.0009802966
0.0009702969
0.000960837
0.0009519279
0.0009435753
0.0009357795
0.0009285358
0.000921836
0.0009156684
0.0009100183
0.0009048676
0.0009001953
0.0008959782
0.0008921939
0.0008888208
0.000885837
0.0008832211
0.0008809534
0.0008790145
0.000877386
0.0008760503
0.0008749915
0.0008741946
0.000873645
0.0008733294
0.0008732357
0.0008733535
0.0008736739
0.000874188
0.0008748886
0.0008757669
0.0008768172
0.0008780372
0.0008794225
0.0008809682
0.0008826699
0.0008845246
0.0008865315
0.0008886896
0.000890998
0.0008934595
0.0008960751
0.0008988523
0.0009017972
0.0009049282
0.0009082612
0.0009118394
0.0009157087
0.0009199823
0.0009248152
0.0009306113
0.0009379398
0.0009491993
0.000747731
7.029885e-05
8.425012e-05
0.0001024338
0.0001172587
0.0001296597
0.0001406789
0.0001508741
0.0001604827
0.0001715821
0.0004776885
0.0007199516
0.0009537286
0.001151692
0.001311186
0.001440555
0.001549483
0.001645277
0.001733169
0.002480029
0.002611635
0.002747709
0.002880707
0.003008022
0.00312795
0.003239109
0.003340898
0.003433463
0.003516684
0.003591113
0.003660108
0.003726937
0.003794063
0.003862205
0.003930857
0.003999531
0.004067714
0.004135029
0.004177064
0.004198425
0.004229089
0.004267451
0.004311375
0.00435848
0.00440673
0.004454386
0.004499919
0.004542116
0.004580868
0.004614251
0.004643684
0.004669805
0.004693289
0.004714972
0.004735431
0.004755047
0.004773206
0.005525634
0.005539375
0.005551971
0.005563258
0.005573228
0.005582043
0.005589657
0.005596074
0.005600711
0.005603042
0.005603266
0.005600932
0.005595669
0.00558921
0.005582843
0.005576111
0.005569335
0.005562944
0.005555502
0.005528693
0.005486484
0.005447844
0.00540648
0.005358716
0.00530568
0.005252375
0.005202154
0.005156565
0.005116581
0.005082737
0.005055167
0.005033728
0.005018109
0.005007923
0.005002799
0.005002449
0.005006804
0.005016159
0.005031129
0.005051595
0.005074919
0.005103394
0.005135598
0.005161154
0.005174947
0.005177867
0.005163942
0.005130224
0.005089959
0.005059101
0.005031889
0.00500726
0.004984727
0.004963984
0.004944856
0.004927104
0.004910423
0.004894386
0.004878408
0.004861726
0.004843423
0.004822466
0.00479779
0.004768397
0.004733453
0.004692349
0.00464474
0.004590569
0.004530069
0.004463745
0.004392343
0.004316798
0.004238172
0.004157589
0.004076211
0.003995225
0.003915848
0.00383932
0.003766875
0.003699675
0.003638725
0.003584798
0.003538401
0.00349978
0.00346894
0.003445692
0.003429703
0.003420565
0.003417862
0.003421237
0.003430443
0.003445372
0.003466054
0.003492628
0.003525327
0.003564429
0.003610279
0.003663216
0.003722375
0.003787006
0.00385605
0.003931531
0.004013291
0.004100166
0.004191116
0.00428527
0.004381958
0.004480716
0.004581292
0.004683669
0.004788065
0.004894923
0.005004876
0.005118659
0.005236961
0.005360253
0.005488648
0.005621727
0.005758386
0.00589682
0.006034607
0.006168666
0.006295297
0.006410352
0.006509786
0.006589978
0.006647578
0.006679167
0.00668106
0.006649491
0.006580797
0.006471204
0.006316725
0.006112996
0.005857269
0.005573998
0.005286124
0.005010597
0.004755745
0.004521873
0.00430595
0.00410619
0.003923529
0.003761544
0.003624551
0.003517164
0.003442875
0.003406681
0.00325184
0.003102144
0.003043459
0.003048817
0.00310246
0.003194237
0.003316556
0.003462134
0.003621793
0.003781412
0.003918987
0.003999112
0.003961159
0.003700455
0.003092622
0.002270753
0.001709933
0.001414439
0.00128913
0.001039436
0.0009716071
0.001110014
0.001331386
0.001384993
0.001444863
0.001507157
0.001573515
0.001622854
0.001614828
0.001655488
0.001750677
0.001909594
0.002088803
0.002140515
0.002180729
0.002215399
0.002245981
0.002271164
0.002292989
0.002314447
0.002338168
0.00236611
0.002398786
0.002436566
0.002479476
0.002527486
0.002580095
0.002636441
0.002697836
0.002764746
0.002837212
0.002915062
0.002997993
0.003085598
0.003177386
0.003272798
0.003371227
0.003472049
0.003574674
0.003678614
0.003783321
0.00388803
0.003991729
0.004096686
0.004201308
0.0043034
0.004401787
0.004495461
0.004583365
0.004662216
0.005451021
0.005536846
0.005611458
0.005678176
0.005735982
0.005783538
0.005820256
0.005846278
0.005862153
0.005868598
0.005866391
0.005856333
0.005839234
0.005815893
0.005787088
0.005753562
0.005716013
0.005675092
0.005631394
0.005585439
0.00553767
0.005488474
0.005438246
0.005387441
0.005336467
0.005285519
0.00523458
0.005183573
0.005132476
0.005081352
0.005030339
0.004979612
0.004929364
0.004879777
0.004831016
0.004783218
0.004736488
0.004690904
0.004646517
0.004603352
0.004561415
0.004520692
0.004481151
0.004442727
0.004405315
0.004368728
0.004332835
0.004297714
0.004263429
0.004229974
0.00419728
0.004165324
0.004133899
0.004103244
0.004072974
0.004042598
0.00401231
0.003982231
0.003952346
0.00392256
0.003892752
0.003862782
0.003832501
0.003801766
0.003770439
0.003738392
0.003705513
0.003671703
0.003636886
0.003601009
0.003564041
0.00352598
0.003486847
0.003446689
0.003405578
0.00336361
0.0033209
0.003277582
0.003233801
0.003189715
0.003145484
0.003101275
0.003057253
0.003013579
0.002970411
0.002927898
0.002886176
0.00284537
0.00280559
0.002766931
0.002729471
0.002693277
0.002658397
0.00262487
0.002592718
0.002561955
0.002532583
0.002504596
0.002477982
0.002452722
0.002428797
0.002406181
0.002384848
0.002364771
0.00234592
0.002328265
0.002311776
0.00229642
0.002282166
0.002268983
0.00225684
0.002245713
0.002235574
0.002226399
0.002218168
0.002210857
0.002204445
0.002198907
0.002194224
0.002190368
0.002187318
0.002185041
0.00218352
0.002182719
0.002182625
0.002183196
0.002184434
0.002186286
0.002188782
0.002191851
0.002195577
0.002199864
0.002204882
0.00221047
0.002216889
0.002223983
0.002233264
0.002246835
0.002264532
2.661456e-05
3.198832e-05
4.000194e-05
4.929243e-05
6.009428e-05
7.270088e-05
8.75565e-05
0.0001050828
0.0001258839
0.00016103
0.0007306274
0.00086285
0.001002679
0.00115203
0.001312144
0.001484901
0.001682577
0.001933414
0.002448599
0.00409191
0.004333855
0.004542068
0.004730224
0.00489684
0.005058869
0.005216477
0.005373506
0.005546612
0.0060051
0.006406163
0.006559587
0.006672561
0.006770577
0.006857483
0.006933892
0.007000884
0.007060278
0.007119135
0.007052898
0.007146926
0.007266692
0.007372943
0.007457964
0.007523893
0.00757468
0.007613658
0.007643467
0.007666245
0.007685564
0.007706956
0.007730639
0.007755592
0.007780125
0.007802786
0.007822509
0.007836806
0.008623471
0.008634817
0.008637175
0.008635182
0.008630996
0.008625499
0.008619074
0.008611745
0.008603646
0.008594589
0.008584077
0.008572663
0.008560857
0.00854872
0.008536656
0.008525079
0.008514504
0.008505537
0.008498752
0.008493641
0.008489958
0.008488236
0.008487996
0.008488548
0.008489269
0.008489423
0.008488292
0.008485004
0.00847859
0.00846883
0.008455585
0.008438785
0.008418843
0.0083967
0.008373083
0.008349075
0.00832459
0.008301531
0.008263156
0.008227549
0.008193971
0.008162153
0.008131995
0.008103516
0.008076637
0.008051209
0.008026911
0.008004643
0.007984594
0.007965934
0.007947607
0.007925928
0.007899061
0.007866738
0.007830058
0.007788393
0.007743179
0.00768741
0.007621236
0.007552172
0.007481541
0.007408003
0.007332108
0.007256827
0.00718498
0.007118313
0.007057998
0.007004768
0.006958999
0.006920806
0.006890126
0.006866767
0.006850494
0.006841033
0.006838162
0.006841712
0.006851617
0.006867419
0.006887385
0.006911273
0.006937536
0.006960904
0.006976699
0.00698378
0.006979214
0.006962249
0.006938456
0.006915008
0.006893322
0.006872326
0.006851906
0.006832099
0.006813069
0.0067949
0.006777497
0.006760556
0.006743527
0.00672559
0.006705681
0.006682559
0.006654902
0.006621433
0.006581025
0.006532781
0.006476113
0.006410783
0.006336941
0.006255118
0.006166214
0.006071436
0.005972206
0.005870052
0.005766521
0.005663112
0.00556123
0.005462143
0.005366968
0.005276651
0.005191959
0.00511348
0.005041641
0.004976738
0.004918966
0.004868463
0.004825344
0.004789744
0.004761845
0.004741902
0.004730238
0.004727244
0.004733348
0.004748995
0.004774615
0.004810588
0.004857227
0.004914697
0.00498251
0.00505979
0.00514498
0.005235918
0.005335537
0.005443229
0.005557949
0.005678648
0.005804435
0.005934603
0.006068672
0.006206428
0.006347942
0.006493563
0.006643885
0.006799646
0.006961542
0.007129989
0.007304972
0.007485852
0.00767113
0.007858477
0.008044855
0.00822645
0.008398642
0.008556088
0.008693599
0.008807511
0.008894678
0.008952036
0.008976432
0.008965096
0.008916091
0.008827911
0.008698667
0.00852604
0.008308055
0.008049499
0.007773503
0.007498203
0.007232855
0.006978278
0.006731836
0.006492446
0.006262261
0.006047379
0.005854782
0.005693592
0.005569466
0.005491331
0.00545141
0.005467139
0.005535454
0.005652625
0.005814677
0.006016511
0.00625101
0.006508268
0.006774002
0.007027208
0.007239274
0.007371237
0.007367703
0.007152558
0.006658965
0.005934221
0.005121304
0.004314761
0.00358543
0.003015788
0.002657313
0.001947843
0.001771677
0.001928532
0.002124289
0.002244171
0.002293379
0.002318468
0.002358579
0.002448146
0.00262166
0.002914695
0.003358029
0.003661639
0.00373949
0.003809951
0.003875321
0.00393642
0.003994572
0.004051784
0.004110488
0.004172847
0.00424062
0.004315536
0.004398852
0.00449129
0.004592497
0.004702353
0.004820571
0.004946617
0.005079741
0.00521901
0.005363331
0.005511492
0.005662206
0.005814153
0.005966033
0.006116598
0.006264688
0.006409258
0.006549377
0.006684221
0.006812979
0.006936651
0.007056124
0.007169966
0.007277413
0.007377993
0.007471462
0.007557705
0.007600829
0.007648237
0.007694649
0.00773734
0.007774692
0.007805538
0.00782924
0.007845857
0.007855659
0.007858936
0.007855978
0.007847112
0.007832713
0.007813198
0.007789006
0.007760583
0.007728364
0.007692759
0.007654147
0.00761285
0.007569108
0.007523063
0.007474828
0.007424736
0.007373223
0.007320548
0.007266771
0.00721191
0.007156071
0.007099461
0.007042343
0.006985005
0.006927727
0.006870768
0.006814351
0.006758664
0.006703855
0.006650038
0.006597295
0.006545683
0.006495235
0.006445963
0.006397862
0.006350901
0.006305022
0.006260132
0.006216136
0.006173016
0.006130788
0.006089451
0.006048966
0.00600929
0.005970335
0.00593204
0.005894269
0.005856813
0.005819639
0.005782673
0.005745786
0.00570884
0.005671702
0.005634234
0.005596288
0.005557713
0.005518361
0.005478088
0.00543676
0.005394257
0.005350473
0.005305325
0.005258749
0.005210708
0.005161187
0.005110201
0.005057789
0.00500402
0.004948987
0.004892807
0.004835619
0.004777577
0.004718852
0.004659623
0.004600079
0.004540415
0.004480823
0.004421497
0.004362622
0.004304374
0.00424692
0.004190408
0.004134974
0.004080737
0.004027798
0.003976243
0.003926142
0.003877552
0.003830512
0.003785055
0.003741198
0.003698955
0.003658331
0.003619325
0.003581934
0.003546152
0.003511969
0.00347937
0.003448337
0.003418846
0.003390871
0.003364385
0.003339362
0.00331578
0.003293624
0.003272882
0.003253544
0.003235601
0.003219047
0.003203872
0.003190066
0.003177614
0.003166495
0.003156688
0.003148164
0.003140892
0.003134835
0.003129959
0.003126221
0.003123587
0.00312201
0.003121467
0.003121909
0.003123334
0.003125692
0.003129034
0.00313335
0.003138962
0.003146155
0.003155645
0.003167093
3.395796e-05
5.431878e-05
0.0001207761
0.0004036083
0.0006911092
0.001224005
0.001638722
0.002135771
0.002709842
0.003176959
0.003517863
0.003791929
0.004070422
0.004368795
0.004677949
0.004994562
0.005321563
0.005662372
0.00601831
0.006387596
0.006764428
0.007136883
0.007469218
0.007763856
0.008042466
0.008304565
0.008558005
0.008809183
0.009062346
0.009327516
0.009654564
0.01
0.01
0.01
0.01
0.01
0.01
0.01
0.01
0.01
0.01
0.01
0.01
0.01
0.01
0.00992017
0.009837932
0.009775737
0.009738082
0.009725513
0.009716506
0.009712857
0.009742863
0.009792426
0.009858806
0.009941473
0.01
0.01
0.01
0.01
0.01
0.01
0.01
0.01
0.01
0.01
0.01
0.01
0.01
0.01
0.01
0.01
0.01
0.01
0.01
0.01
0.01
0.01
0.01
0.01
0.01
0.01
0.01
0.01
0.01
0.01
0.01
0.01
0.01
0.01
0.01
0.01
0.01
0.01
0.01
0.01
0.01
0.01
0.01
0.01
0.01
0.01
0.01
0.01
0.01
0.01
0.01
0.01
0.00997243
0.009941335
0.009910413
0.009881119
0.009853806
0.009828507
0.009805071
0.009781559
0.009756892
0.009730674
0.009702363
0.009671111
0.009636236
0.009597014
0.009553233
0.009504299
0.009450151
0.009389059
0.009320193
0.009245596
0.009167565
0.009087106
0.00900502
0.008922991
0.008843213
0.008767634
0.008697681
0.008634172
0.008577699
0.008528695
0.008487383
0.008453818
0.008427944
0.008409607
0.008398596
0.008394629
0.008397321
0.008406064
0.00841975
0.008437147
0.00845678
0.008475921
0.008491481
0.008501156
0.008503384
0.008497329
0.008484444
0.008467925
0.008450045
0.00843128
0.008411813
0.008392009
0.008372357
0.008353278
0.008334979
0.008317398
0.008300162
0.008282568
0.008263593
0.008241955
0.008216215
0.008184898
0.008146607
0.00810012
0.008044485
0.007979103
0.007903788
0.0078188
0.007724856
0.007623097
0.007515025
0.007402411
0.007287152
0.007171148
0.007056173
0.006943776
0.0068352
0.006731356
0.006632826
0.006539895
0.006452614
0.006370897
0.006294613
0.006223683
0.006158169
0.006098333
0.006044676
0.005997939
0.005959063
0.005929116
0.00590921
0.005900414
0.005903685
0.005919809
0.005949363
0.005992664
0.006049594
0.006119583
0.006201473
0.006293181
0.006393214
0.006504196
0.006624999
0.006754455
0.006891432
0.007035016
0.007184453
0.007339278
0.007499331
0.007664759
0.007835985
0.008013602
0.008198191
0.008389993
0.008588786
0.008793714
0.009002882
0.00921319
0.009421671
0.009624463
0.009816835
0.009993485
0.01
0.01
0.01000001
0.01000005
0.01000011
0.01000011
0.01000006
0.01000001
0.01
0.01
0.01000001
0.009796678
0.009575203
0.009350254
0.009128471
0.008909244
0.008689512
0.00846766
0.008245552
0.008029991
0.007829924
0.007656154
0.007518392
0.007426341
0.007385673
0.007399772
0.0074704
0.00759638
0.007773293
0.007993371
0.008245196
0.008514146
0.008784567
0.009036968
0.009245344
0.009381668
0.009410438
0.009283488
0.00895089
0.00839416
0.007637244
0.006724577
0.00572321
0.004763174
0.004005315
0.00352306
0.00273724
0.002336611
0.002421348
0.002526325
0.002551801
0.002549933
0.002589351
0.002710818
0.002941145
0.00331404
0.003867209
0.004311744
0.004428194
0.004536937
0.004640617
0.004739517
0.004834204
0.004926251
0.005018037
0.005112336
0.00521118
0.005316199
0.005428485
0.005548675
0.005677435
0.005814927
0.005960778
0.00611426
0.006274327
0.006439654
0.006608699
0.00677977
0.006951096
0.007120894
0.007287431
0.007449083
0.007604373
0.007752009
0.007890892
0.00802011
0.008138908
0.008246758
0.008346348
0.008438521
0.008523741
0.008602279
0.008674217
0.008738753
0.008791944
0.008837678
0.008877069
0.008910593
0.008938541
0.008960839
0.008977126
0.008988545
0.008996053
0.009000093
0.009000876
0.008998527
0.008993148
0.00898485
0.008973755
0.008959991
0.008943685
0.008924955
0.00890389
0.008880525
0.008854799
0.008826448
0.008794859
0.008759967
0.00872231
0.008682086
0.008639336
0.008594201
0.008546952
0.00849796
0.008447623
0.008396331
0.008344439
0.008292261
0.008240067
0.008188082
0.008136489
0.008085432
0.008035022
0.007985343
0.007936454
0.007888392
0.007841176
0.007794807
0.007749266
0.007704516
0.007660508
0.007617218
0.007574655
0.007532828
0.007491726
0.007451323
0.007411565
0.007372389
0.007333732
0.007295481
0.007257531
0.007219781
0.007182117
0.007144411
0.007106524
0.007068307
0.0070296
0.006990237
0.006950051
0.006908879
0.006866563
0.006822956
0.006777925
0.006731351
0.006683137
0.006633207
0.00658151
0.006528021
0.00647274
0.006415698
0.006356952
0.006296588
0.006234715
0.006171465
0.006106989
0.006041455
0.005975047
0.005907959
0.005840391
0.005772549
0.005704639
0.00563686
0.005569407
0.005502461
0.00543619
0.005370749
0.005306276
0.005242892
0.005180704
0.005119802
0.005060261
0.005002142
0.004945493
0.004890353
0.004836752
0.004784714
0.004734258
0.004685403
0.004638167
0.004592562
0.004548603
0.004506295
0.004465639
0.004426624
0.004389235
0.004353451
0.004319257
0.00428665
0.00425564
0.004226243
0.004198478
0.004172365
0.004147922
0.004125165
0.0041041
0.004084731
0.004067048
0.004051038
0.004036675
0.004023931
0.004012762
0.004003128
0.00399498
0.00398827
0.003982953
0.003978974
0.00397633
0.00397496
0.003974997
0.003976361
0.003979475
0.003984101
0.00399112
1.932043e-05
3.113469e-05
4.671605e-05
0.0002002887
0.0003276843
0.0005534479
0.0007765406
0.00098127
0.001239028
0.001492254
0.001767677
0.002125081
0.002552002
0.003040148
0.003598384
0.004325188
0.005718747
0.006296111
0.006866467
0.007391834
0.007862364
0.008276183
0.008653148
0.009007269
0.00934496
0.009669028
0.009979865
0.01
0.01
0.01
0.01
0.01
0.01
0.01
0.01
0.01
0.01
0.01
0.01
0.01
0.01
0.01
0.01
0.01
0.01
0.01
0.01
0.01
0.01
0.01
0.009967145
0.009677133
0.009429768
0.009222561
0.009038303
0.008878812
0.008746311
0.008640538
0.008560405
0.008503031
0.008470442
0.008457872
0.00845926
0.008482862
0.00852882
0.008594505
0.008677287
0.008776404
0.008888309
0.00900822
0.0091318
0.009259346
0.009386373
0.009515423
0.009650926
0.00980011
0.00998974
0.01
0.01
0.01
0.01
0.01
0.01
0.01
0.01
0.01
0.01
0.01
0.01
0.01
0.01
0.01
0.01
0.01
0.01
0.01
0.01
0.01
0.01
0.01
0.01
0.01
0.01
0.01
0.01
0.01
0.01
0.01
0.01
0.01
0.01
0.01
0.01
0.01
0.01
0.01
0.01
0.01
0.01
0.01
0.01
0.01
0.01
0.01
0.01
0.01
0.01
0.01
0.01
0.01
0.01
0.01
0.01
0.01
0.01
0.01
0.01
0.01
0.01
0.01
0.01
0.01
0.01
0.01
0.01
0.01
0.009953
0.009891708
0.009837207
0.009789915
0.009750063
0.009717733
0.009692887
0.009675381
0.009664957
0.009661207
0.00966353
0.009671017
0.009682469
0.009696503
0.009711246
0.009724492
0.009734193
0.009738895
0.009737705
0.009730718
0.00971913
0.009704372
0.009687307
0.009668505
0.009648583
0.009628247
0.009608161
0.009588798
0.009570365
0.009552746
0.009535466
0.009517688
0.009498262
0.009475806
0.009448823
0.009415809
0.009375352
0.009326231
0.009267512
0.009198625
0.009119413
0.009030167
0.008931511
0.00882442
0.008710712
0.008592499
0.008472019
0.008351466
0.008232817
0.00811769
0.00800723
0.007902095
0.007802493
0.007708234
0.007618854
0.007533758
0.007452375
0.007374314
0.007299487
0.007228201
0.007161202
0.00709965
0.007045027
0.006999019
0.00696336
0.006939697
0.006929464
0.006933799
0.006953485
0.006988866
0.007039805
0.007105629
0.007184972
0.007275362
0.007377194
0.007491543
0.00761711
0.00775266
0.007896995
0.008049197
0.008208474
0.008374396
0.008546824
0.008725869
0.00891187
0.009105182
0.009305694
0.009512819
0.009725855
0.009942944
0.01
0.01
0.01
0.01
0.01
0.01000001
0.01000007
0.01000055
0.01000123
0.01000107
0.01000038
0.01000005
0.01
0.01
0.01
0.01000004
0.01000062
0.01000497
0.0100096
0.01000651
0.01000159
0.0100001
0.009986892
0.009796343
0.009608198
0.009431324
0.009276363
0.009154038
0.009074306
0.009044698
0.009069365
0.009149565
0.009283164
0.009464209
0.009682809
0.009925627
0.01
0.01
0.01000001
0.01000004
0.01000011
0.01000016
0.01000012
0.01000003
0.01
0.009686953
0.008876885
0.007866156
0.00673788
0.005670454
0.004834041
0.004281666
0.0032978
0.00279645
0.00284956
0.002897438
0.002861212
0.002835662
0.002910719
0.003140025
0.003564334
0.004216778
0.004711509
0.004851616
0.004984696
0.005112926
0.005236016
0.005354245
0.005469327
0.005584115
0.005702158
0.005825959
0.005957288
0.006096612
0.006243864
0.006399115
0.006562068
0.006731793
0.006907194
0.007087182
0.007270213
0.007454465
0.007637965
0.007818674
0.007994566
0.008163702
0.008324298
0.008474779
0.00861382
0.00874036
0.008853623
0.008953103
0.00903891
0.009113555
0.009179364
0.009237911
0.009290273
0.009337152
0.00937875
0.009414851
0.009445805
0.009471589
0.009493155
0.00951121
0.00952596
0.009419079
0.009241224
0.009095744
0.008980497
0.008895274
0.008840095
0.008813362
0.008812596
0.008835192
0.008878599
0.008940574
0.009019441
0.009113499
0.009220566
0.009339882
0.009467274
0.009564087
0.0095501
0.009532733
0.009511524
0.009485953
0.009456539
0.009423871
0.009388538
0.009351082
0.009311976
0.009271632
0.0092304
0.009188575
0.009146407
0.009104097
0.009061813
0.009019686
0.008977814
0.008936274
0.008895112
0.008854365
0.008814059
0.008774208
0.008734813
0.008695865
0.008657365
0.008619331
0.008581785
0.00854474
0.008508198
0.008472141
0.008436543
0.008401367
0.008366545
0.008331993
0.008297628
0.008263362
0.008229083
0.008194665
0.008159966
0.008124833
0.008089102
0.008052605
0.00801517
0.007976628
0.007936813
0.007895569
0.007852751
0.007808232
0.0077619
0.00771367
0.007663474
0.007611276
0.007557062
0.007500851
0.007442688
0.007382642
0.00732081
0.007257312
0.007192287
0.007125896
0.007058316
0.006989735
0.00692035
0.006850363
0.006779979
0.006709396
0.006638808
0.006568396
0.006498331
0.006428772
0.00635986
0.006291724
0.006224478
0.006158216
0.006093022
0.006028963
0.005966093
0.005904458
0.005844093
0.00578503
0.005727297
0.005670925
0.005615943
0.005562388
0.005510299
0.005459717
0.005410685
0.005363233
0.005317372
0.005273123
0.005230509
0.005189536
0.005150205
0.005112518
0.005076515
0.005042244
0.005009742
0.004979047
0.004950189
0.004923192
0.004898071
0.004874829
0.004853462
0.004833949
0.004816264
0.004800373
0.00478623
0.004773802
0.004763024
0.004753902
0.004746344
0.004740469
0.004736092
0.004733597
0.004732543
0.004734298
1.765196e-05
2.709714e-05
5.22707e-05
0.0001575713
0.0002546224
0.0004043335
0.0005195286
0.0006508397
0.000805426
0.0009569903
0.001134325
0.001363843
0.001627346
0.001941945
0.002352947
0.003145159
0.003518585
0.003923546
0.004352806
0.004805773
0.005287467
0.005790993
0.006304033
0.006814302
0.007308645
0.007777449
0.008236526
0.008750457
0.009243374
0.009701533
0.01
0.01
0.01
0.01
0.01
0.01
0.01
0.01
0.01
0.01
0.01
0.01
0.01
0.01
0.01
0.01
0.01
0.01
0.01
0.01
0.01
0.01
0.01
0.01
0.01
0.01
0.01
0.009728837
0.00939367
0.009060054
0.00873847
0.00844309
0.008193064
0.007983906
0.007810214
0.007669524
0.00756309
0.00748719
0.00743851
0.007414607
0.007412222
0.007430827
0.00746819
0.007525209
0.007605736
0.00771092
0.00784285
0.008001497
0.008187944
0.008401791
0.008626624
0.008851831
0.009065555
0.009277234
0.009490348
0.009714006
0.009982655
0.01
0.01
0.01
0.01
0.01
0.01
0.01
0.01
0.01
0.01
0.01
0.01
0.01
0.01
0.01
0.01
0.01
0.01
0.01
0.01
0.01
0.01
0.01
0.01
0.01
0.01
0.01
0.01
0.01
0.01
0.01
0.01
0.01
0.01
0.01
0.01
0.01
0.01
0.01
0.01
0.01
0.01
0.01
0.01
0.01
0.01
0.01
0.01
0.01
0.01
0.01
0.01
0.01
0.01
0.01
0.01
0.01
0.01
0.01
0.01
0.01
0.01
0.01
0.01
0.01
0.01
0.01
0.01
0.01
0.01
0.01
0.01
0.01
0.01
0.01
0.01
0.01
0.01
0.01
0.01
0.01
0.01
0.01
0.01
0.01
0.01
0.01
0.01
0.01
0.01
0.01
0.01
0.01
0.01
0.01
0.01
0.01
0.01
0.01
0.01
0.01
0.01
0.01
0.01
0.01
0.01
0.01
0.01
0.01
0.01
0.01
0.01
0.00990095
0.009792005
0.009677072
0.009558403
0.009438366
0.00931924
0.009202991
0.009090999
0.008984003
0.008882518
0.008786468
0.008695294
0.008608118
0.008523941
0.008441851
0.008361204
0.008281768
0.008203853
0.00812836
0.008056726
0.007990822
0.00793278
0.007884807
0.007848995
0.007827161
0.007820741
0.007830696
0.007857466
0.007900945
0.007960406
0.008034343
0.008120409
0.008220746
0.008334612
0.008460799
0.008598084
0.008745255
0.008901361
0.009065641
0.009237652
0.009417113
0.009603891
0.009798329
0.01
0.01
0.01
0.01
0.01
0.01
0.01
0.01
0.01000001
0.01000009
0.01000068
0.01000441
0.0100047
0.0100018
0.01000021
0.01000001
0.01
0.01
0.01
0.01000011
0.01000311
0.01002332
0.01002674
0.0100154
0.01000248
0.0100001
0.01
0.01
0.01
0.01
0.01
0.01
0.01
0.01
0.01000002
0.01000005
0.01000005
0.01000004
0.01000001
0.01
0.01000001
0.01000004
0.0100003
0.01000158
0.01000168
0.01000075
0.01000009
0.01
0.01
0.01
0.01
0.009639579
0.008576885
0.007413892
0.006335865
0.005489102
0.004909311
0.003670494
0.003094242
0.003127019
0.003230978
0.003283424
0.003348986
0.003549608
0.003971255
0.004658209
0.004963291
0.005114641
0.005262299
0.005405515
0.005542164
0.005671534
0.005795153
0.005916443
0.006040263
0.006171034
0.006311735
0.006463683
0.006626842
0.006800248
0.006982418
0.007171112
0.007282714
0.007398011
0.007521621
0.007652727
0.007792344
0.00794163
0.008101527
0.008272479
0.008454165
0.008645332
0.008843772
0.009046324
0.009245354
0.009412625
0.009479817
0.009533607
0.009577087
0.009612616
0.009641995
0.009666575
0.009687245
0.009704487
0.00971832
0.009557472
0.009347417
0.009140178
0.008944313
0.008771672
0.008630725
0.00852235
0.00844473
0.008396157
0.00837545
0.008380731
0.008409258
0.008458357
0.008525685
0.008609286
0.008708044
0.008820983
0.008945701
0.009079976
0.009223686
0.009380848
0.009563907
0.009773995
0.009980403
0.009971847
0.009958154
0.009940323
0.009919188
0.009895416
0.009869543
0.009842009
0.009813178
0.009783351
0.009752781
0.009721676
0.009690205
0.009658507
0.009626685
0.009594809
0.00956289
0.009530979
0.009499133
0.009467392
0.009435784
0.009404332
0.009373058
0.009341994
0.009311175
0.009280634
0.009250397
0.009220477
0.009190878
0.009161589
0.00913258
0.009103805
0.009075208
0.009046716
0.009018244
0.008989685
0.008960917
0.008931804
0.008902195
0.008871929
0.008840837
0.008808745
0.00877548
0.008740873
0.00870476
0.00866699
0.008627426
0.008585951
0.008542465
0.008496894
0.008449189
0.008399326
0.008347309
0.00829317