/*--------------------------------*- C++ -*----------------------------------*\
| =========                 |                                                 |
| \\      /  F ield         | foam-extend: Open Source CFD                    |
|  \\    /   O peration     | Version:     3.1                                |
|   \\  /    A nd           | Web:         http://www.extend-project.de       |
|    \\/     M anipulation  |                                                 |
\*---------------------------------------------------------------------------*/
FoamFile
{
    version     2.0;
    format      ascii;
    class       volScalarField;
    location    "11";
    object      omega;
}
// * * * * * * * * * * * * * * * * * * * * * * * * * * * * * * * * * * * * * //

dimensions      [0 0 -1 0 0 0 0];

internalField   nonuniform List<scalar> 
119952
(
318.1895
392.5265
364.1482
313.8565
278.4878
277.0449
279.0011
282.8238
287.9509
294.0319
300.8277
308.1587
315.8903
323.8265
331.6899
339.5691
347.6447
356.1006
365.2046
375.7338
321.1106
318.1327
320.5961
274.6834
268.1297
264.9355
262.2466
259.9753
254.5388
176.1937
792.0803
654.334
552.1136
480.6786
428.1864
387.8614
355.4445
328.5939
305.6983
279.9224
232.284
199.7409
177.7008
161.7581
149.5235
139.6671
131.4422
124.3819
118.204
93.25283
89.66324
86.15936
82.81104
79.68202
76.80669
74.1914
71.82309
69.6884
67.7946
66.17949
64.63639
63.18024
61.8209
60.55745
59.3834
58.28175
57.21855
56.17445
56.31518
56.50045
55.9294
55.49684
55.28424
55.273
55.14324
54.88099
54.50343
54.02471
53.46443
52.84457
52.18525
51.50339
50.81183
50.11919
49.42914
48.73693
48.01657
47.22099
46.34593
45.61386
44.78957
44.00879
43.52275
43.11982
42.88955
43.06571
44.16028
45.82769
45.99134
45.87183
45.60104
45.28652
44.95451
44.62073
44.29514
43.98434
43.69424
43.43049
43.19897
43.00543
42.85505
42.7534
42.70601
42.71737
42.79041
42.92638
43.12479
43.38332
43.69795
44.06332
44.47325
44.92105
45.39934
45.89911
46.4084
46.91081
47.38443
47.80198
48.13326
48.34945
48.42715
48.35046
48.11149
47.71037
47.15516
46.46116
45.64965
44.74584
43.7767
42.76872
41.74602
40.72907
39.73437
38.77416
37.85735
36.98147
36.13128
35.46473
34.91698
34.40953
33.91976
33.48412
33.10416
32.77012
32.47945
32.23275
32.0354
31.88727
31.7851
31.72734
31.71309
31.74144
31.81129
31.92139
32.07046
32.25719
32.48033
32.73877
33.03133
33.35642
33.71194
34.0956
34.50505
34.9382
35.40104
35.90294
36.45494
37.07132
37.76975
38.5903
39.70459
41.2082
43.15306
45.4873
48.11418
50.8301
53.40334
55.70511
57.74869
59.609
61.32125
62.84195
64.06914
64.89313
65.23868
65.07432
64.3345
66.52052
71.00768
73.68809
75.12693
75.91899
76.37227
76.65141
76.9807
77.58097
78.64773
80.3965
83.00544
87.49559
95.98588
113.488
154.4059
186.704
177.1914
136.2829
107.0548
91.0672
81.47991
75.35386
71.5168
68.94948
66.89626
64.8848
62.7102
60.37437
57.98682
55.69485
53.62896
51.89324
50.54725
49.54535
48.2436
46.43859
45.90254
45.70874
45.52848
45.40559
45.34584
45.34111
45.37801
45.44333
45.52652
45.62279
45.72746
45.83721
45.94719
46.07265
46.2172
46.37646
46.54217
46.68891
46.79899
46.87678
46.93691
47.04487
47.21302
47.37882
47.49461
47.56081
47.58989
47.58404
47.5427
47.46527
47.3514
47.19827
46.98954
37.45527
34.30105
31.95836
30.44463
29.52655
28.96028
28.58423
28.30782
28.08344
27.88652
27.70439
27.5305
27.36153
27.19586
27.03273
26.87183
26.713
26.55613
26.40112
26.2479
26.09643
25.94657
25.79797
25.65
25.50215
25.35441
25.2072
25.06101
24.9161
24.77258
24.63042
24.48958
24.35005
24.21183
24.07495
23.9395
23.80554
23.67318
23.54256
23.41381
23.28712
23.16278
23.04127
22.92377
22.81321
22.71347
22.62244
22.53563
22.45264
22.3734
22.29769
22.22602
22.15995
22.103
22.08619
22.00991
21.90566
21.78029
21.64166
21.50001
21.36456
21.24198
21.13605
21.04887
20.9812
20.93302
20.9037
20.89225
20.89742
20.91785
20.95208
20.99863
21.05601
21.12278
21.19753
21.27889
21.36547
21.45595
21.54903
21.64344
21.738
21.83154
21.92299
22.01135
22.09562
22.17487
22.24851
22.3158
22.37617
22.42916
22.4744
22.51164
22.54069
22.56143
22.57382
22.57788
22.57372
22.56148
22.54136
22.51355
22.47828
22.43581
22.38639
22.33029
22.26779
22.19919
22.12477
22.04484
21.95972
21.86976
21.77528
21.67662
21.5741
21.46809
21.35898
21.24704
21.13256
21.01593
20.89747
20.77745
20.65615
20.53383
20.4107
20.28692
20.16264
20.03795
19.91286
19.78733
19.6612
19.53416
19.40561
19.27462
19.13933
18.99631
18.83746
18.64518
18.37922
17.99554
17.91258
649.1584
581.6012
543.3935
503.2926
465.398
431.6552
402.0815
376.1493
352.3455
283.4491
213.9041
178.5795
159.049
147.1152
138.8869
132.5372
127.203
122.4472
97.17014
92.31728
87.7293
83.56687
79.91953
76.7772
74.07783
71.74665
69.71305
67.90404
66.33703
64.82649
63.29048
61.7515
60.23777
58.77502
57.37799
56.05262
54.79733
53.94829
53.35639
52.60051
51.74991
50.8567
49.95505
49.06948
48.21593
47.40371
46.64188
45.93142
45.25836
44.62295
44.01725
43.43249
42.86426
42.31083
41.77374
41.2707
37.51533
37.09523
36.70323
36.3322
35.97707
35.63529
35.30664
34.99205
34.69276
34.40864
34.14459
33.90257
33.68004
33.46866
33.26489
33.06834
32.8829
32.7139
32.58507
32.51958
32.44761
32.36351
32.30269
32.25177
32.18824
32.09902
31.98289
31.83808
31.66275
31.45689
31.22206
30.96083
30.67632
30.37181
30.05044
29.7149
29.36708
29.00916
28.64478
28.28137
27.92343
27.57405
27.26712
27.02562
26.82862
26.68148
26.58304
26.50501
26.38542
26.23921
26.10141
25.96177
25.82148
25.68129
25.54241
25.4065
25.27529
25.15098
25.03615
24.9336
24.84615
24.77649
24.72703
24.69975
24.69608
24.71683
24.76223
24.83186
24.92464
25.03888
25.17224
25.32193
25.48476
25.65729
25.83586
26.01673
26.19604
26.36987
26.53411
26.68435
26.81578
26.92293
26.99971
27.03946
27.03538
26.98091
26.87016
26.69832
26.46205
26.1598
25.79219
25.3622
24.87521
24.33875
23.76211
23.15568
22.53061
21.89964
21.27652
20.6709
20.09582
19.553
19.04607
18.57868
18.15261
17.76819
17.42469
17.12056
16.8536
16.62133
16.42114
16.25057
16.10742
15.98989
15.89653
15.82623
15.77813
15.75149
15.74548
15.75902
15.79057
15.83828
15.89983
15.97254
16.05366
16.14081
16.23225
16.32714
16.42575
16.53019
16.64552
16.78101
16.9514
17.17993
17.49795
17.88599
18.31277
18.74796
19.17347
19.58891
20.00237
20.41704
20.82478
21.20458
21.53003
21.76853
21.89847
21.8845
22.45463
22.99242
23.1662
23.0903
22.86229
22.55969
22.24289
21.95973
21.75058
21.65661
21.73734
22.10829
23.0346
25.15665
29.98301
38.70256
47.75106
56.06162
64.12999
70.76751
71.68511
64.62744
54.22034
45.12788
38.47743
33.71849
30.07725
27.07023
24.50065
22.33868
20.58664
19.22494
18.20754
17.48064
16.98746
16.66513
16.47298
16.38656
16.37596
16.4153
16.48574
16.57348
16.6735
16.78165
16.89382
17.00563
17.11389
17.21455
17.29756
17.35787
17.39324
17.40312
17.38834
17.35084
17.29355
17.22014
17.1348
17.0419
16.94547
16.84872
16.755
16.66795
16.59122
16.51807
16.44712
16.37966
16.31565
16.25451
16.19502
16.14133
14.95615
14.85457
14.75144
14.64114
14.52716
14.41288
14.29969
14.18755
14.07588
13.96404
13.85151
13.73803
13.62355
13.50821
13.3923
13.27613
13.16007
13.04446
12.92961
12.81579
12.70322
12.59199
12.48214
12.37369
12.2668
12.16168
12.05847
11.95721
11.8579
11.76054
11.66513
11.57168
11.48019
11.39068
11.30316
11.21762
11.13407
11.05251
10.97292
10.89532
10.81971
10.74615
10.67474
10.60563
10.53898
10.47475
10.41258
10.35224
10.29375
10.23715
10.18246
10.12975
10.0791
10.03101
9.985552
9.941246
9.89832
9.857107
9.817696
9.780032
9.744111
9.710017
9.677883
9.647873
9.620171
9.594961
9.572416
9.552689
9.53591
9.522183
9.511583
9.504159
9.499928
9.498883
9.500985
9.506169
9.514342
9.525388
9.539169
9.555526
9.574279
9.595232
9.61817
9.64286
9.669059
9.696514
9.724969
9.754163
9.78384
9.813745
9.843629
9.873253
9.902385
9.930805
9.958305
9.984692
10.00978
10.03341
10.05542
10.07566
10.09398
10.11027
10.12438
10.13621
10.14564
10.15258
10.15694
10.15864
10.15761
10.1538
10.14717
10.1377
10.12537
10.11018
10.09213
10.07127
10.04764
10.0213
9.992327
9.960828
9.926923
9.890711
9.852343
9.811915
9.769588
9.725424
9.679587
9.632056
9.582966
9.532119
9.47953
9.424614
9.367
9.305265
9.238298
9.164578
9.086471
9.014163
8.949583
549.5395
484.9129
432.0997
393.3399
363.9565
341.2738
323.4104
309.3473
298.2244
282.483
177.7007
166.2127
156.8219
148.8772
142.0343
136.0121
130.176
123.3337
108.5903
75.87766
74.22098
73.21122
72.43575
71.89463
71.37577
70.86664
70.3454
69.72868
66.15547
63.49605
62.97653
62.63472
62.30557
61.96278
61.59909
61.21055
60.79497
60.33478
60.50155
59.50575
58.38106
57.38607
56.53632
55.79307
55.1185
54.4853
53.87718
53.29003
52.67373
52.01264
51.31106
50.59063
49.87189
49.16852
48.48656
47.82979
44.85793
44.29478
43.75957
43.24056
42.73152
42.2295
41.73381
41.24441
40.76228
40.28691
39.8162
39.35114
38.89176
38.43543
37.98068
37.52666
37.0733
36.62187
36.1745
35.73314
35.30155
34.88484
34.48461
34.10148
33.73628
33.38956
33.06165
32.75188
32.45796
32.17886
31.91239
31.65499
31.40393
31.15809
30.91647
30.67972
30.44581
30.20648
30.02734
29.84809
29.66781
29.48637
29.3046
29.12385
28.94573
28.77226
28.60515
28.44396
28.28953
28.14255
28.00352
27.87881
27.77181
27.68252
27.60968
27.55407
27.51274
27.48666
27.46477
27.43343
27.39569
27.35126
27.29325
27.21451
27.11228
26.98646
26.83724
26.66508
26.471
26.25649
26.02343
25.77389
25.51013
25.23455
24.94981
24.65893
24.36548
24.07379
23.79023
23.51857
23.26695
23.04347
22.84928
22.67704
22.52656
22.38315
22.23651
22.08057
21.92551
21.77544
21.6287
21.48429
21.3423
21.20364
21.06968
20.9422
20.82331
20.7154
20.62095
20.54231
20.48161
20.44054
20.42037
20.42182
20.44508
20.48967
20.55445
20.63753
20.73629
20.84748
20.96739
21.09203
21.21734
21.33947
21.45514
21.56173
21.65747
21.74131
21.81272
21.87134
21.91665
21.94759
21.96241
21.95852
21.93238
21.87955
21.79484
21.67265
21.50743
21.2944
21.03026
20.71378
20.34632
19.93204
19.47772
18.99267
18.48797
17.9755
17.46847
16.98006
16.51287
16.07268
15.66397
15.28963
14.95089
14.64764
14.37875
14.14242
13.9365
13.7588
13.60731
13.48044
13.377
13.29618
13.23735
13.20001
13.18355
13.18695
13.20863
13.24635
13.29727
13.35805
13.42488
13.49352
13.56055
13.62357
13.68101
13.73298
13.78214
13.8336
13.89444
13.9735
14.0824
14.23114
14.40631
14.59354
14.78453
14.98023
15.18641
15.40622
15.63692
15.86816
16.08601
16.27172
16.4109
16.48582
16.507
16.4521
16.339
16.18996
16.02686
15.87024
15.73848
15.64744
15.61145
15.64605
15.77612
16.04741
16.54445
17.41151
18.83656
20.89105
23.58169
27.11704
31.75832
37.30019
42.66088
46.35493
47.18146
45.08952
41.21732
36.62132
31.99048
27.7611
24.18074
21.33306
19.17801
17.60537
16.48077
15.67578
15.09597
14.6745
14.36408
14.13287
13.96004
13.83183
13.73871
13.67264
13.62869
13.60285
13.59049
13.58671
13.58591
13.58242
13.57232
13.55303
13.52314
13.48232
13.43119
13.37117
13.30433
13.23316
13.16042
13.08895
13.02149
12.96062
12.9087
12.86776
12.83937
12.82308
12.81518
12.81358
12.81639
12.822
12.8297
12.83475
12.87522
12.88962
12.8835
12.85948
12.82
12.76686
12.70132
12.62447
12.53734
12.44089
12.33607
12.22387
12.10535
11.98161
11.85375
11.72282
11.58979
11.45552
11.32079
11.18628
11.05252
10.91989
10.78867
10.6592
10.53192
10.40723
10.28532
10.16624
10.04998
9.936601
9.826144
9.718657
9.61417
9.512691
9.414203
9.318672
9.226045
9.136259
9.049242
8.964921
8.88323
8.804115
8.727536
8.653464
8.581854
8.512603
8.445522
8.380461
8.317383
8.256274
8.19714
8.139974
8.084811
8.031582
7.980386
7.931029
7.883533
7.837914
7.794145
7.752204
7.712094
7.673839
7.637466
7.603001
7.570469
7.539898
7.511316
7.484747
7.460213
7.437732
7.417319
7.39898
7.382717
7.368522
7.356382
7.34627
7.338155
7.331993
7.327735
7.325321
7.324681
7.325737
7.328401
7.332576
7.338158
7.345035
7.353092
7.362211
7.372269
7.383146
7.394721
7.406872
7.419482
7.432436
7.445623
7.458935
7.472271
7.485527
7.498603
7.5114
7.523816
7.535748
7.547094
7.557749
7.567611
7.576579
7.584559
7.591462
7.597201
7.601695
7.604859
7.60661
7.60686
7.605528
7.602532
7.597797
7.591254
7.582853
7.572547
7.560317
7.546146
7.53005
7.512035
7.492153
7.470414
7.4469
7.421599
7.394613
7.365858
7.335442
7.303107
7.268957
7.232402
7.193692
7.151956
7.108408
7.062322
7.017478
6.974846
309.8741
224.3723
322.608
146.2347
115.3227
86.05248
75.00577
65.86673
58.20132
54.64903
53.25333
52.55497
51.85141
51.09534
50.34196
49.63809
48.96178
48.29445
47.63064
46.98269
46.37705
45.87789
45.66505
45.66119
45.73029
45.86113
46.02148
46.17363
46.28702
46.32422
46.20567
44.78206
45.23391
45.67374
46.09286
46.51256
46.92849
47.32242
47.72591
48.07187
48.2974
48.5068
48.7239
48.91133
49.0476
49.12583
49.1433
49.09749
48.98815
48.82073
48.60487
48.33479
48.00739
47.63182
47.21862
46.77691
46.3143
45.83782
45.35279
44.86178
44.3649
43.86211
43.35236
42.83452
42.30893
41.77539
41.23972
40.69584
40.18238
39.66845
39.16175
38.66431
38.17782
37.7039
37.24316
36.79495
36.35772
35.92962
35.50863
35.09341
34.68258
34.27467
33.86862
33.4635
33.05873
32.65453
32.25271
31.85631
31.4688
31.09382
30.73442
30.39313
30.07189
29.77198
29.49376
29.23643
28.99774
28.77466
28.56349
28.36019
28.16171
27.96596
27.77259
27.58179
27.39546
27.21387
27.04136
26.87575
26.71458
26.55663
26.40131
26.24711
26.09505
25.94719
25.80568
25.67465
25.55642
25.45152
25.35982
25.28101
25.2146
25.16014
25.1168
25.08354
25.05825
25.03845
25.0175
24.98881
24.95058
24.90142
24.83756
24.75504
24.65214
24.52899
24.38626
24.22486
24.04584
23.85043
23.64008
23.41647
23.18146
22.93717
22.686
22.43066
22.17425
21.9203
21.67267
21.43445
21.2095
21.00085
20.80927
20.63152
20.46623
20.30701
20.15004
19.99339
19.83942
19.68913
19.5416
19.39593
19.25202
19.11052
18.97261
18.83984
18.71409
18.59745
18.49213
18.40022
18.32359
18.26382
18.22216
18.19946
18.1961
18.21196
18.24628
18.29756
18.36352
18.44118
18.52703
18.6171
18.70723
18.79338
18.87199
18.94034
18.99675
19.04063
19.07241
19.09331
19.10489
19.1087
19.1059
19.0969
19.08103
19.05633
19.01944
18.96561
18.88896
18.783
18.64128
18.45822
18.22992
17.95493
17.63464
17.27358
16.87911
16.46074
16.02973
15.59849
15.17798
14.77278
14.38981
14.03407
13.7088
13.4154
13.15403
12.9238
12.72325
12.55067
12.40447
12.28344
12.18677
12.11396
12.06471
12.0388
12.03595
12.05544
12.09516
12.15203
12.22205
12.30026
12.38098
12.45865
12.52874
12.58791
12.63377
12.66627
12.68894
12.70803
12.72958
12.75839
12.79957
12.86003
12.9374
13.02398
13.11489
13.21189
13.32035
13.44411
13.58285
13.73133
13.88118
14.02146
14.14148
14.23172
14.28749
14.30967
14.30476
14.28419
14.26208
14.25276
14.26906
14.32108
14.41607
14.5584
14.75445
15.0205
15.38987
15.91979
16.68187
17.74138
19.20004
21.25661
24.17165
28.02672
32.39601
36.49137
39.59185
40.94415
40.2125
37.86727
34.50608
30.69097
26.9473
23.68597
21.10979
19.21195
17.86573
16.90551
16.19616
15.64505
15.19259
14.8046
14.46413
14.16415
13.9023
13.67579
13.48313
13.32381
13.19563
13.09488
13.015
12.94882
12.89089
12.83718
12.78488
12.73237
12.67903
12.62515
12.57166
12.52
12.4719
12.42919
12.39364
12.36686
12.35026
12.34498
12.35191
12.37176
12.40154
12.4371
12.47537
12.51366
12.54972
12.58054
12.60785
12.6273
12.63478
12.62755
12.60452
12.56531
12.50965
12.43806
12.35147
12.25095
12.13772
12.01321
11.87895
11.73658
11.58769
11.43383
11.27639
11.11664
10.95571
10.7946
10.63415
10.47503
10.31768
10.1625
10.01006
9.86088
9.715298
9.573455
9.435447
9.301393
9.171396
9.045522
8.923791
8.80618
8.692628
8.583046
8.477318
8.375315
8.276896
8.181917
8.090236
8.001723
7.916252
7.8337
7.753946
7.676851
7.602256
7.53002
7.460057
7.392316
7.326756
7.263336
7.202016
7.142744
7.085529
7.030317
6.977054
6.925714
6.87628
6.828742
6.783091
6.739317
6.69741
6.657354
6.619134
6.582733
6.548134
6.51532
6.484271
6.45497
6.427396
6.401529
6.377348
6.354828
6.333945
6.31467
6.296975
6.280826
6.266191
6.253032
6.241311
6.230982
6.221999
6.21431
6.20786
6.202591
6.198442
6.195354
6.193262
6.192105
6.191818
6.192338
6.193604
6.195553
6.198127
6.201269
6.204921
6.209029
6.213538
6.21839
6.223527
6.228884
6.234397
6.239992
6.245594
6.251122
6.256492
6.261623
6.266434
6.27085
6.2748
6.278217
6.281029
6.283155
6.284502
6.28497
6.284457
6.28287
6.280117
6.276116
6.27079
6.264081
6.255935
6.246324
6.23521
6.222594
6.208442
6.192772
6.175534
6.156749
6.136318
6.114261
6.090427
6.064902
6.037586
6.008788
5.978616
5.947958
5.91847
275.5037
185.2794
139.834
125.0674
101.8334
85.67305
73.95279
69.47427
64.44714
61.553
59.05559
55.68065
52.26569
49.00957
45.9995
42.63611
37.35874
36.12909
35.19449
34.63671
34.41097
34.3916
34.45065
34.544
34.66777
34.82284
35.01174
35.2361
35.50019
35.80975
36.18181
36.62412
37.11612
37.64484
38.20042
38.77681
39.37021
39.98004
40.60284
41.23714
41.88053
42.48618
42.99322
43.58202
44.17738
44.74561
45.3198
45.90459
46.44443
46.95224
47.42314
47.85497
48.20688
48.46482
48.62933
48.7005
48.67914
48.56876
48.37464
48.10397
47.763
47.36026
46.90571
46.40522
45.86569
45.29558
44.70401
44.09951
43.48991
42.88259
42.28263
41.69102
41.10671
40.52612
39.94452
39.35779
38.76206
38.16447
37.56837
36.97635
36.39728
35.83871
35.3033
34.79274
34.30831
33.84964
33.41444
32.99901
32.59926
32.21122
31.83143
31.45745
31.08767
30.72058
30.35436
29.98711
29.61812
29.2485
28.88197
28.52338
28.17755
27.84887
27.54099
27.25676
26.99829
26.7666
26.56094
26.37842
26.21445
26.06368
25.92059
25.78037
25.63972
25.4978
25.35589
25.21689
25.08308
24.95558
24.83325
24.71215
24.59114
24.46968
24.34988
24.2332
24.12161
24.01767
23.92405
23.8427
23.7745
23.71929
23.67596
23.64307
23.61926
23.60334
23.59387
23.58863
23.58422
23.57553
23.55779
23.52819
23.4846
23.42437
23.34516
23.24615
23.12777
22.99106
22.8372
22.66754
22.48348
22.28653
22.07829
21.86047
21.63498
21.40397
21.16982
20.93518
20.70287
20.47572
20.25626
20.04686
19.84909
19.66326
19.48798
19.32155
19.16125
19.00478
18.85068
18.69887
18.54929
18.4013
18.25433
18.10836
17.96398
17.82228
17.6847
17.55296
17.42896
17.31462
17.21175
17.12197
17.04662
16.98683
16.94341
16.91682
16.90711
16.91382
16.93587
16.97151
17.01844
17.07384
17.13413
17.1954
17.25376
17.3056
17.348
17.37899
17.39766
17.40422
17.39994
17.38675
17.36693
17.34276
17.31616
17.28824
17.25907
17.22734
17.19024
17.14351
17.08158
16.99804
16.88628
16.74027
16.55544
16.32939
16.06253
15.75816
15.42236
15.06357
14.69196
14.31902
13.95306
13.60042
13.26776
12.95991
12.68
12.4294
12.20848
12.01667
11.85303
11.71664
11.60679
11.52327
11.46617
11.4356
11.43129
11.45274
11.49866
11.56682
11.65369
11.75431
11.86219
11.96977
12.06964
12.15519
12.22137
12.26535
12.28889
12.29907
12.30424
12.31015
12.31958
12.3353
12.36356
12.40472
12.45272
12.50303
12.55737
12.62095
12.69752
12.78758
12.88905
12.99768
13.1079
13.21372
13.31013
13.39443
13.46781
13.5363
13.60951
13.69835
13.81263
13.9594
14.14246
14.36281
14.61493
14.89063
15.18591
15.50989
15.88893
16.35926
16.9718
17.81497
19.04324
20.86549
23.43212
26.63692
30.10919
33.43096
36.16696
37.61081
37.32489
35.58367
32.86934
29.69737
26.55947
23.83698
21.71413
20.17152
19.06731
18.24581
17.58601
17.0092
16.47325
15.96249
15.47685
15.02313
14.60781
14.23472
13.90872
13.63074
13.3996
13.21032
13.05541
12.92802
12.82233
12.73368
12.6584
12.59399
12.53896
12.49274
12.45544
12.42759
12.40996
12.40329
12.40813
12.42475
12.45306
12.49259
12.54286
12.60204
12.66553
12.7295
12.79065
12.84608
12.89302
12.92966
12.95442
12.96468
12.95855
12.93487
12.89322
12.8331
12.75398
12.65629
12.54122
12.41032
12.26542
12.10854
11.94177
11.76716
11.58664
11.40198
11.21473
11.02627
10.83783
10.65047
10.46511
10.2823
10.10225
9.925441
9.752587
9.584147
9.420414
9.261601
9.107881
8.959352
8.816045
8.677927
8.544918
8.416896
8.29371
8.175187
8.06114
7.951368
7.84567
7.743848
7.645711
7.551077
7.45977
7.371621
7.286461
7.204125
7.124466
7.047371
6.972752
6.900539
6.830665
6.763074
6.697711
6.63454
6.573509
6.51456
6.457656
6.402772
6.349884
6.298964
6.249985
6.202915
6.157722
6.114371
6.072826
6.033048
5.995
5.958641
5.923931
5.890832
5.859302
5.829303
5.800796
5.773742
5.748103
5.723843
5.700927
5.679321
5.658991
5.639905
5.622028
5.605326
5.589766
5.575311
5.561926
5.549577
5.538226
5.52784
5.518383
5.509821
5.502118
5.495242
5.489158
5.483836
5.479245
5.475355
5.472138
5.469566
5.46761
5.466241
5.465424
5.465126
5.465304
5.465914
5.4669
5.468203
5.469753
5.471472
5.473281
5.475102
5.476865
5.478491
5.479903
5.481034
5.481822
5.482201
5.482079
5.481365
5.47997
5.477806
5.47479
5.470843
5.465896
5.459885
5.45276
5.444469
5.43498
5.424246
5.412245
5.398928
5.384284
5.368281
5.350945
5.33231
5.31247
5.291628
5.269993
5.249086
136.3282
101.5671
156.2987
77.72095
66.67173
57.32844
54.59661
52.67145
50.5627
49.79913
48.78937
47.24989
45.79693
44.23534
42.3546
38.49037
37.64364
36.84301
36.05985
35.29725
34.51461
33.7493
33.05193
32.45287
31.97281
31.62007
31.3299
31.01312
30.84257
30.84047
30.98932
31.23893
31.54037
31.87358
32.23398
32.62066
33.03401
33.47466
33.9479
34.46717
35.02234
35.60605
36.21402
36.8438
37.49189
38.15535
38.83063
39.51383
40.19467
40.87183
41.54139
42.17704
42.77862
43.45269
44.14153
44.77626
45.38329
45.97225
46.52058
47.00316
47.40215
47.69645
47.86339
47.89668
47.80059
47.5839
47.25667
46.83205
46.32431
45.74741
45.11394
44.4346
43.71966
42.97729
42.21436
41.4381
40.65714
39.88176
39.12219
38.38904
37.69054
37.02938
36.40416
35.80849
35.23307
34.66988
34.1115
33.55497
33.00219
32.45632
31.92344
31.41042
30.92287
30.46524
30.04028
29.64827
29.28648
28.94987
28.63217
28.32712
28.02954
27.73622
27.44566
27.15684
26.86813
26.57657
26.27993
25.97874
25.67692
25.3803
25.09505
24.82672
24.58013
24.35932
24.1676
24.00691
23.8763
23.77156
23.68639
23.61383
23.54686
23.47907
23.40588
23.32612
23.24213
23.15828
23.07666
23
22.92903
22.8637
22.8005
22.73669
22.67135
22.60555
22.54206
22.48456
22.43676
22.40148
22.37999
22.37184
22.37511
22.38725
22.40613
22.43032
22.45836
22.48784
22.51514
22.53563
22.54477
22.5391
22.51599
22.47324
22.40934
22.32398
22.21796
22.09276
21.95005
21.7916
21.61918
21.43448
21.23915
21.0349
20.82353
20.60704
20.38761
20.16762
19.94949
19.73566
19.52829
19.32922
19.13966
18.95994
18.78934
18.62649
18.46958
18.31674
18.16641
18.01768
17.86998
17.72271
17.57547
17.42837
17.28203
17.13757
16.99644
16.8603
16.73095
16.61016
16.49954
16.40047
16.31415
16.24152
16.18333
16.14003
16.11175
16.0982
16.09853
16.11125
16.13438
16.16536
16.20111
16.2382
16.27312
16.30261
16.32391
16.33502
16.33499
16.32389
16.30253
16.2725
16.23589
16.19504
16.15223
16.10931
16.06744
16.02672
15.98599
15.94272
15.89296
15.83156
15.75257
15.64982
15.51772
15.35196
15.15032
14.91307
14.64319
14.34623
14.02989
13.70348
13.37722
13.05742
12.75123
12.46459
12.20178
11.96563
11.75754
11.57807
11.42725
11.305
11.21135
11.14648
11.11083
11.10479
11.12856
11.18154
11.26201
11.36714
11.49268
11.63279
11.77973
11.92422
12.05579
12.16362
12.24005
12.285
12.30632
12.31575
12.32308
12.33171
12.34028
12.34938
12.3659
12.39233
12.42587
12.46053
12.49526
12.53542
12.58555
12.64728
12.72078
12.80528
12.89947
13.00175
13.11099
13.22766
13.35498
13.49979
13.67145
13.87903
14.12826
14.41966
14.74914
15.10775
15.47653
15.83683
16.17392
16.47928
16.7623
17.05523
17.39952
17.86833
18.57748
19.67805
21.30984
23.5084
26.14752
29.01378
31.87993
34.39243
35.83616
35.68434
34.14409
31.75514
29.08613
26.58891
24.52987
22.96923
21.82321
20.95143
20.22388
19.54876
18.87766
18.19713
17.51559
16.85118
16.22482
15.64778
15.12807
14.67095
14.27853
13.94771
13.67321
13.44826
13.26551
13.11826
13.00076
12.90826
12.83711
12.78475
12.74951
12.73038
12.72676
12.73821
12.7642
12.80396
12.85642
12.91998
12.99262
13.07186
13.15283
13.23121
13.30332
13.36608
13.41678
13.45344
13.47496
13.47971
13.46536
13.43019
13.37339
13.29479
13.19448
13.07354
12.93377
12.7773
12.6064
12.42346
12.23087
12.03089
11.82559
11.6168
11.40608
11.19478
10.98411
10.77508
10.56841
10.36456
10.16393
9.967415
9.776223
9.59081
9.4111
9.237211
9.06925
8.907239
8.751133
8.600837
8.456218
8.317116
8.183348
8.054715
7.931007
7.812002
7.697475
7.587206
7.480985
7.378598
7.279837
7.184504
7.09241
7.003379
6.917253
6.833901
6.753215
6.675103
6.599487
6.526301
6.455482
6.386978
6.320736
6.256707
6.194849
6.135128
6.077511
6.021961
5.968441
5.916911
5.867327
5.819644
5.773813
5.729783
5.687502
5.646915
5.607966
5.570602
5.534767
5.500408
5.467471
5.435906
5.405663
5.376696
5.348962
5.322424
5.297044
5.272788
5.249622
5.227516
5.206442
5.186371
5.167277
5.149135
5.131921
5.115615
5.100195
5.085641
5.071934
5.059055
5.046987
5.035712
5.025216
5.015485
5.006505
4.998263
4.990746
4.983941
4.977831
4.972398
4.967622
4.963476
4.959929
4.95694
4.954462
4.952437
4.950798
4.949467
4.948359
4.947413
4.946564
4.945747
4.944895
4.943938
4.942828
4.941513
4.939903
4.937923
4.935499
4.932552
4.929009
4.924796
4.919849
4.914105
4.907511
4.900014
4.891574
4.882154
4.871726
4.860281
4.847817
4.834383
4.820008
4.804851
4.788934
4.773572
50.5809
40.13446
41.22919
39.30668
38.39534
37.30021
36.47052
35.78841
35.24349
34.35993
32.10736
32.03685
31.98109
31.93776
31.87342
31.77674
31.67794
31.60421
31.56491
31.54701
31.42738
31.08954
30.75064
30.41202
30.08243
29.76334
29.47125
29.22376
29.03338
28.90348
28.82803
28.80338
28.84226
28.97575
29.21169
29.53808
29.92599
30.34977
30.79573
31.25762
31.73251
32.21933
32.72136
33.25294
33.80836
34.38822
34.99478
35.62845
36.28656
36.96314
37.65655
38.36606
39.08926
39.79371
40.48537
41.17921
41.84854
42.48484
43.14762
43.80397
44.43643
45.01188
45.4948
45.86183
46.09706
46.1895
46.12595
45.90793
45.54371
45.04606
44.43152
43.71956
42.93058
42.08521
41.20231
40.29678
39.38112
38.46469
37.55187
36.64559
35.74911
34.86938
34.01766
33.20929
32.4634
31.78521
31.1744
30.62536
30.12637
29.66375
29.22455
28.79803
28.37291
27.94653
27.52085
27.10066
26.69259
26.30412
25.94255
25.61317
25.3181
25.05537
24.81948
24.60275
24.39703
24.19553
23.99431
23.79255
23.59094
23.38942
23.18547
22.97597
22.76116
22.54561
22.3364
22.14085
21.96531
21.81573
21.69772
21.61538
21.56955
21.55523
21.56213
21.57877
21.59542
21.60463
21.60148
21.58424
21.55516
21.51933
21.48347
21.45512
21.43625
21.42548
21.41906
21.41224
21.40111
21.38405
21.36223
21.33918
21.31961
21.30843
21.3097
21.3256
21.35586
21.39761
21.44678
21.50025
21.55653
21.61463
21.67245
21.7263
21.77158
21.80383
21.81937
21.81535
21.78958
21.74079
21.6689
21.57495
21.46081
21.32869
21.1808
21.01914
20.8455
20.66151
20.46877
20.26895
20.06391
19.85567
19.64643
19.43841
19.23382
19.03468
18.84273
18.65915
18.48446
18.31832
18.15969
18.00701
17.85847
17.71236
17.56738
17.42256
17.27722
17.13103
16.98416
16.8373
16.69164
16.54866
16.41005
16.27756
16.15283
16.03732
15.93226
15.83866
15.75737
15.68904
15.63417
15.59299
15.56536
15.55064
15.54757
15.55426
15.56816
15.58643
15.60594
15.62351
15.63618
15.64148
15.63757
15.62358
15.59948
15.56594
15.52422
15.47606
15.42346
15.36849
15.31306
15.25867
15.20622
15.15564
15.1057
15.05389
14.99651
14.9288
14.84543
14.74097
14.61062
14.45093
14.26036
14.03966
13.79202
13.52286
13.23948
12.95052
12.66418
12.38656
12.12421
11.88229
11.66463
11.47372
11.31118
11.17794
11.07471
11.00212
10.96101
10.95233
10.97698
11.03558
11.12759
11.25089
11.40163
11.57434
11.76207
11.95573
12.14317
12.30886
12.43721
12.52128
12.56886
12.59705
12.6228
12.65454
12.68803
12.71378
12.73056
12.74744
12.77086
12.80069
12.83076
12.8581
12.8863
12.91961
12.96153
13.01558
13.08532
13.17424
13.28551
13.42231
13.58867
13.79046
14.03594
14.33397
14.69
15.10135
15.55557
16.03492
16.51489
16.96349
17.35731
17.6829
17.93735
18.12374
18.26328
18.40025
18.59097
18.9252
19.51992
20.49014
21.91045
23.7773
26.00888
28.49371
31.07799
33.42829
34.84731
34.78273
33.41227
31.34925
29.20149
27.3498
25.91071
24.82858
23.9786
23.23096
22.49004
21.70819
20.87808
20.0172
19.15303
18.31474
17.5325
16.81998
16.1823
15.61894
15.13022
14.71468
14.36752
14.08214
13.85115
13.66751
13.5248
13.41748
13.34095
13.29152
13.26627
13.26284
13.2792
13.31337
13.36325
13.42651
13.50045
13.58179
13.66648
13.74937
13.82589
13.89207
13.94459
13.98069
13.99818
13.99556
13.97158
13.9246
13.85379
13.7592
13.64169
13.50298
13.34541
13.17167
12.98431
12.78565
12.57792
12.3633
12.14385
11.92136
11.69739
11.4732
11.24976
11.02798
10.80867
10.59245
10.37975
10.17101
9.967071
9.769204
9.577881
9.392754
9.213679
9.040594
8.873418
8.712056
8.556397
8.406317
8.26168
8.122335
7.988117
7.858849
7.734339
7.614384
7.498788
7.387346
7.279835
7.17604
7.075764
6.978816
6.885021
6.794221
6.70628
6.621083
6.538533
6.458549
6.381062
6.306011
6.233344
6.163013
6.094977
6.029199
5.965651
5.904294
5.84509
5.787999
5.732976
5.679973
5.628939
5.579816
5.532548
5.48707
5.443319
5.40123
5.360735
5.321768
5.284264
5.248157
5.213387
5.179892
5.147617
5.116512
5.086532
5.057635
5.029784
5.002941
4.977076
4.952157
4.928158
4.905055
4.882827
4.861454
4.840923
4.821219
4.802331
4.784247
4.766957
4.750451
4.734721
4.719762
4.705566
4.692129
4.679448
4.667515
4.656327
4.645875
4.636152
4.627146
4.618843
4.611224
4.604264
4.597931
4.592187
4.586982
4.582261
4.577957
4.573995
4.570317
4.566879
4.563625
4.560489
4.557404
4.55432
4.551193
4.54796
4.544558
4.540919
4.536978
4.532669
4.52793
4.522699
4.516922
4.510545
4.503524
4.495821
4.487405
4.478265
4.468386
4.457805
4.44652
4.434647
4.42215
4.410158
78.48854
32.16745
27.89285
26.83246
26.21576
25.95007
25.95616
26.11842
26.39027
26.73864
27.03801
27.18117
27.3225
27.45022
27.5646
27.65975
27.74257
27.8145
27.86506
27.87457
27.81974
27.71099
27.5988
27.49037
27.39199
27.30741
27.24638
27.21612
27.22388
27.27291
27.36105
27.49202
27.67662
27.92627
28.24361
28.61896
29.03262
29.46684
29.91098
30.36039
30.81365
31.28122
31.78466
32.31883
32.8838
33.48348
34.12243
34.8036
35.52057
36.25066
36.99202
37.74745
38.53695
39.26925
39.97789
40.67226
41.34944
42.01366
42.65876
43.24314
43.72265
44.06637
44.24748
44.25353
44.0832
43.74168
43.23784
42.58877
41.81411
40.93391
39.96956
38.94462
37.88201
36.80522
35.73546
34.68938
33.67952
32.71122
31.78367
30.89294
30.03666
29.22614
28.46978
27.77601
27.15317
26.60668
26.13619
25.73381
25.38447
25.07055
24.77387
24.48015
24.18035
23.87181
23.55645
23.23909
22.92673
22.62807
22.35221
22.10646
21.89455