/*--------------------------------*- C++ -*----------------------------------*\
| =========                 |                                                 |
| \\      /  F ield         | foam-extend: Open Source CFD                    |
|  \\    /   O peration     | Version:     3.1                                |
|   \\  /    A nd           | Web:         http://www.extend-project.de       |
|    \\/     M anipulation  |                                                 |
\*---------------------------------------------------------------------------*/
FoamFile
{
    version     2.0;
    format      ascii;
    class       volScalarField;
    location    "11";
    object      p;
}
// * * * * * * * * * * * * * * * * * * * * * * * * * * * * * * * * * * * * * //

dimensions      [1 -1 -2 0 0 0 0];

internalField   nonuniform List<scalar> 
119952
(
6582.093
5859.095
5784.936
5930.565
6074.284
6036.488
6052.415
6077.216
6108.981
6143.874
6181.221
6220.299
6260.336
6300.987
6341.523
6381.585
6420.839
6458.226
6489.707
6497.35
6666.199
6632.587
6645.536
6853.898
6871.499
6932.194
6978.066
7056.645
7229.225
8367.43
4419.574
4390.442
4403.543
4408.284
4409.455
4408.345
4405.291
4402.008
4401.641
4381.904
4359.706
4373.58
4376.092
4384.784
4398.276
4415.507
4436.581
4460.208
4487.933
4531.977
4534.14
4561.376
4597.703
4635.529
4676.231
4719.157
4764.906
4812.264
4863.139
4905.03
4956.659
5014.123
5071.138
5129.657
5190.164
5253.081
5322.641
5421.947
5569.073
5530.961
5575.263
5656.504
5717.848
5753.456
5777.233
5808.088
5842.863
5879.58
5918.264
5958.252
5998.938
6039.942
6080.921
6121.563
6161.574
6200.694
6239.305
6280.085
6332.003
6381.197
6423.469
6503.538
6596.609
6644.197
6689.068
6730.66
6738.046
6665.104
6681.674
6730.769
6769.109
6807.07
6842.684
6876.229
6908.398
6939.39
6969.396
6998.55
7026.946
7054.709
7081.929
7108.68
7135.02
7160.995
7186.64
7211.988
7237.07
7261.909
7286.53
7310.945
7335.16
7359.166
7382.94
7406.454
7429.679
7452.603
7475.241
7497.64
7519.88
7542.05
7564.225
7586.447
7608.739
7631.112
7653.564
7676.073
7698.595
7721.058
7743.372
7765.433
7787.135
7808.374
7829.058
7849.105
7868.445
7887.118
7905.873
7924.59
7942.335
7958.924
7975.011
7990.771
8006.174
8021.178
8035.728
8049.733
8063.039
8075.533
8087.033
8097.316
8106.163
8113.349
8118.662
8121.911
8122.931
8121.582
8117.748
8111.34
8102.299
8090.608
8076.302
8059.48
8040.31
8019.344
7996.667
7972.702
7948.588
7924.978
7902.576
7882.081
7864.289
7849.596
7838.953
7832.4
7830.128
7832.2
7838.698
7849.659
7864.869
7883.766
7905.584
7929.506
7954.83
7980.813
8006.879
8032.074
8057.444
8115.592
8142.263
8164.51
8186.617
8207.87
8228.201
8247.922
8267.537
8287.682
8309.328
8333.731
8363.259
8401.473
8452.499
8518.643
8557.345
8400.734
8412.19
8474.997
8531.442
8565.81
8578.079
8576.267
8565.711
8547.843
8522.181
8487.287
8442.035
8386.329
8321.579
8250.766
8177.95
8107.726
8044.234
7989.941
7946.309
7916.352
7896.282
7885.232
7881.604
7883.773
7890.07
7899.138
7909.773
7920.988
7932.022
7942.324
7951.5
7959.361
7965.687
7970.436
7973.632
7975.351
7975.752
7974.981
7973.268
7970.857
7968.022
7965.056
7962.282
7959.995
7958.476
7958.037
7958.918
7961.359
7965.497
7971.424
7979.187
7988.747
8000.038
7985.313
7998.427
8013.144
8029.148
8045.783
8062.655
8079.409
8095.745
8111.417
8126.223
8140.002
8152.629
8164.017
8174.114
8182.9
8190.381
8196.588
8201.574
8205.403
8208.154
8209.911
8210.761
8210.79
8210.08
8208.713
8206.768
8204.316
8201.425
8198.155
8194.566
8190.713
8186.649
8182.425
8178.086
8173.672
8169.221
8164.764
8160.331
8155.948
8151.64
8147.432
8143.351
8139.435
8135.741
8132.272
8128.674
8124.415
8119.979
8115.865
8111.955
8108.21
8104.682
8101.27
8097.675
8091.09
8088.832
8086.815
8083.703
8080.74
8077.886
8075.122
8072.451
8069.873
8067.365
8064.923
8062.542
8060.213
8057.931
8055.69
8053.484
8051.308
8049.157
8047.027
8044.915
8042.818
8040.732
8038.655
8036.586
8034.523
8032.463
8030.408
8028.353
8026.303
8024.25
8022.199
8020.147
8018.098
8016.045
8013.991
8011.936
8009.879
8007.82
8005.757
8003.69
8001.618
7999.541
7997.456
7995.363
7993.261
7991.147
7989.02
7986.879
7984.722
7982.547
7980.351
7978.13
7975.887
7973.617
7971.318
7968.99
7966.629
7964.233
7961.799
7959.326
7956.81
7954.249
7951.638
7948.977
7946.26
7943.482
7940.638
7937.722
7934.724
7931.635
7928.442
7925.128
7921.673
7918.049
7914.225
7910.143
7905.734
7900.898
7895.491
7889.253
7881.768
7872.68
7863.788
7867.538
7907.574
6722.256
6629.682
6516.37
6394.32
6264.896
6130.153
5992.108
5852.199
5711.047
5544.273
5407.676
5273.195
5141.894
5017.53
4899.38
4787.97
4683.308
4584.49
4448.833
4380.759
4301.791
4232.216
4175.079
4127.039
4088.476
4059.228
4038.668
4027.447
4025.239
4017.067
4023.495
4034.376
4048.209
4064.244
4080.848
4097.105
4113.373
4132.214
4127.215
4126.924
4129.039
4126.867
4121.922
4115.149
4107.6
4101.205
4096.91
4090.535
4093.491
4100.622
4110.034
4123.261
4140.754
4162.296
4187.572
4217.877
4189.877
4227.036
4261.959
4297.703
4336.053
4377.229
4420.688
4465.945
4512.691
4561.152
4612.633
4665.197
4718.752
4774.459
4833.362
4895.825
4962.774
5034.412
5109.253
5179.372
5233.22
5278.854
5330.633
5383.02
5428.59
5467.512
5504.54
5542.712
5582.596
5623.66
5665.305
5707.169
5749.056
5790.834
5832.422
5873.871
5915.506
5958.102
6002.731
6050.385
6101.223
6155.39
6213.961
6273.371
6323.626
6362.074
6388.076
6402.794
6404.757
6416.857
6446.347
6481.866
6517.089
6550.396
6582.193
6613.035
6643.09
6672.353
6700.839
6728.624
6755.817
6782.51
6808.776
6834.676
6860.259
6885.568
6910.64
6935.509
6960.204
6984.744
7009.138
7033.387
7057.479
7081.387
7105.089
7128.567
7151.819
7174.863
7197.738
7220.5
7243.207
7265.905
7288.625
7311.381
7334.176
7356.997
7379.807
7402.55
7425.146
7447.5
7469.508
7491.069
7512.089
7532.497
7552.254
7571.363
7589.894
7607.983
7625.529
7642.288
7658.32
7673.808
7688.875
7703.54
7717.766
7731.499
7744.651
7757.09
7768.675
7779.203
7788.454
7796.195
7802.197
7806.244
7808.141
7807.718
7804.825
7799.353
7791.22
7780.373
7766.821
7750.645
7732.003
7711.138
7688.372
7664.241
7639.43
7614.786
7591.185
7569.361
7549.981
7533.726
7521.24
7513.087
7509.528
7510.692
7516.113
7525.994
7540.348
7558.621
7580.052
7603.96
7629.872
7657.029
7685.148
7713.345
7741.805
7768.289
7849.948
7876.694
7898.451
7919.097
7939.02
7957.878
7976.04
7993.96
8012.108
8031.794
8054.072
8080.365
8111.782
8146.946
8180.793
8188.61
8156.122
8178.539
8226.413
8273.766
8308.38
8313.395
8307.751
8295.626
8277.631
8252.203
8216.92
8169.978
8111.311
8042.992
7968.669
7892.824
7820.361
7756.178
7702.646
7660.947
7631.384
7612.692
7603.255
7601.318
7605.103
7612.86
7623.182
7634.865
7646.904
7658.551
7669.356
7678.918
7686.973
7693.422
7698.218
7701.388
7703.021
7703.258
7702.278
7700.297
7697.565
7694.359
7690.978
7687.735
7684.936
7682.872
7681.764
7682.027
7683.874
7687.339
7692.574
7699.662
7708.66
7719.737
7671.875
7686.636
7702.274
7718.18
7734.558
7751.206
7767.753
7783.884
7799.365
7814.003
7827.641
7840.152
7851.451
7861.483
7870.227
7877.691
7883.902
7888.911
7892.782
7895.591
7897.421
7898.359
7898.486
7897.876
7896.611
7894.775
7892.435
7889.654
7886.495
7883.021
7879.289
7875.352
7871.257
7867.05
7862.769
7858.45
7854.123
7849.817
7845.555
7841.36
7837.251
7833.246
7829.352
7825.555
7821.8
7817.988
7814.027
7809.999
7806.071
7802.297
7798.663
7795.162
7791.776
7788.486
7785.003
7781.275
7777.939
7774.946
7772.074
7769.254
7766.503
7763.844
7761.274
7758.786
7756.369
7754.017
7751.721
7749.474
7747.271
7745.105
7742.972
7740.867
7738.785
7736.722
7734.676
7732.643
7730.621
7728.607
7726.6
7724.597
7722.597
7720.599
7718.602
7716.605
7714.608
7712.608
7710.606
7708.602
7706.595
7704.584
7702.568
7700.547
7698.521
7696.488
7694.448
7692.4
7690.342
7688.273
7686.193
7684.1
7681.991
7679.866
7677.723
7675.559
7673.373
7671.162
7668.926
7666.662
7664.367
7662.04
7659.679
7657.282
7654.848
7652.373
7649.855
7647.291
7644.678
7642.011
7639.29
7636.507
7633.66
7630.74
7627.742
7624.655
7621.47
7618.168
7614.738
7611.148
7607.383
7603.391
7599.149
7594.581
7589.714
7584.562
7579.585
7575.499
7573.794
7574.693
7579.023
3441.663
3446.57
3465.11
3495.247
3535.785
3587.174
3650.095
3724.707
3810.779
3909.651
4000.308
4119.202
4247.376
4384.913
4530.967
4683.971
4842.461
5004.992
5169.28
5325.187
5490.737
5653.667
5811.864
5962.605
6104.533
6235.596
6352.995
6454.739
6545.49
6612.101
6659.874
6688.744
6698.285
6688.417
6659.49
6612.366
6548.262
6468.774
6367.095
6263.942
6146.966
6021.072
5888.238
5750.723
5610.464
5469.278
5329.254
5191.422
5055.286
4925.05
4798.272
4677.366
4562.705
4454.747
4354.71
4267.241
4077.936
4000.571
3935.904
3876.045
3822.635
3778.204
3743.576
3718.376
3701.959
3693.204
3691.357
3696.436
3706.554
3720.326
3737.151
3756.031
3775.526
3794.1
3810.111
3822.132
3829.755
3832.248
3829.727
3823.204
3813.829
3802.778
3791.521
3781.57
3774.325
3771.589
3773.466
3779.744
3790.692
3806.245
3825.728
3848.833
3874.679
3904.65
3939.864
3974.76
4008.525
4044.237
4083.068
4124.555
4168.081
4213.239
4260.075
4308.336
4357.932
4409.475
4463.218
4519.388
4578.14
4639.821
4703.893
4770.208
4837.005
4903.702
4962.9
5013.437
5063.956
5116.399
5166.191
5210.805
5252.409
5294.007
5336.607
5379.871
5423.284
5466.585
5509.695
5552.612
5595.367
5638.111
5681.119
5724.832
5769.808
5816.765
5865.955
5916.291
5967.671
6018.902
6065.061
6102.333
6131.735
6153.127
6168.843
6186.736
6213.859
6246.334
6279.514
6311.478
6342.239
6372.196
6401.494
6430.091
6457.962
6485.16
6511.78
6537.916
6563.645
6589.032
6614.132
6638.998
6663.678
6688.215
6712.647
6736.998
6761.281
6785.503
6809.655
6833.714
6857.656
6881.465
6905.134
6928.671
6952.098
6975.454
6998.778
7022.098
7045.431
7068.784
7092.151
7115.509
7138.816
7162.008
7185.005
7207.707
7230.008
7251.802
7272.996
7293.517
7313.32
7332.387
7350.736
7368.388
7385.416
7401.769
7417.405
7432.394
7446.892
7460.955
7474.562
7487.659
7500.17
7511.974
7522.914
7532.792
7541.381
7548.444
7553.74
7557.038
7558.134
7556.847
7553.01
7546.515
7537.291
7525.233
7510.35
7492.753
7472.637
7450.31
7426.108
7400.541
7374.335
7348.567
7324.277
7302.157
7282.863
7267.214
7255.735
7248.987
7247.162
7249.944
7256.83
7268.342
7285.046
7306.08
7330.019
7356.016
7383.85
7412.854
7442.733
7472.362
7501.242
7528.195
7554.097
7580.707
7604.428
7625.23
7643.909
7661.007
7676.952
7691.868
7706.54
7722.451
7738.904
7756.515
7776.093
7796.589
7810.621
7823.595
7832.974
7852.232
7887.495
7930.979
7968.954
7994.511
8002.326
7990.82
7971.828
7944.253
7904.65
7851.504
7785.486
7709.447
7628.086
7546.933
7472.018
7408.731
7358.682
7321.799
7297.549
7284.509
7280.666
7283.891
7292.163
7303.642
7316.98
7331.013
7344.706
7357.575
7368.999
7378.864
7386.989
7393.295
7397.777
7400.502
7401.589
7401.202
7399.539
7396.838
7393.365
7389.413
7385.297
7381.346
7377.893
7375.281
7373.918
7373.49
7374.794
7377.885
7382.841
7389.702
7398.396
7408.817
7420.289
7434.082
7449.195
7464.992
7481.348
7498.035
7514.66
7530.873
7546.453
7561.222
7575.016
7587.706
7599.2
7609.439
7618.398
7626.081
7632.514
7637.745
7641.836
7644.865
7646.917
7648.084
7648.439
7648.031
7646.947
7645.287
7643.113
7640.481
7637.46
7634.116
7630.509
7626.691
7622.711
7618.615
7614.44
7610.22
7605.987
7601.767
7597.582
7593.452
7589.392
7585.411
7581.508
7577.671
7573.872
7570.071
7566.226
7562.355
7558.539
7554.837
7551.254
7547.77
7544.372
7540.982
7537.702
7534.545
7531.436
7528.376
7525.391
7522.501
7519.717
7517.041
7514.466
7511.98
7509.572
7507.233
7504.955
7502.73
7500.553
7498.417
7496.317
7494.247
7492.205
7490.185
7488.184
7486.199
7484.226
7482.264
7480.309
7478.361
7476.416
7474.473
7472.532
7470.59
7468.648
7466.703
7464.755
7462.804
7460.847
7458.886
7456.918
7454.943
7452.961
7450.971
7448.971
7446.961
7444.939
7442.905
7440.857
7438.794
7436.715
7434.617
7432.5
7430.361
7428.199
7426.012
7423.797
7421.553
7419.278
7416.969
7414.625
7412.244
7409.825
7407.366
7404.863
7402.315
7399.718
7397.069
7394.366
7391.604
7388.78
7385.888
7382.923
7379.877
7376.741
7373.505
7370.156
7366.68
7363.061
7359.282
7355.341
7351.247
7347.073
7342.969
7339.2
7336.122
7334.033
7333.53
7334.692
3448.672
3424.096
3395.004
3352.354
3323.319
3267.017
3250.942
3246.28
3252.741
3239.077
3208.998
3186.934
3179.091
3182.691
3197.62
3223.29
3259.555
3306.187
3363.511
3432.255
3512.29
3603.464
3705.572
3818.686
3942.837
4076.469
4218.257
4367.39
4522.449
4681.075
4844.328
4984.318
5152.481
5314.309
5469.524
5617.237
5755.51
5882.455
5996.994
6098.563
6184.077
6248.335
6292.265
6316.781
6321.805
6307.317
6274.007
6222.982
6155.47
6073.083
5977.414
5870.095
5751.964
5624.86
5491.008
5352.705
5212.015
5070.901
4931.281
4794.514
4661.434
4532.99
4409.676
4292.089
4180.512
4075.475
3977.02
3883.952
3794.502
3716.847
3651.284
3592.299
3540.176
3497.024
3463.798
3440.327
3425.919
3419.996
3421.859
3430.022
3443.487
3461.521
3482.997
3506.457
3530.171
3552.378
3571.411
3586.09
3594.76
3596.44
3591.927
3582.255
3568.531
3552.375
3535.891
3521.476
3511.186
3506.169
3507.068
3513.961
3526.238
3543.119
3564.056
3588.61
3616.824
3648.068
3681.234
3715.566
3750.987
3788.24
3827.653
3868.917
3911.68
3955.819
4001.417
4048.62
4097.566
4148.302
4201.032
4255.92
4313.017
4372.48
4434.031
4497.425
4561.556
4625.266
4685.155
4740.281
4793.853
4847.531
4899.583
4948.433
4994.862
5040.559
5086.395
5132.322
5178.006
5223.273
5268.113
5312.581
5356.76
5400.789
5444.88
5489.334
5534.515
5580.737
5627.969
5675.663
5723.271
5769.733
5812.577
5849.596
5880.852
5906.647
5929.849
5953.522
5980.621
6010.969
6042.327
6073.136
6103.063
6132.251
6160.787
6188.642
6215.793
6242.278
6268.178
6293.583
6318.572
6343.214
6367.575
6391.716
6415.698
6439.574
6463.397
6487.213
6511.057
6534.959
6558.916
6582.899
6606.908
6630.937
6654.971
6679.006
6703.044
6727.099
6751.184
6775.297
6799.436
6823.598
6847.766
6871.907
6895.97
6919.886
6943.57
6966.919
6989.819
7012.157
7033.831
7054.758
7074.876
7094.152
7112.589
7130.209
7147.067
7163.165
7178.524
7193.217
7207.359
7220.955
7234.103
7246.746
7258.798
7270.143
7280.618
7290.022
7298.12
7304.661
7309.395
7312.072
7312.484
7310.442
7305.729
7298.244
7287.951
7274.74
7258.575
7239.554
7217.895
7193.858
7167.792
7140.27
7112.023
7084.508
7059.116
7036.286
7016.461
7000.519
6989.479
6983.468
6982.342
6985.423
6991.904
7004.354
7024.682
7049.957
7076.917
7105.243
7135.152
7166.194
7197.901
7229.385
7260.158
7289.479
7317.52
7344.608
7368.633
7389.064
7406.62
7421.891
7435.248
7446.927
7457.469
7468.608
7478.538
7488.099
7499.728
7512.059
7523.058
7533.005
7543.114
7561.835
7594.129
7638.554
7683.908
7708.66
7719.287
7724.964
7718.028
7695.995
7658.637
7603.977
7533.272
7450.818
7362.553
7275.187
7195.865
7130.726
7081.178
7046.563
7025.805
7017.016
7017.716
7025.37
7037.699
7052.694
7069.086
7085.599
7101.246
7115.49
7128.015
7138.659
7147.31
7153.919
7158.506
7161.168
7162.046
7161.318
7159.196
7155.925
7151.784
7147.075
7142.127
7137.285
7132.906
7129.346
7126.929
7125.79
7126.203
7128.435
7132.617
7138.809
7146.981
7157.072
7168.96
7182.783
7197.94
7213.914
7230.481
7247.44
7264.4
7280.927
7296.783
7311.813
7325.85
7338.754
7350.428
7360.815
7369.89
7377.66
7384.154
7389.425
7393.542
7396.585
7398.65
7399.851
7400.289
7399.979
7398.989
7397.444
7395.355
7392.766
7389.773
7386.455
7382.873
7379.084
7375.136
7371.074
7366.934
7362.752
7358.555
7354.369
7350.214
7346.107
7342.061
7338.081
7334.166
7330.31
7326.497
7322.705
7318.915
7315.135
7311.408
7307.768
7304.225
7300.769
7297.396
7294.094
7290.899
7287.764
7284.653
7281.602
7278.652
7275.814
7273.082
7270.448
7267.904
7265.442
7263.055
7260.735
7258.475
7256.269
7254.112
7251.997
7249.919
7247.874
7245.857
7243.865
7241.892
7239.937
7237.997
7236.068
7234.148
7232.235
7230.326
7228.421
7226.518
7224.616
7222.712
7220.807
7218.899
7216.988
7215.071
7213.149
7211.221
7209.285
7207.34
7205.387
7203.423
7201.448
7199.461
7197.46
7195.444
7193.412
7191.362
7189.292
7187.202
7185.088
7182.951
7180.787
7178.596
7176.375
7174.122
7171.837
7169.517
7167.159
7164.762
7162.325
7159.845
7157.321
7154.748
7152.125
7149.45
7146.722
7143.935
7141.087
7138.172
7135.185
7132.122
7128.974
7125.738
7122.406
7118.976
7115.452
7111.85
7108.212
7104.612
7101.175
7098.054
7095.43
7093.522
7092.557
7092.308
3621.05
3599.045
3577.108
3530.225
3491.817
3420.158
3381.255
3341.379
3301.442
3261.768
3222.322
3184.87
3147.661
3111.864
3078.961
3047.826
2956.592
2935.153
2918.789
2904.078
2887.435
2871.788
2861.248
2858.723
2865.309
2881.455
2907.686
2944.296
2991.506
3048.659
3116.686
3196.935
3288.675
3391.833
3506.021
3630.712
3765.473
3909.286
4060.541
4217.425
4378.075
4541.059
4696.939
4859.893
5019.439
5173.362
5320.317
5458.139
5584.65
5698.844
5799.214
5883.315
5948.389
5993.621
6018.705
6023.431
6008.145
5973.911
5921.906
5853.418
5769.895
5672.895
5564.35
5445.661
5318.188
5183.824
5044.753
4903.083
4761.118
4620.963
4484.144
4351.797
4224.625
4102.772
3986.648
3876.48
3772.457
3674.333
3582.604
3498.074
3422.965
3357.193
3299.144
3248.783
3207.327
3175.744
3154.263
3142.554
3140.022
3145.699
3158.384
3177.166
3201.081
3228.819
3258.667
3288.556
3316.495
3340.485
3358.523
3368.781
3370.29
3363.241
3348.575
3327.837
3303.505
3278.88
3257.408
3241.801
3233.639
3233.449
3240.673
3254.078
3272.447
3295.036
3321.316
3350.873
3382.803
3416.621
3452.106
3488.914
3526.981
3566.428
3607.264
3649.373
3692.62
3737.111
3783.019
3830.449
3879.501
3930.366
3983.243
4038.264
4095.618
4155.234
4216.805
4279.423
4341.934
4402.853
4461.396
4518.328
4574.491
4629.492
4682.572
4733.799
4783.883
4833.379
4882.397
4930.802
4978.49
5025.468
5071.804
5117.592
5162.962
5208.09
5253.193
5298.49
5344.106
5389.978
5435.76
5480.858
5524.438
5565.26
5602.149
5634.908
5664.116
5691.281
5717.962
5745.791
5775.279
5805.526
5835.496
5864.748
5893.249
5921.035
5948.1
5974.437
6000.08
6025.099
6049.582
6073.611
6097.268
6120.626
6143.76
6166.742
6189.643
6212.536
6235.488
6258.572
6281.907
6305.502
6329.29
6353.295
6377.53
6401.979
6426.621
6451.433
6476.403
6501.503
6526.675
6551.895
6577.143
6602.383
6627.564
6652.627
6677.495
6702.081
6726.278
6749.97
6773.041
6795.386
6816.91
6837.541
6857.232
6875.969
6893.765
6910.657
6926.686
6941.913
6956.429
6970.295
6983.616
6996.383
7008.637
7020.287
7031.211
7041.249
7050.194
7057.802
7063.816
7067.974
7069.988
7069.649
7066.796
7061.194
7052.735
7041.356
7026.945
7009.478
6988.988
6965.56
6939.398
6910.876
6880.602
6849.475
6819.602
6792.452
6767.906
6746.539
6730.2
6719.602
6714.591
6714.415
6717.728
6723.376
6737.78
6761.927
6791.3
6821.437
6852.239
6884.408
6917.834
6951.963
6986.023
7019.36
7051.248
7081.119
7108.476
7132.454
7152.73
7169.598
7183.373
7194.341
7202.843
7209.402
7214.372
7218.04
7221.425
7225.821
7230.82
7235.733
7241.533
7250.962
7268.186
7295.419
7330.935
7367.527
7397.681
7415.208
7430.262
7439.634
7426.386
7392.819
7339.318
7266.213
7178.108
7082.615
6988.613
6905.184
6839.043
6791.245
6760.709
6745.593
6743.224
6750.444
6764.22
6781.991
6801.462
6821.501
6840.823
6858.661
6874.451
6888.14
6899.517
6908.619
6915.425
6919.953
6922.367
6922.845
6921.589
6918.828
6914.826
6909.875
6904.295
6898.432
6892.65
6887.331
6882.872
6879.645
6877.875
6877.455
6878.988
6882.61
6888.377
6896.287
6906.299
6918.283
6932.177
6947.529
6963.79
6980.683
6997.944
7015.22
7032.189
7048.586
7064.155
7078.67
7091.967
7103.941
7114.536
7123.735
7131.553
7138.033
7143.235
7147.241
7150.142
7152.04
7153.036
7153.214
7152.675
7151.58
7150.089
7148.085
7145.5
7142.48
7139.136
7135.536
7131.735
7127.784
7123.725
7119.595
7115.426
7111.245
7107.075
7102.937
7098.843
7094.807
7090.832
7086.915
7083.054
7079.24
7075.462
7071.714
7068
7064.34
7060.755
7057.254
7053.837
7050.503
7047.245
7044.065
7040.946
7037.885
7034.904
7032.019
7029.232
7026.538
7023.932
7021.41
7018.966
7016.595
7014.29
7012.046
7009.856
7007.715
7005.617
7003.558
7001.532
6999.536
6997.566
6995.618
6993.688
6991.774
6989.873
6987.982
6986.1
6984.223
6982.351
6980.482
6978.615
6976.748
6974.879
6973.009
6971.135
6969.257
6967.374
6965.484
6963.586
6961.68
6959.763
6957.837
6955.898
6953.945
6951.979
6949.996
6947.997
6945.978
6943.94
6941.88
6939.796
6937.688
6935.552
6933.388
6931.194
6928.968
6926.709
6924.414
6922.082
6919.711
6917.297
6914.845
6912.353
6909.813
6907.22
6904.579
6901.888
6899.146
6896.35
6893.495
6890.581
6887.603
6884.561
6881.454
6878.284
6875.056
6871.788
6868.501
6865.246
6862.078
6859.106
6856.408
6854.158
6852.415
6851.341
6850.574
3711.791
3686.05
3655.235
3611.172
3580.725
3516.085
3485.977
3455.491
3424.177
3392.103
3359.754
3326.989
3292.586
3257.263
3219.253
3114.104
3074.756
3035.388
2995.746
2956.106
2916.572
2877.711
2839.677
2802.732
2767.336
2734.865
2706.463
2680.926
2658.206
2637.582
2618.985
2604.325
2595.319
2593.394
2599.58
2614.478
2638.523
2672.45
2716.88
2772.611
2839.43
2917.575
3007.3
3108.613
3221.189
3344.457
3477.684
3619.873
3769.618
3925.343
4085.333
4247.068
4407.022
4568.075
4726.136
4878.605
5023.635
5159.725
5285.525
5399.15
5497.904
5579.851
5643.658
5687.613
5710.787
5713.093
5695.003
5657.632
5602.443
5530.995
5444.982
5346.067
5235.903
5116.019
4987.714
4852.715
4713.069
4570.919
4428.855
4288.777
4152.325
4021.14
3896.05
3776.851
3663.421
3556.098
3454.461
3358.171
3268.804
3187.299
3113.868
3048.558
2991.287
2942.283
2902.408
2872.675
2853.69
2845.444
2847.327
2858.316
2877.287
2903.213
2935.031
2971.36
3010.286
3049.31
3085.78
3117.085
3140.541
3153.72
3155
3143.989
3121.62
3090.04
3053.036
3015.947
2984.074
2961.235
2949.317
2948.23
2956.361
2971.683
2992.496
3017.696
3046.54
3078.367
3112.4
3148.118
3185.087
3222.977
3261.639
3301.15
3341.572
3382.882
3425.04
3468.099
3512.211
3557.558
3604.321
3652.734
3703.062
3755.577
3810.648
3868.428
3928.658
3990.568
4053.175
4115.52
4176.885
4237.202
4296.755
4355.47
4412.922
4468.885
4523.529
4577.107
4629.731
4681.368
4731.946
4781.467
4829.991
4877.612
4924.455
4970.674
5016.439
5061.901
5107.134
5152.087
5196.509
5239.958
5281.871
5321.577
5358.441
5392.302
5423.544
5452.981
5481.58
5510.335
5539.707
5569.372
5598.725
5627.381
5655.233
5682.277
5708.513
5733.948
5758.617
5782.592
5805.961
5828.82
5851.26
5873.369
5895.236
5916.946
5938.591
5960.269
5982.084
6004.135
6026.524
6049.355
6072.694
6096.574
6120.997
6145.938
6171.34
6197.142
6223.32
6249.77
6276.327
6302.942
6329.576
6356.167
6382.647
6408.941
6434.973
6460.657
6485.882
6510.527
6534.484
6557.651
6579.931
6601.244
6621.53
6640.761
6658.937
6676.087
6692.265
6707.547
6722.028
6735.805
6748.989
6761.456
6773.386
6784.69
6795.236
6804.863
6813.364
6820.473
6825.922
6829.468
6830.814
6829.727
6826.027
6819.496
6810.005
6797.414
6781.548
6762.353
6739.751
6713.774
6684.748
6653.125
6619.652
6586.232
6553.544
6522.667
6494.536
6470.984
6454.262
6444.819
6442.114
6444.995
6452.239
6462.856
6480.492
6502.992
6531.25
6564.225
6597.59
6631.836
6667.755
6704.635
6741.581
6777.766
6812.272
6844.178
6872.78
6897.493
6917.981
6934.306
6946.687
6955.388
6960.588
6962.477
6961.711
6959.292
6955.973
6952.54
6949.633
6948.271
6949.594
6955.262
6967.307
6986.677
7014.192
7047.041
7077.277
7101.555
7117.783
7133.647
7138.318
7111
7057.196
6982.263
6890.214
6788.91
6689.111
6602.096
6535.731
6491.102
6466.559
6459.25
6465.36
6480.845
6502.079
6526.078
6551.165
6575.241
6597.496
6617.615
6635.14
6649.776
6661.701
6670.978
6677.705
6682.013
6684.066
6684.06
6682.216
6678.784
6674.044
6668.301
6661.888
6655.159
6648.485
6642.248
6636.835
6632.653
6630.186
6628.871
6629.792
6632.949
6638.385
6646.096
6656.013
6667.997
6681.864
6697.285
6713.873
6731.25
6748.967
6766.656
6784.113
6801.046
6817.119
6832.081
6845.756
6858.033
6868.86
6878.225
6886.151
6892.691
6897.912
6901.895
6904.738
6906.538
6907.363
6907.274
6906.457
6905.135
6903.406
6901.2
6898.482
6895.364
6891.947
6888.293
6884.455
6880.48
6876.408
6872.273
6868.106
6863.93
6859.769
6855.64
6851.556
6847.53
6843.567
6839.66
6835.807
6832.005
6828.251
6824.542
6820.88
6817.277
6813.744
6810.289
6806.914
6803.618
6800.398
6797.251
6794.177
6791.177
6788.256
6785.421
6782.673
6780.01
6777.431
6774.932
6772.509
6770.158
6767.871
6765.644
6763.471
6761.347
6759.268
6757.227
6755.22
6753.244
6751.294
6749.368
6747.461
6745.572
6743.696
6741.832
6739.977
6738.13
6736.288
6734.45
6732.615
6730.781
6728.947
6727.112
6725.274
6723.433
6721.587
6719.735
6717.875
6716.006
6714.127
6712.238
6710.335
6708.42
6706.489
6704.541
6702.576
6700.59
6698.584
6696.555
6694.502
6692.423
6690.316
6688.18
6686.014
6683.816
6681.583
6679.315
6677.013
6674.671
6672.284
6669.86
6667.398
6664.887
6662.336
6659.738
6657.095
6654.404
6651.666
6648.88
6646.046
6643.163
6640.235
6637.264
6634.259
6631.23
6628.198
6625.188
6622.249
6619.424
6616.804
6614.436
6612.464
6610.87
6609.798
6608.893
3601.754
3568.006
3546.906
3511.857
3472.492
3434.791
3398.736
3365.284
3333.952
3302.629
3206.274
3176.331
3146.532
3116.094
3084.771
3052.54
3019.314
2984.758
2948.881
2912.184
2875.483
2836.865
2797.611
2757.853
2717.948
2677.99
2638.142
2598.672
2559.978
2521.947
2485.207
2451.748
2421.425
2394.16
2369.97
2349.422
2334.154
2325.326
2323.646
2329.851
2344.563
2368.304
2401.553
2444.938
2498.991
2564.07
2640.442
2728.357
2827.847
2938.673
3060.315
3191.976
3332.561
3480.63
3634.583
3792.502
3952.291
4111.958
4270.554
4425.576
4575.175
4717.459
4850.766
4973.977
5084.842
5180.717
5259.344
5319.198
5358.812
5377.263
5374.503
5351.193
5308.588
5248.449
5172.648
5083.183
4981.781
4869.887
4748.987
4620.16
4485.136
4345.857
4204.034
4062.614
3923.681
3788.718
3659.46
3536.865
3421.294
3312.274
3209.211
3111.547
3019.238
2933.741
2855.796
2785.222
2721.959
2666.3
2618.825
2580.572
2552.881
2536.853
2532.908
2540.465
2558.303
2585.166
2620.064
2662.095
2709.927
2761.298
2812.937
2861.457
2903.433
2935.097
2952.677
2953.516
2936.858
2903.514
2856.032
2800.073
2744.38
2697.566
2665.261
2649.462
2648.74
2659.491
2678.272
2702.918
2732.158
2765.005
2800.557
2837.908
2876.175
2914.82
2953.682
2992.861
3032.439
3072.462
3112.975
3153.928
3195.289
3237.229
3280.014
3323.846
3369.069
3416.078
3465.381
3517.759
3573.698
3633.019
3694.964
3758.518
3822.781
3887.124
3951.234
4015.009
4078.266
4140.623
4201.708
4261.37
4319.605
4376.417
4431.755
4485.575
4537.897
4588.792
4638.362
4686.733
4734.053
4780.48
4826.154
4871.156
4915.467
4958.937
5001.286
5042.157
5081.164
5117.964
5152.464
5184.891
5215.748
5245.656
5275.206
5304.713
5334.08
5362.973
5391.102
5418.335
5444.636
5469.998
5494.431
5517.978
5540.718
5562.751
5584.191
5605.147
5625.72
5646.01
5666.116
5686.148
5706.231
5726.512
5747.14
5768.233
5790.011
5812.693
5836.339
5860.952
5886.488
5912.852
5939.898
5967.492
5995.504
6023.777
6052.174
6080.587
6108.911
6137.042
6164.883
6192.353
6219.377
6245.836
6271.605
6296.595
6320.72
6343.891
6366.027
6387.065
6406.971
6425.729
6443.353
6459.895
6475.434
6490.062
6503.875
6516.923
6529.412
6541.163
6552.209
6562.439
6571.689
6579.767
6586.399
6591.3
6594.211
6594.855
6592.979
6588.355
6580.708
6569.902
6555.814
6538.209
6516.895
6491.654
6462.412
6429.901
6395.097
6359.372
6323.19
6286.045
6248.83
6215.481
6189.352
6172.115
6164.605
6166.2
6174.421
6189.044
6209.147
6231.682
6253.442
6275.35
6306.6
6341.685
6377.729
6416.2
6456.083
6496.234
6535.669
6573.297
6607.99
6638.755
6664.86
6685.909
6701.858
6712.818
6718.985
6720.846
6719.357
6713.46
6703.556
6691.074
6677.978
6666.025
6656.776
6651.828
6652.579
6660.217
6674.89
6696.962
6727.303
6758.705
6783.49
6801.978
6814.808
6823.228
6812.819
6762.907
6684.045
6586.192
6478.994
6375.056
6286.895
6222.729
6183.705
6167.593
6170.318
6186.744
6211.857
6241.467
6272.419
6302.815
6331.019
6356.151
6378.085
6396.965
6412.505
6424.888
6434.241
6440.807
6444.839
6446.505
6446.014
6443.607
6439.548
6434.127
6427.655
6420.47
6412.931
6405.411
6398.285
6391.91
6386.622
6382.719
6381.167
6381.552
6384.181
6389.189
6396.597
6406.341
6418.255
6432.035
6447.435
6464.244
6482.018
6500.262
6518.542
6536.507
6553.843
6570.262
6585.519
6599.431
6611.891
6622.855
6632.318
6640.307
6646.881
6652.118
6656.102
6658.924
6660.69
6661.499
6661.459
6660.672
6659.245
6657.176
6654.546
6651.565
6648.305
6644.794
6641.076
6637.196
6633.194
6629.106
6624.964
6620.795
6616.624
6612.469
6608.348
6604.273
6600.251
6596.289
6592.388
6588.549
6584.768
6581.043
6577.372
6573.757
6570.205
6566.722
6563.314
6559.983
6556.728
6553.549
6550.446
6547.418
6544.468
6541.597
6538.807
6536.097
6533.469
6530.92
6528.449
6526.051
6523.721
6521.456
6519.248
6517.094
6514.989
6512.928
6510.905
6508.918
6506.961
6505.031
6503.126
6501.241
6499.374
6497.524
6495.687
6493.859
6492.039
6490.225
6488.417
6486.613
6484.811
6483.011
6481.211
6479.409
6477.605
6475.796
6473.981
6472.159
6470.328
6468.488
6466.636
6464.772
6462.894
6461
6459.089
6457.159
6455.208
6453.236
6451.239
6449.218
6447.169
6445.093
6442.987
6440.85
6438.68
6436.477
6434.239
6431.963
6429.649
6427.296
6424.902
6422.47
6419.998
6417.487
6414.935
6412.342
6409.707
6407.032
6404.319
6401.569
6398.785
6395.972
6393.138
6390.292
6387.449
6384.631
6381.863
6379.19
6376.645
6374.305
6372.199
6370.438
6368.981
6367.961
6367.055
3356.27
3309.414
3207.941
3174.315
3140.271
3107.521
3076.319
3046.456
3017.552
2989.387
2961.933
2933.7
2904.861
2875.177
2844.579
2812.835
2779.84
2745.441
2709.493
2672.293
2634.816
2596.248
2556.759
2516.689
2476.333
2435.721
2394.672
2353.06
2311.438
2270.486
2230.783
2193.3
2159.308
2129.388
2103.621
2082.581
2067.234
2058.36
2056.595
2062.56
2076.805
2099.856
2132.355
2174.716
2227.439
2291.005
2365.798
2452.067
2549.851
2658.935
2778.801
2908.629
3047.338
3193.357
3345.069
3500.436
3657.081
3813.185
3967.578
4118.393
4264.101
4403.143
4533.062
4651.818
4757.268
4847.208
4919.578
4972.707
5005.381
5016.817
5006.956
4976.587
4927.162
4860.811
4779.691
4686.107
4582.063
4468.763
4347.563
4219.464
4085.719
3948.27
3808.76
3668.629
3530.46
3397.529
3271.552
3152.977
3042.076
2938.072
2839.708
2746.739
2659.779
2579.78
2506.912
2440.598
2380.478
2326.87
2280.7
2243.516
2217.368
2204.129