/*--------------------------------*- C++ -*----------------------------------*\
| =========                 |                                                 |
| \\      /  F ield         | foam-extend: Open Source CFD                    |
|  \\    /   O peration     | Version:     3.1                                |
|   \\  /    A nd           | Web:         http://www.extend-project.de       |
|    \\/     M anipulation  |                                                 |
\*---------------------------------------------------------------------------*/
FoamFile
{
    version     2.0;
    format      ascii;
    class       regIOobject;
    location    "5/uniform";
    object      profilingInfo;
}
// * * * * * * * * * * * * * * * * * * * * * * * * * * * * * * * * * * * * * //

profilingInfo
(

    {
        id              19;
        parentId        17;
        description     "Foam::Time::writeObject - outputTime";
        calls           10;
        totalTime       54.55354;
        childTime       0;
        onStack         1;
    }

    {
        id              17;
        parentId        1;
        description     "Foam::Time::writeObject";
        calls           5115;
        totalTime       54.57591;
        childTime       54.55354;
        onStack         1;
    }

    {
        id              1;
        description     "application::main";
        calls           1;
        totalTime       1503.139;
        childTime       302.4433;
        onStack         1;
    }

    {
        id              6;
        parentId        1;
        description     "MULES::explicitSolve";
        calls           10230;
        totalTime       29.69501;
        childTime       0;
        onStack         0;
    }

    {
        id              5;
        parentId        4;
        description     "functionObjectList::read";
        calls           1;
        totalTime       2e-06;
        childTime       0;
        onStack         0;
    }

    {
        id              18;
        parentId        1;
        description     "functionObjects_.execute()";
        calls           5114;
        totalTime       0.019428;
        childTime       0;
        onStack         0;
    }

    {
        id              4;
        parentId        1;
        description     "functionObjects_.start()";
        calls           1;
        totalTime       1.2e-05;
        childTime       2e-06;
        onStack         0;
    }

    {
        id              7;
        parentId        1;
        description     "fvMatrix::solve_U";
        calls           5115;
        totalTime       37.82874;
        childTime       30.52187;
        onStack         0;
    }

    {
        id              15;
        parentId        1;
        description     "fvMatrix::solve_k";
        calls           5115;
        totalTime       13.38297;
        childTime       12.32702;
        onStack         0;
    }

    {
        id              13;
        parentId        1;
        description     "fvMatrix::solve_omega";
        calls           5115;
        totalTime       14.69504;
        childTime       10.33294;
        onStack         0;
    }

    {
        id              2;
        parentId        1;
        description     "fvMatrix::solve_pcorr";
        calls           1;
        totalTime       0.179072;
        childTime       0.17886;
        onStack         0;
    }

    {
        id              11;
        parentId        1;
        description     "fvMatrix::solve_pd";
        calls           20460;
        totalTime       152.0671;
        childTime       146.7827;
        onStack         0;
    }

    {
        id              8;
        parentId        7;
        description     "lduMatrix::solver_Ux";
        calls           5115;
        totalTime       10.43176;
        childTime       0;
        onStack         0;
    }

    {
        id              9;
        parentId        7;
        description     "lduMatrix::solver_Uy";
        calls           5115;
        totalTime       11.13998;
        childTime       0;
        onStack         0;
    }

    {
        id              10;
        parentId        7;
        description     "lduMatrix::solver_Uz";
        calls           5115;
        totalTime       8.950131;
        childTime       0;
        onStack         0;
    }

    {
        id              16;
        parentId        15;
        description     "lduMatrix::solver_k";
        calls           5115;
        totalTime       12.32702;
        childTime       0;
        onStack         0;
    }

    {
        id              14;
        parentId        13;
        description     "lduMatrix::solver_omega";
        calls           5115;
        totalTime       10.33294;
        childTime       0;
        onStack         0;
    }

    {
        id              3;
        parentId        2;
        description     "lduMatrix::solver_pcorr";
        calls           1;
        totalTime       0.17886;
        childTime       0;
        onStack         0;
    }

    {
        id              12;
        parentId        11;
        description     "lduMatrix::solver_pd";
        calls           20460;
        totalTime       146.7827;
        childTime       0;
        onStack         0;
    }
);


// ************************************************************************* //
