/*--------------------------------*- C++ -*----------------------------------*\
| =========                 |                                                 |
| \\      /  F ield         | foam-extend: Open Source CFD                    |
|  \\    /   O peration     | Version:     3.1                                |
|   \\  /    A nd           | Web:         http://www.extend-project.de       |
|    \\/     M anipulation  |                                                 |
\*---------------------------------------------------------------------------*/
FoamFile
{
    version     2.0;
    format      ascii;
    class       volScalarField;
    location    "10";
    object      alpha;
}
// * * * * * * * * * * * * * * * * * * * * * * * * * * * * * * * * * * * * * //

dimensions      [0 0 -1 0 0 0 0];

internalField   nonuniform List<scalar> 
2539
(
0.00536907
0.00537817
0.0053922
0.00540604
0.00541995
0.00543391
0.00544793
0.00546199
0.00547612
0.00549029
0.00550453
0.00551881
0.00553315
0.00554755
0.00556201
0.00557651
0.00559108
0.0056057
0.00562038
0.00563512
0.00564991
0.00566477
0.00567968
0.00569465
0.00570968
0.00572476
0.00573991
0.00575512
0.00577039
0.00578571
0.0058011
0.00581655
0.00583207
0.00584764
0.00586328
0.00587898
0.00589474
0.00591056
0.00592645
0.00594241
0.00595842
0.00597451
0.00599065
0.00600687
0.00602315
0.00603949
0.00605591
0.00607239
0.00608894
0.00610555
0.00612223
0.00613899
0.00615581
0.0061727
0.00618966
0.00620669
0.0062238
0.00624097
0.00625821
0.00627553
0.00629292
0.00631038
0.00632792
0.00634553
0.00636321
0.00638097
0.00639881
0.00641672
0.0064347
0.00645276
0.0064709
0.00648912
0.00650741
0.00652579
0.00654424
0.00656277
0.00658138
0.00660007
0.00661885
0.0066377
0.00665663
0.00667565
0.00669475
0.00671394
0.00673321
0.00675256
0.006772
0.00679152
0.00681113
0.00683083
0.00685061
0.00687048
0.00689044
0.00691049
0.00693063
0.00695086
0.00697117
0.00699158
0.00701209
0.00703268
0.00705337
0.00707415
0.00709503
0.007116
0.00713706
0.00715822
0.00717948
0.00720084
0.00722229
0.00724385
0.0072655
0.00728725
0.00730911
0.00733106
0.00735312
0.00737528
0.00739754
0.00741991
0.00744239
0.00746496
0.00748765
0.00751044
0.00753334
0.00755635
0.00757947
0.0076027
0.00762604
0.00764949
0.00767306
0.00769673
0.00772052
0.00774443
0.00776845
0.00779259
0.00781685
0.00784122
0.00786572
0.00789033
0.00791507
0.00793992
0.0079649
0.00799
0.00801523
0.00804058
0.00806606
0.00809167
0.0081174
0.00814326
0.00816926
0.00819538
0.00822163
0.00824802
0.00827455
0.0083012
0.008328
0.00835493
0.00838199
0.0084092
0.00843655
0.00846404
0.00849167
0.00851944
0.00854736
0.00857542
0.00860363
0.00863199
0.0086605
0.00868916
0.00871797
0.00874693
0.00877604
0.00880531
0.00883474
0.00886432
0.00889406
0.00892397
0.00895403
0.00898425
0.00901464
0.0090452
0.00907592
0.00910681
0.00913786
0.00916909
0.00920459
0.00411062
0.00412485
0.00412971
0.00413411
0.00413849
0.00414288
0.00414728
0.00415168
0.00415609
0.0041605
0.00416493
0.00416936
0.0041738
0.00417824
0.00418269
0.00418715
0.00419162
0.0041961
0.00420058
0.00420507
0.00420956
0.00421407
0.00421858
0.0042231
0.00422762
0.00423216
0.0042367
0.00424125
0.00424581
0.00425037
0.00425494
0.00425952
0.00426411
0.0042687
0.0042733
0.00427791
0.00428253
0.00428715
0.00429179
0.00429643
0.00430108
0.00430573
0.00431039
0.00431507
0.00431975
0.00432443
0.00432913
0.00433383
0.00433854
0.00434326
0.00434798
0.00435272
0.00435746
0.00436221
0.00436697
0.00437173
0.00437651
0.00438129
0.00438608
0.00439088
0.00439568
0.0044005
0.00440532
0.00441015
0.00441499
0.00441984
0.00442469
0.00442955
0.00443443
0.0044393
0.00444419
0.00444909
0.00445399
0.00445891
0.00446383
0.00446876
0.00447369
0.00447864
0.00448359
0.00448856
0.00449353
0.00449851
0.0045035
0.00450849
0.0045135
0.00451851
0.00452354
0.00452857
0.00453361
0.00453866
0.00454371
0.00454878
0.00455385
0.00455894
0.00456403
0.00456913
0.00457424
0.00457936
0.00458448
0.00458962
0.00459476
0.00459992
0.00460508
0.00461025
0.00461543
0.00462062
0.00462582
0.00463103
0.00463624
0.00464147
0.0046467
0.00465195
0.0046572
0.00466246
0.00466773
0.00467301
0.0046783
0.0046836
0.00468891
0.00469423
0.00469955
0.00470489
0.00471023
0.00471559
0.00472095
0.00472633
0.00473171
0.0047371
0.0047425
0.00474792
0.00475334
0.00475877
0.00476421
0.00476966
0.00477512
0.00478059
0.00478607
0.00479155
0.00479705
0.00480256
0.00480808
0.00481361
0.00481915
0.00482469
0.00483025
0.00483582
0.0048414
0.00484698
0.00485258
0.00485819
0.00486381
0.00486943
0.00487507
0.00488072
0.00488638
0.00489205
0.00489773
0.00490341
0.00490911
0.00491482
0.00492054
0.00492627
0.00493202
0.00493777
0.00494353
0.0049493
0.00495508
0.00496088
0.00496668
0.00497249
0.00497832
0.00498416
0.00499
0.00499586
0.00500173
0.00500761
0.0050135
0.0050194
0.00502531
0.00503123
0.00503716
0.00504311
0.00504906
0.00505503
0.00506101
0.005067
0.005073
0.00507901
0.00508503
0.00509106
0.00509711
0.00510316
0.00510923
0.00511531
0.0051214
0.0051275
0.00513361
0.00513969
0.00514684
0.00513038
0.00268103
0.00300133
0.00342042
0.00370247
0.00389392
0.00403639
0.00415158
0.00425082
0.00434021
0.00442314
0.00450158
0.00457673
0.00464937
0.00472001
0.00478903
0.0048567
0.00492323
0.00498879
0.00505351
0.00511751
0.00518088
0.00524371
0.00530605
0.00536798
0.00542954
0.0054908
0.00555178
0.00561252
0.00567308
0.00573346
0.00579371
0.00585386
0.00591392
0.00597392
0.00603388
0.00609383
0.00615377
0.00621374
0.00627374
0.0063338
0.00639393
0.00645414
0.00651445
0.00657487
0.00663542
0.00669612
0.00675696
0.00681797
0.00687916
0.00694054
0.00700213
0.00706394
0.00712597
0.00718825
0.00725078
0.00731358
0.00737667
0.00744005
0.00750374
0.00756776
0.00763212
0.00769684
0.00776193
0.00782742
0.00789331
0.00795964
0.00802642
0.00809368
0.00816143
0.00822972
0.00829856
0.008368
0.00843806
0.00850879
0.00858022
0.00865242
0.00872543
0.00879932
0.00887416
0.00895003
0.00902704
0.00910529
0.00918492
0.0092661
0.00934901
0.00943391
0.0095211
0.00961095
0.00970394
0.00980068
0.00990196
0.0100088
0.0101224
0.0102444
0.010377
0.0105224
0.0106835
0.0108634
0.0110648
0.0112895
0.0119073
0.0121928
0.0124636
0.0127218
0.0129692
0.0132072
0.0134368
0.0136591
0.0138748
0.0140845
0.0142889
0.0144884
0.0146834
0.0148744
0.0150616
0.0152453
0.0154258
0.0156033
0.0157779
0.01595
0.0161196
0.0162869
0.0164521
0.0166152
0.0167763
0.0169356
0.0170932
0.0172491
0.0174035
0.0175563
0.0177077
0.0178577
0.0180065
0.018154
0.0183002
0.0184453
0.0185894
0.0187323
0.0188742
0.0190151
0.0191551
0.0192942
0.0194324
0.0195697
0.0197061
0.0198418
0.0199767
0.0201109
0.0202443
0.020377
0.020509
0.0206403
0.020771
0.0209011
0.0210306
0.0211594
0.0212877
0.0214154
0.0215426
0.0216692
0.0217953
0.0219209
0.0220459
0.0221705
0.0222946
0.0224183
0.0225415
0.0226642
0.0227865
0.0229084
0.0230299
0.023151
0.0232716
0.0233919
0.0235118
0.0236313
0.0237504
0.0238692
0.0239876
0.0241057
0.0242234
0.0243408
0.0244579
0.0245746
0.024691
0.0248072
0.024923
0.0250385
0.0251537
0.0252686
0.0253832
0.0254975
0.0256115
0.0257252
0.025839
0.0259531
0.0260678
0.0261817
0.0262906
0.0263869
0.0264671
0.0265395
0.0266118
0.0266839
0.026756
0.0268279
0.0268997
0.0269714
0.027043
0.0271145
0.0271858
0.0272571
0.0273282
0.0273992
0.0274702
0.027541
0.0276117
0.0276823
0.0277528
0.0278232
0.0278935
0.0279637
0.0280338
0.0281038
0.0281737
0.0282435
0.0283132
0.0283828
0.0284523
0.0285217
0.028591
0.0286602
0.0287293
0.0287984
0.0288673
0.0289361
0.0290049
0.0290736
0.0291421
0.0292106
0.029279
0.0293473
0.0294155
0.0294836
0.0295517
0.0296196
0.0296875
0.0297553
0.029823
0.0298906
0.0299581
0.0300256
0.0300929
0.0301602
0.0302274
0.0302945
0.0303616
0.0304285
0.0304954
0.0305622
0.0306289
0.0306955
0.0307621
0.0308285
0.0308949
0.0309613
0.0310275
0.0310937
0.0311598
0.0312258
0.0312917
0.0313576
0.0314234
0.0314891
0.0315547
0.0316203
0.0316858
0.0317512
0.0318166
0.0318818
0.0319471
0.0320122
0.0320772
0.0321422
0.0322072
0.032272
0.0323368
0.0324015
0.0324661
0.0325307
0.0325952
0.0326596
0.032724
0.0327883
0.0328525
0.0329167
0.0329808
0.0330448
0.0331088
0.0331727
0.0332365
0.0333003
0.033364
0.0334276
0.0334912
0.0335547
0.0336181
0.0336815
0.0337448
0.0338081
0.0338712
0.0339344
0.0339974
0.0340604
0.0341233
0.0341862
0.034249
0.0343117
0.0343744
0.0344371
0.0344996
0.0345621
0.0346245
0.0346869
0.0347492
0.0348115
0.0348737
0.0349358
0.0349979
0.0350599
0.0351219
0.0351838
0.0352456
0.0353074
0.0353691
0.0354308
0.0354924
0.0355539
0.0356154
0.0356768
0.0357382
0.0357995
0.0358608
0.035922
0.0359831
0.0360442
0.0361052
0.0361662
0.0362271
0.036288
0.0363488
0.0364095
0.0364702
0.0365308
0.0365914
0.0366519
0.0367124
0.0367728
0.0368332
0.0368935
0.0369537
0.0370139
0.0370741
0.0371342
0.0371942
0.0372542
0.0373141
0.037374
0.0374338
0.0374936
0.0375533
0.0376129
0.0376725
0.0377321
0.0377916
0.037851
0.0379104
0.0379698
0.0380291
0.0380883
0.0381475
0.0382066
0.0382657
0.0383247
0.0383837
0.0384426
0.0385015
0.0385603
0.0386191
0.0386778
0.0387365
0.0387951
0.0388537
0.0389122
0.0389706
0.0390291
0.0390874
0.0391457
0.039204
0.0392622
0.0393204
0.0393785
0.0394366
0.0394946
0.0395525
0.0396104
0.0396683
0.0397261
0.0397839
0.0398416
0.0398993
0.0399569
0.0400145
0.040072
0.0401294
0.0401869
0.0402442
0.0403016
0.0403588
0.0404161
0.0404732
0.0405304
0.0405875
0.0406445
0.0407015
0.0407584
0.0408153
0.0408722
0.0409289
0.0409857
0.0410424
0.041099
0.0411556
0.0412122
0.0412687
0.0413252
0.0413816
0.041438
0.0414943
0.0415505
0.0416068
0.0416629
0.0417191
0.0417752
0.0418312
0.0418872
0.0419431
0.041999
0.0420549
0.0421107
0.0421665
0.0422222
0.0422778
0.0423335
0.042389
0.0424446
0.0425
0.0425555
0.0426109
0.0426662
0.0427215
0.0427768
0.042832
0.0428871
0.0429422
0.0429973
0.0430523
0.0431073
0.0431623
0.0432171
0.043272
0.0433268
0.0433815
0.0434363
0.0434909
0.0435455
0.0436001
0.0436546
0.0437091
0.0437636
0.043818
0.0438723
0.0439266
0.0439809
0.0440351
0.0440893
0.0441434
0.0441975
0.0442515
0.0443055
0.0443595
0.0444134
0.0444672
0.044521
0.0445748
0.0446286
0.0446822
0.0447359
0.0447895
0.044843
0.0448965
0.04495
0.0450034
0.0450568
0.0451102
0.0451634
0.0452167
0.0452699
0.0453231
0.0453762
0.0454293
0.0454823
0.0455353
0.0455882
0.0456411
0.045694
0.0457468
0.0457996
0.0458523
0.045905
0.0459576
0.0460102
0.0460628
0.0461153
0.0461678
0.0462202
0.0462726
0.046325
0.0463773
0.0464295
0.0464817
0.0465339
0.046586
0.0466381
0.0466902
0.0467422
0.0467942
0.0468461
0.046898
0.0469498
0.0470016
0.0470533
0.047105
0.0471568
0.0472085
0.0472602
0.0473113
0.0473613
0.0474111
0.0474656
0.0475295
0.047599
0.0476684
0.0477378
0.0478071
0.0478763
0.0479455
0.0480146
0.0480837
0.0481527
0.0482217
0.0482906
0.0483595
0.0484283
0.048497
0.0485657
0.0486344
0.0487029
0.0487715
0.0488399
0.0489084
0.0489767
0.0490451
0.0491133
0.0491815
0.0492497
0.0493178
0.0493858
0.0494538
0.0495217
0.0495896
0.0496574
0.0497252
0.0497929
0.0498606
0.0499282
0.0499958
0.0500633
0.0501307
0.0501982
0.0502655
0.0503328
0.0504
0.0504672
0.0505344
0.0506014
0.0506685
0.0507355
0.0508024
0.0508693
0.0509361
0.0510028
0.0510696
0.0511362
0.0512028
0.0512694
0.0513359
0.0514023
0.0514687
0.0515351
0.0516014
0.0516676
0.0517338
0.0518
0.0518661
0.0519321
0.0519981
0.052064
0.0521299
0.0521957
0.0522615
0.0523272
0.0523929
0.0524585
0.0525241
0.0525896
0.0526551
0.0527205
0.0527859
0.0528512
0.0529165
0.0529817
0.0530469
0.053112
0.0531771
0.0532421
0.053307
0.0533719
0.0534368
0.0535016
0.0535664
0.0536311
0.0536957
0.0537603
0.0538249
0.0538894
0.0539539
0.0540183
0.0540826
0.0541469
0.0542112
0.0542754
0.0543396
0.0544037
0.0544677
0.0545317
0.0545957
0.0546596
0.0547235
0.0547873
0.054851
0.0549147
0.0549784
0.055042
0.0551056
0.0551691
0.0552325
0.0552959
0.0553593
0.0554226
0.0554859
0.0555491
0.0556123
0.0556754
0.0557384
0.0558015
0.0558644
0.0559274
0.0559902
0.056053
0.0561158
0.0561785
0.0562412
0.0563039
0.0563664
0.056429
0.0564914
0.0565539
0.0566163
0.0566786
0.0567409
0.0568031
0.0568653
0.0569275
0.0569896
0.0570516
0.0571136
0.0571756
0.0572375
0.0572993
0.0573611
0.0574229
0.0574845
0.0575462
0.0576079
0.0576698
0.0577318
0.0577926
0.057851
0.0579074
0.0579701
0.0580553
0.0581678
0.05825
0.0581452
0.057726
0.0573437
0.0583734
0.062847
0.0695727
0.0652738
0.0381571
0.0132861
0.00506445
0.00337168
0.00306042
0.00299802
0.00297734
0.00296354
0.00435016
0.00434221
0.00434936
0.00435654
0.00435371
0.00434858
0.00434309
0.00433755
0.00433233
0.00432813
0.00432531
0.00432336
0.00432176
0.00432059
0.00432044
0.00432147
0.00432318
0.00432577
0.00432913
0.00433323
0.00433844
0.0043443
0.00435104
0.00435854
0.00436661
0.00437557
0.00438556
0.00439661
0.00440872
0.00442169
0.0044353
0.00444989
0.00446558
0.00448238
0.00450013
0.00451859
0.00453806
0.00455849
0.00457972
0.00460228
0.00462634
0.0046512
0.00467709
0.00470466
0.00473356
0.00476347
0.00479472
0.00482724
0.00486083
0.0048959
0.00493259
0.00497077
0.00501024
0.00505142
0.00509451
0.00513959
0.0051865
0.00523505
0.00528561
0.00533817
0.00539259
0.00544937
0.00550877
0.00557094
0.00563574
0.00570296
0.00577284
0.0058454
0.00592127
0.00600084
0.00608436
0.00617183
0.00626316
0.00635897
0.00645946
0.00656469
0.00667541
0.00679197
0.00691461
0.00704438
0.00718215
0.00732872
0.00748454
0.00764982
0.00782572
0.00801419
0.00821688
0.00843566
0.00867372
0.00893474
0.00922315
0.00954524
0.00991167
0.0103392
0.0108574
0.0115218
0.0124373
0.0138044
0.0159881
0.0195856
0.0252452
0.0219031
0.0274645
0.0275361
0.0276075
0.0276788
0.02775
0.027821
0.027892
0.0279629
0.0280337
0.0281043
0.0281749
0.0282454
0.0283157
0.028386
0.0284562
0.0285262
0.0285962
0.0286661
0.0287358
0.0288055
0.0288751
0.0289445
0.0290139
0.0290832
0.0291524
0.0292215
0.0292905
0.0293594
0.0294282
0.0294969
0.0295655
0.0296341
0.0297025
0.0297709
0.0298391
0.0299073
0.0299754
0.0300434
0.0301113
0.0301791
0.0302468
0.0303145
0.030382
0.0304495
0.0305168
0.0305841
0.0306513
0.0307185
0.0307855
0.0308524
0.0309193
0.0309861
0.0310528
0.0311194
0.0311859
0.0312523
0.0313187
0.031385
0.0314512
0.0315173
0.0315833
0.0316492
0.0317151
0.0317809
0.0318466
0.0319122
0.0319778
0.0320432
0.0321086
0.0321739
0.0322391
0.0323043
0.0323694
0.0324344
0.0324993
0.0325641
0.0326289
0.0326936
0.0327582
0.0328227
0.032887
0.0329511
0.0330152
0.0330801
0.033147
0.0332153
0.0332791
0.0333255
0.0333456
0.0333522
0.0333589
0.0333655
0.0333721
0.0333787
0.0333853
0.0333919
0.0333985
0.033405
0.0334116
0.0334181
0.0334246
0.0334311
0.0334376
0.0334441
0.0334505
0.033457
0.0334634
0.0334698
0.0334762
0.0334826
0.033489
0.0334954
0.0335017
0.033508
0.0335144
0.0335207
0.033527
0.0335333
0.0335396
0.0335458
0.0335521
0.0335583
0.0335645
0.0335707
0.0335769
0.0335831
0.0335893
0.0335955
0.0336016
0.0336078
0.0336139
0.03362
0.0336261
0.0336322
0.0336383
0.0336443
0.0336504
0.0336564
0.0336625
0.0336685
0.0336745
0.0336805
0.0336865
0.0336924
0.0336984
0.0337043
0.0337103
0.0337162
0.0337221
0.033728
0.0337339
0.0337398
0.0337457
0.0337515
0.0337574
0.0337632
0.033769
0.0337749
0.0337807
0.0337865
0.0337923
0.033798
0.0338038
0.0338096
0.0338153
0.0338211
0.0338268
0.0338326
0.0338383
0.033844
0.0338497
0.0338554
0.0338611
0.0338668
0.0338725
0.0338782
0.0338839
0.0338896
0.0338953
0.0339009
0.0339066
0.0339123
0.033918
0.0339236
0.0339293
0.033935
0.0339406
0.0339463
0.0339519
0.0339576
0.0339633
0.0339689
0.0339746
0.0339803
0.0339859
0.0339916
0.0339973
0.0340029
0.0340086
0.0340143
0.03402
0.0340256
0.0340313
0.034037
0.0340426
0.0340483
0.034054
0.0340596
0.0340653
0.0340709
0.0340766
0.0340822
0.0340879
0.0340935
0.0340991
0.0341048
0.0341104
0.034116
0.0341216
0.0341272
0.0341328
0.0341384
0.0341439
0.0341495
0.034155
0.0341606
0.0341661
0.0341716
0.0341771
0.0341826
0.034188
0.0341935
0.0341989
0.0342044
0.0342098
0.0342152
0.0342205
0.0342259
0.0342313
0.0342366
0.0342419
0.0342472
0.0342525
0.0342577
0.034263
0.0342682
0.0342734
0.0342785
0.0342837
0.0342888
0.034294
0.034299
0.0343041
0.0343092
0.0343142
0.0343193
0.0343243
0.0343292
0.0343337
0.0343379
0.0343425
0.0343502
0.0343634
0.034378
0.0343715
0.034305
0.0341743
0.0341363
0.0346214
0.0360986
0.037816
0.0356661
0.0253407
0.0125732
0.00557969
0.00335945
0.00284763
0.00274909
0.0027294
0.00272345
0.00271983
0.00271662
0.00271348
0.00271036
0.00270725
0.00270416
0.00270106
0.00269798
0.0026949
0.00269184
0.00268878
0.00268572
0.00268268
0.00267964
0.00267661
0.00267359
0.00267058
0.00266757
0.00266458
0.00266159
0.0026586
0.00265563
0.00265266
0.0026497
0.00264675
0.0026438
0.00264087
0.00263794
0.00263502
0.0026321
0.0026292
0.0026263
0.0026234
0.00262052
0.00261764
0.00261477
0.00261191
0.00260906
0.00260621
0.00260337
0.00260054
0.00259772
0.0025949
0.00259209
0.00258929
0.0025865
0.00258371
0.00258093
0.00257816
0.0025754
0.00257264
0.00256989
0.00256715
0.00256442
0.00256169
0.00255898
0.00255627
0.00255356
0.00255087
0.00254818
0.0025455
0.00254283
0.00254017
0.00253751
0.00253487
0.00253223
0.00252959
0.00252697
0.00252436
0.00252175
0.00251915
0.00251656
0.00251397
0.0025114
0.00250883
0.00250627
0.00250372
0.00250118
0.00249864
0.00249612
0.0024936
0.00249109
0.00248859
0.0024861
0.00248361
0.00248114
0.00247867
0.00247621
0.00247376
0.00247132
0.00246889
0.00246646
0.00246404
0.00246164
0.00245924
0.00245685
0.00245447
0.00245209
0.00244973
0.00244738
0.00244503
0.00244269
0.00244036
0.00243804
0.00243573
0.00243343
0.00243114
0.00242885
0.00242662
0.00242488
0.00242433
0.0024246
0.00242497
0.00242536
0.00242576
0.00242616
0.00242656
0.00242697
0.00242739
0.00242781
0.00242823
0.00242867
0.0024291
0.00242955
0.00243
0.00243045
0.00243091
0.00243138
0.00243186
0.00243234
0.00243283
0.00243332
0.00243382
0.00243433
0.00243484
0.00243536
0.00243589
0.00243643
0.00243697
0.00243752
0.00243807
0.00243864
0.00243921
0.00243978
0.00244037
0.00244096
0.00244156
0.00244217
0.00244279
0.00244341
0.00244404
0.00244468
0.00244533
0.00244598
0.00244664
0.00244731
0.00244799
0.00244868
0.00244937
0.00245007
0.00245078
0.0024515
0.00245223
0.00245296
0.0024537
0.00245445
0.00245521
0.00245598
0.00245675
0.00245754
0.00245833
0.00245913
0.00245993
0.00246075
0.00246157
0.0024624
0.00246324
0.00246409
0.00246495
0.00246581
0.00246669
0.00246757
0.00246846
0.00246936
0.00247027
0.00247118
0.00247211
0.00247304
0.00247398
0.00247493
0.00247589
0.00247685
0.00247783
0.00247881
0.00247981
0.00248081
0.00248182
0.00248284
0.00248387
0.0024849
0.00248595
0.002487
0.00248807
0.00248914
0.00249022
0.00249132
0.00249242
0.00249353
0.00249465
0.00249578
0.00249691
0.00249806
0.00249922
0.00250039
0.00250157
0.00250275
0.00250395
0.00250516
0.00250638
0.0025076
0.00250884
0.00251009
0.00251135
0.00251262
0.0025139
0.00251519
0.00251649
0.0025178
0.00251912
0.00252045
0.0025218
0.00252315
0.00252452
0.00252589
0.00252728
0.00252868
0.00253009
0.00253151
0.00253295
0.00253439
0.00253585
0.00253731
0.00253879
0.00254028
0.00254179
0.0025433
0.00254483
0.00254637
0.00254792
0.00254948
0.00255105
0.00255264
0.00255424
0.00255585
0.00255747
0.0025591
0.00256075
0.00256241
0.00256408
0.00256577
0.00256746
0.00256917
0.00257089
0.00257263
0.00257437
0.00257613
0.0025779
0.00257968
0.00258148
0.00258329
0.00258511
0.00258694
0.00258879
0.00259065
0.00259252
0.0025944
0.0025963
0.0025982
0.00260012
0.00260206
0.002604
0.00260596
0.00260793
0.00260991
0.00261191
0.00261392
0.00261594
0.00261797
0.00262001
0.00262207
0.00262414
0.00262622
0.00262831
0.00263041
0.00263253
0.00263466
0.0026368
0.00263895
0.00264112
0.0026433
0.00264548
0.00264768
0.0026499
0.00265212
0.00265436
0.0026566
0.00265886
0.00266113
0.00266341
0.00266571
0.00266801
0.00267033
0.00267265
0.00267499
0.00267734
0.0026797
0.00268207
0.00268445
0.00268685
0.00268925
0.00269167
0.00269409
0.00269653
0.00269897
0.00270143
0.0027039
0.00270638
0.00270887
0.00271136
0.00271387
0.00271639
0.00271892
0.00272146
0.00272401
0.00272657
0.00272914
0.00273172
0.00273431
0.00273691
0.00273952
0.00274213
0.00274476
0.0027474
0.00275004
0.0027527
0.00275536
0.00275804
0.00276072
0.00276341
0.00276611
0.00276882
0.00277154
0.00277427
0.00277701
0.00277975
0.0027825
0.00278527
0.00278804
0.00279082
0.0027936
0.0027964
0.0027992
0.00280201
0.00280483
0.00280766
0.0028105
0.00281334
0.00281619
0.00281905
0.00282192
0.0028248
0.00282768
0.00283057
0.00283347
0.00283637
0.00283929
0.00284221
0.00284513
0.00284807
0.00285101
0.00285396
0.00285691
0.00285987
0.00286284
0.00286582
0.0028688
0.00287179
0.00287479
0.00287779
0.0028808
0.00288382
0.00288684
0.00288987
0.0028929
0.00289595
0.00289899
0.00290205
0.00290511
0.00290817
0.00291124
0.00291432
0.00291741
0.0029205
0.00292359
0.00292669
0.0029298
0.00293291
0.00293603
0.00293915
0.00294228
0.00294541
0.00294855
0.0029517
0.00295485
0.002958
0.00296116
0.00296433
0.0029675
0.00297067
0.00297385
0.00297704
0.00298023
0.00298342
0.00298662
0.00298982
0.00299303
0.00299624
0.00299946
0.00300268
0.00300591
0.00300914
0.00301237
0.00301561
0.00301885
0.0030221
0.00302535
0.0030286
0.00303186
0.00303512
0.00303839
0.00304166
0.00304493
0.00304821
0.00305149
0.00305478
0.00305806
0.00306136
0.00306465
0.00306795
0.00307125
0.00307455
0.00307786
0.00308117
0.00308449
0.0030878
0.00309112
0.00309444
0.00309777
0.0031011
0.00310443
0.00310776
0.0031111
0.00311444
0.00311778
0.00312112
0.00312447
0.00312781
0.00313116
0.00313452
0.00313787
0.00314123
0.00314459
0.00314795
0.00315131
0.00315468
0.00315804
0.00316141
0.00316478
0.00316815
0.00317152
0.0031749
0.00317828
0.00318165
0.00318503
0.00318841
0.00319179
0.00319518
0.00319856
0.00320194
0.00320533
0.00320872
0.0032121
0.00321549
0.00321888
0.00322227
0.00322566
0.00322905
0.00323245
0.00323584
0.00323923
0.00324262
0.00324602
0.00324941
0.0032528
0.0032562
0.00325959
0.00326298
0.00326637
0.00326977
0.00327316
0.00327655
0.00327994
0.00328333
0.00328672
0.0032901
0.00329349
0.00329688
0.00330026
0.00330364
0.00330702
0.0033104
0.00331378
0.00331715
0.00332052
0.00332389
0.00332726
0.00333062
0.00333398
0.00333734
0.00334069
0.00334404
0.00334739
0.00335073
0.00335407
0.0033574
0.00336073
0.00336405
0.00336736
0.00337067
0.00337398
0.00337728
0.00338057
0.00338385
0.00338712
0.00339039
0.00339365
0.0033969
0.00340014
0.00340337
0.00340659
0.0034098
0.003413
0.00341619
0.00341937
0.00342253
0.00342568
0.00342882
0.00343194
0.00343505
0.00343814
0.00344122
0.00344428
0.00344733
0.00345036
0.00345337
0.00345636
0.00345933
0.00346229
0.00346522
0.00346813
0.00347102
0.00347389
0.00347674
0.00347956
0.00348236
0.00348513
0.00348788
0.0034906
0.00349329
0.00349596
0.0034986
0.0035012
0.00350378
0.00350633
0.00350885
0.00351134
0.00351379
0.00351622
0.0035186
0.00352096
0.00352328
0.00352556
0.00352781
0.00353002
0.0035322
0.00353433
0.00353643
0.00353849
0.00354051
0.0035425
0.00354444
0.00354634
0.0035482
0.00355002
0.0035518
0.00355353
0.00355523
0.00355688
0.00355849
0.00356006
0.00356159
0.00356307
0.00356451
0.00356591
0.00356727
0.00356859
0.00356987
0.0035711
0.0035723
0.00357345
0.00357457
0.00357565
0.00357668
0.00357769
0.00357865
0.00357958
0.00358047
0.00358133
0.00358216
0.00358296
0.00358372
0.00358445
0.00358516
0.00358584
0.00358649
0.00358712
0.00358773
0.00358831
0.00358887
0.00358942
0.00358995
0.00359046
0.00359096
0.00359144
0.00359192
0.00359238
0.00359284
0.00359329
0.00359374
0.00359418
0.00359463
0.00359507
0.00359551
0.00359596
0.00359641
0.00359687
0.00359733
0.0035978
0.00359828
0.00359877
0.00359928
0.00359979
0.00360032
0.00360087
0.00360143
0.003602
0.0036026
0.00360321
0.00360384
0.00360449
0.00360516
0.00360584
0.00360655
0.00360728
0.00360803
0.00360879
0.00360958
0.00361039
0.00361121
0.00361206
0.00361293
0.00361381
0.00361471
0.00361563
0.00361657
0.00361752
0.00361849
0.00361947
0.00362047
0.00362148
0.0036225
0.00362353
0.00362457
0.00362562
0.00362668
0.00362774
0.0036288
0.00362987
0.00363094
0.00363201
0.00363307
0.00363413
0.00363519
0.00363624
0.00363728
0.00363831
0.00363932
0.00364033
0.00364131
0.00364228
0.00364322
0.00364415
0.00364505
0.00364592
0.00364676
0.00364757
0.00364835
0.00364909
0.00364979
0.00365045
0.00365108
0.00365165
0.00365218
0.00365266
0.00365308
0.00365346
0.00365377
0.00365403
0.00365423
0.00365436
0.00365443
0.00365442
0.00365435
0.00365421
0.00365399
0.0036537
0.00365333
0.00365288
0.00365234
0.00365172
0.00365102
0.00365023
0.00364935
0.00364838
0.00364732
0.00364616
0.00364492
0.00364358
0.00364214
0.00364061
0.00363898
0.00363725
0.00363543
0.00363352
0.0036315
0.00362939
0.00362719
0.00362489
0.0036225
0.00362002
0.00361744
0.00361478
0.00361203
0.00360919
0.00360627
0.00360327
0.00360019
0.00359703
0.0035938
0.0035905
0.00358713
0.00358369
0.0035802
0.00357664
0.00357303
0.00356937
0.00356567
0.00356191
0.00355812
0.00355429
0.00355042
0.00354653
0.0035426
0.00353866
0.00353469
0.00353071
0.00352672
0.00352271
0.0035187
0.00351468
0.00351067
0.00350665
0.00350264
0.00349864
0.00349465
0.00349067
0.0034867
0.00348275
0.00347882
0.00347491
0.00347101
0.00346715
0.0034633
0.00345949
0.0034557
0.00345194
0.0034482
0.0034445
0.00344083
0.00343719
0.00343358
0.00343
0.00342646
0.00342295
0.00341947
0.00341602
0.00341261
0.00340923
0.00340589
0.00340257
0.00339929
0.00339605
0.00339283
0.00338965
0.0033865
0.00338338
0.00338029
0.00337723
0.00337421
0.00337121
0.00336824
0.0033653
0.00336239
0.00335951
0.00335666
0.00335383
0.00335103
0.00334826
0.00334551
0.00334279
0.00334009
0.00333742
0.00333477
0.00333214
0.00332954
0.00332696
0.0033244
0.00332186
0.00331935
0.00331685
0.00331438
0.00331192
0.00330949
0.00330707
0.00330467
0.00330229
0.00329993
0.00329759
0.00329526
0.00329295
0.00329066
0.00328838
0.00328612
0.00328388
0.00328165
0.00327943
0.00327723
0.00327505
0.00327287
0.00327072
0.00326857
0.00326644
0.00326433
0.00326222
0.00326013
0.00325805
0.00325599
0.00325393
0.00325189
0.00324986
0.00324784
0.00324584
0.00324384
0.00324185
0.00323988
0.00323792
0.00323597
0.00323402
0.00323209
0.00323017
0.00322826
0.00322636
0.00322447
0.00322259
0.00322072
0.00321886
0.00321701
0.00321516
0.00321333
0.00321151
0.00320969
0.00320789
0.00320609
0.00320431
0.00320253
0.00320076
0.003199
0.00319725
0.00319551
0.00319377
0.00319205
0.00319034
0.00318863
0.00318693
0.00318524
0.00318356
0.00318189
0.00318023
0.00317857
0.00317693
0.00317529
0.00317366
0.00317204
0.00317043
0.00316882
0.00316723
0.00316564
0.00316407
0.0031625
0.00316093
0.00315938
0.00315784
0.0031563
0.00315477
0.00315325
0.00315174
0.00315024
0.00314874
0.00314725
0.00314577
0.0031443
0.00314284
0.00314138
0.00313993
0.00313849
0.00313705
0.00313563
0.00313421
0.00313279
0.00313139
0.00312999
0.00312859
0.00312721
0.00312583
0.00312445
0.00312308
0.00312172
0.00312036
0.00311901
0.00311767
0.00311633
0.00311499
0.00311366
0.00311233
0.00311101
0.00310969
0.00310838
0.00310707
0.00310576
0.00310446
0.00310316
0.00310186
0.00310057
0.00309928
0.00309799
0.0030967
0.00309542
0.00309413
0.00309285
0.00309158
0.0030903
0.00308902
0.00308775
0.00308648
0.00308521
0.00308394
0.00308267
0.0030814
0.00308013
0.00307886
0.00307759
0.00307633
0.00307506
0.0030738
0.00307253
0.00307127
0.00307
0.00306874
0.00306747
0.00306621
0.00306495
0.00306368
0.00306242
0.00306116
0.0030599
0.00305864
0.00305737
0.00305611
0.00305485
0.00305359
0.00305233
0.00305108
0.00304982
0.00304856
0.00304731
0.00304605
0.0030448
0.00304355
0.00304229
0.00304104
0.00303979
0.00303855
0.0030373
0.00303606
0.00303481
0.00303357
0.00303233
0.00303109
0.00302986
0.00302862
0.00302739
0.00302616
0.00302493
0.0030237
0.00302248
0.00302126
0.00302004
0.00301882
0.00301761
0.00301639
0.00301518
0.00301398
0.00301285
)
;

boundaryField
{
    inlet
    {
        type            calculated;
        value           uniform 0.00537033;
    }
    outlet
    {
        type            calculated;
        value           uniform 0.00301285;
    }
    right
    {
        type            empty;
    }
    left
    {
        type            empty;
    }
    atmosphere
    {
        type            empty;
    }
    bottomWall
    {
        type            empty;
    }
}


// ************************************************************************* //
