/*--------------------------------*- C++ -*----------------------------------*\
| =========                 |                                                 |
| \\      /  F ield         | foam-extend: Open Source CFD                    |
|  \\    /   O peration     | Version:     3.1                                |
|   \\  /    A nd           | Web:         http://www.extend-project.de       |
|    \\/     M anipulation  |                                                 |
\*---------------------------------------------------------------------------*/
FoamFile
{
    version     2.0;
    format      ascii;
    class       volScalarField;
    location    "10";
    object      H;
}
// * * * * * * * * * * * * * * * * * * * * * * * * * * * * * * * * * * * * * //

dimensions      [0 1 0 0 0 0 0];

internalField   nonuniform List<scalar> 
2539
(
0.86533
0.864621
0.863683
0.862756
0.861829
0.860901
0.859972
0.859044
0.858115
0.857187
0.856258
0.855328
0.854399
0.853469
0.852539
0.851609
0.850679
0.849748
0.848818
0.847887
0.846956
0.846024
0.845093
0.844161
0.843229
0.842296
0.841364
0.840431
0.839498
0.838565
0.837632
0.836698
0.835764
0.83483
0.833895
0.832961
0.832026
0.831091
0.830155
0.82922
0.828284
0.827348
0.826411
0.825475
0.824538
0.823601
0.822663
0.821726
0.820788
0.81985
0.818911
0.817973
0.817034
0.816095
0.815155
0.814215
0.813275
0.812335
0.811394
0.810454
0.809513
0.808571
0.807629
0.806687
0.805745
0.804803
0.80386
0.802917
0.801973
0.80103
0.800086
0.799141
0.798197
0.797252
0.796307
0.795361
0.794415
0.793469
0.792523
0.791576
0.790629
0.789681
0.788734
0.787786
0.786837
0.785889
0.78494
0.78399
0.783041
0.782091
0.78114
0.78019
0.779239
0.778287
0.777335
0.776383
0.775431
0.774478
0.773525
0.772572
0.771618
0.770664
0.769709
0.768754
0.767799
0.766843
0.765887
0.764931
0.763974
0.763016
0.762059
0.761101
0.760143
0.759184
0.758225
0.757265
0.756305
0.755345
0.754384
0.753423
0.752461
0.751499
0.750537
0.749574
0.74861
0.747647
0.746683
0.745718
0.744753
0.743788
0.742822
0.741855
0.740888
0.739921
0.738953
0.737985
0.737017
0.736048
0.735078
0.734108
0.733137
0.732166
0.731195
0.730223
0.72925
0.728277
0.727304
0.72633
0.725356
0.724381
0.723405
0.722429
0.721452
0.720475
0.719498
0.71852
0.717541
0.716562
0.715582
0.714602
0.713621
0.71264
0.711658
0.710675
0.709692
0.708708
0.707724
0.706739
0.705754
0.704768
0.703781
0.702794
0.701806
0.700818
0.699829
0.698839
0.697849
0.696858
0.695866
0.694874
0.693881
0.692888
0.691894
0.690899
0.689673
0.688312
0.687507
0.687186
0.68689
0.686595
0.686299
0.686004
0.685709
0.685413
0.685118
0.684822
0.684527
0.684231
0.683935
0.68364
0.683344
0.683048
0.682752
0.682456
0.68216
0.681864
0.681568
0.681272
0.680976
0.68068
0.680383
0.680087
0.679791
0.679494
0.679198
0.678901
0.678605
0.678308
0.678011
0.677715
0.677418
0.677121
0.676824
0.676527
0.67623
0.675933
0.675636
0.675339
0.675042
0.674745
0.674448
0.67415
0.673853
0.673556
0.673258
0.672961
0.672663
0.672365
0.672068
0.67177
0.671472
0.671175
0.670877
0.670579
0.670281
0.669983
0.669685
0.669387
0.669088
0.66879
0.668492
0.668194
0.667895
0.667597
0.667298
0.667
0.666701
0.666403
0.666104
0.665805
0.665506
0.665208
0.664909
0.66461
0.664311
0.664012
0.663713
0.663414
0.663114
0.662815
0.662516
0.662216
0.661917
0.661618
0.661318
0.661018
0.660719
0.660419
0.660119
0.65982
0.65952
0.65922
0.65892
0.65862
0.65832
0.65802
0.65772
0.657419
0.657119
0.656819
0.656518
0.656218
0.655917
0.655617
0.655316
0.655016
0.654715
0.654414
0.654113
0.653813
0.653512
0.653211
0.65291
0.652608
0.652307
0.652006
0.651705
0.651403
0.651102
0.650801
0.650499
0.650198
0.649896
0.649594
0.649292
0.648991
0.648689
0.648387
0.648085
0.647783
0.647481
0.647179
0.646876
0.646574
0.646272
0.64597
0.645667
0.645365
0.645062
0.644759
0.644457
0.644154
0.643851
0.643548
0.643245
0.642942
0.642639
0.642336
0.642033
0.64173
0.641426
0.641123
0.64082
0.640516
0.640213
0.639909
0.639605
0.639301
0.638998
0.638694
0.63839
0.638086
0.637782
0.637478
0.637173
0.636869
0.636565
0.63626
0.635956
0.635651
0.635347
0.635042
0.634737
0.634432
0.634128
0.633823
0.633518
0.633213
0.632907
0.632602
0.632297
0.631992
0.631686
0.631381
0.631075
0.630769
0.630464
0.630158
0.629852
0.629546
0.62924
0.628934
0.628632
0.628227
0.630151
0.6049
0.579362
0.550852
0.534143
0.523542
0.515969
0.510026
0.505037
0.50065
0.496675
0.492999
0.489555
0.486297
0.483193
0.480221
0.477364
0.474608
0.471943
0.469359
0.466849
0.464407
0.462027
0.459705
0.457436
0.455216
0.453043
0.450913
0.448823
0.446772
0.444758
0.442777
0.440829
0.438912
0.437024
0.435164
0.433331
0.431522
0.429739
0.427978
0.42624
0.424522
0.422826
0.421149
0.41949
0.41785
0.416227
0.414621
0.413032
0.411457
0.409898
0.408353
0.406822
0.405304
0.403799
0.402306
0.400826
0.399356
0.397898
0.39645
0.395012
0.393584
0.392166
0.390756
0.389354
0.38796
0.386574
0.385195
0.383822
0.382455
0.381094
0.379738
0.378386
0.377038
0.375693
0.374351
0.37301
0.37167
0.37033
0.368989
0.367646
0.366298
0.364945
0.363585
0.362215
0.360832
0.359434
0.358015
0.356571
0.355096
0.35358
0.352014
0.350384
0.348674
0.346863
0.344928
0.34284
0.340571
0.338093
0.335389
0.332462
0.324874
0.321652
0.318689
0.315944
0.313385
0.310987
0.308728
0.306593
0.304566
0.302637
0.300795
0.299033
0.297343
0.295718
0.294153
0.292644
0.291187
0.289776
0.28841
0.287085
0.285799
0.284549
0.283333
0.282148
0.280994
0.279869
0.27877
0.277697
0.276649
0.275623
0.27462
0.273637
0.272675
0.271732
0.270808
0.269901
0.269011
0.268137
0.267279
0.266436
0.265607
0.264793
0.263991
0.263203
0.262428
0.261664
0.260912
0.260172
0.259443
0.258724
0.258016
0.257317
0.256629
0.25595
0.25528
0.254619
0.253966
0.253322
0.252687
0.252059
0.251439
0.250827
0.250222
0.249625
0.249034
0.24845
0.247873
0.247303
0.246739
0.246181
0.24563
0.245084
0.244544
0.244011
0.243482
0.242959
0.242442
0.241929
0.241422
0.24092
0.240423
0.239931
0.239444
0.238961
0.238483
0.238009
0.23754
0.237075
0.236614
0.236157
0.235705
0.235257
0.234813
0.234372
0.233934
0.233497
0.233061
0.232633
0.232233
0.231889
0.231601
0.231335
0.23107
0.230807
0.230545
0.230284
0.230025
0.229768
0.229512
0.229257
0.229004
0.228751
0.228501
0.228251
0.228003
0.227756
0.227511
0.227267
0.227024
0.226782
0.226541
0.226302
0.226064
0.225827
0.225592
0.225357
0.225124
0.224892
0.224661
0.224431
0.224202
0.223974
0.223748
0.223523
0.223298
0.223075
0.222853
0.222632
0.222412
0.222192
0.221974
0.221757
0.221542
0.221327
0.221113
0.2209
0.220688
0.220476
0.220266
0.220057
0.219849
0.219642
0.219436
0.21923
0.219026
0.218822
0.218619
0.218418
0.218217
0.218017
0.217818
0.217619
0.217422
0.217225
0.21703
0.216835
0.216641
0.216448
0.216255
0.216064
0.215873
0.215683
0.215494
0.215305
0.215118
0.214931
0.214745
0.21456
0.214375
0.214191
0.214008
0.213826
0.213645
0.213464
0.213284
0.213105
0.212926
0.212748
0.212571
0.212394
0.212219
0.212043
0.211869
0.211695
0.211522
0.21135
0.211178
0.211007
0.210837
0.210667
0.210498
0.21033
0.210162
0.209995
0.209828
0.209663
0.209497
0.209333
0.209169
0.209005
0.208843
0.208681
0.208519
0.208358
0.208198
0.208038
0.207879
0.20772
0.207562
0.207405
0.207248
0.207092
0.206936
0.206781
0.206626
0.206472
0.206319
0.206166
0.206013
0.205862
0.20571
0.205559
0.205409
0.20526
0.20511
0.204962
0.204814
0.204666
0.204519
0.204372
0.204226
0.204081
0.203936
0.203791
0.203647
0.203503
0.20336
0.203218
0.203075
0.202934
0.202793
0.202652
0.202512
0.202372
0.202233
0.202094
0.201956
0.201818
0.20168
0.201543
0.201407
0.201271
0.201135
0.201
0.200866
0.200731
0.200597
0.200464
0.200331
0.200199
0.200066
0.199935
0.199804
0.199673
0.199542
0.199412
0.199283
0.199154
0.199025
0.198897
0.198769
0.198641
0.198514
0.198387
0.198261
0.198135
0.19801
0.197885
0.19776
0.197636
0.197512
0.197388
0.197265
0.197142
0.19702
0.196898
0.196776
0.196655
0.196534
0.196413
0.196293
0.196173
0.196054
0.195935
0.195816
0.195698
0.19558
0.195462
0.195345
0.195228
0.195112
0.194995
0.194879
0.194764
0.194649
0.194534
0.194419
0.194305
0.194191
0.194078
0.193965
0.193852
0.19374
0.193627
0.193516
0.193404
0.193293
0.193182
0.193072
0.192961
0.192852
0.192742
0.192633
0.192524
0.192415
0.192307
0.192199
0.192091
0.191984
0.191877
0.19177
0.191664
0.191558
0.191452
0.191346
0.191241
0.191136
0.191032
0.190927
0.190823
0.19072
0.190616
0.190513
0.19041
0.190307
0.190205
0.190103
0.190001
0.1899
0.189799
0.189698
0.189597
0.189497
0.189397
0.189297
0.189198
0.189099
0.189
0.188901
0.188803
0.188704
0.188607
0.188509
0.188412
0.188315
0.188218
0.188121
0.188025
0.187929
0.187833
0.187738
0.187643
0.187548
0.187453
0.187358
0.187264
0.18717
0.187077
0.186983
0.18689
0.186797
0.186704
0.186612
0.18652
0.186428
0.186336
0.186244
0.186153
0.186062
0.185971
0.185881
0.185791
0.185701
0.185611
0.185521
0.185432
0.185343
0.185254
0.185165
0.185077
0.184989
0.184901
0.184813
0.184725
0.184638
0.184551
0.184464
0.184378
0.184291
0.184205
0.184119
0.184034
0.183948
0.183863
0.183778
0.183693
0.183608
0.183524
0.18344
0.183356
0.183272
0.183188
0.183105
0.183022
0.182939
0.182856
0.182774
0.182692
0.182609
0.182528
0.182446
0.182365
0.182283
0.182202
0.182121
0.18204
0.181961
0.181884
0.181805
0.181717
0.181614
0.181505
0.181396
0.181288
0.18118
0.181072
0.180965
0.180857
0.180751
0.180644
0.180538
0.180432
0.180327
0.180221
0.180116
0.180012
0.179907
0.179803
0.1797
0.179596
0.179493
0.17939
0.179288
0.179185
0.179084
0.178982
0.178881
0.178779
0.178679
0.178578
0.178478
0.178378
0.178278
0.178179
0.17808
0.177981
0.177883
0.177784
0.177686
0.177589
0.177491
0.177394
0.177297
0.177201
0.177104
0.177008
0.176913
0.176817
0.176722
0.176627
0.176532
0.176438
0.176343
0.176249
0.176156
0.176062
0.175969
0.175876
0.175783
0.175691
0.175599
0.175507
0.175415
0.175324
0.175233
0.175142
0.175051
0.174961
0.17487
0.17478
0.174691
0.174601
0.174512
0.174423
0.174334
0.174246
0.174157
0.174069
0.173982
0.173894
0.173807
0.17372
0.173633
0.173546
0.17346
0.173373
0.173287
0.173202
0.173116
0.173031
0.172946
0.172861
0.172776
0.172692
0.172608
0.172524
0.17244
0.172356
0.172273
0.17219
0.172107
0.172024
0.171942
0.17186
0.171778
0.171696
0.171614
0.171533
0.171452
0.171371
0.17129
0.171209
0.171129
0.171049
0.170969
0.170889
0.170809
0.17073
0.170651
0.170572
0.170493
0.170414
0.170336
0.170258
0.17018
0.170102
0.170025
0.169947
0.16987
0.169793
0.169716
0.169639
0.169563
0.169487
0.169411
0.169335
0.169259
0.169184
0.169108
0.169033
0.168958
0.168884
0.168809
0.168735
0.16866
0.168586
0.168513
0.168439
0.168365
0.168292
0.168219
0.168146
0.168073
0.168001
0.167928
0.167855
0.167783
0.167712
0.167645
0.16758
0.167502
0.167391
0.167253
0.16719
0.167419
0.16803
0.168314
0.1662
0.159892
0.153906
0.164564
0.219813
0.353585
0.518632
0.600285
0.620779
0.625413
0.627177
0.628462
0.629773
0.629941
0.629458
0.629212
0.629456
0.62981
0.630181
0.630553
0.630897
0.631168
0.631359
0.631505
0.631631
0.631722
0.631741
0.631697
0.631607
0.631462
0.631274
0.631029
0.630726
0.630378
0.629976
0.629534
0.629053
0.628516
0.627917
0.627255
0.626532
0.625766
0.624959
0.624095
0.623169
0.622182
0.62115
0.620078
0.618952
0.617783
0.616569
0.615279
0.613924
0.612536
0.611089
0.609563
0.607985
0.606359
0.604676
0.602946
0.60117
0.599332
0.597429
0.595476
0.593473
0.591404
0.589264
0.587053
0.584786
0.582466
0.580081
0.57764
0.575143
0.572573
0.569924
0.567195
0.564401
0.561547
0.558634
0.555656
0.552595
0.549442
0.546197
0.54287
0.539462
0.535961
0.532372
0.528694
0.524911
0.521027
0.517036
0.512918
0.508661
0.504257
0.499715
0.495041
0.490216
0.485209
0.480008
0.474588
0.468905
0.462916
0.456575
0.449798
0.442445
0.434294
0.424952
0.413735
0.399526
0.380726
0.355687
0.324178
0.289979
0.263225
0.242977
0.242722
0.242467
0.242214
0.241962
0.241712
0.241463
0.241215
0.240969
0.240723
0.24048
0.240237
0.239995
0.239755
0.239516
0.239279
0.239042
0.238807
0.238573
0.23834
0.238108
0.237877
0.237648
0.237419
0.237192
0.236966
0.236741
0.236517
0.236294
0.236072
0.235852
0.235632
0.235413
0.235196
0.234979
0.234764
0.234549
0.234336
0.234123
0.233912
0.233701
0.233492
0.233283
0.233076
0.232869
0.232664
0.232459
0.232255
0.232052
0.231851
0.23165
0.231449
0.23125
0.231052
0.230855
0.230658
0.230462
0.230268
0.230074
0.229881
0.229689
0.229497
0.229307
0.229117
0.228928
0.22874
0.228553
0.228366
0.228181
0.227996
0.227812
0.227629
0.227446
0.227265
0.227084
0.226904
0.226724
0.226545
0.226368
0.226191
0.226015
0.22584
0.225665
0.225488
0.225305
0.225121
0.224957
0.224854
0.224821
0.224816
0.22481
0.224805
0.224799
0.224794
0.224789
0.224783
0.224778
0.224773
0.224768
0.224763
0.224757
0.224752
0.224748
0.224743
0.224738
0.224733
0.224728
0.224724
0.224719
0.224714
0.22471
0.224705
0.224701
0.224697
0.224692
0.224688
0.224684
0.22468
0.224675
0.224671
0.224667
0.224663
0.224659
0.224656
0.224652
0.224648
0.224644
0.224641
0.224637
0.224633
0.22463
0.224626
0.224623
0.224619
0.224616
0.224613
0.22461
0.224606
0.224603
0.2246
0.224597
0.224594
0.224591
0.224588
0.224585
0.224582
0.22458
0.224577
0.224574
0.224571
0.224569
0.224566
0.224564
0.224561
0.224559
0.224556
0.224554
0.224552
0.224549
0.224547
0.224545
0.224543
0.224541
0.224539
0.224536
0.224534
0.224532
0.22453
0.224528
0.224527
0.224525
0.224523
0.224521
0.224519
0.224517
0.224515
0.224514
0.224512
0.22451
0.224508
0.224507
0.224505
0.224503
0.224502
0.2245
0.224498
0.224496
0.224495
0.224493
0.224491
0.22449
0.224488
0.224486
0.224485
0.224483
0.224481
0.22448
0.224478
0.224476
0.224475
0.224473
0.224472
0.22447
0.224468
0.224467
0.224465
0.224463
0.224462
0.22446
0.224459
0.224457
0.224456
0.224454
0.224453
0.224451
0.22445
0.224448
0.224447
0.224445
0.224444
0.224443
0.224442
0.22444
0.224439
0.224438
0.224437
0.224436
0.224435
0.224434
0.224433
0.224432
0.224432
0.224431
0.22443
0.22443
0.224429
0.224429
0.224428
0.224428
0.224428
0.224428
0.224428
0.224428
0.224428
0.224428
0.224428
0.224428
0.224428
0.224429
0.224429
0.22443
0.224431
0.224431
0.224432
0.224433
0.224434
0.224435
0.224436
0.224439
0.224442
0.224443
0.224434
0.224409
0.224389
0.224452
0.224702
0.225087
0.225
0.223109
0.218658
0.215417
0.225701
0.269796
0.368931
0.508733
0.609452
0.644084
0.651655
0.653313
0.653914
0.654333
0.654722
0.655106
0.655488
0.65587
0.656252
0.656634
0.657016
0.657397
0.657779
0.65816
0.658541
0.658922
0.659303
0.659684
0.660065
0.660446
0.660826
0.661206
0.661586
0.661966
0.662346
0.662726
0.663106
0.663485
0.663865
0.664244
0.664623
0.665002
0.665381
0.665759
0.666138
0.666516
0.666894
0.667272
0.66765
0.668028
0.668406
0.668783
0.66916
0.669538
0.669915
0.670291
0.670668
0.671045
0.671421
0.671797
0.672173
0.672549
0.672925
0.673301
0.673676
0.674051
0.674426
0.674801
0.675176
0.67555
0.675925
0.676299
0.676673
0.677047
0.67742
0.677794
0.678167
0.67854
0.678913
0.679285
0.679658
0.68003
0.680401
0.680773
0.681145
0.681516
0.681887
0.682257
0.682628
0.682998
0.683367
0.683737
0.684106
0.684475
0.684844
0.685212
0.68558
0.685948
0.686315
0.686682
0.687049
0.687415
0.687781
0.688147
0.688512
0.688877
0.689242
0.689606
0.689969
0.690333
0.690696
0.691058
0.691421
0.691782
0.692144
0.692505
0.692865
0.693226
0.693585
0.693945
0.694304
0.694653
0.694914
0.695033
0.695077
0.695112
0.695145
0.695178
0.695211
0.695243
0.695275
0.695307
0.695338
0.695369
0.6954
0.69543
0.69546
0.69549
0.695519
0.695549
0.695577
0.695606
0.695634
0.695662
0.695689
0.695716
0.695743
0.69577
0.695796
0.695822
0.695847
0.695873
0.695898
0.695922
0.695947
0.695971
0.695995
0.696018
0.696041
0.696064
0.696086
0.696108
0.69613
0.696152
0.696173
0.696193
0.696214
0.696234
0.696253
0.696272
0.696291
0.69631
0.696328
0.696345
0.696363
0.696379
0.696396
0.696411
0.696427
0.696442
0.696456
0.69647
0.696483
0.696496
0.696509
0.69652
0.696531
0.696542
0.696552
0.696562
0.69657
0.696579
0.696586
0.696593
0.6966
0.696605
0.69661
0.696614
0.696618
0.696621
0.696623
0.696624
0.696625
0.696625
0.696624
0.696622
0.69662
0.696617
0.696613
0.696608
0.696602
0.696596
0.696589
0.69658
0.696571
0.696562
0.696551
0.69654
0.696527
0.696514
0.6965
0.696485
0.696469
0.696452
0.696434
0.696416
0.696396
0.696376
0.696355
0.696332
0.696309
0.696285
0.69626
0.696234
0.696208
0.69618
0.696151
0.696122
0.696091
0.69606
0.696028
0.695994
0.69596
0.695925
0.695889
0.695852
0.695814
0.695775
0.695736
0.695695
0.695653
0.695611
0.695567
0.695523
0.695478
0.695432
0.695385
0.695337
0.695288
0.695238
0.695187
0.695136
0.695083
0.69503
0.694975
0.69492
0.694864
0.694807
0.694749
0.69469
0.69463
0.69457
0.694508
0.694446
0.694383
0.694318
0.694253
0.694188
0.694121
0.694053
0.693985
0.693916
0.693845
0.693774
0.693703
0.69363
0.693556
0.693482
0.693407
0.693331
0.693254
0.693176
0.693098
0.693018
0.692938
0.692857
0.692776
0.692693
0.69261
0.692526
0.692441
0.692355
0.692269
0.692182
0.692094
0.692005
0.691915
0.691825
0.691734
0.691642
0.69155
0.691457
0.691363
0.691268
0.691173
0.691077
0.69098
0.690883
0.690784
0.690685
0.690586
0.690486
0.690385
0.690283
0.690181
0.690078
0.689975
0.68987
0.689766
0.68966
0.689554
0.689447
0.68934
0.689232
0.689124
0.689015
0.688905
0.688795
0.688684
0.688572
0.68846
0.688348
0.688234
0.688121
0.688006
0.687892
0.687776
0.68766
0.687544
0.687427
0.68731
0.687192
0.687073
0.686954
0.686835
0.686715
0.686595
0.686474
0.686353
0.686231
0.686109
0.685986
0.685863
0.685739
0.685615
0.685491
0.685366
0.685241
0.685115
0.684989
0.684863
0.684736
0.684608
0.684481
0.684353
0.684224
0.684096
0.683966
0.683837
0.683707
0.683577
0.683446
0.683315
0.683184
0.683053
0.682921
0.682789
0.682656
0.682523
0.68239
0.682257
0.682123
0.681989
0.681855
0.68172
0.681585
0.68145
0.681314
0.681179
0.681043
0.680907
0.68077
0.680633
0.680497
0.680359
0.680222
0.680084
0.679946
0.679808
0.67967
0.679532
0.679393
0.679254
0.679115
0.678975
0.678836
0.678696
0.678556
0.678416
0.678276
0.678136
0.677995
0.677855
0.677714
0.677573
0.677432
0.67729
0.677149
0.677007
0.676866
0.676724
0.676582
0.67644
0.676298
0.676155
0.676013
0.675871
0.675728
0.675585
0.675443
0.6753
0.675157
0.675014
0.674871
0.674728
0.674585
0.674442
0.674299
0.674156
0.674012
0.673869
0.673726
0.673583
0.673439
0.673296
0.673153
0.67301
0.672866
0.672723
0.67258
0.672437
0.672294
0.672151
0.672008
0.671865
0.671723
0.67158
0.671437
0.671295
0.671153
0.67101
0.670868
0.670726
0.670585
0.670443
0.670302
0.670161
0.67002
0.669879
0.669739
0.669599
0.669459
0.669319
0.66918
0.669041
0.668902
0.668764
0.668626
0.668488
0.668351
0.668214
0.668078
0.667942
0.667807
0.667672
0.667538
0.667404
0.667271
0.667139
0.667007
0.666876
0.666746
0.666616
0.666487
0.666359
0.666232
0.666105
0.66598
0.665855
0.665731
0.665608
0.665487
0.665366
0.665247
0.665128
0.665011
0.664895
0.66478
0.664667
0.664554
0.664444
0.664334
0.664226
0.66412
0.664015
0.663911
0.663809
0.663709
0.663611
0.663514
0.663419
0.663326
0.663234
0.663145
0.663057
0.662971
0.662888
0.662806
0.662727
0.662649
0.662574
0.6625
0.662429
0.66236
0.662294
0.662229
0.662167
0.662108
0.66205
0.661995
0.661942
0.661892
0.661844
0.661799
0.661756
0.661715
0.661677
0.661642
0.661609
0.661578
0.66155
0.661524
0.661501
0.661481
0.661462
0.661447
0.661434
0.661423
0.661415
0.66141
0.661406
0.661406
0.661408
0.661412
0.661419
0.661428
0.661439
0.661453
0.66147
0.661488
0.661509
0.661533
0.661558
0.661587
0.661617
0.661649
0.661684
0.661721
0.66176
0.661802
0.661846
0.661891
0.661939
0.661989
0.662041
0.662096
0.662152
0.66221
0.66227
0.662333
0.662397
0.662463
0.662531
0.662601
0.662673
0.662747
0.662823
0.6629
0.66298
0.663061
0.663144
0.663229
0.663315
0.663403
0.663493
0.663585
0.663678
0.663773
0.663869
0.663967
0.664066
0.664167
0.66427
0.664374
0.664479
0.664586
0.664694
0.664804
0.664914
0.665026
0.665139
0.665254
0.665369
0.665486
0.665603
0.665721
0.665841
0.665961
0.666082
0.666203
0.666325
0.666448
0.666571
0.666695
0.666819
0.666943
0.667068
0.667193
0.667317
0.667442
0.667567
0.667691
0.667815
0.667939
0.668062
0.668185
0.668307
0.668429
0.668549
0.668669
0.668788
0.668906
0.669023
0.669138
0.669253
0.669366
0.669477
0.669587
0.669696
0.669803
0.669908
0.670012
0.670114
0.670214
0.670312
0.670408
0.670502
0.670595
0.670685
0.670774
0.67086
0.670944
0.671027
0.671107
0.671185
0.671261
0.671335
0.671407
0.671477
0.671545
0.671612
0.671676
0.671738
0.671799
0.671858
0.671915
0.67197
0.672024
0.672076
0.672127
0.672176
0.672224
0.67227
0.672316
0.67236
0.672404
0.672446
0.672488
0.672529
0.672569
0.672609
0.672649
0.672688
0.672727
0.672766
0.672805
0.672844
0.672883
0.672923
0.672963
0.673004
0.673046
0.673089
0.673133
0.673178
0.673225
0.673273
0.673323
0.673374
0.673427
0.673483
0.673541
0.673601
0.673663
0.673729
0.673797
0.673868
0.673942
0.674019
0.6741
0.674185
0.674273
0.674365
0.674461
0.674561
0.674666
0.674775
0.674889
0.675007
0.67513
0.675259
0.675392
0.67553
0.675674
0.675824
0.675979
0.676139
0.676305
0.676478
0.676656
0.67684
0.67703
0.677226
0.677428
0.677636
0.677851
0.678072
0.678299
0.678532
0.678771
0.679016
0.679268
0.679525
0.679788
0.680058
0.680333
0.680613
0.680899
0.681191
0.681488
0.68179
0.682097
0.682409
0.682725
0.683046
0.683372
0.683701
0.684034
0.684371
0.684712
0.685055
0.685402
0.685751
0.686103
0.686458
0.686814
0.687173
0.687533
0.687895
0.688257
0.688621
0.688986
0.689352
0.689718
0.690084
0.690451
0.690817
0.691183
0.691549
0.691914
0.692279
0.692643
0.693006
0.693368
0.693728
0.694088
0.694446
0.694803
0.695158
0.695511
0.695864
0.696214
0.696562
0.696909
0.697254
0.697597
0.697939
0.698278
0.698615
0.698951
0.699285
0.699616
0.699946
0.700274
0.7006
0.700924
0.701246
0.701566
0.701884
0.702201
0.702515
0.702828
0.703139
0.703448
0.703756
0.704061
0.704365
0.704668
0.704969
0.705268
0.705565
0.705861
0.706156
0.706449
0.70674
0.70703
0.707319
0.707606
0.707892
0.708177
0.70846
0.708742
0.709023
0.709302
0.709581
0.709858
0.710134
0.710409
0.710683
0.710955
0.711227
0.711498
0.711767
0.712036
0.712304
0.71257
0.712836
0.713101
0.713365
0.713628
0.71389
0.714152
0.714412
0.714672
0.714931
0.715189
0.715446
0.715703
0.715959
0.716214
0.716468
0.716722
0.716975
0.717228
0.717479
0.71773
0.717981
0.71823
0.71848
0.718728
0.718976
0.719223
0.71947
0.719716
0.719961
0.720206
0.720451
0.720694
0.720937
0.72118
0.721422
0.721664
0.721905
0.722145
0.722385
0.722624
0.722863
0.723101
0.723339
0.723576
0.723813
0.724049
0.724285
0.72452
0.724754
0.724988
0.725222
0.725455
0.725688
0.72592
0.726151
0.726382
0.726612
0.726842
0.727072
0.727301
0.727529
0.727757
0.727984
0.728211
0.728437
0.728663
0.728888
0.729113
0.729337
0.729561
0.729784
0.730007
0.730229
0.730451
0.730672
0.730893
0.731113
0.731333
0.731552
0.731771
0.73199
0.732207
0.732425
0.732642
0.732859
0.733075
0.73329
0.733506
0.733721
0.733935
0.734149
0.734363
0.734576
0.734789
0.735002
0.735214
0.735426
0.735638
0.73585
0.736061
0.736272
0.736482
0.736693
0.736903
0.737113
0.737323
0.737532
0.737742
0.737951
0.73816
0.738369
0.738578
0.738787
0.738996
0.739205
0.739413
0.739622
0.73983
0.740039
0.740247
0.740456
0.740664
0.740872
0.741081
0.741289
0.741498
0.741706
0.741915
0.742124
0.742332
0.742541
0.74275
0.742958
0.743167
0.743376
0.743585
0.743794
0.744003
0.744212
0.744422
0.744631
0.74484
0.74505
0.745259
0.745468
0.745678
0.745887
0.746097
0.746307
0.746516
0.746726
0.746935
0.747145
0.747355
0.747564
0.747774
0.747983
0.748193
0.748402
0.748612
0.748821
0.749031
0.74924
0.749449
0.749658
0.749868
0.750077
0.750286
0.750495
0.750703
0.750912
0.751121
0.751329
0.751538
0.751746
0.751954
0.752162
0.75237
0.752577
0.752772
)
;

boundaryField
{
    inlet
    {
        type            criticalFlowDepthInlet;
        criticalH       0.38;
        value           uniform 0.865333;
    }
    outlet
    {
        type            zeroGradient;
    }
    right
    {
        type            empty;
    }
    left
    {
        type            empty;
    }
    atmosphere
    {
        type            empty;
    }
    bottomWall
    {
        type            empty;
    }
}


// ************************************************************************* //
