/*--------------------------------*- C++ -*----------------------------------*\
| =========                 |                                                 |
| \\      /  F ield         | foam-extend: Open Source CFD                    |
|  \\    /   O peration     | Version:     3.1                                |
|   \\  /    A nd           | Web:         http://www.extend-project.de       |
|    \\/     M anipulation  |                                                 |
\*---------------------------------------------------------------------------*/
FoamFile
{
    version     2.0;
    format      ascii;
    class       volScalarField;
    location    "10";
    object      nut;
}
// * * * * * * * * * * * * * * * * * * * * * * * * * * * * * * * * * * * * * //

dimensions      [0 2 -1 0 0 0 0];

internalField   nonuniform List<scalar> 
2539
(
0.0350847
0.0350818
0.0350906
0.035099
0.0351073
0.0351157
0.0351241
0.0351325
0.0351409
0.0351493
0.0351577
0.0351661
0.0351745
0.035183
0.0351914
0.0351999
0.0352083
0.0352168
0.0352253
0.0352338
0.0352423
0.0352508
0.0352593
0.0352678
0.0352764
0.0352849
0.0352935
0.035302
0.0353106
0.0353192
0.0353278
0.0353364
0.035345
0.0353536
0.0353622
0.0353709
0.0353795
0.0353882
0.0353968
0.0354055
0.0354142
0.0354229
0.0354316
0.0354403
0.035449
0.0354577
0.0354665
0.0354752
0.035484
0.0354928
0.0355016
0.0355104
0.0355192
0.035528
0.0355368
0.0355456
0.0355545
0.0355633
0.0355722
0.0355811
0.03559
0.0355989
0.0356078
0.0356167
0.0356256
0.0356346
0.0356435
0.0356525
0.0356615
0.0356704
0.0356794
0.0356885
0.0356975
0.0357065
0.0357155
0.0357246
0.0357337
0.0357428
0.0357518
0.0357609
0.0357701
0.0357792
0.0357883
0.0357975
0.0358066
0.0358158
0.035825
0.0358342
0.0358434
0.0358526
0.0358619
0.0358711
0.0358804
0.0358897
0.035899
0.0359083
0.0359176
0.0359269
0.0359362
0.0359456
0.035955
0.0359643
0.0359737
0.0359832
0.0359926
0.036002
0.0360115
0.0360209
0.0360304
0.0360399
0.0360494
0.0360589
0.0360685
0.036078
0.0360876
0.0360972
0.0361068
0.0361164
0.036126
0.0361356
0.0361453
0.036155
0.0361647
0.0361744
0.0361841
0.0361938
0.0362036
0.0362133
0.0362231
0.0362329
0.0362427
0.0362526
0.0362624
0.0362723
0.0362821
0.036292
0.036302
0.0363119
0.0363218
0.0363318
0.0363418
0.0363518
0.0363618
0.0363718
0.0363819
0.036392
0.036402
0.0364121
0.0364223
0.0364324
0.0364426
0.0364527
0.0364629
0.0364732
0.0364834
0.0364936
0.0365039
0.0365142
0.0365245
0.0365348
0.0365452
0.0365556
0.0365659
0.0365764
0.0365868
0.0365972
0.0366077
0.0366182
0.0366287
0.0366392
0.0366498
0.0366603
0.0366709
0.0366815
0.0366922
0.0367028
0.0367135
0.0367242
0.0367349
0.0367456
0.0367564
0.0367672
0.036778
0.0367888
0.0367894
0.0245391
0.0245616
0.0245658
0.0245689
0.0245721
0.0245752
0.0245784
0.0245815
0.0245846
0.0245878
0.0245909
0.0245941
0.0245972
0.0246004
0.0246035
0.0246067
0.0246098
0.024613
0.0246161
0.0246193
0.0246225
0.0246256
0.0246288
0.0246319
0.0246351
0.0246383
0.0246415
0.0246446
0.0246478
0.024651
0.0246542
0.0246573
0.0246605
0.0246637
0.0246669
0.0246701
0.0246733
0.0246764
0.0246796
0.0246828
0.024686
0.0246892
0.0246924
0.0246956
0.0246988
0.024702
0.0247052
0.0247084
0.0247116
0.0247149
0.0247181
0.0247213
0.0247245
0.0247277
0.0247309
0.0247341
0.0247374
0.0247406
0.0247438
0.024747
0.0247503
0.0247535
0.0247567
0.02476
0.0247632
0.0247664
0.0247697
0.0247729
0.0247762
0.0247794
0.0247826
0.0247859
0.0247891
0.0247924
0.0247956
0.0247989
0.0248021
0.0248054
0.0248087
0.0248119
0.0248152
0.0248184
0.0248217
0.024825
0.0248282
0.0248315
0.0248348
0.024838
0.0248413
0.0248446
0.0248479
0.0248511
0.0248544
0.0248577
0.024861
0.0248643
0.0248676
0.0248709
0.0248741
0.0248774
0.0248807
0.024884
0.0248873
0.0248906
0.0248939
0.0248972
0.0249005
0.0249038
0.0249071
0.0249104
0.0249138
0.0249171
0.0249204
0.0249237
0.024927
0.0249303
0.0249336
0.024937
0.0249403
0.0249436
0.0249469
0.0249503
0.0249536
0.0249569
0.0249603
0.0249636
0.0249669
0.0249703
0.0249736
0.024977
0.0249803
0.0249836
0.024987
0.0249903
0.0249937
0.024997
0.0250004
0.0250037
0.0250071
0.0250105
0.0250138
0.0250172
0.0250205
0.0250239
0.0250273
0.0250306
0.025034
0.0250374
0.0250408
0.0250441
0.0250475
0.0250509
0.0250543
0.0250577
0.025061
0.0250644
0.0250678
0.0250712
0.0250746
0.025078
0.0250814
0.0250848
0.0250882
0.0250916
0.025095
0.0250984
0.0251018
0.0251052
0.0251086
0.025112
0.0251154
0.0251188
0.0251222
0.0251257
0.0251291
0.0251325
0.0251359
0.0251394
0.0251428
0.0251462
0.0251496
0.0251531
0.0251565
0.0251599
0.0251634
0.0251668
0.0251703
0.0251737
0.0251772
0.0251806
0.0251841
0.0251875
0.025191
0.0251944
0.0251979
0.0252013
0.0252048
0.0252084
0.0252082
0.0252946
0.0171382
0.0174739
0.0178513
0.0180759
0.0182025
0.0182821
0.0183378
0.0183804
0.0184156
0.0184461
0.0184735
0.0184987
0.0185224
0.0185447
0.0185661
0.0185866
0.0186063
0.0186254
0.018644
0.018662
0.0186796
0.0186969
0.0187137
0.0187302
0.0187464
0.0187623
0.018778
0.0187934
0.0188086
0.0188235
0.0188383
0.0188529
0.0188673
0.0188816
0.0188956
0.0189096
0.0189234
0.0189371
0.0189506
0.018964
0.0189774
0.0189906
0.0190037
0.0190167
0.0190296
0.0190425
0.0190552
0.0190679
0.0190805
0.019093
0.0191055
0.0191179
0.0191302
0.0191425
0.0191547
0.0191668
0.019179
0.019191
0.0192031
0.019215
0.019227
0.0192389
0.0192508
0.0192626
0.0192744
0.0192862
0.019298
0.0193098
0.0193215
0.0193333
0.019345
0.0193567
0.0193684
0.0193802
0.0193919
0.0194036
0.0194154
0.0194272
0.019439
0.0194508
0.0194627
0.0194747
0.0194867
0.0194987
0.0195109
0.0195231
0.0195355
0.0195479
0.0195605
0.0195733
0.0195863
0.0195994
0.0196129
0.0196268
0.0196411
0.019656
0.0196719
0.0196892
0.0197083
0.0197303
0.0197946
0.0198361
0.0198742
0.0199093
0.019942
0.0199726
0.0200015
0.0200289
0.0200549
0.0200797
0.0201034
0.0201262
0.0201481
0.0201693
0.0201897
0.0202095
0.0202287
0.0202474
0.0202655
0.0202832
0.0203004
0.0203172
0.0203336
0.0203496
0.0203653
0.0203807
0.0203958
0.0204106
0.0204251
0.0204394
0.0204534
0.0204672
0.0204807
0.020494
0.0205072
0.0205201
0.0205328
0.0205454
0.0205578
0.02057
0.020582
0.0205939
0.0206057
0.0206173
0.0206288
0.0206401
0.0206513
0.0206623
0.0206733
0.0206841
0.0206948
0.0207054
0.0207159
0.0207263
0.0207366
0.0207467
0.0207568
0.0207668
0.0207767
0.0207865
0.0207962
0.0208059
0.0208154
0.0208249
0.0208343
0.0208436
0.0208528
0.020862
0.0208711
0.0208801
0.020889
0.0208979
0.0209067
0.0209155
0.0209242
0.0209328
0.0209414
0.0209499
0.0209583
0.0209667
0.020975
0.0209833
0.0209915
0.0209997
0.0210078
0.0210158
0.0210238
0.0210318
0.0210397
0.0210476
0.0210554
0.0210632
0.0210709
0.0210785
0.0210861
0.0210936
0.0211012
0.0211092
0.021118
0.0211274
0.0211346
0.0211397
0.0211447
0.0211498
0.0211548
0.0211598
0.0211647
0.0211697
0.0211746
0.0211796
0.0211845
0.0211894
0.0211943
0.0211991
0.021204
0.0212088
0.0212137
0.0212185
0.0212233
0.021228
0.0212328
0.0212376
0.0212423
0.021247
0.0212517
0.0212564
0.0212611
0.0212658
0.0212705
0.0212751
0.0212797
0.0212844
0.021289
0.0212936
0.0212982
0.0213027
0.0213073
0.0213118
0.0213164
0.0213209
0.0213254
0.0213299
0.0213344
0.0213389
0.0213433
0.0213478
0.0213522
0.0213567
0.0213611
0.0213655
0.0213699
0.0213743
0.0213787
0.021383
0.0213874
0.0213917
0.0213961
0.0214004
0.0214047
0.021409
0.0214133
0.0214176
0.0214219
0.0214261
0.0214304
0.0214346
0.0214389
0.0214431
0.0214473
0.0214515
0.0214557
0.0214599
0.0214641
0.0214683
0.0214724
0.0214766
0.0214807
0.0214849
0.021489
0.0214931
0.0214972
0.0215013
0.0215054
0.0215095
0.0215136
0.0215176
0.0215217
0.0215257
0.0215298
0.0215338
0.0215379
0.0215419
0.0215459
0.0215499
0.0215539
0.0215579
0.0215618
0.0215658
0.0215698
0.0215737
0.0215777
0.0215816
0.0215856
0.0215895
0.0215934
0.0215973
0.0216012
0.0216051
0.021609
0.0216129
0.0216168
0.0216206
0.0216245
0.0216283
0.0216322
0.021636
0.0216399
0.0216437
0.0216475
0.0216513
0.0216551
0.0216589
0.0216627
0.0216665
0.0216703
0.0216741
0.0216778
0.0216816
0.0216854
0.0216891
0.0216928
0.0216966
0.0217003
0.021704
0.0217078
0.0217115
0.0217152
0.0217189
0.0217226
0.0217263
0.0217299
0.0217336
0.0217373
0.021741
0.0217446
0.0217483
0.0217519
0.0217556
0.0217592
0.0217628
0.0217665
0.0217701
0.0217737
0.0217773
0.0217809
0.0217845
0.0217881
0.0217917
0.0217953
0.0217989
0.0218024
0.021806
0.0218096
0.0218131
0.0218167
0.0218202
0.0218238
0.0218273
0.0218308
0.0218343
0.0218379
0.0218414
0.0218449
0.0218484
0.0218519
0.0218554
0.0218589
0.0218624
0.0218659
0.0218694
0.0218728
0.0218763
0.0218798
0.0218832
0.0218867
0.0218901
0.0218936
0.021897
0.0219005
0.0219039
0.0219073
0.0219108
0.0219142
0.0219176
0.021921
0.0219244
0.0219278
0.0219312
0.0219346
0.021938
0.0219414
0.0219448
0.0219481
0.0219515
0.0219549
0.0219583
0.0219616
0.021965
0.0219683
0.0219717
0.021975
0.0219784
0.0219817
0.0219851
0.0219884
0.0219917
0.021995
0.0219984
0.0220017
0.022005
0.0220083
0.0220116
0.0220149
0.0220182
0.0220215
0.0220248
0.0220281
0.0220313
0.0220346
0.0220379
0.0220412
0.0220444
0.0220477
0.022051
0.0220542
0.0220575
0.0220607
0.022064
0.0220672
0.0220705
0.0220737
0.0220769
0.0220802
0.0220834
0.0220866
0.0220899
0.0220931
0.0220963
0.0220995
0.0221027
0.0221059
0.0221091
0.0221123
0.0221155
0.0221187
0.0221219
0.0221251
0.0221283
0.0221314
0.0221346
0.0221378
0.022141
0.0221441
0.0221473
0.0221505
0.0221536
0.0221568
0.0221599
0.0221631
0.0221662
0.0221694
0.0221725
0.0221757
0.0221788
0.0221819
0.0221851
0.0221882
0.0221913
0.0221944
0.0221976
0.0222007
0.0222038
0.0222069
0.02221
0.0222131
0.0222162
0.0222193
0.0222224
0.0222255
0.0222286
0.0222317
0.0222348
0.0222379
0.022241
0.022244
0.0222471
0.0222502
0.0222533
0.0222563
0.0222594
0.0222625
0.0222655
0.0222686
0.0222717
0.0222747
0.0222778
0.0222808
0.0222839
0.0222869
0.02229
0.022293
0.022296
0.0222991
0.0223021
0.0223051
0.0223082
0.0223112
0.0223142
0.0223172
0.0223203
0.0223233
0.0223263
0.0223293
0.0223323
0.0223353
0.0223383
0.0223413
0.0223444
0.0223474
0.0223504
0.0223533
0.0223563
0.0223593
0.0223623
0.0223653
0.0223683
0.0223713
0.0223743
0.0223772
0.0223802
0.0223832
0.0223862
0.0223891
0.0223921
0.0223951
0.0223981
0.0224011
0.0224041
0.0224068
0.0224089
0.0224116
0.0224151
0.0224187
0.0224223
0.0224258
0.0224294
0.0224329
0.0224365
0.02244
0.0224435
0.0224471
0.0224506
0.0224541
0.0224576
0.0224612
0.0224647
0.0224682
0.0224717
0.0224752
0.0224787
0.0224822
0.0224857
0.0224892
0.0224927
0.0224961
0.0224996
0.0225031
0.0225066
0.02251
0.0225135
0.022517
0.0225204
0.0225239
0.0225273
0.0225308
0.0225342
0.0225376
0.0225411
0.0225445
0.0225479
0.0225514
0.0225548
0.0225582
0.0225616
0.022565
0.0225684
0.0225719
0.0225753
0.0225787
0.0225821
0.0225854
0.0225888
0.0225922
0.0225956
0.022599
0.0226024
0.0226057
0.0226091
0.0226125
0.0226158
0.0226192
0.0226226
0.0226259
0.0226293
0.0226326
0.022636
0.0226393
0.0226426
0.022646
0.0226493
0.0226526
0.022656
0.0226593
0.0226626
0.0226659
0.0226693
0.0226726
0.0226759
0.0226792
0.0226825
0.0226858
0.0226891
0.0226924
0.0226957
0.022699
0.0227023
0.0227055
0.0227088
0.0227121
0.0227154
0.0227187
0.0227219
0.0227252
0.0227285
0.0227317
0.022735
0.0227382
0.0227415
0.0227448
0.022748
0.0227513
0.0227545
0.0227577
0.022761
0.0227642
0.0227674
0.0227707
0.0227739
0.0227771
0.0227804
0.0227836
0.0227868
0.02279
0.0227932
0.0227964
0.0227996
0.0228028
0.022806
0.0228092
0.0228124
0.0228156
0.0228188
0.022822
0.0228252
0.0228284
0.0228316
0.0228348
0.0228379
0.0228411
0.0228443
0.0228475
0.0228506
0.0228538
0.022857
0.0228601
0.0228633
0.0228664
0.0228696
0.0228727
0.0228759
0.022879
0.0228822
0.0228853
0.0228885
0.0228916
0.0228947
0.0228979
0.022901
0.0229041
0.0229073
0.0229104
0.0229135
0.0229166
0.0229197
0.0229228
0.0229259
0.0229291
0.0229324
0.0229357
0.0229386
0.0229402
0.022941
0.0229444
0.0229583
0.0229855
0.0230006
0.0229312
0.0227094
0.0224807
0.0229171
0.0248819
0.0272704
0.0266058
0.023228
0.0212061
0.0206947
0.020601
0.0205839
0.0205795
0.0249901
0.0249589
0.0249585
0.0249785
0.0249833
0.0249842
0.0249846
0.0249847
0.0249841
0.0249831
0.0249832
0.0249845
0.024986
0.024987
0.0249878
0.02499
0.0249922
0.0249947
0.024998
0.0250006
0.0250046
0.0250085
0.0250127
0.0250178
0.0250226
0.0250276
0.025033
0.0250387
0.025045
0.0250522
0.0250592
0.0250663
0.0250739
0.025082
0.0250909
0.0250997
0.0251088
0.0251187
0.0251283
0.0251378
0.0251489
0.0251603
0.025171
0.0251827
0.0251954
0.025208
0.025221
0.0252348
0.0252486
0.0252626
0.0252771
0.0252927
0.0253081
0.0253238
0.02534
0.0253568
0.0253747
0.0253925
0.0254109
0.0254301
0.0254494
0.025469
0.0254892
0.0255102
0.0255323
0.0255547
0.0255779
0.0256011
0.0256249
0.0256493
0.0256746
0.0257012
0.0257281
0.0257558
0.0257847
0.025814
0.0258442
0.0258757
0.0259077
0.0259405
0.0259746
0.02601
0.0260473
0.026086
0.0261254
0.0261661
0.0262087
0.0262525
0.0262979
0.0263453
0.026395
0.0264459
0.0264977
0.0265493
0.0265968
0.0266348
0.0266547
0.0266507
0.0266365
0.026689
0.0270193
0.0230799
0.0243325
0.0243403
0.024348
0.0243557
0.0243634
0.0243711
0.0243787
0.0243864
0.024394
0.0244016
0.0244092
0.0244168
0.0244244
0.0244319
0.0244394
0.024447
0.0244545
0.0244619
0.0244694
0.0244769
0.0244843
0.0244917
0.0244991
0.0245065
0.0245139
0.0245213
0.0245287
0.024536
0.0245433
0.0245506
0.0245579
0.0245652
0.0245725
0.0245798
0.024587
0.0245942
0.0246015
0.0246087
0.0246159
0.0246231
0.0246302
0.0246374
0.0246445
0.0246517
0.0246588
0.0246659
0.024673
0.0246801
0.0246872
0.0246943
0.0247013
0.0247084
0.0247154
0.0247224
0.0247294
0.0247364
0.0247434
0.0247504
0.0247574
0.0247643
0.0247713
0.0247782
0.0247851
0.0247921
0.024799
0.0248059
0.0248128
0.0248196
0.0248265
0.0248334
0.0248402
0.024847
0.0248539
0.0248607
0.0248675
0.0248743
0.0248811
0.0248879
0.0248947
0.0249015
0.0249082
0.024915
0.0249216
0.0249281
0.0249346
0.0249417
0.0249503
0.0249604
0.0249676
0.0249712
0.0249748
0.0249785
0.0249821
0.0249858
0.0249894
0.024993
0.0249967
0.0250003
0.025004
0.0250076
0.0250113
0.025015
0.0250186
0.0250223
0.0250259
0.0250296
0.0250333
0.025037
0.0250406
0.0250443
0.025048
0.0250517
0.0250553
0.025059
0.0250627
0.0250664
0.0250701
0.0250738
0.0250775
0.0250812
0.0250849
0.0250886
0.0250923
0.025096
0.0250997
0.0251034
0.0251071
0.0251108
0.0251146
0.0251183
0.025122
0.0251257
0.0251294
0.0251332
0.0251369
0.0251406
0.0251444
0.0251481
0.0251518
0.0251556
0.0251593
0.0251631
0.0251668
0.0251706
0.0251743
0.0251781
0.0251818
0.0251856
0.0251894
0.0251931
0.0251969
0.0252007
0.0252044
0.0252082
0.025212
0.0252158
0.0252195
0.0252233
0.0252271
0.0252309
0.0252347
0.0252384
0.0252422
0.025246
0.0252498
0.0252536
0.0252574
0.0252612
0.025265
0.0252688
0.0252726
0.0252764
0.0252802
0.025284
0.0252878
0.0252916
0.0252955
0.0252993
0.0253031
0.0253069
0.0253107
0.0253145
0.0253183
0.0253221
0.025326
0.0253298
0.0253336
0.0253374
0.0253412
0.0253451
0.0253489
0.0253527
0.0253565
0.0253603
0.0253642
0.025368
0.0253718
0.0253756
0.0253795
0.0253833
0.0253871
0.0253909
0.0253948
0.0253986
0.0254024
0.0254062
0.0254101
0.0254139
0.0254177
0.0254216
0.0254254
0.0254292
0.0254331
0.0254369
0.0254408
0.0254446
0.0254484
0.0254523
0.0254561
0.02546
0.0254638
0.0254677
0.0254716
0.0254754
0.0254793
0.0254832
0.025487
0.0254909
0.0254948
0.0254986
0.0255025
0.0255064
0.0255103
0.0255142
0.0255181
0.025522
0.0255259
0.0255298
0.0255337
0.0255376
0.0255415
0.0255454
0.0255494
0.0255533
0.0255572
0.0255612
0.0255651
0.025569
0.025573
0.0255769
0.0255809
0.0255849
0.0255888
0.0255928
0.0255968
0.0256007
0.0256047
0.0256088
0.0256128
0.0256168
0.0256205
0.0256238
0.0256275
0.0256335
0.0256441
0.0256564
0.0256535
0.0256039
0.0254979
0.0254506
0.0258107
0.0269249
0.0281498
0.0275086
0.0244945
0.0218211
0.0208539
0.0206494
0.020615
0.020611
0.0206123
0.0206144
0.0206168
0.0206191
0.0206215
0.0206239
0.0206263
0.0206287
0.0206311
0.0206336
0.020636
0.0206385
0.0206409
0.0206434
0.0206459
0.0206484
0.0206509
0.0206534
0.0206559
0.0206584
0.020661
0.0206635
0.0206661
0.0206687
0.0206712
0.0206738
0.0206764
0.020679
0.0206817
0.0206843
0.0206869
0.0206896
0.0206922
0.0206949
0.0206976
0.0207003
0.020703
0.0207057
0.0207084
0.0207112
0.0207139
0.0207167
0.0207194
0.0207222
0.020725
0.0207278
0.0207306
0.0207335
0.0207363
0.0207392
0.020742
0.0207449
0.0207478
0.0207507
0.0207536
0.0207566
0.0207595
0.0207625
0.0207655
0.0207685
0.0207715
0.0207745
0.0207775
0.0207806
0.0207836
0.0207867
0.0207898
0.0207929
0.020796
0.0207992
0.0208023
0.0208055
0.0208087
0.0208119
0.0208151
0.0208183
0.0208216
0.0208249
0.0208281
0.0208314
0.0208347
0.0208381
0.0208414
0.0208448
0.0208482
0.0208515
0.020855
0.0208584
0.0208618
0.0208653
0.0208688
0.0208722
0.0208757
0.0208793
0.0208828
0.0208864
0.0208899
0.0208935
0.0208971
0.0209008
0.0209044
0.0209081
0.0209117
0.0209155
0.0209192
0.0209229
0.0209267
0.0209305
0.020934
0.020936
0.020939
0.0209443
0.0209498
0.0209553
0.0209609
0.0209664
0.020972
0.0209777
0.0209833
0.020989
0.0209948
0.0210005
0.0210063
0.0210121
0.0210179
0.0210238
0.0210297
0.0210356
0.0210416
0.0210476
0.0210536
0.0210597
0.0210658
0.021072
0.0210782
0.0210844
0.0210907
0.021097
0.0211034
0.0211098
0.0211162
0.0211227
0.0211292
0.0211358
0.0211424
0.0211491
0.0211558
0.0211625
0.0211693
0.0211761
0.021183
0.0211899
0.0211969
0.0212039
0.021211
0.0212181
0.0212253
0.0212324
0.0212397
0.021247
0.0212543
0.0212616
0.021269
0.0212765
0.021284
0.0212915
0.0212991
0.0213067
0.0213143
0.021322
0.0213297
0.0213375
0.0213453
0.0213531
0.0213609
0.0213688
0.0213767
0.0213847
0.0213927
0.0214007
0.0214087
0.0214168
0.0214249
0.0214331
0.0214412
0.0214494
0.0214576
0.0214658
0.0214741
0.0214824
0.0214907
0.021499
0.0215074
0.0215158
0.0215242
0.0215326
0.0215411
0.0215495
0.021558
0.0215665
0.0215751
0.0215836
0.0215922
0.0216008
0.0216094
0.0216181
0.0216267
0.0216354
0.0216441
0.0216528
0.0216616
0.0216704
0.0216792
0.021688
0.0216968
0.0217057
0.0217146
0.0217235
0.0217324
0.0217414
0.0217503
0.0217593
0.0217684
0.0217774
0.0217865
0.0217956
0.0218048
0.0218139
0.0218231
0.0218324
0.0218416
0.0218509
0.0218602
0.0218695
0.0218789
0.0218883
0.0218978
0.0219072
0.0219167
0.0219263
0.0219358
0.0219454
0.0219551
0.0219647
0.0219745
0.0219842
0.021994
0.0220038
0.0220136
0.0220235
0.0220335
0.0220434
0.0220534
0.0220635
0.0220736
0.0220837
0.0220938
0.022104
0.0221143
0.0221246
0.0221349
0.0221453
0.0221557
0.0221661
0.0221766
0.0221871
0.0221977
0.0222083
0.0222189
0.0222296
0.0222404
0.0222512
0.022262
0.0222728
0.0222838
0.0222947
0.0223057
0.0223167
0.0223278
0.0223389
0.0223501
0.0223613
0.0223725
0.0223838
0.0223951
0.0224065
0.0224179
0.0224294
0.0224409
0.0224524
0.022464
0.0224756
0.0224873
0.022499
0.0225107
0.0225225
0.0225344
0.0225462
0.0225581
0.0225701
0.0225821
0.0225941
0.0226062
0.0226183
0.0226304
0.0226426
0.0226548
0.0226671
0.0226794
0.0226918
0.0227041
0.0227165
0.022729
0.0227415
0.022754
0.0227666
0.0227792
0.0227918
0.0228045
0.0228172
0.0228299
0.0228427
0.0228555
0.0228684
0.0228813
0.0228942
0.0229071
0.0229201
0.0229331
0.0229462
0.0229593
0.0229724
0.0229855
0.0229987
0.0230119
0.0230251
0.0230384
0.0230517
0.0230651
0.0230784
0.0230918
0.0231052
0.0231187
0.0231322
0.0231457
0.0231592
0.0231728
0.0231864
0.0232
0.0232136
0.0232273
0.023241
0.0232547
0.0232685
0.0232823
0.0232961
0.0233099
0.0233238
0.0233376
0.0233515
0.0233655
0.0233794
0.0233934
0.0234074
0.0234214
0.0234354
0.0234495
0.0234636
0.0234777
0.0234918
0.023506
0.0235202
0.0235344
0.0235486
0.0235628
0.0235771
0.0235913
0.0236056
0.0236199
0.0236343
0.0236486
0.023663
0.0236774
0.0236918
0.0237062
0.0237206
0.0237351
0.0237495
0.023764
0.0237785
0.0237931
0.0238076
0.0238221
0.0238367
0.0238513
0.0238659
0.0238805
0.0238951
0.0239098
0.0239244
0.0239391
0.0239538
0.0239685
0.0239832
0.0239979
0.0240126
0.0240274
0.0240421
0.0240569
0.0240717
0.0240865
0.0241013
0.0241161
0.0241309
0.0241457
0.0241606
0.0241755
0.0241903
0.0242052
0.0242201
0.024235
0.0242499
0.0242648
0.0242797
0.0242947
0.0243096
0.0243246
0.0243396
0.0243545
0.0243695
0.0243845
0.0243995
0.0244145
0.0244295
0.0244446
0.0244596
0.0244746
0.0244897
0.0245048
0.0245198
0.0245349
0.02455
0.0245651
0.0245802
0.0245953
0.0246104
0.0246256
0.0246407
0.0246558
0.024671
0.0246862
0.0247013
0.0247165
0.0247317
0.0247469
0.0247622
0.0247774
0.0247926
0.0248079
0.0248232
0.0248384
0.0248537
0.024869
0.0248844
0.0248997
0.0249151
0.0249304
0.0249458
0.0249612
0.0249766
0.0249921
0.0250076
0.025023
0.0250386
0.0250541
0.0250696
0.0250852
0.0251008
0.0251165
0.0251322
0.0251479
0.0251636
0.0251794
0.0251952
0.025211
0.0252269
0.0252429
0.0252588
0.0252748
0.0252909
0.025307
0.0253232
0.0253394
0.0253557
0.025372
0.0253884
0.0254049
0.0254214
0.025438
0.0254547
0.0254715
0.0254883
0.0255052
0.0255222
0.0255392
0.0255564
0.0255737
0.025591
0.0256084
0.025626
0.0256436
0.0256614
0.0256792
0.0256972
0.0257153
0.0257335
0.0257518
0.0257702
0.0257888
0.0258075
0.0258263
0.0258452
0.0258643
0.0258835
0.0259029
0.0259224
0.025942
0.0259618
0.0259817
0.0260018
0.026022
0.0260424
0.0260629
0.0260836
0.0261044
0.0261254
0.0261465
0.0261677
0.0261892
0.0262107
0.0262324
0.0262543
0.0262763
0.0262985
0.0263208
0.0263432
0.0263658
0.0263886
0.0264114
0.0264344
0.0264576
0.0264808
0.0265042
0.0265277
0.0265514
0.0265751
0.026599
0.0266229
0.026647
0.0266712
0.0266954
0.0267198
0.0267442
0.0267687
0.0267933
0.026818
0.0268427
0.0268674
0.0268923
0.0269171
0.026942
0.026967
0.026992
0.0270169
0.0270419
0.027067
0.027092
0.027117
0.027142
0.027167
0.0271919
0.0272168
0.0272417
0.0272665
0.0272913
0.0273161
0.0273407
0.0273653
0.0273898
0.0274143
0.0274386
0.0274629
0.027487
0.027511
0.027535
0.0275588
0.0275824
0.027606
0.0276294
0.0276526
0.0276758
0.0276987
0.0277215
0.0277442
0.0277667
0.027789
0.0278111
0.0278331
0.0278548
0.0278764
0.0278978
0.027919
0.0279401
0.0279609
0.0279815
0.0280019
0.0280222
0.0280422
0.028062
0.0280816
0.028101
0.0281202
0.0281392
0.028158
0.0281766
0.028195
0.0282132
0.0282312
0.0282489
0.0282665
0.0282839
0.0283011
0.0283181
0.0283349
0.0283516
0.028368
0.0283843
0.0284004
0.0284163
0.0284321
0.0284477
0.0284631
0.0284784
0.0284935
0.0285085
0.0285233
0.028538
0.0285526
0.028567
0.0285814
0.0285956
0.0286097
0.0286237
0.0286376
0.0286513
0.028665
0.0286787
0.0286922
0.0287056
0.028719
0.0287323
0.0287455
0.0287587
0.0287718
0.0287849
0.0287979
0.0288109
0.0288238
0.0288367
0.0288496
0.0288624
0.0288752
0.0288879
0.0289007
0.0289134
0.0289261
0.0289387
0.0289514
0.028964
0.0289766
0.0289892
0.0290018
0.0290144
0.029027
0.0290395
0.029052
0.0290646
0.0290771
0.0290896
0.0291021
0.0291145
0.029127
0.0291394
0.0291519
0.0291643
0.0291766
0.029189
0.0292013
0.0292136
0.0292259
0.0292381
0.0292504
0.0292625
0.0292747
0.0292867
0.0292988
0.0293108
0.0293227
0.0293346
0.0293465
0.0293582
0.0293699
0.0293816
0.0293931
0.0294046
0.029416
0.0294273
0.0294386
0.0294497
0.0294607
0.0294717
0.0294825
0.0294932
0.0295038
0.0295143
0.0295247
0.0295349
0.029545
0.0295549
0.0295648
0.0295744
0.0295839
0.0295933
0.0296025
0.0296115
0.0296204
0.0296291
0.0296376
0.0296459
0.0296541
0.029662
0.0296698
0.0296774
0.0296848
0.0296919
0.0296989
0.0297057
0.0297122
0.0297186
0.0297247
0.0297306
0.0297364
0.0297419
0.0297471
0.0297522
0.0297571
0.0297617
0.0297661
0.0297703
0.0297744
0.0297782
0.0297818
0.0297852
0.0297884
0.0297914
0.0297942
0.0297968
0.0297993
0.0298016
0.0298037
0.0298057
0.0298075
0.0298091
0.0298106
0.029812
0.0298132
0.0298144
0.0298154
0.0298163
0.0298171
0.0298178
0.0298184
0.029819
0.0298194
0.0298199
0.0298202
0.0298205
0.0298208
0.0298211
0.0298213
0.0298215
0.0298217
0.0298219
0.029822
0.0298222
0.0298224
0.0298226
0.0298229
0.0298231
0.0298234
0.0298237
0.0298241
0.0298245
0.029825
0.0298255
0.029826
0.0298266
0.0298273
0.029828
0.0298287
0.0298296
0.0298305
0.0298314
0.0298325
0.0298336
0.0298347
0.0298359
0.0298372
0.0298386
0.02984
0.0298415
0.0298431
0.0298447
0.0298464
0.0298482
0.02985
0.0298519
0.0298539
0.0298559
0.029858
0.0298601
0.0298624
0.0298646
0.029867
0.0298694
0.0298718
0.0298743
0.0298769
0.0298795
0.0298822
0.0298849
0.0298877
0.0298906
0.0298935
0.0298964
0.0298994
0.0299024
0.0299055
0.0299086
0.0299118
0.029915
0.0299183
0.0299216
0.029925
0.0299284
0.0299318
0.0299353
0.0299388
0.0299423
0.0299459
0.0299495
0.0299532
0.0299569
0.0299606
0.0299644
0.0299682
0.029972
0.0299759
0.0299798
0.0299837
0.0299877
0.0299917
0.0299957
0.0299997
0.0300038
0.0300079
0.030012
0.0300162
0.0300204
0.0300246
0.0300288
0.0300331
0.0300374
0.0300417
0.0300461
0.0300504
0.0300548
0.0300592
0.0300637
0.0300681
0.0300726
0.0300771
0.0300817
0.0300862
0.0300908
0.0300954
0.0301
0.0301047
0.0301093
0.030114
0.0301187
0.0301235
0.0301282
0.030133
0.0301378
0.0301426
0.0301475
0.0301523
0.0301572
0.0301621
0.030167
0.030172
0.0301769
0.0301819
0.0301869
0.030192
0.030197
0.0302021
0.0302072
0.0302123
0.0302174
0.0302226
0.0302278
0.030233
0.0302382
0.0302434
0.0302487
0.030254
0.0302593
0.0302646
0.03027
0.0302753
0.0302807
0.0302861
0.0302916
0.030297
0.0303025
0.030308
0.0303135
0.030319
0.0303246
0.0303302
0.0303357
0.0303414
0.030347
0.0303526
0.0303583
0.030364
0.0303697
0.0303754
0.0303812
0.0303869
0.0303927
0.0303985
0.0304043
0.0304101
0.0304159
0.0304218
0.0304277
0.0304335
0.0304394
0.0304453
0.0304512
0.0304572
0.0304631
0.0304691
0.030475
0.030481
0.030487
0.0304929
0.0304989
0.0305049
0.0305109
0.0305169
0.030523
0.030529
0.030535
0.030541
0.0305471
0.0305531
0.0305591
0.0305652
0.0305712
0.0305773
0.0305833
0.0305894
0.0305954
0.0306015
0.0306075
0.0306136
0.0306196
0.0306257
0.0306317
0.0306378
0.0306438
0.0306499
0.0306559
0.0306619
0.030668
0.030674
0.0306801
0.0306861
0.0306921
0.0306982
0.0307042
0.0307103
0.0307163
0.0307223
0.0307283
0.0307344
0.0307404
0.0307464
0.0307525
0.0307585
0.0307645
0.0307706
0.0307766
0.0307826
0.0307887
0.0307947
0.0308007
0.0308068
0.0308128
0.0308189
0.0308249
0.030831
0.030837
0.0308431
0.0308491
0.0308552
0.0308613
0.0308673
0.0308734
0.0308795
0.0308856
0.0308916
0.0308977
0.0309038
0.0309099
0.030916
0.0309221
0.0309282
0.030934
)
;

boundaryField
{
    inlet
    {
        type            zeroGradient;
    }
    outlet
    {
        type            zeroGradient;
    }
    right
    {
        type            empty;
    }
    left
    {
        type            empty;
    }
    atmosphere
    {
        type            empty;
    }
    bottomWall
    {
        type            empty;
    }
}


// ************************************************************************* //
