/*--------------------------------*- C++ -*----------------------------------*\
| =========                 |                                                 |
| \\      /  F ield         | foam-extend: Open Source CFD                    |
|  \\    /   O peration     | Version:     3.1                                |
|   \\  /    A nd           | Web:         http://www.extend-project.de       |
|    \\/     M anipulation  |                                                 |
\*---------------------------------------------------------------------------*/
FoamFile
{
    version     2.0;
    format      ascii;
    class       surfaceScalarField;
    location    "10";
    object      phi;
}
// * * * * * * * * * * * * * * * * * * * * * * * * * * * * * * * * * * * * * //

dimensions      [0 3 -1 0 0 0 0];

internalField   nonuniform List<scalar> 
2538
(
0.0722311
0.0722946
0.0723774
0.0724595
0.0725419
0.0726244
0.0727071
0.07279
0.0728731
0.0729564
0.0730398
0.0731235
0.0732074
0.0732915
0.0733757
0.0734602
0.0735449
0.0736297
0.0737148
0.0738001
0.0738856
0.0739713
0.0740571
0.0741432
0.0742295
0.074316
0.0744028
0.0744897
0.0745768
0.0746642
0.0747517
0.0748395
0.0749275
0.0750157
0.0751041
0.0751927
0.0752816
0.0753707
0.0754599
0.0755495
0.0756392
0.0757291
0.0758193
0.0759097
0.0760003
0.0760912
0.0761823
0.0762736
0.0763651
0.0764569
0.0765489
0.0766411
0.0767336
0.0768263
0.0769193
0.0770124
0.0771058
0.0771995
0.0772934
0.0773875
0.0774819
0.0775765
0.0776714
0.0777665
0.0778619
0.0779575
0.0780533
0.0781495
0.0782458
0.0783424
0.0784393
0.0785364
0.0786338
0.0787314
0.0788293
0.0789275
0.0790259
0.0791246
0.0792236
0.0793228
0.0794222
0.079522
0.079622
0.0797223
0.0798229
0.0799237
0.0800248
0.0801262
0.0802279
0.0803298
0.080432
0.0805346
0.0806373
0.0807404
0.0808438
0.0809474
0.0810514
0.0811556
0.0812601
0.081365
0.0814701
0.0815755
0.0816812
0.0817872
0.0818935
0.0820002
0.0821071
0.0822143
0.0823219
0.0824297
0.0825379
0.0826463
0.0827551
0.0828642
0.0829737
0.0830834
0.0831935
0.0833039
0.0834146
0.0835256
0.083637
0.0837487
0.0838608
0.0839731
0.0840858
0.0841989
0.0843123
0.084426
0.0845401
0.0846545
0.0847693
0.0848844
0.0849999
0.0851157
0.0852319
0.0853485
0.0854654
0.0855826
0.0857003
0.0858183
0.0859366
0.0860554
0.0861745
0.086294
0.0864138
0.0865341
0.0866547
0.0867757
0.0868971
0.0870189
0.0871411
0.0872636
0.0873866
0.08751
0.0876338
0.0877579
0.0878825
0.0880075
0.0881329
0.0882587
0.0883849
0.0885115
0.0886386
0.0887661
0.088894
0.0890223
0.0891511
0.0892803
0.08941
0.08954
0.0896706
0.0898015
0.0899329
0.0900648
0.0901971
0.0903299
0.0904631
0.0905968
0.090731
0.0908656
0.0910007
0.0911363
0.0912723
0.0914088
0.0915765
0.0917627
0.0918752
0.0919233
0.0919681
0.0920128
0.0920576
0.0921024
0.0921472
0.0921921
0.092237
0.092282
0.092327
0.0923721
0.0924172
0.0924624
0.0925076
0.0925528
0.0925981
0.0926435
0.0926889
0.0927343
0.0927798
0.0928254
0.092871
0.0929166
0.0929623
0.093008
0.0930538
0.0930996
0.0931455
0.0931914
0.0932374
0.0932834
0.0933295
0.0933756
0.0934218
0.093468
0.0935142
0.0935605
0.0936069
0.0936533
0.0936998
0.0937463
0.0937928
0.0938394
0.0938861
0.0939328
0.0939795
0.0940263
0.0940731
0.09412
0.094167
0.094214
0.094261
0.0943081
0.0943553
0.0944025
0.0944497
0.094497
0.0945443
0.0945917
0.0946392
0.0946867
0.0947342
0.0947818
0.0948294
0.0948771
0.0949249
0.0949727
0.0950205
0.0950684
0.0951163
0.0951643
0.0952124
0.0952605
0.0953086
0.0953568
0.0954051
0.0954534
0.0955018
0.0955502
0.0955986
0.0956471
0.0956957
0.0957443
0.095793
0.0958417
0.0958905
0.0959393
0.0959882
0.0960371
0.0960861
0.0961351
0.0961842
0.0962333
0.0962825
0.0963318
0.0963811
0.0964304
0.0964798
0.0965293
0.0965788
0.0966283
0.096678
0.0967276
0.0967774
0.0968271
0.096877
0.0969268
0.0969768
0.0970268
0.0970768
0.0971269
0.0971771
0.0972273
0.0972776
0.0973279
0.0973783
0.0974287
0.0974792
0.0975297
0.0975803
0.097631
0.0976817
0.0977325
0.0977833
0.0978342
0.0978851
0.0979361
0.0979871
0.0980382
0.0980894
0.0981406
0.0981919
0.0982432
0.0982946
0.0983461
0.0983976
0.0984491
0.0985007
0.0985524
0.0986041
0.0986559
0.0987078
0.0987597
0.0988116
0.0988637
0.0989157
0.0989679
0.0990201
0.0990723
0.0991247
0.099177
0.0992295
0.099282
0.0993345
0.0993871
0.0994398
0.0994925
0.0995453
0.0995982
0.0996511
0.0997041
0.0997571
0.0998102
0.0998633
0.0999166
0.0999698
0.100023
0.100077
0.10013
0.100184
0.100237
0.100291
0.100345
0.100398
0.100452
0.100506
0.10056
0.100614
0.100668
0.100722
0.100776
0.100831
0.100885
0.100939
0.100994
0.101048
0.101103
0.101158
0.101212
0.101267
0.101322
0.101377
0.101432
0.101487
0.101542
0.101597
0.101668
0.101363
0.1056
0.110257
0.115965
0.119594
0.122017
0.12381
0.125254
0.126494
0.127604
0.128627
0.129587
0.130501
0.131377
0.132223
0.133043
0.133841
0.13462
0.135382
0.136129
0.136862
0.137584
0.138294
0.138995
0.139686
0.140369
0.141045
0.141713
0.142374
0.14303
0.143679
0.144324
0.144964
0.145599
0.14623
0.146857
0.14748
0.1481
0.148716
0.14933
0.149941
0.15055
0.151156
0.151759
0.152361
0.152961
0.15356
0.154156
0.154752
0.155346
0.155939
0.156531
0.157122
0.157712
0.158302
0.158892
0.15948
0.160069
0.160658
0.161247
0.161836
0.162425
0.163014
0.163605
0.164196
0.164788
0.165381
0.165975
0.166571
0.167168
0.167767
0.168368
0.168972
0.169578
0.170187
0.170799
0.171415
0.172035
0.17266
0.17329
0.173925
0.174567
0.175216
0.175874
0.176542
0.17722
0.177912
0.178619
0.179344
0.180092
0.180866
0.181672
0.18252
0.183417
0.184377
0.185413
0.186545
0.18779
0.189168
0.190696
0.192377
0.196879
0.19886
0.200718
0.202471
0.204133
0.205717
0.207232
0.208684
0.210082
0.211431
0.212735
0.213999
0.215225
0.216417
0.217578
0.21871
0.219814
0.220894
0.22195
0.222985
0.223998
0.224993
0.225968
0.226927
0.227869
0.228796
0.229708
0.230606
0.23149
0.232362
0.233221
0.234069
0.234906
0.235731
0.236547
0.237352
0.238148
0.238935
0.239713
0.240482
0.241243
0.241996
0.242741
0.243479
0.244209
0.244933
0.24565
0.24636
0.247063
0.247761
0.248452
0.249137
0.249817
0.250491
0.25116
0.251823
0.252481
0.253134
0.253782
0.254426
0.255064
0.255698
0.256328
0.256953
0.257574
0.258191
0.258803
0.259412
0.260016
0.260617
0.261214
0.261807
0.262397
0.262983
0.263565
0.264144
0.26472
0.265292
0.265862
0.266428
0.26699
0.26755
0.268107
0.268661
0.269211
0.269759
0.270304
0.270847
0.271386
0.271923
0.272457
0.272988
0.273517
0.274043
0.274569
0.275095
0.275622
0.276142
0.27663
0.277053
0.27741
0.277742
0.278072
0.278402
0.278731
0.279059
0.279386
0.279711
0.280036
0.28036
0.280683
0.281005
0.281326
0.281646
0.281966
0.282284
0.282602
0.282918
0.283234
0.283549
0.283863
0.284176
0.284488
0.284799
0.28511
0.285419
0.285728
0.286036
0.286344
0.28665
0.286956
0.28726
0.287564
0.287868
0.28817
0.288472
0.288773
0.289073
0.289372
0.289671
0.289969
0.290266
0.290562
0.290858
0.291153
0.291447
0.291741
0.292034
0.292326
0.292617
0.292908
0.293198
0.293487
0.293776
0.294064
0.294351
0.294638
0.294923
0.295209
0.295493
0.295777
0.296061
0.296343
0.296625
0.296907
0.297188
0.297468
0.297747
0.298026
0.298304
0.298582
0.298859
0.299135
0.299411
0.299686
0.299961
0.300235
0.300509
0.300781
0.301054
0.301325
0.301597
0.301867
0.302137
0.302406
0.302675
0.302944
0.303211
0.303479
0.303745
0.304011
0.304277
0.304542
0.304806
0.30507
0.305334
0.305596
0.305859
0.306121
0.306382
0.306643
0.306903
0.307163
0.307422
0.307681
0.307939
0.308196
0.308454
0.30871
0.308967
0.309222
0.309478
0.309732
0.309987
0.31024
0.310494
0.310746
0.310999
0.311251
0.311502
0.311753
0.312003
0.312253
0.312503
0.312752
0.313001
0.313249
0.313496
0.313744
0.31399
0.314237
0.314483
0.314728
0.314973
0.315218
0.315462
0.315705
0.315949
0.316192
0.316434
0.316676
0.316917
0.317159
0.317399
0.31764
0.317879
0.318119
0.318358
0.318596
0.318835
0.319072
0.31931
0.319547
0.319783
0.320019
0.320255
0.320491
0.320726
0.32096
0.321194
0.321428
0.321661
0.321894
0.322127
0.322359
0.322591
0.322823
0.323054
0.323284
0.323515
0.323745
0.323974
0.324203
0.324432
0.32466
0.324889
0.325116
0.325344
0.325571
0.325797
0.326023
0.326249
0.326475
0.3267
0.326925
0.327149
0.327373
0.327597
0.32782
0.328043
0.328266
0.328488
0.32871
0.328932
0.329153
0.329374
0.329595
0.329815
0.330035
0.330254
0.330474
0.330693
0.330911
0.331129
0.331347
0.331565
0.331782
0.331999
0.332216
0.332432
0.332648
0.332863
0.333079
0.333294
0.333508
0.333722
0.333936
0.33415
0.334363
0.334577
0.334789
0.335002
0.335214
0.335426
0.335637
0.335848
0.336059
0.33627
0.33648
0.33669
0.336899
0.337109
0.337318
0.337526
0.337735
0.337943
0.338151
0.338358
0.338566
0.338772
0.338979
0.339185
0.339391
0.339597
0.339803
0.340008
0.340213
0.340417
0.340622
0.340826
0.341029
0.341233
0.341436
0.341639
0.341841
0.342044
0.342246
0.342448
0.342649
0.34285
0.343051
0.343252
0.343452
0.343652
0.343852
0.344052
0.344251
0.34445
0.344649
0.344847
0.345045
0.345243
0.345441
0.345638
0.345835
0.346032
0.346229
0.346425
0.346621
0.346817
0.347012
0.347208
0.347403
0.347597
0.347792
0.347986
0.34818
0.348374
0.348567
0.348761
0.348953
0.349146
0.349339
0.349531
0.349723
0.349914
0.350106
0.350297
0.350488
0.350679
0.350869
0.351059
0.351249
0.351439
0.351628
0.351818
0.352007
0.352195
0.352384
0.352572
0.35276
0.352948
0.353135
0.353323
0.35351
0.353697
0.353883
0.354069
0.354256
0.354441
0.354627
0.354812
0.354998
0.355182
0.355367
0.355552
0.355736
0.35592
0.356104
0.356287
0.35647
0.356654
0.356836
0.357019
0.357201
0.357384
0.357566
0.357747
0.357929
0.35811
0.358291
0.358472
0.358653
0.358833
0.359014
0.359194
0.359371
0.359545
0.359721
0.359917
0.360142
0.360379
0.360616
0.360853
0.36109
0.361326
0.361561
0.361797
0.362032
0.362266
0.362501
0.362735
0.362968
0.363202
0.363435
0.363667
0.3639
0.364132
0.364364
0.364595
0.364826
0.365057
0.365287
0.365517
0.365747
0.365976
0.366205
0.366434
0.366663
0.366891
0.367119
0.367346
0.367573
0.3678
0.368027
0.368253
0.368479
0.368705
0.36893
0.369155
0.36938
0.369604
0.369828
0.370052
0.370276
0.370499
0.370722
0.370944
0.371167
0.371389
0.37161
0.371832
0.372053
0.372274
0.372494
0.372714
0.372934
0.373154
0.373373
0.373592
0.373811
0.374029
0.374248
0.374466
0.374683
0.3749
0.375117
0.375334
0.375551
0.375767
0.375983
0.376198
0.376414
0.376629
0.376843
0.377058
0.377272
0.377486
0.3777
0.377913
0.378126
0.378339
0.378552
0.378764
0.378976
0.379188
0.379399
0.37961
0.379821
0.380032
0.380242
0.380452
0.380662
0.380872
0.381081
0.38129
0.381499
0.381707
0.381916
0.382124
0.382331
0.382539
0.382746
0.382953
0.38316
0.383366
0.383572
0.383778
0.383984
0.384189
0.384395
0.384599
0.384804
0.385009
0.385213
0.385417
0.38562
0.385824
0.386027
0.38623
0.386432
0.386635
0.386837
0.387039
0.38724
0.387442
0.387643
0.387844
0.388044
0.388245
0.388445
0.388645
0.388845
0.389044
0.389243
0.389442
0.389641
0.389839
0.390038
0.390236
0.390433
0.390631
0.390828
0.391025
0.391222
0.391419
0.391615
0.391811
0.392007
0.392203
0.392398
0.392593
0.392788
0.392983
0.393178
0.393373
0.393568
0.393759
0.393942
0.394122
0.394328
0.394608
0.394953
0.395142
0.394687
0.39336
0.392654
0.397166
0.41194
0.428022
0.403841
0.310008
0.201014
0.140948
0.122635
0.118741
0.117907
0.117606
0.117393
0.117175
0.117156
0.117259
0.117317
0.117284
0.117231
0.117174
0.117118
0.117067
0.117029
0.117006
0.116991
0.116981
0.116976
0.116985
0.117006
0.117035
0.117074
0.117122
0.11718
0.117248
0.117326
0.117413
0.117508
0.11761
0.117723
0.117848
0.117985
0.118134
0.118291
0.118456
0.118633
0.118821
0.119023
0.119233
0.119452
0.119682
0.119921
0.12017
0.120434
0.120713
0.120999
0.121298
0.121615
0.121943
0.122283
0.122636
0.123001
0.123377
0.123768
0.124176
0.124596
0.12503
0.12548
0.125949
0.126436
0.12694
0.127458
0.127996
0.12855
0.129121
0.129714
0.13033
0.130971
0.131633
0.132315
0.133019
0.133745
0.1345
0.135285
0.136103
0.13695
0.137829
0.138744
0.139693
0.140679
0.141707
0.142777
0.143894
0.145063
0.146292
0.147583
0.148939
0.15036
0.151855
0.153437
0.155114
0.156901
0.158817
0.160887
0.163137
0.16561
0.168378
0.171553
0.17534
0.18011
0.186531
0.195758
0.209554
0.229939
0.257075
0.283224
0.306869
0.307235
0.307601
0.307965
0.308329
0.308692
0.309053
0.309414
0.309774
0.310133
0.310491
0.310848
0.311205
0.31156
0.311914
0.312268
0.312621
0.312973
0.313324
0.313674
0.314023
0.314371
0.314719
0.315066
0.315412
0.315757
0.316101
0.316445
0.316787
0.317129
0.31747
0.317811
0.31815
0.318489
0.318827
0.319164
0.3195
0.319836
0.320171
0.320505
0.320838
0.321171
0.321503
0.321834
0.322165
0.322494
0.322823
0.323152
0.323479
0.323806
0.324132
0.324458
0.324783
0.325107
0.32543
0.325753
0.326075
0.326396
0.326717
0.327037
0.327356
0.327675
0.327993
0.328311
0.328627
0.328943
0.329259
0.329574
0.329888
0.330201
0.330514
0.330827
0.331138
0.331449
0.33176
0.33207
0.332379
0.332688
0.332996
0.333303
0.333609
0.333914
0.334219
0.334529
0.334848
0.335169
0.33546
0.33566
0.335756
0.335812
0.335868
0.335924
0.335979
0.336035
0.336091
0.336146
0.336202
0.336258
0.336313
0.336369
0.336424
0.336479
0.336535
0.33659
0.336645
0.336701
0.336756
0.336811
0.336866
0.336921
0.336977
0.337032
0.337087
0.337142
0.337197
0.337252
0.337307
0.337361
0.337416
0.337471
0.337526
0.337581
0.337635
0.33769
0.337745
0.337799
0.337854
0.337909
0.337963
0.338018
0.338072
0.338127
0.338181
0.338236
0.33829
0.338344
0.338399
0.338453
0.338507
0.338561
0.338616
0.33867
0.338724
0.338778
0.338832
0.338886
0.33894
0.338994
0.339048
0.339102
0.339156
0.33921
0.339264
0.339318
0.339372
0.339426
0.33948
0.339533
0.339587
0.339641
0.339695
0.339748
0.339802
0.339856
0.339909
0.339963
0.340017
0.34007
0.340124
0.340177
0.340231
0.340285
0.340338
0.340392
0.340445
0.340499
0.340552
0.340606
0.340659
0.340713
0.340766
0.34082
0.340873
0.340927
0.34098
0.341034
0.341087
0.341141
0.341195
0.341248
0.341302
0.341355
0.341409
0.341462
0.341516
0.341569
0.341623
0.341677
0.34173
0.341784
0.341837
0.341891
0.341944
0.341998
0.342052
0.342105
0.342159
0.342213
0.342266
0.34232
0.342373
0.342427
0.342481
0.342534
0.342588
0.342641
0.342695
0.342748
0.342802
0.342855
0.342909
0.342962
0.343016
0.343069
0.343123
0.343176
0.34323
0.343283
0.343336
0.34339
0.343443
0.343496
0.343549
0.343602
0.343656
0.343709
0.343762
0.343815
0.343868
0.343921
0.343974
0.344027
0.34408
0.344132
0.344185
0.344238
0.344291
0.344343
0.344396
0.344449
0.344501
0.344554
0.344606
0.344658
0.344711
0.344763
0.344816
0.344867
0.344917
0.344966
0.345019
0.345088
0.345183
0.345267
0.34522
0.344876
0.344331
0.344551
0.347656
0.354978
0.360299
0.342977
0.28481
0.205577
0.14716
0.122182
0.115504
0.114164
0.113895
0.113814
0.113765
0.113721
0.113679
0.113637
0.113595
0.113553
0.113511
0.113469
0.113428
0.113386
0.113345
0.113304
0.113263
0.113222
0.113181
0.11314
0.1131
0.113059
0.113019
0.112979
0.112939
0.112899
0.112859
0.112819
0.112779
0.11274
0.1127
0.112661
0.112622
0.112583
0.112544
0.112505
0.112466
0.112428
0.112389
0.112351
0.112313
0.112275
0.112237
0.112199
0.112161
0.112123
0.112086
0.112049
0.112011
0.111974
0.111937
0.1119
0.111864
0.111827
0.11179
0.111754
0.111718
0.111682
0.111646
0.11161
0.111574
0.111539
0.111504
0.111468
0.111433
0.111398
0.111363
0.111329
0.111294
0.11126
0.111226
0.111192
0.111158
0.111124
0.11109
0.111057
0.111023
0.11099
0.110957
0.110924
0.110892
0.110859
0.110827
0.110794
0.110762
0.11073
0.110699
0.110667
0.110636
0.110604
0.110573
0.110542
0.110512
0.110481
0.11045
0.11042
0.11039
0.11036
0.11033
0.110301
0.110271
0.110242
0.110213
0.110184
0.110155
0.110127
0.110098
0.11007
0.110042
0.110014
0.109987
0.109959
0.109934
0.109922
0.109933
0.109956
0.10998
0.110005
0.11003
0.110055
0.11008
0.110106
0.110131
0.110157
0.110183
0.110209
0.110236
0.110262
0.110289
0.110316
0.110343
0.110371
0.110399
0.110426
0.110455
0.110483
0.110512
0.11054
0.11057
0.110599
0.110628
0.110658
0.110688
0.110719
0.110749
0.11078
0.110811
0.110843
0.110875
0.110907
0.110939
0.110971
0.111004
0.111037
0.111071
0.111104
0.111138
0.111172
0.111207
0.111242
0.111277
0.111312
0.111348
0.111384
0.11142
0.111456
0.111493
0.11153
0.111567
0.111605
0.111642
0.111681
0.111719
0.111757
0.111796
0.111835
0.111875
0.111914
0.111954
0.111994
0.112035
0.112075
0.112116
0.112157
0.112199
0.11224
0.112282
0.112324
0.112367
0.112409
0.112452
0.112495
0.112538
0.112582
0.112625
0.112669
0.112713
0.112758
0.112802
0.112847
0.112892
0.112938
0.112983
0.113029
0.113075
0.113121
0.113168
0.113214
0.113261
0.113308
0.113355
0.113403
0.113451
0.113499
0.113547
0.113596
0.113645
0.113694
0.113743
0.113792
0.113842
0.113892
0.113942
0.113993
0.114044
0.114095
0.114146
0.114198
0.114249
0.114302
0.114354
0.114407
0.11446
0.114513
0.114566
0.11462
0.114674
0.114729
0.114783
0.114838
0.114893
0.114949
0.115005
0.115061
0.115118
0.115174
0.115232
0.115289
0.115347
0.115405
0.115463
0.115522
0.115581
0.11564
0.1157
0.11576
0.115821
0.115881
0.115942
0.116004
0.116065
0.116128
0.11619
0.116253
0.116316
0.116379
0.116443
0.116507
0.116572
0.116637
0.116702
0.116767
0.116833
0.1169
0.116966
0.117033
0.1171
0.117168
0.117236
0.117305
0.117373
0.117442
0.117512
0.117582
0.117652
0.117722
0.117793
0.117864
0.117936
0.118008
0.11808
0.118152
0.118225
0.118299
0.118372
0.118446
0.11852
0.118595
0.11867
0.118745
0.118821
0.118897
0.118973
0.11905
0.119127
0.119204
0.119282
0.11936
0.119438
0.119517
0.119596
0.119675
0.119754
0.119834
0.119915
0.119995
0.120076
0.120157
0.120239
0.12032
0.120402
0.120485
0.120567
0.12065
0.120734
0.120817
0.120901
0.120985
0.12107
0.121154
0.121239
0.121325
0.12141
0.121496
0.121582
0.121668
0.121755
0.121842
0.121929
0.122017
0.122104
0.122192
0.122281
0.122369
0.122458
0.122547
0.122636
0.122726
0.122816
0.122906
0.122996
0.123086
0.123177
0.123268
0.123359
0.123451
0.123542
0.123634
0.123726
0.123819
0.123911
0.124004
0.124097
0.12419
0.124284
0.124377
0.124471
0.124565
0.12466
0.124754
0.124849
0.124944
0.125039
0.125134
0.12523
0.125325
0.125421
0.125517
0.125613
0.12571
0.125806
0.125903
0.126
0.126097
0.126195
0.126292
0.12639
0.126488
0.126586
0.126684
0.126782
0.126881
0.126979
0.127078
0.127177
0.127276
0.127375
0.127475
0.127574
0.127674
0.127774
0.127874
0.127974
0.128074
0.128175
0.128275
0.128376
0.128477
0.128578
0.128679
0.12878
0.128881
0.128983
0.129084
0.129186
0.129288
0.12939
0.129492
0.129594
0.129696
0.129799
0.129901
0.130004
0.130107
0.130209
0.130312
0.130415
0.130519
0.130622
0.130725
0.130829
0.130932
0.131036
0.13114
0.131243
0.131347
0.131451
0.131555
0.13166
0.131764
0.131868
0.131973
0.132077
0.132182
0.132287
0.132391
0.132496
0.132601
0.132706
0.132811
0.132917
0.133022
0.133127
0.133233
0.133338
0.133444
0.133549
0.133655
0.133761
0.133867
0.133973
0.134079
0.134185
0.134291
0.134398
0.134504
0.13461
0.134717
0.134824
0.13493
0.135037
0.135144
0.135251
0.135358
0.135465
0.135573
0.13568
0.135787
0.135895
0.136003
0.13611
0.136218
0.136326
0.136434
0.136543
0.136651
0.13676
0.136868
0.136977
0.137086
0.137195
0.137304
0.137414
0.137523
0.137633
0.137743
0.137853
0.137964
0.138074
0.138185
0.138296
0.138407
0.138519
0.13863
0.138742
0.138855
0.138967
0.13908
0.139193
0.139306
0.13942
0.139534
0.139648
0.139762
0.139877
0.139992
0.140108
0.140224
0.14034
0.140457
0.140574
0.140691
0.140809
0.140927
0.141046
0.141165
0.141284
0.141404
0.141524
0.141645
0.141766
0.141887
0.142009
0.142132
0.142254
0.142378
0.142501
0.142625
0.14275
0.142875
0.143
0.143126
0.143252
0.143378
0.143505
0.143633
0.14376
0.143888
0.144017
0.144145
0.144274
0.144404
0.144533
0.144663
0.144793
0.144924
0.145055
0.145185
0.145317
0.145448
0.145579
0.145711
0.145842
0.145974
0.146106
0.146238
0.146369
0.146501
0.146633
0.146764
0.146896
0.147027
0.147158
0.147289
0.14742
0.147551
0.147681
0.147811
0.14794
0.148069
0.148198
0.148326
0.148454
0.148581
0.148708
0.148834
0.14896
0.149084
0.149209
0.149332
0.149455
0.149577
0.149698
0.149818
0.149937
0.150055
0.150173
0.150289
0.150405
0.150519
0.150633
0.150745
0.150856
0.150966
0.151075
0.151183
0.151289
0.151394
0.151498
0.151601
0.151703
0.151803
0.151902
0.151999
0.152096
0.152191
0.152284
0.152376
0.152467
0.152557
0.152645
0.152732
0.152817
0.152902
0.152984
0.153066
0.153146
0.153225
0.153302
0.153379
0.153454
0.153528
0.1536
0.153672
0.153742
0.153811
0.15388
0.153947
0.154013
0.154078
0.154142
0.154205
0.154267
0.154328
0.154389
0.154449
0.154508
0.154566
0.154624
0.154681
0.154737
0.154793
0.154849
0.154904
0.154959
0.155013
0.155067
0.155121
0.155174
0.155227
0.15528
0.155333
0.155386
0.155439
0.155492
0.155545
0.155598
0.15565
0.155703
0.155757
0.15581
0.155863
0.155917
0.155971
0.156025
0.156079
0.156133
0.156188
0.156243
0.156298
0.156353
0.156409
0.156465
0.156522
0.156578
0.156635
0.156692
0.156749
0.156807
0.156864
0.156922
0.15698
0.157039
0.157097
0.157156
0.157214
0.157273
0.157332
0.157391
0.15745
0.157509
0.157567
0.157626
0.157684
0.157743
0.157801
0.157859
0.157917
0.157974
0.158031
0.158088
0.158144
0.158199
0.158254
0.158309
0.158363
0.158416
0.158469
0.15852
0.158571
0.158621
0.158671
0.158719
0.158766
0.158812
0.158857
0.1589
0.158943
0.158984
0.159024
0.159062
0.159099
0.159135
0.159169
0.159201
0.159231
0.15926
0.159287
0.159313
0.159336
0.159357
0.159377
0.159394
0.15941
0.159423
0.159434
0.159443
0.15945
0.159455
0.159457
0.159457
0.159455
0.159451
0.159444
0.159435
0.159423
0.159409
0.159393
0.159375
0.159354
0.15933
0.159305
0.159277
0.159247
0.159215
0.15918
0.159144
0.159105
0.159064
0.159021
0.158977
0.15893
0.158882
0.158832
0.15878
0.158726
0.158671
0.158615
0.158557
0.158498
0.158437
0.158376
0.158313
0.15825
0.158186
0.15812
0.158055
0.157988
0.157921
0.157853
0.157786
0.157717
0.157649
0.15758
0.157512
0.157443
0.157374
0.157306
0.157237
0.157169
0.157101
0.157034
0.156966
0.1569
0.156833
0.156768
0.156702
0.156638
0.156574
0.15651
0.156447
0.156385
0.156324
0.156263
0.156203
0.156143
0.156085
0.156027
0.15597
0.155914
0.155858
0.155803
0.155749
0.155696
0.155643
0.155592
0.15554
0.15549
0.155441
0.155392
0.155344
0.155296
0.15525
0.155204
0.155158
0.155114
0.15507
0.155026
0.154984
0.154942
0.1549
0.154859
0.154819
0.15478
0.154741
0.154702
0.154664
0.154627
0.15459
0.154554
0.154518
0.154483
0.154448
0.154413
0.15438
0.154346
0.154313
0.154281
0.154249
0.154217
0.154186
0.154155
0.154125
0.154095
0.154065
0.154036
0.154007
0.153979
0.153951
0.153923
0.153895
0.153868
0.153842
0.153815
0.153789
0.153763
0.153738
0.153712
0.153688
0.153663
0.153639
0.153615
0.153591
0.153567
0.153544
0.153521
0.153499
0.153476
0.153454
0.153432
0.15341
0.153389
0.153368
0.153347
0.153326
0.153306
0.153286
0.153266
0.153246
0.153226
0.153207
0.153188
0.153169
0.15315
0.153132
0.153114
0.153096
0.153078
0.15306
0.153043
0.153026
0.153009
0.152992
0.152976
0.15296
0.152943
0.152928
0.152912
0.152897
0.152881
0.152866
0.152851
0.152837
0.152822
0.152808
0.152794
0.15278
0.152767
0.152753
0.15274
0.152727
0.152715
0.152702
0.15269
0.152678
0.152666
0.152654
0.152642
0.152631
0.15262
0.152609
0.152598
0.152588
0.152577
0.152567
0.152557
0.152547
0.152538
0.152528
0.152519
0.15251
0.152501
0.152492
0.152484
0.152475
0.152467
0.152459
0.152451
0.152443
0.152436
0.152428
0.152421
0.152413
0.152406
0.152399
0.152392
0.152386
0.152379
0.152372
0.152366
0.152359
0.152353
0.152347
0.152341
0.152335
0.152329
0.152323
0.152317
0.152311
0.152305
0.152299
0.152294
0.152288
0.152282
0.152277
0.152271
0.152265
0.15226
0.152254
0.152249
0.152243
0.152237
0.152232
0.152226
0.152221
0.152215
0.152209
0.152204
0.152198
0.152192
0.152187
0.152181
0.152176
0.15217
0.152164
0.152158
0.152153
0.152147
0.152141
0.152136
0.15213
0.152124
0.152118
0.152113
0.152107
0.152101
0.152095
0.152089
0.152084
0.152078
0.152072
0.152067
0.152061
0.152055
0.152049
0.152044
0.152038
0.152033
0.152027
0.152021
0.152016
0.15201
0.152005
0.152
0.151994
0.151989
0.151984
0.151978
0.151973
0.151968
0.151963
0.151958
0.151953
0.151948
0.151943
0.151938
)
;

boundaryField
{
    inlet
    {
        type            calculated;
        value           uniform -0.0722266;
    }
    outlet
    {
        type            calculated;
        value           uniform 0.151936;
    }
    right
    {
        type            empty;
    }
    left
    {
        type            empty;
    }
    atmosphere
    {
        type            empty;
    }
    bottomWall
    {
        type            empty;
    }
}


// ************************************************************************* //
