/*--------------------------------*- C++ -*----------------------------------*\
| =========                 |                                                 |
| \\      /  F ield         | foam-extend: Open Source CFD                    |
|  \\    /   O peration     | Version:     3.1                                |
|   \\  /    A nd           | Web:         http://www.extend-project.de       |
|    \\/     M anipulation  |                                                 |
\*---------------------------------------------------------------------------*/
FoamFile
{
    version     2.0;
    format      ascii;
    class       volVectorField;
    location    "10";
    object      U;
}
// * * * * * * * * * * * * * * * * * * * * * * * * * * * * * * * * * * * * * //

dimensions      [0 1 -1 0 0 0 0];

internalField   nonuniform List<vector> 
2539
(
(0.722094 0 0)
(0.722528 0 0)
(0.723365 0 0)
(0.724184 0 0)
(0.725006 0 0)
(0.725831 0 0)
(0.726657 0 0)
(0.727485 0 0)
(0.728315 0 0)
(0.729147 0 0)
(0.729981 0 0)
(0.730816 0 0)
(0.731654 0 0)
(0.732494 0 0)
(0.733336 0 0)
(0.734179 0 0)
(0.735025 0 0)
(0.735873 0 0)
(0.736722 0 0)
(0.737574 0 0)
(0.738428 0 0)
(0.739284 0 0)
(0.740141 0 0)
(0.741001 0 0)
(0.741863 0 0)
(0.742727 0 0)
(0.743593 0 0)
(0.744462 0 0)
(0.745332 0 0)
(0.746204 0 0)
(0.747079 0 0)
(0.747956 0 0)
(0.748834 0 0)
(0.749715 0 0)
(0.750598 0 0)
(0.751484 0 0)
(0.752371 0 0)
(0.753261 0 0)
(0.754152 0 0)
(0.755046 0 0)
(0.755943 0 0)
(0.756841 0 0)
(0.757742 0 0)
(0.758645 0 0)
(0.75955 0 0)
(0.760457 0 0)
(0.761367 0 0)
(0.762279 0 0)
(0.763193 0 0)
(0.76411 0 0)
(0.765028 0 0)
(0.76595 0 0)
(0.766873 0 0)
(0.767799 0 0)
(0.768727 0 0)
(0.769658 0 0)
(0.770591 0 0)
(0.771526 0 0)
(0.772464 0 0)
(0.773404 0 0)
(0.774347 0 0)
(0.775292 0 0)
(0.776239 0 0)
(0.777189 0 0)
(0.778141 0 0)
(0.779096 0 0)
(0.780054 0 0)
(0.781013 0 0)
(0.781976 0 0)
(0.782941 0 0)
(0.783908 0 0)
(0.784878 0 0)
(0.78585 0 0)
(0.786826 0 0)
(0.787803 0 0)
(0.788784 0 0)
(0.789766 0 0)
(0.790752 0 0)
(0.79174 0 0)
(0.792731 0 0)
(0.793724 0 0)
(0.794721 0 0)
(0.795719 0 0)
(0.796721 0 0)
(0.797725 0 0)
(0.798732 0 0)
(0.799742 0 0)
(0.800754 0 0)
(0.80177 0 0)
(0.802788 0 0)
(0.803809 0 0)
(0.804832 0 0)
(0.805859 0 0)
(0.806888 0 0)
(0.80792 0 0)
(0.808955 0 0)
(0.809993 0 0)
(0.811034 0 0)
(0.812078 0 0)
(0.813125 0 0)
(0.814175 0 0)
(0.815227 0 0)
(0.816283 0 0)
(0.817341 0 0)
(0.818403 0 0)
(0.819468 0 0)
(0.820535 0 0)
(0.821606 0 0)
(0.82268 0 0)
(0.823757 0 0)
(0.824837 0 0)
(0.82592 0 0)
(0.827007 0 0)
(0.828096 0 0)
(0.829189 0 0)
(0.830285 0 0)
(0.831384 0 0)
(0.832486 0 0)
(0.833591 0 0)
(0.8347 0 0)
(0.835812 0 0)
(0.836928 0 0)
(0.838047 0 0)
(0.839169 0 0)
(0.840294 0 0)
(0.841423 0 0)
(0.842555 0 0)
(0.843691 0 0)
(0.84483 0 0)
(0.845972 0 0)
(0.847118 0 0)
(0.848268 0 0)
(0.849421 0 0)
(0.850577 0 0)
(0.851737 0 0)
(0.852901 0 0)
(0.854068 0 0)
(0.855239 0 0)
(0.856414 0 0)
(0.857592 0 0)
(0.858773 0 0)
(0.859959 0 0)
(0.861148 0 0)
(0.862341 0 0)
(0.863538 0 0)
(0.864739 0 0)
(0.865943 0 0)
(0.867151 0 0)
(0.868363 0 0)
(0.869579 0 0)
(0.870799 0 0)
(0.872023 0 0)
(0.87325 0 0)
(0.874482 0 0)
(0.875718 0 0)
(0.876957 0 0)
(0.878201 0 0)
(0.879449 0 0)
(0.880701 0 0)
(0.881957 0 0)
(0.883217 0 0)
(0.884481 0 0)
(0.88575 0 0)
(0.887022 0 0)
(0.888299 0 0)
(0.889581 0 0)
(0.890866 0 0)
(0.892156 0 0)
(0.89345 0 0)
(0.894749 0 0)
(0.896052 0 0)
(0.897359 0 0)
(0.898671 0 0)
(0.899988 0 0)
(0.901308 0 0)
(0.902634 0 0)
(0.903964 0 0)
(0.905299 0 0)
(0.906638 0 0)
(0.907982 0 0)
(0.90933 0 0)
(0.910684 0 0)
(0.912042 0 0)
(0.913405 0 0)
(0.914772 0 0)
(0.916758 0 0)
(0.918497 0 0)
(0.919008 0 0)
(0.919458 0 0)
(0.919905 0 0)
(0.920352 0 0)
(0.9208 0 0)
(0.921248 0 0)
(0.921696 0 0)
(0.922145 0 0)
(0.922595 0 0)
(0.923045 0 0)
(0.923495 0 0)
(0.923946 0 0)
(0.924398 0 0)
(0.92485 0 0)
(0.925302 0 0)
(0.925755 0 0)
(0.926208 0 0)
(0.926662 0 0)
(0.927116 0 0)
(0.927571 0 0)
(0.928026 0 0)
(0.928482 0 0)
(0.928938 0 0)
(0.929394 0 0)
(0.929851 0 0)
(0.930309 0 0)
(0.930767 0 0)
(0.931226 0 0)
(0.931685 0 0)
(0.932144 0 0)
(0.932604 0 0)
(0.933064 0 0)
(0.933525 0 0)
(0.933987 0 0)
(0.934449 0 0)
(0.934911 0 0)
(0.935374 0 0)
(0.935837 0 0)
(0.936301 0 0)
(0.936765 0 0)
(0.93723 0 0)
(0.937695 0 0)
(0.938161 0 0)
(0.938627 0 0)
(0.939094 0 0)
(0.939561 0 0)
(0.940029 0 0)
(0.940497 0 0)
(0.940966 0 0)
(0.941435 0 0)
(0.941905 0 0)
(0.942375 0 0)
(0.942846 0 0)
(0.943317 0 0)
(0.943788 0 0)
(0.944261 0 0)
(0.944733 0 0)
(0.945206 0 0)
(0.94568 0 0)
(0.946154 0 0)
(0.946629 0 0)
(0.947104 0 0)
(0.94758 0 0)
(0.948056 0 0)
(0.948533 0 0)
(0.94901 0 0)
(0.949488 0 0)
(0.949966 0 0)
(0.950444 0 0)
(0.950924 0 0)
(0.951403 0 0)
(0.951884 0 0)
(0.952364 0 0)
(0.952846 0 0)
(0.953327 0 0)
(0.95381 0 0)
(0.954292 0 0)
(0.954776 0 0)
(0.955259 0 0)
(0.955744 0 0)
(0.956229 0 0)
(0.956714 0 0)
(0.9572 0 0)
(0.957686 0 0)
(0.958173 0 0)
(0.958661 0 0)
(0.959149 0 0)
(0.959637 0 0)
(0.960126 0 0)
(0.960616 0 0)
(0.961106 0 0)
(0.961596 0 0)
(0.962087 0 0)
(0.962579 0 0)
(0.963071 0 0)
(0.963564 0 0)
(0.964057 0 0)
(0.964551 0 0)
(0.965045 0 0)
(0.96554 0 0)
(0.966035 0 0)
(0.966531 0 0)
(0.967028 0 0)
(0.967525 0 0)
(0.968022 0 0)
(0.96852 0 0)
(0.969019 0 0)
(0.969518 0 0)
(0.970018 0 0)
(0.970518 0 0)
(0.971019 0 0)
(0.97152 0 0)
(0.972022 0 0)
(0.972524 0 0)
(0.973027 0 0)
(0.973531 0 0)
(0.974035 0 0)
(0.974539 0 0)
(0.975045 0 0)
(0.97555 0 0)
(0.976057 0 0)
(0.976563 0 0)
(0.977071 0 0)
(0.977579 0 0)
(0.978087 0 0)
(0.978596 0 0)
(0.979106 0 0)
(0.979616 0 0)
(0.980127 0 0)
(0.980638 0 0)
(0.98115 0 0)
(0.981662 0 0)
(0.982175 0 0)
(0.982689 0 0)
(0.983203 0 0)
(0.983718 0 0)
(0.984233 0 0)
(0.984749 0 0)
(0.985266 0 0)
(0.985783 0 0)
(0.9863 0 0)
(0.986818 0 0)
(0.987337 0 0)
(0.987856 0 0)
(0.988376 0 0)
(0.988897 0 0)
(0.989418 0 0)
(0.98994 0 0)
(0.990462 0 0)
(0.990985 0 0)
(0.991508 0 0)
(0.992032 0 0)
(0.992557 0 0)
(0.993082 0 0)
(0.993608 0 0)
(0.994134 0 0)
(0.994661 0 0)
(0.995189 0 0)
(0.995717 0 0)
(0.996246 0 0)
(0.996776 0 0)
(0.997306 0 0)
(0.997836 0 0)
(0.998368 0 0)
(0.998899 0 0)
(0.999432 0 0)
(0.999965 0 0)
(1.0005 0 0)
(1.00103 0 0)
(1.00157 0 0)
(1.0021 0 0)
(1.00264 0 0)
(1.00318 0 0)
(1.00371 0 0)
(1.00425 0 0)
(1.00479 0 0)
(1.00533 0 0)
(1.00587 0 0)
(1.00641 0 0)
(1.00695 0 0)
(1.00749 0 0)
(1.00804 0 0)
(1.00858 0 0)
(1.00912 0 0)
(1.00967 0 0)
(1.01021 0 0)
(1.01076 0 0)
(1.0113 0 0)
(1.01185 0 0)
(1.0124 0 0)
(1.01295 0 0)
(1.0135 0 0)
(1.01404 0 0)
(1.01459 0 0)
(1.01515 0 0)
(1.0157 0 0)
(1.01623 0 0)
(1.01712 0 0)
(1.01014 0 0)
(1.06761 0 0)
(1.13752 0 0)
(1.18178 0 0)
(1.21011 0 0)
(1.23024 0 0)
(1.24596 0 0)
(1.25913 0 0)
(1.27074 0 0)
(1.28133 0 0)
(1.2912 0 0)
(1.30054 0 0)
(1.30947 0 0)
(1.31807 0 0)
(1.32639 0 0)
(1.33447 0 0)
(1.34235 0 0)
(1.35005 0 0)
(1.35759 0 0)
(1.36499 0 0)
(1.37226 0 0)
(1.37942 0 0)
(1.38647 0 0)
(1.39343 0 0)
(1.4003 0 0)
(1.40709 0 0)
(1.4138 0 0)
(1.42045 0 0)
(1.42703 0 0)
(1.43356 0 0)
(1.44003 0 0)
(1.44645 0 0)
(1.45282 0 0)
(1.45915 0 0)
(1.46544 0 0)
(1.47169 0 0)
(1.47791 0 0)
(1.48409 0 0)
(1.49024 0 0)
(1.49636 0 0)
(1.50246 0 0)
(1.50853 0 0)
(1.51458 0 0)
(1.52061 0 0)
(1.52662 0 0)
(1.53261 0 0)
(1.53858 0 0)
(1.54454 0 0)
(1.55049 0 0)
(1.55643 0 0)
(1.56235 0 0)
(1.56827 0 0)
(1.57417 0 0)
(1.58007 0 0)
(1.58597 0 0)
(1.59186 0 0)
(1.59775 0 0)
(1.60364 0 0)
(1.60952 0 0)
(1.61541 0 0)
(1.6213 0 0)
(1.62719 0 0)
(1.63309 0 0)
(1.639 0 0)
(1.64491 0 0)
(1.65084 0 0)
(1.65677 0 0)
(1.66272 0 0)
(1.66869 0 0)
(1.67467 0 0)
(1.68067 0 0)
(1.68669 0 0)
(1.69274 0 0)
(1.69882 0 0)
(1.70492 0 0)
(1.71106 0 0)
(1.71724 0 0)
(1.72347 0 0)
(1.72974 0 0)
(1.73606 0 0)
(1.74244 0 0)
(1.7489 0 0)
(1.75543 0 0)
(1.76205 0 0)
(1.76878 0 0)
(1.77562 0 0)
(1.78261 0 0)
(1.78976 0 0)
(1.79712 0 0)
(1.80471 0 0)
(1.8126 0 0)
(1.82085 0 0)
(1.82955 0 0)
(1.8388 0 0)
(1.84874 0 0)
(1.85953 0 0)
(1.87136 0 0)
(1.88443 0 0)
(1.89893 0 0)
(1.91498 0 0)
(1.95855 0 0)
(1.97903 0 0)
(1.99817 0 0)
(2.01619 0 0)
(2.03323 0 0)
(2.04944 0 0)
(2.06491 0 0)
(2.07972 0 0)
(2.09396 0 0)
(2.10769 0 0)
(2.12094 0 0)
(2.13377 0 0)
(2.14621 0 0)
(2.15829 0 0)
(2.17005 0 0)
(2.18151 0 0)
(2.19269 0 0)
(2.2036 0 0)
(2.21428 0 0)
(2.22473 0 0)
(2.23496 0 0)
(2.245 0 0)
(2.25485 0 0)
(2.26452 0 0)
(2.27402 0 0)
(2.28336 0 0)
(2.29256 0 0)
(2.3016 0 0)
(2.31051 0 0)
(2.31929 0 0)
(2.32795 0 0)
(2.33648 0 0)
(2.3449 0 0)
(2.35321 0 0)
(2.36141 0 0)
(2.36952 0 0)
(2.37752 0 0)
(2.38544 0 0)
(2.39326 0 0)
(2.40099 0 0)
(2.40864 0 0)
(2.41621 0 0)
(2.4237 0 0)
(2.43112 0 0)
(2.43846 0 0)
(2.44573 0 0)
(2.45293 0 0)
(2.46006 0 0)
(2.46713 0 0)
(2.47414 0 0)
(2.48108 0 0)
(2.48796 0 0)
(2.49479 0 0)
(2.50156 0 0)
(2.50827 0 0)
(2.51493 0 0)
(2.52153 0 0)
(2.52809 0 0)
(2.5346 0 0)
(2.54105 0 0)
(2.54746 0 0)
(2.55383 0 0)
(2.56014 0 0)
(2.56642 0 0)
(2.57265 0 0)
(2.57883 0 0)
(2.58498 0 0)
(2.59109 0 0)
(2.59715 0 0)
(2.60318 0 0)
(2.60916 0 0)
(2.61512 0 0)
(2.62103 0 0)
(2.62691 0 0)
(2.63275 0 0)
(2.63856 0 0)
(2.64433 0 0)
(2.65007 0 0)
(2.65578 0 0)
(2.66145 0 0)
(2.6671 0 0)
(2.67271 0 0)
(2.67829 0 0)
(2.68384 0 0)
(2.68937 0 0)
(2.69486 0 0)
(2.70032 0 0)
(2.70576 0 0)
(2.71117 0 0)
(2.71655 0 0)
(2.72191 0 0)
(2.72723 0 0)
(2.73253 0 0)
(2.73781 0 0)
(2.74306 0 0)
(2.74832 0 0)
(2.75359 0 0)
(2.75886 0 0)
(2.76398 0 0)
(2.76862 0 0)
(2.77244 0 0)
(2.77576 0 0)
(2.77907 0 0)
(2.78238 0 0)
(2.78567 0 0)
(2.78895 0 0)
(2.79222 0 0)
(2.79549 0 0)
(2.79874 0 0)
(2.80198 0 0)
(2.80522 0 0)
(2.80844 0 0)
(2.81166 0 0)
(2.81487 0 0)
(2.81806 0 0)
(2.82125 0 0)
(2.82443 0 0)
(2.8276 0 0)
(2.83076 0 0)
(2.83391 0 0)
(2.83706 0 0)
(2.84019 0 0)
(2.84332 0 0)
(2.84644 0 0)
(2.84955 0 0)
(2.85265 0 0)
(2.85574 0 0)
(2.85883 0 0)
(2.8619 0 0)
(2.86497 0 0)
(2.86803 0 0)
(2.87108 0 0)
(2.87413 0 0)
(2.87716 0 0)
(2.88019 0 0)
(2.88321 0 0)
(2.88623 0 0)
(2.88923 0 0)
(2.89223 0 0)
(2.89522 0 0)
(2.8982 0 0)
(2.90118 0 0)
(2.90414 0 0)
(2.9071 0 0)
(2.91006 0 0)
(2.913 0 0)
(2.91594 0 0)
(2.91887 0 0)
(2.9218 0 0)
(2.92472 0 0)
(2.92763 0 0)
(2.93053 0 0)
(2.93343 0 0)
(2.93632 0 0)
(2.9392 0 0)
(2.94207 0 0)
(2.94494 0 0)
(2.94781 0 0)
(2.95066 0 0)
(2.95351 0 0)
(2.95636 0 0)
(2.95919 0 0)
(2.96202 0 0)
(2.96485 0 0)
(2.96766 0 0)
(2.97047 0 0)
(2.97328 0 0)
(2.97608 0 0)
(2.97887 0 0)
(2.98165 0 0)
(2.98443 0 0)
(2.98721 0 0)
(2.98997 0 0)
(2.99273 0 0)
(2.99549 0 0)
(2.99824 0 0)
(3.00098 0 0)
(3.00372 0 0)
(3.00645 0 0)
(3.00918 0 0)
(3.0119 0 0)
(3.01461 0 0)
(3.01732 0 0)
(3.02002 0 0)
(3.02272 0 0)
(3.02541 0 0)
(3.0281 0 0)
(3.03078 0 0)
(3.03345 0 0)
(3.03612 0 0)
(3.03878 0 0)
(3.04144 0 0)
(3.04409 0 0)
(3.04674 0 0)
(3.04938 0 0)
(3.05202 0 0)
(3.05465 0 0)
(3.05728 0 0)
(3.0599 0 0)
(3.06251 0 0)
(3.06512 0 0)
(3.06773 0 0)
(3.07033 0 0)
(3.07292 0 0)
(3.07551 0 0)
(3.0781 0 0)
(3.08068 0 0)
(3.08325 0 0)
(3.08582 0 0)
(3.08839 0 0)
(3.09095 0 0)
(3.0935 0 0)
(3.09605 0 0)
(3.0986 0 0)
(3.10114 0 0)
(3.10367 0 0)
(3.1062 0 0)
(3.10873 0 0)
(3.11125 0 0)
(3.11376 0 0)
(3.11628 0 0)
(3.11878 0 0)
(3.12128 0 0)
(3.12378 0 0)
(3.12627 0 0)
(3.12876 0 0)
(3.13125 0 0)
(3.13373 0 0)
(3.1362 0 0)
(3.13867 0 0)
(3.14114 0 0)
(3.1436 0 0)
(3.14605 0 0)
(3.14851 0 0)
(3.15095 0 0)
(3.1534 0 0)
(3.15584 0 0)
(3.15827 0 0)
(3.1607 0 0)
(3.16313 0 0)
(3.16555 0 0)
(3.16797 0 0)
(3.17038 0 0)
(3.17279 0 0)
(3.17519 0 0)
(3.1776 0 0)
(3.17999 0 0)
(3.18238 0 0)
(3.18477 0 0)
(3.18716 0 0)
(3.18954 0 0)
(3.19191 0 0)
(3.19428 0 0)
(3.19665 0 0)
(3.19902 0 0)
(3.20137 0 0)
(3.20373 0 0)
(3.20608 0 0)
(3.20843 0 0)
(3.21077 0 0)
(3.21311 0 0)
(3.21545 0 0)
(3.21778 0 0)
(3.22011 0 0)
(3.22243 0 0)
(3.22475 0 0)
(3.22707 0 0)
(3.22938 0 0)
(3.23169 0 0)
(3.234 0 0)
(3.2363 0 0)
(3.23859 0 0)
(3.24089 0 0)
(3.24318 0 0)
(3.24546 0 0)
(3.24775 0 0)
(3.25002 0 0)
(3.2523 0 0)
(3.25457 0 0)
(3.25684 0 0)
(3.2591 0 0)
(3.26136 0 0)
(3.26362 0 0)
(3.26587 0 0)
(3.26812 0 0)
(3.27037 0 0)
(3.27261 0 0)
(3.27485 0 0)
(3.27709 0 0)
(3.27932 0 0)
(3.28155 0 0)
(3.28377 0 0)
(3.28599 0 0)
(3.28821 0 0)
(3.29043 0 0)
(3.29264 0 0)
(3.29484 0 0)
(3.29705 0 0)
(3.29925 0 0)
(3.30145 0 0)
(3.30364 0 0)
(3.30583 0 0)
(3.30802 0 0)
(3.3102 0 0)
(3.31238 0 0)
(3.31456 0 0)
(3.31673 0 0)
(3.31891 0 0)
(3.32107 0 0)
(3.32324 0 0)
(3.3254 0 0)
(3.32756 0 0)
(3.32971 0 0)
(3.33186 0 0)
(3.33401 0 0)
(3.33615 0 0)
(3.3383 0 0)
(3.34043 0 0)
(3.34257 0 0)
(3.3447 0 0)
(3.34683 0 0)
(3.34896 0 0)
(3.35108 0 0)
(3.3532 0 0)
(3.35531 0 0)
(3.35743 0 0)
(3.35954 0 0)
(3.36164 0 0)
(3.36375 0 0)
(3.36585 0 0)
(3.36795 0 0)
(3.37004 0 0)
(3.37213 0 0)
(3.37422 0 0)
(3.37631 0 0)
(3.37839 0 0)
(3.38047 0 0)
(3.38255 0 0)
(3.38462 0 0)
(3.38669 0 0)
(3.38876 0 0)
(3.39082 0 0)
(3.39289 0 0)
(3.39494 0 0)
(3.397 0 0)
(3.39905 0 0)
(3.4011 0 0)
(3.40315 0 0)
(3.4052 0 0)
(3.40724 0 0)
(3.40928 0 0)
(3.41131 0 0)
(3.41334 0 0)
(3.41538 0 0)
(3.4174 0 0)
(3.41943 0 0)
(3.42145 0 0)
(3.42347 0 0)
(3.42548 0 0)
(3.4275 0 0)
(3.42951 0 0)
(3.43152 0 0)
(3.43352 0 0)
(3.43552 0 0)
(3.43752 0 0)
(3.43952 0 0)
(3.44151 0 0)
(3.4435 0 0)
(3.44549 0 0)
(3.44748 0 0)
(3.44946 0 0)
(3.45144 0 0)
(3.45342 0 0)
(3.4554 0 0)
(3.45737 0 0)
(3.45934 0 0)
(3.4613 0 0)
(3.46327 0 0)
(3.46523 0 0)
(3.46719 0 0)
(3.46915 0 0)
(3.4711 0 0)
(3.47305 0 0)
(3.475 0 0)
(3.47695 0 0)
(3.47889 0 0)
(3.48083 0 0)
(3.48277 0 0)
(3.48471 0 0)
(3.48664 0 0)
(3.48857 0 0)
(3.4905 0 0)
(3.49242 0 0)
(3.49435 0 0)
(3.49627 0 0)
(3.49819 0 0)
(3.5001 0 0)
(3.50202 0 0)
(3.50393 0 0)
(3.50583 0 0)
(3.50774 0 0)
(3.50964 0 0)
(3.51154 0 0)
(3.51344 0 0)
(3.51534 0 0)
(3.51723 0 0)
(3.51912 0 0)
(3.52101 0 0)
(3.5229 0 0)
(3.52478 0 0)
(3.52666 0 0)
(3.52854 0 0)
(3.53042 0 0)
(3.53229 0 0)
(3.53416 0 0)
(3.53603 0 0)
(3.5379 0 0)
(3.53976 0 0)
(3.54163 0 0)
(3.54349 0 0)
(3.54534 0 0)
(3.5472 0 0)
(3.54905 0 0)
(3.5509 0 0)
(3.55275 0 0)
(3.55459 0 0)
(3.55644 0 0)
(3.55828 0 0)
(3.56012 0 0)
(3.56195 0 0)
(3.56379 0 0)
(3.56562 0 0)
(3.56745 0 0)
(3.56928 0 0)
(3.5711 0 0)
(3.57293 0 0)
(3.57475 0 0)
(3.57656 0 0)
(3.57838 0 0)
(3.58019 0 0)
(3.58201 0 0)
(3.58382 0 0)
(3.58562 0 0)
(3.58743 0 0)
(3.58924 0 0)
(3.59104 0 0)
(3.59283 0 0)
(3.59459 0 0)
(3.59631 0 0)
(3.59811 0 0)
(3.60023 0 0)
(3.60261 0 0)
(3.60498 0 0)
(3.60735 0 0)
(3.60971 0 0)
(3.61208 0 0)
(3.61444 0 0)
(3.61679 0 0)
(3.61914 0 0)
(3.62149 0 0)
(3.62384 0 0)
(3.62618 0 0)
(3.62852 0 0)
(3.63085 0 0)
(3.63318 0 0)
(3.63551 0 0)
(3.63784 0 0)
(3.64016 0 0)
(3.64248 0 0)
(3.64479 0 0)
(3.64711 0 0)
(3.64941 0 0)
(3.65172 0 0)
(3.65402 0 0)
(3.65632 0 0)
(3.65862 0 0)
(3.66091 0 0)
(3.6632 0 0)
(3.66549 0 0)
(3.66777 0 0)
(3.67005 0 0)
(3.67232 0 0)
(3.6746 0 0)
(3.67687 0 0)
(3.67914 0 0)
(3.6814 0 0)
(3.68366 0 0)
(3.68592 0 0)
(3.68817 0 0)
(3.69043 0 0)
(3.69268 0 0)
(3.69492 0 0)
(3.69716 0 0)
(3.6994 0 0)
(3.70164 0 0)
(3.70387 0 0)
(3.7061 0 0)
(3.70833 0 0)
(3.71056 0 0)
(3.71278 0 0)
(3.715 0 0)
(3.71721 0 0)
(3.71942 0 0)
(3.72163 0 0)
(3.72384 0 0)
(3.72604 0 0)
(3.72824 0 0)
(3.73044 0 0)
(3.73264 0 0)
(3.73483 0 0)
(3.73702 0 0)
(3.7392 0 0)
(3.74139 0 0)
(3.74357 0 0)
(3.74574 0 0)
(3.74792 0 0)
(3.75009 0 0)
(3.75226 0 0)
(3.75443 0 0)
(3.75659 0 0)
(3.75875 0 0)
(3.76091 0 0)
(3.76306 0 0)
(3.76521 0 0)
(3.76736 0 0)
(3.76951 0 0)
(3.77165 0 0)
(3.77379 0 0)
(3.77593 0 0)
(3.77806 0 0)
(3.7802 0 0)
(3.78233 0 0)
(3.78445 0 0)
(3.78658 0 0)
(3.7887 0 0)
(3.79082 0 0)
(3.79293 0 0)
(3.79505 0 0)
(3.79716 0 0)
(3.79927 0 0)
(3.80137 0 0)
(3.80347 0 0)
(3.80557 0 0)
(3.80767 0 0)
(3.80977 0 0)
(3.81186 0 0)
(3.81395 0 0)
(3.81603 0 0)
(3.81812 0 0)
(3.8202 0 0)
(3.82228 0 0)
(3.82435 0 0)
(3.82643 0 0)
(3.8285 0 0)
(3.83057 0 0)
(3.83263 0 0)
(3.83469 0 0)
(3.83675 0 0)
(3.83881 0 0)
(3.84087 0 0)
(3.84292 0 0)
(3.84497 0 0)
(3.84702 0 0)
(3.84906 0 0)
(3.85111 0 0)
(3.85315 0 0)
(3.85518 0 0)
(3.85722 0 0)
(3.85925 0 0)
(3.86128 0 0)
(3.86331 0 0)
(3.86533 0 0)
(3.86736 0 0)
(3.86938 0 0)
(3.8714 0 0)
(3.87341 0 0)
(3.87542 0 0)
(3.87743 0 0)
(3.87944 0 0)
(3.88145 0 0)
(3.88345 0 0)
(3.88545 0 0)
(3.88745 0 0)
(3.88944 0 0)
(3.89144 0 0)
(3.89343 0 0)
(3.89542 0 0)
(3.8974 0 0)
(3.89939 0 0)
(3.90137 0 0)
(3.90335 0 0)
(3.90532 0 0)
(3.9073 0 0)
(3.90927 0 0)
(3.91124 0 0)
(3.91321 0 0)
(3.91517 0 0)
(3.91713 0 0)
(3.91909 0 0)
(3.92105 0 0)
(3.92301 0 0)
(3.92496 0 0)
(3.92691 0 0)
(3.92886 0 0)
(3.9308 0 0)
(3.93276 0 0)
(3.93471 0 0)
(3.93665 0 0)
(3.93853 0 0)
(3.94031 0 0)
(3.94213 0 0)
(3.94443 0 0)
(3.94772 0 0)
(3.95133 0 0)
(3.95151 0 0)
(3.94224 0 0)
(3.92495 0 0)
(3.92812 0 0)
(4.01521 0 0)
(4.2236 0 0)
(4.33684 0 0)
(3.73998 0 0)
(2.46018 0 0)
(1.56011 0 0)
(1.25884 0 0)
(1.19385 0 0)
(1.18096 0 0)
(1.17719 0 0)
(1.17493 0 0)
(1.17292 0 0)
(1.1712 0 0)
(1.17193 0 0)
(1.17325 0 0)
(1.1731 0 0)
(1.17259 0 0)
(1.17203 0 0)
(1.17146 0 0)
(1.1709 0 0)
(1.17043 0 0)
(1.17014 0 0)
(1.16998 0 0)
(1.16985 0 0)
(1.16976 0 0)
(1.16977 0 0)
(1.16994 0 0)
(1.17018 0 0)
(1.17052 0 0)
(1.17097 0 0)
(1.17147 0 0)
(1.17212 0 0)
(1.17285 0 0)
(1.17367 0 0)
(1.17459 0 0)
(1.17557 0 0)
(1.17664 0 0)
(1.17783 0 0)
(1.17913 0 0)
(1.18056 0 0)
(1.18211 0 0)
(1.18371 0 0)
(1.18541 0 0)
(1.18724 0 0)
(1.18919 0 0)
(1.19126 0 0)
(1.19339 0 0)
(1.19564 0 0)
(1.198 0 0)
(1.20042 0 0)
(1.20297 0 0)
(1.20571 0 0)
(1.20854 0 0)
(1.21144 0 0)
(1.21453 0 0)
(1.21777 0 0)
(1.2211 0 0)
(1.22456 0 0)
(1.22816 0 0)
(1.23186 0 0)
(1.23569 0 0)
(1.23968 0 0)
(1.24383 0 0)
(1.24809 0 0)
(1.2525 0 0)
(1.2571 0 0)
(1.26188 0 0)
(1.26685 0 0)
(1.27194 0 0)
(1.27722 0 0)
(1.28269 0 0)
(1.2883 0 0)
(1.29412 0 0)
(1.30016 0 0)
(1.30645 0 0)
(1.31297 0 0)
(1.31968 0 0)
(1.32662 0 0)
(1.33375 0 0)
(1.34115 0 0)
(1.34884 0 0)
(1.35686 0 0)
(1.36519 0 0)
(1.37381 0 0)
(1.38277 0 0)
(1.3921 0 0)
(1.40176 0 0)
(1.41182 0 0)
(1.42232 0 0)
(1.43323 0 0)
(1.44464 0 0)
(1.45662 0 0)
(1.46921 0 0)
(1.48246 0 0)
(1.49633 0 0)
(1.51087 0 0)
(1.52623 0 0)
(1.5425 0 0)
(1.55977 0 0)
(1.57824 0 0)
(1.59811 0 0)
(1.61963 0 0)
(1.6431 0 0)
(1.66909 0 0)
(1.69846 0 0)
(1.73261 0 0)
(1.7742 0 0)
(1.828 0 0)
(1.90263 0 0)
(2.01253 0 0)
(2.17855 0 0)
(2.42023 0 0)
(2.72127 0 0)
(3.06685 0 0)
(3.07052 0 0)
(3.07418 0 0)
(3.07783 0 0)
(3.08147 0 0)
(3.08511 0 0)
(3.08873 0 0)
(3.09234 0 0)
(3.09594 0 0)
(3.09954 0 0)
(3.10312 0 0)
(3.1067 0 0)
(3.11027 0 0)
(3.11383 0 0)
(3.11737 0 0)
(3.12091 0 0)
(3.12445 0 0)
(3.12797 0 0)
(3.13148 0 0)
(3.13499 0 0)
(3.13849 0 0)
(3.14197 0 0)
(3.14545 0 0)
(3.14893 0 0)
(3.15239 0 0)
(3.15584 0 0)
(3.15929 0 0)
(3.16273 0 0)
(3.16616 0 0)
(3.16958 0 0)
(3.173 0 0)
(3.17641 0 0)
(3.1798 0 0)
(3.1832 0 0)
(3.18658 0 0)
(3.18996 0 0)
(3.19332 0 0)
(3.19668 0 0)
(3.20004 0 0)
(3.20338 0 0)
(3.20672 0 0)
(3.21005 0 0)
(3.21337 0 0)
(3.21669 0 0)
(3.22 0 0)
(3.2233 0 0)
(3.22659 0 0)
(3.22988 0 0)
(3.23316 0 0)
(3.23643 0 0)
(3.23969 0 0)
(3.24295 0 0)
(3.2462 0 0)
(3.24945 0 0)
(3.25269 0 0)
(3.25592 0 0)
(3.25914 0 0)
(3.26236 0 0)
(3.26557 0 0)
(3.26877 0 0)
(3.27197 0 0)
(3.27516 0 0)
(3.27834 0 0)
(3.28152 0 0)
(3.28469 0 0)
(3.28786 0 0)
(3.29101 0 0)
(3.29416 0 0)
(3.29731 0 0)
(3.30045 0 0)
(3.30358 0 0)
(3.30671 0 0)
(3.30983 0 0)
(3.31294 0 0)
(3.31605 0 0)
(3.31915 0 0)
(3.32225 0 0)
(3.32534 0 0)
(3.32842 0 0)
(3.3315 0 0)
(3.33457 0 0)
(3.33762 0 0)
(3.34066 0 0)
(3.34372 0 0)
(3.34686 0 0)
(3.3501 0 0)
(3.35328 0 0)
(3.35591 0 0)
(3.35728 0 0)
(3.35784 0 0)
(3.3584 0 0)
(3.35896 0 0)
(3.35952 0 0)
(3.36007 0 0)
(3.36063 0 0)
(3.36119 0 0)
(3.36174 0 0)
(3.3623 0 0)
(3.36285 0 0)
(3.36341 0 0)
(3.36396 0 0)
(3.36452 0 0)
(3.36507 0 0)
(3.36562 0 0)
(3.36618 0 0)
(3.36673 0 0)
(3.36728 0 0)
(3.36784 0 0)
(3.36839 0 0)
(3.36894 0 0)
(3.36949 0 0)
(3.37004 0 0)
(3.37059 0 0)
(3.37114 0 0)
(3.37169 0 0)
(3.37224 0 0)
(3.37279 0 0)
(3.37334 0 0)
(3.37389 0 0)
(3.37444 0 0)
(3.37499 0 0)
(3.37553 0 0)
(3.37608 0 0)
(3.37663 0 0)
(3.37718 0 0)
(3.37772 0 0)
(3.37827 0 0)
(3.37881 0 0)
(3.37936 0 0)
(3.3799 0 0)
(3.38045 0 0)
(3.38099 0 0)
(3.38154 0 0)
(3.38208 0 0)
(3.38263 0 0)
(3.38317 0 0)
(3.38371 0 0)
(3.38426 0 0)
(3.3848 0 0)
(3.38534 0 0)
(3.38589 0 0)
(3.38643 0 0)
(3.38697 0 0)
(3.38751 0 0)
(3.38805 0 0)
(3.38859 0 0)
(3.38913 0 0)
(3.38967 0 0)
(3.39021 0 0)
(3.39075 0 0)
(3.39129 0 0)
(3.39183 0 0)
(3.39237 0 0)
(3.39291 0 0)
(3.39345 0 0)
(3.39399 0 0)
(3.39453 0 0)
(3.39506 0 0)
(3.3956 0 0)
(3.39614 0 0)
(3.39668 0 0)
(3.39721 0 0)
(3.39775 0 0)
(3.39829 0 0)
(3.39883 0 0)
(3.39936 0 0)
(3.3999 0 0)
(3.40043 0 0)
(3.40097 0 0)
(3.40151 0 0)
(3.40204 0 0)
(3.40258 0 0)
(3.40311 0 0)
(3.40365 0 0)
(3.40418 0 0)
(3.40472 0 0)
(3.40526 0 0)
(3.40579 0 0)
(3.40633 0 0)
(3.40686 0 0)
(3.4074 0 0)
(3.40793 0 0)
(3.40847 0 0)
(3.409 0 0)
(3.40954 0 0)
(3.41007 0 0)
(3.41061 0 0)
(3.41114 0 0)
(3.41168 0 0)
(3.41221 0 0)
(3.41275 0 0)
(3.41328 0 0)
(3.41382 0 0)
(3.41435 0 0)
(3.41489 0 0)
(3.41543 0 0)
(3.41596 0 0)
(3.4165 0 0)
(3.41703 0 0)
(3.41757 0 0)
(3.4181 0 0)
(3.41864 0 0)
(3.41918 0 0)
(3.41971 0 0)
(3.42025 0 0)
(3.42079 0 0)
(3.42132 0 0)
(3.42186 0 0)
(3.42239 0 0)
(3.42293 0 0)
(3.42347 0 0)
(3.424 0 0)
(3.42454 0 0)
(3.42507 0 0)
(3.42561 0 0)
(3.42615 0 0)
(3.42668 0 0)
(3.42722 0 0)
(3.42775 0 0)
(3.42829 0 0)
(3.42882 0 0)
(3.42936 0 0)
(3.42989 0 0)
(3.43043 0 0)
(3.43096 0 0)
(3.43149 0 0)
(3.43203 0 0)
(3.43256 0 0)
(3.4331 0 0)
(3.43363 0 0)
(3.43416 0 0)
(3.43469 0 0)
(3.43523 0 0)
(3.43576 0 0)
(3.43629 0 0)
(3.43682 0 0)
(3.43735 0 0)
(3.43788 0 0)
(3.43841 0 0)
(3.43894 0 0)
(3.43947 0 0)
(3.44 0 0)
(3.44053 0 0)
(3.44106 0 0)
(3.44159 0 0)
(3.44212 0 0)
(3.44264 0 0)
(3.44317 0 0)
(3.4437 0 0)
(3.44422 0 0)
(3.44475 0 0)
(3.44527 0 0)
(3.4458 0 0)
(3.44632 0 0)
(3.44685 0 0)
(3.44737 0 0)
(3.4479 0 0)
(3.44842 0 0)
(3.44893 0 0)
(3.44942 0 0)
(3.4499 0 0)
(3.45047 0 0)
(3.45129 0 0)
(3.45236 0 0)
(3.45298 0 0)
(3.45141 0 0)
(3.4461 0 0)
(3.44052 0 0)
(3.45051 0 0)
(3.50261 0 0)
(3.59694 0 0)
(3.60904 0 0)
(3.25051 0 0)
(2.4457 0 0)
(1.66585 0 0)
(1.27735 0 0)
(1.16628 0 0)
(1.14379 0 0)
(1.13949 0 0)
(1.13841 0 0)
(1.13787 0 0)
(1.13742 0 0)
(1.137 0 0)
(1.13658 0 0)
(1.13616 0 0)
(1.13574 0 0)
(1.13532 0 0)
(1.1349 0 0)
(1.13448 0 0)
(1.13407 0 0)
(1.13366 0 0)
(1.13324 0 0)
(1.13283 0 0)
(1.13242 0 0)
(1.13201 0 0)
(1.13161 0 0)
(1.1312 0 0)
(1.13079 0 0)
(1.13039 0 0)
(1.12999 0 0)
(1.12959 0 0)
(1.12919 0 0)
(1.12879 0 0)
(1.12839 0 0)
(1.12799 0 0)
(1.1276 0 0)
(1.1272 0 0)
(1.12681 0 0)
(1.12641 0 0)
(1.12602 0 0)
(1.12563 0 0)
(1.12524 0 0)
(1.12486 0 0)
(1.12447 0 0)
(1.12408 0 0)
(1.1237 0 0)
(1.12332 0 0)
(1.12294 0 0)
(1.12256 0 0)
(1.12218 0 0)
(1.1218 0 0)
(1.12142 0 0)
(1.12105 0 0)
(1.12067 0 0)
(1.1203 0 0)
(1.11993 0 0)
(1.11956 0 0)
(1.11919 0 0)
(1.11882 0 0)
(1.11845 0 0)
(1.11809 0 0)
(1.11772 0 0)
(1.11736 0 0)
(1.117 0 0)
(1.11664 0 0)
(1.11628 0 0)
(1.11592 0 0)
(1.11557 0 0)
(1.11521 0 0)
(1.11486 0 0)
(1.11451 0 0)
(1.11416 0 0)
(1.11381 0 0)
(1.11346 0 0)
(1.11311 0 0)
(1.11277 0 0)
(1.11243 0 0)
(1.11209 0 0)
(1.11175 0 0)
(1.11141 0 0)
(1.11107 0 0)
(1.11073 0 0)
(1.1104 0 0)
(1.11007 0 0)
(1.10974 0 0)
(1.10941 0 0)
(1.10908 0 0)
(1.10875 0 0)
(1.10843 0 0)
(1.10811 0 0)
(1.10778 0 0)
(1.10746 0 0)
(1.10715 0 0)
(1.10683 0 0)
(1.10651 0 0)
(1.1062 0 0)
(1.10589 0 0)
(1.10558 0 0)
(1.10527 0 0)
(1.10496 0 0)
(1.10466 0 0)
(1.10435 0 0)
(1.10405 0 0)
(1.10375 0 0)
(1.10345 0 0)
(1.10316 0 0)
(1.10286 0 0)
(1.10257 0 0)
(1.10227 0 0)
(1.10198 0 0)
(1.1017 0 0)
(1.10141 0 0)
(1.10113 0 0)
(1.10084 0 0)
(1.10056 0 0)
(1.10028 0 0)
(1.10001 0 0)
(1.09973 0 0)
(1.09945 0 0)
(1.09922 0 0)
(1.09922 0 0)
(1.09944 0 0)
(1.09968 0 0)
(1.09993 0 0)
(1.10017 0 0)
(1.10042 0 0)
(1.10068 0 0)
(1.10093 0 0)
(1.10119 0 0)
(1.10144 0 0)
(1.1017 0 0)
(1.10196 0 0)
(1.10223 0 0)
(1.10249 0 0)
(1.10276 0 0)
(1.10303 0 0)
(1.1033 0 0)
(1.10357 0 0)
(1.10385 0 0)
(1.10412 0 0)
(1.1044 0 0)
(1.10469 0 0)
(1.10497 0 0)
(1.10526 0 0)
(1.10555 0 0)
(1.10584 0 0)
(1.10614 0 0)
(1.10643 0 0)
(1.10673 0 0)
(1.10704 0 0)
(1.10734 0 0)
(1.10765 0 0)
(1.10796 0 0)
(1.10827 0 0)
(1.10859 0 0)
(1.10891 0 0)
(1.10923 0 0)
(1.10955 0 0)
(1.10988 0 0)
(1.11021 0 0)
(1.11054 0 0)
(1.11087 0 0)
(1.11121 0 0)
(1.11155 0 0)
(1.1119 0 0)
(1.11224 0 0)
(1.11259 0 0)
(1.11294 0 0)
(1.1133 0 0)
(1.11366 0 0)
(1.11402 0 0)
(1.11438 0 0)
(1.11474 0 0)
(1.11511 0 0)
(1.11548 0 0)
(1.11586 0 0)
(1.11624 0 0)
(1.11661 0 0)
(1.117 0 0)
(1.11738 0 0)
(1.11777 0 0)
(1.11816 0 0)
(1.11855 0 0)
(1.11895 0 0)
(1.11934 0 0)
(1.11974 0 0)
(1.12015 0 0)
(1.12055 0 0)
(1.12096 0 0)
(1.12137 0 0)
(1.12178 0 0)
(1.1222 0 0)
(1.12261 0 0)
(1.12303 0 0)
(1.12345 0 0)
(1.12388 0 0)
(1.12431 0 0)
(1.12473 0 0)
(1.12517 0 0)
(1.1256 0 0)
(1.12604 0 0)
(1.12647 0 0)
(1.12691 0 0)
(1.12736 0 0)
(1.1278 0 0)
(1.12825 0 0)
(1.1287 0 0)
(1.12915 0 0)
(1.1296 0 0)
(1.13006 0 0)
(1.13052 0 0)
(1.13098 0 0)
(1.13144 0 0)
(1.13191 0 0)
(1.13238 0 0)
(1.13285 0 0)
(1.13332 0 0)
(1.13379 0 0)
(1.13427 0 0)
(1.13475 0 0)
(1.13523 0 0)
(1.13571 0 0)
(1.1362 0 0)
(1.13669 0 0)
(1.13718 0 0)
(1.13767 0 0)
(1.13817 0 0)
(1.13867 0 0)
(1.13917 0 0)
(1.13968 0 0)
(1.14018 0 0)
(1.14069 0 0)
(1.1412 0 0)
(1.14172 0 0)
(1.14223 0 0)
(1.14275 0 0)
(1.14328 0 0)
(1.1438 0 0)
(1.14433 0 0)
(1.14486 0 0)
(1.14539 0 0)
(1.14593 0 0)
(1.14647 0 0)
(1.14701 0 0)
(1.14756 0 0)
(1.14811 0 0)
(1.14866 0 0)
(1.14921 0 0)
(1.14977 0 0)
(1.15033 0 0)
(1.15089 0 0)
(1.15146 0 0)
(1.15203 0 0)
(1.1526 0 0)
(1.15318 0 0)
(1.15376 0 0)
(1.15434 0 0)
(1.15492 0 0)
(1.15551 0 0)
(1.15611 0 0)
(1.1567 0 0)
(1.1573 0 0)
(1.1579 0 0)
(1.15851 0 0)
(1.15912 0 0)
(1.15973 0 0)
(1.16035 0 0)
(1.16096 0 0)
(1.16159 0 0)
(1.16221 0 0)
(1.16284 0 0)
(1.16348 0 0)
(1.16411 0 0)
(1.16475 0 0)
(1.16539 0 0)
(1.16604 0 0)
(1.16669 0 0)
(1.16735 0 0)
(1.168 0 0)
(1.16866 0 0)
(1.16933 0 0)
(1.17 0 0)
(1.17067 0 0)
(1.17134 0 0)
(1.17202 0 0)
(1.1727 0 0)
(1.17339 0 0)
(1.17408 0 0)
(1.17477 0 0)
(1.17547 0 0)
(1.17617 0 0)
(1.17687 0 0)
(1.17758 0 0)
(1.17829 0 0)
(1.179 0 0)
(1.17972 0 0)
(1.18044 0 0)
(1.18116 0 0)
(1.18189 0 0)
(1.18262 0 0)
(1.18335 0 0)
(1.18409 0 0)
(1.18483 0 0)
(1.18558 0 0)
(1.18632 0 0)
(1.18708 0 0)
(1.18783 0 0)
(1.18859 0 0)
(1.18935 0 0)
(1.19012 0 0)
(1.19088 0 0)
(1.19165 0 0)
(1.19243 0 0)
(1.19321 0 0)
(1.19399 0 0)
(1.19477 0 0)
(1.19556 0 0)
(1.19635 0 0)
(1.19715 0 0)
(1.19794 0 0)
(1.19874 0 0)
(1.19955 0 0)
(1.20035 0 0)
(1.20116 0 0)
(1.20198 0 0)
(1.20279 0 0)
(1.20361 0 0)
(1.20443 0 0)
(1.20526 0 0)
(1.20609 0 0)
(1.20692 0 0)
(1.20775 0 0)
(1.20859 0 0)
(1.20943 0 0)
(1.21027 0 0)
(1.21112 0 0)
(1.21197 0 0)
(1.21282 0 0)
(1.21367 0 0)
(1.21453 0 0)
(1.21539 0 0)
(1.21625 0 0)
(1.21712 0 0)
(1.21798 0 0)
(1.21886 0 0)
(1.21973 0 0)
(1.2206 0 0)
(1.22148 0 0)
(1.22236 0 0)
(1.22325 0 0)
(1.22413 0 0)
(1.22502 0 0)
(1.22592 0 0)
(1.22681 0 0)
(1.22771 0 0)
(1.2286 0 0)
(1.22951 0 0)
(1.23041 0 0)
(1.23132 0 0)
(1.23222 0 0)
(1.23314 0 0)
(1.23405 0 0)
(1.23496 0 0)
(1.23588 0 0)
(1.2368 0 0)
(1.23772 0 0)
(1.23865 0 0)
(1.23958 0 0)
(1.24051 0 0)
(1.24144 0 0)
(1.24237 0 0)
(1.24331 0 0)
(1.24424 0 0)
(1.24518 0 0)
(1.24613 0 0)
(1.24707 0 0)
(1.24801 0 0)
(1.24896 0 0)
(1.24991 0 0)
(1.25086 0 0)
(1.25182 0 0)
(1.25277 0 0)
(1.25373 0 0)
(1.25469 0 0)
(1.25565 0 0)
(1.25662 0 0)
(1.25758 0 0)
(1.25855 0 0)
(1.25952 0 0)
(1.26049 0 0)
(1.26146 0 0)
(1.26243 0 0)
(1.26341 0 0)
(1.26439 0 0)
(1.26537 0 0)
(1.26635 0 0)
(1.26733 0 0)
(1.26831 0 0)
(1.2693 0 0)
(1.27029 0 0)
(1.27127 0 0)
(1.27226 0 0)
(1.27326 0 0)
(1.27425 0 0)
(1.27524 0 0)
(1.27624 0 0)
(1.27724 0 0)
(1.27824 0 0)
(1.27924 0 0)
(1.28024 0 0)
(1.28124 0 0)
(1.28225 0 0)
(1.28325 0 0)
(1.28426 0 0)
(1.28527 0 0)
(1.28628 0 0)
(1.28729 0 0)
(1.28831 0 0)
(1.28932 0 0)
(1.29033 0 0)
(1.29135 0 0)
(1.29237 0 0)
(1.29339 0 0)
(1.29441 0 0)
(1.29543 0 0)
(1.29645 0 0)
(1.29747 0 0)
(1.2985 0 0)
(1.29952 0 0)
(1.30055 0 0)
(1.30158 0 0)
(1.30261 0 0)
(1.30364 0 0)
(1.30467 0 0)
(1.3057 0 0)
(1.30673 0 0)
(1.30777 0 0)
(1.3088 0 0)
(1.30984 0 0)
(1.31088 0 0)
(1.31191 0 0)
(1.31295 0 0)
(1.31399 0 0)
(1.31503 0 0)
(1.31608 0 0)
(1.31712 0 0)
(1.31816 0 0)
(1.3192 0 0)
(1.32025 0 0)
(1.3213 0 0)
(1.32234 0 0)
(1.32339 0 0)
(1.32444 0 0)
(1.32549 0 0)
(1.32654 0 0)
(1.32759 0 0)
(1.32864 0 0)
(1.32969 0 0)
(1.33075 0 0)
(1.3318 0 0)
(1.33285 0 0)
(1.33391 0 0)
(1.33497 0 0)
(1.33602 0 0)
(1.33708 0 0)
(1.33814 0 0)
(1.3392 0 0)
(1.34026 0 0)
(1.34132 0 0)
(1.34238 0 0)
(1.34344 0 0)
(1.34451 0 0)
(1.34557 0 0)
(1.34664 0 0)
(1.3477 0 0)
(1.34877 0 0)
(1.34984 0 0)
(1.35091 0 0)
(1.35198 0 0)
(1.35305 0 0)
(1.35412 0 0)
(1.35519 0 0)
(1.35626 0 0)
(1.35734 0 0)
(1.35841 0 0)
(1.35949 0 0)
(1.36056 0 0)
(1.36164 0 0)
(1.36272 0 0)
(1.3638 0 0)
(1.36489 0 0)
(1.36597 0 0)
(1.36705 0 0)
(1.36814 0 0)
(1.36923 0 0)
(1.37032 0 0)
(1.37141 0 0)
(1.3725 0 0)
(1.37359 0 0)
(1.37469 0 0)
(1.37578 0 0)
(1.37688 0 0)
(1.37798 0 0)
(1.37909 0 0)
(1.38019 0 0)
(1.3813 0 0)
(1.38241 0 0)
(1.38352 0 0)
(1.38463 0 0)
(1.38575 0 0)
(1.38686 0 0)
(1.38798 0 0)
(1.38911 0 0)
(1.39023 0 0)
(1.39136 0 0)
(1.39249 0 0)
(1.39363 0 0)
(1.39477 0 0)
(1.39591 0 0)
(1.39705 0 0)
(1.3982 0 0)
(1.39935 0 0)
(1.4005 0 0)
(1.40166 0 0)
(1.40282 0 0)
(1.40398 0 0)
(1.40515 0 0)
(1.40632 0 0)
(1.4075 0 0)
(1.40868 0 0)
(1.40986 0 0)
(1.41105 0 0)
(1.41224 0 0)
(1.41344 0 0)
(1.41464 0 0)
(1.41584 0 0)
(1.41705 0 0)
(1.41826 0 0)
(1.41948 0 0)
(1.4207 0 0)
(1.42193 0 0)
(1.42316 0 0)
(1.42439 0 0)
(1.42563 0 0)
(1.42687 0 0)
(1.42812 0 0)
(1.42937 0 0)
(1.43063 0 0)
(1.43189 0 0)
(1.43315 0 0)
(1.43442 0 0)
(1.43569 0 0)
(1.43696 0 0)
(1.43824 0 0)
(1.43952 0 0)
(1.44081 0 0)
(1.4421 0 0)
(1.44339 0 0)
(1.44468 0 0)
(1.44598 0 0)
(1.44728 0 0)
(1.44859 0 0)
(1.44989 0 0)
(1.4512 0 0)
(1.45251 0 0)
(1.45382 0 0)
(1.45513 0 0)
(1.45645 0 0)
(1.45776 0 0)
(1.45908 0 0)
(1.4604 0 0)
(1.46172 0 0)
(1.46303 0 0)
(1.46435 0 0)
(1.46567 0 0)
(1.46699 0 0)
(1.4683 0 0)
(1.46962 0 0)
(1.47093 0 0)
(1.47224 0 0)
(1.47355 0 0)
(1.47486 0 0)
(1.47616 0 0)
(1.47746 0 0)
(1.47876 0 0)
(1.48005 0 0)
(1.48134 0 0)