/*--------------------------------*- C++ -*----------------------------------*\
| =========                 |                                                 |
| \\      /  F ield         | foam-extend: Open Source CFD                    |
|  \\    /   O peration     | Version:     3.1                                |
|   \\  /    A nd           | Web:         http://www.extend-project.de       |
|    \\/     M anipulation  |                                                 |
\*---------------------------------------------------------------------------*/
FoamFile
{
    version     2.0;
    format      ascii;
    class       volScalarField;
    location    "18";
    object      alpha1;
}
// * * * * * * * * * * * * * * * * * * * * * * * * * * * * * * * * * * * * * //

dimensions      [0 0 0 0 0 0 0];

internalField   nonuniform List<scalar> 
119952
(
1
1
1
1
1
1
1
1
1
1
1
1
1
1
1
1
1
1
1
1
1
1
1
1
1
1
1
1
1
0.9999999
1
1
1
1
1
1
1
1
1
1
1
1
1
1
1
1
1
1
1
1
1
1
1
1
1
1
1
1
1
1
1
1
1
1
1
1
1
1
1
1
1
1
1
1
1
1
1
1
1
1
1
1
1
1
1
1
1
1
1
1
1
1
1
1
1
1
1
1
1
1
1
1
1
1
1
1
1
1
1
1
0.9999999
1
1
1
0.9999999
1
1
1
1
1
1
0.9999999
1
1
0.9999999
1
1
0.9999999
0.9999999
1
1
1
1
1
0.9999999
0.9999999
1
0.9999999
1
1
1
1
1
1
1
1
1
1
1
1
1
1
1
1
1
1
1
1
1
1
1
1
1
1
1
1
1
1
1
1
1
0.9999999
1
1
1
1
1
1
1
1
1
1
1
1
1
1
1
0.9999999
1
1
1
0.9999999
0.9999999
1
1
1
1
0.9999999
1
1
1
0.9999998
1
1
1
0.9999998
1
1
1
1
1
1
1
1
1
1
1
1
1
1
1
0.9999999
0.9999998
1
1
1
0.9999999
1
0.9999999
1
1
1
1
1
1
0.9999997
1
0.9999999
0.9999997
1
1
1
0.9999999
1
1
0.9999999
0.9999999
1
1
0.9999999
0.9999999
1
0.9999999
0.9999999
1
1
1
0.9999998
1
0.9999999
1
1
1
1
0.9999998
1
0.9999999
1
1
0.9999999
1
1
1
1
0.9999999
1
1
0.9999999
1
1
1
1
0.9999999
1
1
1
1
1
0.9999999
1
1
1
1
1
1
1
1
1
1
0.9999999
1
1
1
1
0.9999998
1
1
1
1
1
1
1
1
1
1
1
1
1
1
0.9999999
1
1
1
1
1
1
1
1
1
1
1
1
1
1
1
1
1
1
1
1
1
1
1
1
1
1
1
1
1
1
1
1
1
1
1
1
1
1
1
1
1
1
1
1
1
1
1
1
1
1
1
1
1
1
1
1
1
1
1
1
1
1
1
1
1
1
1
1
1
1
1
1
1
1
1
1
1
1
1
1
1
1
1
1
1
1
1
1
1
1
1
1
1
1
1
1
1
1
1
1
1
1
1
1
1
1
1
1
1
1
1
1
1
1
1
1
1
1
1
1
1
1
1
1
1
1
1
1
1
1
1
1
1
1
1
1
1
1
1
1
1
1
1
1
1
1
1
1
1
1
1
1
1
1
1
1
1
1
1
1
1
1
1
1
1
1
1
1
1
1
1
1
1
1
1
1
1
1
1
1
1
1
1
1
1
1
1
1
1
1
1
1
1
1
1
1
1
1
1
1
1
1
1
1
1
1
1
1
1
1
1
1
1
1
1
1
1
1
1
1
1
1
1
1
1
1
1
1
1
1
1
1
1
1
1
1
1
1
1
1
1
1
1
1
1
1
1
1
1
1
1
1
1
1
1
1
1
1
1
1
1
1
1
1
1
1
1
1
1
1
1
1
1
1
1
1
1
1
1
1
1
1
1
1
1
1
1
1
1
1
1
1
1
1
1
1
1
1
1
0.9999999
1
1
1
1
1
1
1
0.9999999
0.9999999
1
1
1
1
1
1
1
1
1
1
1
0.9999999
0.9999999
1
1
1
1
1
1
0.9999999
0.9999999
1
1
1
1
1
1
1
1
1
1
1
1
0.9999998
0.9999998
1
1
1
1
1
1
0.9999998
1
1
1
1
1
1
1
1
1
1
1
1
1
1
1
1
1
1
1
1
1
1
1
1
1
1
1
1
1
1
1
1
1
1
1
1
1
1
1
1
1
1
1
1
1
1
1
1
1
1
1
1
1
1
1
1
1
1
1
1
1
1
1
1
1
1
1
1
1
1
1
1
1
1
1
1
1
1
1
1
1
1
1
1
1
1
1
1
1
1
1
1
1
1
0.9999999
0.9999999
1
1
1
1
1
0.9999999
0.9999999
0.9999999
0.9999999
0.9999999
1
1
1
1
1
1
1
1
1
1
1
1
1
1
1
1
1
1
1
1
1
1
1
1
1
1
1
1
1
1
1
1
1
1
1
1
1
1
1
1
1
1
1
1
1
1
1
1
1
1
1
1
1
1
1
1
1
1
1
1
1
1
1
1
1
1
1
1
1
1
1
1
1
1
1
1
1
1
1
1
1
1
1
1
1
1
1
1
1
1
1
1
1
1
1
1
1
1
1
1
1
1
1
1
1
1
1
1
1
1
1
1
1
1
1
1
1
1
1
1
1
1
1
1
1
1
1
1
1
1
1
1
1
1
1
1
1
1
1
1
1
1
1
1
1
1
1
1
1
1
1
1
1
1
1
1
1
1
1
1
1
1
1
1
1
1
1
1
1
1
1
1
1
1
1
1
1
1
1
1
1
1
1
1
1
1
1
1
1
1
1
1
1
1
1
1
1
1
1
1
1
1
1
1
1
1
1
1
1
1
1
1
1
1
1
1
1
1
1
1
1
1
1
1
1
1
1
1
1
1
1
1
1
1
1
1
1
1
1
1
1
1
1
1
1
1
1
1
1
1
1
1
1
1
1
1
1
1
1
1
1
1
1
1
1
1
1
1
1
1
1
1
1
1
1
1
1
1
1
1
1
1
1
1
1
1
1
1
1
1
1
1
1
1
1
1
1
1
1
1
1
1
1
1
1
1
1
1
1
1
0.9999999
1
1
1
1
1
1
1
1
1
1
1
0.9999999
0.9999999
0.9999999
1
1
1
0.9999999
0.9999999
0.9999999
1
1
1
1
1
0.9999999
0.9999999
1
1
1
1
1
1
1
1
0.9999999
1
1
1
1
1
1
1
1
1
1
1
1
1
1
1
1
1
1
1
1
1
1
1
1
1
1
1
1
1
1
1
1
1
1
1
1
1
1
1
1
1
1
1
1
1
1
1
1
1
1
1
1
1
1
1
1
1
1
1
1
1
1
1
1
1
1
1
1
1
1
1
0.9999999
0.9999998
0.9999997
0.9999997
0.9999999
1
1
1
1
1
1
1
1
1
1
1
1
1
1
1
1
1
1
1
1
0.9999999
0.9999999
0.9999999
0.9999999
1
1
1
1
0.9999999
0.9999999
0.9999999
1
1
1
1
1
1
1
1
1
1
1
1
1
1
1
1
1
1
1
1
1
1
1
1
1
1
1
1
1
1
1
1
1
1
1
1
1
1
1
1
1
1
1
1
1
1
1
1
1
1
1
1
1
1
1
1
1
1
1
1
1
1
1
1
1
1
1
1
1
1
1
1
1
1
1
1
1
1
1
1
1
1
1
1
1
1
1
1
1
1
1
1
1
1
1
1
1
1
1
1
1
1
1
1
1
1
1
1
1
1
1
1
1
1
1
1
1
1
1
1
1
1
1
1
1
1
1
1
1
1
1
1
1
1
1
1
1
1
1
1
1
1
1
1
1
1
1
1
1
1
1
1
1
1
1
1
1
1
1
1
1
1
1
1
1
1
1
1
1
1
1
1
1
1
1
1
1
1
1
1
1
1
1
1
1
1
1
1
1
1
1
1
1
1
1
1
1
1
1
1
1
1
1
1
1
1
1
1
1
1
1
1
1
1
1
1
1
1
1
1
1
1
1
1
1
1
1
1
1
1
1
1
1
1
1
1
1
1
1
1
1
1
1
1
1
1
1
1
1
1
1
1
1
1
1
1
1
1
1
1
1
1
1
1
1
1
1
1
1
1
1
1
1
1
1
1
1
1
1
1
1
1
1
1
1
1
1
1
1
1
1
1
1
1
1
1
1
1
1
1
1
1
1
1
1
1
1
1
1
1
1
1
1
1
1
1
1
1
1
1
1
1
1
1
1
1
1
1
0.9999999
0.9999999
1
1
1
1
1
1
1
0.9999999
0.9999995
0.9999997
0.9999999
1
1
1
1
1
1
1
1
1
1
1
1
1
0.9999999
0.9999999
0.9999999
1
1
1
1
1
1
1
1
1
1
1
1
1
1
1
1
1
1
1
1
1
1
1
1
1
1
1
1
1
1
1
1
1
1
1
1
1
1
1
1
1
1
1
1
1
1
1
1
1
1
1
1
1
1
1
1
1
1
1
1
1
1
1
1
0.9999999
1
1
1
0.9999999
0.9999989
0.9999962
0.9999949
0.9999962
0.9999989
0.9999999
1
1
1
1
1
1
1
1
1
1
1
1
1
1
1
1
1
1
1
1
1
0.9999999
0.9999999
0.9999999
0.9999999
1
1
1
1
1
1
1
1
1
1
1
1
1
1
1
1
1
1
0.9999999
0.9999999
0.9999999
1
1
1
1
1
1
1
1
1
1
1
1
1
1
1
1
1
1
1
1
1
1
1
1
1
1
1
1
1
1
1
1
1
1
1
1
1
1
1
1
1
1
1
1
1
1
1
1
1
1
1
1
1
1
1
1
1
1
1
1
1
1
1
1
1
1
1
1
1
1
1
1
1
1
1
1
1
1
1
1
1
1
1
1
1
1
1
1
1
1
1
1
1
1
1
1
1
1
1
1
1
1
1
1
1
1
1
1
1
1
1
1
1
1
1
1
1
1
1
1
1
1
1
1
1
1
1
1
1
1
1
1
1
1
1
1
1
1
1
1
1
1
1
1
1
1
1
1
1
1
1
1
1
1
1
1
1
1
1
1
1
1
1
1
1
1
1
1
1
1
1
1
1
1
1
1
1
1
1
1
1
1
1
1
1
1
1
1
1
1
1
1
1
1
1
1
1
1
1
1
1
1
1
1
1
1
1
1
1
1
1
1
1
1
1
1
1
1
1
1
1
1
1
1
1
1
1
1
1
1
1
1
1
1
1
1
1
1
1
1
1
1
1
1
1
1
1
1
1
1
1
1
1
1
1
1
1
1
1
1
1
1
1
1
1
1
1
1
1
1
1
1
1
1
1
1
1
1
1
1
1
1
1
1
1
1
1
1
1
1
1
1
1
1
1
1
1
1
1
1
1
1
1
1
1
1
1
1
1
1
1
1
1
1
1
1
1
1
1
1
1
1
1
1
1
1
0.9999999
0.9999999
0.9999999
1
1
1
1
1
0.9999997
0.999999
0.9999993
0.9999998
1
1
1
1
1
1
1
1
1
1
1
0.9999999
0.9999999
0.9999999
1
1
1
1
1
1
1
1
1
1
1
1
1
1
1
1
1
1
1
1
1
1
1
1
1
1
1
1
1
1
1
1
1
1
1
1
1
1
1
1
1
1
1
1
1
1
1
1
0.9999999
0.9999999
0.9999999
0.9999999
1
1
1
1
1
1
1
1
1
0.9999998
0.9999991
0.9999966
0.9999951
0.9999959
0.9999985
0.9999998
1
0.9999997
0.9999952
0.9999709
0.999975
0.9999906
0.9999986
0.9999999
1
1
1
1
1
1
1
1
1
1
1
0.9999999
0.9999999
0.9999999
1
1
1
1
1
1
1
1
1
1
1
1
1
1
1
1
1
1
1
1
1
1
1
1
1
1
1
1
1
0.9999998
0.9999996
0.9999997
0.9999999
1
1
1
1
1
1
1
1
1
1
1
1
1
1
1
1
1
1
1
1
1
1
1
1
1
1
1
1
1
1
1
1
1
1
1
1
1
1
1
1
1
1
1
1
1
1
1
1
1
1
1
1
1
1
1
1
1
1
1
1
1
1
1
1
1
1
1
1
1
1
1
1
1
1
1
1
1
1
1
1
1
1
1
1
1
1
1
1
1
1
1
1
1
1
1
1
1
1
1
1
1
1
1
1
1
1
1
1
1
1
1
1
1
1
1
1
1
1
1
1
1
1
1
1
1
1
1
1
1
1
1
1
1
1
1
1
1
1
1
1
1
1
1
1
1
1
1
1
1
1
1
1
1
1
1
1
1
1
1
1
1
1
1
1
1
1
1
1
1
1
1
1
1
1
1
1
1
1
1
1
1
1
1
1
1
1
1
1
1
1
1
1
1
1
1
1
1
1
1
1
1
1
1
1
1
1
1
1
1
1
1
1
1
1
1
1
1
1
1
1
1
1
1
1
1
1
1
1
1
1
1
1
1
1
1
1
1
1
1
1
1
1
1
1
1
1
1
1
1
1
1
1
1
1
1
1
1
1
1
1
1
1
1
1
1
1
1
1
1
1
1
1
1
1
1
1
1
1
1
1
1
1
1
1
1
1
1
1
1
1
1
1
1
1
1
1
1
1
1
1
1
1
1
1
1
1
1
1
1
1
1
1
1
1
1
1
1
1
1
1
1
1
1
0.9999999
0.9999998
0.9999992
0.9999966
0.9999867
0.9999766
0.9999851
0.9999972
0.9999999
1
1
1
1
1
0.9999999
1
1
1
1
1
0.9999999
0.9999988
0.9999978
0.9999986
0.9999997
1
1
1
1
1
1
1
1
1
0.9999999
0.9999999
1
1
1
1
1
1
1
1
1
1
1
1
1
1
1
1
1
1
1
1
1
1
1
1
1
1
1
1
1
1
1
1
1
1
1
1
1
1
1
0.9999999
0.9999999
1
1
1
1
1
1
0.9999999
0.9999996
0.9999995
0.9999997
0.9999999
1
1
1
1
1
1
1
1
1
0.9999998
0.9999983
0.9999873
0.9999487
0.9999222
0.999953
0.9999899
0.9999993
0.9999997
0.9999993
0.9999969
0.9999892
0.9999745
0.9999613
0.9999571
0.9999612
0.9999843
0.9999982
1
1
1
1
1
1
1
0.9999999
0.9999997
0.999999
0.9999987
0.9999994
0.9999999
1
1
1
1
1
1
1
1
1
1
1
1
1
1
1
1
1
1
1
1
1
1
1
1
1
1
1
1
1
0.9999998
0.9999989
0.9999989
0.9999995
0.9999999
1
1
1
1
1
1
1
1
1
1
1
1
1
1
1
1
1
1
1
1
1
1
1
1
1
1
1
1
1
1
1
1
1
1
1
1
1
1
1
1
1
1
1
1
1
1
1
1
1
1
1
1
1
1
1
1
1
1
1
1
1
1
1
1
1
1
1
1
1
1
1
1
1
1
1
1
1
1
1
1
1
1
1
1
1
1
1
1
1
1
1
1
1
1
1
1
1
1
1
1
1
1
1
1
1
1
1
1
1
1
1
1
1
1
1
1
1
1
1
1
1
1
1
1
1
1
1
1
1
1
1
1
1
1
1
1
1
1
1
1
1
1
1
1
1
1
1
1
1
1
1
1
1
1
1
1
1
1
1
1
1
1
1
1
1
1
1
1
1
1
1
1
1
1
1
1
1
1
1
1
1
1
1
1
1
1
1
1
1
1
1
1
1
1
1
1
1
1
1
1
1
1
1
1
1
1
1
1
1
1
1
1
1
1
1
1
1
1
1
1
1
1
1
1
1
1
1
1
1
1
1
1
1
1
1
1
1
1
1
1
1
1
1
1
1
1
1
1
1
1
1
1
1
1
1
1
1
1
1
1
1
1
1
1
1
1
1
1
1
1
1
1
1
1
1
1
1
1
1
1
1
1
1
1
1
1
1
1
1
1
1
1
1
1
1
1
1
1
1
1
1
1
1
1
1
1
1
1
1
1
1
1
1
1
1
1
0.9999999
0.9999999
0.9999998
0.9999999
1
1
1
1
0.9999999
0.9999995
0.9999979
0.9999898
0.9999453
0.9997143
0.9993489
0.9995622
0.9999053
0.9999938
0.9999998
1
1
1
1
1
1
1
1
1
1
1
1
0.9999998
0.9999983
0.9999951
0.9999961
0.9999988
0.9999999
1
1
1
1
1
1
1
1
1
1
1
1
1
1
0.9999999
0.9999996
0.9999993
0.9999994
0.9999997
1
1
1
1
1
1
1
1
1
1
1
1
1
1
1
1
1
1
1
1
1
1
1
1
1
1
1
1
0.9999999
0.9999997
0.9999998
0.9999999
1
1
1
1
0.9999998
0.999999
0.9999981
0.9999987
0.9999996
1
1
1
0.9999999
0.9999997
0.9999998
0.9999999
1
1
1
0.9999998
0.999997
0.9999666
0.9997577
0.9996181
0.9998139
0.9999694
0.9999978
0.9999977
0.9999934
0.9999791
0.999932
0.9997515
0.9991411
0.9987885
0.9993603
0.9998905
0.9999951
0.9999999
0.9999999
0.9999998
0.9999994
0.9999988
0.9999981
0.9999972
0.9999951
0.9999888
0.9999806
0.999986
0.9999967
0.9999998
1
1
1
1
1
1
1
1
1
1
1
1
1
1
1
1
1
1
1
1
1
1
1
1
1
1
1
1
1
1
0.9999997
0.9999978
0.9999975
0.9999989
0.9999999
1
1
1
1
1
1
1
1
0.9999999
0.9999999
1
1
1
1
1
1
1
1
1
1
1
1
1
1
1
1
1
1
1
1
1
1
1
1
1
1
1
1
1
1
1
1
1
1
1
1
1
1
1
1
1
1
1
1
1
1
1
1
1
1
1
1
1
1
1
1
1
1
1
1
1
1
1
1
1
1
1
1
1
1
1
1
1
1
1
1
1
1
1
1
1
1
1
1
1
1
1
1
1
1
1
1
1
1
1
1
1
1
1
1
1
1
1
1
1
1
1
1
1
1
1
1
1
1
1
1
1
1
1
1
1
1
1
1
1
1
1
1
1
1
1
1
1
1
1
1
1
0.9999999
0.9999999
0.9999999
0.9999999
1
0.9999999
0.9999999
0.9999999
0.9999998
0.9999997
0.9999995
0.9999993
0.9999993
0.9999996
0.9999997
0.9999997
0.9999997
0.9999995
0.9999989
0.9999977
0.9999961
0.9999958
0.9999966
0.9999984
0.9999991
0.9999991
0.9999989
0.9999977
0.9999947
0.9999898
0.9999876
0.9999879
0.9999907
0.9999955
0.9999978
0.9999979
0.9999976
0.9999959
0.9999918
0.999987
0.9999852
0.9999853
0.9999867
0.999991
0.9999957
0.999997
0.9999969
0.9999963
0.9999942
0.9999906
0.9999873
0.9999865
0.9999868
0.9999888
0.9999933
0.9999971
0.9999979
0.9999979
0.9999974
0.9999961
0.9999943
0.9999936
0.9999936
0.9999943
0.9999961
0.9999981
0.9999987
0.9999987
0.9999984
0.9999977
0.9999969
0.9999967
0.9999968
0.9999972
0.9999982
0.999999
0.9999991
0.9999991
0.9999988
0.9999985
0.9999984
0.9999984
0.9999985
0.999999
0.9999996
0.9999997
0.9999997
0.9999997
0.9999997
0.9999997
0.9999997
0.9999997
0.9999998
0.9999999
1
1
1
1
1
1
1
1
1
1
1
1
1
1
1
1
1
1
1
1
1
1
1
1
1
1
1
1
1
1
1
1
1
1
1
1
1
1
1
1
1
1
1
1
1
1
1
1
0.9999999
0.9999999
0.9999998
0.9999998
0.9999999
1
1
1
1
1
1
1
1
1
1
1
1
1
1
1
1
0.9999998
0.9999995
0.9999996
0.9999998
1
1
0.9999999
0.9999984
0.9999936
0.9999913
0.9999922
0.9999949
0.9999984
0.9999997
0.9999992
0.9999895
0.9999059
0.9992073
0.9961861
0.995465
0.9980838
0.9997496
0.9999876
0.9999998
1
1
1
1
1
1
1
1
1
1
1
1
0.9999999
0.9999993
0.999994
0.9999867
0.9999911
0.999998
0.9999999
1
0.9999999
0.9999999
1
1
1
1
1
1
1
1
1
0.9999997
0.9999982
0.9999931
0.9999895
0.9999928
0.9999982
0.9999999
1
1
1
1
1
1
1
1
1
1
1
1
1
1
1
1
1
1
1
1
1
1
1
1
1
1
0.9999999
0.9999993
0.9999985
0.9999988
0.9999997
1
1
1
0.9999998
0.9999984
0.999994
0.9999942
0.9999977
0.9999997
0.9999999
0.9999999
0.9999994
0.999998
0.9999969
0.9999981
0.9999996
1
1
1
0.9999999
0.9999983
0.9999612
0.9995888
0.9993907
0.9995203
0.9998702
0.999991
0.9999959
0.9999663
0.9996833
0.9980208
0.9911357
0.9837401
0.989003
0.9974348
0.9998317
0.9999965
0.9999998
0.9999998
0.9999988
0.9999914
0.9999643
0.9999006
0.9997758
0.9995116
0.9992826
0.9995215
0.9998953
0.9999933
0.9999998
1
1
1
1
0.9999999
0.9999997
0.9999996
0.9999998
1
1
1
1
1
1
1
1
1
1
1
1
1
1
1
1
1
1
1
0.9999999
1
1
1
0.9999995
0.9999957
0.9999952
0.999998
0.9999998
1
1
1
1
1
1
1
1
1
0.9999999
0.9999999
1
1
1
1
1
1
1
1
1
1
1
1
1
1
1
1
1
1
1
1
1
1
1
1
1
1
1
1
1
1
1
1
1
1
1
1
1
1
1
1
1
1
1
1
1
1
1
1
1
1
1
1
1
1
1
1
1
1
1
1
1
1
1
1
1
1
1
1
1
1
1
1
1
1
1
1
1
1
1
1
1
1
1
1
1
1
1
1
1
1
1
1
1
1
1
1
1
1
1
1
1
1
1
1
1
1
1
1
1
1
1
1
1
1
1
1
1
1
1
1
1
1
1
1
1
1
1
1
1
0.9999998
0.9999995
0.9999991
0.9999989
0.9999987
0.9999986
0.9999987
0.9999992
0.9999995
0.9999993
0.9999985
0.9999967
0.9999937
0.9999892
0.9999843
0.9999831
0.9999852
0.9999921
0.999996
0.9999959
0.9999935
0.999985
0.9999656
0.9999375
0.9999221
0.999923
0.9999389
0.9999695
0.9999834
0.9999829
0.9999719
0.9999292
0.9998343
0.9996905
0.9995952
0.9996025
0.9997274
0.9998963
0.9999444
0.9999393
0.9998955
0.9997516
0.9994023
0.9988547
0.9986274
0.9987799
0.9993143
0.9997673
0.9998428
0.9998261
0.9997208
0.9993533
0.998468
0.9974435
0.997273
0.9976111
0.9986222
0.9994765
0.9996484
0.9996427
0.9995491
0.9991644
0.9982772
0.9972887
0.9969989
0.9970597
0.9975739
0.9986848
0.9994568
0.9995541
0.9995373
0.9994309
0.9991098
0.9985199
0.9979258
0.9977528
0.9978506
0.9984592
0.9994234
0.9997744
0.9997763
0.9997463
0.9996365
0.9993647
0.9989329
0.998657
0.9986508
0.9988561
0.9994694
0.999883
0.999904
0.9998823
0.9998058
0.9996225
0.9993229
0.9991273
0.9991665
0.9995885
0.9999397
0.9999715
0.9999587
0.9999106
0.9997724
0.9994984
0.9993771
0.9995474
0.9998931
0.9999934
0.9999956
0.9999917
0.9999774
0.9999397
0.9998864
0.9998764
0.9999087
0.9999767
0.9999983
0.9999986
0.999997
0.9999925
0.9999874
0.9999868
0.9999897
0.9999962
0.9999988
0.9999988
0.9999984
0.999998
0.9999979
0.9999982
0.9999987
0.9999991
0.9999991
0.9999991
0.9999995
0.9999997
0.9999997
0.9999996
0.9999995
0.9999994
0.9999995
0.9999997
0.9999997
0.9999996
0.9999994
0.9999993
0.9999993
0.9999993
0.9999993
0.9999993
0.9999993
0.9999991
0.9999984
0.9999973
0.9999972
0.9999978
0.9999992
0.9999998
0.9999999
0.9999998
0.9999998
0.9999997
0.9999995
0.9999991
0.999998
0.9999949
0.9999891
0.9999886
0.9999935
0.9999988
0.9999999
1
1
1
1
1
1
1
1
1
0.9999999
0.9999998
0.9999997
0.9999997
0.9999995
0.9999978
0.9999925
0.999989
0.9999922
0.9999979
0.9999998
1
0.9999999
0.9999992
0.9999953
0.999969
0.9998678
0.9998097
0.9998335
0.999905
0.9999802
0.9999912
0.9999051
0.9979407
0.9859331
0.9851373
0.9939216
0.9992097
0.9999735
0.9999995
0.9999996
0.9999993
0.9999986
0.999999
0.9999997
1
1
1
0.9999998
0.9999998
0.9999999
0.9999999
0.9999999
0.9999991
0.9999922
0.9999651
0.9999643
0.9999871
0.9999988
0.9999999
0.9999999
0.9999999
0.9999999
1
1
1
1
1
1
1
0.9999999
0.9999987
0.9999878
0.9999452
0.9999249
0.999961
0.9999931
0.9999997
1
1
1
1
1
1
1
1
1
1
1
1
1
1
1
1
1
1
1
1
1
1
1
1
1
0.9999999
0.9999991
0.999995
0.9999904
0.9999943
0.9999988
0.9999999
0.9999999
0.9999997
0.9999981
0.999987
0.9999795
0.9999862
0.9999965
0.9999997
0.9999996
0.9999988
0.999994
0.9999805
0.9999812
0.9999931
0.9999991
1
1
1
0.9999997
0.9999986
0.9999829
0.9997384
0.9993774
0.9993844
0.9997102
0.9999541
0.9999835
0.9999628
0.999726
0.9966303
0.9595693
0.9147145
0.9510598
0.9902928
0.9994923
0.9999951
0.9999996
0.9999995
0.9999978
0.9999838
0.9998821
0.9990595
0.9932481
0.9819527
0.987412
0.9969511
0.9997636
0.999991
0.9999998
1
1
0.9999999
0.9999995
0.9999979
0.999995
0.9999964
0.9999991
0.9999999
1
1
1
1
1
1
1
0.9999999
0.9999999
1
1
1
1
1
1
1
1
1
0.9999998
0.9999998
0.9999999
1
0.9999999
0.9999989
0.9999917
0.999992
0.9999973
0.9999997
1
1
1
1
1
1
1
1
1
0.9999999
0.9999998
0.9999998
1
1
1
1
1
1
1
1
1
1
1
1
1
1
1
1
1
1
1
1
1
1
1
1
1
1
1
1
1
1
1
1
1
1
1
1
1
1
1
1
1
1
1
1
1
1
1
1
1
1
1
1
1
1
1
1
1
1
1
1
1
1
1
1
1
1
1
1
1
1
1
1
1
1
1
1
1
1
1
1
1
1
1
1
1
1
1
1
1
1
1
1
1
1
1
1
1
1
1
1
1
1
1
1
1
1
1
1
1
1
1
1
1
1
1
1
1
1
1
1
1
1
1
0.9999999
0.9999998
0.9999997
0.9999997
0.9999997
0.9999998
0.9999998
0.9999997
0.9999984
0.9999928
0.9999768
0.9999492
0.9999335
0.9999342
0.9999462
0.9999717
0.9999864
0.999986
0.9999708
0.9998897
0.9996502
0.9992935
0.9991093
0.9991235
0.9993508
0.9997479
0.9999026
0.9999012
0.9998235
0.9994691
0.9984428
0.9966273
0.9957144
0.9959844
0.9974295
0.9991358
0.999606
0.9995897
0.9993526
0.9981995
0.9944728
0.9883021
0.9864352
0.9882409
0.9938661
0.9980967
0.9986529
0.9985939
0.9980364
0.9943473
0.9808993
0.9615592
0.9594171
0.9704127
0.9885081
0.9949771
0.9957353
0.995837
0.9938259
0.9814514
0.9483266
0.9216346
0.9272566
0.9561762
0.9805582
0.9884192
0.9911251
0.9909317
0.985916
0.9664488
0.9215173
0.8902214
0.8949237
0.9260423
0.9654729
0.9843909
0.9860303
0.9853322
0.9826915
0.9723602
0.9404368
0.8905596
0.8761659
0.8851054
0.9248426
0.9749981
0.9909302
0.9902491
0.9880122
0.9834947
0.9711493
0.9439925
0.9208485
0.9208493
0.9423205
0.9810624
0.9961449
0.9961973
0.9948456
0.9925737
0.9876887
0.9764079
0.95923
0.9529987
0.9611143
0.9863236
0.9983765
0.9988773
0.9982426
0.9967739
0.9927463
0.9820788
0.9737239
0.9804481
0.9952111
0.9996387
0.9997069
0.9994559
0.9984556
0.9950337
0.9890635
0.9887116
0.9945186
0.9992856
0.9999226
0.9999115
0.9998428
0.9995923
0.9988578
0.997911
0.997876
0.9986587
0.9997238
0.9999748
0.9999751
0.9999504
0.9998688
0.9997589
0.9997514
0.9998293
0.9999458
0.9999781
0.9999767
0.9999692
0.9999611
0.9999598
0.9999588
0.9999507
0.9999168
0.9999077
0.9999567
0.9999944
0.999999
0.9999979
0.9999935
0.9999894
0.9999898
0.9999929
0.9999972
0.9999986
0.9999981
0.9999964
0.9999906
0.9999754
0.9999672
0.9999739
0.9999882
0.9999924
0.9999898
0.9999732
0.9999527
0.9999584
0.999975
0.9999902
0.9999916
0.9999875
0.9999871
0.9999934
0.9999985
0.9999979
0.9999935
0.9999697
0.9998993
0.9998777
0.9999033
0.9999541
0.9999874
0.9999952
0.9999959
0.9999963
0.9999984
0.9999998
0.9999999
0.9999999
0.9999999
0.9999998
0.9999992
0.9999971
0.9999953
0.9999956
0.999996
0.999994
0.999979
0.9999309
0.9999242
0.9999556
0.9999919
0.9999995
0.9999995
0.9999972
0.9999658
0.9998217
0.999633
0.9996075
0.9993206
0.9985024
0.9983992
0.9986859
0.9993324
0.9998217
0.9995906
0.9907703
0.9790635
0.9893565
0.9981305
0.9999058
0.99998
0.999944
0.9999431
0.9999787
0.9999972
0.9999998
1
1
0.9999998
0.9999995
0.9999996
0.9999999
0.9999999
0.9999995
0.999997
0.9999774
0.9998878
0.9998655
0.9999448
0.9999937
0.9999998
0.9999999
0.9999997
0.9999997
0.9999999
1
0.9999999
0.9999999
1
1
1
0.9999998
0.9999975
0.9999746
0.9998117
0.9997493
0.9998652
0.9999773
0.9999991
1
1
1
1
1
1
1
1
1
1
1
1
1
1
1
1
1
1
1
1
1
0.9999999
0.9999998
0.9999997
0.9999997
0.9999991
0.9999948
0.9999697
0.9999639
0.9999789
0.9999966
0.9999998
0.9999997
0.9999981
0.9999843
0.999948
0.9999493
0.9999783
0.9999966
0.9999988
0.9999978
0.9999891
0.9999435
0.9999038
0.9999389
0.9999838
0.9999988
0.9999998
0.9999997
0.9999983
0.9999838
0.9998965
0.999767
0.9997293
0.9993963
0.9994437
0.9997433
0.999888
0.9998688
0.9996592
0.9983556
0.9923447
0.946539
0.9147145
0.9147145
0.9147145
0.9554117
0.9943652
0.9998515
0.9999941
0.9999845
0.999942
0.9996556
0.995016
0.9563565
0.94403
0.9613255
0.991179
0.9992989
0.9999842
0.9999995
0.9999995
0.9999992
0.9999972
0.9999874
0.9999559
0.9999523
0.9999815
0.9999979
0.9999999
1
1
1
1
1
1
1
0.9999998
0.9999997
0.9999998
1
1
1
1
1
1
1
1
0.9999998
0.9999993
0.9999995
0.9999999
1
0.9999998
0.9999972
0.9999843
0.9999884
0.999997
0.9999998
1
1
1
1
1
1
1
1
1
0.9999998
0.9999995
0.9999996
0.9999999
1
1
1
1
1
1
1
1
1
1
1
1
1
1
1
1
1
1
1
1
1
1
1
1
1
1
1
1
1
1
1
1
1
1
1
1
1
1
1
1
1
1
1
1
1
1
1
1
1
1
1
1
1
1
1
1
1
1
1
1
1
1
1
1
1
1
1
1
1
1
1
1
1
1
1
1
1
1
1
1
1
1
1
1
1
1
1
1
1
1
1
1
1
1
1
1
1
1
1
1
1
1
1
1
1
1
1
1
1
1
1
1
1
1
1
1
1
1
1
1
1
1
1
1
1
1
1
1
1
1
1
1
0.9999999
0.9999989
0.9999914
0.9999559
0.9998576
0.9997547
0.9997411
0.9997601
0.999819
0.9998886
0.999903
0.9998384
0.9993348
0.9971756
0.9919355
0.9881218
0.9882163
0.9906542
0.9953494
0.9982049
0.9985773
0.9984243
0.9961483
0.9824813
0.9462156
0.9276223
0.9364597
0.9677044
0.9897508
0.993289
0.9939748
0.9933676
0.9839548
0.9402168
0.8540077
0.8287528
0.8606143
0.9341396
0.9755725
0.983249
0.9828834
0.9767741
0.953845
0.8686312
0.6898164
0.6533298
0.7252739
0.8847376
0.9663486
0.963008
0.9378425
0.9268873
0.9087319
0.6937128
0.3521171
0.3988503
0.6945551
0.8889452
0.8832965
0.8563619
0.869373
0.8848509
0.7276558
0.2427735
0.1530308
0.3756203
0.7325886
0.7488356
0.7363375
0.7853172
0.8546173
0.7718383
0.3393396
0.09159056
0.1088367
0.2697011
0.4916091
0.6308836
0.7788922
0.8573261
0.7917252
0.402451
0.1560328
0.1745832
0.1909295
0.1613157
0.1662046
0.4069363
0.8060799
0.9228661
0.9196244
0.757503
0.3068793
0.1285261
0.09549375
0.07994319
0.1403497
0.5570274
0.8949768
0.9548172
0.9647018
0.9428631
0.6703527
0.2085372
0.09782687
0.1154986
0.4016869
0.8456938
0.9721319
0.9873533
0.9883374
0.9726568
0.7209403
0.3036526
0.4137421
0.7942757
0.9751066
0.9945308
0.994575
0.991093
0.9514939
0.7920606
0.7594953
0.8450621
0.9562303
0.9938509
0.9968214
0.9965326
0.9932222
0.9815731
0.9682855
0.9667455
0.9707029
0.9830949
0.9958356
0.9992619
0.9992862
0.9991081
0.9983893
0.9972362
0.9972139
0.9982691
0.9993448
0.9995676
0.9995605
0.9995317
0.9995102
0.9994835
0.9993261
0.9985084
0.9977675
0.9987226
0.999772
0.9999859
0.9999919
0.9999844
0.9999593
0.9999291
0.9999162
0.9999139
0.9999462
0.9999878
0.9999946
0.99999
0.9999591
0.9998355
0.9997805
0.9998418
0.9999128
0.9999164
0.999893
0.9998514
0.9998575
0.9999069
0.999749
0.9995601
0.9995601
0.9996888
0.9999309
0.9999951
0.9999965
0.9999955
0.999973
0.9998425
0.9996516
0.9995274
0.9993683
0.9992702
0.9990672
0.999072
0.999537
0.9998915
0.9999912
0.9999982
0.9999981
0.9999976
0.9999962
0.9999922
0.9999823
0.999972
0.9999719
0.9999726
0.9999647
0.9998142
0.9995073
0.9995376
0.999798
0.9999694
0.9999989
0.9999995
0.9999956
0.9999162
0.9990037
0.9939535
0.9872207
0.9898392
0.9934107
0.993491
0.9920596
0.9868585
0.9858883
0.9873744
0.9911604
0.9920266
0.9834129
0.9786975
0.9898458
0.9973811
0.9992932
0.9996929
0.9998832
0.9999766
0.9999958
0.9999995
1
1
1
0.9999998
0.9999996
0.9999998
0.9999999
0.9999997
0.9999946
0.9999141
0.9994726
0.9994639
0.9997998
0.9999793
0.9999993
0.9999998
0.9999993
0.9999994
0.9999998
1
0.9999998
0.9999998
0.9999999
1
1
0.9999997
0.9999953
0.9999455
0.9996658
0.9995977
0.9997336
0.9999407
0.9999959
0.9999999
1
0.9999999
0.9999998
0.9999994
0.9999991
0.9999994
0.9999997
1
1
1
1
1
1
1
1
0.9999999
0.9999999
0.9999998
0.9999998
0.9999998
0.9999998
0.9999998
0.9999994
0.9999983
0.9999937
0.9999609
0.9998797
0.9998982
0.9999627
0.999995
0.9999996
0.9999994
0.9999953
0.9999365
0.9998552
0.9999232
0.9999855
0.9999964
0.9999954
0.9999822
0.9998945
0.9996488
0.9996821
0.9998852
0.9999845
0.999999
0.9999992
0.9999959
0.9999649
0.999732
0.998609
0.9961968
0.996436
0.9986655
0.9998468
0.9999768
0.999948
0.9995638
0.997426
0.9927242
0.9647713
0.9147425
0.9147145
0.9147145
0.9328751
0.9798348
0.9981506
0.999933
0.9999505
0.9998429
0.9986812
0.9864238
0.9445846
0.9470739
0.9770496
0.9837518
0.9893273
0.9966976
0.9997058
0.9999902
0.9999885
0.9999708
0.9999101
0.9997089
0.9995276
0.9997237
0.999947
0.9999965
0.9999999
1
1
1
1
1
1
0.9999999
0.9999992
0.9999985
0.9999992
0.9999999
1
1
1
1
1
1
1
0.9999998
0.9999987
0.9999987
0.9999996
1
1
0.9999995
0.9999912
0.9999727
0.9999851
0.9999972
0.9999999
1
1
1
1
1
1
1
1
0.9999999
0.9999989
0.9999986
0.9999993
0.9999999
1
1
1
1
1
1
1
1
1
1
1
1
1
1
1
1
1
1
1
1
1
1
1
1
1
1
1
1
1
1
1
1
1
1
1
1
1
1
1
1
1
1
1
1
1
1
1
1
1
1
1
1
1
1
1
1
1
1
1
1
1
1
1
1
1
1
1
1
1
1
1
1
1
1
1
1
1
1
1
1
1
1
1
1
1
1
1
1
1
1
1
1
1
1
1
1
1
1
1
1
1
1
1
1
1
1
1
1
1
1
1
1
1
1
1
1
1
1
1
1
1
1
1
1
1
1
1
1
1
1
1
1
1
1
1
1
0.9999999
0.9999992
0.9999956
0.9999879
0.9999823
0.9999808
0.9999793
0.9999745
0.9999619
0.9999004
0.9994326
0.9966588
0.986816
0.975494
0.9745043
0.977517
0.9834858
0.987813
0.9906911
0.9909944
0.9832069
0.9348673
0.8091237
0.7250079
0.7292235
0.7824772
0.8873949
0.9516453
0.9524711
0.9420497
0.9276478
0.8312727
0.4074723
0.232807
0.3769826
0.7347767
0.8535572
0.8363937
0.8350012
0.8529308
0.7795359
0.3537151
0.06479916
0.05958515
0.1859703
0.5052429
0.6593313
0.7409988
0.7648
0.6339947
0.2460803
0.04101109
0.01770819
0.01710929
0.02917006
0.2153082
0.6789561
0.6900711
0.3791907
0.07871756
0.01276894
0.01023565
0.01006164
0.01184272
0.05045083
0.2484636
0.3162104
0.2136904
0.06485424
0.01138127
0.007707592
0.007749287
0.009888987
0.0233916
0.06408965
0.09181432
0.08597962
0.05789811
0.02261763
0.01028006
0.00986867
0.01074167
0.01712971
0.02689084
0.03061204
0.0306869
0.02958742
0.02509542
0.0196008
0.01576563
0.01411248
0.01501009
0.01916931
0.02409289
0.02384724
0.02071183
0.01738846
0.01730166
0.01865383
0.02407021
0.03008185
0.0303036
0.02481363
0.01477025
0.0115059
0.01164243
0.01313459
0.02016683
0.04092132
0.06145258
0.05726998
0.03867258
0.029886
0.03095738
0.03063289
0.02735037
0.0289204
0.05113635
0.1301332
0.1665578
0.127482
0.06165432
0.06259177
0.08265191
0.09281102
0.1133407
0.2337036
0.3741392
0.3416789
0.2206774
0.2098695
0.2395192
0.2211078
0.1855389
0.3414245
0.7829172
0.8898411
0.7594934
0.3288617
0.1751795
0.325483
0.7780483
0.9754887
0.9809931
0.9569564
0.9047853
0.9052353
0.9528302
0.9890947
0.9913721
0.9859763
0.9814899
0.9885039
0.9944392
0.9941805
0.9876463
0.9702193
0.976822
0.9940001
0.9995203
0.9998743
0.9998643
0.99983
0.9997743
0.9991719
0.9986744
0.9989871
0.9996708
0.9999566
0.999976
0.999959
0.9998956
0.9997042
0.9994414
0.9994202
0.9994263
0.9990639
0.9924155
0.9725039
0.9753803
0.9902625
0.998701
0.9999148
0.9999223
0.9999043
0.9999152
0.9999295
0.9999301
0.9999324
0.9999249
0.9998189
0.9994512
0.9980624
0.9931141
0.9847014
0.9896959
0.9973491
0.9997722
0.9999197
0.9999199
0.9999204
0.9998824
0.9995777
0.9983124
0.9980104
0.9987552
0.9995954
0.9998129
0.9994382
0.997701
0.9976423
0.998943
0.9998239
0.9999921
0.9999998
0.9999999
0.9999998
0.9999957
0.999809
0.9949536
0.9499822
0.8806701
0.9122036
0.975657
0.9695083
0.9246602
0.9057489
0.884817
0.7302116
0.4793891
0.4827623
0.6813965
0.910884
0.9754743
0.9836711
0.985927
0.9893353
0.9963348
0.9996826
0.9999946
0.9999999
1
1
1
1
0.9999999
0.9999999
1
0.9999999
0.9999971
0.9999279
0.9992208
0.9988844
0.9992024
0.9998213
0.9999903
0.9999996
0.9999998
0.9999997
0.9999998
0.9999999
0.9999999
0.9999998
0.9999998
1
1
0.9999999
0.9999964
0.9999225
0.9995521
0.9995034
0.9997118
0.999949
0.9999925
0.9999917
0.9999854
0.9999636
0.9999081
0.9998797
0.9998984
0.9999485
0.9999907
0.9999995
1
1
0.9999999
0.9999998
0.9999998
0.9999999
0.9999999
0.9999994
0.9999957
0.9999947
0.9999952
0.9999951
0.9999944
0.9999951
0.9999967
0.9999956
0.9999797
0.9998167
0.9996957
0.9998088
0.9999542
0.9999974
0.9999995
0.9999995
0.9999948
0.999913
0.9998367
0.9998528
0.9999475
0.9999837
0.9999766
0.9999024
0.9992855
0.9985727
0.9992083
0.9998375
0.9999914
0.9999992
0.9999988
0.9999914
0.9998506
0.9979146
0.9872537
0.9741276
0.9823296
0.9956223
0.9996767
0.9999866
0.9999816
0.9998426
0.9981263
0.9729465
0.9151765
0.9147389
0.9510757
0.9881625
0.9987802
0.999959
0.9999954
0.9999956
0.9999913
0.9998629
0.9975642
0.9615019
0.8997017
0.9068313
0.966122
0.9959135
0.9993222
0.9995431
0.9998096
0.9999188
0.9998235
0.9991306
0.997116
0.9955759
0.9962772
0.998785
0.9998819
0.999996
1
1
1
1
1
1
0.9999998
0.9999988
0.9999942
0.999993
0.9999969
0.9999996
1
1
1
1
1
1
1
0.9999999
0.9999984
0.9999975
0.9999989
0.9999998
1
0.9999999
0.999998
0.9999728
0.9999599
0.9999831
0.9999978
0.9999999
1
1
1
1
1
1
1
1
0.9999996
0.9999971
0.9999972
0.9999989
0.9999999
1
1
1
1
1
1
1
1
1
1
1
1
1
1
1
1
1
1
1
1
1
1
1
1
1
1
1
1
1
1
1
1
1
1
1
1
1
1
1
1
1
1
1
1
1
1
1
1
1
1
1
1
1
1
1
1
1
1
1
1
1
1
1
1
1
1
1
1
1
1
1
1
1
1
1
1
1
1
1
1
1
1
1
1
1
1
1
1
1
1
1
1
1
1
1
1
1
1
1
1
1
1
1
1
1
1
1
1
1
1
1
1
1
1
1
1
1
1
1
1
1
1
1
1
1
1
1
1
1
1
1
1
1
1
1
1
1
1
1
1
1
1
1
1
1
1
1
1
0.9999996
0.9999927
0.9999049
0.9992195
0.9971215
0.9956912
0.9956674
0.9957042
0.995285
0.9939108
0.9915901
0.9816455
0.9305291
0.7749145
0.6344443
0.6322795
0.6804382
0.7624679
0.7887189
0.7977921
0.80939
0.7562379
0.410895
0.1072202
0.07932576
0.08207468
0.10923
0.3002575
0.6020348
0.606123
0.3975227
0.1217035
0.02337413
0.01275447
0.01254951
0.0168886
0.06244679
0.1977827
0.2121137
0.1389961
0.04389778
0.01076668
0.008086018
0.00819176
0.010544
0.01661281
0.02622046
0.03049629
0.03009258
0.02567906
0.01521352
0.007223074
0.005626564
0.007640888
0.01304743
0.01186471
0.009328582
0.007707922
0.00681604
0.005393197
0.004480442
0.007065479
0.01295067
0.01255304
0.006417539
0.002247563
0.001432586
0.001494569
0.002483792
0.008769264
0.01377303
0.01226528
0.00443343
0.001612597
0.001700398
0.001829085
0.002278752
0.004729949
0.009104793
0.008360419
0.003620573
0.001928928
0.002152779
0.002039807
0.001780691
0.00235871
0.007239256
0.01162251
0.008103103
0.002534556
0.0009251598
0.0009186065
0.0009702772
0.003332065
0.01216766
0.01136911
0.004684907
0.003177678
0.004563702
0.03259193
0.04054754
0.02389537
0.00576056
0.001119167
0.000627463
0.001421753
0.006501548
0.006876388
0.003839209
0.005484961
0.03880431
0.06541942
0.05389821
0.01742759
0.002396195
0.001968455
0.002377547
0.00419444
0.004150208
0.003982444
0.005061336
0.01606325
0.05344487
0.04046676
0.01492543
0.006022929
0.007003558
0.01342656
0.02936928
0.03952248
0.0347498
0.02182996
0.01460171
0.01893427
0.1198781
0.2744651
0.2380232
0.1440178
0.06207622
0.01541943
0.01393223
0.0381963
0.3036036
0.6176598
0.5280532
0.2507525
0.2548949
0.6225843
0.8388316
0.7541489
0.6981483
0.8103038
0.9578783
0.977766
0.9201579
0.6075003
0.6149549
0.8796395
0.9888096
0.9974965
0.9976928
0.9967181
0.9911717
0.9902844
0.9955816
0.9989598
0.9989728
0.9989613
0.9991606
0.9996729
0.9997779
0.9988677
0.9963721
0.9962956
0.9964276
0.9910021
0.9277331
0.9058969
0.9363723
0.9855257
0.9973116
0.9991815
0.9998478
0.9999251
0.9999206
0.9998713
0.9994498
0.9967005
0.9956102
0.9971764
0.9992447
0.9987975
0.9916236
0.9595891
0.9534266
0.9702546
0.9941857
0.9996432
0.9998661
0.9997913
0.9991291
0.993604
0.9822909
0.9857516
0.9955841
0.998027
0.9943969
0.9886989
0.9905969
0.9967612
0.9995067
0.9997822
0.9998442
0.9999367
0.9999923
0.9999997
0.9999991
0.9999838
0.9997506
0.9937488
0.9187559
0.5891304
0.676533
0.9257138
0.9461973
0.8383282
0.3741609
0.0574314
0.04866866
0.06206577
0.05563609
0.06269994
0.1888643
0.5834388
0.6637206
0.6049226
0.754186
0.9497505
0.9968794
0.9999431
0.9999998
1
1