/*--------------------------------*- C++ -*----------------------------------*\
| =========                 |                                                 |
| \\      /  F ield         | foam-extend: Open Source CFD                    |
|  \\    /   O peration     | Version:     3.1                                |
|   \\  /    A nd           | Web:         http://www.extend-project.de       |
|    \\/     M anipulation  |                                                 |
\*---------------------------------------------------------------------------*/
FoamFile
{
    version     2.0;
    format      ascii;
    class       volScalarField;
    location    "18";
    object      k;
}
// * * * * * * * * * * * * * * * * * * * * * * * * * * * * * * * * * * * * * //

dimensions      [0 2 -2 0 0 0 0];

internalField   nonuniform List<scalar> 
119952
(
0.08421779
0.08056506
0.07982124
0.0781886
0.07641532
0.07503815
0.07459998
0.0746311
0.07490815
0.07531356
0.07578416
0.07627918
0.07677236
0.07725014
0.0777079
0.07814431
0.07856166
0.0789773
0.07945795
0.08035408
0.08290615
0.0807602
0.08087778
0.08303987
0.07995786
0.07838947
0.07708513
0.07588362
0.07343355
0.01934098
0.1007352
0.09804073
0.09570455
0.09435064
0.09390548
0.09415754
0.09483392
0.09574238
0.09674365
0.0977976
0.09311298
0.09324781
0.09580707
0.09938025
0.103138
0.1066661
0.1098293
0.1126124
0.1150071
0.1260715
0.1272946
0.1280912
0.1284559
0.1285904
0.1286788
0.1287956
0.1289752
0.1292195
0.1294299
0.130105
0.1305393
0.1307638
0.1308912
0.130961
0.1309843
0.1309568
0.130815
0.1307831
0.133189
0.1331727
0.1322962
0.13218
0.1322164
0.131974
0.1313025
0.1303911
0.1294026
0.1284177
0.1274599
0.1265446
0.1256774
0.124853
0.1240603
0.1232865
0.1225191
0.1217417
0.1209228
0.1200559
0.1193744
0.1188345
0.1179701
0.117597
0.1181986
0.1184121
0.1184118
0.1187452
0.1192061
0.1171035
0.1150169
0.1134236
0.1120063
0.1108209
0.1097897
0.1088865
0.1080903
0.1073706
0.1067047
0.1060789
0.1054861
0.1049244
0.1043937
0.1038924
0.1034162
0.1029588
0.1025135
0.1020752
0.1016414
0.1012125
0.1007909
0.100379
0.09997735
0.09958345
0.09919274
0.09880035
0.09840289
0.09799951
0.09759128
0.09717974
0.09676562
0.09634804
0.09592475
0.09549297
0.09505079
0.09459817
0.09413712
0.09367108
0.09320412
0.09274054
0.09228507
0.09184333
0.09142186
0.09102775
0.09066675
0.09034051
0.09004315
0.08975259
0.08946447
0.08924743
0.08903814
0.08875495
0.08844479
0.08805082
0.08758081
0.08704641
0.08646793
0.08585322
0.08522365
0.08458757
0.08395753
0.083341
0.08274415
0.08217212
0.08162929
0.08112021
0.08064958
0.08022163
0.07983885
0.07949966
0.07919654
0.07891668
0.07864278
0.07835625
0.0780434
0.07769378
0.07729825
0.07685148
0.07636528
0.07584945
0.0753144
0.07477023
0.07421851
0.07365448
0.07307633
0.07249465
0.0718975
0.07128966
0.07068361
0.07009219
0.06952796
0.06900015
0.06851299
0.06807319
0.06768624
0.06736071
0.06710106
0.06691099
0.06681305
0.06688922
0.06666711
0.0661144
0.06552513
0.06493156
0.06434261
0.06383546
0.06343872
0.0631384
0.06290477
0.06270315
0.06250782
0.06230287
0.06207989
0.06184156
0.0615856
0.06128185
0.06087922
0.06037248
0.05973885
0.05902382
0.05808512
0.0557239
0.06263313
0.09282851
0.1000635
0.09073185
0.07944341
0.06610128
0.05398131
0.04622386
0.04303525
0.04318701
0.04519191
0.04767065
0.04982119
0.05193244
0.05300824
0.05348791
0.05339118
0.05287302
0.05209168
0.05115971
0.05016497
0.0491695
0.04821295
0.04731858
0.0464981
0.04575658
0.04509446
0.04450911
0.04399851
0.04356147
0.04319359
0.04288654
0.04263059
0.04241591
0.04223283
0.04207206
0.04192492
0.04178368
0.04164131
0.04149191
0.04133083
0.04115472
0.04096195
0.04075184
0.04052522
0.04028722
0.04003612
0.04248108
0.04240986
0.04220765
0.04186293
0.04148438
0.04111684
0.04079527
0.04053963
0.04035897
0.04024501
0.0401896
0.04018307
0.04021441
0.04027116
0.04034336
0.0404229
0.04050315
0.04057875
0.04064543
0.04069988
0.04073962
0.04076289
0.04076859
0.04075626
0.04072605
0.0406785
0.04061455
0.04053549
0.0404429
0.04033868
0.04022485
0.04010365
0.03997753
0.03984911
0.03972107
0.03959626
0.03947777
0.03936881
0.03927261
0.03919238
0.03913122
0.03909207
0.03907783
0.0390917
0.03913921
0.03922444
0.0393286
0.03944971
0.0395992
0.03977256
0.03996566
0.04017368
0.04039722
0.04062709
0.04098118
0.0411185
0.04119894
0.04123712
0.04121729
0.04118572
0.04108073
0.04078622
0.0403829
0.04120132
0.04451428
0.04928811
0.05428269
0.05857337
0.06146971
0.0623924
0.06117883
0.05829621
0.05465176
0.05115739
0.0482672
0.04584186
0.04359997
0.0415153
0.03972998
0.03836039
0.03739753
0.03677673
0.03643571
0.03632133
0.03638549
0.03658675
0.03689352
0.03728293
0.03773648
0.03823771
0.03877233
0.03932993
0.03990227
0.04050046
0.04111234
0.04169571
0.04222375
0.04267967
0.04305182
0.04333259
0.04351782
0.04360641
0.04359989
0.04350201
0.04331829
0.04305562
0.0427219
0.04232565
0.04187559
0.04138008
0.04084703
0.040284
0.03969833
0.0390972
0.03848765
0.03787649
0.03726994
0.03667343
0.03609147
0.03552768
0.03498477
0.03446472
0.03396879
0.03349767
0.03305151
0.0326301
0.03223287
0.031859
0.03150755
0.0311775
0.03086745
0.03057612
0.03030181
0.03004252
0.02979127
0.02953284
0.02923276
0.02891381
0.02922998
0.09787822
0.09309294
0.09910129
0.1070937
0.1142685
0.1201405
0.1248695
0.1287127
0.1320172
0.1349493
0.1444203
0.1553256
0.1653892
0.173979
0.1809518
0.1864571
0.1907525
0.1940978
0.2195592
0.2196136
0.2194551
0.2188589
0.2180996
0.217339
0.2166606
0.2160751
0.2155571
0.2149602
0.2145769
0.2140402
0.2131026
0.2119576
0.210732
0.2094947
0.2082733
0.207088
0.2059266
0.2049937
0.2041428
0.203008
0.2017361
0.2004354
0.1991258
0.1978193
0.1965314
0.1952744
0.1940736
0.1929852
0.1918997
0.1908643
0.1898703
0.1888773
0.1878662
0.1868333
0.1857887
0.1847721
0.1937656
0.1925967
0.1914784
0.1904371
0.1894436
0.1884633
0.1874757
0.1864721
0.1854653
0.1844485
0.1834363
0.1824815
0.181586
0.1807273
0.1798846
0.1790438
0.178207
0.177448
0.1769323
0.1764561
0.1755855
0.1747108
0.1740577
0.1734115
0.1725957
0.1716145
0.1705296
0.1693666
0.1681339
0.1668696
0.1656167
0.1643906
0.1631935
0.1620172
0.1608473
0.1596676
0.1584644
0.1572464
0.1560489
0.1548952
0.1537623
0.1527367
0.1520263
0.1515634
0.1510464
0.1504875
0.1498239
0.1487406
0.1471755
0.1457326
0.1444923
0.1433169
0.1421963
0.1411399
0.1401352
0.1391664
0.138216
0.137269
0.1363176
0.1353639
0.134417
0.1334886
0.1325872
0.1317152
0.1308682
0.1300385
0.1292174
0.1283991
0.1275822
0.1267706
0.1259704
0.1251857
0.124416
0.1236557
0.1228967
0.1221316
0.1213576
0.1205764
0.1197932
0.1190144
0.1182445
0.1174849
0.1167337
0.1159879
0.1152455
0.1145071
0.113775
0.1130522
0.1123412
0.111643
0.1109568
0.1102812
0.1096143
0.1089549
0.1083013
0.1076514
0.1070068
0.1063741
0.1057558
0.1051214
0.1044576
0.1037803
0.103098
0.1024165
0.1017418
0.1010808
0.100439
0.09982121
0.09923036
0.09866775
0.09813308
0.0976242
0.09713683
0.09666486
0.09620077
0.09573661
0.09526533
0.09478116
0.09428066
0.09376342
0.0932309
0.0926861
0.09213438
0.09158278
0.09103903
0.09051172
0.09000755
0.08953038
0.08908439
0.08867541
0.08830041
0.08795032
0.08761473
0.08728356
0.08694055
0.08657095
0.0861561
0.08568503
0.08514745
0.08454473
0.08387716
0.08315837
0.08239342
0.08160853
0.08080503
0.08001872
0.07925145
0.07856005
0.07786577
0.0768483
0.07600739
0.07528004
0.07468429
0.07422097
0.07388404
0.07367223
0.07358539
0.07362561
0.07379594
0.0740981
0.0745304
0.075088
0.07576393
0.07653383
0.07738997
0.07836948
0.07949929
0.08074286
0.08200906
0.08271303
0.08126099
0.07743143
0.07597248
0.07923563
0.08769119
0.0989656
0.1099857
0.1167716
0.1163542
0.1118536
0.108894
0.1101375
0.1139608
0.1176905
0.1199732
0.1206466
0.1200365
0.1185871
0.1163241
0.1133611
0.109906
0.1061835
0.1023808
0.09863225
0.09502349
0.09160375
0.08840073
0.08543122
0.0827002
0.08020779
0.07795829
0.07594799
0.07415944
0.0725695
0.07115351
0.06988635
0.06874342
0.06770186
0.06674143
0.06584502
0.06499896
0.06419293
0.06341982
0.06267515
0.06195694
0.0612637
0.06059691
0.05996854
0.06196726
0.06134047
0.06079438
0.06028597
0.05978939
0.0593002
0.05882104
0.05835458
0.05790413
0.05747228
0.05706189
0.05667556
0.05631473
0.0559795
0.05566878
0.0553805
0.0551117
0.05485869
0.05461732
0.05438315
0.05415168
0.05391858
0.05367997
0.05343268
0.05317431
0.05290323
0.05261865
0.05232061
0.05201
0.05168837
0.05135791
0.05102159
0.05068299
0.05034609
0.05001544
0.04969617
0.04939391
0.04911455
0.04886407
0.04864845
0.04847349
0.04834478
0.04826743
0.04824574
0.04828222
0.04837705
0.0485277
0.04873202
0.04898807
0.0492916
0.04963183
0.05000332
0.05038377
0.05076175
0.05114405
0.05150099
0.05179321
0.05199457
0.05210398
0.05212761
0.05200394
0.05158311
0.05082536
0.04993272
0.04922827
0.04895644
0.04925521
0.05016253
0.05170136
0.05389853
0.05661688
0.05971766
0.06302917
0.06630329
0.06901626
0.07048952
0.0703939
0.06896433
0.06672782
0.06417674
0.06168846
0.0595962
0.05800805
0.05689418
0.05617191
0.05577114
0.05562952
0.05569096
0.05590634
0.05623363
0.05663901
0.05709661
0.05758715
0.05809521
0.05861793
0.05914315
0.05963086
0.06005152
0.06038374
0.06061278
0.06072963
0.06073017
0.0606143
0.06038514
0.06004824
0.05961094
0.05908206
0.05847161
0.05779007
0.05704761
0.05625387
0.05541808
0.05454899
0.05365519
0.05274536
0.05182822
0.0509121
0.05000462
0.04911249
0.04824149
0.04739647
0.0465814
0.04579942
0.04505288
0.04434341
0.04367184
0.04303841
0.04244268
0.04188368
0.04135949
0.04086786
0.04040549
0.03996928
0.03955234
0.03914844
0.03875098
0.03839183
0.03815999
0.03803967
0.05805864
0.06260046
0.06789013
0.07366812
0.07997446
0.08693087
0.09475043
0.1037663
0.1145463
0.1271588
0.1858912
0.2027735
0.2195705
0.2364496
0.2527739
0.2682236
0.2825839
0.2997548
0.3282109
0.391367
0.4026462
0.4121989
0.4200321
0.4266855
0.4320038
0.4362074
0.4392777
0.4411522
0.4423942
0.4432763
0.4445376
0.445046
0.4443804
0.4426024
0.439929
0.4365573
0.4326506
0.4286885
0.4222056
0.4162632
0.4107317
0.4055038
0.4005183
0.3956976
0.3909798
0.3863063
0.3816518
0.3770494
0.3722845
0.3674325
0.362501
0.3575153
0.3525357
0.3476181
0.3427924
0.3380578
0.3462506
0.3418166
0.3373
0.332782
0.3282997
0.3238503
0.3194467
0.3151052
0.3108636
0.3067379
0.3027055
0.2988016
0.2950491
0.2914093
0.2878532
0.2843659
0.2809371
0.2775773
0.2743114
0.2711275
0.2680359
0.2650892
0.2622767
0.2595591
0.2569032
0.2542855
0.2516989
0.2491492
0.2466424
0.24422
0.241915
0.2397177
0.2376129
0.2355763
0.2335775
0.2315935
0.229615
0.2276204
0.2255973
0.2236708
0.2218701
0.2201892
0.2186014
0.2170714
0.2155668
0.2140678
0.2125727
0.2110948
0.2096708
0.2083355
0.2071006
0.2059568
0.2048848
0.2038553
0.2028609
0.2019139
0.201038
0.2001988
0.1993011
0.1983672
0.1975056
0.1966994
0.1958646
0.194924
0.1938519
0.1926595
0.191379
0.1900514
0.188715
0.1874132
0.1861555
0.1849328
0.1837262
0.1825098
0.1812678
0.1799973
0.1787152
0.1774478
0.1762299
0.175094
0.1741061
0.1732344
0.1724283
0.1715795
0.1706528
0.1694867
0.1680793
0.1666058
0.1651977
0.1638646
0.1626146
0.1614484
0.1603508
0.1592991
0.1582677
0.1572338
0.156181
0.155106
0.154021
0.1529466
0.1519012
0.1508931
0.1499176
0.1489612
0.1480079
0.1470454
0.1460696
0.1450867
0.1441082
0.1431442
0.1421972
0.1412604
0.1403211
0.1393654
0.1383848
0.1373787
0.1363544
0.1353234
0.1342962
0.1332784
0.1322695
0.1312656
0.1302635
0.1292635
0.1282695
0.1272878
0.1263239
0.1253814
0.1244606
0.1235591
0.1226725
0.1217964
0.1209267
0.1200592
0.11919
0.1183139
0.1174254
0.1165118
0.1155697
0.1146081
0.1136387
0.112674
0.1117265
0.1108079
0.1099284
0.1090959
0.108315
0.1075876
0.1069123
0.1062854
0.1057003
0.1051474
0.1046147
0.1040882
0.1035533
0.1029963
0.1024058
0.1017743
0.1010984
0.1003798
0.0996265
0.09885015
0.09806534
0.0972893
0.09654015
0.09583383
0.09518334
0.09460008
0.09409052
0.09365086
0.09327252
0.09294081
0.09263832
0.09233988
0.0920219
0.09165829
0.0912324
0.0907274
0.09014273
0.08947252
0.08873414
0.08792803
0.08708543
0.0862062
0.0853373
0.08447581
0.08371607
0.0829419
0.08221588
0.08157068
0.08102936
0.08061995
0.0803706
0.08030884
0.08046161
0.08085501
0.08150952
0.08243673
0.08364382
0.08512897
0.08686634
0.08882217
0.09099619
0.09338551
0.0958591
0.09834163
0.1006065
0.1020957
0.1020519
0.1008728
0.09928873
0.09806804
0.09804884
0.100048
0.1047288
0.1125017
0.1227441
0.1340092
0.1450579
0.1552997
0.1640429
0.1705959
0.1746281
0.1760922
0.1751224
0.1722121
0.1680005
0.162814
0.1569532
0.1507023
0.1443062
0.1379612
0.1318018
0.125914
0.1203424
0.1151062
0.1102493
0.1058174
0.1018266
0.09827118
0.09512609
0.09235589
0.08992009
0.0877749
0.08587534
0.08417767
0.08264145
0.08123087
0.07991579
0.07867176
0.07748046
0.07633052
0.07521464
0.07413293
0.07307894
0.07203331
0.07107335
0.07017304
0.06929976
0.06844459
0.0676234
0.06684647
0.06611006
0.06540942
0.06474508
0.06411848
0.06352985
0.06298008
0.06246986
0.06199925
0.06156753
0.06117302
0.06081295
0.06048353
0.06017997
0.0598968
0.05962798
0.05936726
0.05910865
0.05884686
0.05857747
0.058297
0.058003
0.05769418
0.05737042
0.05703255
0.05668242
0.05632321
0.05595904
0.05559456
0.05523548
0.05488884
0.05456244
0.0542645
0.0540035
0.05378806
0.05362664
0.05352727
0.05349706
0.05354168
0.05366514
0.05386932
0.05415378
0.0545156
0.05494984
0.05544781
0.05599686
0.05657906
0.05717739
0.05776758
0.05832861
0.05883966
0.05928744
0.05965919
0.05993077
0.06006589
0.06003688
0.05979429
0.05926684
0.0585196
0.05772181
0.05698431
0.0563576
0.05587373
0.05557824
0.05554837
0.05590564
0.05683824
0.05855485
0.06113745
0.06428416
0.06767912
0.07097524
0.07377898
0.07570402
0.07651086
0.07622803
0.07512407
0.07357738
0.07192557
0.07038543
0.06913804
0.06825328
0.06771505
0.06746572
0.06743541
0.06756497
0.06780934
0.06812978
0.06849271
0.06886719
0.06924836
0.06960373
0.06989831
0.07010757
0.0702147
0.0702096
0.07008783
0.0698495
0.06949818
0.06903978
0.06848153
0.06783174
0.06710005
0.06629679
0.06543173
0.06451389
0.06355199
0.06255454
0.06153007
0.06048727
0.05943506
0.05838212
0.05733642
0.05630506
0.05529424
0.05430929
0.05335481
0.05243464
0.05155198
0.05070923
0.04990831
0.0491501
0.04843519
0.04776279
0.0471325
0.04654044
0.0459856
0.04546168
0.04497056
0.0445014
0.04406727
0.04365988
0.04332214
0.04304719
0.04347583
0.04913347
0.05417483
0.08293284
0.1122106
0.1485032
0.1730007
0.1975538
0.2207636
0.2423647
0.2611303
0.2773001
0.2930596
0.3091805
0.3254526
0.3419422
0.3586071
0.3753882
0.3918389
0.4076292
0.4228612
0.4373805
0.4513693
0.4649759
0.4781456
0.4908416
0.5030405
0.5147818
0.5260849
0.5369014
0.5474139
0.581057
0.5851788
0.5883518
0.5895792
0.5893577
0.5879024
0.5853141
0.5816538
0.577109
0.5719885
0.5662981
0.5601576
0.5536753
0.5469238
0.5399638
0.5328507
0.5256372
0.5183714
0.5110767
0.5037482
0.4964524
0.489169
0.4819161
0.4747249
0.4676119
0.4605197
0.453438
0.4464248
0.4394783
0.4325744
0.4257099
0.4188786
0.4120892
0.4053908
0.3988044
0.3924233
0.3861857
0.3796828
0.3735111
0.3676414
0.3619927
0.3565079
0.3511563
0.3459278
0.340828
0.335872
0.3310807
0.3264738
0.3220729
0.3178729
0.3138408
0.3099345
0.3061151
0.3023548
0.2986459
0.2950027
0.2914588
0.2880568
0.2848252
0.2817617
0.2788376
0.2760054
0.2732153
0.2704362
0.2676669
0.2649358
0.2622935
0.2597879
0.25744
0.2552458
0.2531652
0.251144
0.2491232
0.2470848
0.2450232
0.2429878
0.2410443
0.2392437
0.2376049
0.2361088
0.2347022
0.2333244
0.2319319
0.2305149
0.2290997
0.2277377
0.2264836
0.2253758
0.2244167
0.2235719
0.2227867
0.2220102
0.2212169
0.2204128
0.2196133
0.2188097
0.218013
0.2172815
0.2166276
0.215977
0.2152234
0.2143008
0.2132036
0.2119684
0.2106594
0.2093466
0.2080835
0.2068914
0.2057573
0.2046515
0.2035375
0.2023841
0.2011736
0.1999063
0.1986096
0.1973254
0.1960946
0.194968
0.1939517
0.1930194
0.1921023
0.1911341
0.1900132
0.1886824
0.1872186
0.1857404
0.1843036
0.1829506
0.1816976
0.180537
0.1794377
0.1783574
0.1772581
0.1761133
0.1749167
0.1736879
0.1724633
0.1712771
0.1701471
0.1690692
0.1680216
0.1669748
0.1659047
0.1648013
0.1636746
0.1625472
0.1614399
0.1603604
0.1592998
0.1582372
0.1571485
0.1560159
0.1548339
0.153611
0.1523652
0.1511156
0.1498734
0.1486387
0.1474048
0.1461645
0.144917
0.1436683
0.1424291
0.1412107
0.1400212
0.138864
0.1377374
0.1366362
0.1355546
0.1344865
0.1334255
0.1323628
0.1312865
0.1301844
0.1290458
0.1278666
0.126652
0.1254154
0.1241744
0.122948
0.1217543
0.1206097
0.119527
0.1185147
0.1175768
0.1167132
0.1159203
0.1151911
0.114515
0.1138773
0.1132607
0.1126456
0.112012
0.1113414
0.1106194
0.1098367
0.1089914
0.1080891
0.1071422
0.1061685
0.1051908
0.1042336
0.1033193
0.102468
0.1016971
0.1010174
0.1004291
0.09992466
0.09949004
0.09910669
0.09874943
0.0983909
0.0980017
0.09755849
0.09704155
0.09644269
0.09575762
0.09499485
0.0941627
0.09328184
0.09236588
0.09144332
0.09052694
0.08964827
0.08882709
0.08808038
0.08744096
0.08694468
0.0866269
0.08652583
0.0866827
0.08714069
0.08794023
0.08911265
0.09067579
0.09263017
0.09495084
0.09757926
0.1004324
0.1034239
0.1065513
0.1097126
0.1127367
0.1153881
0.1172601
0.1179767
0.1176697
0.116726
0.1155482
0.1144435
0.1137487
0.1140063
0.1158612
0.1199326
0.1265493
0.1352434
0.1449479
0.1547953
0.1638379
0.1715439
0.1776434
0.1819254
0.184049
0.1838506
0.1815017
0.1774886
0.1722483
0.1661567
0.1595428
0.1526841
0.145804
0.1390722
0.1326037
0.1264616
0.1207432
0.1155309
0.1108544
0.1067087
0.1030687
0.09989195
0.09712632
0.09471361
0.09259336
0.09070695
0.08900014
0.08742614
0.08594393
0.08452227
0.08313606
0.08177427
0.08042685
0.07910252
0.07779697
0.0765297
0.07530447
0.07412367
0.07299625
0.07193062
0.07092799
0.06998572
0.06910249
0.06827792
0.06751217
0.06680481
0.0661555
0.06556426
0.06503099
0.06455501
0.06413462
0.06376685
0.0634472
0.06316975
0.06292742
0.06271214
0.0625152
0.06232803
0.06214288
0.061953
0.06175283
0.06153811
0.06130614
0.0610557
0.06078684
0.06050102
0.06020176
0.05989418
0.05958413
0.05927873
0.05898703
0.05871935
0.05848666
0.05830043
0.0581723
0.05811359
0.05813468
0.05824439
0.0584495
0.05875466
0.05916197
0.05967045
0.06027534
0.06096749
0.06173268
0.06255062
0.0633963
0.06424259
0.06505745
0.0658135
0.06649152
0.06707374
0.06753811
0.06786578
0.06804796
0.06806053
0.06789368
0.06751944
0.06696184
0.06627723
0.06551277
0.06467894
0.06376053
0.06276528
0.06174361
0.06078034
0.06000061
0.05958757
0.05975455
0.06068154
0.06249362
0.06516153
0.06833188
0.07171778
0.07504005
0.0779773
0.08020171
0.0815063
0.08189541
0.08157203
0.08082621
0.07993763
0.07910954
0.07844723
0.07797087
0.0776732
0.07753991
0.07753499
0.0776137
0.07772838
0.07784222
0.07794036
0.07798487
0.07795069
0.0778221
0.07759067
0.07725383
0.07681343
0.07627458
0.07564435
0.07493022
0.07413973
0.07328137
0.07236438
0.07139686
0.07038544
0.06933624
0.06825487
0.06714861
0.06602635
0.06489678
0.06376798
0.0626472
0.06154077
0.0604542
0.05939235
0.0583595
0.05735943
0.05639547
0.05547045
0.05458669
0.05374589
0.0529492
0.0521969
0.05148893
0.05082375
0.05019897
0.04961274
0.04906411
0.04855172
0.04807335
0.04763164
0.04723225
0.04690608
0.02121625
0.02369166
0.02608538
0.03479882
0.04642904
0.06611112
0.08008937
0.09503303
0.1112212
0.1277495
0.1449325
0.1639249
0.1843505
0.205375
0.2274172
0.2523332
0.290616
0.3085634
0.3267874
0.3452651
0.3641728
0.3826779
0.4002657
0.4170628
0.4334407
0.4496845
0.4655704
0.4809874
0.4961378
0.5109542
0.5253719
0.5392792
0.5525385
0.5649357
0.5763841
0.5867997
0.5961731
0.6045241
0.6120566
0.6186138
0.6247151
0.6272817
0.6245684
0.6219299
0.6184063
0.6135632
0.6074908
0.6003565
0.5923545
0.5836882
0.5745687
0.5652314
0.5558
0.5463568
0.5369877
0.5277735
0.5187818
0.5100646
0.5016596
0.4935831
0.485835
0.4783745
0.4711713
0.4641779
0.4573534
0.4506814
0.444175
0.4378508
0.4317585
0.4257809
0.4198503
0.4139863
0.4081694
0.4023752
0.3965946
0.3908547
0.3851959
0.3796846
0.3743431
0.3691624
0.364207
0.3594831
0.3549224
0.3504559
0.3460417
0.3416634
0.3373263
0.3330564
0.3289003
0.3249107
0.3211249
0.3175508
0.3141608
0.3108972
0.3076917
0.3044882
0.3012625
0.298033
0.2948567
0.2918056
0.2889411
0.2862896
0.2838178
0.2814495
0.2790989
0.2767062
0.2742607
0.271804
0.2694145
0.2671785
0.2651547
0.2633499
0.2617051
0.2601288
0.2585328
0.2568742
0.2551668
0.2534757
0.2518921
0.2504981
0.2493369
0.2483865
0.2475593
0.2467507
0.2458906
0.2449667
0.2440236
0.2431437
0.242419
0.2419114
0.2416122
0.2414437
0.2413003
0.2410843
0.2407524
0.2403206
0.2398371
0.2393595
0.2389486
0.2386474
0.2384247
0.2381685
0.2377458
0.2370691
0.2361269
0.2349763
0.2337242
0.2324884
0.2313497
0.2303284
0.2294007
0.2285147
0.2275981
0.2265853
0.2254621
0.2242348
0.2229308
0.2216003
0.220306
0.219107
0.2180339
0.2170806
0.2161878
0.2152557
0.2141744
0.2128655
0.2113784
0.2098093
0.2082462
0.2067673
0.2054073
0.2041621
0.2029904
0.2018301
0.2006172
0.1993057
0.1978916
0.1964141
0.1949364
0.193518
0.1921877
0.1909358
0.1897283
0.1885225
0.1872795
0.1859795
0.1846368
0.1832894
0.1819737
0.1807056
0.1794738
0.1782458
0.1769824
0.1756528
0.1742433
0.1727624
0.1712391
0.1697058
0.1681832
0.1666724
0.1651609
0.1636347
0.1620895
0.1605337
0.1589838
0.1574582
0.1559712
0.15453
0.1531334
0.151775
0.1504469
0.1491426
0.147855
0.1465738
0.1452829
0.143964
0.142601
0.1411859
0.1397226
0.1382258
0.1367175
0.1352221
0.1337637
0.1323641
0.1310406
0.1298052
0.1286634
0.1276158
0.1266583
0.1257832
0.1249784
0.1242277
0.123511
0.1228053
0.1220865
0.1213314
0.1205208
0.119642
0.1186904
0.1176712
0.1165981
0.115492
0.1143789
0.113287
0.1122424
0.111268
0.1103825
0.1095966
0.1089121
0.1083198
0.1077954
0.1073168
0.1068626
0.1064036
0.1059107
0.1053599
0.1047344
0.1040274
0.1032398
0.1023817
0.1014672
0.1005158
0.09954715
0.09858439
0.09764969
0.09676709
0.095963
0.09527062
0.09473945
0.094418
0.09435568
0.09460829
0.09523686
0.09630414
0.09786505
0.09995653
0.1025915
0.1057478
0.1093485
0.113248
0.1172507
0.1211694
0.1249394
0.1285098
0.1317563
0.134502
0.1364555
0.1374104
0.137471
0.1368745
0.1357529
0.1341427
0.1321764
0.1301653
0.1285408
0.1277802
0.1282747
0.1302707
0.1337758
0.1385089
0.1440025
0.1497799
0.1553035
0.160084
0.1640383
0.1671121
0.1692181
0.1700697
0.1694686
0.167392
0.164
0.1595208
0.1542234
0.1483867
0.1422696
0.1360877
0.1300746
0.124412
0.1192108
0.1145266
0.1103755
0.1067432
0.1035909
0.1008637
0.09849529
0.09641532
0.09455618
0.09285674
0.09126253
0.08972805
0.08821778
0.08670962
0.08519187
0.0836658
0.08213683
0.08061619
0.07911972
0.07766431
0.07626367
0.07492909
0.07366976
0.0724916
0.071398
0.07039213
0.06947547
0.06864852
0.06791091
0.06726186
0.06670007
0.06622344
0.06582858
0.06551057
0.06526264
0.06507625
0.06494144
0.06484709
0.06478132
0.06473246
0.06468984
0.06464414
0.06458755
0.06451396
0.06441921
0.0643012
0.06415969
0.06399646
0.06381563
0.06362328
0.06342712
0.06323711
0.06306523
0.06292456
0.06282915
0.06279352
0.0628321
0.06295846
0.06318455
0.06351993
0.0639713
0.0645422
0.06523263
0.06603832
0.06695027
0.06795393
0.06902743
0.07014149
0.0712612
0.07234967
0.07336954
0.07428671
0.07507613
0.07572237
0.07621118
0.07653369
0.07668822
0.07666957
0.0764796
0.07614509
0.07566337
0.07503297
0.07425678
0.07333012
0.07223441
0.07095334
0.06948822
0.06786344
0.06615175
0.064501
0.06311314
0.06219505
0.06191886
0.06239131
0.06364955
0.06570764
0.06849248
0.07168307
0.07502298
0.07825825
0.08113206
0.08342048
0.08500538
0.08590756
0.08626307
0.08625651
0.08606026
0.08580135
0.08555223
0.08533999
0.08515829
0.08497824
0.08475809
0.08448622
0.08415469
0.0837505
0.08326699
0.08270266
0.08205987
0.08134368
0.08056101
0.07971968
0.07882706
0.07788945
0.07691321
0.07590491
0.07486938
0.07380929
0.07272661
0.07162095
0.07049566
0.06935914
0.06821964
0.06708411
0.06595823
0.06484668
0.06375353
0.06268239
0.0616366
0.06061932
0.05963349
0.05868187
0.05776694
0.0568908
0.05605519
0.05526124
0.05450963
0.05380053
0.05313278
0.05250542
0.0519182
0.05137171
0.05086192
0.05039145
0.04995819
0.04959932
0.009019527
0.0105122
0.01165854
0.01734017
0.02389582
0.03253008
0.03966841
0.0477869
0.05662059
0.0660907
0.07654206
0.08892709
0.1026
0.1179881
0.1365472
0.165261
0.1806373
0.1969079
0.2135221
0.2304244
0.2475268
0.2646709
0.2816916
0.2984507
0.3147648
0.3305825
0.3461072
0.3631041
0.3803442
0.3980585
0.4162344
0.4343086
0.4518037
0.4686418
0.4848195
0.5000364
0.5145517
0.5285372
0.5420183
0.5549564
0.5672545
0.5787728
0.5893246
0.5987725
0.6070192
0.6139067
0.6194022
0.6234002
0.6260392
0.6259257
0.6240509
0.6197452
0.6127149
0.6042976
0.594367
0.5831625
0.5710354
0.5583049
0.5452621
0.5321729
0.5192634
0.5067123
0.4946438
0.4831277
0.4722049
0.4619038
0.4522493
0.4432634
0.4349599
0.4273341
0.4203559
0.4139506
0.4080267
0.4024677
0.3972483
0.3923361
0.3877036
0.3832932
0.3789758
0.3748651
0.3709706
0.3672558
0.363635
0.3600186
0.3563506
0.3526288
0.348899
0.345235
0.3417201
0.3384111
0.3353311
0.3324537
0.3297022
0.3269884
0.324243
0.3214289
0.3185446
0.3156245
0.3127362
0.3099638
0.3073753
0.3050006
0.3028151
0.3007429
0.2986851
0.2965549
0.2943088
0.2919635
0.2895996
0.2873357
0.2852772
0.2834747
0.2818889
0.2804068
0.2789034
0.2772932
0.2755626
0.2737771
0.2720581
0.2705324
0.269286
0.2683286
0.2675756
0.2668889
0.2661474
0.2653032
0.264398
0.26354
0.2628669
0.2624996
0.2624826
0.2627392
0.2630997
0.2633929
0.2635316
0.2635397
0.2635335
0.2636749
0.2641147
0.2649174
0.2660008
0.267154
0.2681494
0.2688354
0.2691864
0.2692947
0.2693071
0.2693922
0.2696726
0.2701639
0.2707469
0.2712065
0.2712923
0.270865
0.2699466
0.2686926
0.267343
0.2661399
0.265162
0.2644181
0.2638462
0.26334
0.2627364
0.2618826
0.2607337
0.2593777
0.2579113
0.2564319
0.2550399
0.2538162
0.2527924
0.2519403
0.2511497
0.250272
0.2491359
0.2476769
0.2459609
0.2441124
0.2422663
0.2405321
0.238962
0.237538
0.236177
0.2347712
0.2332358
0.2315173
0.2296223
0.2276286
0.2256448
0.2237663
0.2220339
0.2204219
0.2188673
0.2173045
0.215677
0.2139647
0.212197
0.2104333
0.2087235
0.2070839
0.2054947
0.2039091
0.2022723
0.2005396
0.1986914
0.1967417
0.1947335
0.1927184
0.1907297
0.1887688
0.1868129
0.1848367
0.1828311
0.1808079
0.1787918
0.1768092
0.174882
0.1730217
0.1712272
0.1694886
0.1677948
0.1661384
0.1645146
0.1629142
0.1613187
0.1597033
0.1580453
0.1563328
0.1545689
0.1527706
0.1509642
0.1491795
0.1474459
0.1457898
0.1442319
0.1427863
0.141459
0.140249
0.1391494
0.1381491
0.1372326
0.1363803
0.1355687
0.1347714
0.1339613
0.1331133
0.1322069
0.1312298
0.1301794
0.1290645
0.1279029
0.1267202
0.1255461
0.1244109
0.1233418
0.1223608
0.121483
0.1207163
0.1200632
0.1194907
0.1189608
0.1184332
0.1178832
0.1172934
0.1166377
0.1158984
0.1150689
0.1141538
0.1131665
0.1121269
0.1110579
0.1099843
0.1089311
0.1079237
0.1069883
0.1061527
0.1054496
0.1049205
0.104631
0.104662
0.1050844
0.1059789
0.1074358
0.1095461
0.1123814
0.1159808
0.120356
0.125466
0.1311231
0.1369859
0.1426404
0.1477192
0.152042
0.1557403
0.1587524
0.1610116
0.1624077
0.1629067
0.1626259
0.1616919
0.1601243
0.1578616
0.1549337
0.1515143
0.1477913
0.1439926
0.1405601
0.1379758
0.1364707
0.1360774
0.136753
0.1383422
0.1406036
0.1432694
0.1461349
0.1490097
0.1516836
0.1539181
0.155493
0.1561986
0.1558308
0.1542928
0.1516076
0.1479402
0.1435208
0.1386119
0.1334838
0.1283741
0.1234702
0.1189066
0.1147656
0.1110864
0.1078703
0.1050868
0.1026807
0.1005818
0.09871711
0.09701857
0.09542475
0.09388075
0.09234234
0.09078031
0.08917983
0.08753918
0.08586641
0.08417692
0.08249137
0.08083175
0.07921821
0.07766967
0.07620369
0.07483396
0.07356998
0.07241876
0.07138562
0.07047381
0.06968454
0.06901737
0.0684703
0.0680396
0.06771961
0.06750252
0.06737825
0.06733463
0.06735784
0.06743278
0.06754388
0.06767614
0.0678159
0.06795125
0.06807233
0.06817155
0.06824386
0.0682869
0.06830067
0.06828773
0.06825373
0.06820684
0.06815741
0.06811861
0.06810611
0.06813671
0.06822789
0.06839719
0.06866104
0.06903416
0.06952858
0.07015269
0.07091089
0.07180379
0.07282808
0.07397404
0.07522364
0.07655814
0.07794715
0.07935034
0.08072171
0.08201518
0.08318881
0.08420847
0.08505088
0.08570226
0.08615396
0.0864041
0.08645929
0.0863331
0.08603864
0.08562709
0.08509247
0.08440321
0.08353053
0.08245903
0.08117505
0.0796573
0.0778933
0.07590168
0.07372832
0.07146012
0.06922268
0.06716468
0.06544271
0.06420859
0.06359619
0.06370661
0.06458117
0.06618438
0.06844683
0.07123987
0.07427143
0.07732639
0.08020826
0.08274432
0.0848226
0.0863968
0.08749287
0.08818176
0.08854971
0.0886763
0.08862184
0.08842236
0.08808914
0.08761587
0.08701678
0.08632006
0.08554544
0.08470774
0.08381897
0.0828893
0.08192784
0.08094291
0.07994087
0.07892514
0.07789846
0.07686452
0.07582692
0.07478649
0.07374171
0.07269107
0.07163052
0.07056275
0.06949456
0.06843127
0.06737677
0.06633403
0.06530558
0.0642937
0.06330069
0.06232888
0.06138068
0.06045856
0.05956496
0.05870222
0.05787249
0.05707756
0.05631902
0.05559786
0.05491476
0.05426983
0.05366324
0.05309549
0.05256543
0.05207347
0.05161741
0.05123528
0.002218792
0.008567355
0.01277486
0.01767018
0.0231511
0.02944874
0.03667022
0.04463724
0.05360229
0.06445162
0.08089061
0.09081419
0.1016216
0.1130532
0.1251567
0.1378715
0.1511391
0.1648444
0.178805
0.1928835
0.2070566
0.2231544
0.239573
0.2560977
0.2726004
0.2889874
0.305157
0.32106
0.3367204
0.3520609
0.3671857
0.382421
0.3982168
0.4143134
0.4306844
0.4471676
0.463329
0.4787529
0.4932424
0.5066427
0.5192628
0.5313396
0.5429823
0.5541688
0.5648437
0.5748922
0.584171
0.5923904
0.5993212
0.6048491
0.6087077
0.6103401
0.6091676
0.6057502
0.5997938
0.5914866
0.5808424
0.5681236
0.5538664
0.5384735
0.5223626
0.5059404
0.48957
0.4735634
0.4581834
0.443639
0.430072
0.4175561
0.4061027
0.3956827
0.386247
0.3777597
0.3702084
0.3635914
0.3579057
0.3531196
0.3491054
0.3456821
0.3426482
0.3396734
0.3367
0.3338244
0.3311589
0.3287689
0.3267481
0.3250832
0.3236608
0.3223109
0.3208754
0.3192647
0.317477
0.3155811
0.3136861
0.3119107
0.3103422
0.3090027
0.307842
0.3067598
0.3056476
0.3044194
0.303029
0.3014806
0.2998276
0.298161
0.2965877
0.2952033
0.2940513
0.293098
0.2922334
0.2913182
0.2902506
0.2889924
0.2875833
0.2861407
0.2848303
0.2837935
0.2830687
0.2825675
0.2821262
0.2815932
0.2808947
0.2800605
0.2792187
0.2785563
0.2782507