/*--------------------------------*- C++ -*----------------------------------*\
| =========                 |                                                 |
| \\      /  F ield         | foam-extend: Open Source CFD                    |
|  \\    /   O peration     | Version:     3.1                                |
|   \\  /    A nd           | Web:         http://www.extend-project.de       |
|    \\/     M anipulation  |                                                 |
\*---------------------------------------------------------------------------*/
FoamFile
{
    version     2.0;
    format      ascii;
    class       volScalarField;
    location    "18";
    object      nut;
}
// * * * * * * * * * * * * * * * * * * * * * * * * * * * * * * * * * * * * * //

dimensions      [0 2 -1 0 0 0 0];

internalField   nonuniform List<scalar> 
119952
(
5.506745e-05
3.746973e-05
3.892102e-05
4.338086e-05
4.642474e-05
4.426452e-05
4.286674e-05
4.18312e-05
4.101565e-05
4.030092e-05
3.963612e-05
3.89943e-05
3.835611e-05
3.770707e-05
3.704235e-05
3.636137e-05
3.565771e-05
3.493463e-05
3.416134e-05
3.330467e-05
4.166656e-05
3.968741e-05
3.882125e-05
4.971482e-05
4.829398e-05
4.73523e-05
4.679043e-05
4.666568e-05
4.673485e-05
2.896609e-05
3.310268e-05
3.624818e-05
4.107794e-05
4.590218e-05
5.090929e-05
5.614756e-05
6.165196e-05
6.731097e-05
7.307618e-05
8.31307e-05
0.0003782117
0.0004364209
0.0005017433
0.0005708262
0.0006411457
0.0007112181
0.0007804194
0.000848578
0.0009152902
0.001289945
0.001356258
0.001422341
0.00148755
0.001552174
0.001616868
0.001681713
0.00174679
0.001812238
0.001876532
0.001944536
0.002009957
0.002073777
0.002136941
0.002199663
0.002261965
0.002324231
0.002386581
0.002453163
0.002267663
0.002525462
0.002536906
0.002557515
0.002573085
0.002577615
0.002573253
0.002561634
0.002545297
0.002527589
0.002509649
0.002492086
0.002474959
0.002458011
0.002440896
0.002423494
0.002406013
0.002389269
0.002375039
0.002367162
0.00236644
0.002367923
0.002370656
0.002385514
0.002405016
0.002407926
0.002394288
0.002356676
0.002254321
0.002066738
0.002002743
0.001958336
0.001929426
0.001908837
0.001892136
0.001878058
0.001865418
0.00185326
0.001841142
0.001828922
0.001816591
0.001804178
0.001791645
0.001778862
0.001765637
0.001751786
0.001737193
0.00172183
0.001705746
0.00168903
0.001671773
0.001654025
0.001635798
0.001617097
0.001597975
0.001578571
0.00155911
0.001539861
0.001521073
0.001502916
0.001485471
0.00146873
0.001452634
0.001437094
0.001422016
0.001407295
0.001392802
0.001378371
0.00136381
0.001348936
0.00133363
0.001317891
0.001301869
0.001285872
0.001270322
0.001255689
0.001242418
0.001230993
0.001222705
0.001217458
0.001210514
0.001206075
0.001203548
0.001202419
0.001202323
0.001202946
0.001203811
0.001204438
0.001204389
0.001203231
0.001200592
0.001196162
0.00118973
0.001181201
0.001170639
0.001158313
0.001144706
0.00113049
0.001116449
0.001103367
0.00109191
0.001082546
0.001075488
0.001070721
0.001068035
0.001067149
0.001067466
0.001068286
0.001069047
0.001069296
0.00106854
0.001066299
0.001062121
0.00105568
0.001046869
0.001035124
0.001020499
0.001003352
0.0009842814
0.0009640204
0.0009433398
0.000922993
0.0009035814
0.0008856166
0.0008695325
0.0008557979
0.0008450153
0.0008383883
0.000838406
0.0007198323
0.0007144667
0.0007028721
0.0006970745
0.0006884153
0.0006771874
0.0006699357
0.0006657449
0.0006629833
0.0006601021
0.0006557525
0.0006489231
0.0006389595
0.0006259023
0.0006098335
0.0005906385
0.0005692082
0.0005441598
0.000514689
0.0004796358
0.0004372034
0.0003803209
0.0002430591
0.0001786151
0.0002896214
0.0004375383
0.0005426315
0.0005828493
0.0005517823
0.0004836024
0.0004238364
0.0003962181
0.0004025943
0.0004346969
0.000479138
0.0005302667
0.0005919734
0.0006248116
0.0006448787
0.0006569808
0.000662874
0.0006642859
0.0006625596
0.0006588362
0.0006539957
0.0006486425
0.0006431585
0.0006377777
0.0006326319
0.0006277929
0.0006233057
0.000619253
0.0006157335
0.0006127728
0.0006103232
0.0006083124
0.0006066616
0.0006052922
0.0006041332
0.000603127
0.0006022361
0.0006014368
0.0006007276
0.0006001353
0.0005997055
0.0005994955
0.0005995641
0.0005999784
0.0006008097
0.00060207
0.0007758298
0.000787009
0.0007984785
0.0008101496
0.000822043
0.0008341783
0.0008467274
0.0008598618
0.0008736298
0.000887762
0.0009020644
0.0009163608
0.0009305709
0.0009445868
0.0009582419
0.0009713875
0.0009838937
0.0009956515
0.001006574
0.001016598
0.001025682
0.001033809
0.00104099
0.001047261
0.001052686
0.001057351
0.00106136
0.001064838
0.001067924
0.00107077
0.001073535
0.001076385
0.001079487
0.001083002
0.001087086
0.001091882
0.00109752
0.00110411
0.001111736
0.001120456
0.001130294
0.001141245
0.001153264
0.001166252
0.001180052
0.001194401
0.001208676
0.001222922
0.001237266
0.00125132
0.001264732
0.001277037
0.001287675
0.001295661
0.001301614
0.001299561
0.001291529
0.00127434
0.001242057
0.001182016
0.0010758
0.0009151628
0.0007346152
0.0006187484
0.0005901039
0.0005438587
0.000565059
0.0006091584
0.0006535121
0.0006927463
0.000729767
0.0007718439
0.0008342598
0.0009042133
0.0009575296
0.001009201
0.001049395
0.001077352
0.001098432
0.001118069
0.001138484
0.001160559
0.00118517
0.001212944
0.001244122
0.001278779
0.001316923
0.001358338
0.001402437
0.001448328
0.001495007
0.001541513
0.001586824
0.00163248
0.001678522
0.001722396
0.001762621
0.001798324
0.001828943
0.001854138
0.001873742
0.001887729
0.001896191
0.001899317
0.001897375
0.001890695
0.001879657
0.001864669
0.001846152
0.001824517
0.00180017
0.001773528
0.001745021
0.001715103
0.001684245
0.00165292
0.001621581
0.001590642
0.001560474
0.001531394
0.001503673
0.00147753
0.001453136
0.001430619
0.001410061
0.00139151
0.001374979
0.001360459
0.001347916
0.001337309
0.001328582
0.001321702
0.001316655
0.001313493
0.001312338
0.001313617
0.001318319
0.001330344
0.001100967
5.315582e-05
5.712995e-05
6.683766e-05
7.820072e-05
8.94458e-05
0.0001001041
0.0001101585
0.0001196953
0.0001302133
0.000451859
0.0006115539
0.0007793246
0.0009389427
0.001083871
0.00121243
0.001326303
0.00142832
0.001521365
0.002176068
0.002278425
0.002384106
0.002487652
0.002588355
0.002685525
0.002779167
0.002869176
0.002955469
0.003037048
0.003114973
0.003188907
0.003259242
0.00332808
0.003396434
0.003464442
0.003531864
0.003598701
0.00366478
0.003713151
0.00374489
0.003780518
0.003820075
0.003863058
0.003908432
0.003955479
0.004003813
0.00405326
0.004103641
0.004155854
0.004207914
0.00426013
0.004312209
0.004363476
0.004413637
0.004462753
0.004511137
0.004558521
0.005336393
0.005380269
0.005422889
0.005465089
0.00550637
0.005546267
0.005584673
0.005621786
0.005658289
0.00569444
0.005730534
0.005767417
0.005804819
0.005841976
0.00587828
0.00591321
0.005946738
0.005980002
0.006015355
0.006046545
0.006065557
0.00608258
0.006100616
0.006113166
0.006116962
0.006113121
0.006103989
0.006090709
0.006072681
0.006051659
0.006029915
0.006007739
0.005984978
0.005961325
0.005936623
0.005911053
0.005885381
0.005861183
0.005840112
0.005820692
0.005802824
0.005788313
0.005779651
0.005773349
0.005754678
0.005723465
0.005675265
0.005602863
0.005523772
0.005465688
0.005414384
0.005367295
0.005324496
0.005284491
0.00524619
0.005208536
0.00517074
0.005132469
0.005093772
0.005054941
0.005016295
0.004977975
0.004939849
0.004901554
0.00486263
0.004822665
0.004781391
0.004738719
0.004694708
0.004649477
0.0046031
0.004555546
0.004506707
0.004456498
0.004404977
0.004352414
0.004299275
0.004246134
0.004193556
0.004142006
0.004091796
0.004043094
0.003995963
0.003950412
0.003906409
0.003863864
0.003822596
0.003782318
0.003742656
0.003703211
0.003663618
0.00362364
0.003583216
0.003542513
0.003501938
0.00346212
0.00342389
0.00338823
0.00335582
0.003326053
0.003300452
0.003279518
0.003263562
0.003252527
0.003246135
0.003243758
0.003244628
0.003247767
0.003252111
0.003256525
0.003259871
0.00326106
0.00325911
0.00325323
0.003242902
0.003227969
0.003208692
0.003185739
0.003160148
0.003133228
0.003106393
0.003081026
0.003058379
0.003039426
0.003024791
0.003014762
0.003009226
0.003007721
0.00300961
0.003014079
0.003019941
0.003025924
0.003030869
0.003033613
0.003032982
0.003028115
0.003018335
0.003003438
0.002983558
0.002959317
0.002931545
0.002901456
0.002870253
0.002839564
0.002810595
0.002785401
0.002765332
0.002754506
0.002689367
0.00260903
0.002553768
0.002517547
0.002496264
0.002488547
0.002493046
0.002508425
0.00253332
0.002566339
0.002606018
0.002650742
0.002698677
0.002747666
0.002794775
0.002834203
0.002857963
0.002861626
0.002834744
0.002757665
0.002528298
0.002241655
0.001796718
0.001369838
0.001122795
0.00101952
0.001001626
0.0008848402
0.0008878106
0.0009781047
0.001176039
0.001459365
0.001705621
0.001965032
0.002265907
0.002552587
0.002788379
0.002964555
0.003088216
0.003178106
0.003245518
0.003294265
0.003326755
0.003345344
0.003352294
0.003349588
0.003338817
0.003321222
0.003297845
0.003269693
0.003237747
0.003203058
0.003166763
0.003129637
0.003091964
0.003053758
0.003014885
0.002975117
0.002934203
0.002891948
0.002848277
0.002803288
0.002757281
0.002710775
0.002664494
0.002619331
0.002576284
0.00253634
0.002500399
0.002468841
0.002770586
0.002751631
0.002739116
0.002732364
0.002730803
0.002734109
0.002742045
0.002754246
0.002770216
0.002789454
0.002811486
0.002835841
0.002862035
0.002889582
0.002918003
0.002946831
0.002975617
0.003003933
0.003031383
0.003057608
0.003082296
0.003105191
0.003126105
0.003144928
0.003161626
0.003176242
0.003188893
0.003199774
0.003209147
0.00321733
0.003224698
0.003231676
0.003238722
0.003246309
0.003254935
0.003265105
0.00327732
0.003292048
0.003309722
0.00333072
0.003355358
0.003383881
0.003416439
0.003453079
0.003493693
0.00353802
0.00358564
0.003636118
0.003688891
0.003743096
0.003797356
0.003850403
0.003899518
0.003942869
0.003978557
0.004001553
0.004004994
0.003980053
0.003912579
0.003780897
0.003568467
0.003271456
0.002939915
0.002648511
0.0024191
0.002231014
0.0020659
0.001912077
0.001770144
0.001649114
0.001450795
0.001283995
0.001185633
0.001140924
0.0011494
0.001214918
0.001332776
0.001494604
0.001693752
0.001919101
0.002036871
0.00213685
0.002241242
0.002349815
0.002461661
0.002576455
0.002693965
0.002813655
0.002934548
0.003055259
0.003174195
0.003289706
0.003400176
0.003504033
0.003601163
0.003692479
0.003776832
0.003853408
0.003921668
0.003981274
0.004032043
0.004073915
0.004106926
0.00413119
0.004146888
0.004154253
0.004153585
0.004145235
0.004129592
0.004107061
0.004078068
0.004043078
0.004002609
0.003957245
0.003907654
0.003854563
0.003798738
0.003740944
0.00368194
0.003622456
0.003563193
0.003504807
0.003447911
0.003393058
0.003340746
0.003291399
0.003245377
0.003202972
0.003164399
0.003129805
0.003099273
0.003072865
0.003050595
0.003032346
0.003018014
0.003007581
0.003002581
0.003006166
0.003016876
3.146225e-05
3.829771e-05
4.859907e-05
6.074482e-05
7.515932e-05
9.238743e-05
0.0001133935
0.0001393631
0.0001724046
0.0002300764
0.000980776
0.001146317
0.001322062
0.001511156
0.00170388
0.001884535
0.002021261
0.002181957
0.002555169
0.004585084
0.004814374
0.004965749
0.005098752
0.005224563
0.005336727
0.005437963
0.005530154
0.005616619
0.005739583
0.005980958
0.006194129
0.006339481
0.006436522
0.00650398
0.006553323
0.006590835
0.006620238
0.006649299
0.006544261
0.006530982
0.006558217
0.006602202
0.006650793
0.006697964
0.006741018
0.006778755
0.006810932
0.006837728
0.00685869
0.006877135
0.006894192
0.006910622
0.006926842
0.006943025
0.006958978
0.006972857
0.007741509
0.007756146
0.007763603
0.007766948
0.007767927
0.007767278
0.007765771
0.007764006
0.007762789
0.007762501
0.007762769
0.007763969
0.007766287
0.007769079
0.007771987
0.007774932
0.007777994
0.007781631
0.007786528
0.007792406
0.007799114
0.007807317
0.007816575
0.007826089
0.007835347
0.007844184
0.007852855
0.007861867
0.007871604
0.00788289
0.007896139
0.007910823
0.007926317
0.007941897
0.007957017
0.007971493
0.007985773
0.008001661
0.008002572
0.008007244
0.008015555
0.008026763
0.008039733
0.008053337
0.008066838
0.008080072
0.008093399
0.008107401
0.00812293
0.008140517
0.008159865
0.008180069
0.008200132
0.008219051
0.008236567
0.008253009
0.008268893
0.008282945
0.008292983
0.008300315
0.008306975
0.008311423
0.008311333
0.008305469
0.008294136
0.008278424
0.008259726
0.008239216
0.008217348
0.008195818
0.008174478
0.008152787
0.008130179
0.008106221
0.008081272
0.008056024
0.00803176
0.008009649
0.007989719
0.007972284
0.00795812
0.007942346
0.007920744
0.007890507
0.007851034
0.007797666
0.007737105
0.007682747
0.007635044
0.007590803
0.007550337
0.007512871
0.007476926
0.007441167
0.007404561
0.007366513
0.007326922
0.007286139
0.00724475
0.007203225
0.007161656
0.007119696
0.007076692
0.007031944
0.006984923
0.006935404
0.006883472
0.006829391
0.006773383
0.006715449
0.006655369
0.006592841
0.006527684
0.006460008
0.006390256
0.006319134
0.006247462
0.006176007
0.006105362
0.006035907
0.005967867
0.005901396
0.005836625
0.005773657
0.005712504
0.005653035
0.005594952
0.005537838
0.005481201
0.005424597
0.005367691
0.005310362
0.005252699
0.00519502
0.005137929
0.005082293
0.005029205
0.004979056
0.004932907
0.004892172
0.004857684
0.004829874
0.004808865
0.004794407
0.004785897
0.004782434
0.004782862
0.004785849
0.00478994
0.004793628
0.004795415
0.004793902
0.004787889
0.004776491
0.004759246
0.004736176
0.004707842
0.004675299
0.004639972
0.004603561
0.004567881
0.004534619
0.004505227
0.004480829
0.00446201
0.004448852
0.004441111
0.004438129
0.00443862
0.004441056
0.004443989
0.004445924
0.004445385
0.004440998
0.004431759
0.004417082
0.004396998
0.004371888
0.004342757
0.004310605
0.004277118
0.00424354
0.004211818
0.004183172
0.004159772
0.004142302
0.004127271
0.004120052
0.0041216
0.004132266
0.004152186
0.004182078
0.004222605
0.0042743
0.004337552
0.004412524
0.004498898
0.00459574
0.004701554
0.004813785
0.00492811
0.005038475
0.005136797
0.005216563
0.005065442
0.004787903
0.004431695
0.004452331
0.004488459
0.004002613
0.003516363
0.003084134
0.002727835
0.002459239
0.002279619
0.002066125
0.001699773
0.001592532
0.001663684
0.00183456
0.002082419
0.002384508
0.002695328
0.00297726
0.003212203
0.003387517
0.003529856
0.003662022
0.003793866
0.003929969
0.004071045
0.004215111
0.00435896
0.004498636
0.004625733
0.004681223
0.004712708
0.004735978
0.00475293
0.004764856
0.004772428
0.00477584
0.0047749
0.004769103
0.004757735
0.004740004
0.004715184
0.004682736
0.004642421
0.004594375
0.004539189
0.004477936
0.004412097
0.004343588
0.004274274
0.004206608
0.004137871
0.004076181
0.004021656
0.003974997
0.003937178
0.003908646
0.003889212
0.003878502
0.003876077
0.00388133
0.003893541
0.003911952
0.003935781
0.003964225
0.003996486
0.004031769
0.004069294
0.0041083
0.004148053
0.004187857
0.004227069
0.004265111
0.004301495
0.004335842
0.004367885
0.00439747
0.004424563
0.004449249
0.00447173
0.004492304
0.004511373
0.004529443
0.004547092
0.004564944
0.004583696
0.004604104
0.004626947
0.004652989
0.00468297
0.004717585
0.004757462
0.004803133
0.004854998
0.004913294
0.004978084
0.005049232
0.005126369
0.005208874
0.005295835
0.005385918
0.005477291
0.005567647
0.005654265
0.005734095
0.005803762
0.005858812
0.005894113
0.005902953
0.005874397
0.005789592
0.005630426
0.00539604
0.005107214
0.004799722
0.004492319
0.004178402
0.003844298
0.003488674
0.003127293
0.002782357
0.002478405
0.002236906
0.002069202
0.001971377
0.001751609
0.001545815
0.001456298
0.001453097
0.001515854
0.001634847
0.001807491
0.002029633
0.002292047
0.002568754
0.002766559
0.002916461
0.003073201
0.003235075
0.003399509
0.00356359
0.003724682
0.003880577
0.004029264
0.004168885
0.00429762
0.004415845
0.004524528
0.004624159
0.004715121
0.004797674
0.00487198
0.004938131
0.004996173
0.005046123
0.005087973
0.005121703
0.005147303
0.005164803
0.005174272
0.005175791
0.005169465
0.005155458
0.005134016
0.005105506
0.005070421
0.005029363
0.004983012
0.004932093
0.004877355
0.004819569
0.004759511
0.004697965
0.004635704
0.004573493
0.004512063
0.004452114
0.004394286
0.004339176
0.004287285
0.004239082
0.004194847
0.004154941
0.004119463
0.004088736
0.004062495
0.004041466
0.004025502
0.00401628
0.004012931
3.97632e-05
6.429208e-05
0.0001436992
0.0004848668
0.000835006
0.001496184
0.002009529
0.002632166
0.003350161
0.00394005
0.004372726
0.004719339
0.005063977
0.005416761
0.005780086
0.006148603
0.006522322
0.006900367
0.007264291
0.007603485
0.007928099
0.008222455
0.008462417
0.008666921
0.008853571
0.00902294
0.009175084
0.009310998
0.009435905
0.009560478
0.009704475
0.01
0.01
0.009757824
0.009475846
0.009229486
0.009017203
0.0088432
0.008715454
0.008618795
0.008527673
0.008478532
0.008466122
0.008479966
0.008517272
0.008576193
0.008653936
0.008747494
0.008853574
0.008980846
0.009114435
0.009234956
0.009379493
0.009538149
0.009707668
0.009898252
0.01
0.01
0.01
0.01
0.01
0.01
0.01
0.01
0.01
0.01
0.01
0.01
0.009971921
0.009946365
0.009924034
0.009903548
0.009884136
0.009865434
0.009847422
0.009830321
0.009814525
0.009800414
0.009788219
0.009778133
0.009769891
0.009762815
0.00975623
0.00974969
0.009743092
0.009736749
0.009731291
0.009727412
0.009725708
0.009726381
0.009729001
0.00973272
0.009736613
0.009740066
0.009743042
0.009746078
0.009750088
0.009756127
0.009764822
0.009775989
0.009788861
0.009802159
0.009814754
0.009825904
0.009835974
0.009845654
0.009855649
0.009867353
0.009881364
0.009897352
0.009914122
0.009930034
0.00994384
0.009955131
0.009964391
0.009972741
0.009981501
0.009991608
0.01
0.01
0.01
0.01
0.01
0.01
0.01
0.01
0.01
0.01
0.01
0.01
0.01
0.01
0.009987274
0.009965925
0.009941561
0.009915995
0.009890852
0.009867084
0.009845077
0.009824174
0.009803365
0.009781664
0.009758601
0.009734313
0.009709278
0.009684432
0.009660928
0.009639526
0.009620663
0.009602876
0.009584061
0.009561695
0.009534146
0.009499168
0.009457544
0.00941441
0.009373034
0.009334496
0.009299258
0.009266931
0.009236448
0.009206324
0.009175149
0.009141956
0.009106377
0.009068717
0.009029827
0.008990631
0.008951645
0.008912738
0.008873212
0.008832079
0.008788382
0.008741596
0.008691704
0.008639132
0.008584405
0.008527761
0.008468998
0.008407603
0.008343032
0.008275005
0.008203673
0.008129609
0.008053688
0.00797687
0.007899961
0.007823481
0.007747693
0.007672746
0.007598808
0.007526117
0.007454907
0.007385299
0.007317221
0.0072504
0.007184392
0.007118685
0.007052794
0.006986372
0.006919257
0.006851495
0.006783388
0.006715481
0.006648618
0.006583715
0.006521981
0.006464835
0.006413565
0.006369153
0.006332209
0.006302944
0.006281162
0.006266277
0.00625735
0.006253158
0.006252259
0.006253055
0.006253864
0.006252983
0.006248791
0.006239871
0.00622514
0.006203953
0.006176221
0.006142438
0.006103659
0.006061443
0.00601769
0.005974395
0.005933497
0.005896717
0.005865289
0.005839854
0.005820611
0.005807262
0.005798785
0.0057937
0.005790412
0.005787242
0.005782517
0.005774649
0.00576239
0.005744918
0.005722067
0.005694164
0.005662147
0.005627199
0.00559092
0.005554803
0.005520648
0.005489849
0.005464254
0.005444798
0.005432706
0.005429044
0.005433817
0.005447464
0.0054716
0.005507665
0.005557104
0.005621295
0.005701443
0.005798264
0.005911623
0.006040352
0.006182087
0.006332842
0.006486752
0.006636241
0.006769621
0.006879826
0.006956897
0.006781229
0.006647839
0.006732118
0.006472962
0.006069555
0.005591105
0.005074659
0.004550386
0.004050138
0.003605956
0.00324434
0.002987309
0.002848136
0.002773175
0.002522337
0.002425651
0.002479675
0.002604394
0.002759816
0.002927458
0.003097444
0.003266926
0.003432887
0.003601
0.003776322
0.003961575
0.004157342
0.004362
0.00457328
0.004784284
0.004988132
0.005159259
0.005228116
0.005289861
0.005346608
0.005399584
0.005449322
0.005495645
0.005537812
0.005574629
0.0056046
0.005626123
0.005637667
0.005637943
0.005626006
0.005601473
0.005564492
0.005516008
0.005457419
0.005390967
0.005318897
0.005244016
0.005169005
0.005096321
0.005028428
0.004967466
0.00491491
0.004871677
0.004838371
0.004815313
0.004802501
0.004799623
0.004806163
0.004821458
0.004844734
0.004875125
0.004911696
0.004953459
0.004999382
0.005048415
0.005099513
0.005151659
0.005203896
0.005255367
0.005305355
0.005353287
0.005398745
0.005441475
0.005481395
0.005518588
0.005553282
0.005585865
0.005616897
0.005647054
0.005677107
0.005707954
0.005740604
0.005776113
0.005815549
0.005859969
0.005910384
0.005967713
0.006032732
0.006106009
0.006187876
0.006278417
0.006377431
0.006484377
0.006598309
0.006717816
0.006840958
0.006965201
0.007087565
0.007204766
0.007313234
0.007409493
0.007490085
0.007551195
0.00758808
0.007594428
0.007561159
0.007474303
0.007331821
0.007136881
0.006897862
0.006619134
0.006294969
0.005913065
0.00546723
0.004967923
0.004440398
0.003921459
0.003451009
0.003059464
0.002759173
0.002547394
0.002414358
0.002346847
0.002115013
0.001877361
0.001766032
0.001750965
0.001812006
0.001936074
0.002114508
0.002337294
0.002596504
0.002879479
0.003168493
0.00344832
0.00370005
0.003877171
0.004050474
0.004217644
0.004376651
0.004525769
0.004663663
0.004790911
0.004908685
0.005018058
0.005119868
0.005214713
0.005302974
0.005384852
0.005460404
0.005529565
0.005592164
0.005647951
0.005696655
0.005738003
0.005771696
0.005797416
0.005814867
0.005823797
0.005824242
0.005816519
0.005801053
0.005778349
0.005748963
0.005713497
0.00567259
0.005626924
0.005577218
0.005524222
0.005468717
0.005411495
0.005353358
0.005295096
0.005237475
0.005181222
0.005127026
0.005075475
0.005027096
0.004982387
0.00494182
0.004905676
0.004874247
0.004847933
0.004827221
0.004813628
2.234007e-05
3.615987e-05
5.457003e-05
0.000237026
0.0003881031
0.0006574643
0.0009239117
0.001168563
0.001476957
0.001779234
0.002107568
0.002534077
0.003042454
0.003621215
0.004277369
0.005121187
0.006717143
0.007369178
0.007998509
0.008566441
0.009066847
0.009496912
0.009873345
0.01
0.01
0.01
0.01
0.01
0.01
0.01
0.01
0.01
0.01
0.01
0.01
0.01
0.01
0.01
0.01
0.01
0.01
0.009534025
0.009368579
0.009027935
0.008692019
0.008390325
0.008126703
0.007906492
0.007729091
0.007591546
0.007489495
0.007411162
0.007364643
0.007353689
0.007373776
0.007420794
0.007492218
0.007585641
0.007697602
0.007825692
0.00796614
0.008121724
0.008286849
0.00846586
0.008673715
0.008917734
0.009193197
0.009498515
0.009824045
0.01
0.01
0.01
0.01
0.01
0.01
0.01
0.01
0.01
0.01
0.01
0.01
0.01
0.01
0.01
0.01
0.01
0.01
0.01
0.01
0.01
0.01
0.01
0.01
0.01
0.01
0.01
0.01
0.01
0.01
0.01
0.01
0.01
0.01
0.01
0.01
0.01
0.01
0.01
0.01
0.01
0.01
0.01
0.01
0.01
0.01
0.01
0.01
0.01
0.01
0.01
0.01
0.01
0.01
0.01
0.01
0.01
0.01
0.01
0.01
0.01
0.01
0.01
0.01
0.01
0.01
0.01
0.01
0.01
0.01
0.01
0.01
0.01
0.01
0.01
0.01
0.01
0.01
0.01
0.01
0.01
0.01
0.01
0.01
0.01
0.01
0.01
0.01
0.01
0.01
0.01
0.01
0.01
0.01
0.01
0.01
0.01
0.01
0.01
0.01
0.01
0.01
0.01
0.01
0.01
0.01
0.01
0.01
0.01
0.01
0.01
0.01
0.01
0.009988055
0.009951462
0.009912143
0.009869679
0.00982447
0.00977739
0.009729154
0.009679925
0.009629253
0.009576324
0.009520358
0.009460945
0.009398174
0.009332651
0.009265427
0.009197516
0.009129561
0.009061755
0.008994024
0.008926303
0.008858726
0.008791601
0.008725254
0.008659874
0.00859543
0.008531652
0.008468092
0.008404246
0.008339688
0.00827415
0.008207524
0.008139861
0.008071381
0.008002576
0.007934237
0.007867473
0.007803658
0.007744241
0.007690524
0.007643513
0.007603845
0.007571752
0.007547042
0.00752911
0.007517015
0.007509529
0.007505206
0.007502436
0.00749951
0.007494712
0.007486419
0.007473214
0.007454031
0.007428288
0.007395984
0.007357736
0.007314769
0.007268803
0.007221847
0.007175998
0.007133243
0.007095182
0.007062866
0.007036817
0.007016987
0.007002658
0.006992661
0.006985392
0.006978368
0.006969749
0.006958287
0.006942552
0.006921601
0.006895163
0.006863604
0.006827916
0.006789487
0.006750002
0.006711188
0.006674801
0.00664243
0.006615643
0.006595744
0.006584006
0.006581508
0.006588931
0.006607397
0.006639168
0.006686203
0.006750489
0.006833836
0.006937524
0.007061709
0.007204945
0.007364096
0.007534412
0.007709654
0.007882495
0.008045261
0.00818961
0.008306543
0.008392195
0.008438296
0.008429074
0.008342713
0.008163809
0.007888792
0.007521163
0.007066317
0.006532903
0.005943422
0.00533369
0.004747437
0.004236193
0.003839563
0.003573868
0.003430421
0.003389403
0.003428431
0.003525222
0.003632347
0.003540204
0.00353853
0.003599165
0.003705734
0.003844694
0.004006366
0.004184146
0.004377686
0.004586295
0.004809642
0.005046402
0.005287928
0.005431676
0.005520464
0.00560547
0.005688713
0.005771481
0.005854369
0.005937224
0.00601914
0.006098542
0.00617331
0.006241021
0.00629916
0.006345413
0.006377794
0.006394799
0.006395555
0.006380014
0.006348909
0.006303831
0.00624692
0.006180838
0.00610863
0.006033473
0.005958436
0.005886388
0.005819846
0.005760867
0.005711061
0.005671654
0.005643425
0.005626743
0.005621626
0.005627798
0.005644741
0.005671727
0.005707839
0.005752003
0.00580301
0.005859555
0.00592028
0.005983812
0.006048818
0.006114077
0.006178528
0.006241284
0.006301653
0.006359154
0.006413525
0.00646472
0.006512898
0.006558452
0.006601996
0.006644295
0.006686269
0.006729059
0.006773958
0.006822295
0.006875431
0.006934706
0.007001372
0.007076522
0.007161009
0.00725538
0.007359837
0.007474222
0.007597971
0.007730051
0.007868953
0.008012683
0.008158651
0.008303722
0.008444415
0.008577188
0.008698597
0.008805403
0.008894846
0.008964835
0.009012984
0.00903642
0.00903123
0.008991147
0.008910383
0.008790509
0.008629092
0.008420847
0.008155965
0.007820767
0.00740341
0.006901194
0.006325151
0.005702255
0.005073319
0.004483187
0.003966904
0.003543484
0.003217917
0.002984475
0.002831333
0.002745573
0.002714422
0.002480978
0.002229195
0.00211237
0.002097461
0.002160065
0.002283591
0.002458301
0.002673271
0.002916287
0.003177062
0.003444667
0.00370842
0.00395949
0.004190185
0.004395884
0.00457506
0.00472439
0.004844572
0.004944289
0.00502882
0.005103184
0.005172442
0.005241212
0.005312928
0.005388684
0.005469137
0.005557365
0.005654767
0.005757222
0.005862781
0.00597579
0.006094145
0.006190496
0.006223642
0.006247656
0.006262876
0.006269667
0.00626841
0.006259524
0.006243465
0.006220743
0.006191924
0.006157628
0.006118525
0.006075336
0.006028814
0.005979742
0.005928914
0.005877126
0.005825162
0.005773786
0.005723686
0.005675547
0.005630055
0.005587818
0.005549193
0.005514784
0.005485004
0.00546248
2.040216e-05
3.142622e-05
6.234259e-05
0.0001886332
0.0003031145
0.000480875
0.000616061
0.0007692513
0.0009496224
0.001125913
0.001332376
0.001599637
0.001904996
0.002269686
0.002745186
0.003658595
0.004090928
0.00455812
0.005051667
0.005570463
0.006119818
0.006690031
0.007265584
0.007831295
0.008370199
0.008872109
0.009355197
0.009885158
0.01
0.01
0.01
0.01
0.01
0.01
0.01
0.01
0.01
0.01
0.01
0.01
0.01
0.01
0.01
0.01
0.01
0.01
0.01
0.01
0.00999006
0.009557226
0.009081564
0.008629664
0.008247604
0.007840355
0.007515937
0.007248896
0.007026167
0.00684723
0.006710427
0.006611911
0.006548201
0.006516183
0.006515437
0.006548173
0.006614582
0.006713056
0.006842368
0.007001299
0.007185804
0.007395076
0.007621686
0.007868989
0.008133922
0.00843197
0.008766274
0.0091446
0.009576753
0.01
0.01
0.01
0.01
0.01
0.01
0.01
0.01
0.01
0.01
0.01
0.01
0.01
0.01
0.01
0.01
0.01
0.01
0.01
0.01
0.01
0.01
0.01
0.01
0.01
0.01
0.01
0.01
0.01
0.01
0.01
0.01
0.01
0.01
0.01
0.01
0.01
0.01
0.01
0.01
0.01
0.01
0.01
0.01
0.01
0.01
0.01
0.01
0.01
0.01
0.01
0.01
0.01
0.01
0.01
0.01
0.01
0.01
0.01
0.01
0.01
0.01
0.01
0.01
0.01
0.01
0.01
0.01
0.01
0.01
0.01
0.01
0.01
0.01
0.01
0.01
0.01
0.01
0.01
0.01
0.01
0.01
0.01
0.01
0.01
0.01
0.01
0.01
0.01
0.01
0.01
0.01
0.01
0.01
0.01
0.01
0.01
0.01
0.01
0.01
0.01
0.01
0.01
0.01
0.01
0.01
0.01
0.01
0.01
0.01
0.01
0.01
0.01
0.01
0.01
0.01
0.01
0.01
0.01
0.01
0.01
0.01
0.01
0.01
0.01
0.01
0.01
0.009993886
0.009950546
0.009905043
0.009858668
0.00981234
0.009766234
0.009719984
0.009673055
0.009625196
0.009576562
0.009527535
0.009478498
0.009429688
0.009381095
0.009332426
0.009283215
0.009233019
0.00918157
0.009128772
0.009074587
0.009018982
0.008962035
0.008904101
0.008845926
0.008788635
0.008733586
0.008682159
0.008635569
0.008594753
0.008560291
0.00853237
0.008510766
0.008494863
0.008483731
0.008476183
0.008470831
0.008466157
0.00846058
0.008452547
0.008440635
0.008423682
0.008400925
0.008372113
0.008337581
0.008298277
0.008255689
0.008211673
0.008168256
0.008127407
0.008090795
0.008059601
0.008034453
0.008015393
0.008001927
0.007993219
0.007986743
0.007980247
0.007971283
0.007958235
0.007940405
0.00791693
0.007887655
0.007853151
0.007814622
0.007773709
0.007732278
0.007692227
0.007655378
0.007623407
0.00759787
0.007580193
0.007571744
0.00757388
0.007587793
0.007614917
0.00765845
0.007720655
0.007803404
0.007907727
0.008033084
0.008176662
0.008333301
0.008495636
0.008654827
0.00880393
0.008939241
0.009058933
0.009162389
0.009247031
0.009313776
0.009360111
0.009378707
0.009356442
0.009279296
0.009136414
0.008917572
0.00861066
0.00820476
0.007700263
0.007113311
0.006473086
0.005828219
0.005243859
0.004769765
0.004420757
0.004192647
0.004073949
0.004045053
0.004084268
0.00417254
0.004294498
0.004437804
0.004592474
0.0047506
0.004905109
0.005050379
0.005184029
0.005305507
0.005417058
0.005520207
0.005616587
0.005708393
0.0057982
0.005888309
0.00598063
0.006076519
0.006176609
0.00628078
0.006388053
0.006496579
0.006603734
0.006706329
0.006801096
0.006884914
0.00695497
0.007008875
0.00704493
0.007062335
0.007061209
0.007042561
0.007008158
0.006960413
0.00690224
0.006836833
0.006767458
0.006697362
0.006629648
0.006567078
0.006511993
0.006466326
0.00643158
0.006408803
0.006398605
0.006401192
0.006416403
0.006443736
0.006482382
0.006531251
0.006589013
0.006654159
0.00672506
0.006800026
0.006877402
0.006955661
0.007033453
0.007109641
0.007183315
0.007253821
0.007320769
0.007384043
0.007443777
0.007500394
0.007554602
0.007607312
0.007659652
0.007713009
0.007768952
0.007829087
0.007895018
0.007968262
0.008050123
0.008141641
0.008243496
0.008355927
0.008478703
0.00861116
0.008752182
0.008900003
0.009052131
0.009206424
0.009359999
0.009509452
0.009651245
0.009782099
0.009899236
0.01
0.01000001
0.01000001
0.01000001