/*--------------------------------*- C++ -*----------------------------------*\
| =========                 |                                                 |
| \\      /  F ield         | foam-extend: Open Source CFD                    |
|  \\    /   O peration     | Version:     3.1                                |
|   \\  /    A nd           | Web:         http://www.extend-project.de       |
|    \\/     M anipulation  |                                                 |
\*---------------------------------------------------------------------------*/
FoamFile
{
    version     2.0;
    format      ascii;
    class       volScalarField;
    location    "18";
    object      omega;
}
// * * * * * * * * * * * * * * * * * * * * * * * * * * * * * * * * * * * * * //

dimensions      [0 0 -1 0 0 0 0];

internalField   nonuniform List<scalar> 
119952
(
413.2284
528.6213
503.5576
439.7284
395.4384
399.4783
406.6349
415.3998
425.2455
435.9006
447.2314
459.1607
471.6502
484.6984
498.3329
512.595
527.5421
543.2902
560.1423
579.456
484.9959
483.7473
489.2169
410.7511
403.0608
399.0899
395.7578
392.6627
385.8615
198.1338
830.7915
697.6392
590.7567
513.2208
455.0948
410.1754
374.1643
344.6138
319.763
292.1706
246.1927
213.6648
190.9484
174.099
160.8651
149.9766
140.7311
132.7072
125.6509
97.73403
93.85718
90.05661
86.35401
82.84535
79.58525
76.58594
73.83558
71.30378
68.97293
66.90803
64.94632
63.05584
61.25168
59.53684
57.9073
56.34416
54.81269
53.31201
52.91801
52.73203
52.14862
51.68301
51.38441
51.20004
51.02589
50.90155
50.83986
50.80642
50.78796
50.7786
50.77957
50.79434
50.82572
50.87138
50.92203
50.95351
50.91405
50.71722
50.44471
50.18511
49.76265
49.29629
49.1467
49.17597
49.45597
50.38676
52.87894
56.66103
57.42968
57.91838
58.0516
58.05677
58.02418
57.97827
57.94427
57.93608
57.95573
58.0008
58.06815
58.15636
58.26695
58.40386
58.57164
58.77363
59.011
59.28297
59.58767
59.92346
60.28986
60.68775
61.11839
61.5816
62.07403
62.58849
63.11479
63.64178
64.15952
64.66079
65.14139
65.59955
66.03505
66.44866
66.84227
67.21984
67.58829
67.95781
68.34101
68.75089
69.19839
69.6896
70.22352
70.79066
71.37303
71.94496
72.4741
72.91073
73.16929
73.30638
73.554
73.58991
73.48674
73.22808
72.843
72.36102
71.82848
71.28073
70.76089
70.30034
69.93011
69.67368
69.54868
69.56657
69.73052
70.03308
70.45443
70.96185
71.51142
72.05187
72.53026
72.89915
73.12291
73.18085
73.07193
72.80502
72.41287
71.93903
71.43308
70.93402
70.48347
70.12123
69.87763
69.76967
69.80463
70.03474
70.45327
71.05152
71.8124
72.7082
73.70405
74.75696
75.82382
76.86531
77.8421
78.711
79.4081
79.80907
79.69057
82.23104
87.07049
90.67801
92.98012
94.32033
95.01448
95.28596
95.28983
95.23376
95.29552
95.62014
96.32547
97.50676
99.18465
101.4073
104.2695
107.6616
111.8775
117.299
124.5504
135.0031
152.7266
194.2386
242.9063
250.9466
202.8879
162.0887
136.3018
119.7959
111.6233
109.0606
108.615
107.2718
103.9619
99.49255
93.95497
87.72766
84.83876
82.94259
81.2675
79.76331
78.41755
77.21525
76.14178
75.18322
74.32901
73.57218
72.90644
72.32734
71.83015
71.40817
71.05094
70.74728
70.48875
70.26856
70.08009
69.91692
69.77264
69.64038
69.51259
69.38089
69.23638
69.06943
68.86918
68.62489
68.32736
67.9691
67.54447
67.05487
66.49745
54.75567
53.88739
52.8601
51.67309
50.46497
49.29023
48.17993
47.14668
46.19688
45.33311
44.55292
43.85071
43.21477
42.63363
42.10143
41.61357
41.16619
40.75598
40.37996
40.03538
39.71956
39.42981
39.1633
38.91701
38.68774
38.47209
38.26651
38.06728
37.87059
37.67259
37.46952
37.25772
37.03384
36.79504
36.53903
36.26424
35.96999
35.65661
35.32548
34.97896
34.62038
34.25389
33.88456
33.51908
33.16737
32.84026
32.53857
32.25858
32.00541
31.78449
31.6001
31.45852
31.37223
31.35626
31.48489
31.6403
31.89936
32.3596
33.18471
34.84364
38.18622
44.56718
54.97149
66.58817
74.54469
78.94443
81.36727
82.35079
81.99829
80.02246
76.08868
70.37451
63.53898
56.57668
50.40804
45.42392
41.54774
38.53459
36.16972
34.30951
32.84853
31.6888
30.74302
29.94477
29.24591
28.61069
28.01494
27.44747
26.9078
26.40127
25.93455
25.51385
25.14599
24.80917
24.49318
24.20797
23.95509
23.73303
23.53918
23.37074
23.22509
23.09993
22.99341
22.90403
22.83065
22.77238
22.72856
22.69874
22.68263
22.68002
22.69064
22.71405
22.74949
22.79583
22.85158
22.91489
22.9837
23.05573
23.12854
23.19956
23.26621
23.3259
23.37619
23.41481
23.43978
23.44943
23.44244
23.41784
23.375
23.31361
23.23338
23.13391
23.01423
22.87224
22.70091
22.48208
22.17427
21.73408
21.66802
759.7304
627.4886
561.0413
514.5867
475.5714
441.1894
410.6666
383.5809
358.464
298.6535
236.153
199.3079
176.1441
160.5163
149.2472
140.5841
133.5503
127.5813
100.8972
96.38837
92.04923
87.9781
84.26187
80.92981
77.95882
75.30911
72.93498
70.77931
68.88563
67.12022
65.38408
63.68764
62.04508
60.46997
58.96981
57.54521
56.19072
55.20747
54.51237
53.69845
52.80945
51.88518
50.94775
50.01147
49.08605
48.17712
47.29302
46.43696
45.60448
44.80245
44.03085
43.28597
42.56494
41.86504
41.18445
40.53333
36.31022
35.79686
35.30929
34.84612
34.40445
33.9802
33.56969
33.16955
32.77763
32.39097
32.01033
31.64008
31.28194
30.93599
30.60158
30.27861
29.96719
29.67357
29.41344
29.18297
28.94796
28.72314
28.53117
28.36689
28.21592
28.07314
27.9374
27.80737
27.68693
27.57419
27.46585
27.36313
27.26719
27.17805
27.09407
27.01171
26.9251
26.82844
26.72019
26.61113
26.49783
26.38709
26.30372
26.25225
26.24759
26.29309
26.39945
26.54725
26.64402
26.66319
26.68675
26.70189
26.70607
26.70832
26.71181
26.71891
26.73041
26.74521
26.76163
26.77853
26.79607
26.81585
26.84034
26.87212
26.91305
26.96403
27.02507
27.09574
27.17576
27.26557
27.36642
27.47984
27.60686
27.74729
27.8995
28.06067
28.22746
28.39675
28.56602
28.73351
28.89795
29.05817
29.21291
29.36096
29.50166
29.63539
29.7638
29.88966
30.01643
30.14761
30.28612
30.43381
30.59105
30.75637
30.92609
31.09405
31.25298
31.39519
31.51414
31.60546
31.64948
31.64499
31.59065
31.48828
31.34245
31.16162
30.95547
30.73534
30.51259
30.29848
30.10336
29.93634
29.80471
29.7135
29.66502
29.65847
29.68977
29.7517
29.83426
29.9255
30.01259
30.08287
30.12523
30.13161
30.09763
30.02284
29.91053
29.76685
29.59998
29.42039
29.23912
29.06561
28.90746
28.77214
28.66504
28.58906
28.54425
28.52898
28.53889
28.569
28.61193
28.66091
28.70598
28.73981
28.75016
28.7279
28.65893
28.52056
28.95319
29.45474
29.76284
29.90214
29.91842
29.82503
29.63605
29.36992
29.04702
28.68896
28.31751
27.95372
27.61738
27.32792
27.10914
27.00365
27.07872
27.38635
28.04461
29.27943
31.63025
36.19222
45.22745
56.52596
67.66369
77.71852
86.22746
92.53972
95.41476
93.09634
84.79609
73.81594
63.84417
56.04871
50.29368
46.10635
43.02614
40.69635
38.8692
37.31377
35.84145
34.41165
33.037
31.74068
30.54051
29.44608
28.46023
27.58134
26.8056
26.12821
25.54252
25.041
24.61766
24.26734
23.98457
23.764
23.60074
23.49029
23.42831
23.41047
23.43221
23.4885
23.57357
23.68066
23.80182
23.92792
24.04896
24.15437
24.2349
24.29016
22.36612
22.29241
22.19489
22.06367
21.89443
21.68904
21.45152
21.18714
20.90239
20.60342
20.29599
19.98545
19.67647
19.37287
19.0777
18.79324
18.5211
18.26229
18.01729
17.78617
17.56862
17.36402
17.17152
16.99011
16.81866
16.65592
16.5006
16.35134
16.2068
16.06561
15.92642
15.78796
15.64907
15.50872
15.36603
15.22039
15.07144
14.91915
14.7638
14.60599
14.44659
14.28678
14.12799
13.9718
13.81982
13.67348
13.5339
13.40221
13.27989
13.16867
13.0701
12.98651
12.92051
12.87432
12.85492
12.87025
12.93216
13.06379
13.31704
13.7871
14.57319
15.76763
17.28803
18.85312
20.34983
21.94358
23.84201
26.23457
29.20743
32.68333
36.39295
39.87854
42.67379
44.50096
45.13852
44.38489
42.33331
39.42459
36.2015
33.08108
30.28589
27.88975
25.8821
24.2122
22.81871
21.64646
20.64968
19.7931
19.05109
18.40552
17.84358
17.35614
16.93652
16.57953
16.2775
16.01719
15.78859
15.584
15.39746
15.22447
15.06175
14.90708
14.75904
14.61688
14.48031
14.34937
14.22435
14.10574
13.99413
13.89013
13.79425
13.7069
13.62836
13.55872
13.49796
13.44594
13.40237
13.36684
13.33875
13.31734
13.30169
13.29072
13.28324
13.27796
13.27351
13.26847
13.26145
13.25103
13.2359
13.21472
13.18627
13.14913
13.10213
13.04348
12.97159
12.88443
12.78628
12.69391
12.60896
630.9685
557.5896
497.6195
453.5212
419.9951
394.1247
373.9996
358.7614
347.9375
333.1471
189.5348
176.8914
166.0818
156.4694
148.3519
142.3289
139.8057
137.3789
128.4498
85.35656
83.63418
83.0084
82.37939
81.66913
80.94921
80.21521
79.43318
78.54408
77.07776
74.1146
71.76757
70.20227
69.04046
68.05101
67.13068
66.23703
65.35273
64.47123
64.51539
63.73669
62.62857
61.41948
60.22113
59.0773
58.00012
56.9878
56.03517
55.1425
54.27924
53.42814
52.58063
51.73418
50.89415
50.06724
49.25902
48.48196
44.7265
44.07042
43.44632
42.84592
42.26349
41.69418
41.13522
40.58539
40.04535
39.51535
38.99453
38.48568
37.99101
37.50886
37.03727
36.57471
36.11948
35.67084
35.22898
34.79381
34.36748
33.95394
33.55391
33.16588
32.78772
32.41708
32.0519
31.69084
31.33319
30.98102
30.63712
30.3025
29.97772
29.66247
29.35491
29.05271
28.75301
28.44665
28.1906
27.93355
27.67994
27.43188
27.19014
26.95422
26.72259
26.4933
26.26495
26.0373
25.81222
25.59242
25.38039
25.17788
24.98555
24.80278
24.62931
24.46549
24.31256
24.17
24.0325
23.89875
23.77587
23.66615
23.56596
23.46935
23.37217
23.27249
23.17014
23.06668
22.96544
22.86693
22.77277
22.68338
22.59805
22.51477
22.43061
22.34319
22.25106
22.15425
22.05708
21.96285
21.8778
21.81149
21.7692
21.74505
21.73634
21.73557
21.7238
21.6857
21.63676
21.58725
21.5374
21.48958
21.44609
21.40781
21.37436
21.3444
21.31605
21.28782
21.25967
21.23307
21.21035
21.19376
21.1847
21.18351
21.18963
21.20213
21.22034
21.24445
21.27566
21.31566
21.36578
21.42634
21.4963
21.57357
21.6556
21.74012
21.82557
21.91115
21.99644
22.08093
22.16361
22.24315
22.3183
22.38849
22.45417
22.51671
22.57818
22.64086
22.70682
22.77756
22.85386
22.93561
23.02182
23.11044
23.19806
23.27963
23.3487
23.40039
23.42831
23.42684
23.39361
23.32855
23.23344
23.11191
22.96924
22.81179
22.64649
22.48035
22.32017
22.17223
22.04195
21.93358
21.84986
21.79176
21.75834
21.74672
21.75218
21.76852
21.78858
21.80482
21.81022
21.799
21.76702
21.71234
21.63602
21.54125
21.43233
21.31531
21.19815
21.08752
20.98847
20.90473
20.83921
20.7926
20.76419
20.75087
20.74879
20.75245
20.75703
20.75637
20.74624
20.72044
20.67645
20.60786
20.5149
20.39344
20.28364
20.13127
19.94756
19.73994
19.51487
19.27749
19.03342
18.78877
18.55001
18.32398
18.11766
17.93764
17.79067
17.68441
17.6267
17.62878
17.71458
17.90173
18.22158
18.73776
19.56431
20.84932
22.73652
25.20173
28.2362
31.79759
35.94383
40.68248
45.94137
51.54236
56.83514
60.68605
62.36349
62.02781
60.28141
57.78289
54.99501
52.10495
49.14926
46.19318
43.32722
40.57011
37.94253
35.46978
33.17406
31.07228
29.16924
27.46162
25.93986
24.58892
23.39405
22.3433
21.42396
20.62417
19.93243
19.33815
18.83183
18.40491
18.04963
17.75899
17.52666
17.34688
17.21425
17.1235
17.06923
17.04592
17.04737
17.06721
17.09739
17.12385
17.17631
17.21539
17.23165
17.21878
17.1756
17.10221
16.99831
16.86461
16.70377
16.51972
16.31673
16.0994
15.87229
15.63969
15.40542
15.17275
14.94435
14.72228
14.50801
14.30249
14.10622
13.91928
13.74142
13.57219
13.41095
13.25694
13.10932
12.96717
12.82958
12.69561
12.56434
12.43491
12.30655
12.17858
12.05043
11.92172
11.79232
11.66229
11.53189
11.40161
11.27211
11.14424
11.01897
10.89731
10.78028
10.66882
10.56377
10.46591
10.37605
10.29496
10.22346
10.16211
10.11226
10.0744
10.05014
10.04293
10.05875
10.10667
10.20203
10.3748
10.66294
11.08114
11.60453
12.19229
12.849
13.63782
14.66005
16.01575
17.77199
19.9645
22.55711
25.40931
28.29828
31.01257
33.38711
35.27691
36.5457
37.07619
36.78589
35.69559
33.9609
31.83424
29.58288
27.414
25.44151
23.70614
22.20918
20.93152
19.84572
18.92345
18.1398
17.47403
16.90874
16.4295
16.02449
15.68179
15.38364
15.1159
14.86867
14.63515
14.4109
14.19319
13.9806
13.77259
13.56921
13.37085
13.17811
12.99179
12.81278
12.64188
12.4798
12.32713
12.18433
12.05171
11.92944
11.81761
11.71623
11.62517
11.54418
11.47286
11.41069
11.35701
11.31104
11.2719
11.23859
11.21003
11.185
11.1623
11.14057
11.11856
11.09467
11.06769
11.03583
10.99865
10.9542
10.90378
10.84582
10.78663
10.72712
362.9446
263.7754
377.0017
171.0425
134.383
99.25463
86.09017
75.0537
65.89642
61.51309
59.71798
58.75825
57.87144
57.07848
56.30584
55.61299
54.98151
54.40119
53.94042
53.61084
53.33702
53.19341
53.3381
53.6495
54.00596
54.39929
54.8268
55.2875
55.75352
56.15843
56.4084
55.18549
55.70897
56.30056
56.75364
57.08647
57.30241
57.39641
57.36116
57.20523
56.94598
56.56708
56.08766
55.53423
54.92455
54.27004
53.57982
52.86173
52.12259
51.36819
50.60787
49.84654
49.07936
48.30683
47.53245
46.7597
45.99403
45.24044
44.5033
43.78442
43.08233
42.39649
41.7259
41.07014
40.43049
39.80725
39.20375
38.61071
38.07519
37.55252
37.04556
36.55182
36.0687
35.59461
35.12877
34.6711
34.22193
33.78231
33.35375
32.93808
32.53597
32.14654
31.76785
31.39742
31.03274
30.67203
30.31485
29.96262
29.61808
29.28378
28.96101
28.64951
28.34716
28.05066
27.75686
27.46406
27.17266
26.88501
26.60447
26.33391
26.07513
25.82749
25.58842
25.35371
25.12053
24.88643
24.65468
24.42846
24.21161
24.00692
23.8154
23.63559
23.46421
23.29772
23.13387
22.9726
22.81598
22.66738
22.53032
22.40684
22.29668
22.19761
22.10652
22.02098
21.94027
21.86452
21.79272
21.72471
21.66352
21.61067
21.5627
21.51325
21.45739
21.39325
21.32144
21.24441
21.16568
21.08865
21.0147
20.94398
20.87564
20.80806
20.73905
20.66644
20.5892
20.50813
20.4251
20.34277
20.26555
20.19725
20.13962
20.09082
20.04733
20.00315
19.95047
19.88639
19.81646
19.74436
19.67367
19.6071
19.54616
19.4907
19.43918
19.38951
19.33956
19.28792
19.23491
19.18256
19.13359
19.09033
19.05388
19.02401
18.99949
18.97876
18.96076
18.94572
18.93517
18.9311
18.93499
18.94711
18.96639
18.99075
19.01781
19.04568
19.07337
19.10088
19.12865
19.15686
19.1849
19.21147
19.23519
19.25521
19.27164
19.2855
19.2984
19.3122
19.32856
19.34871
19.37335
19.40271
19.43655
19.47392
19.51278
19.54983
19.58068
19.60076
19.60549
19.59091
19.5547
19.49621
19.41628
19.31705
19.20181
19.07464
18.94007
18.80278
18.66736
18.53819
18.41919
18.31365
18.2239
18.15113
18.09527
18.05494
18.02743
18.00903
17.99522
17.98109
17.96189
17.93357
17.89308
17.83888
17.77127
17.69211
17.60434
17.51206
17.42044
17.33419
17.25692
17.19127
17.13902
17.10051
17.07467
17.05885
17.04952
17.04228
17.03288
17.01693
16.99092
16.95158
16.8969
16.82485
16.73482
16.62632
16.50158
16.36146
16.20967
16.05168
15.89018
15.72842
15.57031
15.42042
15.28397
15.16665
15.07414
15.01167
14.98364
14.9934
15.04285
15.13393
15.27766
15.48749
15.77033
16.14247
16.64231
17.32435
18.22608
19.38687
20.87709
22.76964
25.15029
28.08515
31.61609
35.71178
40.14738
44.4323
48.01469
50.5779
52.05018
52.50992
52.19467
51.33769
50.09935
48.503
46.55221
44.28771
41.83694
39.30477
36.77503
34.32187
31.9997
29.84515
27.87806
26.10242
24.51158
23.09496
21.84007
20.73359
19.76239
18.91405
18.17657
17.53875
16.99012
16.52096
16.12246
15.7867
15.50674
15.27619
15.08929
14.94046
14.8249
14.73716
14.67316
14.62652
14.59372
14.56846
14.54454
14.51672
14.48035
14.43119
14.36584
14.28218
14.17933
14.05771
13.91876
13.76472
13.59843
13.42303
13.24172
13.05753
12.8732
12.69101
12.51279
12.33989
12.17319
12.01315
11.85988
11.71324
11.57289
11.43837
11.30909
11.18441
11.06365
10.94611
10.83109
10.71798
10.60627
10.49551
10.38529
10.27541
10.16589
10.05694
9.948931
9.84239
9.737999
9.636543
9.538864
9.44581
9.358197
9.276772
9.202187
9.134967
9.075492
9.023983
8.980447
8.944722
8.916681
8.895853
8.882321
8.877271
8.882533
8.900553
8.936259
8.999674
9.105937
9.260139
9.460637
9.707622
10.01298
10.40716
10.93831
11.66231
12.63411
13.90497
15.49942
17.3864
19.47648
21.65668
23.82103
25.88415
27.76556
29.39088
30.68626
31.57066
31.96535
31.80362
31.08865
29.91309
28.43052
26.80538
25.17938
23.65201
22.27733
21.07293
20.03347
19.14342
18.38349
17.73358
17.17462
16.69122
16.26838
15.88712
15.53404
15.20002
14.87918
14.56802
14.26472
13.96867
13.67998
13.39914
13.12684
12.86393
12.61142
12.37017
12.14083
11.92396
11.72
11.52916
11.35152
11.18707
11.03568
10.89713
10.77112
10.65725
10.55503
10.46391
10.38326
10.31238
10.25048
10.19672
10.15013
10.10968
10.07425
10.04265
10.01359
9.98568
9.957625
9.928347
9.89705
9.862723
9.825144
9.784564
9.744434
323.0102
217.5314
164.3781
146.8144
119.6307
100.5547
86.6851
81.32468
75.3043
71.80027
68.76767
64.68823
60.5927
56.71439
53.16755
49.2724
43.26482
41.87216
40.85604
40.30439
40.16532
40.29499
40.54003
40.84567
41.2059
41.62136
42.11191
42.68285
43.30366
43.96062
44.64939
45.36458
46.10079
46.85668
47.62797
48.41322
49.21228
50.03642
50.91006
51.83534
52.81715
53.78844
54.39786
54.98157
55.47732
55.82575
56.01499
56.04106
55.90762
55.62448
55.20684
54.67805
54.05051
53.33528
52.54795
51.70595
50.82572
49.92177
49.00653
48.08923
47.17689
46.27166
45.37634
44.49137
43.61674
42.755
41.91172
41.09254
40.30676
39.55643
38.84163
38.15903
37.50415
36.87262
36.26118
35.66866
35.09523
34.54267
34.01125
33.50276
33.0192
32.56025
32.12136
31.69728
31.28399
30.87882
30.48043
30.08889
29.70599
29.3346
28.97746
28.63617
28.31031
27.99716
27.69238
27.39142
27.09091
26.78995
26.49044
26.19662
25.91344
25.64432
25.38947
25.14572
24.90763
24.66984
24.42917
24.18586
23.94355
23.70802
23.48496
23.27793
23.08648
22.90665
22.73275
22.56019
22.38739
22.21652
22.05264
21.90188
21.76929
21.65673
21.5613
21.47735
21.39989
21.32674
21.25931
21.20195
21.16021
21.13811
21.13535
21.14709
21.16646
21.18693
21.20524
21.22178
21.23875
21.25859
21.28349
21.31415
21.34682
21.37334
21.38508
21.37702
21.34919
21.30594
21.2544
21.20192
21.1533
21.10886
21.06675
21.02395
20.97675
20.92227
20.86081
20.79297
20.72036
20.64556
20.57201
20.50337
20.44212
20.3889
20.34124
20.29404
20.24109
20.17696
20.10252
20.02228
19.9409
19.86271
19.79013
19.72366
19.66166
19.60107
19.5385
19.47123
19.39872
19.32283
19.24708
19.17518
19.10939
19.04993
18.99552
18.9442
18.89395
18.84352
18.79357
18.74625
18.70396
18.66808
18.6384
18.61318
18.58989
18.56609
18.54012
18.51161
18.48151
18.45127
18.42182
18.39294
18.3634
18.33175
18.29716
18.25989
18.22111
18.1825
18.14583
18.11255
18.08358
18.05933
18.03988
18.02512
18.01457
18.00691
17.99976
17.9897
17.97286
17.94552
17.90476
17.84885
17.77739
17.69109
17.59159
17.4813
17.36318
17.24044
17.11629
16.99385
16.87606
16.76565
16.66488
16.57537
16.498
16.43273
16.37859
16.33369
16.29544
16.26071
16.22614
16.18853
16.1452
16.0942
16.03463
15.96676
15.8919
15.81226
15.73075
15.65072
15.57519
15.50661
15.44709
15.39752
15.3576
15.32629
15.30147
15.28027
15.25939
15.2356
15.20584
15.16765
15.11912
15.05899
14.98656
14.90171
14.80495
14.6973
14.5807
14.45919
14.33839
14.22136
14.112
14.01503
13.93608
13.88163
13.85855
13.87332
13.93131
14.03531
14.18332
14.36703
14.57388
14.79551
15.04108
15.31301
15.61408
15.95691
16.35625
16.83166
17.42611
18.19858
19.21127
20.5334
22.23911
24.40435
27.07584
30.16391
33.40866
36.45089
38.9969
40.86529
42.00246
42.48806
42.45648
42.04745
41.35648
40.46977
39.45083
38.27295
36.91013
35.36598
33.6879
31.92643
30.13482
28.36466
26.6607
25.05446
23.56225
22.19475
20.95567
19.84354
18.85353
17.97863
17.21026
16.53899
15.95502
15.44865
15.01092
14.63368
14.30942
14.03141
13.79361
13.59082
13.41835
13.27222
13.14837
13.04292
12.95212
12.87224
12.79928
12.72921
12.65837
12.58345
12.50171
12.41122
12.31087
12.2004
12.0803
11.95172
11.81632
11.67606
11.53301
11.38917
11.24634
11.106
10.96932
10.83709
10.70975
10.58745
10.4701
10.35751
10.2493
10.14505
10.04428
9.946479
9.851175
9.757861
9.666111
9.575626
9.486175
9.397615
9.309952
9.223371
9.138212
9.054966
8.974254
8.896807
8.823414
8.754874
8.691945
8.635306
8.585534
8.543064
8.508154
8.480796
8.460643
8.446994
8.438856
8.435126
8.43464
8.436492
8.440408
8.4466
8.455709
8.469471
8.491448
8.527229
8.583201
8.662193
8.768404
8.910384
9.104598
9.376333
9.75691
10.28131
10.98602
11.90116
13.03914
14.38731
15.90992
17.55195
19.2419
20.90529
22.48041
23.93221
25.23281
26.35117
27.23743
27.82575
28.06196
27.91409
27.39951
26.58728
25.57827
24.4754
23.36303
22.29921
21.31671
20.42852
19.63357
18.92179
18.27857
17.69628
17.16361
16.6681
16.20041
15.754
15.32465
14.90996
14.50886
14.12121
13.7473
13.38761
13.04289
12.7141
12.40195
12.1069
11.82935
11.5695
11.32707
11.10163
10.8927
10.69979
10.52232
10.35968
10.21124
10.07635
9.954353
9.84459
9.746383
9.659033
9.581807
9.513923
9.454546
9.402767
9.357616
9.318068
9.282965
9.251165
9.221615
9.193519
9.165642
9.137521
9.108142
9.080001
165.2122
121.8646
187.0077
91.92537
78.8343
67.6477
64.39039
62.12131
59.62432
58.69966
57.4478
55.59203
53.85839
51.98432
49.7406
45.17063
44.1556
43.19938
42.26766
41.36539
40.44676
39.56199
38.77067
38.11001
37.60541
37.26087
36.99625
36.73226
36.6586
36.80138
37.1421
37.61977
38.1674
38.75575
39.37936
40.05415
40.76943
41.51288
42.27784
43.06165
43.86101
44.67148
45.48564
46.30448
47.13634
47.99481
48.85931
49.7457
50.68525
51.64075
52.52074
53.25956
53.77133
54.14623
54.3105
54.25735
54.00251
53.56281
52.95863
52.2144
51.35557
50.40663
49.38903
48.32024
47.21686
46.09566
44.97307
43.86447
42.7832
41.73837
40.73566
39.77418
38.85104
37.96025
37.10588
36.29094
35.51715
34.78776
34.1072
33.47514
32.8878
32.34011
31.8243
31.33193
30.85609
30.393
29.94229
29.50617
29.08866
28.69344
28.32266
27.97559
27.648
27.33389
27.02739
26.72392
26.42087
26.118
25.81784
25.52514
25.24499
24.98133
24.73497
24.50288
24.27906
24.05646
23.82935
23.59528
23.3565
23.11948
22.89229
22.68158
22.48938
22.31161
22.14065
21.96874
21.79104
21.6078
21.42461
21.25022
21.09346
20.96021
20.85057
20.75921
20.67926
20.60642
20.54135
20.48942
20.45888
20.45791
20.49026
20.55171
20.63132
20.71781
20.80592
20.89871
21.00696
21.14465
21.3224
21.53976
21.78161
22.02381
22.24501
22.43367
22.59094
22.72858
22.85944
22.99706
23.14754
23.30593
23.45768
23.58388
23.66427
23.69214
23.67403
23.62617
23.56964
23.52387
23.49269
23.47459
23.46361
23.45152
23.4266
23.37932
23.31002
23.22671
23.14139
23.06234
22.99622
22.94757
22.91597
22.89624
22.87696
22.8478
22.79544
22.72134
22.63324
22.54049
22.45155
22.37163
22.30097
22.23496
22.16581
22.086
21.99123
21.88057
21.75748
21.62911
21.50305
21.38462
21.275
21.17151
21.07007
20.9675
20.86206
20.75438
20.64731
20.54431
20.44722
20.35548
20.26658
20.17718
20.08423
19.98576
19.8813
19.77195
19.66004
19.54812
19.43774
19.32871
19.21947
19.10841
18.99505
18.88025
18.76579
18.65372
18.5459
18.44366
18.34755
18.25753
18.17334
18.09477
18.02155
17.9528
17.88658
17.81998
17.74972
17.67285
17.58736
17.49231
17.38786
17.275
17.15534
17.03093
16.90408
16.77714
16.6523
16.53152
16.41652
16.30881
16.20955
16.1195
16.03879
15.96697
15.90294
15.84507
15.79134
15.73955
15.68753
15.6334
15.57574
15.51374
15.44725
15.37684
15.30371
15.22952
15.15621
15.0859
15.02063
14.96114
14.90691
14.85748
14.81273
14.77172
14.73269
14.69365
14.65258
14.60772
14.5576
14.50115
14.43768
14.36694
14.28903
14.20447
14.11419
14.01958
13.9228
13.82754
13.74026
13.66622
13.61082
13.58112
13.58618
13.63687
13.74416
13.91775
14.16681
14.49665
14.8937
15.32411
15.74582
16.12235
16.44225
16.72149
16.96052
17.16778
17.35785
17.55593
17.79975
18.13183
18.59605
19.24025
20.12058
21.30011
22.83167
24.70611
26.80471
28.92717
30.87045
32.4562
33.56767
34.20035
34.42566
34.33625
34.02839
33.57736
33.02874
32.39972
31.70021
30.9281
30.05978
29.08164
27.98708
26.79976
25.55303
24.28212
23.02159
21.80153
20.64502
19.56821
18.58067
17.68672
16.88625
16.17571
15.54888
14.99804
14.51488
14.09147
13.72037
13.39455
13.10763
12.85415
12.62954
12.43002
12.25235
12.09367
11.95139
11.82298
11.70576
11.59705
11.49438
11.39532
11.29761
11.19937
11.09924
10.99641
10.89058
10.78196
10.67114
10.55903
10.44672
10.33531
10.22585
10.11918
10.01595
9.916547
9.821133
9.729649
9.641906
9.557621
9.476451
9.39802
9.321952
9.2479
9.175539
9.104552
9.034722
8.965958
8.898239
8.831652
8.766448
8.703021
8.641892
8.583703
8.529192
8.479146
8.434356
8.395561
8.363412
8.338458
8.321133
8.311687
8.310047
8.31573
8.327688
8.344365
8.363865
8.384211
8.403559
8.42041
8.433842
8.443541
8.449644
8.452963
8.455336
8.459891
8.471302
8.494644
8.532959
8.590589
8.675919
8.802618
8.988799
9.256192
9.629627
10.13395
10.78887
11.60347
12.57393
13.68274
14.89759
16.17502
17.47022
18.7443
19.96525
21.10327
22.13643
23.04097
23.79015
24.34834
24.67591
24.75162
24.58188
24.19716
23.64824
22.99215
22.28049
21.55307
20.83592
20.14196
19.47297
18.82402
18.19739
17.59528
17.01734
16.46233
15.92895
15.41622
14.92371
14.45145
13.99963
13.56832
13.15781
12.76877
12.40188
12.05744
11.7353
11.43524
11.15652
10.898
10.65865
10.43751
10.23366
10.04618
9.874181
9.716817
9.573284
9.442817
9.324692
9.218213
9.122696
9.037462
8.96182
8.895041
8.83638
8.78502
8.740112
8.700752
8.666027
8.635073
8.606959
8.580948
8.555871
8.533316
68.13047
50.50601
48.70923
46.26078
45.22746
43.98402
43.00714
42.19709
41.52657
40.46038
37.79956
37.70481
37.62998
37.5673
37.48361
37.36588
37.25097
37.16862
37.12936
37.11886
36.98883
36.61431
36.24111
35.87435
35.52206
35.19037
34.90436
34.68366
34.53894
34.47396
34.48089
34.55067
34.70323
34.96944
35.36204
35.86756
36.44925
37.06906
37.70765
38.38499
39.09471
39.83262
40.59816
41.38608
42.19568
43.02601
43.87872
44.73392
45.58725
46.45474
47.40722
48.32122
49.22448
50.07053
50.7917
51.34086
51.66739
51.75625
51.6118
51.23279
50.63461
49.84305
48.88766
47.80072
46.61656
45.36858
44.08532
42.78991
41.49927
40.22636
38.9819
37.77794
36.62737
35.54296
34.53574
33.61153
32.76701
31.99202
31.27267
30.59889
29.96578
29.37175
28.81784
28.30435
27.83621
27.41344
27.03037
26.67684
26.34127
26.0142
25.69036
25.36919
25.05398
24.75071
24.46575
24.20316
23.96307
23.74149
23.53195
23.3273
23.12124
22.90973
22.69191
22.47046
22.25124
22.04194
21.84926
21.67594
21.51899
21.37077
21.22245
21.06641
20.8988
20.72161
20.54308
20.37483
20.22641
20.10093
19.99405
19.89754
19.80383
19.70974
19.61882
19.54127
19.49071
19.47831
19.50714
19.57436
19.67158
19.78913
19.92902
20.10499
20.33504
20.63585
21.01221
21.45034
21.91526
22.36446
22.77089
23.1343
23.4779
23.84059
24.26044
24.75754
25.31642
25.88556
26.40194
26.82287
27.13611
27.35758
27.52382
27.67107
27.83603
28.03455
28.25475
28.46531
28.63086
28.71623
28.71142
28.6303
28.50654
28.38413
28.28762
28.22581
28.19715
28.1914
28.19355
28.18078
28.13054
28.03732
27.91341
27.79604
27.70501
27.65372
27.64812
27.68057
27.73127
27.76947
27.77312
27.72049
27.62685
27.51291
27.39942
27.30214
27.22691
27.16745
27.1074
27.02686
26.91098
26.75499
26.56459
26.35498
26.1438
25.94499
25.76479
25.60011
25.44183
25.28111
25.11309
24.93697
24.75758
24.58295
24.41875
24.26494
24.11581
23.96314
23.80001
23.62297
23.43186
23.22893
23.01796
22.80256
22.58487
22.3655
22.14288
21.91454
21.67938
21.43873
21.19592
20.95483
20.71881
20.49041
20.27125
20.06197
19.86285
19.67415
19.49469
19.32365
19.15995
19.00164
18.84606
18.69052
18.5331
18.37302
18.21048
18.04646
17.88245
17.72021
17.56154
17.40825
17.26194
17.12387
16.99486
16.87533
16.76536
16.66465
16.57253
16.4879
16.40927
16.33499
16.26334
16.19281
16.12219
16.05071
15.97811
15.90458
15.83072
15.75744
15.68593
15.61752
15.55357
15.49531
15.44428
15.40083
15.36154
15.32233
15.27924
15.23001
15.17556
15.11485
15.04728
14.97305
14.8929
14.8078
14.71883
14.62698
14.53325
14.43867
14.34439
14.25186
14.16294
14.08025
14.0078
13.95293
13.92579
13.93605
13.9969
14.12658
14.34958
14.68646
15.14508
15.732
16.44738
17.2471
18.05264
18.7835
19.37592
19.79292
20.06608
20.21355
20.25716
20.22544
20.15297
20.07706
20.03217
20.0505
20.16743
20.43097
20.88989
21.58143
22.51867
23.66322
24.91882
26.1667
27.28078
28.14813
28.71579
29.0019
29.05661
28.9403
28.70668
28.39372
28.02178
27.59676
27.11385
26.5632
25.93806
25.2449
24.4794
23.63774
22.72734
21.77265
20.80006
19.83532
18.9011
18.01547
17.19142
16.43685
15.7549
15.14439
14.60092
14.11812
13.6896
13.30902
12.96991
12.66601
12.39199
12.14355
11.91731
11.71061
11.52131
11.34764
11.18797
11.04074
10.9044
10.77742
10.65827
10.54545
10.43762
10.33365
10.23273
10.1343
10.03812
9.944211
9.852774
9.764145
9.678686
9.596711
9.518423
9.443888
9.373016
9.305568
9.241206
9.179544
9.120176
9.062706
9.006768
8.95205
8.898306
8.845367
8.793152
8.741696
8.691144
8.641757
8.59394
8.548234
8.505295
8.465894
8.430884
8.401119
8.377415
8.360507
8.350984
8.349311
8.355882
8.371038
8.394906
8.427093
8.466499
8.511084
8.558138
8.604686
8.647895
8.685381
8.715422
8.73703
8.749841
8.75405
8.750395
8.740406
8.726769
8.713249
8.704165
8.701673
8.706383
8.721926
8.756463
8.821909
8.932736
9.105673
9.358901
9.709511
10.1708
10.74996
11.44653
12.25133
13.14619
14.10459
15.09602
16.09297
17.07355
18.01809
18.90514
19.70888
20.40825
20.97997
21.40394
21.66658
21.76153
21.69422
21.48241
21.15212
20.73263
20.25198
19.73308
19.19198
18.63851
18.07522
17.50466
16.93674
16.37799
15.83256
15.30317
14.79179
14.30013
13.82952
13.38042
12.95287
12.54786
12.16674
11.80953
11.47549
11.16395
10.87386
10.60419
10.35401
10.12234
9.908172
9.710525
9.528428
9.360953
9.207223
9.066419
8.937782
8.820611
8.714251
8.618089
8.531534
8.454005
8.384919
8.323669
8.269637
8.222125
8.180486
8.14402
8.111943
8.083503
8.057744
8.03571
92.64299
39.0798
32.65536
31.33219
30.66118
30.38426
30.4091
30.6096
30.94011
31.36201
31.71697
31.88808
32.06113
32.2207
32.3691
32.4989
32.61801
32.72759
32.81464
32.85667
32.82862
32.7477
32.66836
32.59766
32.54334
32.51133
32.51441
32.56004
32.64804
32.77932
32.95493
33.17741
33.45702
33.80053
34.21474
34.6922
35.2143
35.76172
36.37397
37.04289
37.76318
38.53583
39.36088
40.20931
41.08169
41.97593
42.9202
43.85101
44.76416
45.67428
46.59451
47.45794
48.19665
48.76011
49.096
49.1777
48.99983
48.57604
47.8942
46.98413
45.88067
44.62343
43.25404
41.81403
40.34402
38.88183
37.45781
36.09228
34.79488
33.56855
32.41282
31.33013
30.3322
29.43253
28.63504
27.9355
27.32339
26.78243
26.29311
25.83331
25.39082
24.96448
24.56066
24.18896
23.85778
23.5696
23.31872
23.0926
22.87663
22.65922
22.4348
22.20386
21.97144
21.74537
21.53415
21.34391
21.17578