/*--------------------------------*- C++ -*----------------------------------*\
| =========                 |                                                 |
| \\      /  F ield         | foam-extend: Open Source CFD                    |
|  \\    /   O peration     | Version:     3.1                                |
|   \\  /    A nd           | Web:         http://www.extend-project.de       |
|    \\/     M anipulation  |                                                 |
\*---------------------------------------------------------------------------*/
FoamFile
{
    version     2.0;
    format      ascii;
    class       volScalarField;
    location    "18";
    object      p;
}
// * * * * * * * * * * * * * * * * * * * * * * * * * * * * * * * * * * * * * //

dimensions      [1 -1 -2 0 0 0 0];

internalField   nonuniform List<scalar> 
119952
(
4994.555
3227.523
2972.677
3207.892
3460.528
3226.843
3150.709
3087.489
3043.146
3006.97
2975.352
2947.704
2923.285
2901.498
2880.384
2860.452
2839.1
2813.338
2771.304
2645.455
3048.661
2810.948
2689.321
3235.508
3188.579
3222.605
3272.726
3411.288
3878.633
7633.039
2913.216
2854.166
2850.625
2840.503
2831.97
2822.757
2817.681
2813.398
2810.562
2779.339
2748.975
2760.583
2748.423
2740.265
2732.895
2727.281
2722.77
2718.853
2714.922
2701.612
2694.837
2669.959
2661.789
2660.348
2658.967
2659.007
2660.172
2660.518
2669.166
2664.512
2662.547
2672.587
2683.249
2694.349
2707.501
2722.991
2749.473
2839.033
3029.496
2872.753
2806.848
2897.794
2935.658
2902.724
2839.384
2793.098
2756.584
2723.459
2694.087
2668.534
2645.818
2625.235
2606.286
2588.223
2570.039
2550.844
2531.953
2520.476
2544.43
2571.221
2563.969
2683.594
2868.715
2906.349
2919.813
2934.607
2843.003
2510.055
2426.918
2507.46
2533.075
2555.7
2580.7
2600.85
2619.342
2637.799
2656.344
2675.154
2694.338
2714.023
2734.458
2755.935
2778.713
2802.976
2828.822
2856.281
2885.353
2916.043
2948.397
2982.508
3018.474
3056.348
3096.128
3137.744
3181.086
3226.032
3272.477
3320.359
3369.653
3420.347
3472.411
3525.779
3580.349
3635.987
3692.541
3749.847
3807.738
3866.038
3924.572
3983.171
4041.676
4099.946
4157.839
4215.181
4271.715
4327.519
4385.231
4450.173
4510.321
4560.957
4612.557
4663.829
4714.298
4763.978
4813.087
4861.426
4909.176
4956.214
5002.585
5048.224
5093.074
5137.064
5180.058
5221.918
5262.513
5301.738
5339.515
5375.815
5410.648
5444.04
5476.047
5506.725
5536.089
5564.155
5590.999
5616.554
5640.833
5663.722
5685.291
5705.568
5724.632
5742.535
5759.509
5775.659
5790.757
5805.132
5818.845
5831.976
5844.527
5856.5
5867.842
5878.482
5888.328
5897.137
5904.813
5911.193
5916.71
5965.479
5971.823
5975.338
5977.471
5978.596
5978.359
5977.068
5974.964
5972.188
5969.244
5966.758
5965.464
5966.334
5970.367
5979.05
5993.905
6016.796
6051.058
6097.503
6159.764
6240.14
6339.939
6430.239
6182.739
6166.348
6215.043
6263.321
6339.26
6413.554
6465.41
6492.592
6492.015
6461.31
6407.715
6345.782
6291.609
6265.526
6260.119
6276.554
6310.239
6355.991
6408.557
6463.57
6517.989
6569.951
6618.512
6663.345
6704.48
6742.107
6776.439
6807.642
6835.872
6861.336
6884.27
6904.883
6923.354
6939.827
6954.422
6967.231
6978.326
6987.77
6995.61
7001.898
7006.69
7010.066
7012.112
7012.895
7012.607
7011.478
7008.43
6993.323
6982.278
6965.578
6960.839
6955.696
6949.702
6944.277
6939.133
6934.372
6929.88
6925.726
6921.926
6918.471
6915.382
6912.654
6910.282
6908.26
6906.575
6905.216
6904.171
6903.426
6902.972
6902.799
6902.901
6903.271
6903.9
6904.782
6905.908
6907.268
6908.848
6910.629
6912.592
6914.708
6916.95
6919.286
6921.683
6924.106
6926.524
6928.912
6931.254
6933.549
6935.821
6938.139
6940.622
6943.221
6944.94
6944.519
6943.265
6942.642
6942.363
6942.326
6942.911
6944.017
6944.85
6939.566
6940.996
6948.684
6953.661
6960.413
6970.611
6981.938
6989.726
6985.127
6962.723
6939.589
6943.995
6965.105
6989.748
7012.992
7029.818
7038.577
7039.312
7031.909
7021.244
7013.008
7007.084
7001.522
6995.018
6988.07
6981.581
6976.106
6971.407
6967.198
6963.242
6959.319
6955.25
6951.008
6946.755
6942.787
6939.453
6937.116
6936.109
6936.702
6939.102
6943.472
6949.819
6958.007
6967.859
6979.12
6991.493
7004.657
7018.294
7032.103
7045.812
7059.185
7072.026
7084.179
7095.529
7105.996
7115.528
7124.099
7131.697
7138.327
7143.999
7148.736
7152.568
7155.537
7157.69
7159.076
7159.745
7159.744
7159.116
7157.903
7156.137
7153.846
7151.048
7147.757
7143.975
7139.684
7134.859
7129.435
7123.318
7116.346
7108.219
7098.437
7086.509
7074.605
7078.27
7128.263
5677.55
5525.774
5345.356
5172.858
5004.369
4841.322
4684.627
4534.388
4390.873
4229.799
4094.497
3977.388
3859.741
3752.408
3652.539
3559.997
3475.647
3394.439
3275.401
3230.908
3161.52
3095.045
3041.66
2993.661
2949.565
2909.481
2872.025
2839.204
2812.889
2771.085
2743.815
2720.909
2698.244
2678.355
2659.511
2641.56
2626.646
2619.993
2588.883
2567.114
2556.525
2546.702
2536.397
2527.161
2518.342
2509.763
2501.459
2486.496
2480.142
2474.209
2466.571
2458.962
2452.446
2446.784
2442.414
2446.03
2357.149
2353.33
2354.387
2354.247
2352.194
2350.079
2349.307
2349.853
2351.11
2351.867
2355.537
2362.137
2369.249
2377.596
2388.957
2405.254
2428.478
2461.698
2502.614
2536.697
2539.627
2524.352
2522.241
2522.717
2511.319
2485.46
2452.964
2421.191
2393.008
2368.368
2346.227
2326.156
2308.012
2291.724
2277.264
2264.691
2254.834
2249.825
2251.969
2266.715
2294.623
2334.399
2388.141
2449.762
2491.301
2497.118
2467.301
2402.477
2313.136
2247.629
2234.449
2248.108
2269.105
2287.668
2303.853
2319.841
2336.709
2354.576
2373.126
2392.032
2411.367
2431.495
2452.813
2475.609
2500.03
2526.119
2553.873
2583.249
2614.216
2646.85
2681.303
2717.714
2756.162
2796.634
2839.016
2883.128
2928.786
2975.862
3024.32
3074.185
3125.476
3178.165
3232.173
3287.371
3343.595
3400.671
3458.422
3516.684
3575.305
3634.146
3693.079
3751.982
3810.747
3869.292
3927.606
3985.797
4044.147
4102.734
4161.105
4218.304
4272.287
4324.733
4376.084
4426.444
4475.862
4524.408
4572.158
4619.185
4665.53
4711.201
4756.185
4800.445
4843.907
4886.463
4927.991
4968.366
5007.479
5045.243
5081.594
5116.508
5149.96
5181.955
5212.526
5241.708
5269.48
5295.825
5320.699
5344.145
5366.129
5386.671
5405.914
5423.984
5440.955
5456.873
5472.1
5486.701
5500.716
5514.327
5527.545
5540.417
5552.845
5564.785
5576.081
5586.73
5596.518
5605.545
5614.201
5623.241
5692.017
5701.357
5702.711
5704.003
5704.159
5702.973
5700.462
5696.872
5692.534
5687.956
5683.794
5680.884
5680.305
5683.198
5690.987
5705.169
5727.437
5759.84
5803.358
5858.169
5917.504
5971.652
5996.542
5932.906
5929.837
5975.447
6029.629
6090.407
6162.21
6216.856
6239.221
6234.655
6196.232
6135.173
6068.454
6013.035
5981.254
5975.391
5992.255
6028.972
6076.906
6131.025
6186.945
6241.685
6293.534
6341.715
6386.04
6426.652
6463.829
6497.816
6528.745
6556.735
6582
6604.794
6625.322
6643.753
6660.232
6674.873
6687.768
6698.986
6708.584
6716.607
6723.103
6728.123
6731.731
6734
6735.028
6734.936
6734.015
6735.404
6665.99
6666.09
6661.654
6654.131
6647.119
6641.265
6636.012
6630.982
6626.206
6621.632
6617.39
6613.502
6609.975
6606.811
6604.008
6601.564
6599.472
6597.724
6596.311
6595.224
6594.456
6593.998
6593.845
6593.99
6594.426
6595.146
6596.141
6597.399
6598.908
6600.648
6602.595
6604.724
6607.001
6609.387
6611.843
6614.331
6616.806
6619.226
6621.558
6623.778
6625.869
6627.822
6629.619
6631.192
6632.397
6633.047
6632.984
6632.35
6631.619
6631.128
6630.875
6630.966
6631.271
6632.066
6633.759
6634.21
6634.982
6638.552
6643.907
6649.709
6655.557
6655.965
6651.784
6647.922
6644.696
6644.436
6658.626
6679.008
6696.47
6710.44
6718.72
6720.198
6718.737
6718.332
6717.187
6710.409
6698.981
6687.242
6678.103
6672.08
6667.851
6664.214
6660.836
6657.539
6654.01
6649.94
6645.442
6640.851
6636.54
6632.908
6630.327
6629.132
6629.641
6632.124
6636.526
6642.964
6651.309
6661.327
6672.736
6685.222
6698.455
6712.112
6725.894
6739.533
6752.801
6765.51
6777.51
6788.695
6798.997
6808.371
6816.797
6824.27
6830.797
6836.386
6841.052
6844.828
6847.757
6849.886
6851.264
6851.94
6851.958
6851.361
6850.188
6848.47
6846.238
6843.509
6840.301
6836.614
6832.451
6827.787
6822.603
6816.848
6810.551
6803.781
6797.072
6791.39
6788.482
6788.622
6792.341
2898.502
2950.473
3024.67
3117.399
3227.569
3354.467
3497.339
3655.83
3828.94
4012.246
4189.849
4392.772
4601.088
4814.28
5030.304
5246.418
5457.493
5662.545
5859.292
6032.719
6198.535
6348.192
6476.968
6581.515
6660.109
6711.444
6734.437
6728.705
6699.493
6640.617
6556.281
6449.877
6324.798
6183.81
6029.977
5866.349
5696.224
5522.865
5335.678
5160.713
4984.921
4812.028
4643.577
4480.304
4323.468
4173.876
4032.597
3898.756
3768.788
3650.528
3538.864
3434.181
3337.18
3247.144
3164.626
3098.644
2921.711
2857.621
2805.674
2755.06
2705.78
2659.672
2617.493
2578.969
2543.553
2510.114
2478.782
2451.422
2426.384
2402.61
2380.569
2360.598
2342.238
2324.996
2308.255
2291.537
2276.267
2262.099
2248.681
2236.593
2226.018
2216.444
2207.171
2197.62
2187.667
2178.541
2170.091
2161.72
2154.08
2147.527
2141.635
2135.87
2129.482
2122.721
2115.618
2111.193
2108.273
2104.445
2100.912
2098.784
2098.217
2098.758
2099.882
2101.864
2105.063
2109.162
2114.951
2123.61
2135.768
2151.698
2171.266
2193.883
2218.01
2240.558
2250.202
2242.505
2233.364
2230.01
2223.251
2206.108
2181.182
2155.023
2130.918
2109.185
2089.467
2071.492
2055.464
2041.741
2030.582
2022.209
2017.525
2016.297
2019.471
2033.274
2055.373
2082.776
2117.696
2155.765
2182.331
2186.872
2168.951
2132.823
2081.496
2034.199
2012.037
2017.812
2034.079
2048.565
2062.247
2076.71
2092.438
2109.494
2127.463
2145.722
2164.295
2183.632
2204.245
2226.512
2250.593
2276.483
2304.131
2333.386
2364.111
2396.44
2430.653
2466.979
2505.524
2546.25
2588.989
2633.498
2679.513
2726.854
2775.508
2825.568
2877.123
2930.173
2984.629
3040.33
3097.075
3154.654
3212.876
3271.569
3330.596
3389.846
3449.228
3508.655
3568.06
3627.401
3686.671
3745.854
3804.796
3863.31
3921.215
3978.42
4033.886
4087.179
4138.779
4189.098
4238.304
4286.484
4333.758
4380.245
4426.041
4471.193
4515.713
4559.586
4602.759
4645.142
4686.617
4727.059
4766.354
4804.402
4841.114
4876.43
4910.311
4942.74
4973.691
5003.114
5030.958
5057.193
5081.807
5104.798
5126.116
5145.803
5164.1
5181.167
5197.047
5211.984
5226.329
5240.252
5253.909
5267.478
5280.976
5294.413
5307.639
5320.579
5333.041
5344.89
5356.068
5366.483
5376.18
5384.859
5392.102
5399.152
5404.834
5405.355
5404.057
5401.22
5396.651
5390.583
5383.387
5375.579
5367.92
5361.366
5357.034
5356.234
5360.264
5370.679
5388.642
5415.048
5449.081
5488.861
5532.688
5566.379
5589.152
5603.539
5621.927
5665.01
5724.216
5790.993
5841.91
5888.068
5916.18
5912.307
5880.005
5816.408
5738.409
5674.286
5641.956
5643.358
5672.659
5720.697
5778.047
5838.164
5897.135
5952.672
6003.837
6050.482
6092.883
6131.495
6166.846
6199.501
6229.118
6255.65
6279.707
6301.52
6321.166
6338.841
6354.678
6368.772
6381.2
6392.024
6401.285
6409.027
6415.283
6420.115
6423.551
6425.692
6426.558
6426.317
6425.012
6423.109
6420.125
6415.72
6410.09
6404.53
6399.555
6394.715
6389.782
6385.171
6380.563
6375.993
6371.728
6367.779
6364.144
6360.842
6357.881
6355.265
6352.994
6351.065
6349.477
6348.227
6347.313
6346.734
6346.486
6346.567
6346.971
6347.691
6348.72
6350.046
6351.651
6353.512
6355.596
6357.872
6360.307
6362.856
6365.465
6368.078
6370.64
6373.099
6375.408
6377.526
6379.419
6381.047
6382.374
6383.354
6383.954
6384.123
6383.814
6383.064
6382.121
6381.221
6380.564
6380.039
6379.874
6379.896
6379.88
6380.646
6382.592
6385.498
6388.54
6391.375
6393.285
6394.738
6393.618
6390.27
6389.057
6393.183
6403.356
6417.093
6430.952
6443.036
6454.059
6462.664
6465.736
6461.819
6454.657
6449.232
6446.66
6445.276
6440.366
6432.706
6425.645
6420.429
6416.634
6413.476
6410.121
6406.129
6401.502
6396.616
6391.942
6387.938
6384.938
6383.274
6383.347
6385.424
6389.555
6395.878
6404.171
6414.197
6425.644
6438.18
6451.466
6465.168
6478.981
6492.637
6505.911
6518.615
6530.601
6541.767
6552.055
6561.426
6569.859
6577.36
6583.938
6589.583
6594.306
6598.148
6601.153
6603.37
6604.849
6605.637
6605.78
6605.319
6604.293
6602.736
6600.678
6598.141
6595.147
6591.707
6587.831
6583.533
6578.817
6573.728
6568.346
6562.94
6557.79
6553.38
6549.949
6548.585
6548.681
2725.128
2694.006
2663.85
2621.365
2594.834
2547.563
2544.958
2560.196
2589.683
2599.127
2590.964
2599.788
2631.13
2681.669
2750.722
2837.481
2940.784
3060.159
3195.778
3344.622
3508.146
3684.32
3870.425
4065.813
4268.298
4475.678
4685.619
4895.622
5103.263
5305.972
5501.429
5660.873
5832.348
5977.974
6101.231
6200.916
6274.522
6320.506
6338.386
6328.8
6293.106
6231.043
6143.667
6033.966
5905.364
5761.281
5605.097
5439.966
5268.818
5094.219
4918.389
4743.476
4570.353
4400.253
4234.563
4074.579
3921.405
3775.729
3638.014
3508.155
3385.85
3271.264
3164.315
3064.569
2971.634
2885.052
2804.478
2728.892
2655.084
2592.003
2539.095
2489.139
2441.029
2396.379
2355.651
2318.305
2283.521
2251.202
2221.779
2194.71
2169.732
2147.116
2126.664
2107.894
2090.234
2073.12
2056.397
2040.641
2025.675
2010.888
1997.433
1986.244
1976.689
1967.76
1958.73
1949.322
1939.676
1929.874
1920.469
1912.201
1905.348
1899.519
1894.013
1888.272
1881.964
1875.462
1868.827
1862.712
1857.359
1852.396
1849.599
1848.729
1848.858
1849.464
1850.301
1851.416
1852.886
1855.339
1860.226
1868.545
1879.745
1893.755
1908.736
1924.91
1940.94
1954.677
1961.1
1957.626
1950.542
1945.289
1938.954
1926.575
1908.383
1888.138
1868.109
1849.089
1831.287
1815.139
1801.302
1790.179
1781.841
1776.718
1774.923
1776.074
1780.663
1791.847
1808.116
1827.401
1850.112
1873.262
1890.155
1895.117
1886.679
1864.916
1834.069
1804.373
1786.093
1786.761
1796.2
1806.193
1817.731
1831.232
1846.374
1863.02
1880.446
1897.703
1915.165
1933.453
1953.209
1974.862
1998.482
2023.993
2051.423
2080.535
2110.899
2142.689
2176.397
2212.43
2250.978
2291.974
2335.131
2380.07
2426.411
2473.911
2522.616
2572.75
2624.508
2677.93
2732.916
2789.27
2846.733
2905.036
2963.951
3023.284
3082.906
3142.74
3202.736
3262.835
3322.991
3383.17
3443.324
3503.359
3563.099
3622.389
3681.019
3738.706
3794.776
3848.793
3900.906
3951.436
4000.609
4048.582
4095.518
4141.583
4186.93
4231.661
4275.825
4319.428
4362.428
4404.741
4446.25
4486.825
4526.345
4564.701
4601.786
4637.528
4671.877
4704.775
4736.158
4765.959
4794.093
4820.46
4844.972
4867.571
4888.23
4907.004
4924.101
4939.725
4954.091
4967.607
4980.665
4993.572
5006.59
5019.94
5033.678
5047.759
5062.015
5076.261
5090.226
5103.736
5116.536
5128.477
5139.292
5148.802
5156.84
5162.775
5165.683
5167.945
5166.691
5162.577
5156.06
5147.386
5136.898
5125.115
5112.838
5101.119
5091.143
5084.249
5081.891
5085.549
5096.34
5114.942
5140.76
5172.445
5210.657
5250.66
5283.236
5308.592
5344.279
5396.592
5454.252
5512.16
5564.54
5612.06
5648.685
5655.738
5621.945
5559.544
5488.564
5431.673
5406.116
5410.911
5442.195
5491.006
5548.89
5609.293
5667.894
5722.514
5772.35
5817.37
5857.954
5894.634
5927.862
5958.68
5987.162
6012.396
6035.386
6056.476
6075.445
6092.529
6107.89
6121.599
6133.719
6144.307
6153.396
6161.019
6167.208
6172.015
6175.478
6177.664
6178.643
6178.536
6177.456
6175.419
6172.161
6168.153
6164.035
6159.674
6154.953
6150.122
6145.099
6140.237
6135.532
6130.999
6126.666
6122.628
6118.883
6115.445
6112.325
6109.53
6107.064
6104.931
6103.137
6101.685
6100.584
6099.841
6099.46
6099.444
6099.788
6100.482
6101.531
6102.921
6104.633
6106.642
6108.904
6111.375
6114.012
6116.778
6119.614
6122.44
6125.171
6127.738
6130.082
6132.143
6133.872
6135.227
6136.178
6136.693
6136.763
6136.393
6135.613
6134.499
6133.207
6131.9
6130.708
6129.619
6128.733
6127.986
6127.535
6127.703
6128.281
6128.849
6129.427
6130.365
6131.396
6131.861
6131.048
6130.388
6131.761
6136.076
6143.122
6153.385
6164.9
6176.123
6185.762
6191.808
6194.028
6194.407
6195.766
6197.65
6195.835
6189.806
6183.482
6180.205
6179.849
6178.874
6175.668
6171.4
6166.692
6161.781
6156.725
6151.574
6146.567
6142.135
6138.73
6136.78
6136.679
6138.699
6142.927
6149.395
6157.872
6168.146
6179.867
6192.664
6206.179
6220.068
6234.016
6247.756
6261.066
6273.761
6285.693
6296.773
6306.968
6316.247
6324.581
6332.004
6338.562
6344.198
6348.885
6352.684
6355.656
6357.856
6359.333
6360.138
6360.315
6359.908
6358.957
6357.496
6355.56
6353.176
6350.369
6347.163
6343.581
6339.654
6335.423
6330.965
6326.363
6321.834
6317.604
6313.736
6310.65
6308.718
6306.978
2995.936
2964.555
2933.252
2877.245
2828.708
2745.737
2696.681
2647.433
2598.758
2550.657
2504.101
2460.369
2418.313
2379.99
2346.803
2318.496
2234.776
2224.625
2223.471
2227.048
2231.555
2242.281
2265.35
2303.929
2359.042
2429.913
2517.089
2621.727
2742.709
2879.362
3030.644
3195.335
3372.314
3560.089
3756.687
3959.904
4167.543
4377.349
4587.826
4795.531
4995.72
5185.42
5354.132
5518.476
5662.72
5785.714
5885.146
5958.298
6003.594
6020.548
6009.531
5971.776
5908.266
5820.197
5709.964
5580.813
5436.272
5279.864
5114.965
4944.651
4771.371
4597.031
4423.669
4252.862
4085.468
3922.162
3763.78
3611.9
3467.595
3331.311
3203.587
3084.452
2973.607
2870.473
2774.297
2684.286
2600.097
2520.965
2447.501
2380.12
2319.898
2266.958
2218.784
2173.927
2132.357
2093.894
2058.002
2024.242
1992.694
1963.581
1937.132
1913.513
1892.614
1873.866
1856.359
1839.352
1822.456
1805.69
1789.431
1774.421
1760.163
1747.14
1737.215
1728.947
1720.761
1712
1702.418
1692.175
1681.799
1672.205
1663.628
1657.181
1652.252
1647.492
1642.036
1635.509
1628.1
1620.106
1612.037
1605.895
1601.684
1599.397
1599.587
1600.104
1600.352
1600.184
1599.664
1599.19
1599.746
1602.717
1610.072
1620.94
1632.032
1643.189
1655.473
1666.164
1673.694
1676.429
1673.769
1668.147
1662.935
1658.478
1649.954
1636.579
1621.318
1604.632
1587.573
1571.219
1556.592
1544.114
1535.485
1530.486
1527.896
1528.685
1531.911
1536.709
1544.37
1555.088
1567.791
1582.265
1596.882
1608.4
1614.826
1612.98
1600.761
1582.637
1564.001
1550.232
1547.642
1552.618
1559.975
1570.612
1583.819
1598.029
1614.535
1632.562
1648.598
1664.293
1680.92
1699.408
1720.408
1743.762
1768.979
1796.13
1824.972
1854.603
1885.529
1918.551
1954.192
1992.691
2034.002
2077.734
2123.307
2170.061
2217.571
2266.072
2316.104
2368.053
2421.958
2477.649
2534.88
2593.32
2652.631
2712.522
2772.737
2833.128
2893.674
2954.389
3015.252
3076.235
3137.313
3198.449
3259.557
3320.469
3380.959
3440.701
3499.281
3556.2
3611.091
3663.896
3714.784
3763.987
3811.739
3858.285
3903.879
3948.745
3993.047
4036.877
4080.259
4123.157
4165.477
4207.089
4247.854
4287.641
4326.336
4363.829
4400.046
4434.93
4468.419
4500.435
4530.861
4559.524
4586.224
4610.776
4633.047
4652.976
4670.596
4686.107
4699.821
4712.2
4723.677
4734.792
4746.194
4758.19
4771.12
4785.089
4800.004
4815.617
4831.599
4847.564
4863.153
4878.004
4891.851
4904.37
4915.318
4924.309
4930.897
4934.963
4936.248
4934.035
4928.351
4919.384
4907.356
4892.598
4875.685
4857.522
4839.228
4822.045
4807.401
4796.847
4791.799
4793.671
4803.837
4822.603
4849.879
4885.86
4925.482
4964.274
5005.752
5055.595
5112.973
5173.834
5234.546
5289.372
5335.83
5367.407
5373.997
5356.56
5318.044
5269.545
5231.482
5215.538
5218.022
5243.822
5287.691
5341.193
5397.692
5452.889
5504.533
5551.551
5593.856
5631.746
5665.887
5696.846
5725.007
5750.895
5774.349
5795.797
5815.482
5833.391
5849.575
5864.145
5877.195
5888.761
5898.88
5907.57
5914.85
5920.743
5925.299
5928.556
5930.563
5931.407
5931.188
5929.98
5927.835
5924.874
5921.414
5917.612
5913.377
5908.72
5903.93
5899.176
5894.543
5890.04
5885.645
5881.424
5877.427
5873.665
5870.154
5866.909
5863.943
5861.268
5858.899
5856.851
5855.143
5853.793
5852.824
5852.257
5852.11
5852.372
5853.016
5854.087
5855.554
5857.402
5859.601
5862.101
5864.848
5867.789
5870.867
5873.995
5877.103
5880.095
5882.847
5885.281
5887.318
5888.892
5889.952
5890.485
5890.501
5890.018
5889.072
5887.723
5886.065
5884.246
5882.383
5880.569
5878.827
5877.198
5875.714
5874.407
5873.288
5872.316
5871.525
5871.017
5870.73
5870.45
5869.828
5869.4
5869.731
5871.392
5874.894
5880.638
5888.632
5897.474
5905.886
5913.443
5920.08
5925.967
5930.881
5934.214
5935.441
5934.67
5933.768
5933.901
5933.373
5931.206
5928.606
5926.827
5925.805
5923.917
5919.992
5914.572
5908.634
5902.734
5897.516
5893.611
5891.444
5891.291
5893.389
5897.819
5904.448
5913.238
5923.751
5935.732
5948.782
5962.522
5976.594
5990.677
6004.499
6017.844
6030.525
6042.379
6053.317
6063.334
6072.45
6080.596
6087.79
6094.125
6099.59
6104.148
6107.823
6110.691
6112.809
6114.229
6114.999
6115.167
6114.775
6113.866
6112.477
6110.643
6108.396
6105.77
6102.794
6099.503
6095.938
6092.155
6088.23
6084.257
6080.375
6076.727
6073.322
6070.622
6068.531
6066.177
3183.199
3145.595
3103.931
3050.615
3011.597
2936.341
2897.122
2858.017
2818.039
2776.943
2735.482
2693.567
2649.323
2604.339
2556.352
2440.014
2390.868
2341.988
2293.311
2245.185
2197.987
2152.616
2109.389
2069.128
2032.779
2001.459
1975.92
1957.964
1947.275
1943.03
1945.599
1957.689
1981.566
2019.332
2072.5
2142.324
2228.639
2331.347
2450.337
2585.058
2734.538
2897.513
3072.528
3258.03
3452.35
3653.221
3858.461
4065.424
4271.598
4475.11
4672.696
4861.811
5037.294
5199.069
5341.587
5461.784
5557.205
5625.748
5666.163
5678.241
5662.567
5620.356
5553.076
5462.3
5350.202
5219.693
5074.301
4917.598
4753.089
4584.138
4412.989
4241.849
4072.588
3906.273
3743.639
3585.122
3431.211
3282.739
3140.924
3007.367
2883.293
2768.88
2663.286
2565.317
2473.878
2388.032
2307.358
2231.614
2161.519
2097.532
2039.974
1989.138
1943.88
1902.721
1864.645
1828.798
1794.581
1761.854
1730.865
1702.145
1676.993
1655.2
1636.225
1619.548
1603.595
1587.473
1570.855
1553.683
1536.253
1520.189
1507.443
1495.983
1487.325
1480.843
1473.757
1465.444
1455.587
1444.545
1432.721
1422.137
1414.42
1408.683
1404.814
1401.198
1396.121
1389.048
1380.343
1370.825
1361.226
1353.726
1349.904
1348.735
1349.722
1350.578
1350.353
1348.946
1346.578
1343.791
1341.801
1342.432
1348.183
1359.703
1368.732
1377.157
1386.493
1393.039
1395.832
1394.717
1390.17
1384.313
1381.977
1380.403
1373.656
1364.361
1354.178
1340.409
1324.661
1309.044
1295.382
1284.517
1277.858
1275.884
1276.936
1280.373
1284.78
1288.97
1293.589
1299.122
1305.959
1314.542
1324.178
1332.504
1342.555
1345.564
1338.772
1329.302
1318.25
1308.02
1303.164
1304.171
1309.922
1320.782
1335.352
1350.984
1366.363
1383.044
1398.243
1411.736
1426.128
1442.906
1462.997
1485.889
1510.618
1537.908
1567.3
1595.447
1624.631
1656.562
1691.898
1730.693
1772.621
1817.069
1863.434
1910.815
1958.164
2005.988
2055.515
2107.503
2161.993
2218.646
2277.077
2336.787
2397.375
2458.524
2519.873
2581.227
2642.622
2704.129
2765.774
2827.606
2889.674
2951.964
3014.384
3076.735
3138.738
3199.995
3259.996
3318.211
3374.217
3427.823
3479.1
3528.291
3575.724
3621.773
3666.808
3711.146
3755.018
3798.554
3841.794
3884.701
3927.155
3968.989
4010.037
4050.163
4089.243
4127.171
4163.888
4199.37
4233.586
4266.444
4297.758
4327.244
4354.568
4379.392
4401.436
4420.574
4436.809
4450.372
4461.688
4471.278
4479.938
4488.535
4497.729
4508.278
4520.561
4534.753
4550.722
4568.081
4586.294
4604.779
4623.004
4640.464
4656.772
4671.545
4684.41
4694.984
4702.825
4707.499
4708.638
4705.748
4698.499
4686.855
4670.948
4651.076
4627.835
4602.23
4575.577
4549.341
4525.019
4504.144
4488.397
4479.743
4480.431
4491.979
4514.587
4547.794
4589.461
4638.055
4693.335
4755.259
4822.507
4891.777
4957.712
5014.365
5059.225
5090.391
5106.105
5107.422
5091.325
5067.643
5050.214
5043.122
5047.646
5070.351
5107.618
5153.066
5201.828
5250.402
5296.487
5338.929
5377.26
5411.62
5442.609
5470.571
5495.934
5519.089
5540.4
5560.032
5578.055
5594.494
5609.404
5622.851
5634.912
5645.622
5654.986
5662.998
5669.672
5675.026
5679.11
5681.977
5683.625
5684.165
5683.703
5682.331
5680.175
5677.379
5674.075
5670.348
5666.26
5661.918
5657.497
5653.104
5648.772
5644.505
5640.323
5636.265
5632.359
5628.617
5625.054
5621.684
5618.526
5615.602
5612.942
5610.579
5608.546
5606.881
5605.619
5604.794
5604.461
5604.591
5605.189
5606.296
5607.87
5609.902
5612.343
5615.15
5618.264
5621.607
5625.102
5628.661
5632.158
5635.457
5638.446
5641.029
5643.101
5644.573
5645.381
5645.487
5644.917
5643.758
5642.107
5640.053
5637.721
5635.276
5632.803
5630.347
5627.923
5625.558
5623.261
5621.002
5618.807
5616.752
5614.846
5613.045
5611.31
5609.617
5608.081
5607.207
5607.599
5609.44
5612.616
5617.084
5622.736
5629.201
5636.187
5643.664
5651.232
5658.011
5663.386
5667.646
5671.514
5675.216
5678.255
5680.11
5680.666
5681.138
5682.249
5682.54
5681.372
5678.943
5675.465
5671.44
5666.914
5661.758
5656.75
5652.712
5650.241
5649.785
5651.661
5655.991
5662.677
5671.445
5681.99
5694.025
5707.144
5720.934
5735.023
5749.08
5762.832
5776.073
5788.646
5800.389
5811.196
5821.01
5829.917
5837.773
5844.602
5850.604
5855.709
5859.962
5863.415
5866.112
5868.096
5869.416
5870.116
5870.244
5869.842
5868.953
5867.616
5865.87
5863.75
5861.293
5858.536
5855.518
5852.287
5848.9
5845.425
5841.948
5838.583
5835.41
5832.442
5830.085
5828.009
5825.636
3166.327
3118.933
3072.839
3014.831
2956.972
2905.042
2857.279
2813.42
2772.779
2732.153
2625.977
2587.455
2548.992
2509.808
2469.571
2428.236
2385.648
2341.439
2295.684
2249.113
2202.641
2154.254
2105.466
2056.486
2007.701
1959.39
1911.93
1865.4
1820.596
1778.812
1741.367
1710.291
1685.941
1669.201
1661.116
1662.31
1674.421
1698.935
1737.056
1790.045
1858.683
1943.422
2044.385
2161.471
2294.191
2441.64
2602.61
2775.648
2958.942
3150.818
3348.725
3549.5
3751.84
3953.366
4152.292
4346.739
4532.478
4704.996
4861.112
4997.645
5111.084
5198.825
5259.178
5291.315
5295.458
5272.652
5224.37
5152.286
5058.082
4943.9
4812.24
4666.357
4510.097
4346.609
4179.787
4012.378
3846.212
3683.268
3524.109
3368.217
3215.872
3067.815
2924.503
2787.505
2659.344
2541.475
2434.06
2335.793
2244.935
2159.966
2079.75
2003.841
1932.224
1865.394
1804.186
1749.888
1703.076
1662.061
1625.338
1591.502
1558.973
1526.874
1495.298
1464.822
1436.164
1412.442
1393.929
1377.262
1363.438
1349.667
1334.56
1318.101
1300.471
1282.297
1264.9
1252.027
1243.756
1237.615
1232.718
1226.823
1218.952
1208.572
1196.098
1182.753
1170.99
1163.37
1159.043
1157.314
1155.435
1150.776
1142.761
1132.303
1120.857
1109.399
1099.547
1094.572
1095.95
1099.219
1100.9
1100.229
1097.399
1092.808
1086.885
1080.911
1078.431
1083.72
1096.046
1105.37
1112.35
1119.117
1122.161
1120.518
1114.71
1106.659
1099.663
1099.108
1103.233
1098.73
1093.287
1087.445
1075.848
1060.486
1044.543
1031.239
1021.812
1016.944
1017.261
1022.675
1030.176
1036.079
1039.43
1040.817
1040.93
1041.997
1045.794
1052.115
1061.01
1075.74
1083.519
1081.317
1077.877
1070.39
1060.843
1053.248
1050.948
1055.757
1068.037
1084.462
1103.077
1118.497
1131.576
1145.667
1156.945
1168.242
1183.192
1203.374
1226.428
1249.659
1276.673
1307.774
1334.054
1360.223
1390.213
1424.959
1464.396
1507.869
1553.836
1601.255
1649.168
1695.634
1742.1
1790.789
1842.79
1897.953
1955.697
2015.744
2077.213
2139.473
2202.212
2264.878
2327.244
2389.561
2451.967
2514.416
2577.043
2640.085
2703.655
2767.65
2831.738
2895.578
2958.791
3020.774
3080.809
3138.273
3192.832
3244.507
3293.586
3340.534
3385.902
3430.222
3473.933
3517.344
3560.62
3603.805
3646.853
3689.598
3731.8
3773.24
3813.776
3853.297
3891.671
3928.888
3965.012
4000.085
4034.023
4066.561
4097.271
4125.625
4151.08
4173.137
4191.484
4206.104
4217.255
4225.449
4231.444
4236.311
4241.307
4247.639
4256.236
4267.661
4282.123
4299.418
4318.98
4339.999
4361.605
4383.06
4403.771
4423.218
4440.881
4456.288
4468.976
4478.424
4484.11
4485.526
4482.038
4473.128
4458.591
4438.445
4412.855
4382.321
4347.923
4311.251
4274.068
4237.998
4204.49
4175.486
4153.879
4143.024
4145.719
4162.984
4195.396
4241.894
4300.828
4370.257
4447.563
4529.129
4609.869
4683.66
4745.92
4796.217
4833.805
4857.894
4870.549
4871.491
4868.016
4868.355
4869.511
4877.979
4899.587
4931.361
4969.036
5009.839
5051.255
5091.287
5128.671
5162.902
5194.09
5222.237
5247.64
5270.652
5291.544
5310.751
5328.337
5344.413
5359.037
5372.27
5384.194
5394.881
5404.37
5412.658
5419.707
5425.512
5430.047
5433.392
5435.669
5436.734
5436.828
5436.04
5434.466
5432.238
5429.467
5426.241
5422.669
5418.859
5414.895
5410.864
5406.835
5402.841
5398.895
5394.999
5391.167
5387.407
5383.724
5380.126
5376.628
5373.258
5370.048
5367.041
5364.296
5361.86
5359.81
5358.199
5357.077
5356.496
5356.465
5357.03
5358.167
5359.854
5362.05
5364.725
5367.869
5371.411
5375.248
5379.269
5383.361
5387.347
5391.093
5394.48
5397.347
5399.542
5400.959
5401.526
5401.2
5400.004
5398.054
5395.537
5392.654
5389.595
5386.518
5383.481
5380.467
5377.454
5374.428
5371.372
5368.279
5365.143
5361.98
5358.789
5355.584
5352.442
5349.402
5346.528
5344.609
5345.051
5347.477
5350.449
5353.562
5357.356
5362.244
5368.186
5374.999
5382.168
5389.107
5395.809
5402.695
5409.769
5415.878
5420.544
5424.47
5427.596
5430.682
5434.062
5435.891
5436.544
5436.488
5435.215
5432.353
5428.4
5423.965
5419.631
5416.077
5413.891
5413.566
5415.485
5419.72
5426.145
5434.559
5444.816
5456.514
5469.274
5482.692
5496.393
5510.048
5523.38
5536.174
5548.278
5559.573
5569.916
5579.458
5588.036
5595.448
5601.929
5607.549
5612.237
5616.138
5619.325
5621.808
5623.621
5624.806
5625.408
5625.471
5625.038
5624.152
5622.853
5621.182
5619.178
5616.878
5614.324
5611.558
5608.628
5605.59
5602.505
5599.444
5596.493
5593.724
5591.172
5589.06
5587.116
5585.024
2906.919
2843.658
2715.054
2665.396
2617.255
2572.693
2531.188
2492.014
2454.348
2417.77
2382.141
2345.601
2308.364
2270.061
2230.647
2189.809
2147.416
2103.311
2057.331
2009.903
1962.396
1913.99
1864.968
1815.519
1765.397
1714.401
1663.18
1612.679
1563.851
1518.186
1477.528
1443.225
1416.038
1396.85
1386.788
1386.846
1398.282
1422.182
1459.775
1511.896
1579.276
1662.449
1761.674
1876.847
2007.522
2152.808
2311.505
2482.043
2662.245
2849.292
3040.995
3235.82
3432.865
3630.479
3825.329
4014.368
4193.683
4358.985
4506.562
4633.317
4736.118
4812.612
4861.494
4882.44
4876.238
4844.503
4789.014
4711.801
4614.443
4498.787
4367.235
4222.167
4067.569
3906.853
3742.977
3579.799
3420.305
3265.717
3115.395
2967.792
2822.817
2681.487
2544.986
2414.895
2293.456
2182.868
2083.796
1994.263
1912.059
1835.206
1761.945
1691.582
1624.178
1560.479
1501.847
1451.292
1410.053
1373.785
1342.537
1314.415