/*--------------------------------*- C++ -*----------------------------------*\
| =========                 |                                                 |
| \\      /  F ield         | foam-extend: Open Source CFD                    |
|  \\    /   O peration     | Version:     3.1                                |
|   \\  /    A nd           | Web:         http://www.extend-project.de       |
|    \\/     M anipulation  |                                                 |
\*---------------------------------------------------------------------------*/
FoamFile
{
    version     2.0;
    format      ascii;
    class       volScalarField;
    location    "18";
    object      pd;
}
// * * * * * * * * * * * * * * * * * * * * * * * * * * * * * * * * * * * * * //

dimensions      [1 -1 -2 0 0 0 0];

internalField   nonuniform List<scalar> 
119952
(
5025.25
3264.938
3009.471
3241.418
3491.24
3258.194
3182.674
3120.067
3076.337
3040.774
3009.769
2982.734
2958.929
2937.755
2917.254
2897.935
2877.196
2852.047
2810.626
2685.39
3083.95
2846.498
2725.129
3266.17
3219.24
3253.267
3303.388
3441.95
3909.327
7663.734
3203.702
3141.111
3134.303
3120.914
3109.113
3096.628
3088.289
3080.739
3074.636
3041.263
3024.882
3036.489
3024.33
3016.171
3008.802
3003.187
2998.676
2994.759
2990.828
3008.174
3001.4
2976.521
2968.351
2966.91
2965.529
2965.57
2966.735
2967.08
2975.728
2971.074
2969.109
2979.149
2989.812
3000.911
3014.063
3029.554
3056.036
3145.596
3336.058
3179.315
3113.41
3204.357
3242.221
3209.287
3145.946
3099.661
3063.147
3030.022
3000.65
2975.096
2952.38
2931.798
2912.849
2894.785
2876.602
2857.407
2838.516
2827.038
2850.992
2877.784
2870.532
2990.156
3175.277
3212.912
3226.376
3241.17
3149.566
2816.618
2733.48
2814.022
2839.637
2862.262
2887.262
2907.413
2925.904
2944.362
2962.907
2981.717
3000.901
3020.585
3041.021
3062.497
3085.275
3109.539
3135.384
3162.843
3191.915
3222.605
3254.96
3289.071
3325.037
3362.911
3402.69
3444.307
3487.649
3532.595
3579.04
3626.922
3676.216
3726.91
3778.973
3832.341
3886.911
3942.549
3999.103
4056.41
4114.3
4172.6
4231.135
4289.733
4348.238
4406.508
4464.402
4521.743
4578.278
4634.081
4691.793
4756.735
4816.883
4867.52
4919.119
4970.392
5020.861
5070.541
5119.65
5167.988
5215.739
5262.776
5309.148
5354.786
5399.637
5443.626
5486.621
5528.48
5569.076
5608.3
5646.078
5682.377
5717.211
5750.603
5782.609
5813.288
5842.652
5870.718
5897.561
5923.116
5947.395
5970.285
5991.854
6012.13
6031.194
6049.098
6066.072
6082.222
6097.32
6111.694
6125.407
6138.539
6151.09
6163.063
6174.404
6185.045
6194.89
6203.7
6211.376
6217.755
6223.273
6241.386
6247.73
6251.245
6253.377
6254.503
6254.265
6252.974
6250.87
6248.094
6245.151
6242.665
6241.37
6242.24
6246.273
6254.956
6269.811
6292.703
6326.964
6373.41
6435.67
6516.046
6615.845
6706.145
6458.645
6442.254
6490.949
6539.228
6615.166
6689.46
6741.316
6768.498
6767.922
6737.216
6683.621
6621.688
6567.516
6541.432
6536.026
6552.46
6586.145
6631.898
6684.463
6739.477
6793.896
6845.857
6894.418
6939.251
6980.386
7018.013
7052.345
7083.548
7111.778
7137.242
7160.176
7180.79
7199.26
7215.733
7230.328
7243.137
7254.233
7263.676
7271.516
7277.804
7282.596
7285.972
7288.018
7288.801
7288.514
7287.384
7284.337
7299.885
7288.84
7272.141
7267.402
7262.258
7256.265
7250.84
7245.695
7240.934
7236.443
7232.289
7228.488
7225.034
7221.944
7219.217
7216.845
7214.822
7213.138
7211.779
7210.733
7209.989
7209.534
7209.362
7209.464
7209.833
7210.462
7211.344
7212.47
7213.83
7215.41
7217.192
7219.154
7221.271
7223.513
7225.849
7228.245
7230.669
7233.087
7235.475
7237.817
7240.111
7242.383
7244.701
7247.184
7249.784
7251.503
7251.081
7249.828
7249.204
7248.925
7248.888
7249.474
7250.58
7251.412
7246.129
7247.558
7255.246
7260.224
7266.975
7277.173
7288.5
7296.289
7291.69
7269.286
7246.151
7250.557
7271.667
7296.31
7319.554
7336.38
7345.139
7345.875
7338.472
7327.806
7319.571
7313.647
7308.084
7301.581
7294.632
7288.143
7282.668
7277.97
7273.761
7269.804
7265.881
7261.812
7257.57
7253.318
7249.349
7246.015
7243.679
7242.672
7243.265
7245.664
7250.035
7256.381
7264.569
7274.421
7285.683
7298.055
7311.219
7324.856
7338.665
7352.375
7365.748
7378.589
7390.742
7402.092
7412.558
7422.091
7430.661
7438.26
7444.89
7450.562
7455.298
7459.13
7462.099
7464.252
7465.639
7466.308
7466.306
7465.679
7464.465
7462.699
7460.408
7457.611
7454.32
7450.537
7446.247
7441.421
7435.997
7429.881
7422.908
7414.782
7404.999
7393.071
7381.168
7384.832
7434.826
6211.392
6056.335
5872.65
5696.884
5525.128
5358.813
5198.852
5045.345
4898.726
4750.956
4615.654
4498.544
4380.897
4273.564
4173.695
4081.153
3996.803
3915.596
3827.214
3782.721
3713.332
3646.858
3593.473
3545.474
3501.378
3461.294
3423.838
3391.016
3364.701
3322.898
3295.628
3272.721
3250.056
3230.167
3211.323
3193.372
3178.459
3171.805
3140.696
3118.927
3108.337
3098.514
3088.21
3078.973
3070.154
3061.575
3053.272
3038.308
3031.955
3026.022
3018.384
3010.774
3004.259
2998.596
2994.227
2997.843
2970.274
2966.455
2967.512
2967.372
2965.319
2963.204
2962.432
2962.978
2964.235
2964.992
2968.662
2975.262
2982.374
2990.721
3002.082
3018.379
3041.603
3074.823
3115.739
3149.822
3152.752
3137.477
3135.366
3135.842
3124.444
3098.585
3066.089
3034.316
3006.133
2981.493
2959.352
2939.281
2921.137
2904.849
2890.389
2877.816
2867.959
2862.95
2865.094
2879.84
2907.748
2947.524
3001.266
3062.887
3104.426
3110.243
3080.426
3015.602
2926.261
2860.754
2847.574
2861.233
2882.23
2900.793
2916.978
2932.966
2949.834
2967.701
2986.251
3005.157
3024.492
3044.62
3065.938
3088.734
3113.155
3139.244
3166.998
3196.374
3227.341
3259.975
3294.428
3330.839
3369.287
3409.759
3452.141
3496.253
3541.911
3588.987
3637.445
3687.31
3738.601
3791.29
3845.298
3900.496
3956.72
4013.796
4071.547
4129.809
4188.43
4247.271
4306.204
4365.107
4423.872
4482.417
4540.731
4598.922
4657.272
4715.859
4774.23
4831.429
4885.412
4937.858
4989.209
5039.569
5088.987
5137.533
5185.283
5232.31
5278.655
5324.326
5369.31
5413.57
5457.032
5499.588
5541.116
5581.491
5620.604
5658.368
5694.719
5729.633
5763.085
5795.08
5825.651
5854.833
5882.605
5908.95
5933.824
5957.27
5979.254
5999.796
6019.039
6037.109
6054.08
6069.998
6085.225
6099.826
6113.841
6127.452
6140.67
6153.542
6165.97
6177.91
6189.206
6199.855
6209.643
6218.67
6227.326
6236.366
6243.83
6253.169
6254.523
6255.815
6255.971
6254.786
6252.274
6248.685
6244.347
6239.768
6235.606
6232.696
6232.118
6235.011
6242.799
6256.981
6279.249
6311.652
6355.17
6409.981
6469.316
6523.464
6548.354
6484.718
6481.649
6527.259
6581.441
6642.219
6714.023
6768.668
6791.033
6786.467
6748.045
6686.986
6620.267
6564.848
6533.067
6527.203
6544.067
6580.784
6628.718
6682.837
6738.758
6793.497
6845.346
6893.527
6937.853
6978.465
7015.641
7049.629
7080.557
7108.547
7133.812
7156.607
7177.134
7195.565
7212.044
7226.686
7239.581
7250.799
7260.396
7268.419
7274.916
7279.936
7283.544
7285.813
7286.84
7286.748
7285.827
7287.216
7279.115
7279.215
7274.779
7267.256
7260.244
7254.39
7249.137
7244.107
7239.331
7234.757
7230.515
7226.627
7223.1
7219.936
7217.133
7214.689
7212.597
7210.849
7209.436
7208.349
7207.581
7207.123
7206.97
7207.115
7207.551
7208.271
7209.266
7210.524
7212.033
7213.773
7215.72
7217.849
7220.126
7222.512
7224.968
7227.456
7229.931
7232.351
7234.683
7236.903
7238.994
7240.947
7242.744
7244.317
7245.522
7246.172
7246.109
7245.475
7244.744
7244.253
7244
7244.091
7244.396
7245.191
7246.884
7247.335
7248.107
7251.677
7257.032
7262.834
7268.682
7269.09
7264.909
7261.047
7257.821
7257.561
7271.751
7292.133
7309.595
7323.565
7331.845
7333.323
7331.862
7331.457
7330.312
7323.534
7312.106
7300.367
7291.228
7285.205
7280.976
7277.339
7273.961
7270.664
7267.135
7263.065
7258.567
7253.976
7249.665
7246.033
7243.452
7242.257
7242.766
7245.249
7249.651
7256.089
7264.434
7274.452
7285.861
7298.347
7311.58
7325.237
7339.019
7352.658
7365.926
7378.635
7390.635
7401.82
7412.122
7421.496
7429.921
7437.395
7443.922
7449.511
7454.177
7457.953
7460.882
7463.011
7464.389
7465.065
7465.083
7464.486
7463.313
7461.595
7459.363
7456.634
7453.426
7449.739
7445.576
7440.912
7435.728
7429.973
7423.676
7416.906
7410.197
7404.515
7401.607
7401.747
7405.466
3679.488
3727.917
3798.847
3888.309
3995.212
4118.838
4258.448
4413.67
4583.514
4764.67
4956.255
5159.178
5367.494
5580.686
5796.71
6012.825
6223.899
6428.951
6625.698
6829.781
6995.597
7145.255
7274.03
7378.577
7457.172
7508.507
7531.5
7525.768
7496.556
7437.68
7353.343
7246.939
7121.86
6980.873
6827.039
6663.411
6493.286
6319.927
6132.741
5957.776
5781.984
5609.091
5440.639
5277.366
5120.531
4970.939
4829.66
4695.818
4565.85
4447.591
4335.926
4231.243
4134.243
4044.206
3961.689
3895.707
3780.086
3715.996
3664.049
3613.435
3564.155
3518.047
3475.868
3437.344
3401.928
3368.489
3337.157
3309.797
3284.759
3260.985
3238.944
3218.973
3200.613
3183.371
3166.63
3149.912
3134.642
3120.474
3107.056
3094.968
3084.393
3074.819
3065.546
3055.995
3046.042
3036.916
3028.466
3020.095
3012.455
3005.902
3000.01
2994.245
2987.857
2981.096
2973.993
2969.568
2966.648
2962.82
2959.287
2957.159
2956.592
2957.133
2958.257
2960.239
2963.438
2967.537
2973.326
2981.985
2994.143
3010.073
3029.641
3052.258
3076.385
3098.933
3108.577
3100.88
3091.739
3088.385
3081.626
3064.483
3039.557
3013.398
2989.293
2967.56
2947.842
2929.867
2913.839
2900.116
2888.957
2880.584
2875.9
2874.672
2877.846
2891.649
2913.748
2941.151
2976.071
3014.14
3040.706
3045.247
3027.326
2991.198
2939.871
2892.574
2870.412
2876.187
2892.454
2906.94
2920.622
2935.085
2950.813
2967.869
2985.838
3004.097
3022.67
3042.007
3062.62
3084.887
3108.968
3134.858
3162.506
3191.761
3222.486
3254.815
3289.028
3325.354
3363.899
3404.625
3447.364
3491.873
3537.888
3585.229
3633.883
3683.943
3735.498
3788.548
3843.004
3898.705
3955.45
4013.029
4071.251
4129.944
4188.971
4248.221
4307.602
4367.03
4426.435
4485.776
4545.046
4604.229
4663.171
4721.685
4779.59
4836.795
4892.261
4945.554
4997.154
5047.473
5096.679
5144.859
5192.133
5238.62
5284.416
5329.568
5374.088
5417.961
5461.134
5503.517
5544.992
5585.434
5624.729
5662.777
5699.489
5734.805
5768.686
5801.115
5832.066
5861.489
5889.333
5915.568
5940.182
5963.173
5984.491
6004.178
6022.475
6039.542
6055.422
6070.359
6084.704
6098.627
6112.284
6125.853
6139.351
6152.788
6166.014
6178.954
6191.416
6203.265
6214.443
6224.858
6234.555
6243.234
6250.477
6257.527
6263.209
6263.73
6262.432
6259.595
6255.026
6248.958
6241.762
6233.954
6226.295
6219.741
6215.409
6214.609
6218.639
6229.054
6247.017
6273.423
6307.456
6347.236
6391.063
6424.754
6447.527
6461.914
6480.302
6523.385
6582.591
6649.368
6700.285
6746.443
6774.555
6770.682
6738.38
6674.783
6596.784
6532.661
6500.331
6501.733
6531.034
6579.072
6636.422
6696.539
6755.51
6811.047
6862.211
6908.857
6951.258
6989.87
7025.221
7057.876
7087.493
7114.025
7138.082
7159.895
7179.541
7197.216
7213.053
7227.147
7239.575
7250.399
7259.66
7267.402
7273.658
7278.49
7281.926
7284.067
7284.933
7284.692
7283.387
7281.484
7278.5
7274.095
7268.465
7262.905
7257.93
7253.09
7248.157
7243.546
7238.938
7234.368
7230.103
7226.154
7222.519
7219.217
7216.256
7213.64
7211.369
7209.44
7207.852
7206.602
7205.688
7205.109
7204.861
7204.942
7205.346
7206.066
7207.095
7208.42
7210.026
7211.887
7213.971
7216.247
7218.682
7221.231
7223.84
7226.453
7229.015
7231.474
7233.783
7235.901
7237.794
7239.422
7240.749
7241.729
7242.329
7242.498
7242.189
7241.439
7240.496
7239.596
7238.939
7238.414
7238.249
7238.271
7238.255
7239.021
7240.967
7243.873
7246.915
7249.75
7251.66
7253.113
7251.993
7248.645
7247.432
7251.558
7261.731
7275.468
7289.327
7301.411
7312.434
7321.039
7324.111
7320.194
7313.032
7307.607
7305.035
7303.651
7298.741
7291.081
7284.02
7278.804
7275.009
7271.851
7268.496
7264.504
7259.877
7254.991
7250.317
7246.313
7243.313
7241.649
7241.721
7243.799
7247.93
7254.253
7262.546
7272.572
7284.019
7296.555
7309.841
7323.543
7337.356
7351.012
7364.286
7376.99
7388.976
7400.142
7410.43
7419.801
7428.234
7435.735
7442.313
7447.958
7452.681
7456.523
7459.528
7461.745
7463.224
7464.012
7464.155
7463.694
7462.668
7461.111
7459.053
7456.516
7453.522
7450.082
7446.206
7441.907
7437.192
7432.103
7426.721
7421.315
7416.165
7411.755
7408.324
7406.96
7407.056
3742.332
3699.657
3666.027
3633.021
3606.49
3589.875
3587.271
3602.509
3631.996
3641.439
3633.276
3642.101
3673.443
3723.981
3793.034
3879.793
3983.096
4102.471
4238.091
4386.935
4550.458
4726.632
4912.738
5108.126
5310.61
5517.99
5727.931
5937.934
6145.576
6348.285
6543.741
6764.498
6935.973
7081.599
7204.856
7304.541
7378.147
7424.131
7442.011
7432.425
7396.731
7334.668
7247.292
7137.591
7008.989
6864.906
6708.722
6543.591
6372.443
6197.844
6022.014
5847.101
5673.978
5503.878
5338.188
5178.204
5025.03
4879.354
4741.639
4611.78
4489.475
4374.889
4267.94
4168.194
4075.259
3988.677
3908.103
3832.517
3758.709
3695.628
3642.72
3592.764
3544.654
3500.004
3459.276
3421.93
3387.146
3354.827
3325.404
3298.335
3273.357
3250.741
3230.289
3211.519
3193.859
3176.745
3160.022
3144.266
3129.3
3114.513
3101.058
3089.869
3080.314
3071.385
3062.355
3052.947
3043.301
3033.499
3024.094
3015.826
3008.973
3003.144
2997.638
2991.897
2985.589
2979.087
2972.452
2966.337
2960.984
2956.021
2953.224
2952.354
2952.483
2953.089
2953.926
2955.041
2956.511
2958.964
2963.851
2972.17
2983.37
2997.38
3012.361
3028.535
3044.565
3058.302
3064.725
3061.251
3054.167
3048.914
3042.579
3030.2
3012.008
2991.763
2971.734
2952.714
2934.912
2918.764
2904.927
2893.804
2885.466
2880.343
2878.548
2879.699
2884.288
2895.472
2911.741
2931.026
2953.737
2976.887
2993.78
2998.742
2990.304
2968.541
2937.694
2907.998
2889.718
2890.386
2899.825
2909.818
2921.356
2934.857
2949.999
2966.645
2984.071
3001.328
3018.79
3037.078
3056.834
3078.487
3102.107
3127.618
3155.048
3184.16
3214.524
3246.314
3280.022
3316.055
3354.603
3395.599
3438.756
3483.695
3530.036
3577.536
3626.241
3676.375
3728.133
3781.555
3836.541
3892.895
3950.358
4008.661
4067.576
4126.909
4186.531
4246.365
4306.361
4366.46
4426.616
4486.795
4546.949
4606.984
4666.724
4726.014
4784.644
4842.331
4898.401
4952.418
5004.531
5055.061
5104.234
5152.207
5199.143
5245.208
5290.555
5335.286
5379.45
5423.053
5466.053
5508.366
5549.875
5590.45
5629.97
5668.326
5705.411
5741.153
5775.502
5808.4
5839.783
5869.584
5897.718
5924.085
5948.597
5971.196
5991.855
6010.629
6027.726
6043.35
6057.716
6071.232
6084.29
6097.197
6110.215
6123.565
6137.303
6151.384
6165.64
6179.886
6193.851
6207.361
6220.161
6232.102
6242.917
6252.427
6260.465
6266.4
6269.308
6271.57
6270.316
6266.202
6259.685
6251.011
6240.523
6228.74
6216.463
6204.744
6194.768
6187.874
6185.516
6189.174
6199.965
6218.567
6244.385
6276.07
6314.282
6354.285
6386.861
6412.217
6447.904
6500.216
6557.877
6615.785
6668.165
6715.685
6752.31
6759.363
6725.57
6663.169
6592.188
6535.298
6509.741
6514.536
6545.82
6594.631
6652.515
6712.918
6771.519
6826.139
6875.975
6920.994
6961.579
6998.258
7031.487
7062.305
7090.787
7116.021
7139.011
7160.101
7179.07
7196.154
7211.515
7225.224
7237.344
7247.932
7257.021
7264.644
7270.833
7275.64
7279.103
7281.289
7282.268
7282.161
7281.081
7279.044
7275.786
7271.778
7267.66
7263.299
7258.578
7253.747
7248.724
7243.862
7239.157
7234.624
7230.291
7226.253
7222.508
7219.07
7215.95
7213.155
7210.689
7208.556
7206.762
7205.31
7204.209
7203.466
7203.085
7203.069
7203.413
7204.107
7205.156
7206.546
7208.258
7210.267
7212.529
7215
7217.637
7220.403
7223.239
7226.065
7228.796
7231.363
7233.707
7235.768
7237.497
7238.852
7239.803
7240.318
7240.388
7240.018
7239.238
7238.124
7236.832
7235.525
7234.333
7233.244
7232.358
7231.611
7231.16
7231.328
7231.906
7232.474
7233.052
7233.99
7235.021
7235.486
7234.673
7234.012
7235.382
7239.696
7246.743
7257.009
7268.525
7279.748
7289.387
7295.433
7297.653
7298.032
7299.391
7301.275
7299.46
7293.431
7287.107
7283.83
7283.474
7282.499
7279.293
7275.025
7270.317
7265.406
7260.35
7255.199
7250.192
7245.76
7242.355
7240.405
7240.303
7242.324
7246.552
7253.02
7261.497
7271.771
7283.492
7296.289
7309.804
7323.693
7337.641
7351.381
7364.691
7377.386
7389.318
7400.398
7410.593
7419.872
7428.206
7435.629
7442.187
7447.823
7452.51
7456.309
7459.281
7461.481
7462.958
7463.763
7463.94
7463.533
7462.582
7461.121
7459.185
7456.801
7453.994
7450.788
7447.206
7443.279
7439.048
7434.59
7429.988
7425.459
7421.229
7417.361
7414.275
7412.343
7410.603
4264.281
4221.182
4178.855
4134.151
4085.614
4033.3
3984.244
3934.995
3886.32
3838.22
3791.664
3747.932
3705.876
3667.553
3634.365
3606.058
3583.651
3573.5
3572.346
3575.923
3580.43
3591.156
3614.225
3652.804
3707.917
3778.788
3865.964
3970.602
4091.584
4228.237
4379.519
4544.21
4721.189
4908.964
5105.562
5308.779
5516.418
5726.224
5936.701
6144.406
6344.595
6534.295
6703.007
6867.351
7011.595
7134.589
7234.021
7307.173
7352.469
7369.423
7358.406
7320.651
7257.14
7169.072
7058.839
6929.688
6785.147
6628.739
6463.84
6293.526
6120.246
5945.906
5772.544
5601.737
5434.343
5271.037
5112.655
4960.775
4816.47
4680.186
4552.462
4433.327
4322.482
4219.348
4123.172
4033.161
3948.972
3869.84
3796.376
3728.995
3668.773
3615.833
3567.659
3522.802
3481.232
3442.769
3406.877
3373.117
3341.569
3312.456
3286.007
3262.388
3241.489
3222.741
3205.234
3188.227
3171.331
3154.565
3138.306
3123.296
3109.038
3096.015
3086.09
3077.822
3069.636
3060.875
3051.293
3041.05
3030.674
3021.08
3012.503
3006.056
3001.127
2996.367
2990.911
2984.384
2976.975
2968.981
2960.912
2954.77
2950.559
2948.272
2948.462
2948.979
2949.227
2949.059
2948.539
2948.065
2948.621
2951.592
2958.947
2969.815
2980.907
2992.064
3004.348
3015.039
3022.569
3025.304
3022.644
3017.022
3011.81
3007.353
2998.829
2985.454
2970.193
2953.507
2936.448
2920.094
2905.467
2892.989
2884.36
2879.361
2876.771
2877.56
2880.786
2885.584
2893.245
2903.963
2916.666
2931.14
2945.757
2957.275
2963.701
2961.855
2949.636
2931.512
2912.876
2899.107
2896.517
2901.493
2908.85
2919.487
2932.694
2946.904
2963.41
2981.437
2997.473
3013.168
3029.795
3048.283
3069.283
3092.637
3117.854
3145.005
3173.847
3203.478
3234.404
3267.426
3303.067
3341.566
3382.877
3426.609
3472.182
3518.936
3566.446
3614.947
3664.979
3716.928
3770.833
3826.524
3883.755
3942.195
4001.506
4061.397
4121.612
4182.003
4242.549
4303.264
4364.127
4425.11
4486.188
4547.324
4608.432
4669.344
4729.834
4789.576
4848.156
4905.075
4959.966
5012.771
5063.659
5112.862
5160.614
5207.16
5252.754
5297.62
5341.922
5385.752
5429.134
5472.032
5514.352
5555.964
5596.729
5636.516
5675.211
5712.704
5748.921
5783.805
5817.294
5849.31
5879.736
5908.399
5935.099
5959.651
5981.922
6001.851
6019.471
6034.982
6048.696
6061.075
6072.552
6083.667
6095.069
6107.065
6119.995
6133.964
6148.879
6164.492
6180.474
6196.439
6212.028
6226.879
6240.726
6253.245
6264.193
6273.184
6279.772
6283.838
6285.123
6282.91
6277.226
6268.259
6256.231
6241.473
6224.56
6206.397
6188.103
6170.92
6156.276
6145.722
6140.674
6142.546
6152.712
6171.478
6198.754
6234.735
6274.357
6313.149
6354.627
6404.47
6461.848
6522.709
6583.421
6638.247
6684.705
6716.282
6722.872
6705.435
6666.919
6618.42
6580.357
6564.413
6566.897
6592.697
6636.566
6690.068
6746.567
6801.764
6853.408
6900.426
6942.731
6980.62
7014.761
7045.721
7073.882
7099.77
7123.224
7144.672
7164.357
7182.266
7198.45
7213.02
7226.07
7237.636
7247.755
7256.445
7263.725
7269.618
7274.174
7277.431
7279.438
7280.282
7280.063
7278.855
7276.71
7273.749
7270.289
7266.487
7262.252
7257.595
7252.805
7248.051
7243.418
7238.915
7234.52
7230.299
7226.302
7222.54
7219.029
7215.784
7212.818
7210.143
7207.774
7205.726
7204.018
7202.668
7201.699
7201.132
7200.985
7201.247
7201.891
7202.962
7204.429
7206.277
7208.476
7210.976
7213.723
7216.664
7219.742
7222.87
7225.978
7228.97
7231.722
7234.156
7236.193
7237.767
7238.827
7239.36
7239.376
7238.893
7237.947
7236.598
7234.94
7233.121
7231.258
7229.444
7227.702
7226.073
7224.589
7223.282
7222.161
7221.186
7220.393
7219.886
7219.603
7219.325
7218.703
7218.275
7218.599
7220.228
7223.735
7229.5
7237.505
7246.349
7254.761
7262.318
7268.955
7274.842
7279.756
7283.089
7284.316
7283.545
7282.643
7282.776
7282.248
7280.081
7277.481
7275.702
7274.68
7272.792
7268.867
7263.447
7257.509
7251.609
7246.391
7242.486
7240.319
7240.166
7242.264
7246.694
7253.323
7262.113
7272.626
7284.607
7297.657
7311.397
7325.469
7339.552
7353.374
7366.719
7379.4
7391.254
7402.192
7412.209
7421.325
7429.471
7436.665
7443
7448.465
7453.022
7456.698
7459.566
7461.684
7463.104
7463.874
7464.042
7463.65
7462.741
7461.352
7459.518
7457.271
7454.645
7451.669
7448.378
7444.813
7441.03
7437.105
7433.132
7429.25
7425.602
7422.197
7419.497
7417.406
7415.052
4690.834
4641.681
4596.569
4552.771
4513.753
4469.154
4429.934
4390.83
4350.852
4309.756
4268.294
4226.379
4182.135
4137.152
4089.165
4034.139
3984.993
3936.113
3887.436
3839.31
3792.112
3746.741
3703.514
3663.253
3626.904
3595.584
3570.045
3552.089
3541.4
3537.155
3539.724
3551.814
3575.691
3613.457
3666.625
3736.449
3822.764
3925.472
4044.462
4179.183
4328.663
4491.638
4666.653
4852.155
5046.475
5247.346
5452.586
5659.549
5865.723
6069.235
6266.821
6455.936
6631.419
6793.194
6935.712
7055.909
7151.33
7219.873
7260.288
7272.366
7256.692
7214.481
7147.201
7056.425
6944.327
6813.818
6668.426
6511.723
6347.214
6178.263
6007.114
5835.974
5666.713
5500.398
5337.764
5179.247
5025.336
4876.864
4735.049
4601.492
4477.418
4363.005
4257.411
4159.442
4068.003
3982.157
3901.483
3825.739
3755.644
3691.657
3634.099
3583.263
3538.005
3496.846
3458.77
3422.923
3388.706
3355.979
3324.99
3296.27
3271.118
3249.325
3230.35
3213.673
3197.72
3181.598
3164.98
3147.808
3130.378
3114.314
3101.568
3090.108
3081.45
3074.968
3067.882
3059.569
3049.712
3038.67
3026.846
3016.262
3008.545
3002.808
2998.939
2995.323
2990.246
2983.173
2974.468
2964.95
2955.351
2947.851
2944.029
2942.86
2943.847
2944.703
2944.478
2943.071
2940.703
2937.916
2935.926
2936.557
2942.308
2953.828
2962.857
2971.282
2980.618
2987.164
2989.957
2988.842
2984.295
2978.438
2976.102
2974.528
2967.781
2958.486
2948.303
2934.534
2918.786
2903.169
2889.507
2878.642
2871.983
2870.009
2871.061
2874.498
2878.905
2883.095
2887.714
2893.247
2900.084
2908.667
2918.303
2926.629
2936.68
2939.689
2932.897
2923.427
2912.375
2902.145
2897.289
2898.296
2904.047
2914.907
2929.477
2945.109
2960.488
2977.169
2992.368
3005.861
3020.253
3037.031
3057.122
3080.014
3104.743
3132.033
3161.425
3189.572
3218.756
3250.687
3286.023
3324.818
3366.746
3411.194
3457.559
3504.94
3552.289
3600.113
3649.64
3701.628
3756.118
3812.771
3871.202
3930.912
3991.5
4052.649
4113.998
4175.352
4236.747
4298.254
4359.899
4421.731
4483.799
4546.089
4608.509
4670.86
4732.863
4794.12
4854.121
4912.336
4968.342
5021.948
5073.225
5122.416
5169.849
5215.898
5260.933
5305.271
5349.143
5392.679
5435.919
5478.826
5521.28
5563.114
5604.162
5644.288
5683.368
5721.296
5758.013
5793.495
5827.711
5860.569
5891.883
5921.369
5948.693
5973.517
5995.561
6014.699
6030.934
6044.497
6055.813
6065.403
6074.063
6082.66
6091.854
6102.403
6114.686
6128.878
6144.847
6162.206
6180.419
6198.904
6217.129
6234.589
6250.897
6265.67
6278.535
6289.109
6296.95
6301.624
6302.763
6299.873
6292.624
6280.98
6265.073
6245.201
6221.96
6196.355
6169.702
6143.466
6119.144
6098.269
6082.522
6073.868
6074.556
6086.104
6108.712
6141.919
6183.586
6232.18
6287.46
6349.384
6416.632
6485.902
6551.835
6608.484
6653.329
6684.478
6700.207
6701.543
6685.449
6661.768
6644.339
6637.247
6641.771
6664.476
6701.743
6747.191
6795.953
6844.527
6890.612
6933.054
6971.385
7005.743
7036.731
7064.694
7090.058
7113.214
7134.525
7154.157
7172.18
7188.619
7203.528
7216.976
7229.037
7239.747
7249.111
7257.123
7263.797
7269.151
7273.235
7276.102
7277.75
7278.29
7277.828
7276.456
7274.3
7271.504
7268.2
7264.473
7260.385
7256.043
7251.622
7247.229
7242.896
7238.63
7234.448
7230.39
7226.484
7222.742
7219.179
7215.809
7212.651
7209.727
7207.067
7204.704
7202.671
7201.006
7199.744
7198.919
7198.586
7198.716
7199.314
7200.421
7201.995
7204.027
7206.468
7209.275
7212.389
7215.732
7219.226
7222.786
7226.283
7229.582
7232.571
7235.154
7237.225
7238.697
7239.505
7239.611
7239.042
7237.883
7236.232
7234.178
7231.846
7229.401
7226.928
7224.472
7222.048
7219.683
7217.383
7215.107
7212.85
7210.753
7208.896
7207.154
7205.434
7203.741
7202.205
7201.327
7201.707
7203.525
7206.68
7211.14
7216.799
7223.301
7230.309
7237.789
7245.357
7252.136
7257.511
7261.771
7265.639
7269.341
7272.38
7274.234
7274.79
7275.26
7276.373
7276.665
7275.497
7273.068
7269.59
7265.565
7261.039
7255.883
7250.875
7246.837
7244.366
7243.91
7245.786
7250.116
7256.802
7265.57
7276.115
7288.15
7301.269
7315.059
7329.148
7343.205
7356.957
7370.198
7382.771
7394.514
7405.321
7415.135
7424.042
7431.898
7438.727
7444.728
7449.833
7454.085
7457.539
7460.237
7462.221
7463.541
7464.241
7464.369
7463.967
7463.078
7461.741
7459.995
7457.875
7455.418
7452.661
7449.643
7446.412
7443.025
7439.55
7436.073
7432.708
7429.535
7426.567
7424.21
7422.134
7419.761
4914.576
4896.995
4850.902
4792.894
4735.035
4683.105
4635.341
4591.483
4550.842
4510.215
4465.352
4426.83
4388.367
4349.183
4308.946
4267.611
4225.023
4180.814
4135.059
4088.488
4042.016
3993.629
3944.841
3895.861
3847.076
3798.765
3751.305
3704.775
3659.971
3618.187
3580.742
3549.666
3525.316
3508.576
3500.491
3501.685
3513.796
3538.31
3576.431
3629.42
3698.058
3782.797
3883.76
4000.846
4133.566
4281.015
4441.985
4615.023
4798.317
4990.193
5188.1
5388.875
5591.215
5792.741
5991.667
6186.114
6371.853
6544.371
6700.487
6837.02
6950.459
7038.2
7098.553
7130.69
7134.833
7112.027
7063.745
6991.661
6897.457
6783.275
6651.615
6505.732
6349.472
6185.984
6019.162
5851.753
5685.587
5522.643
5363.484
5207.592
5055.247
4907.19
4763.878
4626.88
4498.719
4380.85
4273.435
4175.168
4084.31
3999.341
3919.125
3843.216
3771.599
3704.769
3643.561
3589.263
3542.451
3501.436
3464.713
3430.877
3398.348
3366.249
3334.673
3304.197
3275.539
3251.817
3233.304
3216.637
3202.813
3189.042
3173.935
3157.476
3139.846
3121.672
3104.275
3091.402
3083.131
3076.99
3072.093
3066.198
3058.327
3047.947
3035.473
3022.128
3010.365
3002.745
2998.418
2996.689
2994.81
2990.151
2982.136
2971.678
2960.232
2948.774
2938.922
2933.947
2935.325
2938.594
2940.275
2939.604
2936.774
2932.183
2926.26
2920.286
2917.806
2923.095
2935.421
2944.745
2951.725
2958.492
2961.536
2959.893
2954.084
2946.034
2939.038
2938.483
2942.608
2938.105
2932.662
2926.82
2915.223
2899.861
2883.918
2870.614
2861.187
2856.319
2856.636
2862.05
2869.551
2875.454
2878.805
2880.192
2880.305
2881.372
2885.169
2891.49
2900.385
2915.115
2922.894
2920.692
2917.252
2909.765
2900.218
2892.623
2890.323
2895.132
2907.412
2923.837
2942.452
2957.872
2970.951
2985.042
2996.32
3007.617
3022.567
3042.749
3065.803
3089.034
3116.048
3147.149
3173.429
3199.598
3229.588
3264.334
3303.771
3347.244
3393.211
3440.63
3488.543
3535.009
3581.475
3630.164
3682.165
3737.328
3795.072
3855.119
3916.588
3978.848
4041.587
4104.253
4166.619
4228.936
4291.342
4353.791
4416.418
4479.46
4543.03
4607.025
4671.113
4734.953
4798.166
4860.149
4920.184
4977.648
5032.207
5083.882
5132.961
5179.909
5225.277
5269.597
5313.308
5356.719
5399.995
5443.18
5486.228
5528.973
5571.175
5612.615
5653.151
5692.672
5731.046
5768.263
5804.387
5839.46
5873.398
5905.936
5936.646
5965
5990.455
6012.512
6030.859
6045.479
6056.63
6064.824
6070.819
6075.686
6080.682
6087.014
6095.611
6107.036
6121.498
6138.793
6158.355
6179.374
6200.98
6222.435
6243.146
6262.593
6280.256
6295.663
6308.351
6317.799
6323.485
6324.901
6321.413
6312.503
6297.966
6277.82
6252.23
6221.696
6187.298
6150.626
6113.443
6077.372
6043.865
6014.861
5993.254
5982.399
5985.094
6002.359
6034.771
6081.269
6140.202
6209.631
6286.934
6368.485
6449.144
6522.51
6584.099
6634.787
6673.006
6697.258
6709.924
6710.866
6707.391
6707.73
6708.886
6717.354
6738.962
6770.736
6808.411
6849.214
6890.63
6930.662
6968.046
7002.277
7033.462
7061.603
7087.008
7110.024
7130.919
7150.126
7167.712
7183.788
7198.412
7211.645
7223.569
7234.256
7243.745
7252.033
7259.082
7264.887
7269.422
7272.767
7275.044
7276.109
7276.203
7275.413
7273.839
7271.612
7268.842
7265.616
7262.044
7258.234
7254.27
7250.239
7246.21
7242.216
7238.27
7234.374
7230.542
7226.782
7223.099
7219.501
7216.003
7212.633
7209.423
7206.416
7203.671
7201.235
7199.185
7197.574
7196.452
7195.871
7195.84
7196.405
7197.541
7199.229
7201.425
7204.099
7207.243
7210.786
7214.623
7218.644
7222.736
7226.722
7230.468
7233.853
7236.719
7238.914
7240.333
7240.901
7240.575
7239.379
7237.429
7234.912
7232.029
7228.97
7225.893
7222.856
7219.842
7216.829
7213.798
7210.685
7207.209
7203.817
7201.013
7198.108
7194.955
7191.813
7188.765
7185.865
7183.859
7183.969
7185.274
7187.598
7191.762
7196.529
7201.61
7207.561
7214.374
7221.543
7228.481
7235.182
7242.067
7249.139
7255.244
7259.899
7263.809
7266.945
7270.051
7273.436
7275.266
7275.919
7275.863
7274.59
7271.728
7267.775
7263.34
7259.006
7255.452
7253.266
7252.941
7254.86
7259.095
7265.519
7273.934
7284.191
7295.889
7308.649
7322.067
7335.768
7349.423
7362.755
7375.549
7387.653
7398.948
7409.291
7418.833
7427.411
7434.823
7441.304
7446.924
7451.608
7455.508
7458.698
7461.183
7462.996
7464.181
7464.783
7464.846
7464.413
7463.527
7462.228
7460.557
7458.553
7456.253
7453.699
7450.933
7448.003
7444.965
7441.88
7438.819
7435.868
7433.099
7430.547
7428.435
7426.491
7424.399
4899.572
4866.97
4799.679
4750.021
4701.88
4657.318
4615.813
4576.639
4538.973
4502.395
4466.766
4430.226
4392.989
4354.686
4315.272
4274.434
4232.041
4187.936
4141.956
4094.528
4047.021
3998.615
3949.593
3900.144
3850.022
3799.026
3747.805
3697.304
3648.476
3602.811
3562.153
3527.85
3500.663
3481.475
3471.413
3471.471
3482.907
3506.807
3544.4
3596.521
3663.902
3747.074
3846.299
3961.472
4092.147
4237.433
4396.13
4566.668
4746.87
4933.917
5125.62
5320.445
5517.49
5715.104
5909.954
6098.993
6278.308
6443.61
6591.187
6717.942
6820.743
6897.237
6946.119
6967.065
6960.863
6929.128
6873.639
6796.426
6699.068
6583.412
6451.86
6306.792
6152.194
5991.478
5827.602
5664.424
5504.93
5350.342
5200.02
5052.417
4907.442
4766.112
4629.611
4499.52
4378.081
4267.493
4168.421
4078.888
3996.684
3919.831
3846.57
3776.207
3708.803
3645.104
3586.472
3535.917
3494.678
3458.41
3427.162