/*--------------------------------*- C++ -*----------------------------------*\
| =========                 |                                                 |
| \\      /  F ield         | foam-extend: Open Source CFD                    |
|  \\    /   O peration     | Version:     3.1                                |
|   \\  /    A nd           | Web:         http://www.extend-project.de       |
|    \\/     M anipulation  |                                                 |
\*---------------------------------------------------------------------------*/
FoamFile
{
    version     2.0;
    format      ascii;
    class       surfaceScalarField;
    location    "18";
    object      phi;
}
// * * * * * * * * * * * * * * * * * * * * * * * * * * * * * * * * * * * * * //

dimensions      [0 3 -1 0 0 0 0];

internalField   nonuniform List<scalar> 
275122
(
-0.0004103475
0.0004161405
-4.140501e-07
-5.378937e-06
-0.0003675152
0.0003503855
1.409315e-06
1.57204e-05
-0.0003648303
0.0003742976
-3.950915e-07
-9.072242e-06
-0.0004061454
0.0004171355
-4.800377e-07
-1.051007e-05
-0.0004445692
0.0004478432
-5.594179e-07
-2.71454e-06
-0.0004479606
0.0004472991
-4.915783e-07
1.15311e-06
-0.0004434592
0.000441968
-4.585437e-07
1.94977e-06
-0.00043688
0.0004350145
-4.322535e-07
2.297722e-06
-0.0004290902
0.0004270339
-4.101989e-07
2.466512e-06
-0.0004207099
0.0004185535
-3.878859e-07
2.544221e-06
-0.000411964
0.0004097278
-3.640436e-07
2.600286e-06
-0.0004029201
0.0004006207
-3.390215e-07
2.638443e-06
-0.0003936475
0.0003912982
-3.163325e-07
2.665605e-06
-0.0003842327
0.0003818731
-3.235129e-07
2.683179e-06
-0.0003747349
0.0003723404
-2.960598e-07
2.690574e-06
-0.0003651672
0.0003627676
-2.727867e-07
2.672413e-06
-0.0003555987
0.0003532211
-2.527231e-07
2.630275e-06
-0.0003462027
0.0003438912
-2.161829e-07
2.527699e-06
-0.00033744
0.0003356023
-2.64759e-07
2.102442e-06
-0.0003317671
0.0003321576
-6.778129e-07
2.872612e-07
-0.0003681544
0.0003825798
-1.328755e-06
-1.309664e-05
-0.0003863816
0.0003861743
-2.908769e-07
4.981001e-07
-0.0003897058
0.0003918145
-1.629809e-07
-1.945795e-06
-0.000434208
0.0004498216
3.381958e-07
-1.595181e-05
-0.0004518787
0.0004510659
6.416246e-07
1.711548e-07
-0.0004532938
0.0004539885
-2.92943e-07
-4.018153e-07
-0.0004538392
0.0004527633
-2.664688e-07
1.342324e-06
-0.0004480115
0.0004440385
-2.259846e-07
4.198928e-06
-0.0004180199
0.0003906569
-3.011305e-07
2.766416e-05
-0.0001810996
0.0001858652
3.799704e-09
-4.76936e-06
-0.0002681772
0.0002819042
-7.151926e-08
-1.365544e-05
-0.0003211046
0.0003341081
7.773832e-09
-1.301129e-05
-0.0003738194
0.0003872674
8.813319e-09
-1.34568e-05
-0.0004280092
0.0004417624
1.002561e-08
-1.376323e-05
-0.0004837502
0.0004978801
1.165339e-08
-1.414153e-05
-0.0005411618
0.0005557504
1.122712e-08
-1.459986e-05
-0.0005999804
0.0006148752
1.211883e-08
-1.490685e-05
-0.0006598126
0.0006748822
1.180658e-08
-1.508139e-05
-0.0007202167
0.0007354116
1.203919e-08
-1.520687e-05
-0.0007805393
0.0007969613
2.356023e-07
-1.665762e-05
1.314239e-05
-0.0005411201
0.000543242
8.672752e-10
-1.526507e-05
1.34271e-05
-0.0005496497
0.000551629
-5.409571e-10
-1.540589e-05
1.367923e-05
-0.0005572061
0.0005589928
-1.77964e-09
-1.546419e-05
1.404182e-05
-0.0005639791
0.0005655128
-1.394947e-09
-1.557411e-05
1.444709e-05
-0.0005696868
0.0005709323
-1.458556e-09
-1.569114e-05
1.476177e-05
-0.000574406
0.0005754411
-1.276809e-09
-1.579563e-05
1.499208e-05
-0.0005783906
0.0005792838
-1.314692e-09
-1.58839e-05
1.513701e-05
-0.0005818175
0.0005826487
-1.047312e-09
-1.596718e-05
1.563342e-05
-0.0005849102
0.0005846697
-7.429561e-10
-1.539218e-05
1.392942e-05
-0.002381143
0.002390398
1.988261e-11
-6.541754e-05
1.419838e-05
1.388976e-05
1.414507e-05
1.479161e-05
-0.002397543
0.002403473
-8.789225e-11
-6.614038e-05
1.534537e-05
1.476318e-05
1.53105e-05
1.518192e-05
-0.002408336
0.00241285
-2.432979e-11
-6.574086e-05
1.546363e-05
1.514902e-05
1.543185e-05
1.531841e-05
-0.002417552
0.002422156
-1.710355e-10
-6.610809e-05
1.545983e-05
1.529203e-05
1.543381e-05
1.537528e-05
-0.002426622
0.002431042
-2.540991e-10
-6.630064e-05
1.559294e-05
1.53462e-05
1.556649e-05
1.563206e-05
-0.002435122
0.002439078
-3.086728e-10
-6.666909e-05
1.575207e-05
1.560418e-05
1.572547e-05
1.572977e-05
-0.002442982
0.002446569
-3.413547e-10
-6.659125e-05
1.579766e-05
1.570395e-05
1.577259e-05
1.575503e-05
-0.002450231
0.002453665
-3.220047e-10
-6.638103e-05
1.574025e-05
1.573339e-05
1.571919e-05
1.570799e-05
-0.002457602
0.0024613
-4.957987e-10
-6.645981e-05
1.570373e-05
1.5676e-05
1.567461e-05
1.517355e-05
-0.00246119
0.002465319
-1.981617e-10
-6.501764e-05
1.529328e-05
1.514272e-05
1.527943e-05
1.593399e-05
-0.002469665
0.002472545
-1.003144e-11
-6.686305e-05
1.6067e-05
1.592559e-05
1.605601e-05
1.59097e-05
-0.002474733
0.00247669
1.245564e-10
-6.532715e-05
1.578183e-05
1.590307e-05
1.57759e-05
1.581151e-05
-0.002478768
0.002480896
1.143502e-10
-6.516417e-05
1.571355e-05
1.580407e-05
1.570756e-05
1.58196e-05
-0.00248298
0.002484957
9.192308e-11
-6.512118e-05
1.57588e-05
1.581114e-05
1.575475e-05
1.585623e-05
-0.002486893
0.002488789
5.032709e-11
-6.520368e-05
1.58068e-05
1.584168e-05
1.580231e-05
1.593455e-05
-0.002490616
0.002492412
2.380956e-11
-6.536662e-05
1.588258e-05
1.588854e-05
1.586564e-05
1.622839e-05
-0.002494144
0.002496112
6.566842e-12
-6.645058e-05
1.619933e-05
1.600991e-05
1.60445e-05
1.759334e-05
-0.002497436
0.002496093
-1.429878e-12
-6.764284e-05
1.789383e-05
1.662656e-05
1.687268e-05
2.21913e-05
-0.002490313
0.002475856
6.384916e-13
-6.987004e-05
2.360896e-05
1.953838e-05
1.898806e-05
3.00248e-05
-0.002456733
0.002479595
6.883818e-12
-5.288691e-05
2.197655e-05
-0.002502036
0.002505342
1.12538e-11
-2.528268e-05
4.288352e-05
-0.002498625
0.00249572
1.339352e-11
-3.997933e-05
3.735742e-05
-0.00249385
0.002492577
7.551471e-12
-3.608462e-05
2.124934e-05
-0.002490732
0.002492923
-9.655099e-13
-2.344034e-05
5.615029e-06
-0.002498246
0.002503743
-1.027562e-11
-1.111183e-05
8.56005e-07
-0.002508164
0.002512058
-1.800827e-11
-4.749762e-06
-2.152706e-06
-0.002515904
0.002519331
-2.454797e-11
-1.274008e-06
-4.05841e-06
-0.00252244
0.002525171
-3.049233e-11
1.327015e-06
-5.620266e-06
-0.0025277
0.002529854
-3.602601e-11
3.465889e-06
-6.762303e-06
-0.002531825
0.002533511
-4.162387e-11
5.0765e-06
-7.566922e-06
-0.00253506
0.002536422
-4.154379e-11
6.204706e-06
-8.119592e-06
-0.002537689
0.002538852
-6.601132e-12
6.957149e-06
-8.463637e-06
-0.002539951
0.002541008
5.996609e-11
7.406278e-06
-8.654662e-06
-0.002542024
0.00254306
2.026156e-10
7.619002e-06
-8.643578e-06
-0.002544051
0.002545107
4.061581e-10
7.587938e-06
-8.361728e-06
-0.002546137
0.002547291
3.27175e-10
7.208239e-06
-7.400257e-06
-0.00254843
0.002549657
1.490471e-10
6.172921e-06
-5.088983e-06
-0.00255078
0.002551916
5.751557e-11
3.952839e-06
7.650959e-07
-0.002552886
0.002552653
2.259675e-11
-5.320242e-07
1.058734e-05
-0.00254731
0.002542729
1.230379e-11
-6.005843e-06
4.157533e-06
-0.002544179
0.002545873
2.934298e-12
-5.851562e-06
1.61656e-05
-0.002546053
0.002543271
2.598877e-12
-1.338304e-05
4.10412e-05
-0.002526764
0.002508724
3.536416e-12
-2.300134e-05
1.07269e-05
-0.002499792
0.002498926
2.064955e-12
-9.860158e-06
-4.551787e-06
-0.002498459
0.002495001
-2.685133e-12
8.009465e-06
-1.668755e-05
-0.002489318
0.002485842
-4.847844e-12
2.016358e-05
-3.810606e-05
-0.002483428
0.002484098
-5.254044e-12
3.743667e-05
-9.15349e-05
-0.002485722
0.002514637
-5.736786e-12
6.261956e-05
-2.032294e-05
-0.002549488
0.002548159
-1.027589e-11
6.790975e-05
-1.318791e-05
-2.017552e-05
-1.289405e-05
-7.249903e-06
-0.00253777
0.002534876
-1.444813e-11
3.194322e-05
-7.645181e-06
-6.900707e-06
-7.253369e-06
-6.79829e-06
-0.002535581
0.002534154
-1.896277e-11
2.738811e-05
-6.466683e-06
-6.51075e-06
-6.184617e-06
-5.161887e-06
-0.002530253
0.002526022
-2.125586e-11
2.39112e-05
-4.912352e-06
-4.920991e-06
-4.684621e-06
-4.57119e-06
-0.002522211
0.002518939
-2.208307e-11
2.110128e-05
-4.540504e-06
-4.37178e-06
-4.346015e-06
-4.371721e-06
-0.002516016
0.002513237
-2.088535e-11
1.983121e-05
-4.328413e-06
-4.19629e-06
-4.156346e-06
-4.156407e-06
-0.002510463
0.002507769
-1.824549e-11
1.892473e-05
-4.112347e-06
-4.000783e-06
-3.961646e-06
-4.024926e-06
-0.00250512
0.002502547
-1.609432e-11
1.836517e-05
-4.005508e-06
-3.888795e-06
-3.872937e-06
-3.975547e-06
-0.002499981
0.00249742
-1.557534e-11
1.820924e-05
-3.967195e-06
-3.855525e-06
-3.849837e-06
-3.965486e-06
-0.002494823
0.002492178
-1.687441e-11
1.829148e-05
-3.962366e-06
-3.85961e-06
-3.858811e-06
-3.981511e-06
-0.002489484
0.002486711
-1.953991e-11
1.851792e-05
-3.98284e-06
-3.888495e-06
-3.891935e-06
-4.014894e-06
-0.002483882
0.00248096
-2.242881e-11
1.882757e-05
-4.018879e-06
-3.933248e-06
-3.93895e-06
-4.055618e-06
-0.002477982
0.002474918
-2.375415e-11
1.915528e-05
-4.060829e-06
-3.983877e-06
-3.990454e-06
-4.097684e-06
-0.002471805
0.002468619
-2.260544e-11
1.946337e-05
-4.103492e-06
-4.034474e-06
-4.041398e-06
-4.139455e-06
-0.002465393
0.002462101
-1.95615e-11
1.975171e-05
-4.145829e-06
-4.083588e-06
-4.090885e-06
-4.183429e-06
-0.002458773
0.002455374
-1.58543e-11
2.004926e-05
-4.19098e-06
-4.134094e-06
-4.142362e-06
-4.234748e-06
-0.002451934
0.002448409
-1.296438e-11
2.039548e-05
-4.244125e-06
-4.190868e-06
-4.200759e-06
-4.29754e-06
-0.002444829
0.002441143
-1.20207e-11
2.082101e-05
-4.309116e-06
-4.258164e-06
-4.270075e-06
-4.373609e-06
-0.002437386
0.002433498
-1.295687e-11
2.133857e-05
-4.387375e-06
-4.337986e-06
-4.351961e-06
-4.462072e-06
-0.002429523
0.002425396
-1.428991e-11
2.194175e-05
-4.477615e-06
-4.429713e-06
-4.445388e-06
-4.559317e-06
-0.002421168
0.002416775
-1.471164e-11
2.26047e-05
-4.575872e-06
-4.530055e-06
-4.546734e-06
-4.660171e-06
-0.002412274
0.002407605
-1.33989e-11
2.328954e-05
-4.676855e-06
-4.63349e-06
-4.650145e-06
-4.759883e-06
-0.002402826
0.002397884
-1.037e-11
2.396577e-05
-4.776163e-06
-4.735316e-06
-4.751869e-06
-4.855545e-06
-0.002392833
0.002387621
-6.199593e-12
2.462208e-05
-4.871102e-06
-4.833756e-06
-4.849671e-06
-4.946831e-06
-0.0023823
0.002376814
-1.515417e-12
2.526515e-05
-4.96157e-06
-4.927989e-06
-4.943119e-06
-5.033709e-06
0.002365438
3.25568e-12
2.590729e-05
-5.047383e-06
-5.018007e-06
-5.032146e-06
-0.002371214
-5.1153e-06
-0.002359536
0.002353445
7.017146e-12
2.65537e-05
-5.127568e-06
-5.103144e-06
-5.116062e-06
-5.190319e-06
-0.002347216
0.002340784
9.125406e-12
2.71976e-05
-5.200779e-06
-5.181786e-06
-5.192928e-06
-5.256713e-06
-0.002334206
0.002327421
1.059813e-11
2.781873e-05
-5.265301e-06
-5.25141e-06
-5.260553e-06
-5.312802e-06
-0.002320489
0.002313355
1.145541e-11
2.839311e-05
-5.319371e-06
-5.310251e-06
-5.317305e-06
-5.356869e-06
-0.002306079
0.002298618
1.085386e-11
2.889727e-05
-5.361348e-06
-5.356513e-06
-5.361366e-06
-5.388075e-06
-0.002291025
0.002283269
8.601904e-12
2.931668e-05
-5.390568e-06
-5.389307e-06
-5.392055e-06
-5.406902e-06
-0.002275394
0.002267378
5.313561e-12
2.964995e-05
-5.407675e-06
-5.409194e-06
-5.410125e-06
-5.415103e-06
-0.002259258
0.002251016
1.029735e-12
2.990646e-05
-5.41453e-06
-5.417994e-06
-5.417482e-06
-5.414999e-06
-0.002242683
0.002234247
-2.856636e-12
3.009847e-05
-5.413467e-06
-5.418009e-06
-5.41643e-06
-5.408657e-06
-0.002225731
0.002217133
-7.281104e-12
3.023369e-05
-5.406503e-06
-5.411262e-06
-5.408933e-06
-5.397711e-06
-0.002208466
0.00219974
-1.141717e-11
3.031518e-05
-5.395289e-06
-5.399395e-06
-5.396682e-06
-5.383925e-06
-0.002190961
0.002182146
-1.452069e-11
3.034644e-05
-5.381653e-06
-5.3843e-06
-5.38165e-06
-5.369551e-06
-0.002173293
0.002164427
-1.593739e-11
3.033823e-05
-5.367877e-06
-5.368489e-06
-5.366413e-06
-5.356995e-06
-0.002155534
0.002146649
-1.541723e-11
3.030706e-05
-5.356247e-06
-5.354697e-06
-5.353605e-06
-5.347521e-06
-0.002137745
0.002128859
-1.312676e-11
3.026974e-05
-5.347638e-06
-5.344518e-06
-5.344423e-06
-5.340014e-06
-0.002119956
0.002111077
-9.342845e-12
3.023406e-05
-5.340235e-06
-5.337235e-06
-5.337455e-06
-5.330017e-06
-0.002102177
0.002093297
-4.217199e-12
3.019539e-05
-5.328775e-06
-5.328799e-06
-5.327925e-06
-5.310818e-06
-0.002084387
0.00207549
8.588161e-13
3.01329e-05
-5.305597e-06
-5.312083e-06
-5.307344e-06
-5.273712e-06
-0.002066551
0.002057618
7.294184e-12
3.001166e-05
-5.261164e-06
-5.277596e-06
-5.26538e-06
-5.210901e-06
-0.002048635
0.002039654
1.180898e-11
2.978679e-05
-5.185485e-06
-5.217226e-06
-5.191823e-06
-5.116966e-06
-0.002030628
0.002021611
1.379354e-11
2.940399e-05
-5.068647e-06
-5.125215e-06
-5.076066e-06
-4.990197e-06
-0.002012587
0.00200361
1.274833e-11
2.876649e-05
-4.896186e-06
-4.999804e-06
-4.903571e-06
-4.783422e-06
-0.001994668
0.001985662
8.901781e-12
2.773981e-05
-4.574949e-06
-4.793678e-06
-4.581557e-06
-4.41993e-06
-0.001976502
0.001966489
3.016861e-12
2.614015e-05
-3.633306e-06
-4.431756e-06
-3.642375e-06
-3.569218e-06
-0.001956304
0.001946225
-1.659846e-12
2.438984e-05
-3.58959e-06
-3.568871e-06
-3.583858e-06
-4.466351e-06
-0.001938401
0.001930137
-7.728688e-12
2.588835e-05
-4.349951e-06
-4.464318e-06
-4.343329e-06
-3.923742e-06
-0.00192128
0.001912758
-7.8951e-12
2.409932e-05
-3.863921e-06
-3.924862e-06
-3.864735e-06
-3.764176e-06
-0.001904584
0.00189668
-1.1419e-11
2.290174e-05
-3.735963e-06
-3.762288e-06
-3.735123e-06
-3.525184e-06
-0.001888948
0.001881566
-1.865433e-11
2.140849e-05
-3.488854e-06
-3.524247e-06
-3.487568e-06
-3.314074e-06
-0.001874417
0.001867589
-1.761724e-11
2.000044e-05
-3.273251e-06
-3.312935e-06
-3.272216e-06
-3.096716e-06
-0.001860991
0.001854788
-1.756253e-11
1.850858e-05
-3.057475e-06
-3.095e-06
-3.056067e-06
-2.919322e-06
-0.001848877
0.00184334
-1.304246e-11
1.716685e-05
-2.898091e-06
-2.91708e-06
-2.89563e-06
-2.762674e-06
-0.001838023
0.001833092
-8.838228e-12
1.592022e-05
-2.734801e-06
-2.760111e-06
-2.732076e-06
-2.649172e-06
-0.001828413
0.001824071
-3.45276e-12
1.490125e-05
-2.633095e-06
-2.646148e-06
-2.630115e-06
-2.562352e-06
-0.001819929
0.001816106
1.752201e-12
1.404329e-05
-2.55122e-06
-2.558941e-06
-2.547824e-06
-2.511879e-06
-0.001812463
0.001809084
6.310312e-12
1.340822e-05
-2.506538e-06
-2.508361e-06
-2.503033e-06
-2.492118e-06
-0.001805854
0.001802842
7.89982e-12
1.297366e-05
-2.492148e-06
-2.48856e-06
-2.488569e-06
-2.500264e-06
-0.001799942
0.001797209
7.207392e-12
1.273444e-05
-2.504323e-06
-2.496639e-06
-2.500633e-06
-2.533059e-06
-0.001794558
0.001792025
1.059531e-11
1.267264e-05
-2.540737e-06
-2.529181e-06
-2.536877e-06
-2.583483e-06
-0.001789542
0.00178713
2.044641e-11
1.275671e-05
-2.592671e-06
-2.579649e-06
-2.588939e-06
-2.64172e-06
-0.001784738
0.001782373
2.959618e-11
1.294262e-05
-2.650853e-06
-2.638178e-06
-2.647418e-06
-2.696329e-06
-0.001779998
0.001777613
3.17355e-11
1.317855e-05
-2.703116e-06
-2.693266e-06
-2.700207e-06
-2.734355e-06
-0.001775193
0.001772734
2.952094e-11
1.339654e-05
-2.736904e-06
-2.732013e-06
-2.73466e-06
-2.743559e-06
-0.001770224
0.001767659
2.915618e-11
1.352872e-05
-2.74003e-06
-2.741982e-06
-2.738514e-06
-2.71523e-06
-0.001765036
0.001762359
3.033971e-11
1.351414e-05
-2.704605e-06
-2.714328e-06
-2.703738e-06
-2.645219e-06
-0.001759632
0.001756872
3.075086e-11
1.33051e-05
-2.627718e-06
-2.644885e-06
-2.62747e-06
-2.535524e-06
-0.001754084
0.001751304
3.107622e-11
1.287604e-05
-2.512402e-06
-2.535479e-06
-2.512465e-06
-2.394389e-06
-0.001748532
0.00174582
3.067966e-11
1.223653e-05
-2.368131e-06
-2.394532e-06
-2.368178e-06
-2.230838e-06
-0.001743167
0.001740638
2.302592e-11
1.139515e-05
-2.202561e-06
-2.2308e-06
-2.20207e-06
-2.061664e-06
0.001736011
1.556771e-11
1.040427e-05
-0.001738223
-2.034335e-06
-2.06144e-06
-2.034241e-06
-1.881758e-06
-0.001733967
0.001732154
4.259223e-12
9.282437e-06
-1.850842e-06
-1.883432e-06
-1.852716e-06
-1.718907e-06
-0.001730543
0.001729228
-3.316643e-12
8.15436e-06
-1.70072e-06
-1.719318e-06
-1.700729e-06
-1.586495e-06
-0.001728149
0.001727378
-9.804246e-12
7.089222e-06
-1.574869e-06
-1.584234e-06
-1.573073e-06
-1.495133e-06
-0.0017269
0.001726726
-1.678091e-11
6.128153e-06
-1.48274e-06
-1.494435e-06
-1.481996e-06
-1.423255e-06
-0.001726806
0.001727169
-2.078064e-11
5.313063e-06
-1.415237e-06
-1.422412e-06
-1.4143e-06
-1.381959e-06
-0.001727767
0.001728612
-2.156919e-11
4.673365e-06
-1.378182e-06
-1.381046e-06
-1.377232e-06
-1.376232e-06
-0.001729656
0.001730883
-1.903726e-11
4.277801e-06
-1.377342e-06
-1.375212e-06
-1.37627e-06
-1.403581e-06
-0.00173225
0.001733715
-1.35843e-11
4.157675e-06
-1.40891e-06
-1.40258e-06
-1.407722e-06
-1.472651e-06
-0.001735257
0.001736818
-6.067282e-12
4.339263e-06
-1.478648e-06
-1.471454e-06
-1.476836e-06
-1.521969e-06
-0.001738319
0.001739735
2.981437e-12
4.722243e-06
-1.546866e-06
-1.521842e-06
-1.546879e-06
-1.681799e-06
-0.001741139
0.001742432
1.621119e-11
5.462785e-06
-1.697135e-06
-1.680904e-06
-1.696158e-06
-1.838255e-06
-0.001743586
0.001744545
2.799271e-11
6.430324e-06
-1.857287e-06
-1.837112e-06
-1.856124e-06
-2.004753e-06
-0.001745303
0.001745809
3.776597e-11
7.550835e-06
-2.024794e-06
-2.003556e-06
-2.023547e-06
-2.168995e-06
-0.001746064
0.001746031
4.517306e-11
8.744208e-06
-2.188027e-06
-2.167834e-06
-2.186627e-06
-2.3178e-06
-0.001745719
0.00174511
5.014063e-11
9.908452e-06
-2.333435e-06
-2.316234e-06
-2.332025e-06
-2.441364e-06
-0.00174421
0.001743034
5.254415e-11
1.095974e-05
-2.452643e-06
-2.439385e-06
-2.451065e-06
-2.531719e-06
-0.001741588
0.001739923
5.296131e-11
1.180198e-05
-2.538498e-06
-2.530033e-06
-2.536425e-06
-2.583947e-06
-0.001738019
0.001735955
5.173468e-11
1.239824e-05
-2.585364e-06
-2.581775e-06
-2.583186e-06
-2.591566e-06
-0.001733708
0.001731393
4.828839e-11
1.266918e-05
-2.588153e-06
-2.588694e-06
-2.585244e-06
-2.549046e-06
-0.001728956
0.001726548
4.300288e-11
1.258685e-05
-2.543333e-06
-2.546607e-06
-2.539903e-06
-2.456253e-06
-0.001724094
0.0017218
3.728591e-11
1.209691e-05
-2.446533e-06
-2.455436e-06
-2.444541e-06
-2.304021e-06
-0.001719527
0.001717574
2.926591e-11
1.114141e-05
-2.288699e-06
-2.30478e-06
-2.290176e-06
-2.027237e-06
-0.00171569
0.001714111
1.888874e-11
9.594357e-06
-1.975867e-06
-2.028883e-06
-1.983646e-06
-1.36843e-06
-0.001712247
0.001710284
5.256663e-12
6.589675e-06
-9.296179e-07
-1.387149e-06
-9.410423e-07
-2.306104e-07
-0.0004252123
0.0004236417
3.206071e-10
1.800831e-06
-9.170934e-07
-0.000420736
0.0004199247
4.263345e-09
1.724089e-06
-9.743143e-07
-0.0004183413
0.0004180383
3.021588e-09
1.274316e-06
-8.771687e-07
-0.0004176317
0.000417643
1.017636e-10
8.657074e-07
-7.777713e-07
-0.0004180546
0.0004183214
-7.922252e-10
5.118175e-07
-7.001121e-07
-0.0004194334
0.000419907
-6.561677e-10
2.27186e-07
-6.322808e-07
-0.0004215876
0.0004222308
-4.81741e-10
-1.041031e-08
-5.858591e-07
-0.0004243816
0.0004251642
-4.005033e-10
-1.96305e-07
-5.632292e-07
-0.0004276705
0.0004285548
-3.606045e-10
-3.207473e-07
-5.766737e-07
-0.0004313164
0.0004322674
-3.310097e-10
-3.739189e-07
-6.366195e-07
-0.0004351804
0.0004361623
-2.940215e-10
-3.449756e-07
-7.496168e-07
-0.0004391155
0.0004400889
-2.329712e-10
-2.235202e-07
-9.192736e-07
-0.0004429576
0.0004438845
-1.62668e-10
-7.453243e-09
-1.15427e-06
-0.0004465277
0.0004473427
-1.135042e-10
3.393759e-07
-1.453906e-06
-0.0004495983
0.0004502502
-7.577963e-11
8.019976e-07
-1.830988e-06
-0.0004519256
0.0004523526
-4.317722e-11
1.403986e-06
-2.191821e-06
-0.0004532103
0.0004532895
-6.727469e-11
2.112694e-06
-2.776e-06
-0.0004529857
0.0004526444
-5.907386e-11
3.117353e-06
-3.527529e-06
-0.0004508875
0.0004499591
-1.124728e-10
4.456042e-06
-4.619125e-06
-0.0004460745
0.0004443209
2.366552e-11
6.372645e-06
-6.311944e-06
-0.0004373982
0.0004342306
1.297131e-09
9.478219e-06
-1.029764e-05
-0.0004221001
0.0004169047
9.868072e-10
1.549203e-05
-2.885384e-05
-0.0003929137
0.0003879455
1.851389e-08
3.380354e-05
-1.658014e-05
-0.0003620136
0.0003448453
-7.013672e-08
3.381859e-05
-1.322565e-06
-0.0002906111
0.0002774482
2.652745e-08
1.445899e-05
-5.0466e-07
-0.0002536197
0.0002488189
3.286187e-08
5.272629e-06
-7.39653e-07
-0.0002381051
0.0002359786
-1.18386e-08
2.878017e-06
7.528297e-07
-0.0002339531
0.0002340633
-1.301794e-08
-8.49944e-07
1.989266e-07
-0.0002354611
0.0002360069
-5.571315e-09
-7.391442e-07
-6.360553e-07
-0.0002369707
0.0002368938
-1.754687e-09
7.14734e-07
-1.454514e-06
-0.0002355007
0.0002345534
-9.469559e-10
2.402764e-06
-2.315427e-06
-0.0002300856
0.0002279549
-9.691826e-10
4.447073e-06
-2.965124e-06
-0.0002201076
0.0002170614
-1.070436e-09
6.012366e-06
-3.086326e-06
-0.000207456
0.0002042383
-1.01365e-09
6.305034e-06
-2.643587e-06
-0.0001951677
0.0001924195
-7.850752e-10
5.392507e-06
-1.275665e-06
-0.0001853206
0.0001831147
-4.829479e-10
3.482095e-06
-2.494499e-07
-0.0001776187
0.0001762789
-2.425495e-10
1.589451e-06
3.510906e-07
-0.0001733031
0.0001727574
-4.857457e-11
1.946835e-07
8.746566e-07
-0.00017209
0.0001721907
8.444472e-11
-9.754408e-07
1.28772e-06
-0.0001732219
0.0001738196
1.813242e-10
-1.88554e-06
1.609619e-06
-0.0001761323
0.000177078
2.413648e-10
-2.555502e-06
1.837661e-06
-0.0001802603
0.0001814318
2.819725e-10
-3.00944e-06
1.993979e-06
-0.000185146
0.0001864458
3.074841e-10
-3.294093e-06
2.095659e-06
-0.0001904436
0.0001918044
3.1919e-10
-3.456743e-06
2.160334e-06
-0.0001959207
0.0001973007
3.189099e-10
-3.540661e-06
2.202702e-06
-0.0002014374
0.0002028132
3.164709e-10
-3.578797e-06
2.232654e-06
-0.0002069184
0.0002082782
3.136287e-10
-3.59283e-06
2.255898e-06
-0.0002123272
0.0002136662
3.068665e-10
-3.595117e-06
2.275057e-06
-0.0002176487
0.0002189643
2.984178e-10
-3.590939e-06
2.289956e-06
-0.0002228735
0.0002241628
2.861732e-10
-3.579545e-06
2.298195e-06
-0.0002279865
0.000229244
2.759326e-10
-3.555974e-06
2.300189e-06
-0.0002329643
0.0002341848
2.672661e-10
-3.521012e-06
2.29933e-06
-0.0002377915
0.0002389738
2.543713e-10
-3.481924e-06
2.297283e-06
-0.0002424666
0.0002436112
2.418956e-10
-3.442183e-06
2.293528e-06
-0.0002469911
0.000248098
2.336439e-10
-3.400717e-06
2.287523e-06
-0.0002513641
0.0002524328
2.238766e-10
-3.35645e-06
2.278978e-06
-0.0002555829
0.0002566122
2.128463e-10
-3.30849e-06
2.267017e-06
-0.0002596426
0.0002606308
2.067379e-10
-3.255481e-06
2.250911e-06
-0.0002635355
0.0002644804
2.010277e-10
-3.196032e-06
2.230175e-06
-0.0002672512
0.0002681497
1.901253e-10
-3.128904e-06
2.203942e-06
-0.0002707767
0.0002716256
1.688782e-10
-3.052963e-06
2.172329e-06
-0.0002740981
0.0002748936
1.484313e-10
-2.967971e-06
2.135291e-06
-0.0002772009
0.0002779397
1.358418e-10
-2.874235e-06
2.094167e-06
-0.0002800716
0.0002807507
1.204895e-10
-2.773429e-06
2.05118e-06
-0.0002826977
0.0002833142
1.14369e-10
-2.667736e-06
2.004149e-06
-0.0002850696
0.0002856234
1.161502e-10
-2.558066e-06
1.955957e-06
-0.0002871904
0.0002876831
7.810168e-11
-2.448753e-06
1.914348e-06
-0.0002890626
0.0002894944
5.720034e-11
-2.346213e-06
1.855862e-06
-0.0002906802
0.0002910737
4.617425e-12
-2.249419e-06
1.844366e-06
-0.0002922604
0.0002925545
2.486827e-10
-2.13873e-06
2.375227e-06
-0.000291042
0.001198235
-4.748226e-11
-9.199135e-06
2.958794e-07
2.381568e-06
2.772184e-07
-0.0002910459
-0.0003061381
-0.00030614
1.093577e-06
-0.001204535
0.001207171
-3.781038e-11
-8.005784e-06
1.614259e-06
1.069708e-06
1.592108e-06
1.388332e-06
-0.001209063
0.001211053
-2.575986e-11
-7.720228e-06
1.49415e-06
1.370383e-06
1.477338e-06
1.466135e-06
-0.001213376
0.001215526
-2.448357e-11
-8.139571e-06
1.543823e-06
1.450721e-06
1.5289e-06
1.56011e-06
-0.001217518
0.001219257
-3.590586e-11
-8.068006e-06
1.618206e-06
1.546151e-06
1.60464e-06
1.609645e-06
-0.001220924
0.001222527
-4.735272e-11
-8.081105e-06
1.642519e-06
1.596876e-06
1.629987e-06
1.646404e-06
-0.001224143
0.001225745
-4.576531e-11
-8.210708e-06
1.670123e-06
1.63302e-06
1.658671e-06
1.714182e-06
-0.00122736
0.001229009
-3.106027e-11
-8.512709e-06
1.728607e-06
1.702816e-06
1.718287e-06
1.769464e-06
-0.001230724
0.001232493
-1.928947e-11
-8.851268e-06
1.781768e-06
1.759251e-06
1.771937e-06
1.832249e-06
-0.00123431
0.001236206
-1.715689e-11
-9.228781e-06
1.842738e-06
1.8234e-06
1.834112e-06
1.894047e-06
-0.001238159
0.001240209
-1.926978e-11
-9.628555e-06
1.902692e-06
1.886499e-06
1.895363e-06
1.954549e-06
-0.00124232
0.001244544
-1.878798e-11
-1.004367e-05
1.961913e-06
1.948021e-06
1.955474e-06
2.010002e-06
-0.001246836
0.00124925
-1.289711e-11
-1.045691e-05
2.017065e-06
2.004278e-06
2.011548e-06
2.061414e-06
-0.001251737
0.001254348
-3.71992e-12
-1.085962e-05
2.067831e-06
2.056465e-06
2.063006e-06
2.109677e-06
-0.00125703
0.001259831
4.089092e-12
-1.124233e-05
2.115803e-06
2.1053e-06
2.111523e-06
2.154497e-06
-0.001262697
0.001265673
7.710254e-12
-1.159694e-05
2.160145e-06
2.15056e-06
2.156292e-06
2.194447e-06
-0.001268708
0.00127184
7.584726e-12
-1.19124e-05
2.19961e-06
2.190845e-06
2.196053e-06
2.228647e-06
-0.001275023
0.001278287
5.979105e-12
-1.218059e-05
2.233211e-06
2.225285e-06
2.229888e-06
2.256484e-06
-0.001281593
0.00128496
4.329354e-12
-1.23954e-05
2.260397e-06
2.253391e-06
2.257356e-06
2.277729e-06
-0.001288359
0.001291801
3.298249e-12
-1.255325e-05
2.280909e-06
2.274873e-06
2.278084e-06
2.292252e-06
-0.001295262
0.001298746
3.186773e-12
-1.265271e-05
2.294675e-06
2.289586e-06
2.292012e-06
2.300204e-06
-0.001302237
0.001305733
3.615598e-12
-1.269495e-05
2.30187e-06
2.297734e-06
2.299438e-06
2.302166e-06
-0.001309224
0.001312702
3.848986e-12
-1.268427e-05
2.303141e-06
2.299935e-06
2.30096e-06
2.29912e-06
-0.001316165
0.0013196
3.763266e-12
-1.262801e-05
2.299548e-06
2.297048e-06
2.297572e-06
2.292252e-06
-0.00132301
0.001326381
3.270546e-12
-1.253575e-05
2.292237e-06
2.290256e-06
2.290214e-06
2.282821e-06
-0.00132972
0.001333011
2.548604e-12
-1.241786e-05
2.28256e-06
2.280886e-06
2.280557e-06
2.272505e-06
-0.001336266
0.001339467
1.753849e-12
-1.228682e-05
2.27211e-06
2.270677e-06
2.270323e-06
2.262898e-06
-0.001342628
0.001345735
1.11055e-12
-1.215531e-05
2.262752e-06
2.261241e-06
2.261108e-06
2.255964e-06
-0.001348802
0.001351818
7.714967e-13
-1.203733e-05
2.256228e-06
2.254428e-06
2.254697e-06
2.253416e-06
-0.001354795
0.001357729
8.209709e-13
-1.194625e-05
2.254313e-06
2.251948e-06
2.25285e-06
2.25687e-06
-0.001360628
0.001363494
1.307497e-12
-1.189434e-05
2.258688e-06
2.255464e-06
2.257298e-06
2.267901e-06
-0.001366331
0.00136915
1.939138e-12
-1.189344e-05
2.270877e-06
2.266583e-06
2.26958e-06
2.287923e-06
-0.001371948
0.001374745
2.274378e-12
-1.195425e-05
2.292238e-06
2.286653e-06
2.290977e-06
2.31785e-06
-0.001377531
0.001380335
2.871019e-12
-1.20835e-05
2.323572e-06
2.316602e-06
2.322337e-06
2.358215e-06
-0.001383139
0.001385979
3.960476e-12
-1.228501e-05
2.365218e-06
2.357019e-06
2.364051e-06
2.409091e-06
-0.001388833
0.001391744
5.621624e-12
-1.256169e-05
2.41762e-06
2.407931e-06
2.416486e-06
2.470213e-06
-0.00139468
0.001397694
7.634422e-12
-1.291281e-05
2.480453e-06
2.469057e-06
2.479314e-06
2.540984e-06
-0.001400747
0.001403895
9.608946e-12
-1.333287e-05
2.552478e-06
2.539853e-06
2.551381e-06
2.619648e-06
-0.001407094
0.001410404
1.132068e-11
-1.381172e-05
2.632455e-06
2.618576e-06
2.631436e-06
2.704159e-06
-0.001413774
0.001417267
1.273396e-11
-1.433493e-05
2.718077e-06
2.703085e-06
2.717105e-06
2.791715e-06
-0.001420829
0.001424518
1.377211e-11
-1.488361e-05
2.80649e-06
2.790601e-06
2.805337e-06
2.878675e-06
-0.001428282
0.001432173
1.425113e-11
-1.543375e-05
2.894152e-06
2.877493e-06
2.892897e-06
2.960127e-06
-0.001436136
0.001440216
1.444211e-11
-1.594981e-05
2.975983e-06
2.958897e-06
2.974796e-06
3.024135e-06
-0.001444353
0.001448591
1.443161e-11
-1.635875e-05
3.037461e-06
3.02294e-06
3.036312e-06
3.024926e-06
-0.001452883
0.001457343
1.445561e-11
-1.654566e-05
3.01905e-06
3.023704e-06
3.017874e-06
2.900968e-06
-0.001462014
0.001466987
1.476377e-11
-1.647378e-05
2.850801e-06
2.899626e-06
2.84944e-06
2.742591e-06
-0.001472121
0.001477339
1.525119e-11
-1.614461e-05
2.721859e-06
2.741416e-06
2.720672e-06
2.744088e-06
-0.001482575
0.001487846
1.617846e-11
-1.627426e-05
2.75886e-06
2.742948e-06
2.757705e-06
2.766115e-06
-0.001493181
0.001498574
1.858458e-11
-1.647546e-05
2.776223e-06
2.764886e-06
2.775018e-06
2.761836e-06
-0.001503993
0.001509417
2.316282e-11
-1.649843e-05
2.776574e-06
2.760581e-06
2.775497e-06
2.754369e-06
-0.001514824
0.00152023
3.196012e-11
-1.644786e-05
2.767665e-06
2.753059e-06
2.766544e-06
2.719936e-06
-0.001525549
0.001530862
6.874699e-11
-1.624262e-05
2.746234e-06
2.718702e-06
2.744717e-06
2.593415e-06
-0.001536057
0.001541386
2.753766e-10
-1.579609e-05
2.645399e-06
2.589867e-06
2.637203e-06
2.244774e-06
-0.001545968
0.001551935
-5.102004e-11
-1.483872e-05
2.192741e-06
2.241362e-06
2.192874e-06
2.278993e-06
-0.001559106
0.001562637
-1.594075e-11
-1.272799e-05
2.312114e-06
2.288296e-06
2.317413e-06
1.998155e-06
-0.00156575
0.001569471
3.666661e-12
-1.13178e-05
1.790112e-06
2.008227e-06
1.800684e-06
1.516692e-06
-0.001573409
0.001576872
1.367252e-11
-9.288275e-06
1.387499e-06
1.524542e-06
1.395741e-06
9.359874e-07
-0.001579815
0.001582063
2.359408e-11
-5.71772e-06
7.905329e-07
9.443484e-07
7.982634e-07
1.612921e-07
-0.001583682
0.001584299
3.017172e-11
-1.012325e-06
2.881929e-08
1.679444e-07
3.659419e-08
-8.895021e-07
-0.001584461
0.001583688
7.310217e-11
4.782761e-06
-1.124667e-06
-8.804779e-07
-1.115158e-06
-2.93959e-06
-0.001582262
0.001580426
1.097565e-10
1.460782e-05
-3.454241e-06
-2.931966e-06
-3.44622e-06
-6.268827e-06
-0.00157911
0.001577425
2.024496e-10
2.823373e-05
-7.000826e-06
-6.273439e-06
-7.006567e-06
-1.118203e-05
-0.001575278
0.00157211
3.28856e-10
4.991143e-05
-1.216496e-05
-1.120163e-05
-1.219524e-05
-1.401707e-05
-0.001568878
0.00156521
1.254435e-10
5.941753e-05
-1.385518e-05
-1.402657e-05
-1.385068e-05
-9.980758e-06
-0.001558637
0.001546676
-7.978192e-11
4.92376e-05
-8.689143e-06
-9.948432e-06
-8.658475e-06
-4.440113e-06
-0.001529799
0.001510207
-2.23111e-10
3.61993e-05
-3.874446e-06
-4.427109e-06
-3.865492e-06
-2.047434e-06
-0.001488666
0.001466392
-2.227849e-10
3.022963e-05
-1.932067e-06
-2.045298e-06
-1.930676e-06
-1.565752e-06
-0.001443396
0.001419698
-1.609681e-10
2.996927e-05
-1.570657e-06
-1.565002e-06
-1.57013e-06
-1.896131e-06
-0.001394648
0.001367991
2.109851e-10
3.436553e-05
-1.958398e-06