/*--------------------------------*- C++ -*----------------------------------*\
| =========                 |                                                 |
| \\      /  F ield         | foam-extend: Open Source CFD                    |
|  \\    /   O peration     | Version:     3.1                                |
|   \\  /    A nd           | Web:         http://www.extend-project.de       |
|    \\/     M anipulation  |                                                 |
\*---------------------------------------------------------------------------*/
FoamFile
{
    version     2.0;
    format      ascii;
    class       volScalarField;
    location    "13";
    object      k;
}
// * * * * * * * * * * * * * * * * * * * * * * * * * * * * * * * * * * * * * //

dimensions      [0 2 -2 0 0 0 0];

internalField   nonuniform List<scalar> 
119952
(
0.03547553
0.03118919
0.02914522
0.02787478
0.02668866
0.02554586
0.0250708
0.0249635
0.02508
0.02533728
0.0256781
0.02601546
0.02631291
0.02659032
0.02686666
0.02715973
0.02748903
0.02788133
0.02837493
0.02911807
0.0313616
0.03130203
0.03209488
0.0342012
0.03389834
0.03423714
0.03462872
0.03494321
0.03469151
0.01109923
0.06591735
0.06041109
0.05720916
0.05560807
0.05516265
0.05551828
0.05636067
0.05752209
0.05887375
0.06047654
0.06104402
0.06469231
0.06948399
0.07459093
0.07937508
0.08367201
0.08745336
0.09076529
0.09355077
0.1063239
0.1077007
0.1085342
0.1089037
0.1090284
0.1090181
0.1088826
0.1086077
0.1081433
0.1074897
0.1066636
0.1052241
0.103415
0.1014011
0.09931618
0.09727665
0.09535409
0.09360714
0.09210896
0.09238281
0.09080609
0.08930943
0.08844526
0.08757423
0.08639898
0.08503595
0.08366929
0.082388
0.08121412
0.08015362
0.07920243
0.07834817
0.07757387
0.07686262
0.07620475
0.07562343
0.0751201
0.07468041
0.07430304
0.074132
0.07416031
0.07415241
0.07454667
0.07560051
0.07665712
0.07778524
0.07930799
0.08124623
0.08170354
0.08238734
0.0835877
0.08502442
0.08655714
0.08810753
0.08961682
0.09104242
0.09235804
0.09354965
0.09461077
0.09553554
0.09631149
0.09692916
0.09737907
0.09765064
0.09773208
0.09761036
0.09727537
0.09670944
0.09591866
0.09493997
0.0937581
0.0922878
0.09043824
0.08812696
0.08529587
0.08192391
0.07805395
0.07384557
0.06960853
0.06575959
0.06276118
0.06096004
0.06029236
0.06030579
0.06043255
0.06025638
0.05962371
0.05857075
0.05722778
0.05574944
0.05425747
0.05284321
0.05156651
0.05045992
0.04953784
0.04881364
0.04827423
0.04788692
0.04762371
0.04752017
0.04747173
0.04742911
0.04735887
0.04723982
0.04705688
0.04680733
0.04650131
0.04614653
0.04575649
0.04534681
0.04494115
0.04456019
0.04422484
0.04394946
0.04374407
0.04361264
0.04355176
0.04355286
0.04360433
0.04369448
0.04381277
0.04394756
0.0440743
0.04417365
0.04420904
0.04412662
0.04383226
0.04328783
0.04246011
0.0411561
0.03954789
0.04164809
0.04637114
0.05128757
0.05500389
0.0567609
0.05658449
0.05514346
0.0531475
0.05111718
0.04925256
0.04753047
0.04583088
0.04405699
0.04218359
0.04025607
0.03836205
0.03656424
0.03494921
0.03250125
0.03037759
0.028471
0.0265224
0.02481337
0.02417501
0.02454713
0.02575316
0.02777702
0.02835128
0.02634769
0.023208
0.02002892
0.01777035
0.01708348
0.01708594
0.01663352
0.01562645
0.01442058
0.01322804
0.0121306
0.01118828
0.01044624
0.009897
0.009502631
0.009220667
0.009018446
0.008874039
0.008775616
0.008718606
0.008701278
0.008722512
0.008781738
0.008877485
0.009019873
0.009339376
0.009740588
0.01019632
0.01069144
0.0112104
0.01173778
0.01226171
0.01277852
0.01329184
0.0138069
0.01432706
0.01485338
0.01538575
0.01592415
0.01647113
0.01702941
0.01758377
0.01811623
0.0186149
0.01907124
0.01948071
0.01984032
0.02014862
0.02040609
0.02061522
0.02078032
0.02090733
0.0210034
0.0210765
0.02113484
0.02118637
0.02123846
0.02129794
0.02136971
0.02477424
0.0249546
0.02513557
0.02540351
0.02579198
0.02628235
0.02683645
0.02741822
0.02800151
0.02857085
0.02911898
0.02964387
0.03014661
0.03062937
0.03109406
0.03154185
0.03197286
0.03238617
0.03277983
0.03315116
0.0334969
0.03381349
0.03409719
0.0343442
0.0345508
0.0347133
0.03482808
0.03489165
0.03490076
0.03485237
0.03474379
0.03457269
0.03433722
0.03403604
0.03366856
0.03323511
0.03273728
0.03217841
0.03156418
0.03090285
0.03020429
0.02947777
0.02873025
0.02796685
0.02719298
0.02641339
0.02562494
0.02483759
0.02406191
0.02330419
0.02257055
0.02186629
0.02119609
0.02058228
0.02001903
0.01940463
0.01883252
0.01829936
0.01780524
0.01735114
0.01693622
0.01655893
0.01621785
0.01591138
0.01563797
0.01539514
0.01517961
0.0149882
0.01481897
0.01466956
0.01453767
0.01442116
0.01431807
0.0142266
0.0141451
0.01407208
0.01400625
0.01394645
0.01389168
0.01384109
0.01379394
0.01374964
0.01370766
0.01366754
0.01362887
0.01359126
0.01355438
0.01351793
0.01348166
0.01344532
0.01340873
0.01337171
0.01333411
0.01329579
0.01325665
0.01321658
0.01317552
0.0131334
0.01309018
0.01304582
0.01300033
0.0129537
0.01290596
0.01285716
0.01280735
0.01275661
0.01270504
0.01265275
0.01259986
0.01254652
0.01249285
0.01243903
0.01238521
0.01233155
0.01227824
0.01222542
0.01217325
0.01212189
0.01207151
0.01202226
0.01197429
0.01192773
0.01188272
0.01183937
0.01179781
0.01175814
0.01172043
0.01168481
0.01165128
0.01161988
0.01159052
0.0115632
0.01153746
0.01151265
0.01148598
0.01145183
0.01139343
0.01131383
0.01147512
0.08632777
0.08200707
0.08769203
0.09514858
0.1017544
0.1070964
0.1113703
0.1148462
0.11788
0.1217739
0.132827
0.1445062
0.1550876
0.1639226
0.1709955
0.1765185
0.1807639
0.1840186
0.2102154
0.2102923
0.2101379
0.2095261
0.2086908
0.207772
0.2067928
0.2057285
0.2045174
0.2030449
0.2016283
0.1996179
0.1970991
0.1943346
0.191456
0.1885376
0.1856275
0.1827663
0.1799857
0.1776257
0.17522
0.1726022
0.170117
0.1678353
0.1658236
0.1641395
0.1628323
0.1619222
0.1614247
0.1612947
0.1614713
0.1619369
0.162613
0.1634181
0.1642772
0.1651064
0.1658143
0.1663206
0.17772
0.1772516
0.1765076
0.1755343
0.17436
0.1730146
0.1715114
0.1698461
0.1679806
0.1658711
0.1635292
0.1609915
0.1583509
0.1555794
0.1526421
0.1495893
0.1465224
0.143527
0.1407074
0.1377938
0.1347229
0.1318881
0.1292388
0.1266398
0.1240289
0.1214572
0.1189773
0.1166091
0.1143664
0.1122635
0.1103116
0.1085155
0.1068735
0.1053766
0.1040069
0.1027823
0.101727
0.1008385
0.1001317
0.09963041
0.0993233
0.09926485
0.09958681
0.1002675
0.1012481
0.1025869
0.1043223
0.1062446
0.1081113
0.1100664
0.1121802
0.114388
0.1166386
0.1188767
0.1210571
0.123151
0.1251435
0.1270264
0.1287897
0.1304173
0.1318844
0.1331713
0.1342608
0.1351296
0.1357556
0.1361305
0.1362685
0.1361921
0.1358945
0.1353092
0.1343242
0.1329184
0.1310324
0.1286236
0.1256636
0.1221301
0.1180213
0.1133852
0.1083608
0.1031921
0.09817317
0.09353733
0.08940123
0.08578832
0.08266847
0.07998335
0.07766111
0.07562896
0.07382491
0.07220576
0.07074829
0.06944458
0.06829694
0.06731183
0.06649401
0.06584385
0.06538188
0.06509779
0.06495772
0.06492285
0.06495699
0.06502942
0.06510962
0.06516905
0.06518292
0.06513163
0.0650048
0.0648126
0.06459949
0.06439083
0.06421439
0.06409919
0.06406985
0.06414474
0.06433282
0.06463418
0.06504114
0.06553981
0.06611222
0.06673699
0.067386
0.068022
0.06860114
0.06907176
0.06936551
0.06939606
0.06908172
0.06830199
0.06682244
0.06456049
0.06196413
0.0594762
0.05739767
0.05586622
0.05497477
0.05477271
0.05520741
0.05614948
0.05740623
0.05874145
0.05987106
0.06059105
0.06076081
0.0603176
0.05924854
0.0577048
0.05584095
0.05390311
0.0521554
0.04926166
0.04670161
0.04440614
0.04217274
0.03980395
0.03744629
0.03534087
0.03362827
0.03252935
0.03216677
0.03257111
0.03377737
0.03553964
0.0374567
0.03927082
0.04061765
0.04071875
0.03927178
0.03672573
0.03378852
0.03089903
0.02823824
0.02594916
0.02411953
0.02272083
0.02167735
0.02092012
0.02038995
0.02004211
0.01985062
0.01980166
0.01988591
0.02009592
0.02042594
0.02087944
0.02146745
0.02216882
0.02296168
0.02382877
0.02475179
0.02571098
0.02668702
0.02766525
0.02863829
0.02960459
0.03056526
0.03152189
0.03247533
0.0334251
0.03436904
0.03530321
0.03622191
0.03712038
0.03799119
0.03880975
0.03956219
0.04023903
0.04083351
0.04134182
0.04176339
0.042101
0.04236073
0.04255158
0.04268488
0.04277353
0.04283103
0.04287063
0.04290457
0.04293914
0.04638651
0.0465228
0.04665814
0.04679537
0.04694629
0.04712109
0.04732416
0.04755518
0.04781035
0.04808464
0.04837241
0.04866698
0.04896312
0.04925735
0.04954689
0.04982931
0.05010211
0.05036253
0.05060738
0.05083302
0.05103548
0.05121058
0.05135396
0.0514612
0.05152782
0.05154936
0.05152139
0.0514396
0.05129985
0.05109828
0.05083138
0.05049609
0.05008986
0.04961076
0.04905753
0.04842969
0.04772765
0.04695309
0.04610996
0.04520571
0.04425077
0.04325543
0.04222795
0.04117479
0.04010159
0.03901269
0.03791171
0.03680478
0.03569968
0.03460398
0.03352539
0.03247083
0.03144838
0.03046936
0.0295281
0.02862034
0.02775708
0.02694388
0.02618207
0.02547133
0.02481054
0.02419814
0.0236324
0.02311115
0.02263164
0.02219117
0.02178725
0.02141728
0.02107867
0.02076888
0.02048548
0.02022615
0.0199887
0.01977105
0.01957123
0.01938738
0.01921777
0.01906082
0.01891504
0.01877909
0.01865175
0.01853192
0.0184186
0.01831087
0.01820791
0.01810895
0.0180133
0.01792035
0.01782953
0.01774033
0.0176523
0.01756505
0.0174782
0.01739145
0.01730452
0.01721716
0.01712918
0.01704039
0.01695066
0.01685987
0.01676794
0.01667482
0.01658048
0.01648492
0.01638819
0.01629034
0.01619148
0.01609172
0.01599122
0.01589015
0.0157887
0.01568711
0.0155856
0.01548443
0.01538386
0.01528417
0.01518563
0.01508852
0.01499312
0.01489969
0.0148085
0.01471978
0.01463379
0.01455072
0.0144708
0.01439414
0.01432097
0.01425127
0.01418525
0.01412265
0.0140637
0.01400763
0.01395452
0.01390234
0.01385064
0.01379746
0.01375277
0.01373894
0.0137559
0.04457009
0.04806952
0.05219011
0.05672881
0.0617353
0.06732479
0.07369384
0.08115739
0.09025946
0.1011668
0.1494152
0.163697
0.1781632
0.1925768
0.2063734
0.2188152
0.2309204
0.2453021
0.2686796
0.324795
0.3358613
0.3452965
0.3536451
0.360703
0.366873
0.3722879
0.3770061
0.3810316
0.3847001
0.3881148
0.3922643
0.3963102
0.3997195
0.4023684
0.4042493
0.4053011
0.4053778
0.404779
0.4013419
0.3978417
0.3943223
0.3908182
0.3873445
0.3838868
0.3804382
0.3769978
0.3735879
0.3702594
0.3668484
0.3633957
0.3599244
0.3564418
0.3529621
0.3494755
0.3459482
0.3423191
0.3586725
0.3546256
0.3503982
0.3460409
0.3415564
0.3369466
0.3322308
0.3274245
0.3225409
0.3175498
0.3124261
0.3072045
0.3018799
0.2964778
0.2910454
0.2856534
0.2803625
0.2751302
0.2699165
0.2646877
0.2594408
0.2542026
0.249009
0.243916
0.2390604
0.234609
0.2306089
0.2270997
0.2241095
0.2216565
0.2197315
0.2182964
0.2172978
0.2166545
0.2162601
0.2159791
0.2156929
0.2152541
0.2144116
0.213294
0.2118983
0.2102459
0.2083926
0.2064038
0.2043253
0.2021698
0.1999099
0.1975077
0.1949668
0.1922466
0.1892089
0.1858815
0.1823242
0.1786037
0.1748127
0.1710142
0.1672892
0.163545
0.1598064
0.1561839
0.1527035
0.1493286
0.1460338
0.1428353
0.1397593
0.1368255
0.1340493
0.1314433
0.1290171
0.1267761
0.1247207
0.1228451
0.1211369
0.1195713
0.1181944
0.1170158
0.1160481
0.1153139
0.1148395
0.1146609
0.1148365
0.1154107
0.116389
0.117777
0.1195665
0.121709
0.1240222
0.1264827
0.1290895
0.131779
0.1344927
0.1371838
0.1398206
0.142392
0.1448991
0.1473422
0.1497105
0.1519818
0.1541252
0.1561027
0.1578668
0.1593637
0.1605497
0.1614117
0.1619775
0.1622864
0.1623212
0.161964
0.1610456
0.1594568
0.157262
0.1544877
0.1511706
0.1473419
0.1430313
0.1382677
0.1331401
0.1278379
0.1225573
0.1174395
0.1125684
0.1079991
0.1037758
0.09993198
0.09648129
0.0934172
0.09072113
0.08836907
0.08633629
0.08460071
0.08314405
0.08194983
0.08100061
0.0802761
0.07975246
0.07944031
0.0793077
0.07931272
0.07941516
0.07957588
0.07975655
0.07992113
0.08003867
0.08008819
0.08006596
0.07999111
0.07990738
0.07985668
0.07987779
0.08000494
0.08026234
0.08066268
0.08120663
0.08188379
0.08267481
0.08355406
0.08449161
0.08545069
0.08638447
0.08723641
0.08794664
0.08845269
0.08868499
0.0885748
0.08805524
0.08702467
0.0853557
0.08307466
0.0804735
0.07774955
0.07494746
0.07213807
0.06941375
0.06688591
0.06467323
0.06287207
0.061538
0.06067435
0.06021528
0.06002906
0.05995322
0.05981932
0.05950188
0.05893283
0.05812188
0.05709167
0.05605267
0.05477328
0.0533582
0.05183787
0.05020481
0.04848193
0.04672441
0.04499944
0.04337216
0.04184537
0.0404023
0.03913067
0.03821647
0.03782584
0.03809314
0.03919962
0.04114333
0.0436643
0.04637612
0.04865317
0.04969806
0.04903098
0.04690118
0.04400696
0.04095539
0.03815929
0.03585649
0.03404059
0.03262353
0.03155789
0.03080277
0.03032241
0.03008909
0.03008202
0.03028493
0.03068448
0.03126393
0.03199771
0.03285779
0.033816
0.03484458
0.03591779
0.03701374
0.03811633
0.03921618
0.04031005
0.04139911
0.04248708
0.04357835
0.04467645
0.04578289
0.04689661
0.04801363
0.04912767
0.05023517
0.05131067
0.05233317
0.05328577
0.05415466
0.05492924
0.05560256
0.05617168
0.05663778
0.057006
0.05728512
0.05748694
0.05762551
0.05771584
0.05777724
0.05782449
0.05780751
0.05780283
0.05780724
0.05782335
0.05785489
0.05790252
0.05796535
0.05804182
0.05812948
0.05822545
0.0583273
0.05843178
0.05853538
0.05863635
0.05873367
0.05882639
0.05891342
0.0589932
0.05906354
0.05912161
0.0591641
0.05918737
0.05918758
0.05916073
0.05910267
0.05900913
0.05887575
0.05869817
0.05847209
0.05819333
0.057858
0.0574625
0.05700371
0.05647899
0.05588627
0.0552241
0.05449159
0.05368834
0.05281494
0.05187532
0.05087846
0.04983504
0.04875387
0.04764154
0.04650331
0.04534345
0.04416564
0.04297485
0.04177784
0.04058208
0.03939511
0.03822449
0.03707706
0.03595989
0.03487945
0.03383959
0.03284544
0.03189976
0.03100397
0.03015931
0.0293665
0.02862544
0.02793518
0.0272941
0.02670033
0.02615176
0.02564585
0.02517993
0.02475122
0.02435692
0.02399432
0.02366083
0.02335395
0.02307128
0.02281054
0.02256957
0.02234633
0.02213893
0.02194564
0.02176484
0.02159509
0.02143505
0.02128351
0.02113939
0.02100168
0.02086948
0.02074197
0.02061842
0.02049816
0.02038059
0.02026517
0.02015143
0.02003892
0.01992728
0.01981616
0.01970527
0.01959434
0.01948316
0.01937152
0.01925926
0.01914625
0.01903239
0.01891759
0.01880181
0.01868504
0.01856729
0.0184486
0.01832905
0.01820875
0.01808783
0.01796647
0.01784484
0.01772318
0.01760171
0.0174807
0.01736043
0.01724116
0.01712321
0.01700686
0.01689242
0.01678017
0.01667042
0.01656342
0.01645946
0.01635874
0.01626154
0.01616796
0.01607825
0.01599234
0.01591047
0.01583221
0.01575786
0.01568636
0.01561841
0.01555257
0.01549192
0.01543664
0.0153956
0.01536898
0.03473465
0.0390371
0.04289309
0.06547452
0.08822693
0.1163252
0.1350058
0.153707
0.1712897
0.187694
0.2020645
0.2145793
0.2268485
0.239418
0.2521249
0.2650408
0.2782204
0.2916287
0.3049881
0.3181765
0.3312716
0.3441693
0.3568562
0.3693959
0.3817242
0.3937421
0.4053391
0.4164436
0.4270573
0.4373717
0.4479192
0.4788094
0.4853893
0.4907828
0.4952508
0.4991637
0.5027475
0.5061265
0.5093852
0.5126264
0.5159999
0.5193761
0.5227124
0.5258814
0.5287514
0.5310338
0.5323387
0.5319634
0.5302542
0.5274358
0.5237387
0.5194112
0.5145667
0.5093486
0.5038855
0.4982884
0.4926523
0.4870514
0.4815452
0.476164
0.4709105
0.4657764
0.4607348
0.4557526
0.4508
0.4458056
0.4407633
0.4356643
0.4301907
0.4246918
0.4191621
0.4135485
0.4078172
0.4019693
0.3960309
0.3900328
0.3839881
0.3778777
0.3716671
0.3653227
0.358847
0.3523571
0.3459594
0.3395975
0.3331816
0.3267015
0.3201565
0.3135546
0.306921
0.300301
0.2937446
0.2873014
0.2809924
0.2748566
0.2691646
0.264066
0.2596112
0.2558321
0.2527344
0.2502939
0.2484587
0.2471374
0.2461985
0.2454742
0.2447954
0.2439827
0.2428956
0.2414861
0.2397427
0.2376988
0.235437
0.233054
0.2306216
0.2281666
0.2256767
0.2231429
0.2204554
0.2174689
0.2141491
0.2105052
0.2065857
0.2024588
0.1982096
0.1939082
0.1896188
0.1853417
0.1810928
0.1769254
0.1728783
0.168954
0.1651435
0.1614533
0.157903
0.1545133
0.1513009
0.1482789
0.1454576
0.142843
0.140437
0.1382368
0.1362357
0.1344195
0.1327919
0.1314012
0.1302632
0.1294049
0.1288617
0.1286743
0.1288919
0.1295615
0.1307084
0.1323332
0.1344127
0.1369111
0.1397279
0.1427658
0.1459545
0.1492252
0.1525198
0.1557962
0.1590401
0.1622666
0.1655016
0.168753
0.171997
0.1751882
0.1782731
0.1811749
0.1837941
0.1860355
0.1878317
0.1891722
0.1901181
0.190743
0.1910084
0.1907006
0.1895512
0.1874306
0.1844901
0.1808895
0.176758
0.1722015
0.1673017
0.1621327
0.1567734
0.1513305
0.1458997
0.1405247
0.1352727
0.1302048
0.1253819
0.1208617
0.1166917
0.1129035
0.1095132
0.1065227
0.1039237
0.1017017
0.09983854
0.0983134
0.09710269
0.09617922
0.0955122
0.09507941
0.09487417
0.09485195
0.09496642
0.09516843
0.09540792
0.09563776
0.0958187
0.09592912
0.09597781
0.09601157
0.09608989
0.09626036
0.09656944
0.09704676
0.09770382
0.09853714
0.0995306
0.1006564
0.1018774
0.1031486
0.1044244
0.1056547
0.1067741
0.1077072
0.1083816
0.108741
0.1087393
0.1083296
0.107447
0.1059991
0.1039597
0.1014393
0.09868238
0.09581628
0.09277891
0.08955507
0.08619271
0.08277115
0.07938802
0.0761429
0.07312932
0.07043025
0.06810267
0.06616059
0.06457381
0.06327019
0.06216396
0.06116959
0.06023164
0.05928044
0.05831849
0.05732728
0.05628483
0.0551685
0.05396667
0.05268501
0.05134737
0.04998657
0.04862051
0.04723195
0.04579701
0.04432804
0.04287645
0.0415311
0.04043476
0.03978335
0.03978062
0.040618
0.04238229
0.04476301
0.04736518
0.04977213
0.05152678
0.05223549
0.05174175
0.05024303
0.04815531
0.04586874
0.04364803
0.04173253
0.04018826
0.03898566
0.03812327
0.03758988
0.03736467
0.03742394
0.03774063
0.03828322
0.03901622
0.03990188
0.04090258
0.04198336
0.04311397
0.04427073
0.0454376
0.04660617
0.04777447
0.04894522
0.05012359
0.05131494
0.05252286
0.05374799
0.05498734
0.05623376
0.0574824
0.05871829
0.05991797
0.06106101
0.06212898
0.06310602
0.06397962
0.06474132
0.065387
0.06591686
0.06633536
0.06665101
0.0668758
0.06702342
0.06711047
0.06714653
0.06714258
0.06711383
0.06706921
0.06701595
0.06695911
0.06690116
0.06684287
0.0667839
0.06672261
0.06665759
0.06658744
0.06651083
0.06642573
0.06633147
0.06622864
0.06611809
0.06600061
0.06587679
0.0657463
0.06560786
0.06545952
0.065299
0.06512375
0.06493103
0.0647178
0.06448075
0.06421631
0.06392073
0.06359007
0.06322038
0.06280774
0.06234839
0.06183883
0.06127588
0.06065677
0.05997916
0.05924113
0.0584409
0.05757651
0.0566473
0.05565786
0.05461733
0.05353493
0.0524178
0.05127111
0.05009857
0.04890319
0.04768887
0.04646126
0.0452271
0.04399356
0.04276807
0.04155796
0.04037088
0.03921371
0.03809152
0.03700914
0.03597076
0.0349798
0.03403881
0.03314938
0.03231217
0.03152704
0.03079334
0.03010978
0.02947454
0.02888553
0.02834035
0.02783632
0.0273707
0.02694075
0.02654382
0.0261773
0.02583868
0.02552548
0.02523534
0.02496601
0.02471539
0.02448152
0.02426258
0.02405691
0.02386299
0.02367944
0.02350498
0.02333849
0.02317892
0.02302534
0.0228769
0.02273285
0.02259251
0.02245526
0.02232056
0.02218792
0.02205691
0.02192713
0.02179827
0.02167
0.02154207
0.02141424
0.02128632
0.02115813
0.02102952
0.02090037
0.0207706
0.02064013
0.02050894
0.02037701
0.02024437
0.02011109
0.01997723
0.01984294
0.01970835
0.01957364
0.01943902
0.01930471
0.01917096
0.01903804
0.01890622
0.01877579
0.01864704
0.01852027
0.01839578
0.01827384
0.01815476
0.01803878
0.01792615
0.01781708
0.01771177
0.01761028
0.01751277
0.01741915
0.01732947
0.01724356
0.01716159
0.01708378
0.01701077
0.01694417
0.01688551
0.01684127
0.01816055
0.02014031
0.02204072
0.02919093
0.03869425
0.05466205
0.06575827
0.07746068
0.08997446
0.102615
0.115639
0.1299232
0.1451379
0.1607011
0.1769372
0.1952375
0.2235651
0.2368007
0.2503329
0.2640332
0.2780847
0.2920328
0.305542
0.3187132
0.3317007
0.344537
0.3570314
0.3694273
0.3817785
0.3940598
0.4062282
0.4182145
0.4299345
0.4412985
0.4522413
0.4627095
0.4725933
0.4817833
0.490381
0.4977288
0.5045864
0.5101161
0.5117729
0.5136438
0.5153351
0.5169539
0.5187668
0.5210219
0.523925
0.5275819
0.5320191
0.5371797
0.5428418
0.5487206
0.5544496
0.5597279
0.5641414
0.5672369
0.5686444
0.5687649
0.5678238
0.5660082
0.5634754
0.5603377
0.5566934
0.5526322
0.5482479
0.5436348
0.5388822
0.534071
0.5292555
0.5244625
0.5196875
0.5149118
0.510112
0.5052497
0.5002452
0.4950509
0.4896505
0.4840495
0.4783187
0.472464
0.4664307
0.4601799
0.4537145
0.447078
0.4403334
0.4335254
0.4266508
0.4196565
0.4124957
0.4052768
0.3979909
0.3906154
0.3832102
0.3757652
0.3682434
0.3606384
0.3529728
0.3452702
0.3375648
0.3299064
0.3223609
0.3150049
0.3079142
0.3011231
0.2949122
0.2894503
0.2848021
0.2809963
0.2780226
0.2758309
0.274311
0.2732831
0.2725202
0.2717859
0.2708658
0.2695983
0.2679105
0.2658161
0.2633942
0.260763
0.2580405
0.2553043
0.2525812
0.2498969
0.2471272
0.2441115
0.2407608
0.2370335
0.2329404
0.2285338
0.2238902
0.2190989
0.21424
0.2093851
0.2045722
0.1998263
0.1951832
0.1906731
0.1863057
0.1820807
0.1780039
0.1740879
0.1703478
0.1668014
0.1634632
0.1603443
0.1574522
0.1547902
0.1523582
0.1501537
0.1481724
0.1464042
0.1449121
0.1437239
0.1428743
0.1424114
0.1423873
0.1428541
0.1438572
0.1454252
0.1475612
0.1502394
0.1534096
0.1569773
0.1608221
0.1648298
0.1689177
0.1730218
0.1771127
0.181216
0.1853989
0.1897212
0.1941793
0.1986978
0.2031688
0.2074713
0.2114575
0.2149696
0.2178837
0.220141
0.2217669
0.2228821
0.22361
0.2238545
0.2232571
0.2214596
0.218376
0.2141983
0.2092831
0.2038805
0.1981742
0.1922712
0.1862677
0.1802537
0.1742862
0.1684234
0.1626771
0.1570633
0.1516144
0.1463709
0.1413731
0.1366924
0.132389
0.1285013
0.1250475
0.1220297
0.1194378
0.1172537
0.1154545
0.114015
0.1129083
0.1121061
0.1115782
0.1113224
0.1112998
0.1114573
0.1117283
0.1120419
0.1123417
0.1125805
0.1127417
0.1128625
0.1130402
0.113345
0.1138456
0.1145833
0.1155627
0.1167619
0.1181491
0.1196869
0.1213284
0.1230189
0.1247006
0.1263122
0.1277783
0.129006
0.1298846
0.1303229
0.1302966
0.1298064
0.1288374
0.1273258
0.1251977
0.1224966
0.1194389
0.1163153
0.113218
0.1100123
0.1066006
0.1029883
0.09921709
0.09533813
0.09142041
0.08755108
0.08382366
0.08032278
0.0771105
0.07422279
0.07166927
0.06943761
0.0674918
0.0657839
0.06425708
0.06287267
0.06159468
0.06038502
0.05920984
0.05804684
0.05688334
0.05571214
0.05453265
0.05334184
0.05211375
0.0508092
0.0494122
0.0479316
0.04638441
0.04483439
0.04342857
0.04235207
0.04178461
0.04184636
0.04260085
0.04408971
0.04621319
0.04863735
0.05110366
0.05329449
0.0548778
0.05557609
0.05528045
0.05413502
0.05245211
0.05056361
0.04870216
0.04710188
0.045861
0.04498793
0.04448387
0.04433381
0.04450445
0.04495271
0.04563143
0.04649247
0.0474902
0.04858379
0.04973926
0.05093079
0.05214128
0.05336179
0.05459029
0.0558295
0.05708426
0.05835899
0.059656
0.06097448
0.06230966
0.06365513
0.06500417
0.06633417
0.06762343
0.06885096
0.06999721
0.07104525
0.07198183
0.07279794
0.07348878
0.07405381
0.07449682
0.07482587
0.07505203
0.07518927
0.07525048
0.07524963
0.07520074
0.07511511
0.07500164
0.07486691
0.07471516
0.07454866
0.0743683
0.07417333
0.07396195
0.07373297
0.07348535
0.0732188
0.07293338
0.07263057
0.07231211
0.0719798
0.07163698
0.07128594
0.07092737
0.0705612
0.07018709
0.06980462
0.06941307
0.06901135
0.06859791
0.06817072
0.06772728
0.06726474
0.06677989
0.06626932
0.06572951
0.06515689
0.064548
0.0638995
0.06320824
0.06247132
0.061686
0.06084911
0.0599567
0.05900714
0.05800477
0.05695773
0.05587419
0.05475919
0.05361622
0.05244712
0.0512544
0.05004244
0.04881689
0.047584
0.04635083
0.04512474
0.04391326
0.04272325
0.04156038
0.04043017
0.03933786
0.03828785
0.03728359
0.03632759
0.03542148
0.03456616
0.0337618
0.03300788
0.0323033
0.0316466
0.03103599
0.03046894
0.02994277
0.02945482
0.02900274
0.02858413
0.0281964
0.027837
0.02750346
0.02719338
0.02690452
0.02663477
0.02638215
0.02614485
0.02592118
0.02570962
0.02550878
0.02531737
0.02513425
0.02495837
0.02478881
0.02462471
0.02446532
0.02430995
0.02415802
0.02400896
0.0238623
0.02371761
0.02357452
0.02343268
0.02329181
0.02315163
0.02301191
0.02287246
0.02273308
0.02259362
0.02245396
0.02231397
0.02217359
0.02203275
0.02189144
0.02174965
0.02160743
0.02146483
0.02132197
0.02117898
0.021036
0.02089324
0.02075089
0.02060918
0.02046837
0.0203287
0.02019046
0.02005391
0.01991934
0.01978703
0.01965726
0.01953029
0.01940639
0.01928579
0.01916869
0.01905526
0.01894563
0.0188399
0.01873815
0.0186405
0.01854705
0.01845832
0.01837444
0.018297
0.01822608
0.01816994
0.007741439
0.009133243
0.01017522
0.01523581
0.02101563
0.02856012
0.03467962
0.04156236
0.04895083
0.05676768
0.06529737
0.07525743
0.08609911
0.09811509
0.1124447
0.1346561
0.1459737
0.1578142
0.1697964
0.1818944
0.1940682
0.2062478
0.2183252
0.2302383
0.2418972
0.2532303
0.264424
0.2766382
0.289172
0.3020589
0.3153382
0.3287163
0.3418643
0.3547092
0.3671903
0.3792421
0.3911036
0.4027705
0.4142419
0.4254746
0.436392
0.4469079
0.4569318
0.4663178
0.4749996
0.4828619
0.4895263
0.4946974
0.4986698
0.5010424
0.5022082
0.5021831
0.500782
0.4992726
0.4979439
0.4972969
0.4978446
0.4999677
0.5039126
0.5096997
0.5171953
0.5260366
0.5358047
0.5459724
0.555989
0.5654302
0.5732272
0.579703
0.5849068
0.5889141
0.591803
0.5936392
0.5944737
0.5944036
0.593493
0.5918125
0.58947
0.586598
0.583321
0.5797404
0.5759558
0.5720388
0.568
0.5638318
0.5595297
0.5550432
0.5502599
0.5451085
0.5396319
0.5339178
0.5280086
0.521868
0.5154301
0.5086543
0.5015462
0.4941628
0.4865926
0.4789087
0.4711217
0.463188
0.4551694
0.4470085
0.4386473
0.4302117
0.4218011
0.4134086
0.4049652
0.3964341
0.3878395
0.3792232
0.3706221
0.3620849
0.3536856
0.3455241
0.3377115
0.3303459
0.3235086
0.3175621
0.3126215
0.3087438
0.3059348
0.3041354
0.303175
0.3027658
0.3025599
0.3022137
0.3014392
0.3000593
0.2980511
0.2955252
0.2926637
0.289653
0.286626
0.2836281
0.2806993
0.2776505
0.2743378
0.2706644
0.2665622
0.2620138
0.257055
0.2517597
0.2462225
0.2405444
0.2348185
0.2291259
0.2235348
0.2180843
0.2128014
0.2077064
0.2028079
0.1981079
0.1936103
0.1893232
0.1852555
0.181418
0.1778213
0.1744739
0.1713816
0.1685477
0.1659739
0.1636618
0.1616144
0.1598348
0.1583715
0.1572986
0.1566643
0.1565279
0.1569521
0.1579935
0.1596934
0.162071
0.1651224
0.1688157
0.1730644
0.1777434
0.1826952
0.1877616
0.1928263
0.1978424
0.2028428
0.2079429
0.2133016
0.2190071
0.2249751
0.2309938
0.2368438
0.2423167
0.2471739
0.2512083
0.2543333
0.2565811
0.2580698
0.2589776
0.2594365
0.2592277
0.2577918
0.2547723
0.2502704
0.2446121
0.2382962
0.2316703
0.2249446
0.2181718
0.2113534
0.2045227
0.1977435
0.1910894
0.1846348
0.1783898
0.1723678
0.1666056
0.1611382
0.1560303
0.151341
0.1471088
0.1433508
0.1400664
0.1372416
0.1348535
0.1328766
0.1312886
0.1300711
0.129206
0.1286722
0.1284623
0.1285521
0.1288804
0.129362
0.1299003
0.1304083
0.1308169
0.1311154
0.1313999
0.1318428
0.132546
0.1336003
0.135023
0.136757
0.1387147
0.1408242
0.1430288
0.1452592
0.1474347
0.149484
0.1513293
0.152868
0.1539821
0.1545325
0.1544174
0.1536333
0.1522892
0.1504258
0.1479652
0.1448134
0.1410561
0.1370476
0.1332151
0.1297066
0.1263281
0.122862
0.1192066
0.115335
0.1112488
0.1069916
0.102642
0.09829868
0.0940609
0.09001819
0.08624255
0.0827771
0.07964002
0.07682477
0.07430964
0.07206383
0.07005589
0.06824897
0.06660371
0.06508608
0.06366979
0.06233177
0.06105067
0.05980957
0.05858949
0.05735847
0.05608011
0.05473174
0.05329837
0.0517641
0.05014237
0.04850172
0.04694528
0.04558871
0.04455941
0.04398661
0.04397192
0.04455664
0.04573966
0.04751377
0.04973279
0.05214697
0.0545417
0.05663504
0.05811666
0.05874925
0.05847404
0.05746694
0.05604392
0.05452645
0.0531225
0.05200982
0.05127403
0.05092138
0.05092124
0.05123718
0.05182116
0.05262012
0.05358292
0.05466444
0.05582771
0.05704468
0.05829615
0.05957102
0.0608645
0.06217587
0.06350658
0.06485778
0.06622883
0.06761612
0.0690126
0.0704181
0.07181514
0.07318509
0.0745085
0.07576572
0.07693803
0.07800916
0.07896628
0.07980025
0.08050642
0.08108396
0.08153555
0.08186733
0.08208836
0.08220829
0.08224041
0.08220061
0.08210154
0.08195338
0.08176418
0.08153994
0.08128477
0.08100113
0.08068986
0.08034954
0.07997797
0.07957176
0.07913389
0.07866597
0.07816968
0.07764702
0.07710094
0.07653631
0.07595746
0.07536716
0.07476765
0.07416127
0.07355043
0.07293724
0.07232325
0.07170927
0.0710954
0.07048101
0.06986481
0.06924484
0.0686186
0.06798309
0.06733497
0.06667063
0.06598626
0.06527791
0.06454152
0.06377301
0.06296795
0.0621206
0.06122526
0.06028054
0.05929066
0.05826345
0.05720521
0.0561191
0.05500573
0.05386601
0.05270299
0.05152111
0.05032467
0.04911972
0.04791348
0.04671307
0.04552511
0.04435574
0.04321099
0.0420966
0.04101759
0.03997816
0.03898173
0.03803091
0.03712753
0.03627264
0.03546657
0.03470899
0.03399908
0.03333559
0.03271696
0.032141
0.03160524
0.03110693
0.03064389
0.03021394
0.02981456
0.02944325
0.02909759
0.02877524
0.028474
0.02819182
0.02792676
0.02767705
0.02744105
0.02721725
0.02700428
0.0268009
0.02660597
0.02641848
0.02623751
0.02606223
0.02589191
0.02572588
0.02556356
0.0254044
0.02524795
0.02509378
0.02494154
0.02479088
0.02464153
0.02449321
0.0243457
0.02419879
0.02405228
0.02390601
0.02375984
0.02361363
0.02346729
0.02332074
0.02317394
0.02302686
0.02287954
0.02273201
0.02258436
0.02243671
0.02228918
0.02214195
0.02199521
0.02184916
0.02170402
0.02156002
0.02141743
0.02127648
0.02113744
0.02100057
0.02086614
0.02073442
0.02060564
0.02048004
0.02035782
0.02023918
0.02012428
0.02001328
0.0199064
0.0198038
0.01970598
0.01961308
0.01952636
0.01944592
0.01938109
0.001731176
0.007172627
0.01096017
0.01544497
0.02047183
0.02622222
0.03276679
0.03994311
0.04793369
0.05750929
0.07207842
0.08043385
0.08936317
0.09862422
0.108226
0.1181035
0.1282015
0.138434
0.1486775
0.1588604
0.1690327
0.1804312
0.1919364
0.203419
0.2148284
0.2261377
0.2373122
0.2483027
0.2591719
0.2699129
0.2805256
0.2912011
0.3022535
0.3135567
0.3252022
0.3371109
0.3490058
0.3606311
0.3718286
0.3826126
0.3931538
0.4035277
0.4137601
0.4238214
0.4336429
0.443098
0.4520679
0.4604289
0.4678374
0.4739661
0.4785742
0.4813839
0.4823487
0.4816276
0.479308
0.4757585
0.4714331
0.4668317
0.4627703
0.4599798
0.4591785
0.4610098
0.4659112
0.4740482
0.4852198
0.4989992
0.5146263
0.5313572
0.5481573
0.5640504
0.5792184
0.5934018
0.6062842
0.6175413
0.6270691
0.6348365
0.640847
0.6451868
0.647955
0.6492576
0.6492714
0.6482377
0.6464104
0.6439934