/*--------------------------------*- C++ -*----------------------------------*\
| =========                 |                                                 |
| \\      /  F ield         | foam-extend: Open Source CFD                    |
|  \\    /   O peration     | Version:     3.1                                |
|   \\  /    A nd           | Web:         http://www.extend-project.de       |
|    \\/     M anipulation  |                                                 |
\*---------------------------------------------------------------------------*/
FoamFile
{
    version     2.0;
    format      ascii;
    class       volScalarField;
    location    "13";
    object      nut;
}
// * * * * * * * * * * * * * * * * * * * * * * * * * * * * * * * * * * * * * //

dimensions      [0 2 -1 0 0 0 0];

internalField   nonuniform List<scalar> 
119952
(
4.28863e-05
2.754767e-05
2.753634e-05
3.055727e-05
3.252281e-05
3.067261e-05
2.962733e-05
2.901716e-05
2.86342e-05
2.834767e-05
2.8091e-05
2.777069e-05
2.734931e-05
2.685303e-05
2.630473e-05
2.572243e-05
2.512548e-05
2.452895e-05
2.393388e-05
2.337689e-05
3.027058e-05
2.887634e-05
2.853851e-05
3.757333e-05
3.661172e-05
3.640957e-05
3.622259e-05
3.629215e-05
3.640829e-05
2.200295e-05
2.994343e-05
3.14571e-05
3.507666e-05
3.917692e-05
4.381727e-05
4.898493e-05
5.465778e-05
6.068108e-05
6.698795e-05
7.738701e-05
0.0003216275
0.0003982425
0.0004827404
0.0005708816
0.0006587807
0.0007447251
0.0008277238
0.0009072076
0.000982093
0.00141722
0.001497174
0.001572895
0.00164319
0.001708222
0.001767808
0.001820914
0.001866072
0.001901322
0.00192527
0.001936685
0.001932906
0.001918362
0.001896694
0.001871742
0.001847178
0.001825688
0.001809962
0.00180323
0.001797217
0.001758793
0.001755039
0.001765058
0.001773074
0.001774065
0.00177796
0.00178742
0.001802548
0.001822671
0.001847135
0.00187543
0.001907042
0.00194149
0.001978135
0.002015738
0.002055316
0.002097571
0.002143023
0.00219289
0.002250549
0.00231417
0.002383298
0.002468301
0.002563126
0.002651682
0.002736174
0.002815627
0.002571475
0.002669993
0.002684947
0.002732615
0.002795444
0.002864202
0.002933192
0.002998719
0.003058452
0.003111114
0.003156134
0.003193304
0.003222331
0.003242625
0.003253676
0.00325507
0.003246442
0.003227346
0.00319683
0.003154004
0.003095479
0.003021551
0.002937025
0.002840931
0.002726792
0.00258827
0.002420713
0.002222672
0.001997084
0.001753079
0.001507635
0.001283532
0.001102024
0.0009758414
0.0009052079
0.000879129
0.0008830248
0.0009040811
0.0009332855
0.0009651995
0.0009967612
0.001026515
0.001053882
0.001078883
0.001101769
0.001122899
0.001142719
0.001161839
0.001181572
0.00120219
0.0012229
0.001241198
0.001257586
0.001270317
0.001278384
0.001280996
0.001277749
0.001268527
0.001254136
0.001236119
0.001215457
0.001193519
0.001171911
0.001151906
0.001134802
0.001121359
0.001111765
0.001105829
0.001103026
0.001102603
0.001103709
0.00110549
0.001107169
0.001107934
0.001106792
0.001102534
0.00109309
0.00107547
0.001044929
0.0009945771
0.000914568
0.000790623
0.0006154734
0.0004786879
0.0004523646
0.000423632
0.000456691
0.0005160315
0.0005800851
0.0006384314
0.000679995
0.0007032931
0.000728557
0.0007565185
0.000784015
0.0008062441
0.0008193883
0.0008215541
0.0008132223
0.0007968344
0.0007757445
0.0007064439
0.0006012177
0.0005271558
0.0004642433
0.0003936949
0.0003233201
0.0002579401
0.0002207376
0.0002125177
0.0002334982
0.0002675782
0.0002895987
0.0003026908
0.000292421
0.000279344
0.0002912524
0.0003199965
0.0003376309
0.000337077
0.0003249101
0.000306061
0.0002842275
0.0002633433
0.0002467958
0.0002350456
0.0002270196
0.000221389
0.000217099
0.0002134732
0.0002102599
0.0002074857
0.0002052225
0.0002035533
0.0002025864
0.0002025506
0.0002067428
0.0002190871
0.0002329055
0.0002477094
0.0002630299
0.0002784035
0.0002934581
0.0003080087
0.0003220847
0.0003358502
0.0003494699
0.000363041
0.0003766063
0.0003901881
0.000403856
0.0004178679
0.000432585
0.0004475082
0.000462144
0.000476201
0.0004894646
0.0005018039
0.0005131167
0.0005233295
0.0005324064
0.0005403575
0.0005472338
0.0005531275
0.0005581829
0.0005625663
0.0005664633
0.000570066
0.0005735688
0.0005771778
0.0005811039
0.0008207312
0.0008638802
0.0009092625
0.0009559892
0.001002681
0.001047471
0.001088952
0.001126685
0.00116096
0.001192367
0.001221513
0.001248947
0.001275158
0.001300538
0.00132536
0.001349793
0.001373913
0.001397718
0.001421141
0.00144407
0.001466364
0.001487863
0.001508397
0.001527789
0.001545863
0.001562438
0.00157733
0.001590352
0.001601315
0.001610031
0.001616309
0.001619957
0.001620785
0.001618602
0.001613231
0.001604516
0.001592351
0.001576721
0.001557759
0.00153577
0.00151116
0.001484274
0.001455298
0.001424293
0.001391259
0.001356138
0.001318911
0.001280521
0.001241669
0.001202881
0.00116469
0.001127575
0.001091947
0.001058985
0.001027038
0.0009959854
0.0009685355
0.0009442968
0.0009230635
0.0009046029
0.0008886511
0.0008749426
0.000863272
0.0008534906
0.0008454514
0.0008389211
0.0008336587
0.0008294979
0.0008263283
0.0008240271
0.0008224806
0.00082159
0.0008212664
0.0008214273
0.0008219965
0.0008229042
0.0008240877
0.0008254899
0.0008270588
0.0008287493
0.0008305227
0.000832345
0.0008341857
0.0008360158
0.0008378071
0.0008395322
0.0008411657
0.0008426844
0.0008440672
0.0008452955
0.0008463525
0.0008472236
0.0008478967
0.0008483611
0.0008486077
0.00084863
0.0008484239
0.0008479859
0.0008473147
0.000846412
0.0008452814
0.0008439284
0.0008423611
0.0008405901
0.0008386281
0.0008364909
0.0008341958
0.0008317625
0.0008292125
0.0008265689
0.000823856
0.0008210992
0.0008183247
0.0008155597
0.0008128318
0.0008101672
0.0008075914
0.0008051297
0.0008028065
0.0008006458
0.0007986694
0.0007968982
0.0007953517
0.000794049
0.0007930079
0.0007922468
0.0007917821
0.0007916341
0.0007918203
0.0007923655
0.0007932992
0.0007946707
0.000796538
0.0007990223
0.0008023066
0.0008068317
0.0008133073
0.000824227
0.0006617683
5.09344e-05
5.515019e-05
6.533478e-05
7.730616e-05
8.920016e-05
0.000100516
0.0001112373
0.000121457
0.0001327198
0.0004343251
0.0006044721
0.0007815219
0.0009484585
0.001097275
0.001227212
0.001340917
0.001441872
0.00153334
0.002210813
0.0023232
0.0024379
0.002548069
0.002651808
0.002748121
0.002836261
0.002915566
0.002985323
0.003044722
0.003094933
0.003134078
0.003166034
0.003194058
0.003219332
0.003242252
0.003263271
0.003283293
0.00330363
0.003312938
0.003310447
0.003317836
0.003338014
0.003371012
0.003417397
0.003477607
0.003551914
0.003639899
0.003740771
0.003852443
0.003972997
0.004100806
0.004233325
0.00436759
0.004500372
0.004628104
0.004747114
0.004853116
0.005702192
0.005768475
0.005818589
0.005854929
0.005878851
0.005891064
0.005891097
0.0058775
0.005847826
0.005800293
0.005735488
0.005657284
0.00557384
0.005483769
0.005382671
0.005274302
0.005164878
0.005058247
0.004957184
0.004849357
0.00474226
0.00465291
0.004575367
0.004506596
0.004447103
0.004399735
0.004365456
0.004343752
0.004333814
0.004334779
0.00434573
0.004365696
0.00439365
0.004428309
0.004467285
0.004511393
0.004563545
0.004624187
0.00469444
0.004775636
0.004867798
0.004973285
0.005095511
0.005231697
0.005378867
0.00553755
0.005706923
0.005877399
0.006044008
0.006214425
0.006387923
0.006559816
0.006727102
0.006887053
0.007037674
0.007177806
0.007306939
0.007424845
0.007531156
0.007625098
0.007705359
0.007771058
0.007821656
0.00785618
0.007873581
0.007873352
0.007855922
0.007821858
0.007769363
0.007690946
0.007572643
0.007409482
0.007192086
0.006912442
0.006566209
0.006154326
0.005686151
0.005182562
0.004676197
0.004205111
0.00379993
0.003473294
0.003222204
0.003036581
0.00290535
0.002818736
0.002768489
0.002747713
0.002750695
0.002772759
0.002810153
0.002859825
0.002919299
0.002986429
0.003059111
0.003135224
0.003216028
0.00330083
0.003387248
0.003472763
0.003555046
0.003632046
0.00370178
0.003762434
0.003812421
0.0038504
0.003875326
0.003887844
0.003893512
0.003895918
0.003898712
0.003905387
0.003918551
0.003939982
0.003970236
0.004008805
0.004054357
0.004104964
0.004158392
0.004212144
0.004262981
0.004306472
0.004337166
0.004347625
0.004326399
0.004257287
0.004121206
0.003889534
0.003530212
0.003085562
0.00267722
0.002343721
0.002087045
0.001892099
0.00174545
0.001641471
0.001576114
0.001544963
0.001543394
0.001566222
0.001588887
0.001612784
0.001674034
0.001754432
0.001835432
0.001887246
0.001932571
0.001973146
0.00195087
0.001921921
0.001885895
0.001832064
0.001743299
0.001616973
0.001475751
0.001336289
0.00120765
0.00109147
0.0009857252
0.0008972916
0.0008110621
0.0006998699
0.0006614774
0.0006825292
0.0007534198
0.0008768498
0.001052386
0.001183256
0.001253733
0.001307937
0.001345033
0.001369304
0.001387483
0.001403447
0.001418399
0.001432127
0.001443711
0.001452836
0.001460363
0.001467921
0.001477431
0.001490891
0.001510371
0.001538546
0.001577434
0.00162595
0.001683474
0.001749371
0.001822543
0.001901318
0.001983723
0.002068089
0.002153428
0.002239297
0.002325463
0.002411654
0.002497455
0.002582288
0.002665449
0.00274615
0.002823517
0.002897228
0.002967886
0.003033099
0.003091701
0.00314299
0.003186526
0.003222114
0.003249828
0.003270017
0.003283304
0.003290565
0.003292885
0.003291502
0.003287727
0.003282868
0.003278156
0.003273559
0.003822314
0.003845534
0.003868575
0.003895273
0.00392782
0.003967048
0.004012756
0.004064113
0.004119981
0.004179199
0.004240602
0.004303144
0.004366106
0.004428999
0.004491463
0.004553208
0.004613963
0.004673445
0.004731341
0.004787306
0.004840974
0.004891962
0.004939878
0.004984325
0.005024899
0.005061187
0.005092768
0.005119215
0.005140096
0.005154976
0.005163421
0.005165002
0.005159303
0.005145927
0.005124509
0.005094742
0.00505641
0.005009448
0.004954068
0.004890846
0.004820605
0.004744076
0.004661737
0.004573896
0.004480834
0.004382868
0.004280528
0.004174691
0.004066374
0.003956636
0.003846603
0.003737368
0.003630159
0.003526288
0.003425664
0.003329004
0.003237495
0.003151822
0.003072354
0.002999265
0.002932563
0.002872158
0.00281791
0.002769579
0.002726812
0.002689253
0.00265653
0.002628247
0.002604014
0.002583449
0.002566191
0.002551895
0.00254024
0.00253092
0.00252365
0.002518163
0.002514213
0.002511573
0.002510033
0.002509405
0.002509516
0.002510209
0.002511341
0.002512778
0.002514398
0.002516087
0.002517738
0.002519255
0.002520548
0.002521536
0.002522143
0.002522302
0.002521953
0.002521042
0.002519522
0.00251735
0.002514493
0.002510922
0.002506614
0.002501554
0.002495733
0.002489148
0.002481805
0.002473716
0.0024649
0.002455386
0.002445209
0.00243441
0.00242304
0.002411154
0.002398815
0.00238609
0.002373054
0.002359784
0.00234636
0.002332867
0.002319389
0.002306013
0.002292826
0.002279913
0.00226736
0.00225525
0.002243663
0.002232677
0.002222369
0.002212808
0.002204072
0.002196218
0.002189335
0.002183468
0.002178736
0.002175184
0.002173
0.00217221
0.00217311
0.002175776
0.002181568
0.002192169
0.002206421
2.82655e-05
3.449517e-05
4.389402e-05
5.504503e-05
6.836449e-05
8.440306e-05
0.0001041333
0.0001288115
0.0001606842
0.0002166986
0.0008914362
0.001044422
0.001210187
0.001387383
0.001565057
0.001712045
0.001837854
0.001985031
0.002291393
0.00421503
0.004446275
0.00459776
0.004739675
0.004868021
0.004987415
0.005100154
0.005207548
0.005312416
0.005445693
0.005687414
0.005933109
0.006128808
0.00628016
0.006402098
0.006504812
0.006592647
0.006665714
0.006730271
0.006646678
0.006658239
0.006710466
0.006778029
0.006848035
0.006914458
0.006975115
0.007029748
0.007079037
0.007123607
0.007164059
0.007204206
0.007245381
0.007287348
0.007328994
0.007368632
0.007404425
0.007433412
0.00835475
0.008368205
0.008370349
0.008364166
0.008351015
0.008331653
0.008306645
0.008276104
0.008239914
0.008197279
0.00814768
0.008091875
0.008030495
0.007964853
0.007896528
0.007828485
0.007764021
0.007702444
0.007643067
0.007585355
0.007529613
0.007476954
0.007428901
0.007387812
0.007359035
0.007348923
0.007357801
0.007385596
0.007431633
0.00749471
0.007572858
0.007663346
0.007762978
0.007867849
0.007973574
0.008075323
0.008169102
0.008252224
0.008300889
0.008336363
0.008358593
0.008368539
0.008367701
0.008357184
0.008336891
0.008305393
0.008260332
0.008199963
0.008126288
0.008038367
0.007926627
0.007794947
0.007648626
0.00749272
0.007332972
0.007172907
0.007017094
0.006861742
0.006709905
0.006570381
0.006444719
0.006332308
0.00623386
0.006151544
0.006086537
0.006038781
0.006007612
0.00599203
0.005990819
0.006002638
0.006026097
0.006059698
0.006101484
0.006147543
0.006201225
0.00626372
0.006336214
0.006420278
0.006517513
0.006629867
0.006759563
0.00690742
0.007072855
0.007255031
0.007452459
0.007661634
0.00787646
0.008095488
0.008316216
0.008533349
0.0087431
0.008943178
0.009132191
0.009309699
0.00947582
0.009630643
0.009773822
0.009904603
0.01
0.01
0.01
0.01
0.01
0.01
0.01
0.01
0.01
0.01
0.01
0.01
0.009826494
0.009555887
0.009216691
0.008808347
0.00833598
0.007812125
0.007260718
0.006716117
0.006210286
0.005763991
0.00538562
0.005074951
0.004827628
0.004637864
0.004499467
0.004406352
0.004352934
0.004334125
0.004345299
0.004382263
0.004441203
0.004518504
0.004610529
0.004713369
0.004822561
0.004938601
0.005059082
0.005180693
0.005300284
0.005414831
0.00552145
0.005617501
0.005700774
0.005769817
0.005824418
0.005865924
0.005897733
0.005924857
0.005952354
0.00598486
0.006025795
0.006077086
0.006139067
0.006210654
0.006289688
0.006373391
0.00645873
0.006542239
0.00661945
0.00668469
0.006731433
0.006751504
0.006733604
0.006664079
0.006526112
0.006293565
0.005940247
0.005487876
0.005007875
0.004542506
0.004108348
0.003715901
0.003367404
0.003064716
0.002811275
0.002609058
0.002457945
0.002355448
0.002295987
0.002271828
0.002274972
0.002297728
0.002333742
0.002378278
0.002428025
0.002479757
0.002532957
0.002582153
0.002624922
0.002656178
0.002669599
0.002660618
0.002626219
0.002563542
0.002468816
0.00233569
0.002162621
0.00196273
0.00176063
0.001583536
0.001453325
0.001380077
0.001281126
0.00113442
0.001068323
0.001068499
0.001123798
0.001232033
0.001395723
0.001615307
0.001868359
0.001959717
0.002053462
0.002147918
0.002239839
0.00232802
0.00241205
0.002492257
0.002569879
0.002646949
0.002726012
0.0028098
0.002900469
0.002999235
0.003106711
0.00322289
0.003347116
0.003478131
0.003614248
0.003753633
0.003894568
0.004035605
0.004175589
0.004313612
0.004448937
0.004580919
0.004708941
0.004832394
0.004950655
0.005063155
0.005171052
0.005272958
0.00536774
0.005454602
0.005532953
0.005602392
0.005662728
0.005714015
0.005756578
0.005791026
0.005818257
0.005839433
0.00585594
0.005869315
0.005881461
0.005895475
0.00588764
0.005889748
0.00590003
0.00591802
0.005943658
0.005976813
0.006017175
0.006064203
0.006117106
0.006174969
0.006236803
0.006301491
0.006368021
0.006435573
0.006503454
0.006571069
0.006637892
0.006703445
0.006767268
0.006828912
0.006887942
0.006943935
0.006996482
0.007045172
0.007089593
0.007129319
0.007163912
0.007192913
0.007215853
0.007232247
0.007241606
0.007243438
0.007237259
0.007222604
0.007199035
0.007166165
0.007123673
0.007071337
0.007009112
0.006937326
0.006856741
0.006768162
0.006672149
0.006569061
0.006459206
0.006342919
0.006220667
0.006093172
0.005961388
0.005826406
0.005689417
0.005551674
0.005414451
0.005279015
0.005146409
0.005017766
0.004894193
0.004776488
0.004665275
0.00456106
0.0044642
0.004374898
0.004293209
0.004219037
0.004152185
0.004092385
0.004039284
0.003992471
0.003951505
0.003915934
0.003885312
0.003859206
0.003837193
0.003818868
0.003803841
0.003791746
0.003782235
0.003774985
0.003769698
0.003766095
0.003763922
0.00376294
0.003762933
0.003763694
0.003765035
0.003766779
0.003768759
0.003770822
0.003772825
0.003774633
0.003776125
0.003777186
0.003777713
0.003777612
0.003776795
0.003775185
0.003772714
0.003769322
0.003764956
0.003759573
0.00375314
0.003745632
0.003737033
0.003727338
0.003716553
0.003704693
0.003691784
0.003677865
0.003662982
0.003647194
0.003630569
0.003613185
0.003595129
0.003576497
0.00355739
0.003537918
0.003518194
0.003498338
0.00347847
0.003458716
0.0034392
0.003420048
0.003401385
0.003383337
0.003366022
0.003349562
0.00333407
0.003319666
0.003306451
0.003294552
0.003284061
0.003275127
0.003267837
0.003262397
0.003258919
0.003257813
0.003259439
0.003264405
0.003272185
3.563395e-05
5.751819e-05
0.0001283479
0.0004366702
0.0007546703
0.001363748
0.001830045
0.002398117
0.003048675
0.003582893
0.003973494
0.004286448
0.004596526
0.004910366
0.005233261
0.005560658
0.005895394
0.006235239
0.006565805
0.006884478
0.007199245
0.007495171
0.007740404
0.00794989
0.008141185
0.008313167
0.008462684
0.008586439
0.008691794
0.008795707
0.00892883
0.009331333
0.009081332
0.008839684
0.008678006
0.008558419
0.008481121
0.008451409
0.008472182
0.008533623
0.008607481
0.008728922
0.008887934
0.009093395
0.009334454
0.009650078
0.01
0.01
0.01
0.01
0.01
0.01
0.01
0.01
0.01
0.01
0.01
0.01
0.01
0.01
0.01
0.01
0.01
0.01
0.01
0.01
0.01
0.01
0.01
0.01
0.01
0.01
0.01
0.01
0.01
0.01
0.01
0.01
0.01
0.01
0.01
0.01
0.01
0.01
0.01
0.01
0.009971485
0.009879164
0.009790337
0.009707593
0.009633035
0.009567972
0.009510994
0.009460376
0.009425821
0.00941165
0.009417808
0.009443504
0.009487095
0.009546145
0.009617508
0.00969713
0.009780244
0.009861678
0.009936726
0.01
0.01
0.01
0.01
0.01
0.01
0.01
0.01
0.01
0.01
0.009962119
0.009895257
0.009804892
0.009691517
0.009557647
0.009407268
0.00924482
0.009075046
0.008901666
0.008728103
0.008554852
0.008384152
0.008220761
0.008068393
0.007929173
0.007804887
0.00769756
0.007608776
0.007539193
0.007488624
0.007456279
0.007440967
0.007441244
0.007455541
0.007482241
0.007519593
0.007564968
0.007616702
0.007678538
0.007751505
0.007837246
0.007937758
0.008055141
0.008191464
0.008348071
0.008524959
0.008720614
0.008932188
0.009156736
0.009389264
0.009625021
0.00985983
0.01
0.01
0.01
0.01
0.01
0.01
0.01
0.01
0.01
0.01
0.01
0.01
0.01
0.01
0.01000001
0.01000001
0.01000001
0.01000001
0.01000001
0.01000001
0.01000005
0.01000054
0.01000284
0.01000328
0.01000155
0.01000024
0.009921571
0.009418299
0.00890315
0.008400129
0.007927965
0.007501652
0.007129243
0.006813501
0.006553979
0.006348511
0.006194041
0.006087035
0.0060236
0.005999628
0.006010883
0.006053044
0.006121695
0.006212286
0.006320086
0.006440073
0.006568157
0.006703422
0.006842116
0.006980457
0.007114608
0.007240826
0.007355724
0.007456544
0.00754176
0.007611924
0.007670205
0.007720423
0.007767205
0.007816041
0.007871324
0.007935753
0.008010256
0.008094151
0.008185394
0.008280961
0.00837725
0.00847089
0.008558553
0.008635883
0.008697538
0.008737624
0.008749983
0.00872732
0.008660451
0.00853631
0.008335172
0.008040111
0.007656066
0.007214365
0.0067448
0.006265899
0.005793419
0.005337809
0.004906882
0.004508867
0.004151953
0.003843204
0.003587402
0.003385585
0.003234675
0.0031293
0.003062652
0.003027954
0.00301875
0.003029858
0.003055667
0.003092909
0.003137467
0.003184719
0.003229748
0.003267702
0.003293837
0.00330325
0.003290444
0.003247514
0.00316337
0.003029333
0.002845574
0.002622189
0.002381499
0.002155648
0.001971263
0.00183944
0.001760053
0.001727582
0.001553297
0.001361569
0.001284372
0.001288639
0.001354543
0.00148011
0.001675221
0.001945631
0.002273028
0.002425063
0.002548682
0.002677245
0.002808823
0.002942367
0.003077371
0.003213806
0.003352312
0.003493914
0.003639607
0.00379012
0.003945739
0.004106215
0.004270751
0.004438082
0.004606662
0.004774881
0.004941257
0.005104565
0.005263884
0.005418579
0.005568228
0.005712531
0.005851219
0.00598398
0.006110339
0.0062309
0.006346937
0.006458278
0.006564616
0.006665528
0.006760544
0.006849215
0.006931176
0.007006194
0.007074209
0.007135378
0.007190111
0.007239083
0.007283189
0.007323572
0.00736113
0.007394498
0.007426498
0.007458978
0.007493304
0.007530463
0.007571091
0.007615524
0.007663815
0.007715719
0.007770812
0.007828548
0.007888242
0.007949153
0.008010633
0.008072119
0.008133111
0.008193173
0.008251941
0.00830906
0.008364175
0.008416944
0.008467042
0.008514162
0.008557993
0.008598213
0.008634471
0.008666388
0.008693549
0.008715503
0.008731769
0.008741842
0.008745199
0.008741307
0.008729638
0.00870968
0.008680954
0.00864303
0.008595541
0.008538201
0.00847094
0.00839414
0.00830843
0.008214347
0.00811224
0.00800236
0.007884964
0.007760396
0.007629205
0.007492188
0.007350325
0.007204725
0.007056614
0.00690729
0.006758105
0.006610345
0.006465229
0.006323941
0.006187555
0.006057008
0.005933091
0.005816422
0.005707448
0.005606452
0.005513568
0.005428782
0.005351958
0.005282861
0.005221157
0.005166436
0.005118254
0.005076164
0.005039718
0.00500847
0.004981969
0.004959776
0.004941466
0.00492663
0.004914886
0.004905873
0.004899253
0.004894712
0.004891957
0.004890715
0.00489073
0.004891762
0.004893587
0.004895995
0.004898788
0.004901782
0.004904804
0.004907691
0.004910294
0.004912471
0.004914094
0.004915041
0.004915202
0.004914477
0.004912775
0.004910013
0.004906119
0.00490103
0.004894696
0.004887074
0.004878133
0.004867857
0.004856237
0.004843282
0.00482901
0.004813453
0.004796657
0.004778681
0.004759596
0.004739486
0.004718445
0.00469658
0.004674007
0.00465085
0.004627243
0.004603325
0.004579243
0.004555146
0.004531189
0.004507527
0.004484318
0.004461719
0.004439888
0.004418977
0.004399141
0.004380525
0.004363279
0.004347544
0.004333472
0.004321217
0.004310939
0.004302867
0.004297157
0.004294234
0.004294081
0.004297332
2.071327e-05
3.333297e-05
5.00527e-05
0.0002186222
0.0003590084
0.0006123029
0.0008640811
0.001094667
0.001385236
0.001668548
0.001974947
0.002373123
0.002844706
0.003379767
0.003983684
0.004759751
0.00625277
0.006852051
0.007433457
0.007955151
0.00841265
0.008807403
0.009156683
0.009474962
0.009768178
0.01
0.01
0.01
0.01
0.01
0.01
0.01
0.01
0.01
0.01
0.01
0.01
0.01
0.01
0.009554878
0.008978938
0.008494779
0.008348615
0.008124793
0.007925599
0.007766148
0.007654826
0.007596724
0.007589195
0.00763285
0.007725553
0.007861687
0.008058046
0.008321738
0.008673411
0.00910888
0.00960877
0.01
0.01
0.01
0.01
0.01
0.01
0.01
0.01
0.01
0.01
0.01
0.01
0.01
0.01
0.01
0.01
0.01
0.01
0.01
0.01
0.01
0.01
0.01
0.01
0.01
0.01
0.01
0.01
0.01
0.01
0.01
0.01
0.01
0.01
0.01
0.01
0.01
0.01
0.01
0.01
0.01
0.01
0.01
0.01
0.01
0.01
0.01
0.01
0.01
0.01
0.01
0.01
0.01
0.01
0.01
0.01
0.01
0.01
0.01
0.01
0.01
0.01
0.01
0.01
0.01
0.01
0.01
0.01
0.01
0.01
0.01
0.01
0.01
0.01
0.01
0.01
0.01
0.01
0.01
0.0099043
0.00973265
0.009565338
0.00940592
0.009257408
0.009122385
0.009003239
0.00890179
0.008819073
0.008755576
0.008711006
0.008684496
0.008674791
0.00868043
0.00869989
0.008731659
0.008774044
0.008824185
0.008885372
0.008958982
0.009046685
0.009150773
0.009273458
0.009416541
0.009580976
0.009766445
0.009971162
0.01
0.01
0.01
0.01
0.01
0.01
0.01
0.01
0.01
0.01
0.01
0.01
0.01
0.01000001
0.01000003
0.01000009
0.01000009
0.01000004
0.01000002
0.01000003
0.01000008
0.01000025
0.01000074
0.01000086
0.01000086
0.01000273
0.01000328
0.01000328
0.01000328
0.0100024
0.01000049
0.01000002
0.01
0.01
0.01
0.009697744
0.009289937
0.008919117
0.008591074
0.00830812
0.008072679
0.007885593
0.007746203
0.00765265
0.007602105
0.007590947
0.007614954
0.007669481
0.007749646
0.007850485
0.007967019
0.008094186
0.008230175
0.008371551
0.008514157
0.008653164
0.008783713
0.008902224
0.009005794
0.00909325
0.009166439
0.009230632
0.009289233
0.00934772
0.009410736
0.009480965
0.009559068
0.009644275
0.009734806
0.009828008
0.00992071
0.01
0.01
0.01
0.01
0.01000001
0.01000004
0.01000023
0.01000033
0.01000021
0.01000005
0.009853041
0.009607194
0.009293514
0.008926252
0.008521201
0.008089894
0.007641928
0.007185145
0.006726786
0.006275398
0.005841731
0.005437532
0.00507325
0.00475602
0.004488975
0.004272286
0.00410355
0.003978644
0.003892155
0.003838505
0.00381192
0.003807641
0.003820943
0.003846868
0.003880617
0.003917651
0.003953281
0.003982281
0.003998622
0.003994295
0.003958301
0.003879055
0.003748452
0.003563943
0.0033322
0.003074038
0.002818429
0.002588241
0.00239641
0.002248261
0.002144079
0.00208275
0.002051571
0.00174892
0.001572035
0.001503092
0.001521543
0.001609823
0.001765682
0.00200045
0.002321783
0.002700367
0.002904653
0.003059563
0.003226222
0.003402292
0.00358583
0.003775215
0.003968942
0.004165682
0.004364268
0.004563559
0.004762344
0.00495928
0.005152927
0.005341855
0.005524784
0.005700717
0.00586903
0.006029495
0.006182229
0.006327597
0.006466099
0.006598268
0.006724558
0.006845551
0.006963464
0.007079425
0.007193933
0.007307048
0.007418527
0.007527931
0.007634718
0.00773831
0.007838138
0.007933684
0.008024544
0.008110483
0.008191459
0.008267664
0.008339363
0.008406795
0.008470628
0.008531627
0.008590566
0.008648154
0.008704974
0.008761453
0.008817851
0.008874222
0.008930421
0.008986234
0.009041373
0.009095578
0.009148586
0.009200174
0.009250125
0.009298242
0.009344584
0.009389167
0.009431916
0.00947273
0.009511511
0.00954816
0.009582558
0.009614552
0.009643938
0.009670454
0.009693778
0.009713528
0.009729266
0.009740497
0.009746688
0.009747269
0.009741653
0.009729243
0.009709453
0.009681727
0.009645557
0.009600489
0.009546135
0.009482348
0.00940934
0.009327482
0.009237071
0.00913809
0.009030801
0.008915472
0.008792501
0.008662509
0.008526289
0.008384767
0.008239067
0.008090448
0.007940237
0.007789745
0.007640237
0.007492976
0.007349182
0.007209966
0.0070763
0.006949006
0.006828753
0.006716047
0.00661124
0.006514524
0.006425955
0.006345473
0.006272925
0.006207911
0.00614998
0.006098732
0.006053849
0.006014948
0.005981565
0.005953241
0.005929526
0.005909985
0.005894205
0.00588179
0.005872369
0.005865593
0.005861132
0.005858679
0.005857944
0.005858655
0.005860557
0.005863409
0.005866984
0.005871069
0.005875463
0.005879978
0.005884434
0.005888667
0.005892518
0.005895842
0.005898502
0.005900371
0.005901333
0.005901279
0.005900111
0.00589774
0.005894087
0.005889085
0.005882676
0.005874815
0.005865471
0.005854624
0.005842269
0.005828414
0.005813083
0.005796315
0.005778163
0.005758696
0.005737994
0.005716154
0.005693284
0.005669505
0.005644947
0.005619753
0.005594074
0.005568068
0.005541901
0.005515744
0.005489773
0.005464167
0.005439108
0.005414774
0.005391346
0.005369
0.005347911
0.005328253
0.005310196
0.005293926
0.005279608
0.00526748
0.005257662
0.005250549
0.005246071
0.005245329
1.954719e-05
3.011486e-05
5.852551e-05
0.00017774
0.0002872607
0.0004583774
0.0005886345
0.0007369209
0.0009118936
0.001082714
0.001282584
0.001541734
0.001837793
0.002190159
0.002649238
0.00354298
0.003955393
0.004398313
0.004863254
0.005348856
0.0058601
0.006388637
0.006919428
0.00744012
0.007936921
0.008399375
0.008846649
0.009335043
0.00979138
0.01
0.01
0.01
0.01
0.01
0.01
0.01
0.01
0.01
0.01
0.01
0.01
0.01
0.01
0.01
0.01
0.01
0.009803304
0.009333919
0.008875815
0.008435304
0.008014414
0.007647865
0.007383907
0.007124473
0.006950706
0.00684341
0.006793476
0.006806165
0.006879223
0.00702443
0.007244971
0.007568323
0.008002549
0.008552707
0.009193192
0.009936985
0.01
0.01
0.01
0.01
0.01
0.01
0.01
0.01
0.01
0.01
0.01
0.01
0.01
0.01
0.01
0.01
0.01
0.01
0.01
0.01
0.01
0.01
0.01
0.01
0.01
0.01
0.01
0.01
0.01
0.01
0.01
0.01
0.01
0.01
0.01
0.01
0.01
0.01
0.01
0.01
0.01
0.01
0.01
0.01
0.01
0.01
0.01
0.01
0.01
0.01
0.01
0.01
0.01
0.01
0.01
0.01
0.01
0.01
0.01
0.01
0.01
0.01
0.01
0.01
0.01
0.01
0.01
0.01
0.01
0.01
0.01
0.01
0.01
0.01
0.01
0.01
0.01
0.01
0.01
0.01
0.01
0.01
0.01
0.01
0.01
0.01
0.01
0.009972234
0.009884146
0.009814609
0.009763678
0.0097308
0.009714989
0.009715025
0.009729632
0.009757624
0.009797892
0.009848853
0.009911172
0.009988411
0.01
0.01
0.01
0.01
0.01
0.01
0.01
0.01
0.01
0.01
0.01
0.01
0.01
0.01
0.01
0.01
0.01
0.01
0.01
0.01000002
0.01000017
0.01000078
0.01000101
0.01000053
0.0100001
0.01000006
0.01000014
0.01000075
0.01000415
0.01002094
0.01001961
0.01000601
0.01000057
0.01000013
0.01000023
0.01000041
0.01000038
0.01000018
0.01000002
0.01
0.01
0.01
0.01
0.01
0.01
0.01
0.009772937
0.009540107
0.009349523
0.009202476
0.009098667
0.00903639
0.009012771
0.009024026
0.009065798
0.009133557
0.009222866
0.00932939
0.009448763
0.00957797
0.009714433
0.009853706
0.009990424
0.01000042
0.01000012
0.01000001
0.01
0.01
0.01
0.01000001
0.01000001
0.01
0.01
0.01
0.01
0.01
0.01
0.01
0.01
0.01
0.01000003
0.01000021
0.01000116
0.01000156
0.01000128
0.01000038
0.01000003
0.01
0.01
0.01000001
0.01000014
0.01000209
0.009805714
0.009453631
0.009078183
0.008678865
0.008258567
0.007823585
0.007383898
0.006952056
0.006541059
0.006162046
0.005823328
0.005530109
0.005283955
0.005083753
0.004926585
0.004808562
0.004725205
0.004672045
0.004644342
0.004637234
0.004646105
0.004666575
0.004694076
0.004723553
0.004749288
0.004764064
0.004758347
0.004721276
0.004642668
0.004514082
0.004331383
0.004100147
0.003836072
0.003557959
0.003283443
0.003028207
0.002804922
0.002622904
0.002488904
0.002403711
0.002364989
0.002272191
0.001977547
0.001805513
0.001747431
0.001783447
0.001897337
0.00208935
0.002368411
0.002734869
0.003146997
0.003431677
0.00362471
0.003833252
0.004054051
0.004282899
0.00451593
0.004749559
0.00498057
0.00520619
0.005424096
0.005632415
0.005829746
0.0060152
0.006188438
0.006349668
0.006499593
0.006639333
0.006770263
0.006893848
0.007011497
0.007124383
0.007234776
0.007345033
0.00745662
0.007570317
0.007686376
0.007804659
0.00792476
0.008046096
0.008167957
0.008289553
0.008410015
0.008528426
0.008643902
0.008755664
0.008863017
0.008965569
0.009063272
0.009156123
0.009244207
0.00932769
0.009406784
0.009481715
0.009552675
0.009619782
0.009683016
0.009742254
0.009797281
0.009848461
0.009896044
0.009940207
0.009981098
0.01
0.01
0.01
0.01
0.01
0.01
0.01
0.01
0.01
0.01
0.01
0.01
0.01
0.01
0.01
0.01
0.01
0.01
0.01
0.01
0.01
0.01
0.01
0.01000002
0.01000015
0.01000041
0.01000042
0.01000038
0.009944985
0.009854129
0.009754815
0.00964723
0.009531795
0.009409071
0.009279539
0.009144184
0.0090043
0.008861171
0.008716044
0.008570177
0.008424877
0.008281424
0.00814102
0.00800476
0.007873622
0.007748445
0.007629918
0.007518576
0.007414798
0.007318813
0.007230712
0.007150469
0.007077984
0.007012962
0.006955028
0.006903727
0.006858759
0.0068198
0.006786408
0.00675814
0.006734563
0.006715257
0.00669982
0.006687867
0.006679034
0.006672975
0.006669365
0.006667896
0.006668278
0.006670236
0.006673514
0.006677866
0.006683062
0.006688883