/*--------------------------------*- C++ -*----------------------------------*\
| =========                 |                                                 |
| \\      /  F ield         | foam-extend: Open Source CFD                    |
|  \\    /   O peration     | Version:     3.1                                |
|   \\  /    A nd           | Web:         http://www.extend-project.de       |
|    \\/     M anipulation  |                                                 |
\*---------------------------------------------------------------------------*/
FoamFile
{
    version     2.0;
    format      ascii;
    class       volScalarField;
    location    "13";
    object      omega;
}
// * * * * * * * * * * * * * * * * * * * * * * * * * * * * * * * * * * * * * //

dimensions      [0 0 -1 0 0 0 0];

internalField   nonuniform List<scalar> 
119952
(
268.1102
328.9056
304.3121
262.5923
233.7471
233.1618
235.8365
240.3776
246.2138
253.0102
260.5295
268.3606
276.35
284.6185
293.2906
302.4962
312.3875
323.1721
335.1403
349.2666
298.5911
301.4851
308.5167
263.8498
262.6988
264.0224
265.5413
266.756
265.521
150.2055
671.9768
547.5589
456.6988
393.9882
348.8201
315.0103
288.5174
267.2026
249.5467
229.8584
189.7972
162.4445
143.9366
130.6592
120.4879
112.3529
105.6552
100.0491
95.25652
75.02287
71.93599
69.00285
66.27581
63.8257
61.6685
59.79554
58.20124
56.87795
55.83099
55.07532
54.43826
53.90795
53.46205
53.06082
52.6623
52.22912
51.71774
51.07997
51.40326
51.62977
50.88744
50.10899
49.39119
48.70113
47.82781
46.8101
45.70641
44.55776
43.39349
42.23162
41.08361
39.95584
38.85611
37.80488
36.79407
35.81291
34.84817
33.88361
32.93951
32.04618
31.11337
30.20162
29.49544
28.90887
28.42847
28.16708
28.84147
30.60066
30.68491
30.58891
30.41536
30.22033
30.0381
29.88503
29.76749
29.68648
29.64058
29.62786
29.64796
29.7017
29.79067
29.91612
30.07929
30.2825
30.53348
30.84186
31.24216
31.74484
32.32522
33.00259
33.84482
34.94158
36.40537
38.37538
41.02177
44.52391
48.98108
54.232
59.67165
64.31494
67.34369
68.58192
68.29456
66.84417
64.56371
61.77345
58.76106
55.74957
52.89914
50.29041
47.96216
45.92267
44.15775
42.63746
41.31246
40.15526
39.1585
38.36916
37.78682
37.36998
37.10084
36.97034
36.97112
37.09568
37.32238
37.61881
37.96639
38.33746
38.69476
39.0146
39.26692
39.43859
39.53125
39.55771
39.5391
39.49905
39.46047
39.44343
39.46504
39.54458
39.70717
39.97545
40.41173
41.10674
42.22929
44.07125
47.33145
53.70463
66.86901
82.61727
92.06754
96.89371
97.86172
95.70383
91.58736
86.52695
81.09391
75.56949
70.16223
65.10423
60.62444
56.84491
53.76814
51.34609
49.50193
48.14307
47.13438
49.47203
54.05903
57.62544
61.32776
67.36791
76.74551
85.02444
92.02096
96.8489
96.45398
90.91581
83.41076
75.3246
68.49346
63.61457
58.65526
53.39414
49.26539
46.3587
44.38329
43.22028
42.67919
42.48554
42.32744
42.10672
41.8582
41.64916
41.54072
41.56981
41.737
42.02028
42.39925
42.85125
43.34811
43.82849
43.62847
42.6286
41.82206
41.16241
40.64723
40.26675
39.99812
39.8096
39.6744
39.57667
39.50813
39.46403
39.44006
39.43162
39.43026
39.41707
39.36662
39.29261
39.2004
39.09043
38.96347
38.82136
38.66628
38.50083
38.32803
38.15108
37.97338
37.7984
37.62816
37.46491
37.31016
37.16477
37.02863
36.90014
36.77434
30.18557
28.88665
27.64391
26.57301
25.72303
25.09124
24.6443
24.3353
24.11928
23.96146
23.83844
23.73509
23.64147
23.55131
23.46084
23.36791
23.27138
23.17075
23.06586
22.95676
22.84351
22.72621
22.60492
22.47968
22.35049
22.21739
22.0804
21.93958
21.79506
21.64702
21.49576
21.34174
21.18555
21.02804
20.87027
20.71348
20.55909
20.40843
20.26255
20.12205
19.98749
19.86006
19.74183
19.63561
19.5456
19.47693
19.42886
19.39647
19.37869
19.37364
19.37902
19.39232
19.41128
19.43586
19.49202
19.48285
19.44432
19.37882
19.28928
19.18094
19.05835
18.92573
18.78649
18.64271
18.49659
18.35112
18.20842
18.06901
17.93351
17.80228
17.6754
17.55274
17.43414
17.31937
17.20822
17.10051
16.99607
16.89476
16.79649
16.70117
16.60875
16.51916
16.43239
16.34843
16.26731
16.18909
16.1138
16.04151
15.97225
15.90606
15.84297
15.78298
15.7261
15.67233
15.62164
15.57402
15.5294
15.48776
15.44901
15.41309
15.37988
15.34929
15.32118
15.2954
15.27178
15.25015
15.23029
15.21198
15.19498
15.17903
15.16388
15.14924
15.13483
15.12036
15.10551
15.08999
15.07352
15.05583
15.03664
15.01571
14.9928
14.9677
14.9402
14.91013
14.87729
14.84151
14.8026
14.76036
14.71455
14.66479
14.61053
14.55093
14.48451
14.40842
14.31619
14.19358
14.00876
13.72659
13.66921
713.4782
588.9281
527.7432
485.025
448.7614
416.5385
387.8243
362.3229
338.7224
280.375
219.7405
184.9036
163.5154
149.3907
139.3365
131.6402
125.3675
120.0116
95.08513
90.51841
86.19628
82.22937
78.69757
75.6051
72.91035
70.56211
68.50764
66.6875
65.14788
63.69272
62.25425
60.84253
59.47071
58.15018
56.88388
55.66552
54.48118
53.61575
52.9294
52.0225
50.96352
49.78781
48.52337
47.19899
45.84355
44.48537
43.15278
41.86815
40.64219
39.48903
38.41259
37.41607
36.50303
35.67474
34.92949
34.27088
31.16697
30.72765
30.33512
29.98061
29.65886
29.36898
29.11367
28.89767
28.72531
28.59703
28.51181
28.45739
28.40966
28.37088
28.35806
28.36192
28.369
28.37484
28.38453
28.41486
28.40901
28.34529
28.24664
28.101
27.88982
27.60557
27.25427
26.84525
26.38931
25.89833
25.3839
24.8564
24.32453
23.79613
23.28191
22.78284
22.29122
21.80675
21.32984
20.86223
20.40415
19.95962
19.54403
19.16539
18.82331
18.52568
18.27996
18.0768
17.88736
17.71144
17.5613
17.43768
17.33861
17.2609
17.20129
17.15719
17.12667
17.10829
17.10093
17.10368
17.11594
17.13683
17.16526
17.20043
17.24191
17.29003
17.34596
17.41173
17.49107
17.59331
17.73808
17.93896
18.21896
18.60755
19.13791
19.84459
20.75592
21.87821
23.17284
24.53969
25.83552
26.93044
27.74537
28.25161
28.45388
28.37561
28.05181
27.52433
26.83864
26.04112
25.17595
24.2828
23.39498
22.53924
21.73639
21.00132
20.33001
19.72164
19.17714
18.69487
18.27177
17.90435
17.58873
17.32098
17.09751
16.91555
16.77402
16.67058
16.59157
16.52777
16.47067
16.41302
16.35039
16.28046
16.20378
16.12305
16.04228
15.96599
15.89851
15.84395
15.80725
15.79529
15.81704
15.88724
16.03308
16.30054
16.7625
17.56046
18.92873
20.92341
23.14495
25.37682
27.50188
29.52605
31.49604
33.36807
35.02755
36.34357
37.1948
37.50519
37.26634
36.52881
35.37487
33.91998
32.28044
30.57619
28.89465
27.31835
26.73443
25.63147
24.76363
24.23831
24.19134
24.61633
25.37439
26.44703
27.84603
29.80323
32.63259
36.29936
40.32716
44.07628
46.51958
46.75728
44.67018
40.68113
35.77869
31.03786
26.95033
23.62425
20.99446
18.95062
17.38366
16.1893
15.28297
14.60773
14.12329
13.79517
13.59293
13.4896
13.45979
13.47914
13.52379
13.5709
13.6091
13.63438
13.63946
13.62134
13.58091
13.52271
13.453
13.37721
13.29894
13.22048
13.14373
13.07065
13.00337
12.94399
12.89428
12.85553
12.82865
12.81238
12.80076
12.79541
12.79626
12.80278
12.81443
12.83065
12.85095
12.87486
12.90186
12.93139
12.96276
12.99514
13.02755
13.0589
13.08802
13.11696
12.13571
12.09788
12.06081
12.01337
11.95225
11.87812
11.79343
11.70125
11.60451
11.50571
11.40697
11.30963
11.21437
11.12155
11.03135
10.94378
10.8588
10.77632
10.6962
10.61829
10.5424
10.46831
10.39579
10.32461
10.2545
10.18523
10.11658
10.04834
9.980329
9.912419
9.844517
9.776586
9.708648
9.640783
9.573118
9.505816
9.439039
9.372906
9.307494
9.242924
9.179507
9.117779
9.058415
9.002128
8.949581
8.901177
8.856783
8.816168
8.77924
8.745809
8.715585
8.688154
8.663086
8.640635
8.619672
8.597269
8.573629
8.548668
8.521826
8.492523
8.460361
8.425074
8.386498
8.344645
8.299669
8.251796
8.201393
8.148882
8.094683
8.039205
7.982835
7.925932
7.868824
7.811803
7.755128
7.699016
7.643653
7.589197
7.535772
7.483483
7.43241
7.382622
7.334171
7.287104
7.241459
7.197268
7.154558
7.113353
7.073671
7.035527
6.998932
6.963896
6.930422
6.898516
6.868175
6.839398
6.812178
6.786506
6.762372
6.739757
6.718644
6.699006
6.680814
6.664033
6.648622
6.634535
6.621718
6.610112
6.599652
6.590267
6.581877
6.574398
6.567738
6.561799
6.556479
6.551668
6.547255
6.543121
6.539144
6.535199
6.531161
6.526896
6.522277
6.517165
6.511431
6.504923
6.497508
6.489003
6.479253
6.467992
6.454982
6.439746
6.421778
6.400087
6.373648
6.341396
6.304076
6.267283
6.234484
552.9765
488.6866
436.3455
398.0016
369.0194
346.8488
329.8348
317.2766
308.8527
297.1497
167.6118
156.7346
147.2195
138.8058
131.8632
127.8093
125.6468
123.576
117.256
77.05639
75.53768
75.10103
74.6138
74.09643
73.55975
72.99543
72.39608
71.72473
70.643
68.241
66.11447
64.66349
63.64799
62.84945
62.14618
61.47775
60.81536
60.14305
60.38233
59.75178
58.76228
57.65957
56.56287
55.51943
54.54221
53.62893
52.77384
51.97639
51.20678
50.44216
49.67639
48.91242
48.15969
47.42746
46.72182
46.05142
42.93037
42.37773
41.86184
41.37183
40.89999
40.44175
39.99578
39.56264
39.14372
38.73844
38.3454
37.96456
37.5917
37.22325
36.85739
36.48898
36.11047
35.71986
35.31521
34.89457
34.45605
33.99816
33.51895
33.016
32.48529
31.92427
31.34209
30.749
30.15616
29.57506
29.01566
28.48578
27.99155
27.53669
27.1221
26.74557
26.4035
26.08438
25.82995
25.58598
25.35096
25.12337
24.9044
24.69777
24.50858
24.34199
24.2012
24.08642
23.99211
23.91612
23.87004
23.84641
23.83751
23.83697
23.83927
23.84169
23.84023
23.83433
23.81649
23.7709
23.69436
23.58202
23.4259
23.21943
22.96203
22.6578
22.31324
21.93636
21.5358
21.12007
20.69675
20.27247
19.85367
19.45026
19.05985
18.68152
18.31505
17.96088
17.62014
17.2946
16.98874
16.70822
16.45574
16.23384
16.0439
15.88552
15.74593
15.62385
15.52262
15.44282
15.38272
15.33949
15.31074
15.29501
15.29146
15.29931
15.3175
15.34456
15.3786
15.4177
15.45985
15.50289
15.54512
15.58624
15.62757
15.67094
15.71686
15.76509
15.8194
15.89401
16.00388
16.16676
16.40183
16.72753
17.1583
17.69912
18.33704
19.0345
19.73457
20.37468
20.90167
21.28081
21.49623
21.54698
21.44283
21.20058
20.84137
20.38914
19.86889
19.30526
18.72106
18.1365
17.56861
17.03158
16.53736
16.08559
15.6763
15.30929
14.98319
14.69591
14.44486
14.22717
14.03997
13.88054
13.7466
13.63658
13.54883
13.47825
13.41953
13.36789
13.31979
13.27325
13.22785
13.18441
13.1445
13.10983
13.08177
13.06138
13.0501
13.05018
13.06507
13.10118
13.17051
13.29138
13.49276
13.82756
14.36905
15.13785
16.06939
17.116
18.24272
19.41335
20.61343
21.8245
23.00495
24.09761
25.03636
25.75915
26.22632
26.42325
26.35339
26.03412
25.49634
24.77962
23.93793
23.02309
22.12934
21.21225
20.32754
19.51597
18.80612
18.22206
17.79151
17.55362
17.568
17.91563
18.6821
19.93686
21.70613
23.88694
26.21102
28.40394
30.31791
31.85127
32.88042
33.1844
32.44077
30.53601
27.79044
24.76538
21.92052
19.47184
17.46149
15.84818
14.56513
13.55568
12.77037
12.16665
11.70837
11.36479
11.10961
10.92052
10.77892
10.66862
10.57639
10.49245
10.41033
10.32675
10.24106
10.15452
10.06946
9.9886
9.914557
9.849537
9.795227
9.752726
9.722543
9.704632
9.69844
9.702977
9.71469
9.730909
9.749573
9.768957
9.787659
9.804605
9.819041
9.830509
9.838793
9.843851
9.845753
9.844609
9.840522
9.833488
9.823622
9.808282
9.818451
9.814143
9.797786
9.770726
9.733886
9.68786
9.633316
9.57122
9.502775
9.42927
9.352115
9.272691
9.192083
9.111287
9.031149
8.952332
8.87532
8.80043
8.727827
8.657545
8.589518
8.523605
8.45962
8.397344
8.336539
8.276965
8.21838
8.160556
8.103281
8.046369
7.989664
7.933043
7.876423
7.819755
7.763023
7.706228
7.649367
7.592389
7.535183
7.477711
7.42021
7.363157
7.307071
7.252412
7.19954
7.148673
7.099824
7.052952
7.008074
6.965199
6.924279
6.885218
6.847797
6.811857
6.777435
6.743956
6.711104
6.678496
6.645691
6.612347
6.578222
6.543109
6.50683
6.469272
6.430428
6.390346
6.349108
6.306855
6.263745
6.219952
6.175649
6.131011
6.086206
6.041393
5.996713
5.95229
5.908234
5.86464
5.82159
5.779153
5.737391
5.696356
5.656098
5.616659
5.578082
5.540404
5.503661
5.467885
5.433108
5.399357
5.366659
5.335037
5.304511
5.275101
5.24682
5.219683
5.193699
5.168876
5.145218
5.122725
5.101395
5.081222
5.062195
5.044301
5.02752
5.01183
4.997204
4.983612
4.971018
4.959384
4.948664
4.938812
4.929775
4.921495
4.913912
4.906961
4.900572
4.894671
4.889179
4.884015
4.879092
4.874322
4.869609
4.864859
4.859962
4.854825
4.849315
4.843334
4.836708
4.829328
4.820925
4.811373
4.800228
4.787405
4.772309
4.755312
4.73598
4.716203
4.696856
324.4614
235.1333
334.194
149.9404
116.9079
85.2982
73.77183
64.09486
56.18497
52.38616
50.85311
50.05994
49.35216
48.75767
48.1774
47.66357
47.19284
46.77106
46.45098
46.21649
46.01478
45.91881
46.10305
46.46554
46.88804
47.36367
47.89722
48.50015
49.13339
49.72559
50.1655
49.09722
49.73619
50.27821
50.70654
51.04079
51.28693
51.44478
51.51498
51.50482
51.42725
51.26285
51.02105
50.71283
50.34912
49.92892
49.45275
48.93872
48.39984
47.84473
47.28669
46.72927
46.16866
45.60539
45.04192
44.48163
43.92828
43.3853
42.85588
42.34214
41.84478
41.36396
40.89875
40.44788
40.01031
39.58272
39.16396
38.74588
38.37793
38.00819
37.64089
37.27537
36.91064
36.54714
36.18663
35.83153
35.4837
35.14334
34.8089
34.47721
34.14494
33.80997
33.47216
33.13486
32.79931
32.45888
32.1072
31.73898
31.34938
30.93465
30.49346
30.02741
29.54396
29.05345
28.55609
28.05736
27.56598
27.0908
26.63981
26.21936
25.834
25.48562
25.17304
24.89172
24.63542
24.3957
24.16689
23.94386
23.72288
23.50259
23.28514
23.07517
22.87814
22.69874
22.53946
22.39914
22.2789
22.17963
22.09655
22.0248
21.96022
21.8997
21.84117
21.78336
21.72508
21.6651
21.59942
21.52178
21.42661
21.30789
21.15898
20.9746
20.75275
20.49468
20.2041
19.88645
19.54821
19.19612
18.83659
18.47532
18.11743
17.76868
17.43431
17.11279
16.8049
16.51153
16.23401
15.97418
15.73491
15.51993
15.33244
15.17476
15.04813
14.95196
14.88166
14.83278
14.80294
14.78985
14.79109
14.80457
14.82926
14.86547
14.9141
14.9754
15.04816
15.13014
15.21841
15.30921
15.39791
15.47984
15.5516
15.61261
15.66589
15.71488
15.7577
15.78548
15.79058
15.77797
15.76735
15.77744
15.8265
15.93066
16.10118
16.34143
16.64561
16.99741
17.36874
17.72519
18.03239
18.26348
18.40197
18.44096
18.38095
18.22775
17.99122
17.68423
17.32169
16.9196
16.49394
16.05983
15.63075
15.21802
14.83092
14.47581
14.15309
13.86296
13.60461
13.37648
13.17639
13.00181
12.85028
12.71973
12.60888
12.51747
12.4462
12.39318
12.35529
12.32915
12.31185
12.30137
12.29661
12.29707
12.3026
12.31295
12.32744
12.34493
12.36401
12.38365
12.40401
12.42756
12.45964
12.50854
12.58705
12.71708
12.93013
13.24954
13.6786
14.20595
14.80696
15.45807
16.14758
16.86838
17.60709
18.33906
19.02822
19.63266
20.11548
20.45355
20.63523
20.65863
20.53002
20.26322
19.87936
19.40016
18.85554
18.27184
17.6734
17.08136
16.51518
15.99503
15.5445
15.19144
14.97161
14.93089
15.11786
15.57789
16.3514
17.43906
18.75759
20.18165
21.62649
23.07771
24.53272
25.92991
27.10574
27.85651
27.97902
27.34355
25.97682
24.08065
21.95806
19.87919
17.99872
16.37416
15.01105
13.87972
12.95667
12.21493
11.6263
11.16362
10.80182
10.5185
10.29419
10.11265
9.961138
9.83044
9.71455
9.610154
9.515966
9.432047
9.359166
9.298309
9.250321
9.215668
9.194324
9.185777
9.189093
9.20305
9.225377
9.251437
9.277701
9.301536
9.32094
9.334459
9.34116
9.340596
9.332742
9.317913
9.296685
9.269817
9.238159
9.202484
9.163626
9.121769
9.080073
9.037076
8.991743
8.943444
8.891765
8.836396
8.777186
8.714185
8.647621
8.577944
8.50572
8.431642
8.356329
8.280429
8.204617
8.129495
8.055561
7.983187
7.912603
7.843912
7.777113
7.712138
7.648874
7.587179
7.526889
7.467828
7.409813
7.352662
7.296202
7.240271
7.184725
7.129442
7.074323
7.019292
6.964294
6.909282
6.854209
6.798979
6.743401
6.687251
6.630562
6.573725
6.517247
6.461569
6.406999
6.353684
6.301636
6.250831
6.201294
6.153075
6.10621
6.060707
6.016536
5.973698
5.932172
5.891751
5.852226
5.813405
5.775095
5.737112
5.699274
5.661403
5.623349
5.585012
5.546323
5.507244
5.467783
5.427983
5.387916
5.347663
5.307306
5.266925
5.226607
5.186439
5.146498
5.106854
5.067564
5.028681
4.990247
4.952302
4.914877
4.878005
4.841712
4.806028
4.770978
4.736591
4.702892
4.66991
4.637671
4.606201
4.575524
4.545667
4.516651
4.488499
4.461231
4.434866
4.409421
4.384908
4.361341
4.338729
4.317077
4.296389
4.276664
4.257899
4.240087
4.223216
4.207273
4.192241
4.1781
4.164824
4.152388
4.14076
4.129908
4.119793
4.110376
4.101612
4.093454
4.08585
4.078745
4.072079
4.065791
4.059813
4.054074
4.0485
4.04301
4.037523
4.031946
4.026187
4.020131
4.013673
4.006663
3.99898
3.990441
3.98094
3.970326
3.958609
3.945795
3.932275
3.919005
298.9522
200.5988
151.1133
133.5222
107.7809
89.27289
76.10197
70.76184
64.95244
61.4996
58.55294
54.74776
51.02035
47.54797
44.41548
41.01843
35.75457
34.5591
33.67651
33.19022
33.05554
33.15765
33.36819
33.63741
33.95728
34.33195
34.78704
35.30572
35.87409
36.48885
37.15132
37.86409
38.62966
39.44672
40.31176
41.22502
42.18244
43.18028
44.2249
45.29934
46.43495
47.50159
48.14301
48.70932
49.17823
49.53993
49.79679
49.95471
50.02383
50.01207
49.92781
49.77977
49.56569
49.28413
48.93397
48.52225
48.06936
47.58591
47.08869
46.58632
46.08155
45.57705
45.07508
44.57611
44.08047
43.58864
43.10184
42.62206
42.15171
41.69336
41.2487
40.81856
40.40244
39.99914
39.60733
39.22504
38.84786
38.4722
38.09579
37.72108
37.35077
36.98487
36.61986
36.25271
35.88262
35.51133
35.14221
34.77839
34.42063
34.06627
33.71097
33.35314
32.99471
32.63941
32.2878
31.9366
31.57986
31.21202
30.82916
30.42796
30.0055
29.56037
29.09344
28.60854
28.11252
27.61725
27.1327
26.66732
26.22946
25.82633
25.46334
25.1437
24.86709
24.62845
24.41859
24.22614
24.03936
23.84829
23.64721
23.43471
23.21308
22.98752
22.76459
22.55031
22.34905
22.16439
21.99701
21.8442
21.7013
21.56412
21.42972
21.29658
21.16428
21.03335
20.90456
20.77857
20.65489
20.53154
20.40526
20.27161
20.12504
19.95977
19.77109
19.55651
19.31584
19.05088
18.76513
18.46329
18.15055
17.83209
17.51266
17.19647
16.88759
16.59124
16.30907
16.04244
15.793
15.56277
15.35428
15.17055
15.01488
14.89029
14.7988
14.7408
14.71548
14.71965
14.74819
14.79576
14.85785
14.93128
15.01469
15.10923
15.21826
15.34512
15.49021
15.65035
15.82058
15.9949
16.16546
16.32334
16.46105
16.5744
16.66405
16.7363
16.79762
16.84213
16.85015
16.80427
16.70576
16.57575
16.44246
16.32895
16.25418
16.23006
16.2613
16.34514
16.47121
16.62194
16.77474
16.90683
16.99881
17.03756
17.01625
16.93272
16.78872
16.58895
16.34042
16.05209
15.73424
15.39782
15.05376
14.71229
14.38234
14.07127
13.78498
13.52613
13.29501
13.09082
12.91184
12.75565
12.61951
12.50089
12.39839
12.31258
12.2462
12.20176
12.17897
12.17581
12.18892
12.21478
12.25069
12.29474
12.34517
12.40021
12.45791
12.5159
12.57099
12.61916
12.65598
12.67894
12.6897
12.69245
12.69208
12.69367
12.7065
12.7505
12.85185
13.0307
13.28662
13.59873
13.94943
14.3335
14.74955
15.19236
15.64954
16.10125
16.52268
16.88866
17.17775
17.37308
17.46519
17.45258
17.34047
17.1379
16.85688
16.51224
16.12028
15.69719
15.25784
14.81675
14.38889
13.99001
13.63786
13.35451
13.16569
13.09835
13.18203
13.44904
13.92006
14.58485
15.40878
16.36326
17.43634
18.61277
19.86907
21.16898
22.43366
23.55685
24.41379
24.87448
24.83067
24.23072
23.11859
21.63456
19.9713
18.31071
16.76695
15.39497
14.21508
13.22283
12.40546
11.74339
11.21318
10.7912
10.45569
10.18776
9.972022
9.796542
9.652622
9.534289
9.437704
9.360541
9.301417
9.259399
9.233605
9.222931
9.225963
9.240983
9.265986
9.298759
9.335034
9.369994
9.400064
9.422541
9.435459
9.437554
9.428224
9.407472
9.375796
9.3341
9.28362
9.225822
9.16223
9.094379
9.023529
8.951048
8.877824
8.804313
8.730698
8.656982
8.583042
8.50871
8.433835
8.358291
8.282022
8.205103
8.127676
8.049934
7.972093
7.894478
7.81742
7.741226
7.66615
7.592361
7.519933
7.448876
7.379174
7.310793
7.243689
7.177802
7.113061
7.049382
6.986676
6.924851
6.863816
6.803485
6.743779
6.68463
6.62598
6.567777
6.509969
6.452497
6.395276
6.338126
6.28073
6.222841
6.164595
6.106442
6.048907
5.992411
5.937039
5.882708
5.829331
5.776899
5.725455
5.675054
5.625737
5.577533
5.530472
5.48455
5.439672
5.395743
5.352685
5.310407
5.268798
5.227739
5.187109
5.146801
5.106727
5.066813
5.027004
4.987273
4.94761
4.908082
4.868758
4.829663
4.790794
4.752182
4.713883
4.675941
4.63839
4.60126
4.564572
4.528344
4.492591
4.457324
4.422555
4.388297
4.354561
4.321361
4.288713
4.256632
4.225136
4.194246
4.163981
4.134362
4.10541
4.077147
4.049593
4.02277
3.996696
3.971391
3.946872
3.923154
3.900251
3.878173
3.85693
3.836526
3.816963
3.798242
3.780359
3.763308
3.747078
3.731659
3.717034
3.703186
3.690095
3.677738
3.66609
3.655121
3.644801
3.635094
3.625963
3.617366
3.609259
3.601593
3.594316
3.587373
3.580705
3.574249
3.567937
3.561697
3.555455
3.549126
3.542623
3.53585
3.528712
3.52111
3.512961
3.504202
3.494792
3.484779
3.474235
3.464022
153.1336
113.6144
173.8596
85.71965
73.15872
62.307
58.91538
56.40003
53.68041
52.43091
50.91079
48.81351
46.8492
44.79815
42.44416
38.00645
36.90497
35.88062
34.91416
34.00622
33.11687
32.28354
31.55249
30.9455
30.47746
30.14871
29.88974
29.63437
29.53333
29.61104
29.85453
30.22159
30.66305
31.15677
31.70372
32.31071
32.96038
33.65045
34.38072
35.15175
35.96472
36.82298
37.73061
38.68533
39.69618
40.76845
41.86728
42.97938
44.12358
45.12345
46.00014
46.72824
47.23178
47.61369
47.84764
47.95191
47.95621
47.88341
47.75466
47.57946
47.36666
47.11682
46.83895
46.54244
46.24833
45.95929
45.68788
45.43417
45.18311
44.92846
44.66644
44.39414
44.10872
43.81075
43.49942
43.17457
42.83828
42.49459
42.14765
41.80083
41.45799
41.12215
40.79332
40.47051
40.15306
39.83784
39.51784
39.18765
38.84813
38.50323
38.15488
37.80071
37.43653
37.05938
36.66888
36.26765
35.86048
35.45187
35.04311
34.63188
34.22022
33.8081
33.39361
32.98207
32.57773
32.17826
31.77659
31.36671
30.94589
30.51233
30.06372
29.59855
29.11759
28.62451
28.12574
27.6302
27.15107
26.70695
26.30755
25.96042
25.67073
25.44003
25.26309
25.12649
25.01148
24.89788
24.76754
24.60811
24.41629
24.19703
23.96013
23.71645
23.47468
23.2393
23.01578
22.7994
22.58641
22.37345
22.15727
21.93614
21.71031
21.48155
21.25245
21.02607
20.80523
20.59211
20.38757
20.19096
20.00018
19.81164
19.62057
19.42184
19.21099
18.98504
18.74269
18.48449
18.21254
17.93007
17.64094
17.34918
17.0586
16.77271
16.49481
16.22877
15.97909
15.74811
15.53843
15.35319
15.19603
15.07065
14.98049
14.92817
14.91507
14.94089
15.00326
15.09731
15.21578
15.35067
15.49559
15.64761
15.80806
15.98306
16.18178
16.41028
16.66568
16.93799
17.21611
17.48858
17.74115
17.96035
18.13891
18.27633
18.37769
18.45268
18.50908
18.53386
18.494
18.36952
18.16943
17.91894
17.65408
17.40293
17.18568
17.0114
16.88183
16.79493
16.74453
16.71978
16.70611
16.68758
16.65058
16.58593
16.48821
16.35519
16.18703
15.98578
15.75514
15.50026
15.22746
14.94383
14.65691
14.37431
14.10311
13.84936
13.61789
13.41226
13.23311
13.07939
12.9486
12.83723
12.74165
12.65854
12.58701
12.53102
12.49835
12.49323
12.51719
12.56783
12.63951
12.72608
12.8233
12.92833
13.03785
13.14792
13.25483
13.35434
13.44097
13.50827
13.5485
13.55656
13.53433
13.49052
13.43089
13.35587
13.26762
13.18231
13.13139
13.14456
13.22765
13.36292
13.53376
13.73528
13.96549
14.21967
14.48986
14.76427
15.02794
15.26456
15.4582
15.59509
15.66575
15.6656
15.59392
15.45361
15.25094
14.99469
14.69508
14.36281
14.00874
13.64379
13.27882
12.92473
12.59337
12.29822
12.05428
11.87817
11.78886
11.80713
11.95094
12.22941
12.64359
13.19444
13.88442
14.71478
15.68194
16.76459
17.90211
19.02877
20.09048
21.03518
21.81527
22.36075
22.58749
22.41154
21.79971
20.79737
19.52362
18.13023
16.75399
15.48004
14.34868
13.37612
12.56062
11.88943
11.34588
10.91073
10.56508
10.29216
10.07807
9.911861
9.785105
9.691474
9.62618
9.585461
9.566118
9.565204
9.579802
9.606946
9.643607
9.686818
9.733279
9.777375
9.81478
9.84219
9.857144
9.857962
9.843725
9.814235
9.769916
9.711793
9.641357
9.560445
9.471108
9.375457
9.275429
9.172916
9.06964
8.966846
8.865377
8.765749
8.668206
8.572792
8.479419
8.38791
8.297987
8.209391
8.121821
8.035153
7.949234
7.863989
7.779406
7.695525
7.612432
7.530208
7.448876
7.368439
7.288927
7.210399
7.132918
7.056542
6.981317
6.907274
6.834435
6.762809
6.692396
6.62319
6.555176
6.488339
6.422659
6.35811
6.294655
6.232234
6.17076
6.110077
6.049875
5.989786
5.929675
5.869757
5.810465
5.752166
5.694984
5.638828
5.583573
5.529178
5.475685
5.423186
5.371689
5.321177
5.271659
5.22314
5.175592
5.128976
5.083257
5.038385
4.994298
4.950927
4.9082
4.866046
4.824403
4.783214
4.742435
4.702038
4.662015
4.622356
4.583085
4.544229
4.505818
4.467848
4.430327
4.393276
4.35671
4.320635
4.285054
4.249965
4.215368
4.181258
4.147633
4.114492
4.081835
4.049664
4.017983
3.986801
3.956126
3.925971
3.89635
3.867279
3.838774
3.810855
3.783539
3.756845
3.730794
3.705404
3.680693
3.656679
3.633379
3.610805
3.588969
3.567882
3.547549
3.527975
3.50916
3.491104
3.473801
3.457246
3.441428
3.426337
3.411959
3.398278
3.385276
3.372932
3.361223
3.350123
3.339603
3.329632
3.320174
3.31119
3.302641
3.29448
3.28666
3.27913
3.271836
3.264721
3.257723
3.250777
3.243817
3.236772
3.229569
3.222144
3.214432
3.206394
3.197988
3.189242
3.180159
3.171545
60.30383
46.09012
45.76628
43.44653
42.33139
40.97854
39.85072
38.84838
37.97192
36.69954
33.84032
33.48177
33.12865
32.78922
32.43258
32.05147
31.68269
31.35764
31.08814
30.86308
30.56305
30.0642
29.58607
29.13655
28.72131
28.34407
28.02159
27.76836
27.58525
27.47206
27.42376
27.4333
27.51261
27.68711
27.96711
28.34685
28.80569
29.31881
29.884
30.50585
31.17154
31.87862
32.62979
33.42675
34.27005
35.15904
36.10233
37.11473
38.17371
39.2841
40.47776
41.60234
42.60459
43.47632
44.17258
44.68296
45.00976
45.15479
45.1549
45.03694
44.83662
44.59479
44.34606
44.11531
43.91759
43.76683
43.68264
43.67871
43.74863
43.89155
44.0884
44.30654
44.51889
44.69973
44.83697
44.9242
44.95748
44.93741
44.8657
44.74461
44.58043
44.38321
44.16425
43.93251
43.69522
43.46098
43.23344
43.01088
42.79089
42.57053
42.34103
42.09006
41.81308
41.51637
41.20545
40.88038
40.53296
40.15506
39.74196
39.29466
38.82085
38.32973
37.82492
37.30196
36.75769
36.21249
35.66354
35.11262
34.56798
34.03784
33.52228
33.01411
32.50727
32.00097
31.4957
30.9902
30.48326
29.97554
29.47052
28.97435
28.49542
28.04418
27.64613
27.32271
27.08161
26.92872
26.86144
26.86068
26.89357
26.92303
26.91454
26.84169
26.6923
26.47437
26.2094
25.92405
25.64145
25.37862
25.1272
24.86596
24.58553
24.28291
23.95907
23.61615
23.25765
22.88893
22.5162
22.14563
21.78272
21.43192
21.09651
20.77833
20.47776
20.19362
19.92315
19.66232
19.40652
19.15129
18.89315
18.6299
18.36087
18.08674
17.80935
17.53126
17.25533
16.98446
16.72149
16.46935
16.23136
16.01247
15.81827
15.65272
15.52028
15.42559
15.37281
15.36493
15.40331
15.48742
15.61439
15.77874
15.97218
16.18386
16.40332
16.6245
16.84783
17.08145
17.34074
17.64291
17.99325
18.37538
18.76361
19.1391
19.4857
19.78296
20.01689
20.18875
20.31029
20.39581
20.45611
20.48886
20.46204
20.33458
20.10188
19.78856
19.42779
19.05992
18.71525
18.40895
18.13942
17.8998
17.68624
17.49602
17.32429
17.16428
17.00816
16.84861
16.6806
16.50118
16.30865
16.10238
15.88261
15.6506
15.40874
15.16034
14.90952
14.66123
14.42128
14.19585
13.99043
13.80936
13.6564
13.53328
13.4387
13.36857
13.31693
13.27734
13.2434
13.21437
13.20144
13.21839
13.27357
13.37028
13.50273
13.65827
13.82444
13.99448
14.1655
14.33224
14.48697
14.6235
14.73747
14.82376
14.87429
14.87956
14.83544
14.74503
14.62288
14.47963
14.3119
14.11482
13.90413
13.71877
13.59885
13.56124
13.59084
13.66047
13.75402
13.8647
13.98743
14.11791
14.25136
14.38113
14.49835
14.59293
14.6547
14.67497
14.64777
14.57006
14.44166
14.26513
14.04514
13.78786
13.50063
13.19153
12.86898
12.54125
12.21652
11.90315
11.60998
11.34664
11.12395
10.95407
10.85029
10.82572
10.89156
11.05734
11.33331
11.73014
12.25661
12.91524
13.69576
14.57305
15.5124
16.47194
17.40486
18.27403
19.05331
19.72024
20.23882
20.54871
20.57799
20.26344
19.60227
18.66372
17.562
16.41311
15.308
14.30281
13.42251
12.67308
12.0504
11.54366
11.13884
10.8213
10.57738
10.39515
10.26452
10.17708
10.12564
10.10385
10.10622
10.1278
10.1638
10.20963
10.26088
10.31454
10.36518
10.40815
10.43991
10.45777
10.45977
10.44464
10.41181
10.36118
10.29335
10.2098
10.11231
10.00308
9.884612
9.759375
9.62962
9.497536
9.365104
9.23391
9.105134
8.979572
8.857688
8.73966
8.625446
8.514828
8.407518
8.303038
8.200801
8.10032
8.001167
7.902927
7.805464
7.708735
7.612726
7.517404
7.422769
7.328907
7.235966
7.144112
7.053505
6.964292
6.876605
6.790557
6.706251
6.62377
6.543178
6.464521
6.387829
6.313116
6.240379
6.16959
6.100681
6.033539
5.967992
5.903763
5.840499
5.777939
5.716019
5.654895
5.594843
5.536084
5.478599
5.422248
5.366932
5.312625
5.259283
5.206831
5.155248
5.104556
5.054799
5.005994
4.958085
4.911038
4.864824
4.81941
4.774756
4.730819
4.687558
4.644934
4.60291
4.561457
4.520553
4.480193
4.440352
4.401038
4.362256
4.324002
4.286307
4.249174
4.212599
4.176579
4.141108
4.106174
4.071763
4.037863
4.004459
3.971539
3.939091
3.907107
3.875578
3.844503
3.81388
3.783712
3.754005
3.724768
3.696011
3.667747
3.639991
3.61276
3.586069
3.559939
3.534386
3.509431
3.48509
3.461383
3.438325
3.415929
3.394209
3.373175
3.352832
3.333187
3.31424
3.295992
3.278438
3.261575
3.245394
3.229887
3.215043
3.20085
3.187291
3.174351
3.162009
3.150243
3.139028
3.128337
3.118137
3.108396
3.099077
3.090141
3.081545
3.073246
3.065198
3.057351
3.049656
3.042059
3.034505
3.026941
3.019316
3.011582
3.003706
2.99565
2.987427
2.979031
2.97123
86.90736
36.27336
30.85115
29.52383
28.70069
28.23439
28.03265
27.98481
28.04753
28.18934
28.28299
28.18412
28.07744
27.95681
27.8251
27.68094
27.53499
27.3921
27.24529
27.07929
26.87486
26.64039
26.42202
26.22745
26.06332
25.9331
25.84411
25.80114
25.8011
25.84307
25.92677
26.05489
26.23592
26.47794
26.78796
27.16479
27.59937
28.09769
28.66951
29.30338
29.99607
30.74703
31.55952
32.43773
33.3766
34.36015
35.40635
36.56995
37.73505
38.86979
39.92916
40.85094
41.59306
42.13192
42.45719
42.57225
42.5004
42.2796
41.94049
41.54572
41.16282
40.85224
40.67048
40.65206
40.83557
41.23026
41.81716
42.56347
43.41752
44.32113
45.22157
46.07413
46.83496
47.47777
47.99085
48.376
48.64536
48.81086
48.88512
48.88518
48.82765
48.7323
48.61674
48.49327
48.37423
48.26866
48.1742
48.08521
47.9975
47.90131
47.77154
47.58667
47.35531
47.10319
46.83314