/*--------------------------------*- C++ -*----------------------------------*\
| =========                 |                                                 |
| \\      /  F ield         | foam-extend: Open Source CFD                    |
|  \\    /   O peration     | Version:     3.1                                |
|   \\  /    A nd           | Web:         http://www.extend-project.de       |
|    \\/     M anipulation  |                                                 |
\*---------------------------------------------------------------------------*/
FoamFile
{
    version     2.0;
    format      ascii;
    class       volScalarField;
    location    "13";
    object      pd;
}
// * * * * * * * * * * * * * * * * * * * * * * * * * * * * * * * * * * * * * //

dimensions      [1 -1 -2 0 0 0 0];

internalField   nonuniform List<scalar> 
119952
(
6887.83
6427.861
6369.85
6469.468
6567.962
6547.686
6558.931
6575.853
6595.892
6616.446
6636.958
6656.974
6675.829
6693.36
6709.275
6723.212
6734.756
6742.808
6743.816
6717.666
6852.546
6765.378
6742.653
6907.346
6871.969
6889.635
6897.192
6940.748
7133.5
7452.596
4872.277
4922.032
4976.669
5035.229
5091.677
5145.852
5196.944
5244.798
5289.225
5317.203
5350.164
5387.134
5411.586
5430.98
5447.222
5460.37
5471.07
5481.043
5490.255
5509.617
5517.773
5521.556
5536.705
5558.317
5585.023
5617.559
5656.485
5699.944
5749.272
5794.324
5848.531
5907.745
5966.365
6025.451
6084.604
6143.601
6205.839
6287.181
6396.622
6376.488
6413.21
6472.757
6517.704
6543.703
6560.518
6580.558
6601.583
6622.237
6642.517
6662.034
6680.391
6697.331
6712.68
6726.047
6737.134
6745.471
6751.298
6757.306
6768.891
6777.258
6779.849
6811.026
6859.468
6864.598
6867.935
6868.987
6834.545
6698.511
6662.315
6665.376
6655.709
6645.433
6633.24
6619.544
6605.197
6590.616
6576.077
6561.761
6547.675
6533.781
6520.33
6507.426
6495.205
6483.928
6473.947
6465.735
6459.913
6456.92
6457.246
6461.19
6469.545
6482.447
6500.455
6523.748
6551.782
6582.898
6613.951
6640.749
6660.435
6674.525
6689.685
6710.574
6735.817
6761.622
6785.458
6806.818
6825.828
6842.735
6857.758
6870.983
6882.673
6892.898
6901.735
6909.272
6915.378
6920.409
6925.685
6931.239
6936.205
6937.155
6937.765
6938.574
6939.174
6939.848
6940.843
6942.328
6944.419
6947.192
6950.607
6954.755
6959.027
6963.379
6967.549
6971.5
6975.049
6978.153
6980.83
6983.169
6985.329
6987.506
6989.935
6993.088
6997.808
7004.048
7013.04
7025.778
7043.047
7064.178
7079.97
7046.567
7028.31
7052.273
7083.386
7112.311
7136.019
7153.477
7166.896
7178.514
7189.886
7202.335
7216.631
7232.587
7249.68
7267.321
7284.832
7302.076
7319.168
7340.225
7354.749
7370.979
7390.552
7407.181
7421.435
7424.765
7426.392
7427.289
7439.955
7459.038
7471.712
7477.042
7479.059
7474.967
7464.338
7453.223
7446.277
7443.784
7444.631
7446.65
7447.534
7446.085
7442.181
7436.381
7429.467
7422.07
7414.654
7407.49
7400.658
7394.11
7387.733
7381.349
7374.717
7367.404
7359.594
7354.597
7348.652
7341.948
7334.598
7326.695
7318.324
7309.579
7300.569
7291.425
7282.298
7273.351
7264.754
7256.676
7249.274
7242.69
7237.045
7232.432
7228.914
7226.512
7225.18
7224.883
7225.534
7227.012
7229.172
7231.858
7234.905
7238.149
7241.437
7244.626
7247.595
7250.244
7252.492
7254.287
7255.676
7260.034
7257.744
7256.243
7255.404
7254.097
7252.581
7250.851
7248.951
7246.945
7244.898
7242.897
7241.025
7239.347
7237.929
7236.834
7236.12
7235.835
7236.018
7236.696
7237.885
7239.592
7241.809
7244.522
7247.704
7251.317
7255.32
7259.659
7264.277
7269.112
7274.099
7279.173
7284.267
7289.317
7294.264
7299.051
7303.629
7307.957
7312.003
7315.749
7319.189
7322.336
7325.218
7327.874
7330.355
7332.689
7334.629
7335.777
7336.533
7337.233
7337.789
7338.226
7338.565
7338.767
7338.131
7335.469
7337.003
7337.442
7337.25
7337.105
7336.907
7336.711
7336.564
7336.438
7336.342
7336.28
7336.261
7336.281
7336.333
7336.429
7336.563
7336.736
7336.945
7337.191
7337.472
7337.785
7338.129
7338.502
7338.902
7339.327
7339.775
7340.242
7340.726
7341.225
7341.736
7342.256
7342.783
7343.313
7343.844
7344.372
7344.895
7345.41
7345.913
7346.401
7346.871
7347.32
7347.743
7348.14
7348.505
7348.836
7349.128
7349.381
7349.589
7349.75
7349.86
7349.917
7349.917
7349.859
7349.738
7349.553
7349.301
7348.979
7348.585
7348.117
7347.572
7346.95
7346.246
7345.459
7344.585
7343.623
7342.57
7341.421
7340.171
7338.816
7337.349
7335.759
7334.038
7332.171
7330.139
7327.916
7325.46
7322.728
7319.641
7316.099
7311.903
7306.738
7300.337
7293.93
7296.188
7323.936
6103.821
6007.047
5892.484
5787.966
5689.45
5596.991
5510.165
5428.031
5349.742
5268.893
5198.878
5133.311
5070.132
5010.763
4955.06
4902.692
4854.08
4807.23
4756.738
4733.333
4687.516
4646.492
4614.197
4587.011
4565.034
4548.876
4538.648
4537.854
4540.899
4545.083
4565.453
4591.626
4624.597
4664.308
4709.968
4760.713
4816.169
4878.559
4926.624
4983.296
5044.81
5102.838
5157.769
5209.393
5256.813
5299.746
5337.149
5368.648
5396.774
5419.684
5436.794
5449.903
5460.118
5468.22
5475.736
5487.655
5481.291
5493.067
5510.382
5529.136
5551.358
5579.186
5613.193
5652.989
5697.857
5747.213
5801.426
5857.671
5915.256
5974.583
6035.412
6096.925
6159.425
6223.005
6286.947
6345.637
6390.69
6428.179
6468.247
6507.174
6539.793
6566.252
6589.706
6612.22
6634.192
6655.277
6675.086
6693.427
6710.181
6725.196
6738.379
6749.406
6758.759
6766.876
6774.528
6782.673
6791.728
6802.339
6816.301
6829.204
6834.212
6827.868
6808.496
6772.624
6724.782
6685.405
6663.079
6647.863
6633.115
6617.234
6600.89
6584.825
6569.298
6554.313
6539.826
6525.839
6512.355
6499.42
6487.104
6475.516
6464.913
6455.763
6448.593
6443.922
6442.311
6444.151
6449.361
6458.332
6471.654
6489.986
6513.422
6541.224
6571.752
6602.827
6632.473
6659.382
6683.738
6707.749
6732.535
6757.825
6782.172
6804.558
6824.685
6842.5
6858.041
6871.582
6883.318
6893.435
6902.123
6909.486
6915.657
6920.808
6925.075
6928.746
6931.822
6934.048
6935.327
6935.849
6935.962
6936.011
6936.328
6937.21
6938.874
6941.586
6945.229
6949.679
6954.695
6959.91
6964.891
6969.537
6973.498
6976.825
6979.53
6981.689
6983.424
6984.91
6986.4
6988.232
6990.611
6994.104
6999.387
7006.492
7015.546
7026.927
7035.609
7045.473
7045.959
7042.519
7064.481
7090.782
7113.892
7136.156
7154.945
7171.083
7185.676
7199.763
7214.132
7229.094
7244.415
7260.085
7276.017
7292.42
7309.91
7327.73
7344.265
7357.57
7371.741
7387.064
7401.635
7412.616
7419.8
7426.324
7433.973
7446.458
7461.095
7472.644
7478.42
7480.135
7476.375
7465.395
7452.98
7445.227
7443.211
7445.548
7448.663
7449.855
7448.148
7443.634
7437.2
7429.8
7422.005
7414.333
7407.062
7400.223
7393.749
7387.514
7381.337
7375.049
7368.591
7362.17
7356.145
7349.956
7343.16
7335.787
7327.856
7319.436
7310.619
7301.518
7292.264
7283.005
7273.905
7265.134
7256.861
7249.249
7242.445
7236.574
7231.742
7228.006
7225.373
7223.864
7223.419
7223.955
7225.355
7227.48
7230.173
7233.268
7236.597
7240.001
7243.33
7246.455
7249.268
7251.693
7253.706
7255.487
7256.222
7256.613
7256.23
7255.305
7254.07
7252.537
7250.725
7248.71
7246.579
7244.361
7242.195
7240.17
7238.327
7236.737
7235.467
7234.576
7234.111
7234.111
7234.604
7235.606
7237.124
7239.154
7241.681
7244.679
7248.115
7251.947
7256.125
7260.592
7265.291
7270.157
7275.128
7280.139
7285.13
7290.042
7294.823
7299.422
7303.803
7307.939
7311.8
7315.372
7318.658
7321.688
7324.48
7327.024
7329.288
7331.209
7332.721
7333.895
7334.862
7335.665
7336.317
7336.823
7337.176
7337.301
7336.942
7336.589
7336.663
7336.836
7336.843
7336.722
7336.59
7336.49
7336.416
7336.332
7336.294
7336.326
7336.354
7336.421
7336.525
7336.665
7336.841
7337.051
7337.296
7337.573
7337.882
7338.221
7338.587
7338.98
7339.397
7339.836
7340.294
7340.768
7341.256
7341.756
7342.264
7342.778
7343.296
7343.813
7344.328
7344.838
7345.338
7345.827
7346.301
7346.757
7347.192
7347.602
7347.984
7348.336
7348.653
7348.933
7349.173
7349.369
7349.518
7349.618
7349.664
7349.655
7349.587
7349.458
7349.265
7349.005
7348.676
7348.276
7347.802
7347.253
7346.625
7345.917
7345.126
7344.249
7343.285
7342.229
7341.079
7339.829
7338.476
7337.012
7335.431
7333.721
7331.874
7329.868
7327.69
7325.305
7322.694
7319.803
7316.643
7313.216
7309.818
7306.954
7305.681
7306.274
7309.321
4269.1
4315.349
4378.809
4454.856
4542.771
4642.059
4752.401
4873.813
5005.767
5146.421
5295.793
5454.802
5618.972
5788.127
5960.392
6132.016
6300.081
6460.606
6612.185
6767.214
6889.624
6994.994
7080.662
7144.657
7185.7
7203.089
7196.954
7168.14
7121.652
7053.869
6969.984
6872.613
6765.634
6651.67
6533.299
6412.133
6290.243
6171.133
6046.031
5934.431
5827.216
5725.902
5630.69
5541.089
5456.916
5377.893
5304.074
5234.135
5164.794
5100.998
5040.017
4982.081
4927.769
4876.892
4830.1
4790.793
4725.83
4685.628
4653.272
4622.101
4592.284
4565.998
4544.753
4529.409
4520.641
4518.773
4525.063
4538.93
4559.115
4586.412
4621.606
4664.411
4713.881
4768.579
4827.418
4888.874
4950.491
5011.311
5071.859
5131.097
5187.342
5239.499
5286.77
5328.756
5365.006
5395.433
5419.484
5437.71
5450.845
5459.625
5464.912
5467.861
5469.653
5471.349
5472.988
5480.772
5493.822
5510.431
5532.022
5559.922
5594.365
5634.818
5680.81
5731.581
5786.275
5843.892
5903.874
5965.324
6027.569
6090.136
6152.339
6213.801
6273.252
6330.454
6380.431
6422.3
6462.31
6501.7
6537.389
6567.7
6594.22
6618.966
6642.589
6664.879
6685.556
6704.497
6721.652
6736.965
6750.404
6761.934
6771.694
6780.022
6787.346
6794.287
6801.252
6807.494
6813.257
6817.838
6816.771
6806.44
6786.936
6759.403
6723.881
6688.544
6661.923
6642.19
6624.03
6605.623
6587.401
6570.028
6553.728
6538.404
6523.88
6510.066
6496.933
6484.458
6472.577
6461.283
6450.814
6441.674
6434.41
6429.566
6427.704
6429.5
6434.654
6442.902
6455.3
6472.599
6494.68
6522.079
6555.648
6590.931
6624.836
6657.039
6687.32
6716.148
6744.02
6771.13
6796.353
6818.972
6838.885
6856.25
6871.216
6883.944
6894.666
6903.654
6911.133
6917.277
6922.285
6926.394
6929.609
6932.053
6933.75
6934.775
6935.008
6934.496
6933.616
6932.808
6932.489
6933.025
6934.729
6937.842
6942.279
6947.8
6953.977
6960.237
6966.047
6971.106
6975.24
6978.462
6980.835
6982.483
6983.547
6984.219
6984.717
6985.371
6986.422
6988.206
6991.398
6996.182
7002.412
7010.18
7018.02
7028.03
7034.293
7041.772
7062.179
7087.314
7110.858
7133.054
7152.952
7170.954
7187.561
7203.097
7218.018
7233.385
7248.794
7264.367
7280.019
7295.596
7311.043
7324.758
7337.914
7355.524
7371.52
7385.297
7397.123
7407.392
7415.987
7424.237
7433.45
7443.608
7453.605
7461.937
7466.961
7467.867
7463.895
7456.681
7449.105
7446.074
7450.584
7458.535
7461.642
7458.281
7451.107
7443.485
7436.026
7428.022
7419.864
7412.291
7405.273
7398.613
7392.41
7386.559
7380.811
7375.047
7369.203
7363.236
7357.094
7350.615
7343.613
7336.017
7327.847
7319.167
7310.072
7300.679
7291.127
7281.575
7272.195
7263.165
7254.664
7246.864
7239.919
7233.96
7229.089
7225.363
7222.815
7221.448
7221.192
7221.955
7223.615
7226.02
7229.003
7232.387
7235.998
7239.663
7243.226
7246.549
7249.517
7252.043
7254.03
7255.503
7256.246
7256.505
7256.27
7255.582
7254.478
7252.987
7251.167
7249.101
7246.826
7244.491
7242.173
7239.934
7237.851
7236.004
7234.461
7233.284
7232.526
7232.225
7232.414
7233.113
7234.332
7236.069
7238.313
7241.044
7244.229
7247.829
7251.797
7256.081
7260.622
7265.36
7270.232
7275.175
7280.13
7285.039
7289.849
7294.514
7298.99
7303.228
7307.147
7310.842
7314.289
7317.518
7320.497
7323.195
7325.608
7327.717
7329.496
7330.966
7332.199
7333.247
7334.122
7334.837
7335.394
7335.834
7336.331
7336.622
7336.687
7336.631
7336.528
7336.423
7336.34
7336.282
7336.244
7336.226
7336.231
7336.28
7336.342
7336.43
7336.546
7336.693
7336.871
7337.08
7337.321
7337.592
7337.894
7338.224
7338.582
7338.965
7339.37
7339.797
7340.242
7340.704
7341.179
7341.666
7342.161
7342.662
7343.167
7343.672
7344.174
7344.671
7345.16
7345.637
7346.101
7346.546
7346.971
7347.373
7347.748
7348.093
7348.404
7348.68
7348.916
7349.11
7349.258
7349.358
7349.407
7349.401
7349.337
7349.214
7349.028
7348.777
7348.459
7348.07
7347.609
7347.073
7346.461
7345.77
7344.998
7344.142
7343.2
7342.169
7341.046
7339.827
7338.509
7337.086
7335.552
7333.901
7332.123
7330.209
7328.147
7325.927
7323.541
7320.999
7318.339
7315.668
7313.156
7311.077
7309.661
7309.373
7310.262
4171.041
4149.451
4134.814
4122.186
4114.338
4116.222
4128.104
4152.449
4187.418
4206.483
4211.758
4229.835
4264.085
4312.358
4374.305
4448.544
4533.727
4629.846
4736.862
4853.234
4979.82
5115.903
5260.231
5412.243
5570.552
5733.594
5899.582
6065.967
6229.762
6387.436
6537.33
6704.945
6832.935
6934.96
7016.456
7076.03
7112.128
7124.406
7113.484
7080.885
7028.946
6958.797
6872.469
6773.049
6664.47
6549.809
6431.561
6310.914
6190.463
6072.989
5959.954
5852.587
5751.014
5655.426
5565.803
5481.774
5402.798
5328.262
5257.577
5190.141
5125.33
5063.188
5004.061
4948.137
4895.436
4845.76
4798.918
4754.473
4710.938
4672.283
4638.707
4606.2
4574.988
4547.016
4523.85
4506.74
4496.689
4494.468
4500.04
4512.782
4533.167
4561.901
4599.175
4644.403
4696.405
4754.241
4816.635
4882.117
4948.879
5015.628
5081.681
5145.778
5206.242
5261.541
5311.074
5354.113
5390.379
5419.476
5441.401
5456.637
5465.752
5469.559
5469.144
5466.065
5461.792
5458.363
5457.348
5460.695
5469.641
5484.439
5505.667
5533.771
5568.694
5609.861
5656.666
5708.48
5764.534
5824.237
5886.047
5949.028
6012.458
6075.758
6138.23
6199.446
6258.641
6315.192
6366.762
6412.801
6455.664
6496.465
6534.067
6567.541
6597.531
6625.179
6651.028
6675.076
6697.187
6717.295
6735.382
6751.431
6765.439
6777.398
6787.426
6795.589
6802.238
6807.648
6811.865
6814.506
6815.41
6813.892
6807.676
6794.982
6775.578
6750.292
6720.004
6688.748
6661.252
6637.888
6616.478
6595.852
6576.146
6557.826
6541.104
6525.816
6511.596
6498.209
6485.607
6473.67
6462.12
6450.765
6439.826
6429.896
6421.502
6415.405
6412.513
6414.195
6419.149
6425.795
6433.585
6435.671
6456.349
6497.06
6539.777
6577.802
6615.1
6651.717
6686.716
6720.118
6751.323
6780.306
6806.637
6830.083
6850.541
6868.085
6883.003
6895.552
6905.912
6914.322
6921.044
6926.309
6930.337
6933.337
6935.418
6936.674
6937.112
6936.77
6935.647
6933.878
6931.785
6929.742
6928.265
6928.322
6930.03
6933.554
6938.803
6945.599
6953.233
6960.858
6967.738
6973.451
6977.862
6981.03
6983.058
6984.093
6984.246
6983.831
6983.335
6982.381
6981.549
6981.42
6982.574
6985.138
6989.179
6994.751
7001.668
7010.861
7021.37
7034.907
7055.577
7079.884
7103.128
7126.159
7148.818
7169.347
7187.27
7203.939
7219.756
7235.614
7251.461
7267.276
7282.822
7298.062
7312.601
7326.592
7340.531
7355.189
7369.187
7381.795
7392.975
7402.853
7411.581
7419.708
7427.968
7436.732
7445.161
7451.709
7455.861
7457.963
7457.506
7454.588
7451.236
7451.676
7454.011
7454.299
7455.721
7457.783
7457.753
7451.451
7440.942
7429.906
7420.288
7412.333
7405.243
7398.787
7393.033
7387.683
7382.287
7376.831
7371.294
7365.523
7359.427
7352.922
7345.879
7338.218
7329.948
7321.126
7311.844
7302.216
7292.383
7282.506
7272.764
7263.343
7254.437
7246.228
7238.885
7232.55
7227.34
7223.332
7220.577
7219.059
7218.726
7219.487
7221.216
7223.755
7226.926
7230.541
7234.414
7238.364
7242.219
7245.826
7249.061
7251.827
7254.039
7255.685
7256.712
7257.155
7257.039
7256.388
7255.25
7253.691
7251.777
7249.591
7247.164
7244.666
7242.177
7239.745
7237.438
7235.359
7233.581
7232.17
7231.178
7230.645
7230.604
7231.079
7232.081
7233.613
7235.664
7238.217
7241.241
7244.698
7248.544
7252.724
7257.183
7261.859
7266.69
7271.614
7276.569
7281.5
7286.352
7291.076
7295.631
7299.976
7304
7307.162
7310.218
7313.831
7317.423
7320.428
7322.971
7325.208
7327.143
7328.79
7330.194
7331.394
7332.414
7333.27
7333.985
7334.587
7335.095
7335.404
7335.527
7335.602
7335.676
7335.743
7335.799
7335.848
7335.897
7335.952
7336.018
7336.103
7336.2
7336.319
7336.462
7336.63
7336.821
7337.043
7337.293
7337.572
7337.878
7338.21
7338.568
7338.95
7339.354
7339.779
7340.221
7340.679
7341.151
7341.634
7342.125
7342.621
7343.121
7343.62
7344.118
7344.61
7345.093
7345.566
7346.024
7346.466
7346.887
7347.285
7347.656
7347.998
7348.308
7348.582
7348.817
7349.011
7349.16
7349.261
7349.311
7349.309
7349.249
7349.131
7348.952
7348.708
7348.397
7348.018
7347.568
7347.044
7346.445
7345.769
7345.013
7344.176
7343.255
7342.249
7341.154
7339.967
7338.687
7337.309
7335.83
7334.245
7332.55
7330.742
7328.818
7326.78
7324.637
7322.418
7320.169
7317.98
7315.958
7314.252
7313.021
7312.44
7312.418
4549.409
4512.756
4477.384
4441.675
4402.935
4363.972
4328.352
4293.527
4260.61
4229.873
4201.172
4175.935
4153.42
4134.913
4121.236
4112.562
4111.053
4116.822
4129.534
4145.848
4162.089
4182.33
4211.218
4250.982
4302.32
4364.674
4438.773
4524.306
4620.836
4728.024
4845.422
4972.514
5108.688
5253.117
5404.814
5562.707
5725.112
5889.608
6054.742
6218.016
6375.23
6523.792
6651.792
6773.909
6876.404
6957.762
7016.661
7051.871
7063.106
7050.879
7016.479
6962.037
6889.7
6801.894
6701.3
6592.143
6477.145
6357.143
6235.036
6115.552
6000.859
5891.451
5788.123
5691.408
5601.181
5517.003
5438.203
5363.946
5293.389
5225.906
5161.034
5098.315
5037.711
4979.654
4924.621
4872.615
4823.49
4776.96
4733.373
4692.844
4655.404
4620.273
4586.254
4553.355
4522.679
4495.966
4475.309
4462.444
4457.999
4461.565
4472.799
4492.344
4521.164
4559.64
4607.226
4662.745
4724.981
4792.656
4864.403
4938.568
5013.439
5087.46
5158.877
5225.901
5287.106
5341.183
5387.331
5424.829
5453.563
5473.535
5485.189
5489.245
5486.655
5478.789
5467.678
5455.511
5444.587
5436.804
5434.113
5438.326
5450.328
5470.399
5498.346
5533.792
5575.877
5623.837
5677.209
5735.303
5797.05
5861.097
5926.275
5991.641
6056.538
6120.372
6182.648
6242.705
6299.91
6353.373
6402.699
6448.561
6491.612
6531.655
6568.311
6601.754
6632.513
6660.956
6687.174
6711.131
6732.788
6752.129
6769.142
6783.825
6796.196
6806.275
6814.051
6819.746
6823.458
6825.153
6824.604
6821.488
6815.304
6805.11
6790.047
6769.838
6745.093
6716.961
6687.55
6659.266
6633.068
6608.633
6585.617
6564.175
6544.779
6527.697
6512.594
6498.768
6485.858
6473.8
6462.307
6451.271
6440.04
6428.476
6417.395
6407.13
6397.557
6388.669
6390.375
6396.539
6387.027
6391.451
6407.402
6430.751
6467.753
6518.936
6562.669
6604.369
6645.516
6685.13
6722.527
6756.985
6788.212
6815.941
6840.289
6861.526
6879.684
6894.846
6907.303
6917.357
6925.286
6931.367
6935.882
6939.058
6941.07
6942.079
6942.212
6941.352
6939.601
6936.959
6933.369
6928.622
6925.129
6923.366
6922.873
6923.935
6927.536
6933.985
6942.56
6952.24
6961.778
6970.095
6976.635
6981.348
6984.446
6986.109
6986.478
6985.758
6984.106
6982.202
6979.69
6976.39
6972.661
6970.879
6972.142
6975.649
6980.071
6985.986
6994.53
7005.435
7019.79
7038.43
7056.645
7088.041
7120.806
7145.362
7165.941
7185.127
7203.779
7221.739
7238.761
7254.836
7270.449
7285.447
7300.042
7314.221
7328.032
7341.449
7354.577
7367.104
7378.646
7389.065
7398.422
7406.832
7414.615
7422.218
7429.702
7436.488
7441.953
7446.021
7448.646
7449.392
7448.539
7447.311
7447.04
7448.014
7450.585
7454.671
7455.621
7451.352
7444.836
7438.522
7432.216
7423.917
7414.701
7406.194
7399.232
7393.654
7388.518
7383.405
7378.364
7373.233
7367.655
7361.55
7354.948
7347.772
7339.94
7331.466
7322.411
7312.864
7302.939
7292.777
7282.543
7272.42
7262.607
7253.313
7244.735
7237.055
7230.426
7224.982
7220.814
7217.974
7216.451
7216.204
7217.134
7219.101
7221.934
7225.439
7229.413
7233.654
7237.966
7242.161
7246.073
7249.57
7252.556
7254.962
7256.758
7257.889
7258.362
7258.219
7257.503
7256.27
7254.587
7252.525
7250.165
7247.579
7244.857
7242.164
7239.551
7237.015
7234.699
7232.687
7231.053
7229.847
7229.106
7228.86
7229.139
7229.957
7231.318
7233.215
7235.631
7238.536
7241.894
7245.659
7249.778
7254.194
7258.845
7263.667
7268.598
7273.576
7278.54
7283.438
7288.219
7292.841
7297.265
7301.41
7304.351
7305.757
7309.064
7313.634
7317.622
7320.577
7322.966
7325.028
7326.805
7328.337
7329.662
7330.801
7331.765
7332.577
7333.25
7333.795
7334.202
7334.502
7334.746
7334.952
7335.122
7335.263
7335.387
7335.502
7335.616
7335.735
7335.862
7335.999
7336.151
7336.323
7336.514
7336.729
7336.97
7337.234
7337.526
7337.842
7338.184
7338.549
7338.937
7339.346
7339.774
7340.219
7340.679
7341.152
7341.635
7342.126
7342.623
7343.121
7343.62
7344.116
7344.607
7345.089
7345.559
7346.016
7346.456
7346.875
7347.271
7347.642
7347.983
7348.292
7348.566
7348.802
7348.996
7349.147
7349.25
7349.304
7349.304
7349.25
7349.137
7348.963
7348.726
7348.424
7348.054
7347.614
7347.102
7346.516
7345.855
7345.116
7344.298
7343.399
7342.417
7341.352
7340.2
7338.961
7337.632
7336.212
7334.699
7333.094
7331.398
7329.614
7327.752
7325.83
7323.879
7321.941
7320.09
7318.394
7316.973
7315.891
7315.256
7314.921
4940.578
4895.273
4853.857
4813.478
4776.086
4734.559
4698.249
4661.971
4625.462
4588.779
4552.416
4516.622
4479.795
4443.324
4405.673
4363.78
4327.931
4293.542
4260.575
4229.389
4200.36
4174.126
4150.845
4130.9
4115.221
4104.623
4098.676
4098.968
4104.783
4115.266
4130.317
4152.1
4182.373
4222.271
4272.495
4333.804
4406.236
4489.911
4584.474
4689.564
4804.713
4929.468
5063.412
5205.624
5354.825
5509.508
5668.184
5829.384
5991.504
6151.79
6308.543
6457.251
6590.692
6709.574
6809.282
6887.199
6942.016
6972.773
6979.491
6962.616
6923.801
6864.987
6788.903
6698.76
6597.442
6487.117
6370.183
6249.983
6130.028
6014.408
5904.764
5801.488
5704.915
5615.465
5532.912
5456.473
5385.099
5317.529
5252.482
5189.228
5127.484
5066.933
5007.626
4950.323
4895.91
4844.538
4796.176
4750.849
4708.917
4669.99
4632.897
4596.781
4560.933
4524.967
4489.517
4457.127
4431.326
4414.71
4407.483
4408.618
4417.402
4434.877
4463.213
4503.371
4554.507
4614.917
4683.249
4758.518
4839.283
4923.435
5008.905
5093.671
5175.444
5251.931
5321.247
5381.832
5432.431
5472.222
5500.855
5518.278
5525.039
5521.978
5510.156
5491.504
5468.96
5445.584
5424.22
5407.438
5397.555
5396.547
5405.484
5424.358
5452.651
5489.448
5533.22
5583.09
5638.724
5699.286
5763.819
5830.959
5899.05
5966.872
6033.794
6099.373
6163.206
6224.793
6283.668
6339.391
6391.65
6440.587
6486.549
6529.599
6569.581
6606.502
6640.575
6671.988
6700.809
6727.018
6750.58
6771.474
6789.68
6805.17
6817.947
6828.014
6835.461
6840.241
6842.363
6841.773
6838.359
6831.872
6821.999
6808.377
6790.662
6768.788
6743.231
6714.901
6685.089
6655.198
6626.199
6598.652
6572.929
6549.459
6528.914
6511.77
6497.404
6484.241
6470.768
6454.614
6443.055
6437.318
6429.547
6417.528
6404.774
6387.739
6348.451
6208.959
6222.482
6335.551
6384.661
6393.219
6405.808
6427.647
6460.507
6502.043
6547.544
6593.317
6638.341
6681.8
6722.81
6760.352
6794.066
6823.879
6849.871
6872.155
6890.879
6906.303
6918.741
6928.527
6936.001
6941.482
6945.277
6947.685
6948.91
6949.057
6948.141
6946.198
6942.778
6935.81
6928.896
6924.911
6922.154
6918.548
6915.878
6915.8
6919.579
6927.281
6938.137
6950.718
6962.986
6973.244
6980.82
6985.863
6988.859
6990.143
6989.778
6988.03
6984.886
6979.917
6967.165
6958.638
6956.281
6960.724
6961.559
6962.254
6965.622
6970.961
6977.391
6969.397
6890.345
6917.607
7019.645
7092.067
7122.358
7144.788
7165.492
7184.888
7203.312
7220.963
7238.342
7255.194
7271.726
7287.422
7302.006
7315.811
7329.034
7341.638
7353.716
7365.164
7375.748
7385.38
7394.104
7402.034
7409.324
7416.129
7422.484
7428.201
7432.96
7436.552
7438.95
7440.144
7440.253
7440.034
7440.741
7442.932
7445.851
7447.764
7447.187
7445.043
7442.104
7436.688
7428.75
7420.851
7414.623
7409.181
7403.046
7396.662
7390.607
7385.255
7380.306
7375.187
7369.595
7363.481
7356.86
7349.615
7341.603
7332.873
7323.527
7313.661
7303.392
7292.861
7282.234
7271.704
7261.482
7251.795
7242.859
7234.859
7227.961
7222.315
7218.026
7215.161
7213.704
7213.623
7214.81
7217.109
7220.334
7224.27
7228.694
7233.391
7238.152
7242.747
7246.986
7250.742
7253.924
7256.477
7258.376
7259.556
7260.001
7259.776
7258.94
7257.553
7255.687
7253.42
7250.839
7248.036
7245.062
7242.147
7239.322
7236.551
7233.991
7231.749
7229.89
7228.461
7227.516
7227.093
7227.21
7227.88
7229.109
7230.893
7233.215
7236.048
7239.353
7243.085
7247.19
7251.609
7256.279
7261.135
7266.11
7271.142
7276.168
7281.132
7285.979
7290.669
7295.168
7299.433
7303.349
7305.863
7306.721
7309.606
7312.589
7317.146
7320.774
7323.171
7325.03
7326.626
7328.026
7329.251
7330.303
7331.196
7331.954
7332.594
7333.118
7333.539
7333.885
7334.177
7334.425
7334.641
7334.837
7335.019
7335.194
7335.367
7335.544
7335.728
7335.921
7336.13
7336.347
7336.589
7336.845
7337.139
7337.452
7337.786
7338.143
7338.521
7338.921
7339.34
7339.777
7340.23
7340.697
7341.176
7341.665
7342.161
7342.661
7343.164
7343.666
7344.164
7344.657
7345.141
7345.614
7346.072
7346.513
7346.935
7347.333
7347.705
7348.048
7348.359
7348.635
7348.873
7349.07
7349.224
7349.331
7349.388
7349.394
7349.344
7349.237
7349.07
7348.84
7348.546
7348.185
7347.755
7347.255
7346.682
7346.035
7345.312
7344.513
7343.636
7342.681
7341.645
7340.529
7339.331
7338.052
7336.693
7335.253
7333.737
7332.149
7330.497
7328.795
7327.063
7325.331
7323.637
7322.04
7320.587
7319.372
7318.407
7317.798
7317.382
5116.428
5107.912
5075.465
5028.988
4979.617
4933.534
4890.042
4849.447
4811.383
4773.296
4730.833
4694.681
4659.012
4623.19
4587.067
4550.735
4514.201
4477.282
4440.189
4403.655
4368.531
4333.025
4298.38
4264.838
4232.769
4202.473
4174.519
4148.964
4126.019
4106.559
4091.4
4081.669
4077.639
4079.064
4086.287
4100.15
4121.903
4152.422
4192.515
4242.771
4303.532
4375.011
4457.284
4550.143
4653.322
4766.378
4888.828
5020.273
5159.175
5304.093
5454.643
5609.492
5767.824
5927.577
6085.231
6237.833
6381.421
6511.012
6623.62
6716.761
6787.743
6835.193
6858.229
6857.449
6833.328
6788.168
6724.474
6644.615
6550.786
6446.439
6334.778
6218.484
6102.202
5988.676
5880.469
5778.869
5684.479
5597.415
5518.044
5446.034
5380.209
5318.928
5260.405
5203
5145.592
5087.902
5029.508
4971.08
4914.491
4860.926
4809.889
4761.874
4718.211
4678.991
4642.172
4605.614
4568.731
4530.942
4490.73
4447.924
4406.505
4373.167
4352.306
4342.526
4340.996
4346.216
4360.411
4387.699
4430.167
4486.109
4552.678
4628.692
4713.735
4806.291
4903.512
5002.867
5101.817
5197.245
5286.049
5365.737
5434.544
5491.231
5534.464
5563.104
5577.147
5577.715
5565.792
5542.214
5509.481
5471.92
5433.691
5398.227
5369.002
5349.302
5341.799
5347.615
5366.293
5396.645
5436.708
5483.482
5535.595
5594.039
5658.153
5726.786
5798.106
5869.823
5940.543
6009.816
6077.413
6143.136
6206.669
6267.618
6325.638
6380.501
6432.258
6481.127
6527.229
6570.526
6610.973
6648.575
6683.322
6715.172
6744.053
6769.91
6792.701
6812.409
6828.994
6842.385
6852.564
6859.59
6863.454
6864.109
6861.531
6855.629
6846.23
6833.151
6816.252
6795.505
6771.049
6743.39
6713.296
6681.657
6649.235
6616.864
6585.965
6557.335
6531.605
6510.01
6493.239
6479.712
6464.368
6438.137
6426.352
6427.073
6429.811
6418.642
6402.105
6375.715
6186.414
5999.73
5999.977
6206.765
6356.437
6367.098
6365.928
6377.192
6401.878
6438.431
6484.214
6534.226
6584.754
6633.629
6680.07
6723.285
6762.595
6798.169
6829.833
6857.429
6880.832
6900.316
6916.226
6928.891
6938.676
6945.961
6951.11
6954.464
6956.337
6956.944
6956.411
6954.71
6950.244
6936.203
6929.755
6929.133
6926.805
6919.305
6911.781
6906.604
6904.771
6908.39
6918.061
6932.291
6948.977
6965.037
6977.839
6986.495
6991.683
6994.498
6995.309
6993.298
6983.325
6946.51
6936.418
6946.174
6963.947
6961.891
6954.335
6948.16
6947.01
6951.122
6957.124
6951.219
6777.107
6714.316
6761.318
6975.534
7089.565
7123.346
7146.102
7166.551
7185.089
7203.007
7221.198
7239.09
7255.882
7271.85
7287.158
7301.842
7315.795
7329
7341.263
7352.645
7363.28
7373.081
7381.974
7390.076
7397.425
7404.081
7410.145
7415.661
7420.528
7424.532
7427.588
7429.799
7431.231
7432.047
7432.87
7434.266
7435.989
7437.53
7438.679
7439.298
7438.975
7436.628
7431.92
7426.473
7421.122
7415.034
7408.468
7402.896
7398.727
7394.44
7389.406
7383.796
7377.901
7371.97
7365.74
7358.905
7351.379
7343.13
7334.172
7324.566
7314.404
7303.806
7292.909
7281.883
7270.931
7260.285
7250.206
7240.933
7232.632
7225.473
7219.631
7215.233
7212.343
7210.998
7211.123
7212.609
7215.286
7218.947
7223.353
7228.257
7233.436
7238.705
7243.783
7248.405
7252.446
7255.822
7258.48
7260.386
7261.525
7261.916
7261.601
7260.63
7259.07
7256.999
7254.505
7251.679
7248.617
7245.378
7242.138
7238.975
7235.924
7233.119
7230.675
7228.638
7227.037
7225.944
7225.388
7225.37
7225.913
7227.028
7228.714
7230.955
7233.724
7236.984
7240.69
7244.786
7249.212
7253.905
7258.798
7263.825
7268.918
7274.017
7279.062
7283.998
7288.749
7293.267
7297.648
7301.793
7305.631
7308.544
7308.55
7310.565
7312.996
7317.495
7321.55
7323.672
7325.268
7326.661
7327.878
7328.939
7329.865
7330.676
7331.393
7332.007
7332.517
7332.952
7333.331
7333.662
7333.955
7334.221
7334.47
7334.706
7334.936
7335.165
7335.397
7335.635
7335.888
7336.143
7336.411
7336.715
7337.022
7337.358
7337.714
7338.091
7338.488
7338.904
7339.338
7339.789
7340.255
7340.734
7341.225
7341.723
7342.228
7342.737
7343.247
7343.756
7344.262
7344.761
7345.251
7345.729
7346.192
7346.638
7347.064
7347.467
7347.843
7348.191
7348.506
7348.787
7349.029
7349.231
7349.39
7349.502
7349.565
7349.576
7349.532
7349.432
7349.272
7349.05
7348.764
7348.412
7347.992
7347.503
7346.942
7346.309
7345.603
7344.823
7343.967
7343.037
7342.03
7340.949
7339.792
7338.563
7337.261
7335.892
7334.46
7332.973
7331.441
7329.879
7328.307
7326.754
7325.253
7323.85
7322.582
7321.516
7320.653
7320.086
7319.666
5110.491
5087.535
5034.744
4992.793
4950.75
4910.596
4872.365
4835.719
4800.151
4765.479
4731.875
4697.468
4662.738
4627.516
4591.888
4555.732
4519.07
4481.93
4444.364
4406.909
4370.746
4335.097
4300.023
4265.795
4232.52
4200.194
4169.387
4140.838
4115.118
4092.787
4074.782
4062.244
4055.653
4055.054
4060.943
4074.075
4095.322
4125.387
4164.939
4214.463
4274.292
4344.614
4425.436
4516.584
4617.899
4728.786
4848.415
4975.665
5109.359
5249.491
5396.133
5547.849
5702.608
5857.84
6010.266
6156.343
6292.134
6413.492
6516.855
6599.838
6660.19
6696.913
6709.372
6698.868
6666.985
6614.823
6543.936
6457.935
6359.808
6253.055
6142.513
6031.143
5921.668
5816.299
5716.975
5625.024
5541.306
5466.479
5401.03
5343.713
5292.595
5245.275
5198.611
5150.118
5099.028
5045.475
4988.878
4930.281
4873.584
4821.349
4771.351
4723.398
4680.245
4644.416
4612.289
4578.537
4541.661
4501.255