/*--------------------------------*- C++ -*----------------------------------*\
| =========                 |                                                 |
| \\      /  F ield         | foam-extend: Open Source CFD                    |
|  \\    /   O peration     | Version:     3.1                                |
|   \\  /    A nd           | Web:         http://www.extend-project.de       |
|    \\/     M anipulation  |                                                 |
\*---------------------------------------------------------------------------*/
FoamFile
{
    version     2.0;
    format      ascii;
    class       volScalarField;
    location    "3.5";
    object      k;
}
// * * * * * * * * * * * * * * * * * * * * * * * * * * * * * * * * * * * * * //

dimensions      [0 2 -2 0 0 0 0];

internalField   nonuniform List<scalar> 
119952
(
0.01306385
0.01249524
0.01248665
0.01238113
0.01226157
0.01219813
0.01229143
0.0124549
0.01265167
0.01286345
0.01307982
0.01329448
0.0135036
0.01370457
0.01389547
0.01407536
0.01424519
0.0144098
0.01458644
0.01483617
0.01515858
0.01486743
0.0149887
0.01523418
0.01478194
0.01459649
0.014453
0.01430885
0.01390871
0.009695641
0.01379144
0.01265165
0.01223201
0.01221029
0.01242027
0.01273021
0.01306608
0.01338892
0.01367621
0.01396396
0.01390968
0.01460431
0.01550336
0.01638659
0.01717444
0.0178258
0.01835534
0.01879099
0.0191302
0.02127179
0.02144794
0.02151979
0.02153198
0.02154027
0.0215634
0.02160967
0.02167964
0.02176688
0.02187724
0.02201779
0.02210166
0.02217572
0.02225558
0.02234611
0.02244935
0.02256469
0.02268076
0.02283548
0.02336464
0.02347496
0.02346903
0.0235604
0.0236745
0.02373076
0.02371557
0.02366688
0.02360111
0.02352192
0.02342968
0.02332412
0.02320451
0.02306992
0.02291986
0.02275429
0.02257363
0.02237806
0.02216684
0.02193911
0.02172564
0.02152627
0.02128309
0.02110071
0.02103835
0.02089819
0.02069744
0.02053025
0.02041708
0.01994563
0.01948894
0.01911741
0.01880534
0.01854353
0.01831944
0.01812939
0.01796825
0.01783128
0.01771475
0.01761559
0.01753105
0.01745866
0.01739645
0.01734274
0.01729589
0.01725477
0.01721804
0.01718497
0.01715499
0.01712752
0.01710206
0.01707821
0.01705565
0.01703417
0.0170136
0.01699379
0.01697464
0.01695606
0.01693796
0.01692026
0.0169029
0.01688585
0.01686906
0.01685253
0.01683624
0.01682017
0.01680427
0.0167885
0.0167728
0.01675715
0.01674149
0.01672579
0.01671005
0.01669424
0.01667835
0.01666233
0.01664594
0.01662821
0.01661158
0.01660726
0.01663125
0.01666557
0.01670348
0.01673931
0.01677119
0.01679712
0.01681576
0.01682661
0.01682963
0.01682508
0.01681346
0.01679535
0.0167714
0.01674225
0.01670865
0.0166713
0.01663085
0.01658784
0.01654278
0.01649612
0.01644827
0.01639959
0.01635037
0.01630089
0.01625137
0.01620196
0.01615284
0.01610413
0.01605596
0.0160084
0.01596151
0.01591534
0.01586995
0.01582541
0.0157818
0.01573917
0.01569753
0.01565692
0.01561739
0.01557896
0.01554165
0.01550548
0.01547048
0.01543665
0.01540406
0.01537263
0.01534234
0.01531217
0.01529048
0.01526326
0.01514468
0.01495555
0.01476837
0.01458798
0.0144172
0.01425499
0.01409921
0.01394885
0.01380285
0.01366083
0.01352291
0.01338934
0.01326026
0.01313563
0.01301544
0.01289957
0.01278837
0.01268243
0.01258183
0.01248631
0.01239555
0.01230927
0.01222741
0.01215004
0.01207718
0.01200863
0.01194415
0.01188346
0.01182644
0.01177309
0.01172348
0.01167781
0.01163616
0.01159586
0.01153972
0.01161931
0.01175478
0.01190502
0.01205609
0.01220069
0.01233531
0.01245879
0.01257119
0.01267333
0.01276628
0.01285128
0.01292951
0.01300209
0.01307
0.0131341
0.01319512
0.01325368
0.01331028
0.01336537
0.01341929
0.01347235
0.01352483
0.01357696
0.01362895
0.01368097
0.01373309
0.01378539
0.0138379
0.01389065
0.01394365
0.01399694
0.0140505
0.01410435
0.01415721
0.01604344
0.0160399
0.01601922
0.01599993
0.01600627
0.01604963
0.01613366
0.01625418
0.01640342
0.01657242
0.01675243
0.01693596
0.01711732
0.0172927
0.01746009
0.01761863
0.01776798
0.01790834
0.01804027
0.0181645
0.01828177
0.0183928
0.01849826
0.01859879
0.01869493
0.01878718
0.01887593
0.01896154
0.01904436
0.01912466
0.01920271
0.01927869
0.01935277
0.0194251
0.01949578
0.01956491
0.01963256
0.01969877
0.01976358
0.01982699
0.01988898
0.01994947
0.02000833
0.02006526
0.02011988
0.02017043
0.02021098
0.02024735
0.02028197
0.0203154
0.02034794
0.02037985
0.02041135
0.02045229
0.0204718
0.02044933
0.02042363
0.02040467
0.02040035
0.02041586
0.02045268
0.02050875
0.02058034
0.02066301
0.02075229
0.02084436
0.02093631
0.02102611
0.0211125
0.02119478
0.02127272
0.02134635
0.02141586
0.02148156
0.02154379
0.0216029
0.02165923
0.02171309
0.02176476
0.02181447
0.02186244
0.02190886
0.02195387
0.0219976
0.02204017
0.02208165
0.02212213
0.02216166
0.02220029
0.02223807
0.02227502
0.02231118
0.02234657
0.02238122
0.02241514
0.02244838
0.02248094
0.02251285
0.02254416
0.02257488
0.02260505
0.02263472
0.02266391
0.02269268
0.02272106
0.0227491
0.02277684
0.02280434
0.02283163
0.02285877
0.02288581
0.02291278
0.02293974
0.02296674
0.02299381
0.02302101
0.02304838
0.02307598
0.02310385
0.02313206
0.02316065
0.0231897
0.02321929
0.0232495
0.02328046
0.0233123
0.02334519
0.02337936
0.02341512
0.02345287
0.0234932
0.02353697
0.02358546
0.02364072
0.02370616
0.02378764
0.02389722
0.02409691
0.02446808
0.02721865
0.02452654
0.02435598
0.02500025
0.02580175
0.02647399
0.02693899
0.02720018
0.02731819
0.02753887
0.02925744
0.03127739
0.03311086
0.03456962
0.03562799
0.03634387
0.03679081
0.03703591
0.04190348
0.04172343
0.04145328
0.04110058
0.04074359
0.04042645
0.04016304
0.03994976
0.03977054
0.03961378
0.03955489
0.03935143
0.03910749
0.03886982
0.03864821
0.03844668
0.03826192
0.03808964
0.03792389
0.03783216
0.03766453
0.03741196
0.0371518
0.03689059
0.03663031
0.03637208
0.03611703
0.03586435
0.0356158
0.03536477
0.03510895
0.03485452
0.03459274
0.03432701
0.03406046
0.03379624
0.03353689
0.03328522
0.03528134
0.03498726
0.03471202
0.03445065
0.03419919
0.03395752
0.03372673
0.03350962
0.03330639
0.03311703
0.0329477
0.03279973
0.03267069
0.03256063
0.03247022
0.03239869
0.03234675
0.03232463
0.03235815
0.03241081
0.03241917
0.03243426
0.03247426
0.03251681
0.03254311
0.03254973
0.0325396
0.03251199
0.03246598
0.03240094
0.03231605
0.03221039
0.03208324
0.03193404
0.03176271
0.0315689
0.03135321
0.03111611
0.03086256
0.03059753
0.03032012
0.03003875
0.02977505
0.0295225
0.0292621
0.02898429
0.0286929
0.02836389
0.02800549
0.02766868
0.02735869
0.02707382
0.02681448
0.02657907
0.02636586
0.0261735
0.02600093
0.02584719
0.02571123
0.02559193
0.0254881
0.02539857
0.02532211
0.0252575
0.02520359
0.02515931
0.02512367
0.02509576
0.02507474
0.0250598
0.02505025
0.02504544
0.02504481
0.02504785
0.02505411
0.02506319
0.02507472
0.02508836
0.02510381
0.02512081
0.02513912
0.02515853
0.02517884
0.02519991
0.02522157
0.0252437
0.02526618
0.02528891
0.0253118
0.02533477
0.02535778
0.02538078
0.02540375
0.02542668
0.02544963
0.02547281
0.02549679
0.02552256
0.02554996
0.02557626
0.02560134
0.02562681
0.02565297
0.0256799
0.02570761
0.02573603
0.02576505
0.02579452
0.02582426
0.0258541
0.02588383
0.0259133
0.02594233
0.02597078
0.02599852
0.02602544
0.02605147
0.02607653
0.02610056
0.02612351
0.02614536
0.02616608
0.02618563
0.02620402
0.02622121
0.02623723
0.02625206
0.02626573
0.02627823
0.0262896
0.02629986
0.02630905
0.02631723
0.02632445
0.02633078
0.0263363
0.02634111
0.02634529
0.02634898
0.02635222
0.02635523
0.02635797
0.02636084
0.02636355
0.02636701
0.02637064
0.02637731
0.02639081
0.0257606
0.02514815
0.02480635
0.0246124
0.02450126
0.0244375
0.02440126
0.024381
0.02436989
0.02436372
0.02435993
0.02435688
0.02435354
0.02434925
0.02434355
0.02433618
0.02432708
0.02431637
0.02430429
0.02429106
0.02427692
0.02426211
0.02424687
0.02423156
0.02421653
0.02420216
0.02418881
0.02417674
0.02416622
0.02415749
0.02415084
0.02414669
0.02414575
0.02414969
0.02416323
0.02419819
0.024264
0.02434377
0.02443035
0.02452196
0.02461777
0.02471728
0.02482005
0.02492557
0.02503322
0.02514232
0.02525214
0.02536195
0.02547105
0.02557883
0.02568474
0.02578835
0.02588933
0.02598745
0.02608258
0.02617468
0.02626379
0.02635003
0.02643355
0.02651452
0.02659314
0.02666957
0.02674397
0.02681648
0.02688722
0.02695631
0.02702386
0.02708998
0.02715483
0.02721761
0.02935402
0.02945393
0.02954696
0.0296283
0.0296979
0.02975839
0.0298127
0.02986362
0.02991349
0.02996406
0.03001653
0.03007157
0.03012945
0.03019009
0.03025326
0.03031854
0.03038545
0.03045348
0.03052213
0.03059097
0.03065961
0.03072774
0.03079511
0.03086152
0.03092681
0.03099089
0.03105383
0.03111567
0.03117643
0.03123608
0.03129466
0.03135218
0.03140867
0.03146417
0.0315187
0.03157231
0.03162503
0.03167688
0.03172787
0.031778
0.03182705
0.03187478
0.03192104
0.03196563
0.03200814
0.03204777
0.03208435
0.03211873
0.03215141
0.03218258
0.03221244
0.03224116
0.03226939
0.0322969
0.0323206
0.03234058
0.03235839
0.0323744
0.03238887
0.03240237
0.0324157
0.03242971
0.03244518
0.03246269
0.03248261
0.03250504
0.03252992
0.03255705
0.03258615
0.03261689
0.03264894
0.03268199
0.03271576
0.03274999
0.03278448
0.03281905
0.03285357
0.03288791
0.032922
0.03295576
0.03298913
0.03302207
0.03305456
0.03308654
0.03311801
0.03314894
0.03317931
0.0332091
0.0332383
0.03326689
0.03329487
0.03332221
0.03334892
0.03337499
0.03340042
0.03342522
0.03344939
0.03347296
0.03349594
0.03351836
0.03354025
0.03356164
0.03358257
0.03360308
0.03362322
0.03364303
0.03366258
0.0336819
0.03370106
0.03372011
0.0337391
0.03375808
0.03377712
0.03379627
0.03381558
0.03383511
0.03385491
0.03387505
0.03389558
0.03391657
0.03393809
0.03396021
0.03398304
0.03400667
0.03403123
0.03405687
0.03408378
0.03411221
0.03414247
0.03417495
0.03421022
0.03424899
0.03429221
0.03434111
0.03439728
0.03446303
0.03454446
0.03465182
0.03476767
0.03268779
0.0360932
0.03958275
0.04280267
0.04579502
0.04855583
0.05117021
0.05361421
0.05606863
0.06065592
0.09266784
0.1054519
0.110221
0.1129202
0.1149255
0.1166268
0.1180807
0.1192942
0.1201775
0.1395983
0.1407173
0.1416997
0.1425371
0.1429905
0.142964
0.1424807
0.1416
0.1403776
0.1389535
0.1370541
0.1349035
0.1327344
0.1305725
0.128381
0.1261173
0.1237551
0.1212834
0.1187864
0.1159417
0.1129052
0.1098888
0.1069391
0.1040561
0.1012424
0.09849557
0.09581382
0.09320257
0.09066744
0.08816019
0.08573206
0.08337886
0.08110806
0.07893242
0.07685908
0.0748962
0.07305747
0.07616862
0.07443086
0.07281245
0.07128898
0.06984092
0.06846412
0.06715707
0.06591937
0.06474599
0.06363151
0.06257913
0.061586
0.06063942
0.05973352
0.05886641
0.05803479
0.05723428
0.05646247
0.05571517
0.05498368
0.05426987
0.053575
0.05289407
0.05222421
0.05156456
0.05091386
0.05027244
0.04963865
0.04901317
0.04839927
0.04779374
0.04719662
0.0466106
0.04603733
0.0454781
0.0449329
0.04440387
0.04388859
0.04336534
0.0428652
0.04238755
0.04192888
0.04148951
0.04107146
0.04067623
0.04030465
0.03995679
0.03963303
0.0393349
0.03906222
0.03881463
0.03859306
0.03839794
0.03823042
0.03809126
0.03798495
0.03791371
0.03787309
0.03783455
0.03780119
0.03778479
0.03778239
0.03778257
0.03777646
0.03776144
0.03773631
0.03769961
0.03764947
0.03758369
0.03750019
0.03739713
0.03727308
0.03712679
0.03695752
0.03676467
0.03654878
0.03631144
0.03605659
0.03578742
0.03550767
0.03522885
0.03495551
0.03468066
0.03439855
0.03409781
0.03377339
0.03343148
0.03309647
0.03278011
0.03248549
0.03221313
0.03196245
0.0317331
0.03152466
0.03133653
0.03116801
0.03101817
0.03088596
0.03077026
0.03066993
0.03058381
0.03051075
0.03044965
0.03039948
0.03035926
0.03032808
0.03030507
0.03028944
0.03028042
0.03027735
0.0302796
0.03028661
0.03029785
0.03031285
0.03033119
0.03035245
0.03037627
0.03040232
0.03043029
0.03045992
0.03049096
0.03052318
0.03055638
0.03059039
0.03062505
0.0306602
0.03069574
0.03073157
0.0307676
0.03080378
0.03084009
0.03087653
0.03091319
0.03095016
0.03098776
0.03102618
0.03106529
0.03110397
0.03114193
0.0311797
0.03121744
0.03125531
0.03129344
0.03133193
0.03137082
0.03141016
0.03144997
0.03149026
0.031531
0.03157215
0.03161366
0.03165545
0.03169747
0.03173963
0.03178185
0.03182403
0.03186608
0.03190789
0.03194937
0.03199042
0.03203094
0.03207083
0.03211
0.03214836
0.03218585
0.03222239
0.0322579
0.03229233
0.03232564
0.0323578
0.03238879
0.03241858
0.03244721
0.03247468
0.03250104
0.03252633
0.03255064
0.03257402
0.0325966
0.03261848
0.03263983
0.03266074
0.03268156
0.03270222
0.03272292
0.03274181
0.03272175
0.03273643
0.03276786
0.03280662
0.03284794
0.0328897
0.0329311
0.032972
0.03301244
0.03305252
0.03309232
0.03313183
0.03317097
0.03320959
0.03324751
0.03328454
0.0333205
0.03335524
0.03338861
0.03342052
0.03345088
0.03347967
0.0335069
0.03353266
0.03355707
0.03358031
0.03360259
0.03362416
0.03364531
0.03366638
0.03368786
0.03371055
0.03373573
0.03376575
0.03380415
0.03385455
0.03391627
0.03398511
0.03405838
0.03413468
0.03421317
0.03429338
0.03437499
0.03445777
0.03454156
0.03462619
0.03471148
0.03479721
0.03488316
0.03496909
0.03505474
0.03513985
0.03522417
0.03530749
0.0353896
0.03547036
0.03554965
0.03562739
0.03570354
0.03577809
0.03585106
0.03592244
0.03599229
0.03606063
0.03612749
0.03619295
0.03625703
0.03631995
0.03638231
0.03645006
0.03647578
0.03651043
0.03654955
0.03659178
0.03663585
0.03668066
0.03672558
0.03677035
0.03681494
0.03685945
0.03690413
0.03694924
0.03699503
0.03704171
0.03708941
0.03713814
0.03718787
0.0372385
0.03728987
0.03734184
0.03739424
0.03744688
0.03749965
0.03755243
0.03760509
0.03765752
0.03770962
0.03776128
0.03781241
0.03786295
0.03791283
0.037962
0.03801039
0.03805798
0.0381047
0.03815053
0.03819541
0.03823931
0.03828217
0.03832394
0.03836477
0.03840473
0.03844376
0.0384817
0.03851831
0.03855325
0.03858637
0.03861788
0.03864807
0.03867715
0.03870512
0.03873202
0.03875788
0.03878251
0.0388057
0.03882755
0.0388482
0.03886762
0.0388859
0.03890317
0.03891962
0.0389355
0.03895111
0.03896677
0.03898274
0.03899927
0.03901655
0.03903469
0.03905376
0.03907377
0.03909468
0.03911645
0.039139
0.03916224
0.03918607
0.03921039
0.03923512
0.03926017
0.03928544
0.03931087
0.03933637
0.03936189
0.03938735
0.0394127
0.03943788
0.03946285
0.03948755
0.03951194
0.03953598
0.03955963
0.03958285
0.03960563
0.03962792
0.03964972
0.03967101
0.03969177
0.03971202
0.03973175
0.03975097
0.0397697
0.03978796
0.03980579
0.03982321
0.03984026
0.03985699
0.03987345
0.03988967
0.03990572
0.03992165
0.03993752
0.03995337
0.03996927
0.03998527
0.04000144
0.04001782
0.04003448
0.04005149
0.04006888
0.04008675
0.04010514
0.04012415
0.04014384
0.04016431
0.04018567
0.04020805
0.04023159
0.04025649
0.04028296
0.04031129
0.04034183
0.04037503
0.04041142
0.04045164
0.04049648
0.04054673
0.04060359
0.04066843
0.04074281
0.0408142
0.02771714
0.03557177
0.04324886
0.07611294
0.09970917
0.1343543
0.1501713
0.1652755
0.1777008
0.188033
0.1977807
0.2065969
0.2136994
0.2192827
0.2236451
0.227115
0.2297959
0.2318139
0.2332755
0.2342208
0.2346993
0.2350169
0.2351166
0.2350686
0.2348229
0.2341816
0.2331141
0.231672
0.2299157
0.2278826
0.2255092
0.2349489
0.2322609
0.2293264
0.2262397
0.223024
0.2196768
0.2161955
0.2125844
0.2088572
0.2050154
0.2010512
0.1969718
0.1927877
0.1885216
0.184193
0.17982
0.1754189
0.1710027
0.1665665
0.1621114
0.1576704
0.1532558
0.1488735
0.1445373
0.1402631
0.136067
0.1319611
0.1279572
0.1240708
0.1203051
0.116665
0.11316
0.1097996
0.1065824
0.1035156
0.1005764
0.09776859
0.09509951
0.09258061
0.0901968
0.08794554
0.08582451
0.08382806
0.0819483
0.08017759
0.07850777
0.07693222
0.07544472
0.07403533
0.07269605
0.07142166
0.07020751
0.06904825
0.06793806
0.06687138
0.0658432
0.06484814
0.06388081
0.06293778
0.0620181
0.06112076
0.06024416
0.05938653
0.05854652
0.05772298
0.05691541
0.05612374
0.05534732
0.05458652
0.0538426
0.05311619
0.05240857
0.05171923
0.05105047
0.05039901
0.04976631
0.04915469
0.04856464
0.04799615
0.04745018
0.04692811
0.04643098
0.04595945
0.04551407
0.04509525
0.04470351
0.04433943
0.04400377
0.04369752
0.04342154
0.04317694
0.04296447
0.04278527
0.04264027
0.04252719
0.04243386
0.04235481
0.04229419
0.04225215
0.04222194
0.04219585
0.04216943
0.04214033
0.04210627
0.04206451
0.04201213
0.04194634
0.04186466
0.04176487
0.04164502
0.04150354
0.04133924
0.04115178
0.04094186
0.04071203
0.04046556
0.04020625
0.03993988
0.0396711
0.03939964
0.03912302
0.03883808
0.03854142
0.03822814
0.03790974
0.03759849
0.03730104
0.03702072
0.03675878
0.03651576
0.03629233
0.036089
0.0359059
0.03574282
0.03559851
0.03547175
0.03536136
0.03526617
0.03518506
0.03511693
0.03506076
0.03501557
0.03498044
0.03495449
0.03493688
0.03492685
0.03492367
0.03492667
0.03493526
0.03494885
0.03496694
0.03498903
0.03501469
0.0350435
0.03507509
0.03510912
0.03514527
0.03518326
0.03522282
0.03526371
0.03530573
0.03534869
0.03539241
0.03543675
0.03548158
0.03552681
0.03557236
0.03561818
0.03566427
0.03571066
0.0357574
0.03580458
0.03585226
0.03590034
0.03594841
0.03599615
0.03604362
0.03609097
0.03613834
0.03618583
0.0362335
0.03628142
0.03632966
0.03637826
0.03642726
0.0364767
0.0365266
0.03657695
0.03662777
0.03667903
0.03673072
0.03678277
0.03683514
0.03688776
0.03694054
0.03699341
0.03704626
0.037099
0.03715152
0.03720372
0.03725549
0.03730671
0.03735731
0.03740717
0.0374562
0.03750432
0.03755145
0.03759752
0.03764248
0.03768628
0.03772891
0.03777035
0.03781061
0.0378497
0.03788768
0.0379246
0.03796055
0.03799564
0.03803
0.03806377
0.0380971
0.03813003
0.03816248
0.03819189
0.03822088
0.03825101
0.03828302
0.03831701
0.03835284
0.03839028
0.03842916
0.0384693
0.03851059
0.03855288
0.03859603
0.03863989
0.03868426
0.03872895
0.03877374
0.03881842
0.03886278
0.03890662
0.03894976
0.03899203
0.03903332
0.0390735
0.03911254
0.03915045
0.03918728
0.03922312
0.03925813
0.03929257
0.03932678
0.03936131
0.03939697
0.03943499
0.03947718
0.03952572
0.03958252
0.03964698
0.03971668
0.03978971
0.03986491
0.03994154
0.04001914
0.04009739
0.04017605
0.04025499
0.0403341
0.04041327
0.04049242
0.04057145
0.04065028
0.04072877
0.04080681
0.04088426
0.04096102
0.04103696
0.04111199
0.04118601
0.04125895
0.04133078
0.04140144
0.04147093
0.04153923
0.04160635
0.04167229
0.04173705
0.04180064
0.04186308
0.0419244
0.04198461
0.04204349
0.04209681
0.04214737
0.04219742
0.04224761
0.04229766
0.04234715
0.04239589
0.04244382
0.04249096
0.04253737
0.04258317
0.0426285
0.04267352
0.04271841
0.04276328
0.04280823
0.04285332
0.04289855
0.04294391
0.0429893
0.04303462
0.04307973
0.04312444
0.04316897
0.0432135
0.04325799
0.04330236
0.04334655
0.04339049
0.0434341
0.04347733
0.04352013
0.04356243
0.04360419
0.04364536
0.0436859
0.04372576
0.04376492
0.04380331
0.0438409
0.04387764
0.04391345
0.04394824
0.04398191
0.04401434
0.04404543
0.04407522
0.0441038
0.04413124
0.04415762
0.04418316
0.04420801
0.04423222
0.04425556
0.04427787
0.04429916
0.04431957
0.04433921
0.04435814
0.04437637
0.04439394
0.04441091
0.04442737
0.04444344
0.04445926
0.04447498
0.04449072
0.0445066
0.04452275
0.04453922
0.04455609
0.04457339
0.04459114
0.04460935
0.04462799
0.04464706
0.0446665
0.04468629
0.04470638
0.04472671
0.04474725
0.04476794
0.04478871
0.04480953
0.04483033
0.04485106
0.04487167
0.04489212
0.04491234
0.0449323
0.04495196
0.04497127
0.04499021
0.04500875
0.04502687
0.04504454
0.04506177
0.04507854
0.04509488
0.04511078
0.04512626
0.04514135
0.04515609
0.0451705
0.04518463
0.04519853
0.04521223
0.0452258
0.04523929
0.04525275
0.04526624
0.04527982
0.04529354
0.04530748
0.04532168
0.04533621
0.04535113
0.0453665
0.0453824
0.04539889
0.04541604
0.04543395
0.04545271
0.04547242
0.04549321
0.04551522
0.04553864
0.04556366
0.04559054
0.04561958
0.04565112
0.04568559
0.04572342
0.04576512
0.04581117
0.04586211
0.04591813
0.04597834
0.0460319
0.01782451
0.02169235
0.02567621
0.03956558
0.05344652
0.0784721
0.09248781
0.1058927
0.119179
0.1318234
0.1442242
0.1571093
0.170221
0.1832257
0.1956514
0.2081406
0.2348072
0.2436858
0.2520997
0.259502
0.2667069
0.2739115
0.2803785
0.2856802
0.2898665
0.2929448
0.2949787
0.2961795
0.2966571
0.2965013
0.2957832
0.2946096
0.2931101
0.2912929
0.2891787
0.2868122
0.2842116
0.2813831
0.2783486
0.2751135
0.2717618
0.2682157
0.2638734
0.2596194
0.2553802
0.2511036
0.24679
0.2424466
0.2380737
0.2336704
0.2292402
0.2247862
0.2203029
0.2157537
0.2111538
0.2065206
0.2018663
0.1972033
0.1925432
0.1878918
0.183248
0.178604
0.173963
0.1693384
0.1647432
0.1601893
0.1556895
0.1512568
0.1469032
0.142641
0.1384822
0.134436
0.1305116
0.1267181
0.1230636
0.1195554
0.116193
0.1129791
0.1099055
0.1069838
0.1041949
0.1015334
0.09900269
0.09660241
0.09432934
0.09217734
0.09013982
0.08821057
0.08638296
0.08464977
0.08300399
0.08143935
0.07994974
0.07852926
0.07717219
0.07587273
0.07462507
0.07342398
0.07226414
0.07113996
0.0700478
0.06898585
0.06795228
0.06694491
0.06596166
0.06500088
0.06406132
0.06314197
0.0622423
0.0613622
0.06050164
0.05966099
0.05884058
0.05804115
0.0572628
0.05650631
0.05577161
0.0550587
0.05436812
0.05370093
0.05305786
0.05243938
0.05184608
0.05127857
0.0507374
0.05022309
0.0497361
0.04927703
0.04884672
0.0484461
0.04807617
0.04773793
0.04743243
0.04716047
0.04692269
0.04671936
0.04654872
0.04640491
0.04628353
0.04618454
0.04610715
0.04604709
0.04599882
0.04595796
0.04592138
0.04588614
0.045849
0.04580652
0.04575569
0.04569371
0.04561786
0.04552556
0.04541453
0.0452829
0.04512947
0.04495365
0.04475682
0.04454199
0.0443123
0.04407151
0.04382303
0.04356822
0.04330657
0.04303696
0.0427584
0.04247043
0.042176
0.04188155
0.04159411
0.04131831
0.04105693
0.04081172
0.04058391
0.04037422
0.04018291
0.04000981
0.03985528
0.03971936
0.0396008
0.03949818
0.03941027
0.03933598
0.0392743
0.03922426
0.03918496
0.03915554
0.03913516
0.03912306
0.03911848
0.03912076
0.03912925
0.03914335
0.03916254
0.03918628
0.03921411
0.03924559
0.03928032
0.03931792
0.03935806
0.03940041
0.0394447
0.03949066
0.03953806
0.03958668
0.03963633
0.03968684
0.03973808
0.03978992
0.03984226
0.03989504
0.03994823
0.04000181
0.04005579
0.04011018
0.04016498
0.04022012
0.04027537
0.04033054
0.04038557
0.04044057
0.0404956
0.04055073
0.04060601
0.04066146
0.04071717
0.04077315
0.04082947
0.04088615
0.04094322
0.04100073
0.04105869
0.0411171
0.04117596
0.04123525
0.04129496
0.04135503
0.04141543
0.04147608
0.04153691
0.04159784
0.04165878
0.04171963
0.0417803
0.04184068
0.04190066
0.04196015
0.04201904
0.04207723
0.04213462
0.04219114
0.0422467
0.04230122
0.04235466
0.04240697
0.04245811
0.04250809
0.0425569
0.04260457
0.04265116
0.04269673
0.04274139
0.04278526
0.04282846
0.04287116
0.04291351
0.04295552
0.04299684
0.04303748
0.04307783
0.04311836
0.04315937
0.04320105
0.04324352
0.04328686
0.04333111
0.04337627
0.04342231
0.04346915
0.04351669
0.0435648
0.04361334
0.04366212
0.04371099
0.04375975
0.04380821
0.0438562
0.04390363
0.04395045
0.04399657
0.04404192
0.04408652
0.0441304
0.04417365
0.04421647
0.04425917
0.04430222
0.04434631
0.04439242
0.04444181
0.04449587
0.04455561
0.0446208
0.0446901
0.04476209
0.04483581
0.0449106
0.04498603
0.04506176
0.04513756
0.0452133
0.04528884
0.04536413
0.04543909
0.04551367
0.04558783
0.04566153
0.04573471
0.04580732
0.04587929
0.04595057
0.04602111
0.04609085
0.04615977
0.04622783
0.04629499
0.04636124
0.04642659
0.046491
0.04655448
0.04661701
0.04667859
0.04673922
0.04679885
0.04685741
0.04691464
0.04696986
0.04702377
0.04707723
0.04713044
0.04718322
0.04723539
0.04728687
0.04733761
0.04738759
0.04743683
0.04748533
0.04753318
0.04758046
0.04762726
0.04767367
0.0477198
0.04776573
0.04781152
0.04785724
0.04790291
0.04794856
0.04799418
0.04803977
0.04808529
0.04813072
0.048176
0.0482211
0.04826596
0.04831054
0.04835479
0.04839866
0.0484421
0.04848507
0.04852751
0.04856939
0.04861065
0.04865126
0.04869115
0.04873028
0.04876859
0.04880603
0.04884253
0.048878
0.04891237
0.04894558
0.04897757
0.0490084
0.04903813
0.04906683
0.04909456
0.04912134
0.04914721
0.04917222
0.04919664
0.04922045
0.04924343
0.04926564
0.04928715
0.04930805
0.04932835
0.0493481
0.04936731
0.04938604
0.04940434
0.04942228
0.04943993
0.04945737
0.0494747
0.04949198
0.0495093
0.04952672
0.0495443
0.04956207
0.04958007
0.04959833
0.04961683
0.04963559
0.0496546
0.04967383
0.04969325
0.04971285
0.04973257
0.04975238
0.04977223
0.04979207
0.04981186
0.04983155
0.04985109
0.04987043
0.04988952
0.04990832
0.04992679
0.04994489
0.04996259
0.04997988
0.04999672
0.05001312
0.05002906
0.05004455
0.0500596
0.05007422
0.05008846
0.05010232
0.05011586
0.05012912
0.05014214
0.05015497
0.05016768
0.05018032
0.05019295
0.05020563
0.05021843
0.0502314
0.05024463
0.05025816
0.05027207
0.05028643
0.05030131
0.05031677
0.0503329
0.05034978
0.0503675
0.05038615
0.05040586
0.05042675
0.05044896
0.05047268
0.0504981
0.05052545
0.05055502
0.05058711
0.05062206
0.05066024
0.05070203
0.05074779
0.05079778
0.05085178
0.05090814
0.05095644
0.01041451
0.0122755
0.01390274
0.02240295
0.03135639
0.04332559
0.05174292
0.06063716
0.06972316
0.07893834
0.08845902
0.09907448
0.110096
0.1215912
0.1345031
0.1567545
0.1677041
0.1790789
0.1906384
0.2021782
0.2134639
0.2244327
0.2352907
0.2459643
0.2561395
0.2653205
0.2727883
0.2805118
0.2869548
0.2920365
0.2963323
0.3000902
0.3031362
0.3052238
0.3063299
0.3065484
0.3059737
0.3047055
0.3028416
0.3004803
0.2976971
0.2945736
0.2912268
0.2877093
0.284044
0.2802617
0.2763888
0.2724464
0.2684488
0.2644048
0.2603184
0.2561907
0.2519547
0.2476963
0.243454
0.239226
0.2350181
0.2308443
0.2267173
0.2226455
0.2186348
0.2146893
0.210808
0.2069809
0.2032022
0.1994664
0.1957659
0.1920943
0.1884438
0.1847987
0.1811156
0.1773836
0.1736059
0.1697875
0.1659371
0.1620654
0.1581841
0.1543036
0.1504336
0.146597
0.1428122
0.1390943
0.1354556
0.1319058
0.1284524
0.1251044
0.1218694
0.1187531
0.1157562
0.1128799
0.1101217
0.1074802
0.1049564
0.1025493
0.1002543
0.0980671
0.09598332
0.09399849
0.0921077
0.09030573
0.08858701
0.08694757
0.08538282
0.08388772
0.08245703
0.08108558
0.07976807
0.07849951
0.07727522
0.07609065
0.07494207
0.07382689
0.07274277
0.07168738
0.0706586
0.06965469
0.0686742
0.06771599
0.06677933
0.0658638
0.06496908
0.06409512
0.06324207
0.06241025
0.06159986
0.06081122
0.06004457
0.05929995
0.05857767
0.05787844
0.05720281
0.05655109
0.05592365
0.05532096
0.05474355
0.05419194
0.05366665
0.05316841
0.05269808
0.05225663
0.05184517
0.05146482
0.05111674
0.05080187
0.05052092
0.05027389
0.05005974
0.04987567
0.04971879
0.04958774
0.0494811
0.04939582
0.04932785
0.04927329
0.04922909
0.04919239
0.04915956
0.04912555
0.04908785
0.04904419
0.04899165
0.0489271
0.04884765
0.0487509
0.04863517
0.04849958
0.04834414
0.0481698
0.04797817
0.04777143
0.04755183
0.04732083
0.04707902
0.04682668
0.04656438
0.04629343
0.0460169
0.04573958
0.04546647
0.04520167
0.04494807
0.04470779
0.0444824
0.04427307
0.04408052
0.0439051
0.04374677
0.04360517
0.04348052
0.04337255
0.04327975
0.04320089
0.04313492
0.04308092
0.04303801
0.04300536
0.04298217
0.0429677
0.04296121
0.04296202
0.0429695
0.04298305
0.0430021
0.04302614
0.04305467
0.04308724
0.04312344
0.04316286
0.04320517
0.04325002
0.04329712
0.04334618
0.04339696
0.04344922
0.04350277
0.04355741
0.043613
0.0436694
0.04372649
0.04378419
0.04384243
0.04390119
0.04396042
0.04402012
0.04408024
0.0441407
0.04420139
0.04426217
0.04432299
0.04438386
0.04444484
0.04450596
0.04456724
0.04462871
0.04469039
0.04475237
0.04481463
0.04487722
0.04494016
0.04500349
0.04506722
0.04513136
0.04519594
0.04526094
0.04532635
0.04539216
0.04545831
0.04552478
0.04559151
0.04565842
0.04572545
0.04579251
0.04585953
0.0459264
0.04599304
0.04605935
0.04612522
0.04619056
0.04625528
0.04631927
0.04638245
0.04644474
0.04650605
0.04656633
0.04662553
0.04668362
0.04674056
0.04679637
0.04685108
0.04690472
0.04695736
0.04700912
0.04706009
0.04711045
0.04716033
0.04720988
0.0472589
0.04730725
0.04735506
0.0474026
0.04745011
0.04749778
0.04754576
0.0475942
0.0476432
0.04769283
0.04774315
0.04779416
0.04784583
0.04789813
0.04795098
0.0480043
0.04805798
0.04811191
0.04816595
0.04821997
0.04827385
0.04832747
0.04838075
0.04843362
0.04848606
0.04853808
0.04858977
0.0486413
0.04869293
0.04874507
0.04879829
0.04885334
0.04891112
0.04897253
0.04903822
0.04910812
0.0491815
0.04925739
0.04933501
0.0494138
0.0494933
0.04957319
0.04965321
0.04973318
0.04981298
0.04989248
0.04997164
0.05005037
0.05012865
0.05020643
0.05028367
0.05036035
0.05043641
0.05051182
0.05058654
0.05066054
0.05073379
0.05080627
0.05087793
0.05094879
0.05101883
0.05108803
0.05115637
0.05122385
0.05129046
0.05135618
0.05142097
0.05148479
0.05154751
0.05160901
0.0516696
0.05172972
0.05178952
0.05184899
0.051908
0.05196648
0.05202437
0.0520816
0.05213814
0.052194
0.05224918
0.05230372
0.05235768
0.05241112
0.05246413
0.05251678
0.05256916
0.05262135
0.05267345
0.05272554
0.05277774
0.05283017
0.05288256
0.05293467
0.05298641
0.05303777
0.0530887
0.05313916
0.05318913
0.05323856
0.05328742
0.05333565
0.05338322
0.05343009
0.0534762
0.05352152
0.053566
0.05360958
0.05365222
0.05369385
0.05373441
0.05377385
0.05381211
0.05384913
0.0538849
0.05391946
0.05395286
0.05398516
0.05401641
0.05404664
0.0540759
0.05410422
0.05413164
0.05415834
0.05418454
0.05421
0.05423473
0.0542588
0.05428227
0.05430519
0.05432759
0.05434952
0.05437102
0.05439216
0.05441297
0.05443352
0.05445386
0.05447406
0.05449418
0.05451426
0.05453435
0.0545545
0.05457473
0.05459508
0.05461556
0.05463618
0.05465693
0.05467781
0.0546988
0.05471988
0.05474101
0.05476217
0.05478331
0.05480439
0.05482537
0.0548462
0.05486682
0.05488719
0.05490727
0.054927
0.05494635
0.05496528
0.05498375
0.05500174
0.05501924
0.05503622
0.05505269
0.05506865
0.05508412
0.05509911
0.05511365
0.05512777
0.05514153
0.05515497
0.05516814
0.0551811
0.05519392
0.05520666
0.05521939
0.05523217
0.05524509
0.05525821
0.0552716
0.05528535
0.05529953
0.05531421
0.05532947
0.05534539
0.05536207
0.05537958
0.05539804
0.05541755
0.05543822
0.0554602
0.05548363
0.0555087
0.05553561
0.05556458
0.05559588
0.05562979
0.05566664
0.05570674
0.05575045
0.05579803
0.05584967
0.05590496
0.05596195
0.05601009
0.003360545
0.01190913
0.01806089
0.02485822
0.03172299
0.03893314
0.04660002
0.05445433
0.0627077