/*--------------------------------*- C++ -*----------------------------------*\
| =========                 |                                                 |
| \\      /  F ield         | foam-extend: Open Source CFD                    |
|  \\    /   O peration     | Version:     3.1                                |
|   \\  /    A nd           | Web:         http://www.extend-project.de       |
|    \\/     M anipulation  |                                                 |
\*---------------------------------------------------------------------------*/
FoamFile
{
    version     2.0;
    format      ascii;
    class       volScalarField;
    location    "3.5";
    object      nut;
}
// * * * * * * * * * * * * * * * * * * * * * * * * * * * * * * * * * * * * * //

dimensions      [0 2 -1 0 0 0 0];

internalField   nonuniform List<scalar> 
119952
(
2.515461e-05
1.701121e-05
1.761094e-05
1.966007e-05
2.114003e-05
2.030502e-05
1.97841e-05
1.942252e-05
1.91373e-05
1.888187e-05
1.863611e-05
1.838933e-05
1.813488e-05
1.786879e-05
1.758885e-05
1.729366e-05
1.698258e-05
1.665504e-05
1.630346e-05
1.592789e-05
1.966364e-05
1.871471e-05
1.836685e-05
2.31694e-05
2.250391e-05
2.217469e-05
2.195195e-05
2.196156e-05
2.195048e-05
2.435504e-05
1.564358e-05
1.621992e-05
1.814135e-05
2.04441e-05
2.306366e-05
2.587813e-05
2.882195e-05
3.180606e-05
3.476666e-05
3.967713e-05
0.0001538384
0.000188308
0.0002241838
0.0002595881
0.0002938414
0.0003265245
0.0003579051
0.0003882383
0.0004175525
0.0005985969
0.0006329005
0.0006669223
0.000701009
0.0007356348
0.0007709424
0.0008070153
0.0008438259
0.0008811778
0.0009191618
0.0009578435
0.0009958871
0.001034941
0.001075497
0.001117641
0.001161375
0.001206785
0.001253957
0.001305685
0.001345393
0.001356401
0.001372687
0.001393986
0.00141355
0.00142698
0.001435803
0.001442083
0.001446208
0.001448152
0.001447808
0.001445046
0.001439769
0.001431975
0.001421783
0.001409438
0.00139533
0.001380008
0.001364335
0.001349572
0.00133747
0.001326099
0.001315992
0.001312077
0.001308589
0.001295701
0.001273566
0.001235721
0.001156002
0.001036015
0.000992512
0.0009639546
0.0009457761
0.0009325777
0.0009224072
0.0009145313
0.0009082937
0.0009032755
0.0008992201
0.0008959398
0.0008932725
0.0008910843
0.0008892695
0.0008877319
0.0008863748
0.0008851236
0.0008839093
0.0008827102
0.0008815038
0.0008802614
0.0008789563
0.0008775688
0.0008760858
0.0008744991
0.0008728029
0.0008709932
0.0008690665
0.0008670186
0.0008648433
0.0008625347
0.0008600886
0.0008575023
0.0008547745
0.0008519045
0.0008488909
0.0008457327
0.00084243
0.000838983
0.0008353928
0.000831661
0.0008277904
0.0008237857
0.0008196529
0.0008154009
0.0008110406
0.0008065886
0.0008020831
0.0007977265
0.0007944613
0.0007910359
0.0007864526
0.0007817856
0.000777252
0.0007725511
0.0007677863
0.0007629043
0.0007578967
0.0007527734
0.0007475452
0.0007422301
0.0007368489
0.0007314179
0.0007259517
0.0007204591
0.0007149492
0.0007094336
0.0007039223
0.0006984226
0.0006929399
0.0006874778
0.0006820386
0.0006766237
0.0006712345
0.0006658702
0.0006605281
0.0006552047
0.0006498979
0.0006446067
0.0006393283
0.0006340587
0.0006287919
0.0006235226
0.000618249
0.000612971
0.0006076875
0.0006023948
0.0005970881
0.0005917634
0.0005864176
0.0005810465
0.0005756445
0.000570206
0.0005647267
0.0005592024
0.0005536325
0.0005480167
0.0005423765
0.0005369193
0.0005326693
0.0004759937
0.0004373324
0.000399512
0.0003743834
0.0003563403
0.0003427303
0.0003318545
0.0003227499
0.0003148427
0.0003077659
0.0003012941
0.0002952901
0.000289664
0.0002843541
0.0002792991
0.0002744693
0.0002698029
0.0002652888
0.0002609552
0.0002567906
0.0002527655
0.0002488593
0.0002450522
0.0002413404
0.0002377241
0.0002342065
0.0002307783
0.0002274284
0.0002241464
0.0002209301
0.0002177832
0.0002147159
0.0002117503
0.0002089386
0.0002066123
0.0002081881
0.0002165256
0.0002254314
0.0002343335
0.0002430225
0.0002514127
0.0002594675
0.0002671838
0.0002745759
0.0002816699
0.000288494
0.0002950792
0.0003014583
0.0003076618
0.0003137171
0.0003196491
0.0003254795
0.0003312266
0.0003369059
0.0003425299
0.000348109
0.0003536515
0.0003591647
0.0003646553
0.0003701289
0.0003755919
0.0003810456
0.000386491
0.0003919322
0.000397371
0.0004028089
0.0004082475
0.0004136891
0.0004191415
0.0004246298
0.000596954
0.0006154177
0.0006360264
0.0006575826
0.0006798419
0.0007025226
0.0007253674
0.0007479949
0.0007700645
0.0007913142
0.0008115594
0.000830695
0.0008486887
0.0008655691
0.000881421
0.0008963476
0.0009104504
0.0009238269
0.000936569
0.0009487588
0.0009604677
0.0009717569
0.0009826795
0.0009932813
0.001003601
0.001013671
0.001023515
0.001033156
0.001042617
0.001051915
0.001061063
0.001070075
0.001078959
0.001087724
0.001096376
0.001104919
0.001113357
0.001121692
0.001129923
0.001138049
0.001146064
0.001153956
0.001161698
0.001169236
0.001176444
0.001183003
0.001188637
0.001193898
0.001198972
0.001203907
0.001208722
0.001213436
0.001218081
0.001223042
0.001225929
0.001230687
0.001239194
0.001251118
0.001265616
0.001281743
0.001298604
0.001315425
0.001331663
0.001346978
0.001361196
0.001374276
0.001386268
0.00139727
0.001407405
0.001416799
0.00142557
0.001433822
0.001441644
0.00144911
0.001456281
0.001463206
0.001469924
0.001476466
0.001482857
0.001489116
0.001495258
0.001501297
0.00150724
0.001513096
0.001518871
0.001524568
0.001530193
0.001535746
0.001541232
0.00154665
0.001552004
0.001557295
0.001562523
0.00156769
0.001572797
0.001577845
0.001582837
0.001587775
0.001592659
0.001597493
0.001602278
0.001607019
0.001611717
0.001616376
0.001620998
0.001625587
0.001630147
0.00163468
0.001639192
0.001643685
0.001648162
0.001652629
0.001657088
0.001661544
0.001666001
0.001670462
0.001674933
0.001679419
0.001683924
0.001688455
0.001693018
0.001697622
0.001702276
0.001706991
0.001711783
0.001716668
0.001721673
0.001726827
0.001732176
0.00173778
0.00174373
0.001750167
0.001757314
0.001765564
0.001775663
0.001789195
0.001809696
0.001846198
0.001851225
2.623437e-05
2.789233e-05
3.172684e-05
3.657464e-05
4.181044e-05
4.705342e-05
5.211987e-05
5.693466e-05
6.209168e-05
0.0002011419
0.0002633063
0.0003261137
0.0003844952
0.0004365166
0.0004822472
0.0005227051
0.0005590784
0.0005923796
0.0008362081
0.000873778
0.0009112589
0.0009479373
0.0009840488
0.001020018
0.00105608
0.001092281
0.00112848
0.001164689
0.001201533
0.001236427
0.001272125
0.001309412
0.001348265
0.001388367
0.001429289
0.001470662
0.001512195
0.001546723
0.001572979
0.001601519
0.001633044
0.001666795
0.001702119
0.001738488
0.001775527
0.001812874
0.001850343
0.001887631
0.001924594
0.001961629
0.001998683
0.002035965
0.002073544
0.002111476
0.002149713
0.002187787
0.002608459
0.002648095
0.002687469
0.002726843
0.002766396
0.002806375
0.002846976
0.002888486
0.002931008
0.002974678
0.003019867
0.00306676
0.003115371
0.003165823
0.003218228
0.003272554
0.003328746
0.003387158
0.003448375
0.003507835
0.003562021
0.003615186
0.003667223
0.003715327
0.00375798
0.003795308
0.003827808
0.003855485
0.003878277
0.00389614
0.003909021
0.00391688
0.003919739
0.003917677
0.0039109
0.003899658
0.003884416
0.003865642
0.00384425
0.00382073
0.003794815
0.003767383
0.003738955
0.003706908
0.003668965
0.003619599
0.003555974
0.003478164
0.003403211
0.003343932
0.003291194
0.0032441
0.003202139
0.003164515
0.00313074
0.003100407
0.003073239
0.003049038
0.003027588
0.003008661
0.002992037
0.0029775
0.002964834
0.002953827
0.002944292
0.002936071
0.002929025
0.002923024
0.002917948
0.002913689
0.002910154
0.002907262
0.002904943
0.002903136
0.002901785
0.002900837
0.002900244
0.002899955
0.002899926
0.002900116
0.002900484
0.002900994
0.002901612
0.002902307
0.002903047
0.002903805
0.002904556
0.002905277
0.00290595
0.002906557
0.002907088
0.002907537
0.002907907
0.002908212
0.002908502
0.002908862
0.002909391
0.002910221
0.002911171
0.00291144
0.002911181
0.002910637
0.002909807
0.002908718
0.002907373
0.002905775
0.002903933
0.002901853
0.002899547
0.002897024
0.002894299
0.002891382
0.00288829
0.002885035
0.002881634
0.0028781
0.002874447
0.002870687
0.002866831
0.002862886
0.002858862
0.002854764
0.002850595
0.002846359
0.002842059
0.002837695
0.002833273
0.002828793
0.002824257
0.002819664
0.002815019
0.002810326
0.002805589
0.002800813
0.002796004
0.002791167
0.002786308
0.00278143
0.002776543
0.002771644
0.002766751
0.002761848
0.002756981
0.002752108
0.002747369
0.002742764
0.002739046
0.002739565
0.002583092
0.002426715
0.002334544
0.00227804
0.002242106
0.002218369
0.002201925
0.002189833
0.002180305
0.002172256
0.002165041
0.002158285
0.002151779
0.002145404
0.002139097
0.002132835
0.002126634
0.002120546
0.002114626
0.002108917
0.002103448
0.002098242
0.002093314
0.002088691
0.002084403
0.00208048
0.002076942
0.002073801
0.002071068
0.002068767
0.002066952
0.002065739
0.002065369
0.002066407
0.002070199
0.002079347
0.002095187
0.00211409
0.002134602
0.002156124
0.002178334
0.002201015
0.002223983
0.002247071
0.002270122
0.002292987
0.00231553
0.002337638
0.002359219
0.002380205
0.002400554
0.002420242
0.002439266
0.002457635
0.002475373
0.00249251
0.002509082
0.002525133
0.002540708
0.002555854
0.002570616
0.002585034
0.002599147
0.002612986
0.00262658
0.002639954
0.002653129
0.002666123
0.002678951
0.002691271
0.003219113
0.003249731
0.003276383
0.003300054
0.003321915
0.003343052
0.003364156
0.003385635
0.003407676
0.003430302
0.003453418
0.003476861
0.003500436
0.003523957
0.003547255
0.003570188
0.003592644
0.003614538
0.003635816
0.003656444
0.003676409
0.003695714
0.00371437
0.003732397
0.00374982
0.003766675
0.00378305
0.003799004
0.003814573
0.003829788
0.003844677
0.003859267
0.003873582
0.003887645
0.003901476
0.003915092
0.00392851
0.003941739
0.003954786
0.003967647
0.003980264
0.003992567
0.004004505
0.004016002
0.004026949
0.004037207
0.004046816
0.004055951
0.004064709
0.004073134
0.004081262
0.004089121
0.004096755
0.004103984
0.004110583
0.004116982
0.00412365
0.004130942
0.004139098
0.004148249
0.004158406
0.004169494
0.004181374
0.004193871
0.00420679
0.004219942
0.00423316
0.004246303
0.004259259
0.004271949
0.004284318
0.004296334
0.004307983
0.004319264
0.004330184
0.00434076
0.00435101
0.004360954
0.004370613
0.004380006
0.004389154
0.004398072
0.004406777
0.004415283
0.0044236
0.004431739
0.00443971
0.004447517
0.004455169
0.00446267
0.004470024
0.004477235
0.004484307
0.004491244
0.004498049
0.004504725
0.004511277
0.00451771
0.004524027
0.004530235
0.004536339
0.004542346
0.004548263
0.004554097
0.004559855
0.004565546
0.004571179
0.004576761
0.004582302
0.004587811
0.004593296
0.004598767
0.004604233
0.004609705
0.004615191
0.004620703
0.004626252
0.004631848
0.004637507
0.00464324
0.004649066
0.004655002
0.004661072
0.004667301
0.004673724
0.00468038
0.004687324
0.004694623
0.004702372
0.004710694
0.004719767
0.004729842
0.004741287
0.004754633
0.00477066
0.004790388
0.004815421
0.004845522
0.004872033
6.898419e-05
8.520075e-05
0.00010413
0.0001237759
0.0001440539
0.0001648077
0.0001861377
0.0002078601
0.0002302791
0.0002635475
0.000758124
0.00092857
0.00100358
0.001066769
0.001127495
0.001189021
0.001250168
0.001310176
0.001368261
0.002057261
0.002249996
0.002410037
0.002532942
0.002624754
0.002694074
0.002747817
0.002790589
0.00282537
0.002854469
0.002885303
0.00292561
0.002970581
0.003013726
0.00305062
0.003079276
0.003099407
0.003111549
0.0031194
0.003073971
0.003046833
0.003030999
0.003020848
0.003012683
0.003004368
0.002994689
0.002983075
0.00296943
0.002953928
0.002936154
0.002917857
0.002899643
0.002882058
0.002865506
0.002850209
0.002836343
0.002823405
0.003214148
0.003203894
0.003194831
0.003187191
0.003181161
0.003177107
0.003175325
0.003176073
0.003179401
0.003185336
0.003194016
0.003205434
0.003219356
0.003235672
0.003254348
0.003275253
0.003298204
0.003323056
0.003349579
0.003377253
0.003405927
0.003435562
0.003465923
0.003496846
0.003528255
0.003560065
0.003592263
0.003624754
0.003657558
0.003690778
0.003724294
0.003758123
0.003792399
0.003827205
0.003862632
0.003898689
0.003935589
0.003974192
0.004003233
0.004034559
0.004067953
0.004103156
0.004140154
0.004179043
0.004219902
0.004262813
0.004307827
0.004355047
0.004404648
0.004456712
0.004511317
0.004568591
0.004628607
0.0046914
0.004756932
0.004825236
0.004896044
0.004968039
0.005039073
0.005109455
0.005179436
0.005247887
0.005313368
0.005374989
0.005432364
0.005485136
0.005532894
0.005575212
0.005611692
0.005641996
0.005665874
0.005683171
0.005693839
0.005697937
0.005695651
0.005687285
0.005673302
0.005654163
0.005630143
0.005601599
0.005569074
0.005532109
0.005489767
0.005441069
0.005381034
0.005308585
0.00523523
0.005168767
0.005108102
0.005052066
0.005000187
0.004952166
0.004907948
0.004867438
0.004830492
0.004796965
0.004766684
0.00473945
0.004715063
0.004693304
0.004673951
0.004656786
0.004641608
0.004628239
0.004616515
0.004606283
0.004597398
0.004589731
0.004583166
0.004577599
0.004572942
0.004569114
0.004566042
0.004563661
0.004561906
0.00456072
0.004560047
0.004559836
0.004560039
0.004560613
0.004561514
0.004562703
0.004564144
0.0045658
0.004567639
0.004569631
0.004571749
0.004573969
0.004576273
0.004578649
0.004581094
0.004583612
0.004586227
0.004588953
0.004591854
0.004594958
0.004598185
0.004601144
0.004603755
0.004606196
0.004608475
0.004610601
0.004612573
0.004614388
0.004616041
0.00461753
0.004618851
0.004620001
0.004620979
0.004621784
0.004622414
0.004622871
0.004623154
0.004623271
0.004623221
0.004623004
0.004622619
0.00462207
0.004621355
0.004620473
0.004619421
0.004618199
0.004616804
0.004615235
0.004613499
0.004611592
0.004609517
0.004607279
0.004604884
0.004602339
0.004599652
0.004596836
0.004593902
0.004590865
0.00458774
0.004584544
0.004581295
0.004578008
0.004574711
0.004571413
0.004568167
0.004564959
0.004561905
0.004558894
0.004556088
0.004553258
0.004540088
0.004538589
0.004543191
0.004550487
0.004558594
0.004566572
0.004573994
0.00458072
0.00458673
0.004592068
0.004596792
0.004600954
0.004604597
0.00460775
0.004610437
0.004612681
0.004614518
0.004615988
0.004617139
0.004618023
0.004618694
0.004619219
0.004619666
0.004620113
0.004620643
0.00462134
0.004622292
0.004623584
0.004625313
0.004627593
0.004630581
0.004634516
0.004639779
0.004646986
0.004656997
0.004670607
0.00468751
0.004706748
0.004727781
0.004750262
0.004773946
0.004798657
0.00482425
0.004850593
0.004877556
0.004905005
0.004932804
0.004960813
0.004988895
0.00501692
0.005044765
0.005072318
0.005099483
0.005126181
0.005152349
0.005177942
0.005202936
0.005227321
0.005251104
0.005274302
0.00529694
0.005319049
0.005340662
0.005361812
0.00538253
0.005402846
0.005422785
0.005442387
0.005461837
0.005482864
0.005474422
0.005473528
0.005477852
0.005485959
0.00549689
0.005510033
0.005525022
0.005541603
0.005559568
0.005578734
0.005598936
0.005620012
0.005641802
0.005664148
0.005686893
0.005709887
0.005732988
0.005756067
0.005779013
0.005801734
0.005824156
0.005846222
0.005867894
0.005889152
0.005909981
0.005930373
0.005950322
0.005969827
0.005988891
0.006007518
0.006025713
0.006043483
0.006060833
0.006077766
0.006094286
0.006110394
0.006126088
0.006141366
0.006156221
0.006170648
0.00618472
0.006198486
0.00621192
0.006224972
0.006237568
0.006249632
0.006261144
0.006272164
0.006282772
0.006293027
0.006302923
0.006312464
0.006321652
0.00633041
0.006338719
0.006346714
0.006354565
0.006362443
0.0063705
0.006378855
0.006387605
0.006396806
0.006406483
0.006416625
0.006427191
0.006438123
0.006449348
0.006460788
0.006472367
0.006484012
0.006495659
0.006507254
0.006518752
0.006530115
0.006541318
0.006552341
0.006563169
0.006573796
0.006584217
0.00659443
0.006604437
0.00661424
0.006623842
0.006633246
0.006642456
0.006651476
0.006660308
0.006668956
0.006677421
0.006685708
0.006693816
0.00670175
0.006709511
0.006717102
0.006724526
0.006731786
0.006738887
0.006745834
0.006752632
0.006759288
0.00676581
0.006772206
0.006778485
0.006784655
0.006790729
0.006796716
0.006802627
0.006808475
0.006814271
0.006820028
0.006825758
0.006831473
0.006837187
0.006842914
0.006848666
0.006854457
0.006860304
0.006866222
0.006872227
0.00687834
0.006884582
0.006890977
0.006897554
0.006904348
0.006911399
0.006918759
0.006926492
0.006934677
0.006943421
0.006952859
0.006963175
0.006974608
0.006987479
0.007002203
0.007019292
0.00703932
0.007062795
0.007089094
0.007113082
5.334464e-05
0.0001065173
0.0001697123
0.0006407836
0.001053636
0.002148069
0.002675349
0.003273191
0.00383842
0.004173359
0.004377547
0.004574016
0.004841388
0.004955323
0.005034754
0.005098307
0.005148828
0.005189472
0.005222753
0.005250493
0.005275303
0.005306192
0.005367065
0.005433902
0.005482875
0.005512885
0.005529132
0.005536228
0.005537242
0.005534048
0.005525135
0.005934884
0.005936557
0.005935267
0.005933064
0.005929721
0.005924582
0.005917219
0.005907476
0.005895412
0.005880923
0.005864061
0.005844967
0.005823817
0.005800758
0.005775755
0.005748692
0.005719406
0.005687726
0.005653153
0.005614886
0.005573325
0.00552878
0.005481491
0.00543182
0.005380141
0.005326827
0.005272191
0.005216576
0.005160419
0.00510397
0.005047584
0.004991732
0.004936918
0.004883432
0.004831756
0.004781735
0.00473493
0.004682793
0.004634912
0.004591028
0.004551157
0.004515316
0.004483476
0.004455594
0.004431653
0.004411593
0.004395407
0.004383068
0.004374422
0.004369364
0.004367826
0.004369714
0.004374891
0.00438317
0.00439435
0.004408216
0.004424512
0.004442984
0.004463442
0.004485754
0.004509772
0.004535338
0.004562295
0.004590515
0.004619882
0.004650328
0.00468181
0.004714272
0.004747712
0.00478218
0.004817706
0.004854357
0.00489213
0.004931158
0.004971368
0.005012254
0.005054135
0.005097202
0.005141604
0.005187534
0.005235206
0.005284811
0.005336525
0.005390516
0.005446955
0.005506021
0.005567893
0.00563275
0.005700764
0.005772069
0.005846762
0.005924856
0.006006294
0.006090889
0.006178024
0.006266474
0.006355621
0.006445347
0.006535023
0.00662351
0.006709714
0.006792836
0.006872211
0.006947152
0.007016944
0.007080897
0.007138389
0.007188885
0.007231944
0.007267214
0.007294456
0.007313549
0.007324506
0.007327497
0.007322853
0.007310949
0.00729218
0.00726702
0.007235699
0.00719819
0.007154514
0.007104507
0.00704781
0.006984825
0.006920681
0.006858044
0.006797588
0.006739768
0.00668484
0.006633011
0.006584576
0.006539802
0.006498839
0.006461749
0.006428252
0.006398086
0.006371017
0.006346817
0.006325262
0.006306146
0.006289271
0.006274453
0.006261516
0.006250292
0.006240625
0.006232373
0.006225407
0.006219611
0.006214882
0.006211125
0.006208254
0.006206189
0.00620486
0.006204199
0.006204146
0.006204646
0.006205648
0.006207105
0.006208975
0.006211216
0.006213792
0.006216669
0.006219814
0.006223198
0.006226798
0.006230591
0.006234563
0.006238704
0.006243009
0.006247483
0.00625213
0.006256966
0.006261978
0.006267115
0.006272225
0.006277227
0.006282147
0.006287008
0.006291814
0.006296575
0.006301276
0.006305921
0.006310503
0.006315014
0.00631945
0.006323803
0.006328068
0.006332233
0.0063363
0.006340262
0.006344111
0.006347836
0.006351427
0.006354874
0.006358164
0.006361286
0.006364227
0.006366973
0.006369512
0.006371832
0.006373923
0.006375771
0.006377379
0.006378737
0.006379841
0.006380692
0.006381293
0.00638165
0.006381773
0.006381675
0.006381371
0.00638088
0.006380223
0.006379426
0.006378517
0.006377526
0.006376486
0.006375439
0.006374416
0.006373469
0.006372624
0.006371941
0.006371427
0.006370299
0.006369497
0.006369691
0.006371161
0.006373856
0.006377619
0.006382267
0.006387626
0.006393536
0.006399865
0.006406496
0.006413327
0.006420264
0.006427221
0.006434129
0.006440923
0.006447554
0.006453986
0.006460198
0.00646618
0.006471942
0.006477505
0.006482905
0.006488196
0.006493449
0.006498746
0.006504178
0.006509855
0.006515903
0.006522476
0.006529779
0.006538079
0.006547738
0.006559236
0.006573116
0.00658983
0.006609228
0.006630724
0.006653865
0.006678371
0.006704041
0.006730732
0.006758328
0.006786735
0.006815863
0.006845623
0.00687592
0.006906652
0.006937714
0.006968992
0.007000372
0.00703174
0.007062986
0.007094009
0.007124718
0.007155034
0.007184898
0.007214263
0.007243102
0.007271398
0.007299151
0.007326367
0.00735306
0.007379248
0.00740495
0.007430185
0.00745497
0.007479309
0.007503197
0.007526366
0.007544899
0.007561179
0.007576625
0.007592
0.007607691
0.007623894
0.007640732
0.007658277
0.007676556
0.007695564
0.007715278
0.00773566
0.007756656
0.007778202
0.007800218
0.007822613
0.007845289
0.007868143
0.007891072
0.007913972
0.00793674
0.00795928
0.007981495
0.008003419
0.008025083
0.008046459
0.008067518
0.008088238
0.008108598
0.008128587
0.008148193
0.008167409
0.00818623
0.008204653
0.008222675
0.008240295
0.00825751
0.008274319
0.008290718
0.0083067
0.008322257
0.008337369
0.008352005
0.008366134
0.008379726
0.00839277
0.008405301
0.008417356
0.008428948
0.008440096
0.008450898
0.008461406
0.008471632
0.00848148
0.008490923
0.008500011
0.008508831
0.008517477
0.00852603
0.008534564
0.008543146
0.008551837
0.008560685
0.008569728
0.008578984
0.008588459
0.008598148
0.008608033
0.008618089
0.008628285
0.008638589
0.008648968
0.008659388
0.008669818
0.008680231
0.008690602
0.008700908
0.008711131
0.008721256
0.008731269
0.008741158
0.008750915
0.008760531
0.00877
0.008779317
0.008788475
0.008797471
0.0088063
0.008814959
0.008823445
0.008831755
0.008839887
0.008847841
0.008855615
0.00886321
0.008870628
0.008877872
0.008884946
0.008891854
0.008898604
0.008905202
0.008911658
0.008917981
0.008924183
0.008930274
0.008936269
0.008942179
0.008948018
0.008953801
0.008959543
0.008965259
0.008970963
0.008976673
0.008982402
0.00898817
0.008993991
0.008999886
0.009005872
0.009011971
0.009018206
0.009024601
0.009031186
0.009037994
0.009045065
0.009052444
0.009060189
0.009068368
0.009077068
0.009086396
0.009096487
0.009107511
0.009119681
0.00913326
0.009148562
0.00916593
0.009185694
0.009207984
0.009232075
0.009253756
2.541587e-05
4.675912e-05
7.976684e-05
0.00031575
0.0005286423
0.001056055
0.001499577
0.001890344
0.002359635
0.002778087
0.003193533
0.003654373
0.004147191
0.004642385
0.005079363
0.005487059
0.006454358
0.00665471
0.006828256
0.00695131
0.007027596
0.00707328
0.007108232
0.007132443
0.007138989
0.007082317
0.006956964
0.006842166
0.006744951
0.006664183
0.006600133
0.006542869
0.006483742
0.006440256
0.006411578
0.006388966
0.00637194
0.006362338
0.006353647
0.006355806
0.006327119
0.006340566
0.006425362
0.006410412
0.006407552
0.006424748
0.006443175
0.006460106
0.006480118
0.006505634
0.006536096
0.00657176
0.006618704
0.006608052
0.006594534
0.006579686
0.006563478
0.006545875
0.006526807
0.006506081
0.006483133
0.00645735
0.006428439
0.006396345
0.00636108
0.00632272
0.006281424
0.006237444
0.006191084
0.006142693
0.006092654
0.006041328
0.005989132
0.005936551
0.005884131
0.005832334
0.005781282
0.005731204
0.005682219
0.005634348
0.005587586
0.005542232
0.005498739
0.005457475
0.005418823
0.005383028
0.005350258
0.005320669
0.00529437
0.005271432
0.005251899
0.005235826
0.005223247
0.005214165
0.005208543
0.005206305
0.005207343
0.005211532
0.005218717
0.005228712
0.00524138
0.005256623
0.005274324
0.005294346
0.005316552
0.005340818
0.005367037
0.005395117
0.00542499
0.005456611
0.005489947
0.00552499
0.005561743
0.005600229
0.005640456
0.005682468
0.005726277
0.005771874
0.005819305
0.005868655
0.005920012
0.005973468
0.006029143
0.006087174
0.006147708
0.006210905
0.006276931
0.006345975
0.006418238
0.006493925
0.006573235
0.006656346
0.0067434
0.006834476
0.006929574
0.007028583
0.007131137
0.007236528
0.007344136
0.007453575
0.007564275
0.00767533
0.007785721
0.007894511
0.008000833
0.008103803
0.008202478
0.00829592
0.008383306
0.008463889
0.008536969
0.008601907
0.008658144
0.008705225
0.008742797
0.008770585
0.008788693
0.00879755
0.008797549
0.008789128
0.008772696
0.008748588
0.008717184
0.008679002
0.00863463
0.008584895
0.008531205
0.008475137
0.008418235
0.008361639
0.008306233
0.008252736
0.008201718
0.008153581
0.008108561
0.008066776
0.008028593
0.007994229
0.00796342
0.007935839
0.007911234
0.007889394
0.007870123
0.007853235
0.00783855
0.007825891
0.00781509
0.007805989
0.007798439
0.007792304
0.007787457
0.007783783
0.007781174
0.007779534
0.007778773
0.00777881
0.007779572
0.007780991
0.007783007
0.007785564
0.007788613
0.007792109
0.007796009
0.007800277
0.007804877
0.007809781
0.00781496
0.007820394
0.007826062
0.007831953
0.007838056
0.007844367
0.007850881
0.007857594
0.007864489
0.007871528
0.007878644
0.007885778
0.007892921
0.007900082
0.007907265
0.00791447
0.007921694
0.007928919
0.007936171
0.007943427
0.007950698
0.007957969
0.007965228
0.007972482
0.007979723
0.00798694
0.007994122
0.008001257
0.008008331
0.00801533
0.008022234
0.008029025
0.00803568
0.008042179
0.008048499
0.008054619
0.008060516
0.008066172
0.008071569
0.008076691
0.008081525
0.008086062
0.008090294
0.00809422
0.008097841
0.008101162
0.008104194
0.008106952
0.008109455
0.008111728
0.008113801
0.008115706
0.008117483
0.008119175
0.008120829
0.008122498
0.008124234
0.008126103
0.008128153
0.008130352
0.008132645
0.008135144
0.008138038
0.008141491
0.008145605
0.008150433
0.008155991
0.00816227
0.008169236
0.008176841
0.00818502
0.008193699
0.008202796
0.008212223
0.008221906
0.008231759
0.008241708
0.008251687
0.00826164
0.008271524
0.008281338
0.008291096
0.008300812
0.008310516
0.00832027
0.008330138
0.008340212
0.008350608
0.008361473
0.008372994
0.008385407
0.008399004
0.008414128
0.008431132
0.008450278
0.008471534
0.008494613
0.008519213
0.008545115
0.008572155
0.008600207
0.008629172
0.008658969
0.008689526
0.008720773
0.008752641
0.008785053
0.008817929
0.008851179
0.008884709
0.008918418
0.008952205
0.008985967
0.00901961
0.009053044
0.009086191
0.009118987
0.009151379
0.009183331
0.009214814
0.00924582
0.009276337
0.009306368
0.00933592
0.009364999
0.009393611
0.00942175
0.009449395
0.009476395
0.009502082
0.009526502
0.009549935
0.009572632
0.009594787
0.009616576
0.009638158
0.00965967
0.009681219
0.009702887
0.009724737
0.009746815
0.009769153
0.009791765
0.009814652
0.009837799
0.009861183
0.009884768
0.009908511
0.009932368
0.009956289
0.009980225
0.01
0.01
0.01
0.01
0.01
0.01
0.01
0.01
0.01
0.01
0.01
0.01
0.01
0.01
0.01
0.01
0.01
0.01
0.01
0.01
0.01
0.01
0.01
0.01
0.01
0.01
0.01
0.01
0.01
0.01
0.01
0.01
0.01
0.01
0.01
0.01
0.01
0.01
0.01
0.01
0.01
0.01
0.01
0.01
0.01
0.01
0.01
0.01
0.01
0.01
0.01
0.01
0.01
0.01
0.01
0.01
0.01
0.01
0.01
0.01
0.01
0.01
0.01
0.01
0.01
0.01
0.01
0.01
0.01
0.01
0.01
0.01
0.01
0.01
0.01
0.01
0.01
0.01
0.01
0.01
0.01
0.01
0.01
0.01
0.01
0.01
0.01
0.01
0.01
0.01
0.01
0.01
0.01
0.01
0.01
0.01
0.01
0.01
0.01
0.01
0.01
0.01
0.01
0.01
0.01
0.01
0.01
0.01
0.01
0.01
0.01
0.01
0.01
0.01
0.01
0.01
0.01
2.334593e-05
3.874287e-05
7.346075e-05
0.0002464861
0.00041569
0.0007190554
0.0009304625
0.001170581
0.001449636
0.001714349
0.002009574
0.002376624
0.002777906
0.003212508
0.003708699
0.004750011
0.005154907
0.00554806
0.005916911
0.00624399
0.006526122
0.006756822
0.006948721
0.007101133
0.007214114
0.007291356
0.007315932
0.007333695
0.007292637
0.007086608
0.00685757
0.006597813
0.006345436
0.006138785
0.005970143
0.005825519
0.0057006
0.005595524
0.005509613
0.005441196
0.005388137
0.005347185
0.005314196
0.005291799
0.005282037
0.005281243
0.005287466
0.005299821
0.005316637
0.005339708
0.005366617
0.005402422
0.005460417
0.005498588
0.005534643
0.005581582
0.005634521
0.005689371
0.005746839
0.005808407
0.005874647
0.005945401
0.006022273
0.006106518
0.006196564
0.006291705
0.006393276
0.006499488
0.006610799
0.006733121
0.006790529
0.006791991
0.00678901
0.006781603
0.006769884
0.006754023
0.006734244
0.006710956
0.006684862
0.006656228
0.006625281
0.006592239
0.006557307
0.006520657
0.006482379
0.006442711
0.006402174
0.00636119
0.006320112
0.006279212
0.006238715
0.006198909
0.006160176
0.006122797
0.006086822
0.006052409
0.006019741
0.005989004
0.00596037
0.005933998
0.005910052
0.005889005
0.005871021
0.005856149
0.005844414
0.005835835
0.005830418
0.005828142
0.005828964
0.005832818
0.005839642
0.00584939
0.005862003
0.005877406
0.005895516
0.005916254
0.005939546
0.005965324
0.005993534
0.006024136
0.006057093
0.006092384
0.006129998
0.006169937
0.006212202
0.006256804
0.006303756
0.00635307
0.006404778
0.006458942
0.006515626
0.006574898
0.006636845
0.006701578
0.006769225
0.006839932
0.006913862
0.006991203
0.007072162
0.007156956
0.007245807
0.007338931
0.007436516
0.007538705
0.007645575
0.007757088
0.007873054
0.007993085
0.008116718
0.008243527
0.008372981
0.008504338
0.008636705
0.00876914
0.008900737
0.009030551
0.009157453
0.009280021
0.009397437
0.009508974
0.009613765
0.009710913
0.009799569
0.009878983
0.009948551
0.01
0.01
0.01
0.01
0.01
0.01
0.01
0.01
0.01
0.01
0.01
0.009997742
0.00995189
0.009903389
0.009853381
0.009802859
0.009752707
0.009703699
0.009656479
0.00961155
0.009569283
0.009529918
0.009493564
0.009460583
0.00943112
0.009404824
0.009381448
0.009360798
0.009342705
0.009327006
0.009313538
0.009302142
0.009292662
0.009284945
0.009278848
0.009274234
0.009270974
0.009268948
0.009268044
0.00926816
0.009269201
0.00927108
0.009273718
0.009277044
0.009280991
0.009285502
0.009290524
0.009296007
0.00930191
0.009308193
0.009314823
0.009321768
0.009329003
0.009336507
0.009344262
0.009352255
0.009360474
0.00936891
0.009377551
0.009386379
0.009395368
0.00940448
0.009413677
0.009422943
0.009432278
0.009441683
0.009451157
0.009460698
0.0094703
0.009479948
0.00948968
0.00949948
0.009509341
0.009519258
0.00952923
0.009539254
0.009549323
0.009559428
0.00956956
0.009579706
0.009589849
0.00959997
0.009610048
0.009620058
0.009629976
0.009639773
0.009649424
0.009658899
0.009668172
0.009677217
0.009686009
0.009694526
0.009702748
0.009710659
0.009718246
0.009725501
0.009732419
0.009739003
0.009745258
0.009751198
0.009756841
0.009762211
0.009767341
0.009772268
0.009777035
0.009781693
0.009786297
0.009790906
0.009795585
0.009800392
0.009805373
0.009810512
0.009815818
0.00982137
0.009827272
0.00983362
0.009840495
0.009847961
0.009856068
0.009864846
0.009874309
0.009884449
0.009895247
0.009906665
0.009918656
0.009931166