/*--------------------------------*- C++ -*----------------------------------*\
| =========                 |                                                 |
| \\      /  F ield         | foam-extend: Open Source CFD                    |
|  \\    /   O peration     | Version:     3.1                                |
|   \\  /    A nd           | Web:         http://www.extend-project.de       |
|    \\/     M anipulation  |                                                 |
\*---------------------------------------------------------------------------*/
FoamFile
{
    version     2.0;
    format      ascii;
    class       volScalarField;
    location    "3.5";
    object      omega;
}
// * * * * * * * * * * * * * * * * * * * * * * * * * * * * * * * * * * * * * //

dimensions      [0 0 -1 0 0 0 0];

internalField   nonuniform List<scalar> 
119952
(
162.975
208.6517
199.585
175.2837
158.6386
161.3128
165.319
169.971
175.0484
180.4468
186.112
192.017
198.1516
204.5144
211.1095
217.9499
225.0644
232.5169
240.4791
249.5048
207.6802
207.8631
210.9163
176.1116
173.4826
172.3928
171.5451
170.6893
168.1114
140.4328
308.482
251.3282
211.6642
184.9408
165.7278
150.9774
139.0003
128.9584
120.2943
110.4515
90.41746
77.55545
69.1547
63.12534
58.44799
54.59253
51.2855
48.40067
45.81507
35.53608
33.88833
32.26731
30.7157
29.2812
27.97018
26.77727
25.69207
24.70202
23.80129
22.98683
22.19294
21.42704
20.6933
19.994
19.32997
18.69818
18.08735
17.48927
17.36641
17.3068
17.09714
16.90146
16.74826
16.63006
16.51729
16.4116
16.3193
16.24272
16.18286
16.14075
16.11682
16.11056
16.12051
16.14422
16.17799
16.21589
16.24736
16.25635
16.24383
16.23278
16.17265
16.08192
16.07713
16.12887
16.25157
16.61398
17.6618
19.25225
19.63598
19.83227
19.88351
19.88417
19.86047
19.82369
19.78242
19.74069
19.70012
19.66157
19.62565
19.5926
19.56263
19.53601
19.51307
19.49419
19.47942
19.46842
19.46105
19.45731
19.45724
19.46082
19.46801
19.47878
19.49306
19.51082
19.53204
19.55674
19.585
19.6169
19.65251
19.6919
19.7351
19.78219
19.83323
19.88828
19.94738
20.01053
20.07774
20.14901
20.2243
20.30357
20.38674
20.47365
20.56414
20.65777
20.75338
20.8445
20.90923
20.99432
21.14717
21.31732
21.49044
21.66757
21.84357
22.01733
22.1874
22.35282
22.51319
22.66828
22.81806
22.96273
23.10263
23.2383
23.3704
23.49946
23.62597
23.75043
23.87332
23.99513
24.11634
24.23738
24.35866
24.48058
24.60359
24.7281
24.85443
24.98289
25.1138
25.24751
25.38441
25.52488
25.66918
25.81755
25.97026
26.12766
26.29014
26.45808
26.63185
26.81189
26.9987
27.19278
27.39464
27.60477
27.82363
28.05139
28.28725
28.51857
28.70538
30.80703
34.62967
37.43454
39.44717
40.93834
42.06572
42.95553
43.68461
44.3042
44.84853
45.3405
45.79536
46.2237
46.63291
47.0307
47.42039
47.81107
48.20547
48.60002
48.99646
49.3988
49.80947
50.23124
50.66457
51.10984
51.56638
52.03535
52.51827
53.01649
53.53025
54.05876
54.59995
55.14895
55.69176
56.12377
55.42928
53.6625
52.1435
50.80375
49.60896
48.52855
47.54086
46.63003
45.78402
44.99356
44.25146
43.55197
42.88988
42.26099
41.66175
41.08912
40.54055
40.01392
39.50742
39.01957
38.54911
38.09501
37.65635
37.23232
36.82217
36.42509
36.04055
35.66808
35.30687
34.95637
34.61605
34.28542
33.96392
33.65058
33.34013
26.87551
26.06344
25.1864
24.33145
23.54411
22.84571
22.24205
21.73033
21.30136
20.94291
20.64227
20.3877
20.16914
19.97841
19.80903
19.65602
19.51559
19.38495
19.26209
19.14554
19.03423
18.92736
18.82431
18.72459
18.62785
18.5338
18.44226
18.35302
18.26592
18.18081
18.09761
18.0162
17.93651
17.85847
17.78202
17.7071
17.63366
17.56166
17.49108
17.42191
17.35415
17.2879
17.22334
17.16099
17.10228
17.0502
17.0035
16.95903
16.91614
16.87456
16.83426
16.79515
16.75697
16.72247
16.69902
16.61619
16.48138
16.30914
16.1189
15.9282
15.74974
15.59097
15.45461
15.34027
15.24563
15.16752
15.10265
15.048
15.00101
14.95962
14.92226
14.88772
14.85516
14.82396
14.7937
14.76409
14.73494
14.70613
14.67759
14.64928
14.62118
14.59329
14.56561
14.53814
14.51089
14.48387
14.45709
14.43055
14.40426
14.37821
14.35242
14.32688
14.3016
14.27656
14.25178
14.22723
14.20294
14.17887
14.15504
14.13144
14.10807
14.08491
14.06197
14.03924
14.01671
13.99439
13.97226
13.95033
13.92859
13.90703
13.88565
13.86444
13.8434
13.82252
13.8018
13.78122
13.76078
13.74046
13.72025
13.70013
13.6801
13.66011
13.64015
13.62017
13.60013
13.57997
13.5596
13.53891
13.51775
13.49588
13.47296
13.44841
13.42131
13.38989
13.3506
13.29516
13.2051
13.05218
13.21723
401.1469
322.4137
278.3377
248.7425
226.0446
207.1329
190.7523
176.328
163.0504
136.9127
111.1156
95.90948
86.11514
79.19429
73.8791
69.53034
65.80618
62.52056
50.1113
47.7506
45.49012
43.3579
41.40403
39.63309
38.03031
36.57462
35.24258
34.01231
32.92036
31.82672
30.74186
29.68494
28.66514
27.69202
26.7699
25.89965
25.0787
24.45956
23.94472
23.3603
22.75003
22.13265
21.52041
20.92167
20.34158
19.78314
19.24822
18.735
18.24226
17.76816
17.30777
16.86032
16.42621
16.00598
15.60063
15.21411
13.52574
13.21224
12.91625
12.63389
12.36236
12.10014
11.84651
11.6011
11.36346
11.13298
10.91031
10.69524
10.48694
10.28505
10.08947
9.900125
9.717397
9.543289
9.383594
9.239548
9.101341
8.971672
8.855273
8.752072
8.659736
8.576307
8.500843
8.43266
8.37124
8.316166
8.267045
8.223481
8.185046
8.151271
8.121586
8.0953
8.071536
8.049402
8.02824
8.008293
7.989881
7.973373
7.963467
7.964184
7.975573
8.007597
8.06893
8.154845
8.229138
8.274295
8.312695
8.345557
8.373928
8.399098
8.421604
8.441957
8.460432
8.477163
8.492317
8.506086
8.518646
8.530165
8.540817
8.550771
8.560153
8.569039
8.577486
8.585549
8.593278
8.600713
8.607878
8.614787
8.621446
8.62786
8.634035
8.639985
8.645729
8.651293
8.656707
8.662003
8.667216
8.67238
8.677535
8.682718
8.687966
8.693319
8.69881
8.704473
8.710336
8.716422
8.722743
8.729305
8.736093
8.743061
8.750082
8.756966
8.763617
8.769973
8.776526
8.784746
8.794142
8.804536
8.81604
8.828597
8.842212
8.856854
8.872467
8.888981
8.906311
8.924364
8.943042
8.962253
8.981901
9.001894
9.022145
9.042578
9.063124
9.083723
9.104325
9.124888
9.145375
9.165759
9.186023
9.206151
9.226134
9.245962
9.26563
9.285134
9.304478
9.323664
9.342693
9.361567
9.380287
9.398858
9.417288
9.435588
9.45377
9.471851
9.48985
9.507793
9.525698
9.543599
9.561488
9.579404
9.597186
9.614623
9.630109
9.633212
9.972777
10.36304
10.62578
10.8042
10.92779
11.01598
11.08178
11.13373
11.17729
11.21586
11.25149
11.28529
11.31787
11.34949
11.38029
11.41025
11.43924
11.46703
11.49342
11.51827
11.54149
11.56307
11.58301
11.60132
11.61797
11.63297
11.64635
11.65818
11.66848
11.67724
11.68428
11.68913
11.69077
11.6868
11.67193
11.6374
11.58083
11.51501
11.44492
11.37317
11.30119
11.22995
11.16018
11.09247
11.02726
10.96488
10.90556
10.84939
10.79639
10.74648
10.69951
10.65528
10.61358
10.57417
10.53683
10.50134
10.46749
10.43511
10.40401
10.37404
10.34505
10.31691
10.28952
10.26277
10.23659
10.2109
10.18566
10.16082
10.13637
10.11329
9.118667
9.063498
9.018166
8.978124
8.939994
8.901564
8.861867
8.820687
8.778266
8.735107
8.69183
8.649059
8.60734
8.567099
8.528638
8.49214
8.457686
8.425275
8.394851
8.366317
8.339552
8.314426
8.290803
8.268551
8.247544
8.227651
8.208675
8.190481
8.172978
8.156086
8.139737
8.123869
8.108431
8.093375
8.078662
8.064257
8.050133
8.036269
8.022651
8.009281
7.996217
7.983531
7.971285
7.959565
7.948483
7.938104
7.928296
7.918915
7.909891
7.901184
7.892765
7.884618
7.876817
7.869644
7.862778
7.85541
7.847027
7.83705
7.825102
7.811096
7.795223
7.777853
7.759453
7.740509
7.721472
7.702722
7.684548
7.667153
7.650661
7.63513
7.620569
7.606948
7.594217
7.582309
7.571151
7.560668
7.55079
7.541449
7.532582
7.524134
7.516057
7.508307
7.500845
7.493641
7.486665
7.479894
7.473307
7.466886
7.460616
7.454483
7.448476
7.442586
7.436804
7.431122
7.425534
7.420034
7.414617
7.409277
7.404011
7.398814
7.393682
7.388613
7.383603
7.378648
7.373747
7.368895
7.364091
7.359331
7.354613
7.349934
7.345292
7.340682
7.336102
7.331548
7.327016
7.322502
7.318001
7.313505
7.309009
7.304504
7.29998
7.295424
7.290821
7.286153
7.281395
7.276518
7.271481
7.266229
7.26069
7.254759
7.248285
7.241041
7.232679
7.222663
7.210172
7.194203
7.173716
7.151308
7.136173
473.8447
423.6253
380.1283
345.8078
317.902
294.6211
274.9051
257.9341
243.4812
230.1518
122.2331
113.5638
109.8278
105.8525
101.9299
98.08641
94.45186
91.05204
87.83227
67.85639
62.54114
58.79565
56.27335
54.4777
53.06609
51.85232
50.74198
49.68468
48.6793
47.50077
46.11124
44.68297
43.32593
42.08357
40.95679
39.92863
38.97845
38.0799
37.71725
37.05657
36.25497
35.40036
34.53935
33.69841
32.89008
32.11915
31.38736
30.69385
30.02574
29.38186
28.75488
28.14241
27.54572
26.96612
26.4059
25.87566
23.69792
23.23137
22.79071
22.36734
21.95453
21.5492
21.14967
20.75499
20.36421
19.97639
19.59262
19.213
18.83589
18.46093
18.08854
17.71918
17.35317
16.99113
16.63348
16.28059
15.93395
15.59424
15.26118
14.93466
14.61475
14.30139
13.99464
13.69435
13.40052
13.11357
12.83297
12.55856
12.29053
12.02897
11.77386
11.52513
11.28265
11.0434
10.83258
10.6245
10.41987
10.21869
10.02125
9.827958
9.639142
9.454942
9.275393
9.100483
8.930318
8.764807
8.603836
8.447474
8.295788
8.149042
8.007527
7.872144
7.743742
7.623348
7.508236
7.398283
7.295156
7.199545
7.110851
7.028194
6.951199
6.879739
6.813725
6.753011
6.69739
6.646617
6.600417
6.558501
6.52052
6.486123
6.454867
6.426402
6.400407
6.377
6.356396
6.338846
6.3258
6.318659
6.317329
6.32202
6.336664
6.362033
6.385867
6.403165
6.417278
6.43014
6.442386
6.454237
6.465655
6.476644
6.487234
6.497443
6.507285
6.51678
6.525949
6.534826
6.543459
6.551891
6.560152
6.56826
6.576228
6.584067
6.591787
6.599392
6.606879
6.614243
6.621471
6.628552
6.635472
6.642223
6.648797
6.655188
6.661394
6.667415
6.673252
6.67891
6.684395
6.689714
6.694878
6.699898
6.704786
6.709557
6.714223
6.718797
6.723287
6.727701
6.732037
6.736288
6.740441
6.744493
6.748419
6.752222
6.755989
6.760051
6.764464
6.769078
6.77392
6.77901
6.78438
6.790051
6.796043
6.802372
6.809047
6.816072
6.823445
6.831161
6.839209
6.847575
6.856243
6.86519
6.874396
6.883843
6.893511
6.903376
6.91342
6.923625
6.933972
6.944446
6.955029
6.965705
6.976451
6.987258
6.998108
7.00898
7.019861
7.030731
7.041573
7.05237
7.063105
7.073761
7.084324
7.094781
7.105117
7.115326
7.125391
7.135316
7.145061
7.154663
7.164015
7.17328
7.18224
7.190853
7.207295
7.212909
7.21252
7.209476
7.205717
7.202273
7.199638
7.197996
7.19738
7.197743
7.199005
7.201078
7.20388
7.207333
7.211359
7.215877
7.220798
7.226024
7.231451
7.236977
7.242498
7.247908
7.253101
7.257974
7.262425
7.266357
7.269683
7.272316
7.274169
7.275138
7.275084
7.273801
7.270978
7.266161
7.258786
7.248426
7.235455
7.220507
7.203883
7.185851
7.166644
7.146455
7.125458
7.103827
7.081736
7.059359
7.036866
7.014417
6.992162
6.97023
6.948736
6.927769
6.9074
6.887678
6.868635
6.850281
6.832612
6.81561
6.799244
6.783475
6.768258
6.753546
6.739293
6.725455
6.711991
6.698867
6.686054
6.673534
6.661186
6.647996
6.662946
6.670364
6.672241
6.670079
6.664833
6.657067
6.647137
6.635327
6.621906
6.607135
6.591275
6.574583
6.557308
6.53968
6.52191
6.504181
6.486648
6.469435
6.452637
6.436324
6.420542
6.405314
6.390649
6.376542
6.36298
6.349942
6.337408
6.325355
6.313759
6.302595
6.291841
6.281476
6.27148
6.261836
6.252529
6.243547
6.234878
6.226515
6.218452
6.210684
6.203153
6.195825
6.188708
6.181827
6.175213
6.168884
6.162831
6.157026
6.151436
6.146033
6.140821
6.1358
6.130974
6.126382
6.12201
6.117741
6.113432
6.108914
6.104058
6.09877
6.092991
6.08671
6.079953
6.072782
6.065284
6.057553
6.049689
6.041785
6.033923
6.026171
6.018586
6.011207
6.004064
5.997174
5.990546
5.984181
5.978076
5.972222
5.966608
5.961223
5.956052
5.951082
5.9463
5.941691
5.937244
5.932947
5.928788
5.924757
5.920845
5.917044
5.913346
5.909744
5.906231
5.902802
5.899451
5.896173
5.892964
5.88982
5.886737
5.883711
5.880739
5.877817
5.874943
5.872113
5.869325
5.866575
5.863863
5.861184
5.858536
5.855917
5.853323
5.850754
5.848205
5.845673
5.843156
5.84065
5.83815
5.835653
5.833152
5.830643
5.828117
5.825565
5.822978
5.820343
5.817642
5.814856
5.811959
5.808916
5.805681
5.802193
5.798365
5.794077
5.789161
5.783391
5.776471
5.768112
5.758121
5.747252
5.737907
289.9325
224.4875
254.8363
118.781
94.63339
62.54656
56.13146
50.49369
46.2953
45.05555
45.18072
45.16751
44.14011
44.25194
44.42027
44.54714
44.63072
44.67004
44.66523
44.6093
44.4902
44.29107
43.8073
43.25964
42.82843
42.47896
42.16107
41.84653
41.5217
41.17828
40.81515
39.58778
39.12383
38.63792
38.13203
37.61122
37.07887
36.53668
35.98565
35.42707
34.86109
34.28532
33.69939
33.10332
32.49948
31.89072
31.28016
30.67082
30.06522
29.46435
28.87172
28.29018
27.71964
27.1593
26.60937
26.07053
25.54373
25.02966
24.52896
24.04277
23.57088
23.11303
22.66948
22.24051
21.82531
21.42402
21.03346
20.64837
20.30829
19.97462
19.64632
19.32377
19.00742
18.69711
18.39223
18.09203
17.79579
17.50286
17.21277
16.9246
16.63767
16.35176
16.06684
15.78285
15.49975
15.21758
14.93647
14.65656
14.37791
14.10073
13.82557
13.55296
13.28328
13.01681
12.7538
12.49447
12.23901
11.98762
11.74038
11.49744
11.25901
11.0252
10.79619
10.57192
10.35263
10.13786
9.928927
9.725637
9.527705
9.33486
9.146963
8.963948
8.785741
8.612244
8.443361
8.278984
8.119022
7.963412
7.812129
7.665204
7.522699
7.384761
7.251564
7.123407
7.000664
6.883622
6.771569
6.664151
6.561973
6.465493
6.374556
6.28877
6.207927
6.13199
6.06094
5.994705
5.933165
5.876164
5.823526
5.775055
5.730535
5.689737
5.652418
5.618369
5.587427
5.559585
5.534926
5.513612
5.496046
5.482691
5.473548
5.468298
5.466682
5.468567
5.473028
5.477747
5.482393
5.487393
5.492878
5.498827
5.505156
5.511718
5.518363
5.524971
5.531446
5.537821
5.544119
5.550347
5.556514
5.562624
5.568683
5.574693
5.580656
5.586577
5.592457
5.598299
5.604102
5.609861
5.615572
5.621226
5.626815
5.63233
5.637764
5.643107
5.648353
5.653493
5.658522
5.663433
5.668223
5.672888
5.677425
5.681833
5.686114
5.690268
5.694298
5.698207
5.701996
5.70567
5.709228
5.712674
5.716008
5.719234
5.722356
5.725388
5.728368
5.731365
5.734403
5.737469
5.740564
5.743707
5.746907
5.750184
5.753548
5.757015
5.760598
5.764309
5.768159
5.772156
5.776311
5.780624
5.785098
5.789735
5.794538
5.799506
5.804641
5.809938
5.815398
5.821015
5.826788
5.832711
5.838779
5.844986
5.851325
5.857784
5.864354
5.871025
5.877783
5.884614
5.891504
5.898435
5.905391
5.912352
5.919302
5.92622
5.933088
5.939888
5.9466
5.953208
5.959691
5.966037
5.972222
5.978244
5.984053
5.989629
5.995305
6.000613
6.00516
6.008798
6.01159
6.013661
6.015148
6.016188
6.016906
6.017406
6.017779
6.018099
6.018427
6.018816
6.0193
6.019905
6.020643
6.021516
6.022512
6.023612
6.024781
6.02598
6.02716
6.028262
6.029223
6.029976
6.030449
6.030569
6.030257
6.029425
6.02797
6.025772
6.022689
6.018563
6.013239
6.006608
5.99873
5.989796
5.97994
5.969256
5.95783
5.945735
5.933033
5.91979
5.906074
5.891954
5.877507
5.862814
5.847957
5.833021
5.818087
5.80323
5.788524
5.77403
5.759802
5.745883
5.732302
5.71908
5.706226
5.693739
5.681611
5.669827
5.658373
5.647227
5.636371
5.625787
5.61546
5.605384
5.595563
5.586161
5.579505
5.574179
5.569422
5.564754
5.559855
5.554531
5.548669
5.542215
5.535159
5.527519
5.51933
5.510648
5.501536
5.492067
5.482318
5.47237
5.4623
5.452183
5.442088
5.432076
5.422203
5.412516
5.403053
5.393816
5.384804
5.376028
5.367495
5.359209
5.35117
5.343377
5.335825
5.328511
5.321427
5.314568
5.307927
5.301497
5.295272
5.289247
5.283416
5.277776
5.272324
5.267063
5.261999
5.257137
5.25248
5.248021
5.243741
5.239626
5.235676
5.231886
5.228221
5.224664
5.221216
5.217905
5.214729
5.211658
5.208655
5.205674
5.202672
5.199607
5.19644
5.193143
5.189698
5.186097
5.182346
5.178458
5.174453
5.170357
5.166197
5.162002
5.157797
5.153608
5.149457
5.145362
5.141337
5.137395
5.133545
5.129792
5.12614
5.122591
5.119145
5.115801
5.112557
5.10941
5.106357
5.103395
5.10052
5.097727
5.095014
5.092376
5.08981
5.087313
5.084881
5.08251
5.080198
5.077942
5.075739
5.073587
5.071482
5.069422
5.067404
5.065427
5.063488
5.061584
5.059714
5.057875
5.056065
5.054281
5.052523
5.050787
5.049072
5.047375
5.045694
5.044027
5.04237
5.040722
5.039078
5.037436
5.03579
5.034137
5.032471
5.030785
5.02907
5.027318
5.025517
5.02365
5.021701
5.019645
5.01745
5.015076
5.01247
5.00956
5.006254
5.002439
4.997984
4.992776
4.986773
4.980282
4.974402
296.2423
208.2073
163.1163
125.3067
101.1015
74.30683
61.67595
56.01771
50.50739
47.45113
45.16132
42.99214
41.04488
39.46801
38.5189
37.933
36.37964
36.61855
36.92007
37.33139
37.95137
38.72482
39.44419
40.05362
40.60331
41.07429
41.4688
41.78324
42.0133
42.15936
42.22406
42.21766
42.15272
42.02375
41.83346
41.59352
41.31211
40.99345
40.64274
40.26045
39.86155
39.429
38.96106
38.47166
37.96063
37.42551
36.87034
36.29934
35.71493
35.1188
34.51282
33.8988
33.2773
32.65013
32.01952
31.38761
30.756
30.12635
29.50036
28.87941
28.26535
27.65903
27.06147
26.47424
25.89862
25.33551
24.7857
24.2498
23.72819
23.22124
22.72937
22.25272
21.7914
21.34541
20.91449
20.49873
20.09814
19.71297
19.342
18.98778
18.64757
18.31995
18.00461
17.70093
17.40772
17.1237
16.84775
16.57885
16.316
16.05821
15.80457
15.55425
15.30652
15.06075
14.81646
14.57324
14.33074
14.08875
13.84711
13.60564
13.36438
13.12361
12.8836
12.6446
12.40685
12.17058
11.93607
11.70354
11.47326
11.24548
11.02044
10.79839
10.57952
10.36407
10.15216
9.943973
9.739593
9.539136
9.342717
9.150466
8.962458
8.778717
8.599245
8.424035
8.253059
8.086276
7.923632
7.765084
7.610613
7.460219
7.313928
7.171792
7.033904
6.900378
6.771367
6.647054
6.527531
6.412593
6.302107
6.196294
6.095383
5.999363
5.908101
5.821509
5.739574
5.662298
5.589652
5.521572
5.457953
5.398666
5.343566
5.292496
5.245295
5.201807
5.161903
5.125502
5.092545
5.062999
5.036892
5.014321
4.99539
4.980029
4.967954
4.958745
4.951967
4.947111
4.943733
4.941696
4.940953
4.941413
4.942906
4.945235
4.94822
4.951716
4.955615
4.959826
4.964168
4.968504
4.972838
4.97719
4.981558
4.985932
4.990303
4.994662
4.999007
5.003333
5.007641
5.011928
5.016194
5.020435
5.02465
5.028835
5.032986
5.037099
5.041169
5.045192
5.049162
5.053074
5.056922
5.060701
5.064406
5.068033
5.071577
5.075035
5.078405
5.081685
5.084873
5.087968
5.090971
5.093882
5.096702
5.099432
5.102075
5.104639
5.107132
5.109569
5.111968
5.114338
5.116683
5.119006
5.121316
5.123619
5.125925
5.128247
5.130581
5.132942
5.135332
5.137762
5.140245
5.142781
5.145377
5.148041
5.150779
5.153597
5.156499
5.159492
5.16258
5.165768
5.16906
5.172459
5.175969
5.179592
5.183328
5.187179
5.191142
5.195215
5.199394
5.203674
5.208046
5.212502
5.217032
5.221624
5.226265
5.230939
5.235631
5.240324
5.245001
5.249644
5.254234
5.258753
5.263181
5.2675
5.271692
5.275734
5.279614
5.283353
5.286944
5.290316
5.293393
5.296126
5.298485
5.30046
5.302055
5.303287
5.304181
5.304771
5.305095
5.305193
5.305105
5.304873
5.304529
5.304106
5.303632
5.303127
5.302605
5.30207
5.301514
5.300922
5.300273
5.299541
5.298689
5.297679
5.296466
5.295001
5.293226
5.291084
5.28851
5.285438
5.281808
5.277567
5.27268
5.267146
5.260993
5.254251
5.246952
5.239127
5.230808
5.222026
5.21281
5.203195
5.193214
5.182907
5.172318
5.161492
5.150481
5.139339
5.128119
5.116876
5.10566
5.094519
5.083495
5.072626
5.061941
5.05146
5.041198
5.031163
5.02136
5.011785
5.002432
4.993295
4.984367
4.975639
4.967108
4.958774
4.950684
4.943112
4.936101
4.929586
4.923456
4.917589
4.911872
4.906214
4.900541
4.894796
4.888939
4.882943
4.876791
4.87048
4.864011
4.857398
4.850658
4.843813
4.836889
4.829912
4.822909
4.815906
4.808927
4.801993
4.79513
4.788361
4.781702
4.775166
4.768761
4.762496
4.756375
4.750401
4.744577
4.738904
4.733381
4.728008
4.722785
4.717709
4.712782
4.708001
4.703368
4.698883
4.694548
4.690365
4.686336
4.682462
4.678739
4.675158
4.671709
4.668387
4.66519
4.662115
4.659161
4.656322
4.653567
4.650894
4.648312
4.64581
4.643372
4.64098
4.638616
4.636262
4.633901
4.631518
4.629101
4.626643
4.624138
4.621585
4.618988
4.61635
4.613679
4.610983
4.608271
4.605553
4.602838
4.600134
4.59745
4.594793
4.592168
4.589581
4.587035
4.584535
4.582082
4.579679
4.577326
4.575025
4.572775
4.570577
4.568429
4.566332
4.564285
4.562287
4.560336
4.558432
4.556574
4.554759
4.552987
4.551257
4.549566
4.547913
4.546297
4.544716
4.543168
4.541651
4.540164
4.538704
4.53727
4.535861
4.534473
4.533106
4.531757
4.530424
4.529105
4.527798
4.526501
4.525211
4.523926
4.522643
4.521358
4.520068
4.518768
4.517454
4.51612
4.514759
4.513364
4.511923
4.510426
4.508856
4.507197
4.505424
4.503507
4.50141
4.499086
4.496478
4.493523
4.490151
4.48631
4.481989
4.477361
4.473097
177.4928
131.6882
189.2539
90.88931
75.43214
60.25347
55.60989
51.80092
48.09703
46.04566
44.01879
41.68706
39.63272
37.8493
36.26693
33.00087
32.5329
32.27775
32.21924
32.37966
32.70916
33.21572
33.86101
34.63733
35.50533
36.38836
37.28689
38.24972
39.1106
39.92963
40.74164
41.54993
42.29773
42.92274
43.40844
43.76332
43.99625
44.11247
44.11838
44.02172
43.83323
43.56458
43.23304
42.84709
42.41063
41.93092
41.41541
40.87077
40.30269
39.71484
39.11071
38.49178
37.85373
37.20957
36.56381
35.91482
35.26329
34.61172
33.96238
33.31693
32.67681
32.04325
31.4169
30.79747
30.18533
29.58076
28.98366
28.39417
27.81224
27.23747
26.67179
26.11659
25.5716
25.03648
24.51107
23.99538
23.48951
22.9928
22.50362
22.02404
21.55564
21.09971
20.65721
20.22891
19.81563
19.41797
19.03562
18.66838
18.31552
17.97676
17.65134
17.33857
17.03789
16.74876
16.47071
16.20299
15.94476
15.69518
15.45335
15.21836
14.98921
14.76439
14.5431
14.32472
14.10869
13.89443
13.68136
13.46905
13.25711
13.04526
12.83333
12.6213
12.4092
12.19711
11.98514
11.77344
11.5622
11.3516
11.1419
10.93332
10.72612
10.52053
10.31682
10.11522
9.915946
9.719215
9.525205
9.334062
9.145933
8.960979
8.779328
8.60106
8.42624
8.254916
8.087123
7.922877
7.762182
7.605044
7.451481
7.301517
7.155195
7.012578
6.873748
6.738807
6.607865
6.481027
6.358363
6.239853
6.12548
6.015356
5.909616
5.808309
5.71142
5.618943
5.530901
5.44733
5.368257
5.29369
5.223536
5.157674
5.095989
5.038362
4.984674
4.93481
4.888669
4.84616
4.807228
4.771872
4.740108
4.71195
4.687385
4.666308
4.648488
4.633593
4.621247
4.611064
4.602729
4.596069
4.591001
4.587428
4.585201
4.584141
4.584067
4.584805
4.586204
4.588129
4.590467
4.59313
4.595966
4.598876
4.601867
4.604928
4.608039
4.611183
4.614344
4.61751
4.620675
4.623831
4.626975
4.630103
4.633213
4.636304
4.639373
4.642418
4.645439
4.648431
4.651393
4.654321
4.657213
4.660065
4.662873
4.665633
4.668344
4.671
4.673599
4.67614
4.678619
4.681035
4.683388
4.685676
4.6879
4.69006
4.69216
4.694202
4.696192
4.698134
4.700036
4.7019
4.703731
4.70553
4.707301
4.709049
4.710777
4.712492
4.714203
4.715899
4.717588
4.719278
4.720973
4.722678
4.724396
4.726133
4.727892
4.729678
4.731497
4.733355
4.735256
4.737207
4.739213
4.741281
4.743415
4.745621
4.747904
4.750267
4.752714
4.755245
4.757863
4.760565
4.763351
4.766217
4.769158
4.772168
4.775238
4.778358
4.781519
4.784706
4.787907
4.791107
4.794289
4.797438
4.800535
4.803565
4.806511
4.809355
4.812086
4.814695
4.817169
4.819491
4.821635
4.823577
4.825294
4.826767
4.82798
4.828924
4.829594
4.829992
4.830127
4.830012
4.829661
4.829095
4.828334
4.827399
4.826313
4.825094
4.82376
4.822324
4.820797
4.819183
4.817481
4.815686
4.813782
4.811754
4.809577
4.807224
4.804665
4.801866
4.798793
4.795413
4.791698
4.787624
4.783176
4.778343
4.773115
4.767488
4.761465
4.755052
4.74826
4.741102
4.733592
4.725749
4.717591
4.709142
4.700427
4.691478
4.682326
4.673007
4.663562
4.65403
4.64445
4.634862
4.625303
4.615807
4.606404
4.597118
4.587968
4.57897
4.570134
4.561464
4.552964
4.544632
4.536467
4.528466
4.520625
4.512944
4.50543
4.498127
4.491073
4.484284
4.477753
4.471461
4.465377
4.459467
4.453696
4.448032
4.442443
4.436904
4.43139
4.425884
4.42037
4.414839
4.409285
4.403704
4.398098
4.392469
4.386824
4.381167
4.375506
4.369847
4.364219
4.358645
4.353139
4.347709
4.342362
4.337107
4.331947
4.326889
4.321935
4.317089
4.312353
4.307729
4.303218
4.298822
4.294541
4.290377
4.286331
4.282405
4.278601
4.27492
4.271364
4.267933
4.264626
4.261439
4.258366
4.255403
4.252547
4.249797
4.247149
4.244603
4.242154
4.239787
4.237482
4.23525
4.233087
4.230986
4.228936
4.226929
4.224956
4.223007
4.221074
4.219149
4.217227
4.215301
4.213369
4.211429
4.209478
4.207519
4.205551
4.203578
4.201601
4.199624
4.197651
4.195684
4.193726
4.191781
4.189853
4.187943
4.186054
4.184188
4.182347
4.180534
4.178748
4.176992
4.175267
4.173573
4.171911
4.170281
4.168684
4.16712
4.165589
4.164091
4.162625
4.16119
4.159787
4.158413
4.157069
4.155753
4.154464
4.153201
4.151961
4.150744
4.149548
4.148371
4.147212
4.146068
4.144938
4.14382
4.142712
4.141611
4.140516
4.139425
4.138333
4.13724
4.136142
4.135035
4.133916
4.13278
4.131622
4.130436
4.129215
4.127951
4.126633
4.12525
4.123785
4.122221
4.120536
4.118702
4.116687
4.114454
4.111964
4.109176
4.106063
4.102618
4.098966
4.095575
83.62899
53.84245
47.53727
43.86062
41.98526
39.91626
38.17423
36.704
35.45676
33.9696
30.79312
30.22595
29.72738
29.31992
28.98586
28.72162
28.56733
28.5474
28.67904
28.95352
29.31061
29.79225
30.44337
31.28516
32.28394
33.38413
34.56412
35.80395
37.1329
38.467
39.71849
40.87349
41.95845
42.88876
43.64955
44.25527
44.72359
45.04727
45.19165
45.15595
44.9772
44.66537
44.23899
43.71622
43.10537
42.43443
41.71748
40.96827
40.19811
39.40759
38.60723
37.80514
37.0083
36.22052
35.44535
34.684
33.94038
33.2192
32.51543
31.83174
31.16876
30.52669
29.90621
29.30831
28.73359
28.18259
27.65446
27.14904
26.66549
26.20187
25.75614
25.32608
24.90897
24.50342
24.10727
23.71669
23.32996
22.94604
22.56223
22.17175
21.77758
21.38222
20.98857
20.60054
20.21846
19.84271
19.47377
19.11216
18.75855
18.41361
18.07782
17.75154
17.4351
17.12865
16.83232
16.54594
16.26926
16.00203
15.7441
15.49508
15.25458
15.02209
14.79705
14.57887
14.36694
14.16061
13.95984
13.76403
13.57246
13.38436
13.19847
13.01392
12.83038
12.64749
12.46487
12.28221
12.09931
11.91606
11.73238
11.54825
11.36369
11.17877
10.9936
10.80831
10.62308
10.43809
10.25354
10.06965
9.886644
9.704745
9.524166
9.345112
9.167772
8.99233
8.818964
8.647829
8.479056
8.312756
8.149022
7.987934
7.829552
7.673926
7.521103
7.37113
7.224064
7.079971
6.938932
6.801041
6.6664
6.535119
6.407298
6.283021
6.162353
6.045342
5.932088
5.822703
5.717274
5.61586
5.518512
5.425275
5.336183
5.251269
5.170465
5.093689
5.020921
4.952138
4.8873
4.826355
4.769252
4.715938
4.666361
4.620513
4.578423
4.540106
4.505559
4.47474
4.447546
4.423793
4.403228
4.385554
4.370459
4.357647
4.346897
4.338082
4.33107
4.325707
4.321816
4.319209
4.317702
4.317117
4.317291
4.318079
4.319355
4.321014
4.322946
4.325013
4.327198
4.329476
4.331819
4.334202
4.336603
4.339005
4.341397
4.343769
4.346116
4.348434
4.35072
4.352974
4.355193
4.357379
4.35953
4.361648
4.36373
4.365777
4.367788
4.369761
4.371695
4.373589
4.375441
4.37725
4.379015
4.380735
4.382408
4.384035
4.385615
4.387148
4.388637
4.390081
4.391484
4.392848
4.394175
4.395469
4.396732
4.397963
4.399166
4.400342
4.401493
4.402621
4.403728
4.40482
4.405889
4.406943
4.407981
4.409007
4.410021
4.411027
4.412026
4.413021
4.414015
4.415012
4.416015
4.417031
4.418063
4.419116
4.420198
4.421313
4.422468
4.423668
4.424919
4.426225
4.427591
4.42902
4.430515
4.432078
4.433709
4.435408
4.437171
4.438995
4.440876
4.442805
4.444775
4.446776
4.448797
4.450825
4.452847
4.454848
4.456813
4.458726
4.460573
4.46234
4.464012
4.465576
4.467016
4.468319
4.469468
4.470448
4.471245
4.471845
4.472237
4.472411
4.472361
4.472083
4.471577
4.470847
4.469898
4.468739
4.467381
4.465835
4.464114
4.462231
4.460198
4.458029
4.455736
4.453325
4.450797
4.448152
4.445383
4.442481
4.439433
4.436224
4.432836
4.429251
4.425454
4.421429
4.417165
4.41265
4.407875
4.402825
4.39749
4.391859
4.385931
4.379706
4.373187
4.36638
4.359294
4.351941
4.344334
4.336492
4.328433
4.320182
4.311765
4.303209
4.294546
4.285808
4.277026
4.268232
4.259455
4.250724
4.242062
4.233489
4.225024
4.216678
4.208462
4.200381
4.19244
4.184638
4.176977
4.169456
4.162075
4.154833
4.147739
4.140805
4.134042
4.127459
4.121057
4.114831
4.108774
4.102874
4.097121
4.0915
4.085997
4.080599
4.075291
4.070062
4.064899
4.059795
4.05474
4.04973
4.044761
4.039833
4.034946
4.030101
4.025305
4.020561
4.015874
4.011249
4.006689
4.002199
3.997781
3.993441
3.989179
3.985
3.980905
3.976897
3.972978
3.969149
3.965411
3.961767
3.958218
3.954764
3.951408
3.948151
3.944995
3.94194
3.938987
3.936135
3.933383
3.930726
3.928163
3.925691
3.923309
3.921014
3.918806
3.91668
3.914635
3.912654
3.910728
3.908863
3.907057
3.905304
3.9036
3.901939
3.900315
3.898724
3.897161
3.895621
3.894099
3.892592
3.891097
3.88961
3.888129
3.886654
3.885182
3.883714
3.882249
3.880788
3.879332
3.87788
3.876435
3.874997
3.873567
3.872148
3.87074
3.869345
3.867964
3.866599
3.86525
3.863919
3.862606
3.861314
3.860041
3.858791
3.857562
3.856355
3.855171
3.85401
3.852872
3.851756
3.850662
3.849589
3.848537
3.847505
3.846492
3.845496
3.844517
3.843554
3.842603
3.841665
3.840738
3.839819
3.838908
3.838002
3.8371
3.836199
3.835297
3.834393
3.833484
3.832567
3.831639
3.830697
3.829738
3.828756
3.827746
3.826704
3.825622
3.824492
3.823303
3.822046
3.820704
3.819263
3.817704
3.816003
3.814138
3.812083
3.809815
3.807319
3.804591
3.801724
3.799053
99.59699
39.20682
29.78822
27.73316
26.71839
26.17528
25.89531
25.76056
25.71724
25.73392
25.71621
25.61505
25.54162
25.54097
25.62642
25.81995
26.14964
26.6385
27.30549
28.16557
29.20601
30.43295
31.80232
33.29799
34.96192
36.62338
38.24126
39.78218
41.21194
42.48647
43.54603
44.40425
45.01023
45.35815
45.4361
45.2986
44.97386
44.48072
43.81877
43.02064
42.1307
41.15973
40.13678
39.08383
38.01174
36.94401
35.89183
34.86404
33.86615
32.90497
31.98864
31.11959
30.29781
29.52536
28.79847
28.11317
27.46432
26.84386
26.25671
25.70079
25.17385
24.67385
24.19913
23.74853
23.32126
22.91658
22.53461
22.17492
21.83763
21.52287
21.23052
20.96006
20.71021
20.47786
20.25884
20.04722
19.82909
19.60154
19.36757
19.13454
18.90073
18.66486
18.42622
18.18462
17.94012
17.69304
17.44396
17.19363
16.9429
16.69268
16.44386
16.19731
15.95387
15.71427
15.47917
15.24893
15.02385