/*--------------------------------*- C++ -*----------------------------------*\
| =========                 |                                                 |
| \\      /  F ield         | foam-extend: Open Source CFD                    |
|  \\    /   O peration     | Version:     3.1                                |
|   \\  /    A nd           | Web:         http://www.extend-project.de       |
|    \\/     M anipulation  |                                                 |
\*---------------------------------------------------------------------------*/
FoamFile
{
    version     2.0;
    format      ascii;
    class       volScalarField;
    location    "3.5";
    object      pd;
}
// * * * * * * * * * * * * * * * * * * * * * * * * * * * * * * * * * * * * * //

dimensions      [1 -1 -2 0 0 0 0];

internalField   nonuniform List<scalar> 
119952
(
9622.118
9438.435
9405.594
9436.25
9472.559
9450.557
9447.891
9446.054
9445.935
9446.532
9447.526
9448.778
9450.149
9451.514
9452.76
9453.741
9454.217
9453.593
9449.668
9433.21
9502.9
9458.649
9444.828
9535.395
9518.79
9530.803
9536.793
9561.952
9641.54
6837.786
9134.015
9139.086
9147.73
9156.574
9164.876
9173.398
9181.437
9189.615
9198.091
9202.09
9209.828
9218.204
9225.098
9231.786
9238.926
9245.692
9252.637
9259.425
9266.484
9277.942
9281.413
9285.697
9291.914
9298.217
9304.495
9310.932
9317.508
9323.959
9330.758
9335.706
9342.351
9349.44
9356.291
9363.388
9370.639
9378.068
9386.705
9402.049
9432.384
9415.746
9418.178
9433.354
9442.466
9444.771
9442.972
9442.825
9443.525
9444.515
9445.788
9447.245
9448.767
9450.261
9451.639
9452.786
9453.556
9453.81
9453.694
9454.613
9459.968
9465.048
9466.216
9485.168
9514.136
9520.432
9524.616
9529.154
9516.913
9463.456
9452.413
9462.858
9465.853
9468.633
9470.972
9472.27
9472.982
9473.328
9473.346
9473.063
9472.503
9471.682
9470.618
9469.315
9467.778
9466.013
9464
9461.755
9459.272
9456.552
9453.591
9450.388
9446.94
9443.245
9439.3
9435.104
9430.654
9425.951
9420.992
9415.776
9410.301
9404.566
9398.57
9392.314
9385.795
9379.012
9371.967
9364.658
9357.084
9349.245
9341.139
9332.765
9324.121
9315.202
9305.998
9296.487
9286.624
9276.451
9266.639
9257.798
9248.754
9237.51
9226.139
9214.894
9203.397
9191.717
9179.851
9167.794
9155.552
9143.127
9130.525
9117.754
9104.821
9091.736
9078.505
9065.128
9051.616
9037.976
9024.214
9010.339
8996.356
8982.273
8968.095
8953.83
8939.481
8925.055
8910.557
8895.991
8881.363
8866.675
8851.931
8837.134
8822.287
8807.392
8792.45
8777.463
8762.432
8747.356
8732.236
8717.071
8701.859
8686.597
8671.283
8655.911
8640.472
8624.947
8609.277
8593.352
8576.751
8565.766
8550.125
8534.501
8518.558
8502.541
8486.534
8470.442
8454.265
8438.01
8421.662
8405.217
8388.67
8372.018
8355.258
8338.388
8321.405
8304.304
8287.081
8269.73
8252.251
8234.64
8216.894
8199.009
8180.981
8162.802
8144.467
8125.969
8107.297
8088.438
8069.367
8050.048
8030.418
8010.359
7989.585
7967.341
7944.392
7929.357
7913.011
7895.642
7877.786
7859.624
7841.245
7822.706
7804.044
7785.285
7766.449
7747.555
7728.62
7709.659
7690.685
7671.712
7652.752
7633.818
7614.922
7596.075
7577.288
7558.573
7539.94
7521.4
7502.963
7484.641
7466.443
7448.378
7430.457
7412.689
7395.084
7377.65
7360.395
7343.324
7326.618
7314.149
7292.971
7275.357
7259.035
7242.986
7227.278
7211.935
7196.82
7181.969
7167.379
7153.048
7138.976
7125.165
7111.619
7098.341
7085.332
7072.594
7060.128
7047.937
7036.022
7024.383
7013.02
7001.935
6991.127
6980.595
6970.318
6960.315
6950.598
6941.156
6931.984
6923.079
6914.441
6906.067
6897.953
6890.1
6882.503
6875.162
6868.074
6861.24
6854.66
6848.326
6842.24
6836.414
6830.861
6825.598
6820.51
6815.258
6810.167
6805.364
6800.784
6796.425
6792.282
6788.341
6784.285
6779.42
6776.832
6773.828
6770.743
6767.817
6765.052
6762.452
6760.004
6757.704
6755.549
6753.53
6751.645
6749.887
6748.252
6746.737
6745.337
6744.049
6742.868
6741.791
6740.814
6739.934
6739.145
6738.446
6737.832
6737.299
6736.845
6736.465
6736.157
6735.916
6735.74
6735.626
6735.57
6735.569
6735.62
6735.72
6735.866
6736.056
6736.286
6736.554
6736.857
6737.193
6737.558
6737.951
6738.369
6738.809
6739.27
6739.749
6740.243
6740.751
6741.27
6741.799
6742.335
6742.876
6743.421
6743.967
6744.512
6745.055
6745.594
6746.125
6746.649
6747.162
6747.662
6748.148
6748.616
6749.065
6749.491
6749.891
6750.262
6750.599
6750.898
6751.153
6751.357
6751.5
6751.57
6751.552
6751.424
6751.155
6750.698
6749.981
6748.886
6747.213
6744.683
6741.61
6742.656
6760.612
8414.901
8441.885
8467.284
8493.535
8520.321
8547.363
8574.568
8601.86
8628.533
8648.11
8678.393
8704.113
8729.086
8753.446
8777.168
8800.186
8822.519
8844.071
8874.581
8891.389
8906.162
8923.963
8940.965
8957.426
8973.43
8988.804
9003.6
9017.773
9030.162
9042.654
9055.689
9067.563
9079.003
9090.159
9100.886
9111.251
9121.476
9131.712
9138.45
9147.478
9156.606
9165.18
9173.589
9181.748
9189.686
9197.442
9204.719
9211.923
9219.375
9226.202
9232.818
9239.53
9246.233
9252.905
9259.641
9267.043
9272.883
9279.742
9286.644
9292.9
9298.922
9305.056
9311.359
9317.755
9324.15
9330.526
9337.186
9343.759
9350.311
9357.077
9364.206
9371.788
9380.128
9389.557
9400.061
9409.574
9414.981
9419.009
9425.052
9431.136
9435.151
9437.088
9438.316
9439.668
9441.276
9443.025
9444.82
9446.609
9448.36
9450.033
9451.601
9453.078
9454.596
9456.48
9459.222
9463.347
9469.029
9476.414
9486.42
9497.518
9504.747
9506.635
9503.282
9494.248
9480.789
9470.569
9468.122
9469.626
9471.574
9472.784
9473.341
9473.618
9473.718
9473.604
9473.229
9472.59
9471.703
9470.582
9469.231
9467.648
9465.834
9463.785
9461.499
9458.975
9456.212
9453.209
9449.961
9446.469
9442.728
9438.737
9434.493
9429.996
9425.244
9420.235
9414.968
9409.441
9403.655
9397.607
9391.297
9384.724
9377.889
9370.79
9363.426
9355.799
9347.907
9339.749
9331.326
9322.637
9313.681
9304.461
9294.994
9285.323
9275.524
9265.643
9255.692
9245.531
9234.933
9223.925
9212.633
9201.123
9189.42
9177.525
9165.434
9153.151
9140.685
9128.044
9115.235
9102.264
9089.138
9075.863
9062.447
9048.898
9035.223
9021.428
9007.521
8993.509
8979.396
8965.192
8950.9
8936.527
8922.078
8907.558
8892.973
8878.325
8863.62
8848.86
8834.049
8819.189
8804.281
8789.329
8774.332
8759.292
8744.209
8729.081
8713.911
8698.692
8683.429
8668.11
8652.744
8637.312
8621.845
8606.341
8590.928
8575.575
8564.369
8548.984
8533.001
8517.131
8501.21
8485.186
8469.096
8452.917
8436.651
8420.292
8403.836
8387.28
8370.621
8353.853
8336.976
8319.983
8302.872
8285.638
8268.279
8250.791
8233.171
8215.416
8197.521
8179.483
8161.296
8142.954
8124.45
8105.774
8086.912
8067.846
8048.548
8028.974
8009.068
7988.801
7968.374
7948.538
7930.356
7912.897
7895.099
7877.065
7858.805
7840.362
7821.778
7803.079
7784.29
7765.429
7746.513
7727.559
7708.581
7689.593
7670.607
7651.636
7632.692
7613.786
7594.931
7576.137
7557.416
7538.778
7520.233
7501.793
7483.468
7465.267
7447.201
7429.278
7411.51
7393.905
7376.474
7359.227
7342.174
7325.356
7306.012
7289.516
7272.3
7255.67
7239.696
7224.107
7208.758
7193.668
7178.847
7164.293
7150
7135.967
7122.198
7108.694
7095.459
7082.494
7069.801
7057.382
7045.237
7033.369
7021.777
7010.462
6999.424
6988.663
6978.173
6968
6958.052
6948.378
6938.978
6929.849
6920.989
6912.397
6904.068
6896.001
6888.193
6880.642
6873.346
6866.303
6859.513
6852.991
6846.681
6840.62
6834.805
6829.226
6823.859
6818.659
6813.573
6808.641
6803.919
6799.414
6795.116
6791.016
6787.097
6783.254
6779.394
6775.98
6772.897
6769.868
6766.956
6764.209
6761.627
6759.205
6756.931
6754.801
6752.809
6750.949
6749.216
6747.606
6746.115
6744.738
6743.472
6742.313
6741.258
6740.301
6739.44
6738.67
6737.989
6737.392
6736.876
6736.438
6736.073
6735.779
6735.553
6735.39
6735.288
6735.244
6735.254
6735.315
6735.425
6735.581
6735.779
6736.017
6736.292
6736.602
6736.944
6737.315
6737.713
6738.136
6738.581
6739.045
6739.527
6740.024
6740.534
6741.055
6741.585
6742.122
6742.664
6743.208
6743.754
6744.298
6744.84
6745.376
6745.906
6746.427
6746.937
6747.434
6747.915
6748.379
6748.822
6749.243
6749.638
6750.003
6750.334
6750.627
6750.876
6751.075
6751.215
6751.285
6751.273
6751.162
6750.931
6750.552
6749.999
6749.254
6748.388
6747.629
6747.685
6749.154
6752.586
8277.8
8320.315
8353.58
8381.923
8404.833
8422.263
8434.445
8441.483
8443.434
8438.667
8432.394
8423.213
8411.798
8397.826
8381.99
8364.991
8347.531
8330.056
8314.545
8296.085
8280.399
8267.23
8256.758
8248.667
8243.09
8240.081
8239.678
8242.192
8248.569
8254.189
8264.076
8276.335
8290.828
8307.545
8326.276
8346.84
8369.156
8393.713
8416.415
8440.384
8467.227
8494.278
8521.584
8549.078
8576.565
8603.949
8631.042
8657.336
8683.794
8709.37
8734.06
8758.195
8781.733
8804.604
8826.792
8848.936
8874.527
8894.478
8912.383
8929.565
8946.464
8962.935
8978.787
8993.966
9008.482
9022.406
9035.901
9048.577
9060.55
9072.096
9083.324
9094.222
9104.752
9114.919
9124.719
9134.163
9143.152
9151.641
9159.963
9168.215
9176.338
9184.269
9191.995
9199.512
9206.846
9214.012
9220.942
9227.735
9234.458
9241.129
9247.734
9254.273
9260.7
9267.086
9273.267
9279.515
9285.7
9291.777
9297.866
9304.052
9310.348
9316.698
9323.097
9329.532
9335.977
9342.454
9349.069
9355.895
9363.002
9370.456
9378.312
9386.487
9394.904
9403.154
9409.571
9414.261
9419.276
9424.623
9428.942
9431.763
9433.757
9435.676
9437.728
9439.838
9441.938
9444.009
9446.05
9448.063
9450.06
9452.098
9454.284
9456.83
9459.98
9464.125
9469.439
9475.419
9482.45
9489.733
9494.865
9496.482
9494.614
9489.492
9481.547
9474.614
9472.015
9472.395
9473.36
9473.969
9474.16
9474.275
9474.26
9474.069
9473.644
9472.985
9472.095
9470.982
9469.646
9468.082
9466.289
9464.263
9462.002
9459.503
9456.766
9453.787
9450.564
9447.095
9443.378
9439.409
9435.188
9430.713
9425.981
9420.992
9415.744
9410.237
9404.468
9398.438
9392.145
9385.589
9378.77
9371.687
9364.339
9356.728
9348.853
9340.714
9332.312
9323.65
9314.73
9305.563
9296.164
9286.554
9276.749
9266.78
9256.676
9246.406
9235.813
9224.817
9213.535
9202.044
9190.356
9178.47
9166.383
9154.102
9141.636
9128.992
9116.177
9103.199
9090.064
9076.781
9063.356
9049.797
9036.111
9022.304
9008.385
8994.361
8980.237
8966.021
8951.718
8937.335
8922.876
8908.348
8893.753
8879.098
8864.386
8849.62
8834.803
8819.939
8805.028
8790.073
8775.076
8760.036
8744.954
8729.829
8714.663
8699.452
8684.196
8668.893
8653.543
8638.15
8622.71
8607.24
8591.68
8576.024
8560.278
8544.974
8529.457
8513.682
8497.765
8481.767
8465.69
8449.523
8433.26
8416.901
8400.443
8383.882
8367.215
8350.439
8333.549
8316.543
8299.417
8282.168
8264.792
8247.286
8229.648
8211.874
8193.961
8175.904
8157.701
8139.346
8120.834
8102.157
8083.31
8064.283
8045.07
8025.67
8006.112
7986.48
7966.953
7947.795
7929.182
7910.92
7892.672
7874.305
7855.809
7837.199
7818.489
7799.692
7780.823
7761.895
7742.924
7723.921
7704.9
7685.875
7666.856
7647.856
7628.886
7609.958
7591.084
7572.274
7553.539
7534.89
7516.337
7497.892
7479.563
7461.361
7443.296
7425.378
7407.615
7390.019
7372.599
7355.37
7338.343
7321.584
7305.01
7288.16
7271.634
7255.588
7239.881
7224.394
7209.102
7194.034
7179.21
7164.638
7150.32
7136.262
7122.467
7108.937
7095.675
7082.685
7069.967
7057.523
7045.355
7033.464
7021.849
7010.511
6999.45
6988.667
6978.162
6967.948
6957.999
6948.32
6938.911
6929.771
6920.9
6912.295
6903.953
6895.873
6888.053
6880.488
6873.178
6866.118
6859.304
6852.717
6846.41
6840.337
6834.493
6828.871
6823.454
6818.221
6813.148
6808.243
6803.542
6799.047
6794.74
6790.632
6786.718
6783.056
6779.568
6776.115
6772.771
6769.614
6766.656
6763.887
6761.29
6758.856
6756.573
6754.436
6752.438
6750.574
6748.838
6747.225
6745.731
6744.353
6743.085
6741.925
6740.867
6739.909
6739.046
6738.276
6737.593
6736.995
6736.478
6736.038
6735.673
6735.378
6735.15
6734.987
6734.884
6734.839
6734.848
6734.909
6735.018
6735.173
6735.371
6735.608
6735.883
6736.193
6736.534
6736.905
6737.303
6737.726
6738.17
6738.634
6739.116
6739.613
6740.123
6740.645
6741.175
6741.712
6742.254
6742.799
6743.344
6743.889
6744.431
6744.968
6745.498
6746.019
6746.53
6747.027
6747.51
6747.975
6748.42
6748.843
6749.24
6749.609
6749.946
6750.246
6750.505
6750.718
6750.877
6750.976
6751.005
6750.955
6750.817
6750.585
6750.265
6749.887
6749.541
6749.378
6749.642
6750.595
6752.349
7709.021
7754.398
7799.183
7850.159
7898.582
7951.138
7999.573
8046.605
8092.97
8134.988
8176.903
8220.382
8259.764
8295.094
8326.341
8352.899
8374.344
8390.617
8401.81
8408.129
8410.039
8408.888
8404.275
8395.087
8383.373
8369.668
8354.495
8338.411
8321.999
8306.059
8292.544
8267.823
8257.122
8247.606
8238.154
8230.768
8226.213
8224.444
8225.384
8229.06
8235.434
8244.285
8255.433
8268.907
8284.73
8302.723
8322.682
8344.399
8367.673
8392.243
8417.789
8443.857
8470.581
8497.946
8525.726
8553.668
8581.577
8609.284
8636.663
8663.609
8689.892
8715.514
8740.511
8764.868
8788.408
8811.229
8833.173
8854.766
8876.176
8895.589
8913.542
8931.026
8948.19
8964.79
8980.717
8995.938
9010.503
9024.424
9037.689
9050.317
9062.406
9074.035
9085.243
9096.054
9106.472
9116.502
9126.172
9135.479
9144.337
9152.83
9161.146
9169.33
9177.341
9185.152
9192.756
9200.172
9207.395
9214.437
9221.34
9228.12
9234.782
9241.356
9247.851
9254.279
9260.611
9266.897
9273.095
9279.181
9285.27
9291.403
9297.558
9303.736
9309.954
9316.209
9322.503
9328.82
9335.167
9341.599
9348.159
9354.871
9361.77
9368.877
9376.174
9383.607
9391.076
9398.317
9404.58
9409.785
9414.734
9419.61
9423.861
9427.194
9429.896
9432.387
9434.847
9437.284
9439.677
9442.03
9444.358
9446.682
9449.027
9451.45
9454.033
9456.917
9460.253
9464.212
9468.807
9473.802
9479.11
9484.233
9488.03
9489.628
9488.813
9485.877
9481.587
9477.57
9475.286
9474.694
9474.865
9475.104
9475.265
9475.202
9475.045
9474.759
9474.277
9473.607
9472.716
9471.61
9470.288
9468.744
9466.973
9464.97
9462.734
9460.261
9457.548
9454.593
9451.394
9447.947
9444.251
9440.304
9436.103
9431.647
9426.934
9421.963
9416.732
9411.24
9405.487
9399.471
9393.191
9386.648
9379.842
9372.771
9365.435
9357.836
9349.974
9341.849
9333.463
9324.82
9315.925
9306.784
9297.408
9287.809
9278.001
9268.004
9257.824
9247.434
9236.759
9225.771
9214.516
9203.037
9191.349
9179.454
9167.358
9155.064
9142.584
9129.924
9117.092
9104.096
9090.943
9077.641
9064.197
9050.619
9036.913
9023.088
9009.15
8995.108
8980.967
8966.734
8952.415
8938.016
8923.543
8909.001
8894.395
8879.729
8865.007
8850.232
8835.409
8820.538
8805.623
8790.666
8775.666
8760.627
8745.547
8730.426
8715.265
8700.063
8684.818
8669.53
8654.198
8638.822
8623.399
8607.927
8592.392
8576.818
8561.271
8545.877
8530.344
8514.585
8498.693
8482.721
8466.669
8450.527
8434.289
8417.953
8401.517
8384.978
8368.333
8351.577
8334.708
8317.721
8300.614
8283.383
8266.026
8248.539
8230.92
8213.166
8195.274
8177.24
8159.063
8140.738
8122.264
8103.636
8084.854
8065.918
8046.834
8027.62
8008.315
7988.986
7969.733
7950.673
7931.899
7913.358
7894.872
7876.322
7857.685
7838.963
7820.164
7801.294
7782.362
7763.38
7744.359
7725.311
7706.247
7687.18
7668.122
7649.083
7630.075
7611.109
7592.197
7573.349
7554.576
7535.889
7517.298
7498.814
7480.446
7462.205
7444.101
7426.143
7408.341
7390.704
7373.242
7355.966
7338.878
7321.985
7305.24
7288.601
7272.21
7256.101
7240.238
7224.611
7209.228
7194.096
7179.222
7164.608
7150.256
7136.167
7122.344
7108.789
7095.505
7082.492
7069.753
7057.29
7045.103
7033.193
7021.561
7010.207
6999.131
6988.333
6977.815
6967.576
6957.61
6947.917
6938.495
6929.343
6920.46
6911.844
6903.492
6895.402
6887.572
6879.999
6872.679
6865.61
6858.787
6852.202
6845.866
6839.767
6833.897
6828.247
6822.805
6817.557
6812.489
6807.602
6802.903
6798.408
6794.124
6790.032
6786.122
6782.398
6778.819
6775.385
6772.125
6769.038
6766.121
6763.372
6760.786
6758.357
6756.079
6753.944
6751.949
6750.087
6748.354
6746.745
6745.255
6743.881
6742.618
6741.462
6740.409
6739.456
6738.598
6737.833
6737.155
6736.562
6736.05
6735.615
6735.254
6734.964
6734.741
6734.582
6734.484
6734.444
6734.457
6734.523
6734.637
6734.796
6734.998
6735.24
6735.519
6735.833
6736.178
6736.553
6736.955
6737.381
6737.829
6738.297
6738.783
6739.284
6739.798
6740.322
6740.856
6741.397
6741.942
6742.49
6743.039
6743.588
6744.133
6744.674
6745.207
6745.733
6746.247
6746.749
6747.237
6747.707
6748.159
6748.588
6748.994
6749.373
6749.721
6750.036
6750.314
6750.55
6750.74
6750.88
6750.965
6750.993
6750.962
6750.879
6750.761
6750.645
6750.594
6750.699
6751.084
6751.783
6752.966
7455.973
7458.804
7466.256
7477.254
7491.979
7511.807
7534.489
7560.96
7591.397
7625.562
7663.868
7702.36
7744.853
7789.726
7835.935
7882.52
7940.227
7989.708
8037.24
8082.639
8126.595
8170.641
8213.66
8253.034
8287.769
8317.874
8343.126
8363.37
8378.531
8388.659
8394.04
8395.209
8392.711
8386.635
8377.105
8364.81
8350.504
8334.807
8318.301
8301.458
8284.63
8268.01
8251.594
8239.414
8229.662
8221.065
8214.371
8210.294
8208.995
8210.44
8214.61
8221.478
8230.854
8242.63
8256.831
8273.378
8292.098
8312.8
8335.253
8359.298
8384.805
8411.298
8438.32
8465.924
8494.096
8522.62
8551.248
8579.778
8608.041
8635.933
8663.32
8690.117
8716.26
8741.704
8766.524
8790.236
8813.281
8835.617
8857.091
8877.696
8897.25
8915.824
8933.69
8950.975
8967.46
8983.304
8998.465
9012.963
9026.812
9040.041
9052.685
9064.781
9076.379
9087.523
9098.244
9108.561
9118.49
9128.047
9137.234
9146.056
9154.567
9162.846
9170.93
9178.818
9186.507
9193.998
9201.305
9208.431
9215.397
9222.228
9228.929
9235.507
9241.99
9248.39
9254.72
9260.973
9267.167
9273.287
9279.341
9285.399
9291.478
9297.558
9303.639
9309.742
9315.878
9322.05
9328.256
9334.511
9340.841
9347.263
9353.793
9360.443
9367.216
9374.088
9381.007
9387.847
9394.42
9400.432
9405.791
9410.736
9415.409
9419.65
9423.313
9426.497
9429.414
9432.212
9434.941
9437.608
9440.22
9442.804
9445.388
9448.005
9450.7
9453.537
9456.603
9459.976
9463.711
9467.782
9472.048
9476.313
9480.235
9483.212
9484.729
9484.626
9483.151
9480.845
9478.497
9476.876
9476.183
9476.08
9476.142
9476.173
9476.093
9475.905
9475.582
9475.108
9474.423
9473.536
9472.444
9471.145
9469.624
9467.879
9465.903
9463.694
9461.249
9458.563
9455.635
9452.462
9449.041
9445.369
9441.445
9437.266
9432.831
9428.138
9423.185
9417.972
9412.497
9406.759
9400.758
9394.493
9387.963
9381.169
9374.11
9366.786
9359.199
9351.348
9343.235
9334.862
9326.233
9317.352
9308.224
9298.858
9289.262
9279.446
9269.418
9259.175
9248.703
9237.976
9226.979
9215.727
9204.242
9192.539
9180.626
9168.509
9156.196
9143.693
9131.01
9118.154
9105.132
9091.953
9078.625
9065.154
9051.549
9037.817
9023.965
9010.003
8995.935
8981.77
8967.515
8953.174
8938.755
8924.264
8909.704
8895.082
8880.401
8865.667
8850.881
8836.048
8821.171
8806.25
8791.289
8776.288
8761.249
8746.172
8731.056
8715.902
8700.709
8685.476
8670.203
8654.889
8639.532
8624.132
8608.69
8593.21
8577.708
8562.198
8546.681
8531.071
8515.323
8499.466
8483.523
8467.495
8451.376
8435.161
8418.849
8402.435
8385.918
8369.294
8352.559
8335.71
8318.743
8301.656
8284.444
8267.106
8249.638
8232.038
8214.303
8196.431
8178.42
8160.268
8141.973
8123.536
8104.956
8086.236
8067.383
8048.407
8029.331
8010.187
7991.024
7971.904
7952.894
7934.041
7915.32
7896.638
7877.925
7859.154
7840.319
7821.423
7802.467
7783.459
7764.408
7745.322
7726.214
7707.092
7687.97
7668.857
7649.765
7630.705
7611.688
7592.724
7573.826
7555.003
7536.266
7517.626
7499.093
7480.678
7462.389
7444.237
7426.232
7408.382
7390.697
7373.185
7355.854
7338.706
7321.745
7304.976
7288.379
7271.978
7255.812
7239.896
7224.232
7208.821
7193.663
7178.761
7164.119
7149.739
7135.623
7121.775
7108.195
7094.888
7081.854
7069.095
7056.614
7044.409
7032.484
7020.836
7009.468
6998.378
6987.568
6977.037
6966.784
6956.807
6947.104
6937.674
6928.515
6919.626
6911.004
6902.648
6894.554
6886.721
6879.144
6871.822
6864.75
6857.924
6851.34
6844.997
6838.89
6833.01
6827.349
6821.898
6816.648
6811.591
6806.724
6802.049
6797.571
6793.291
6789.199
6785.296
6781.572
6778.01
6774.612
6771.384
6768.325
6765.432
6762.702
6760.132
6757.716
6755.449
6753.327
6751.342
6749.492
6747.77
6746.172
6744.695
6743.332
6742.081
6740.937
6739.897
6738.956
6738.11
6737.357
6736.691
6736.11
6735.609
6735.186
6734.837
6734.558
6734.347
6734.199
6734.112
6734.082
6734.107
6734.182
6734.306
6734.476
6734.688
6734.939
6735.228
6735.551
6735.906
6736.29
6736.701
6737.136
6737.593
6738.069
6738.563
6739.072
6739.593
6740.126
6740.667
6741.216
6741.768
6742.324
6742.881
6743.437
6743.99
6744.538
6745.079
6745.613
6746.136
6746.646
6747.143
6747.624
6748.086
6748.528
6748.948
6749.342
6749.709
6750.046
6750.35
6750.619
6750.849
6751.039
6751.188
6751.297
6751.37
6751.418
6751.459
6751.525
6751.661
6751.92
6752.375
6752.993
6753.981
7554.029
7531.14
7513.989
7498.882
7486.934
7476.62
7468.965
7462.838
7458.704
7456.794
7456.666
7459.715
7465.959
7475.304
7487.984
7509.979
7532.897
7558.98
7588.843
7622.277
7659.042
7699.335
7742.467
7788.25
7835.203
7882.335
7927.013
7975.198
8022.039
8067.703
8112.735
8157.413
8200.515
8240.042
8274.826
8304.556
8329.292
8349.059
8363.731
8373.317
8378.057
8378.395
8374.914
8368.008
8357.921
8345.16
8330.425
8314.34
8297.471
8280.293
8263.225
8247.115
8232.315
8219.98
8210.006
8201.88
8195.736
8192.056
8191.142
8193.062
8197.781
8205.237
8215.257
8227.766
8242.763
8260.138
8279.729
8301.324
8324.702
8349.576
8375.738
8403.048
8431.187
8459.881
8488.987
8518.371
8547.821
8577.162
8606.068
8634.579
8662.553
8689.878
8716.465
8742.251
8767.115
8791.497
8814.908
8837.424
8859.026
8879.781
8899.598
8918.435
8936.403
8953.629
8970.326
8986.252
9001.447
9015.948
9029.792
9043.02
9055.655
9067.699
9079.23
9090.302
9100.937
9111.155
9120.981
9130.434
9139.531
9148.294
9156.755
9164.956
9172.933
9180.702
9188.273
9195.651
9202.847
9209.872
9216.743
9223.473
9230.073
9236.556
9242.942
9249.243
9255.47
9261.625
9267.718
9273.752
9279.743
9285.718
9291.69
9297.659
9303.632
9309.623
9315.642
9321.695
9327.784
9333.92
9340.111
9346.369
9352.702
9359.112
9365.591
9372.112
9378.636
9385.037
9391.166
9396.922
9402.251
9407.187
9411.811
9416.094
9419.972
9423.48
9426.723
9429.807
9432.804
9435.734
9438.6
9441.426
9444.247
9447.093
9450.001
9453.015
9456.182
9459.537
9463.09
9466.803
9470.559
9474.179
9477.415
9479.93
9481.438
9481.85
9481.331
9480.212
9478.935
9477.946
9477.442
9477.296
9477.282
9477.253
9477.144
9476.933
9476.594
9476.107
9475.439
9474.575
9473.489
9472.227
9470.735
9469.017
9467.071
9464.892
9462.476
9459.82
9456.92
9453.774
9450.379
9446.733
9442.832
9438.676
9434.261
9429.588
9424.654
9419.458
9413.998
9408.275
9402.288
9396.035
9389.516
9382.733
9375.683
9368.368
9360.789
9352.945
9344.84
9336.474
9327.851
9318.975
9309.849
9300.481
9290.877
9281.041
9270.978
9260.686
9250.159
9239.386
9228.36
9217.086
9205.579
9193.85
9181.909
9169.762
9157.417
9144.881
9132.164
9119.272
9106.215
9092.999
9079.633
9066.125
9052.483
9038.714
9024.827
9010.829
8996.728
8982.531
8968.244
8953.874
8939.427
8924.91
8910.326
8895.682
8880.982
8866.23
8851.43
8836.584
8821.696
8806.767
8791.8
8776.796
8761.756
8746.681
8731.569
8716.422
8701.238
8686.018
8670.76
8655.462
8640.126
8624.749
8609.335
8593.883
8578.397
8562.873
8547.308
8531.673
8515.942
8500.114
8484.197
8468.193
8452.097
8435.905
8419.616
8403.225
8386.73
8370.127
8353.413
8336.584
8319.636
8302.567
8285.374
8268.052
8250.6
8233.016
8215.297
8197.441
8179.447
8161.315
8143.044
8124.637
8106.095
8087.424
8068.632
8049.733
8030.746
8011.699
7992.628
7973.573
7954.574
7935.651
7916.793
7897.955
7879.095
7860.19
7841.235
7822.227
7803.169
7784.065
7764.924
7745.753
7726.562
7707.361
7688.161
7668.973
7649.807
7630.674
7611.585
7592.552
7573.584
7554.693
7535.89
7517.185
7498.588
7480.109
7461.759
7443.547
7425.482
7407.575
7389.832
7372.264
7354.876
7337.674
7320.663
7303.849
7287.226
7270.809
7254.624
7238.688
7223.001
7207.564
7192.38
7177.452
7162.785
7148.382
7134.245
7120.377
7106.781
7093.459
7080.412
7067.642
7055.151
7042.94
7031.009
7019.358
7007.989
6996.9
6986.093
6975.566
6965.319
6955.348
6945.654
6936.234
6927.086
6918.208
6909.599
6901.255
6893.174
6885.354
6877.791
6870.481
6863.422
6856.61
6850.039
6843.708
6837.61
6831.739
6826.088
6820.649
6815.416
6810.381
6805.543
6800.9
6796.452
6792.198
6788.133
6784.253
6780.551
6777.021
6773.66
6770.465
6767.436
6764.572
6761.869
6759.324
6756.932
6754.688
6752.586
6750.623
6748.794
6747.092
6745.515
6744.058
6742.716
6741.485
6740.361
6739.34
6738.418
6737.592
6736.857
6736.211
6735.648
6735.166
6734.761
6734.429
6734.168
6733.973
6733.842
6733.772
6733.758
6733.798
6733.89
6734.029
6734.213
6734.44
6734.706
6735.008
6735.345
6735.713
6736.11
6736.534
6736.981
6737.45
6737.939
6738.444
6738.964
6739.497
6740.041
6740.593
6741.152
6741.715
6742.281
6742.848
6743.414
6743.977
6744.536
6745.088
6745.632
6746.166
6746.688
6747.197
6747.691
6748.168
6748.625
6749.062
6749.476
6749.866
6750.228
6750.563
6750.868
6751.141
6751.384
6751.596
6751.782
6751.947
6752.103
6752.267
6752.463
6752.723
6753.081
6753.582
6754.181
6755.103
7788.478
7739.592
7676.199
7622.175
7581.236
7551.681
7529.543
7512.683
7499.145
7487.664
7477.664
7470.167
7463.974
7459.582
7457.243
7457.312
7460.101
7465.801
7474.617
7487.26
7502.675
7523.756
7548.434
7577.338
7610.419
7647.046
7686.705
7729.332
7774.613
7821.825
7870.042
7918.2
7966.949
8014.346
8060.267
8105.157
8148.918
8190.74
8229.144
8262.875
8291.376
8314.573
8332.548
8345.369
8353.145
8356.147
8354.82
8349.714
8341.352
8330.142
8316.56
8301.204
8284.688
8267.561
8250.353
8233.566
8217.934
8203.779
8191.459
8181.386
8173.59
8168.09
8165.122
8164.946
8167.675
8173.297
8181.739
8192.921
8206.747
8223.092
8241.835
8262.812
8285.777
8310.504
8336.664
8363.891
8392.139
8421.378
8451.35
8481.639
8512.154
8542.661
8572.943
8602.993
8632.479
8661.316
8689.426
8716.731
8743.181
8768.736
8793.45
8817.212
8840.03
8861.905
8882.854
8902.853
8921.896
8940.054
8957.43
8974.093
8990.001
9005.166
9019.619
9033.4
9046.548
9059.108
9071.148
9082.658
9093.666
9104.216
9114.334
9124.041
9133.379
9142.36
9151.018
9159.382
9167.481
9175.341
9182.988
9190.433
9197.686
9204.759
9211.665
9218.417
9225.028
9231.513
9237.884
9244.158
9250.344
9256.455
9262.496
9268.477
9274.408
9280.299
9286.166
9292.022
9297.876
9303.736
9309.61
9315.506
9321.431
9327.389
9333.383
9339.421
9345.508
9351.645
9357.826
9364.037
9370.242
9376.404
9382.488
9388.32
9393.879
9399.146
9404.071
9408.708
9413.053
9417.083
9420.834
9424.351
9427.692
9430.923
9434.077
9437.177
9440.248
9443.311
9446.386
9449.496
9452.666
9455.916
9459.258
9462.683
9466.153
9469.571
9472.798
9475.662
9477.964
9479.543
9480.347
9480.473
9480.123
9479.568
9479.077
9478.796
9478.694
9478.665
9478.615
9478.492
9478.27
9477.923
9477.428
9476.763
9475.915
9474.88
9473.604
9472.128
9470.432
9468.509
9466.354
9463.963
9461.331
9458.455
9455.332
9451.958
9448.331
9444.449
9440.309
9435.911
9431.251
9426.329
9421.143
9415.693
9409.978
9403.997
9397.749
9391.234
9384.453
9377.404
9370.089
9362.508
9354.662
9346.553
9338.182
9329.552
9320.666
9311.529
9302.143
9292.515
9282.646
9272.541
9262.198
9251.616
9240.79
9229.718
9218.404
9206.856
9195.085
9183.1
9170.907
9158.514
9145.93
9133.162
9120.22
9107.111
9093.843
9080.425
9066.865
9053.172
9039.353
9025.417
9011.372
8997.225
8982.984
8968.655
8954.245
8939.761
8925.209
8910.593
8895.92
8881.193
8866.417
8851.596
8836.732
8821.829
8806.888
8791.913
8776.902
8761.859
8746.783
8731.674
8716.532
8701.356
8686.146
8670.901
8655.619
8640.3
8624.943
8609.546
8594.11
8578.632
8563.108
8547.536
8531.899
8516.18
8500.372
8484.475
8468.491
8452.415
8436.244
8419.974
8403.602
8387.125
8370.538
8353.84
8337.024
8320.09
8303.033
8285.85
8268.539
8251.097
8233.522
8215.814
8197.97
8179.99
8161.874
8143.622
8125.238
8106.725
8088.089
8069.339
8050.489
8031.555
8012.56
7993.531
7974.494
7955.473
7936.482
7917.515
7898.55
7879.563
7860.539
7841.471
7822.357
7803.2
7784.003
7764.773
7745.518
7726.246
7706.968
7687.692
7668.43
7649.193
7629.99
7610.833
7591.732
7572.699
7553.744
7534.878
7516.112
7497.455
7478.918
7460.511
7442.244
7424.126
7406.166
7388.373
7370.755
7353.319
7336.072
7319.02
7302.169
7285.521
7269.089
7252.889
7236.931
7221.221
7205.761
7190.556
7175.609
7160.925
7146.507
7132.357
7118.479
7104.874
7091.546
7078.495
7065.723
7053.232
7041.022
7029.095
7017.45
7006.088
6995.009
6984.213
6973.699
6963.464
6953.509
6943.83
6934.427
6925.297
6916.438
6907.848
6899.524
6891.464
6883.664
6876.121
6868.833
6861.794
6855.002
6848.452
6842.14
6836.061
6830.209
6824.578
6819.161
6813.953
6808.948
6804.142
6799.534
6795.121
6790.9
6786.867
6783.018
6779.349
6775.854
6772.528
6769.37
6766.377
6763.548
6760.878
6758.364
6756.001
6753.785
6751.712
6749.775
6747.972
6746.297
6744.745
6743.313
6741.996
6740.79
6739.69
6738.694
6737.796
6736.993
6736.282
6735.658
6735.117
6734.657
6734.274
6733.964
6733.723
6733.549
6733.439
6733.387
6733.393
6733.452
6733.562
6733.72
6733.922
6734.166
6734.449
6734.768
6735.121
6735.505
6735.918
6736.356
6736.818
6737.302
6737.804
6738.323
6738.857
6739.403
6739.959
6740.524
6741.095
6741.671
6742.249
6742.828
6743.406
6743.981
6744.551
6745.116
6745.672
6746.219
6746.755
6747.278
6747.786
6748.279
6748.754
6749.21
6749.645
6750.058
6750.449
6750.815
6751.156
6751.473
6751.767
6752.039
6752.294
6752.539
6752.784
6753.045
6753.34
6753.692
6754.123
6754.664
6755.269
6756.171
7742.648
7697.315
7631.034
7593.781
7564.233
7541.645
7524.15
7510.13
7498.343
7488.202
7479.188
7471.422
7464.761
7459.595
7456.259
7455.189
7456.78
7461.304
7469.09
7480.607
7496.417
7516.484
7540.424
7568.6
7601.088
7637.531
7677.659
7720.936
7766.368
7813.569
7862.331
7911.259
7959.875
8007.356
8052.968
8096.583
8138.038
8176.827
8211.992
8242.544
8267.925
8288.021
8302.95
8312.957
8318.203
8318.945
8315.655
8308.866
8299.108
8286.872
8272.656
8257.01
8240.511
8223.67
8206.973
8190.897
8175.943
8162.471
8150.818
8141.389
8134.406
8129.946
8128.135
8129.147
8133.099
8140.003
8149.811
8162.436
8177.778
8195.718
8216.108
8238.757
8263.41
8289.811
8317.717
8346.815
8376.833
8407.739
8439.356
8471.465
8503.649
8535.727
8567.525
8598.883
8629.6
8659.563
8688.69
8716.907
8744.163
8770.424
8795.692
8819.942
8843.172
8865.387
8886.597
8906.817
8926.068
8944.402
8961.885