/*--------------------------------*- C++ -*----------------------------------*\
| =========                 |                                                 |
| \\      /  F ield         | foam-extend: Open Source CFD                    |
|  \\    /   O peration     | Version:     3.1                                |
|   \\  /    A nd           | Web:         http://www.extend-project.de       |
|    \\/     M anipulation  |                                                 |
\*---------------------------------------------------------------------------*/
FoamFile
{
    version     2.0;
    format      ascii;
    class       volScalarField;
    location    "14";
    object      p;
}
// * * * * * * * * * * * * * * * * * * * * * * * * * * * * * * * * * * * * * //

dimensions      [1 -1 -2 0 0 0 0];

internalField   nonuniform List<scalar> 
119952
(
7883.585
8062.448
8022.121
8050.96
8042.007
8092.206
8061.505
8028.99
8006.176
8007.407
8005.831
7989.482
7926.426
7829.769
7709.854
7494.008
7452.016
7253.711
7175.125
7009.439
6956.455
6863.205
6766.321
6745.465
6716.86
6754.257
6747.84
6806.626
6853.395
7660.378
6824.151
6857.846
6931.361
6921.003
7011.56
6972.642
6990.778
7008.421
7020.715
7073.349
6957.9
6879.293
6773.933
6652.253
6539.562
6440.032
6356.467
6292.366
6333.245
6257.51
6181.304
6133.248
6117.049
6125.873
6171.194
6294.535
6407.645
6602.508
6766.499
6957.667
7124.028
7260.408
7361.002
7441.985
7502.605
7554.299
7594.632
7608.3
7640.525
7665.558
7744.633
7776.507
7805.27
7797.091
7755.943
7722.379
7725.022
7742.672
7748.779
7723.619
7659.623
7551.688
7417.473
7269.829
7141.029
7009.589
6886.406
6763.176
6658.832
6557.756
6474.157
6427.153
6406.793
6420.725
6455.308
6512.261
6631.216
6759.482
6881.503
6971.759
7045.019
7097.825
7136.084
7160.357
7174.363
7178.144
7172.319
7168.559
7165.64
7159.976
7154.142
7149.387
7144.817
7150.289
7153.305
7150.603
7147.18
7131.231
7116.624
7083.326
7036.743
6946.606
6833.224
6700.419
6557.972
6427.115
6325.021
6253.549
6209.909
6188.633
6188.936
6205.158
6231.873
6266.345
6306.757
6350.284
6394.416
6440.077
6495.788
6546.115
6586.831
6632.152
6669.179
6706.611
6735.743
6769.353
6832.088
6857.411
6889.14
6906.919
6924.302
6943.554
6957.417
6962.942
6960.274
6951.852
6948.184
6948.316
6948.449
6945.846
6955.379
6978.618
6998.77
7007.894
7020.027
7018.12
7010.08
6993.492
6981.932
6971.699
6964.661
6958.234
6951.56
6953.651
6958.746
6965.568
6976.022
6974.096
6983.256
6991.542
6999.4
7006.982
7015.858
7023.319
7030.841
7032.984
7047.728
7055.047
7063.817
7074.956
7085.508
7095.468
7101.962
7109.027
7118.059
7128.535
7132.05
7168.887
7161.604
7168.966
7175.394
7185.521
7191.057
7204.467
7215.253
7227.711
7238.677
7248.479
7257.676
7265.453
7272.41
7279.146
7286.78
7281.392
7284.03
7277.357
7274.525
7253.737
7247.181
7234.303
7235.858
7236.486
7239.791
7245.596
7249.451
7251.004
7251.704
7251.71
7251.15
7251.795
7252.425
7257.037
7261.99
7268.987
7275.775
7280.996
7286.102
7290.194
7295.207
7300.228
7302.914
7314.946
7320.769
7321.01
7320.27
7320.225
7321.153
7329.005
7335.87
7341.692
7346.276
7345.077
7351.224
7351.994
7347.729
7357.56
7356.184
7350.636
7351.021
7349.672
7347.118
7343.711
7341.163
7339.042
7334.084
7338.16
7324.889
7271.918
7273.2
7262.388
7247.673
7235.473
7232.417
7231.606
7225.556
7221.529
7216.819
7210.157
7202.337
7196.868
7191.752
7187.174
7182.918
7178.891
7173.972
7169.162
7165.791
7163.248
7159.935
7158.036
7156.649
7154.485
7151.277
7147.579
7143.972
7141.247
7140.062
7140.339
7141.816
7144.137
7148.351
7150.534
7151.845
7155.316
7158.391
7162.142
7166.797
7171.609
7176.848
7182.327
7188.067
7192.466
7197.478
7202.117
7206.935
7211.425
7215.884
7219.805
7221.3
7221.999
7221.521
7218.151
7213.167
7207.412
7211.254
7224.732
7233.394
7241.227
7247.4
7253.368
7257.528
7262.307
7265.942
7267.104
7268.057
7268.485
7268.827
7267.865
7266.766
7265.807
7265.097
7264.034
7263.543
7262.82
7261.713
7258.123
7254.018
7249.305
7245.872
7238.174
7222.375
7192.808
7190.112
7215.804
7227.886
7228.986
7229.481
7230.087
7230.397
7231.622
7229.8
7226.716
7225.08
7220.625
7215.883
7210.614
7205.104
7195.38
7194.437
7213.262
7235.904
7243.937
7245.164
7250.016
7253.066
7255.397
7257.827
7261.411
7265.984
7275.403
7270.569
7281.099
7285.053
7290.71
7297.146
7303.651
7310.35
7317.151
7324.603
7331.097
7336.839
7343.697
7349.072
7353.845
7357.411
7358.768
7362.757
7372.746
7385.669
7398.475
7406.799
7413.768
7419.246
7412.357
7396.066
7384.14
5910.264
5949.51
6048.015
6108.004
6201.006
6289.267
6394.402
6453.669
6532.873
6510.62
6480.59
6523.047
6501.272
6489.784
6486.649
6477.286
6478.314
6477.609
6320.928
6378.427
6366.249
6361.084
6375.041
6369.3
6364.398
6370.549
6377.58
6379.078
6397.906
6396.184
6409.529
6424.521
6443.524
6467.027
6491.815
6518.322
6548.201
6572.099
6608.146
6646.871
6668.464
6697.652
6712.845
6719.466
6713.343
6704.829
6685.638
6652.117
6555.012
6431.42
6321.14
6215.826
6123.887
6053.211
6011.092
5999.272
5879.911
5838.594
5796.256
5771.839
5785.016
5837.193
5919.55
6064.221
6267.149
6460.668
6644.684
6813.085
6943.342
7039.776
7109.456
7157.273
7192.16
7221.69
7245.944
7272.184
7308.982
7340.229
7368.002
7394.9
7408.634
7397.396
7364.645
7420.579
7479.817
7461.755
7384.804
7265.421
7131.471
6999.482
6871.863
6746.931
6622.124
6499.128
6380.12
6274.114
6180.098
6105.134
6053.594
6033.194
6049.838
6102.875
6189.336
6308.702
6454.386
6581.879
6686.949
6758.49
6801.29
6831.272
6851.45
6863.721
6867.347
6864.563
6862.117
6857.641
6850.882
6842.246
6833.798
6829.126
6826.741
6827.26
6828.067
6826.063
6816.715
6789.886
6725.897
6629.915
6508.789
6370.487
6235.234
6109.765
6004.512
5924.12
5870.47
5843.763
5838.754
5853.116
5881.612
5915.462
5956.214
5999.3
6042.68
6090.538
6140.814
6191.124
6241.244
6287.99
6330.135
6369.67
6412.016
6459.573
6506.847
6541.383
6564.523
6577.287
6594.841
6617.444
6640.388
6656.303
6660.59
6657.208
6643.566
6635.74
6635.728
6630.49
6629.126
6639.677
6662.999
6687.081
6701.141
6706.14
6702.504
6693.942
6681.774
6668.776
6658.086
6651.112
6645.715
6643.822
6646.15
6652.626
6661.559
6670.608
6676.944
6681.219
6686.736
6693.216
6700.568
6708.362
6715.792
6723.035
6730.129
6739.764
6750.64
6761.132
6772.841
6783.435
6792.581
6797.091
6793.562
6806.788
6832.5
6817.123
6880.917
6883.808
6889.455
6898.997
6906.884
6918.192
6930.795
6942.865
6954.417
6965.203
6974.806
6983.881
6991.363
6997.476
7002.827
7005.559
7005.052
7001.436
6990.625
6972.042
6958.239
6947.205
6947.198
6952.729
6961.09
6967.804
6972.004
6974.763
6975.951
6975.5
6974.349
6974.181
6975.717
6978.146
6981.985
6988.851
6996.019
7002.894
7008.6
7011.813
7015.559
7019.753
7025.34
7032.162
7040.545
7046.716
7047.373
7047.318
7047.604
7048.962
7053.275
7059.019
7065.192
7066.159
7072.352
7076.775
7079.625
7080.765
7082.37
7082.039
7079.605
7076.647
7074.133
7071.05
7067.814
7065.469
7063.179
7059.869
7053.165
7043.451
6967.611
6963.045
6950.481
6935.294
6925.881
6924.926
6923.894
6920.498
6914.81
6907.558
6900.033
6893.167
6887.4
6882.969
6878.762
6874.092
6870.037
6865.978
6861.028
6857.855
6854.855
6852.532
6851.278
6849.71
6847.392
6843.935
6839.772
6836.089
6833.417
6832.534
6832.739
6834.631
6838.072
6840.603
6843.522
6846.287
6849.199
6852.387
6856.154
6860.798
6865.792
6870.873
6876.372
6882.13
6887.522
6892.457
6897.257
6901.916
6906.117
6910.192
6913.305
6915.742
6916.362
6913.966
6909.407
6899.785
6897.064
6906.703
6918.101
6928.566
6936.196
6942.091
6947.63
6952.285
6956.212
6959.006
6960.563
6961.679
6962.172
6961.921
6960.952
6959.275
6957.585
6958.645
6960.374
6959.861
6957.573
6953.607
6948.255
6944.938
6941.095
6937.326
6930.787
6917.96
6903.904
6896.467
6902.075
6913.631
6917.328
6916.656
6918.168
6920.888
6921.9
6920.11
6917.703
6915.779
6912.308
6908.145
6904.243
6900.514
6900.238
6902.906
6911.937
6923.464
6932.05
6937.204
6940.565
6943.247
6947.736
6952.569
6956.436
6960.068
6964.405
6969.172
6974.255
6979.81
6985.786
6992.304
6999.045
7005.682
7012.331
7019.123
7025.658
7031.989
7037.995
7043.521
7048.216
7052.315
7056.305
7061.732
7069.919
7079.72
7088.641
7095.723
7100.811
7103.262
7101.984
7097.906
7096.109
3993.514
4075.445
4152.651
4180.447
4344.155
4448.073
4558.366
4656.676
4646.582
4532.807
5021.291
5053.768
5220.798
5310.314
5397.801
5546.069
5655.327
5830.019
6030.513
6177.854
6310.218
6383.206
6410.08
6387.204
6315.814
6224.109
6094.946
5983.759
5904.055
5829.855
5739.966
5691.058
5668.821
5653.785
5643.363
5636.607
5637.991
5625.879
5640.342
5691.14
5768.957
5850.905
5943.436
6037.332
6117.863
6179.848
6215.973
6218.941
6236.439
6250.015
6240.303
6222.215
6205.119
6186.438
6170.482
6154.231
6065.212
6060.792
6059.469
6054.957
6055.461
6052.196
6044.698
6042.621
6045.965
6046.841
6058.915
6085.549
6108.959
6128.928
6148.213
6172.206
6200.837
6228.813
6253.304
6277.631
6304.371
6332.565
6361.232
6386.949
6403.44
6407.522
6402.943
6360.201
6328.962
6248.995
6131.401
6015.952
5914.06
5824.936
5755.661
5711.142
5681.941
5648.447
5615.834
5574.403
5525.172
5492.294
5489.789
5524.862
5610.871
5754.721
5948.612
6162.917
6354.001
6528.119
6660.385
6751.813
6812.366
6849.025
6873.1
6898.038
6925.14
6949.994
6975.801
7004.287
7044.191
7065.527
7066.2
7084.675
7083.1
7132.674
7204.155
7193.904
7103.51
6969.604
6831.587
6701.602
6576.011
6450.246
6324.415
6198.92
6079.915
5970.346
5872.339
5792.412
5737.367
5712.406
5726.308
5773.907
5863.254
5994.996
6155.893
6310.664
6435.558
6519.675
6563.278
6586.445
6602.601
6615.641
6622.139
6622.276
6619.861
6615.544
6608.646
6598.34
6587.716
6576.451
6568.295
6567.21
6566.86
6558.192
6546.502
6494.424
6399.324
6278.736
6145.137
6009.846
5881.301
5766.579
5676.001
5610.331
5568.856
5555.755
5562.644
5584.171
5619.333
5659.056
5701.761
5746.366
5791.367
5838.642
5887.938
5938.486
5989.299
6036.69
6077.83
6112.907
6145.631
6185.061
6233.492
6273.711
6306.2
6316.95
6331.83
6353.842
6375.21
6393.021
6401.926
6401.88
6394.717
6390.562
6387.063
6382.998
6377.468
6382.909
6399.638
6420.002
6434
6442.123
6442.925
6435.825
6423.312
6409.677
6398.616
6392.176
6386.956
6385.407
6387.249
6388.897
6404.715
6423.19
6431.71
6434.514
6438.481
6444.53
6450.898
6458.37
6465.902
6474.551
6484.494
6495.845
6507.43
6516.886
6526.036
6534.865
6535.935
6546.841
6568.974
6583.315
6585.594
6576.607
6570.132
6569.707
6581.186
6596.458
6599.261
6611.048
6629.993
6642.757
6652.005
6662.174
6672.561
6682.156
6689.549
6695.212
6700.005
6701.358
6697.964
6687.031
6668.033
6649.033
6632.867
6637.068
6641.423
6647.248
6658.357
6664.462
6667.267
6670.633
6671.882
6669.756
6667.716
6668.974
6671.02
6673.492
6677.638
6685.491
6689.19
6700.918
6709.985
6709.042
6713.007
6715.367
6720.32
6729.049
6737.452
6744.179
6746.415
6743.354
6741.181
6740.859
6743.086
6749.486
6756.249
6761.989
6766.805
6770.689
6773.475
6774.974
6775.311
6774.583
6772.814
6770.222
6767.196
6763.956
6760.708
6758.031
6755.132
6751.156
6745.939
6739.759
6734.222
6722.849
6707.231
6691.268
6680.031
6677.21
6676.537
6674.271
6669.535
6662.886
6655.71
6648.239
6642.18
6637.314
6632.708
6629.068
6625.322
6621.759
6618.778
6614.47
6610.201
6607.13
6605.916
6604.531
6601.487
6597.729
6593.41
6589.267
6586.287
6584.909
6585.087
6586.875
6590.05
6593.555
6596.302
6598.997
6601.995
6605.33
6609.331
6614.165
6619.41
6624.899
6630.663
6636.57
6642.248
6647.623
6652.813
6657.504
6661.488
6665.108
6667.621
6669.491
6669.056
6667.195
6664.827
6661.534
6662.301
6667.559
6677.274
6685.115
6691.758
6697.52
6702.576
6706.995
6710.735
6713.611
6715.408
6716.394
6716.739
6716.339
6715.788
6714.799
6714.195
6716.037
6714.181
6710.728
6709.116
6704.727
6698.267
6696.078
6693.88
6688.281
6678.162
6669.647
6662.324
6662.885
6665.819
6672.539
6676.524
6677.008
6676.333
6674.393
6673.229
6671.865
6669.756
6667.391
6664.902
6662.192
6659.837
6658.381
6658.517
6662.523
6671.554
6680.542
6685.705
6689.193
6692.746
6696.857
6700.675
6704.034
6707.723
6712.176
6717.425
6723.003
6728.728
6734.588
6740.751
6747.212
6753.835
6760.544
6767.406
6774.401
6781.241
6787.379
6793.063
6798.64
6803.68
6808.275
6813.64
6819.593
6826.963
6835.323
6842.924
6848.225
6852.149
6853.699
6853.83
6853.675
6853.146
4129.658
4132.998
3974.685
4031.186
3789.855
3590.327
3426.123
3376.156
3322.457
3288.213
3297.23
3334.167
3374.003
3504.412
3664.908
3830.425
3986.252
4131.053
4264.09
4388.494
4535.806
4674.962
4750.295
4810.479
4920.556
5023.605
5133.949
5239.708
5392.191
5552.52
5732.796
5850.68
5970.309
6032.22
6047.932
6008.942
5923.523
5803.101
5683.199
5570.595
5470.47
5383.003
5323.689
5292.476
5268.791
5256.495
5250.479
5263.233
5292.887
5306.54
5336.246
5394.819
5474.373
5560.289
5653.753
5752.23
5836.869
5901.374
5943.259
5956.47
5959.453
5955.505
5937.31
5907.076
5875.762
5847.472
5830.041
5834.349
5838.655
5835.357
5825.499
5822.11
5814.066
5798.797
5786.975
5781.86
5781.812
5778.953
5793.164
5827.17
5863.53
5896.431
5926.06
5953.519
5978.342
6000.724
6023.19
6046.34
6071.992
6098.196
6120.837
6151.602
6181.236
6187.761
6190.697
6158.58
6073.393
5948.82
5819.671
5709.029
5618.445
5549.476
5491.235
5445.16
5407.535
5384.169
5354.713
5311.742
5258.939
5218.169
5211.268
5240.521
5292.305
5419.699
5618.416
5838.73
6061.753
6251.525
6386.184
6465.223
6508.396
6528.907
6535.29
6550.094
6577.972
6608.578
6640.589
6672.761
6720.408
6780.702
6801.773
6802.759
6801.498
6821.449
6875.687
6876.699
6774.638
6642.274
6505.506
6374.19
6248.294
6123.231
5998.725
5874.226
5755.185
5642.15
5539.896
5454.363
5392.689
5360.036
5367.034
5415.392
5507.279
5650.091
5832.501
6018.592
6169.466
6274.222
6327.367
6347.356
6359.027
6370.683
6377.551
6380.067
6377.856
6374.34
6368.725
6357.665
6343.859
6328.769
6313.318
6302.507
6298.55
6277.705
6238.392
6169.071
6056.649
5925.483
5789.2
5657.696
5537.802
5435.61
5354.21
5300.623
5269.681
5263.384
5280.409
5312.45
5353.632
5399.686
5445.422
5489.099
5533.668
5581.845
5632.801
5686.344
5739.545
5789.022
5831.851
5865.507
5893.837
5929.97
5983.578
6029.118
6058.3
6068.919
6082.854
6099.023
6116.324
6132.65
6144.153
6149.944
6149.747
6149.343
6144.732
6139.616
6133.555
6130.802
6143.222
6162.267
6175.892
6182.722
6182.937
6177.996
6170.047
6159.264
6149.406
6141.112
6135.629
6132.733
6135.399
6144.179
6154.034
6165.192
6177.469
6185.027
6190.649
6195.812
6202.317
6207.589
6213.349
6217.135
6227.2
6243.667
6252.121
6259.048
6273.369
6292.501
6311.521
6327.726
6344.085
6334.768
6318.632
6330.295
6323.979
6310.736
6326.811
6345.886
6361.376
6380.2
6384.657
6392.074
6409.293
6421.878
6429.471
6437.733
6445.801
6451.773
6455.45
6455.702
6450.861
6439.658
6422.665
6405.723
6394.349
6395.942
6398.702
6404.746
6413.777
6418.934
6423.009
6425.614
6426.613
6425.371
6421.768
6421.998
6423.729
6425.183
6430.899
6438.302
6449.578
6457.834
6463.295
6467.124
6470.4
6472.715
6476.72
6484.112
6493.661
6500.583
6502.497
6501.555
6499.042
6496.799
6497.218
6501.76
6508.512
6514.74
6519.916
6523.946
6526.792
6528.531
6529.239
6528.808
6527.242
6524.858
6521.98
6518.661
6515.391
6512.187
6508.041
6504.194
6498.667
6491.796
6483.063
6472.997
6460.895
6448.804
6440.875
6437.531
6435.222
6431.429
6424.66
6416.837
6408.14
6400.31
6394.365
6389.125
6383.127
6376.748
6374.995
6374.499
6373.376
6369.999
6366.507
6364.405
6361.041
6357.929
6355.001
6351.201
6347.047
6343.353
6340.928
6340.079
6341.363
6342.081
6343.129
6345.969
6349.324
6352.744
6355.983
6359.263
6363.017
6367.652
6372.995
6378.771
6384.75
6390.816
6396.674
6402.392
6407.806
6412.58
6416.504
6419.404
6421.194
6421.453
6419.804
6422.292
6423.411
6421.29
6420.076
6422.002
6429.078
6437.701
6446.936
6452.989
6457.634
6461.422
6464.525
6467.317
6469.168
6470.592
6471.611
6471.73
6470.043
6471.562
6476.666
6476.873
6469.557
6461.023
6458.641
6459.17
6459.723
6456.591
6450.977
6445.622
6436.431
6429.233
6425.599
6424.372
6423.136
6423.554
6425.313
6427.071
6425.594
6423.306
6422.484
6422.51
6421.368
6420.019
6418.464
6416.865
6415.467
6414.853
6415.867
6418.9
6423.606
6429.313
6434.732
6439.619
6444.337
6449.399
6453.468
6456.327
6460.861
6466.213
6471.689
6477.254
6482.949
6488.897
6495.027
6501.4
6508.075
6514.964
6521.864
6528.667
6535.221
6541.559
6547.686
6553.606
6559.261
6564.753
6570.317
6576.173
6582.297
6589.021
6595.587
6600.949
6605.12
6608.024
6609.799
6610.082
6611.195
3994.489
4051.179
4088.165
4059.522
4076.64
4040.848
4038.317
4019.15
3999.629
3985.817
3982.535
3917.28
3831.56
3736.175
3555.131
3324.509
3066.065
2936.604
2851.976
2820.781
2819.4
2852.909
2927.618
3047.973
3194.046
3352.384
3527.343
3695.722
3849.711
3994.45
4122.416
4241.851
4340.067
4422.735
4495.976
4585.416
4702.392
4782.725
4875.511
4992.519
5146.653
5311.898
5463.243
5568.333
5613.678
5607.107
5542.794
5436.941
5323.418
5204.137
5093.312
4995.871
4925.6
4885.451
4859.981
4863.471
4877.69
4886.991
4927.088
4978.816
5014.341
5063.684
5142.003
5236.462
5338.431
5442.063
5543.234
5626.773
5688.714
5733.875
5753.588
5751.14
5742.892
5706.856
5651.188
5599.185
5566.799
5553.922
5569.047
5579.866
5570.607
5546.72
5529.207
5518.551
5510.293
5502.369
5499.426
5502.51
5507.784
5528.366
5571.767
5612.581
5653.96
5689.269
5717.788
5742.555
5765.336
5787.077
5808.579
5830.856
5855.611
5879.23
5907.858
5943.494
5973.407
5977.586
5923.807
5805.264
5671.277
5540.747
5433.293
5352.018
5291.003
5233.016
5179.057
5129.738
5100.253
5076.946
5035.205
4985.344
4940.004
4926.574
4944.741
4986.552
5103.703
5306.146
5533.638
5770.913
5973.514
6118.267
6193.64
6206.297
6206.887
6196.577
6193.923
6216.93
6247.3
6278.093
6312.648
6358.109
6427.197
6465.401
6477.07
6479.665
6476.966
6512.747
6498.135
6400.795
6270.775
6141.136
6024.978
5909.847
5787.153
5661.1
5537.375
5418.34
5303.688
5197.092
5108.948
5044.969
5010.44
5009.811
5047.853
5134.819
5289.317
5497.231
5708.759
5879.803
6000.283
6056.655
6077.127
6094.403
6113.551
6129.425
6137.033
6138.88
6137.852
6132.371
6121.519
6106.642
6088.111
6067.203
6046.043
6026.046
5986.953
5922.921
5831.715
5712.315
5576.516
5443.244
5317.562
5206.02
5117.629
5046.565
5002.064
4981.449
4983.54
5008.201
5049.152
5097.144
5146.8
5194.495
5237.346
5278.077
5324.327
5378.273
5435.096
5491.565
5544.074
5588.281
5615.381
5626.543
5645.168
5695.275
5753.149
5789.555
5806.576
5823.314
5837.025
5851.532
5868.426
5881.873
5889.853
5897.996
5895.962
5890.367
5888.728
5884.166
5877.28
5880.127
5891.527
5901.364
5907.882
5909.098
5906.533
5901.114
5893.666
5889.515
5886.915
5884.599
5882.654
5886.517
5900.671
5901.555
5892.55
5901.657
5918.502
5931.577
5939.339
5945.296
5952.971
5958.957
5967.261
5978.134
5989.777
6004.548
6018.267
6031.434
6046.347
6069.256
6078.657
6075.482
6070.616
6072.156
6081.405
6080.051
6076.581
6084.586
6092.725
6105.057
6120.42
6135.948
6153.982
6171.035
6177.424
6187.702
6198.358
6202.61
6207.107
6211.193
6209.792
6203.918
6194.179
6181.71
6169.577
6161.224
6162.43
6161.032
6164.376
6170.257
6174.766
6179.371
6183.178
6184.152
6181.492
6175.834
6175.38
6178.336
6180.006
6184.924
6193.221
6211.677
6210.682
6210.681
6224.917
6228.803
6231.947
6235.451
6240.783
6249.584
6255.794
6258.675
6261.036
6261.524
6260.492
6259.634
6259.706
6263.262
6268.266
6272.976
6276.969
6280.067
6282.09
6282.985
6282.717
6281.339
6279.04
6276.134
6272.672
6269.016
6265.881
6262.867
6258.617
6253.096
6247.194
6239.728
6229.83
6219.209
6209.226
6201.128
6194.678
6189.828
6185.349
6178.493
6170.75
6161.089
6151.748
6145.644
6140.548
6135.416
6131.698
6126.423
6122.509
6124.426
6125.545
6121.893
6119.014
6115.926
6112.186
6108.234
6104.284
6100.382
6097.036
6094.639
6093.162
6092.681
6093.783
6095.609
6098.514
6101.851
6105.079
6108.12
6111.291
6115.282
6120.243
6125.95
6132.152
6138.607
6145.189
6151.734
6158.016
6163.707
6168.674
6172.608
6175.386
6177.157
6177.857
6177.068
6178.668
6177.887
6176.539
6178.015
6180.75
6187.5
6193.593
6199.869
6207.027
6213.983
6218.541
6221.152
6223.082
6224.914
6226.333
6227.111
6228.313
6231.291
6232.984
6233.003
6226.86
6219.16
6217.458
6217.24
6215.455
6214.184
6209.635
6203.542
6199.61
6192.004
6185.877
6183.036
6182.186
6180.319
6179.303
6179.757
6179.512
6177.919
6175.93
6174.086
6173.067
6172.657
6171.836
6170.718
6169.418
6168.899
6169.354
6170.662
6173.204
6177.31
6182.495
6187.857
6192.624
6197.15
6201.367
6205.157
6209.081
6213.976
6219.366
6225.023
6231.063
6237.11
6243.179
6249.387
6255.868
6262.516
6269.492
6276.626
6283.703
6290.462
6296.831
6302.907
6308.938
6314.838
6320.589
6326.272
6332.056
6338.061
6344.316
6350.442
6355.739
6359.879
6363.205
6365.589
6367.226
6369.459
3595.574
3615.173
3722.431
3579.534
3578.763
3570.46
3592.061
3618.692
3648.71
3673.776
3723.827
3775.437
3793.667
3799.569
3806.431
3741.873
3735.062
3719.012
3707.693
3662.55
3544.089
3438.488
3366.145
3192.634
2993.55
2803.09
2623.164
2509.443
2466.152
2455.019
2489.446
2558.815
2652.464
2774.509
2918.28
3072.968
3235.489
3405.867
3570.19
3718.874
3847.697
3962.497
4061.968
4136.718
4203.492
4287.357
4390.945
4469.192
4542.535
4631.824
4748.506
4884.413
5025.411
5121.259
5130.308
5060.852
4949.875
4796.497
4649.229
4540.806
4447.916
4369.15
4329.074
4332.784
4363.669
4406.54
4442.309
4489.979
4585.548
4675.372
4736.141
4814.713
4906.007
5013.82
5140.499
5249.098
5348.037
5437.646
5503.198
5542.427
5556.047
5556.289
5545.924
5500.266
5433.674
5349.494
5286.785
5282.919
5289.784
5286.395
5270.551
5246.022
5224.313
5203.962
5189.505
5183.197
5185.068
5196.608
5216.725
5249.055
5293.464
5339.1
5387.16
5428.311
5461.136
5490.302
5516.168
5539.862
5563.054
5586.581
5610.782
5636.162
5664.938
5694.177
5720.41
5730.093
5669.634
5552.4
5423.766
5293.579
5180.819
5096.423
5029.682
4971.266
4915.292
4871.861
4842.006
4820.797
4787.069
4740.843
4702.377
4685.447
4684.868
4717.444
4819.119
5006.687
5234.368
5466.432
5667.427
5813.623
5908.43
5934.493
5913.987
5872.149
5844.926
5848.341
5861.457
5872.286
5904.011
5950.395
6017.187
6087.397
6079.188
6116.414
6100.739
6107.251
6082.236
5999.669
5887.971
5775.548
5670.699
5558.786
5437.677
5315.279
5194.175
5072.939
4957.566
4854.375
4770.41
4711.301
4680.02
4680.357
4714.532
4789.603
4942.672
5155.55
5372.438
5540.936
5653.474
5724.577
5754.985
5795.147
5836.228
5867.801
5886.836
5895.797
5899.742
5896.853
5886.684
5871.596
5852.785
5829.859
5801.334
5770.559
5713.895
5626.924
5516.45
5385.16
5247.762
5120.229
5004.344
4901.52
4822.119
4759.702
4719.64
4705.239
4714.184
4745.806
4792.338
4846.204
4899.072
4946.234
4985.596
5020.819
5063.612
5121.819
5185.983
5250.269
5308.263
5361.577
5385.968
5364.171
5330.105
5385.782
5461.809
5502.897
5531.585
5553.448
5571.093
5588.899
5608.448
5625.244
5638.011
5645.56
5647.737
5645.681
5643.944
5642.033
5627.755
5621.258
5624.317
5627.736
5629.222
5630.048
5633.351
5635.745
5635.291
5637.8
5642.046
5640.328
5636.081
5637.18
5644.293
5642.351
5635.715
5641.203
5656.644
5671.98
5682.557
5688.238
5697.351
5711.812
5726.412
5733.431
5739.758
5754.367
5768.185
5777.892
5787.393
5800.297
5806.103
5807.343
5812.878
5827.292
5845.043
5860.183
5857.992
5854.548
5859.717
5864.47
5874.381
5891.412
5904.418
5916.457
5931.554
5947.138
5954.537
5958.783
5967.336
5968.385
5963.444
5957.878
5950.185
5939.95
5929.951
5923.889
5921.366
5921.915
5921.646
5924.432
5929.36
5931.685
5934.344
5939.147
5940.161
5932.099
5926.748
5926.298
5934.108
5944.524
5950.188
5958.658
5966.379
5970.716
5974.79
5980.862
5988.877
5995.178
5999.425
6004.716
6009.795
6013.396
6015.387
6016.986
6017.133
6016.602
6016.685
6018.087
6021.698
6025.843
6029.684
6032.865
6035.105
6036.377
6036.342
6034.918
6032.427
6029.404
6026.153
6022.762
6019.42
6015.756
6011.314
6005.699
5999.642
5992.897
5984.353
5974.698
5965.244
5957.179
5951.47
5946.181
5940.072
5932.722
5924.079
5914.309
5903.672
5896.636
5892.296
5891.346
5891.38
5886.088
5873.145
5867.595
5876.13
5878.226
5872.136
5868.3
5864.416
5860.542
5856.721
5853.067
5849.998
5847.72
5846.244
5846.092
5847.14
5849.074
5851.29
5854.005
5857.521
5860.823
5864.341
5868.531
5873.652
5879.63
5886.084
5892.789
5899.604
5906.344
5912.745
5918.866
5924.261
5928.262
5931.163
5933.176
5934.602
5934.523
5934.707
5934.21
5934.375
5935.878
5937.261
5941.76
5948.52
5953.241
5959.656
5965.434
5969.804
5973.003
5975.866
5978.231
5980.32
5983.53
5985.405
5988.545
5989.169
5985.449
5979.296
5974.239
5974.403
5973.062
5970.35
5968.149
5963.705
5958.363
5953.717
5947.889
5943.109
5940.464
5940.082
5937.779
5935.165
5933.699
5932.295
5930.486
5928.434
5926.162
5925.005
5924.612
5923.358
5922.263
5921.986
5922.048
5922.499
5924.053
5926.727
5930.208
5934.312
5938.741
5943.302
5947.692
5952.363
5956.845
5962.085
5967.176
5971.658
5977.291
5983.521
5990.176
5996.833
6003.474
6010.095
6016.84
6023.862
6031.115
6038.301
6044.831
6051.492
6058.196
6064.691
6070.948
6076.897
6082.488
6088.218
6094.075
6099.985
6105.381
6110.18
6114.267
6117.748
6120.913
6123.826
6126.822
3507.106
3474.972
3456.683
3429.602
3390.332
3354.85
3319.603
3295.385
3286.406
3294.924
3254.989
3284.665
3321.202
3362.504
3404.009
3440.857
3461.428
3480.07
3495.113
3506.774
3529.186
3507.402
3498.388
3508.953
3468.262
3287.305
3148.989
2974.433
2738.822
2512.592
2327.457
2195.764
2114.138
2082.302
2086.163
2122.761
2208.561
2319.643
2461.064
2625.33
2796.459
2960.965
3129.111
3295.844
3445.182
3570.081
3676.616
3773.65
3845.124
3902.161
3978.097
4068.664
4135.584
4194.535
4261.974
4350.14
4448.131
4522.851
4544.365
4479.894
4337.1
4160.496
3960.114
3783.212
3644.363
3547.815
3528.099
3562.173
3636.489
3735.741
3837.953
3936.616
4037.336
4171.894
4289.712
4398.268
4519.898
4648.819
4815.899
4960.805
5057.166
5157.059
5263.258
5335.094
5370.604
5381.463
5381.914
5365.367
5316.273
5243.331
5170.284
5089.213
5035.799
5003.37
4974.957
4938.812
4900.774
4868.318
4843.194
4828.488
4826.373
4837.098
4860.147
4896.016
4941.864
4995.033
5048.446
5102.573
5147.552
5186.049
5217.072
5248.093
5277.295
5305.362
5332.029
5358.542
5387.398
5414.619
5438.61
5459.298
5460.464
5413.647
5309.172
5186.004
5062.577
4943.987
4851.325
4787.93
4735.993
4684.014
4637.237
4600.53
4574.636
4551.128
4521.938
4498.829
4484.356
4477.117
4495.727
4578.578
4745.021
4952.978
5165.995
5351.19
5483.885
5577.222
5625.361
5625.22
5583.576
5518.552
5469.474
5435.802
5412.706
5438.126
5486.62
5546.109
5633.322
5673.429
5671.524
5690.475
5686.385
5662.053
5594.269
5500.363
5403.306
5308.782
5202.608
5087.04
4969.942
4851.069
4733.797
4624.179
4528.498
4454.093
4406.615
4388.128
4397.085
4430.344
4496.202
4634.893
4827.655
5011.248
5147.111
5235.633
5287.719
5338.232
5437.807
5523.873
5588.774
5630.585
5656.056
5664.986
5662.713
5652.361
5636.522
5617.278
5592.905
5561.486
5518.693
5451.035
5345.547
5219.45
5079.153
4944.422
4822.926
4715.099
4620.527
4544.626
4487.63
4449.831
4439.578
4454.958
4492.504
4544.095
4603.787
4656.916
4702.633
4737.604
4763.455
4798.478
4862.413
4933.998
5005.004
5068.25
5117.907
5144.365
5113.468
5086.268
5107.143
5193.192
5238.896
5269.216
5285.6
5304.704
5331.559
5356.533
5373.615
5384.139
5394.222
5400.921
5402.06
5408.471
5405.324
5381.083
5364.156
5354.881
5350.011
5349.61
5351.34
5357.61
5367.199
5376.899
5383.642
5382.167
5378.117
5377.754
5379.798
5382.523
5382.088
5381.169
5384.278
5392.677
5405.477
5417.574
5429.219
5441.982
5457.341
5468.767
5476.169
5484.921
5496.8
5508.113
5518.36
5528.612
5538.306
5548.993
5559.255
5567.879
5582.128
5599.144
5614.031
5616.47
5614.947
5622.677
5630.996
5639.109
5650.245
5656.754
5667.417
5679.605
5693.393
5708.868
5717.215
5719.569
5718.186
5716.861
5715.287
5710.238
5697.691
5687.46
5681.009
5677.461
5676.218
5675.873
5678.924
5682.684
5687.716
5688.177
5692.924
5702.318
5702.936
5697.061
5693.267
5694.364
5700.858
5711.243
5719.954
5723.167
5728.795
5737.237
5741.901
5745.271
5752.707
5757.896
5760.774
5763.883
5766.333
5768.061
5770.214
5771.388
5769.734
5769.658
5771.879
5775.149
5778.861
5782.622
5786.086
5788.747
5790.257
5790.235
5788.41
5785.525
5782.394
5779.268
5776.125
5772.993
5769.582
5765.328
5760.019
5754.08
5747.334
5739.555
5731.175
5721.745
5714.438
5708.461
5701.257
5693.842
5685.995
5676.454
5665.923
5655.569
5649.746
5648.405
5648.215
5649.308
5648.542
5632.733
5615.682
5616.183
5623.419
5627.375
5624.943
5618.387
5612.939
5608.849
5605.451
5602.571
5600.272
5598.527
5597.781
5598.438
5600.214
5602.634
5605.523
5609.057
5612.964
5617.124
5621.792
5627.384
5633.704
5640.382
5647.252
5654.228
5661.224
5667.97
5674.299
5679.867
5684.249
5687.359
5689.279
5689.824
5690.069
5691.203
5691.194
5691.349
5693.019
5694.845
5697.287
5704.843
5711.772
5717.315
5720.764
5722.899
5726.21
5731.345
5734.965
5735.767
5737.843
5740.579
5742.489
5742.417
5739.933
5736.197
5732.553
5730.468
5728.152
5725.176
5722.177
5718.129
5713.458
5708.871
5704.052
5699.796
5696.788
5694.672
5691.844
5689.136
5687.006
5685.051
5683.012
5680.992
5679.244
5678.435
5677.492
5675.431
5674.159
5674.067
5674.447
5675.282
5676.696
5678.921
5682.005
5685.929
5690.818
5695.478
5699.55
5704.051
5709.143
5714.683
5719.984
5724.915
5730.523
5737.086
5743.739
5750.499
5757.52
5763.861
5770.606
5778.045
5786.033
5793.023
5799.173
5805.818
5812.848
5819.762
5826.461
5832.307
5837.979
5844.061
5850.04
5855.731
5860.948
5865.576
5869.733
5873.472
5877.285
5881.126
5883.783
3264.833
3228.71
3137.744
3103.37
3055.195
3009.894
2969.73
2945.539
2948.433
2964.935
2992.864
3039.709
3100.598
3157.262
3200.343
3220.897
3225.755
3239.948
3258.357
3274.599
3277.063
3283.888
3276.309
3259.746
3118.269
2940.704
2766.46
2551.734
2310.803
2093.257
1918.115
1810.618
1746.985
1701.229
1722.981
1785.64
1884.673
2009.856
2162.017
2334.367
2513.273
2688.658
2857.601
3017
3161.032
3285.737
3384.642
3474.556
3546.271
3593.755
3649.769
3732.726
3800.077
3850.928
3890.726
3944.364
3992.514
3971.165
3870.054
3715.646
3493.012
3242.456
3007.485
2803.779
2671.597
2631.649
2670.492
2750.811
2888.247
3046.591
3208.397
3362.48
3500.797
3647.949
3818.779
3996.23
4174.41
4368.852
4572.754
4753.095
4901.794
5020.122
5126.739
5193.107
5212.571
5214.573
5205.36
5180.656
5136.065
5061.193
4971.822
4876.543
4789.354
4712.993
4646.773
4582.031
4523.694
4480.934