/*--------------------------------*- C++ -*----------------------------------*\
| =========                 |                                                 |
| \\      /  F ield         | foam-extend: Open Source CFD                    |
|  \\    /   O peration     | Version:     3.1                                |
|   \\  /    A nd           | Web:         http://www.extend-project.de       |
|    \\/     M anipulation  |                                                 |
\*---------------------------------------------------------------------------*/
FoamFile
{
    version     2.0;
    format      ascii;
    class       surfaceScalarField;
    location    "14";
    object      phi;
}
// * * * * * * * * * * * * * * * * * * * * * * * * * * * * * * * * * * * * * //

dimensions      [0 3 -1 0 0 0 0];

internalField   nonuniform List<scalar> 
275122
(
-3.897799e-05
4.375216e-05
-7.81549e-07
-3.989604e-06
-5.78851e-05
6.205323e-05
4.125276e-07
-4.580658e-06
-8.621834e-05
9.263352e-05
-4.227091e-07
-5.992471e-06
-0.0001172729
0.0001219752
-2.61611e-07
-4.440496e-06
-0.0001283961
0.000125751
-7.189151e-07
3.364036e-06
-0.0001187335
0.0001162484
-3.948993e-07
2.880044e-06
-0.0001069033
0.0001031772
-9.866371e-08
3.824737e-06
-9.30404e-05
8.987895e-05
1.765062e-07
2.984949e-06
-8.245259e-05
8.090868e-05
2.395834e-07
1.304332e-06
-7.861355e-05
7.779716e-05
1.623287e-07
6.540688e-07
-7.487782e-05
7.330669e-05
1.363788e-07
1.434745e-06
-6.557845e-05
6.267034e-05
3.915089e-09
2.904189e-06
-5.166656e-05
4.699727e-05
-6.36191e-08
4.733948e-06
-3.157234e-05
2.64369e-05
-1.08027e-10
5.135533e-06
-9.867477e-06
5.108036e-06
5.834901e-08
4.701499e-06
6.499879e-06
-1.14426e-05
-1.758849e-07
5.118623e-06
2.114923e-05
-2.359485e-05
1.243014e-07
2.321438e-06
3.254057e-05
-3.623288e-05
5.027645e-09
3.687278e-06
4.378369e-05
-4.594055e-05
9.740988e-09
2.147118e-06
5.246249e-05
-5.564018e-05
-1.441524e-07
3.321877e-06
6.278505e-05
-6.748853e-05
2.038856e-07
4.499593e-06
7.645201e-05
-7.824527e-05
1.070204e-08
1.782623e-06
8.370811e-05
-8.53421e-05
5.16948e-08
1.582299e-06
9.705594e-05
-0.0001012776
1.940028e-07
4.027653e-06
0.0001074346
-0.0001080404
-5.034661e-08
6.563418e-07
0.0001044711
-0.0001010459
2.19516e-08
-3.447134e-06
9.079076e-05
-8.680008e-05
-1.412256e-07
-3.849356e-06
7.107162e-05
-6.522252e-05
-4.675028e-08
-5.80234e-06
4.712073e-05
-4.159278e-05
-2.260812e-08
-5.505345e-06
-7.535716e-06
8.031247e-06
-2.07598e-08
-4.747712e-07
2.469198e-06
-2.909979e-06
1.007248e-07
3.400657e-07
8.503966e-07
7.116328e-07
3.247299e-07
-1.88676e-06
-8.885312e-06
1.180823e-05
5.77623e-07
-3.500539e-06
-1.884172e-05
2.117319e-05
4.657751e-07
-2.797254e-06
-3.001051e-05
3.521413e-05
7.768069e-07
-5.979891e-06
-4.753617e-05
5.049158e-05
5.660622e-07
-3.521518e-06
-5.864371e-05
6.103631e-05
4.814039e-07
-2.873999e-06
-6.63037e-05
6.75803e-05
3.308706e-07
-1.60745e-06
-5.818359e-05
5.493704e-05
-1.060643e-06
4.30741e-06
-3.619273e-05
3.91726e-05
-2.677356e-06
-3.025824e-07
-3.564607e-06
-3.287523e-06
-3.958864e-06
-6.386837e-07
1.144968e-05
-2.759893e-06
2.081204e-05
-2.555466e-05
-9.369646e-08
7.596205e-06
-5.28126e-06
3.565893e-05
-4.251555e-05
-6.616142e-08
1.220404e-05
-6.108565e-06
5.917723e-05
-6.410773e-05
-2.417744e-08
1.106324e-05
-5.932473e-06
7.684072e-05
-7.942856e-05
6.556852e-08
8.454744e-06
-4.729543e-06
8.807752e-05
-9.134061e-05
2.424693e-07
7.750157e-06
-2.825204e-06
9.806915e-05
-9.972538e-05
5.835698e-07
3.897863e-06
-3.159578e-06
0.0001033165
-0.0001074303
7.376954e-07
6.535693e-06
-1.304262e-05
0.000115691
-0.0001173441
-5.458603e-08
1.475029e-05
-9.340115e-06
0.0004716035
-0.0005089533
-7.514843e-07
7.435163e-05
-7.873572e-06
-1.146501e-05
-7.571628e-06
-8.111674e-06
0.0005454296
-0.0005734601
3.091874e-08
5.871645e-05
-8.096343e-06
-7.320722e-06
-7.188123e-06
-9.547243e-06
0.000603688
-0.0006192633
3.284643e-07
5.62222e-05
-1.003384e-05
-1.05509e-05
-1.084342e-05
-7.761232e-06
0.0006269468
-0.0006365598
1.094324e-07
3.942038e-05
-7.118982e-06
-7.79763e-06
-7.239017e-06
-5.293184e-06
0.0006412763
-0.0006409513
1.854452e-07
2.038967e-05
-5.086815e-06
-5.35757e-06
-5.16254e-06
-1.651539e-06
0.0006398071
-0.0006413086
1.639955e-07
5.81297e-06
-3.646842e-07
-1.677924e-06
-7.812971e-07
2.729314e-06
0.0006394922
-0.0006302924
2.08571e-07
-2.808733e-05
6.379435e-06
3.021599e-06
6.548625e-06
6.351693e-06
0.0006080267
-0.0005778792
-1.546265e-07
-5.677848e-05
6.797848e-06
6.493555e-06
7.142502e-06
1.822959e-06
0.0005324736
-0.000481257
2.5063e-09
-5.850595e-05
7.547816e-07
3.423824e-06
1.285322e-06
2.492395e-05
0.0004211428
-0.0004156279
-4.709809e-07
-7.703247e-05
1.093386e-05
2.635978e-05
9.770981e-06
1.099714e-05
0.0003596205
-0.0003085587
2.415838e-07
-9.733514e-05
1.066015e-05
1.267026e-05
1.170419e-05
1.10115e-05
0.0002614091
-0.0002008002
-1.37292e-07
-9.739128e-05
9.757977e-06
8.927403e-06
7.222858e-06
6.962475e-06
0.0001569008
-9.809967e-05
5.605419e-08
-0.0001053729
2.125597e-05
1.165305e-05
6.644228e-06
1.873156e-05
6.13732e-05
-1.878669e-05
-5.982953e-08
-0.0001112338
1.912527e-05
1.850993e-05
1.234033e-05
1.868144e-05
-1.92987e-05
6.605215e-05
5.891812e-08
-0.0001127448
1.014638e-05
1.953508e-05
1.756949e-05
1.945319e-05
-0.0001021591
0.0001350961
-6.780063e-07
-0.0001048747
1.936228e-05
1.715107e-05
1.664916e-05
8.721298e-06
-0.0001725004
0.0002281274
-8.94964e-07
-9.755576e-05
1.16693e-05
9.988039e-06
1.244506e-05
7.967995e-06
-0.0002721051
0.0003088175
2.175485e-07
-8.067286e-05
1.046721e-05
1.216436e-05
1.314329e-05
1.265173e-05
-0.0003486126
0.0003762432
3.329421e-07
-9.4081e-05
1.927629e-05
1.47691e-05
1.942031e-05
6.205246e-05
-0.0004359407
0.000494858
1.152423e-06
-0.0001221222
0.0001137869
-0.0005316243
0.0005643675
1.014221e-06
-0.0001475444
8.325193e-05
-0.0006135241
0.0006806686
1.684487e-06
-0.000152081
2.20135e-05
-0.0007514413
0.0008147678
1.241468e-06
-8.658143e-05
-4.997451e-05
-0.0008409232
0.0008133953
6.98973e-07
7.680349e-05
-5.590811e-05
-0.0007457871
0.0006656093
-4.265654e-06
0.0001403516
-6.651998e-05
-0.0005917688
0.000544678
-1.243152e-06
0.0001148539
-3.82448e-05
-0.000512583
0.0004802539
2.465614e-06
6.810832e-05
3.115206e-06
-0.00044925
0.0004315286
2.984851e-07
1.430771e-05
9.283036e-07
-0.0004212837
0.0004095303
-2.626413e-07
1.108774e-05
-2.483276e-05
-0.0003898651
0.0003566272
1.874245e-06
5.619642e-05
-7.103636e-05
-0.0003237885
0.0002881973
-4.828255e-07
0.0001071104
-9.482525e-05
-0.0002474808
0.0002014407
-4.103557e-07
0.0001412757
-9.551329e-05
-0.0001581392
0.0001099003
3.652345e-07
0.0001433869
-8.828226e-05
-6.76702e-05
3.250775e-05
1.629633e-07
0.0001232817
-5.639423e-05
7.023783e-06
-5.341972e-05
-2.149431e-07
0.0001030051
-6.253209e-05
7.406168e-05
-0.0001005421
-1.533866e-07
8.916592e-05
-4.255679e-05
0.0001306838
-0.0001692997
5.585971e-07
8.061411e-05
-5.085698e-05
0.0001922738
-0.000225092
1.920751e-06
8.175446e-05
-3.496234e-05
0.0002597997
-0.0002994025
1.502915e-06
7.30622e-05
-5.068708e-05
0.000319741
-0.0003364309
-6.21707e-07
6.799864e-05
-3.997757e-05
0.0003588231
-0.0003796711
-9.186476e-07
6.174417e-05
-2.758672e-05
0.0004010964
-0.0004168543
-6.160576e-07
4.396074e-05
-2.683004e-05
0.0004289471
-0.000432188
-4.60832e-07
3.053182e-05
-7.502645e-07
0.0004361567
-0.0004385541
1.837495e-08
3.129199e-06
2.263132e-05
0.0004405024
-0.0004384104
-1.265359e-07
-2.459679e-05
5.932065e-05
0.0004351992
-0.0004373919
-4.590297e-07
-5.666896e-05
7.629097e-05
0.0004355167
-0.0004311271
2.416496e-07
-8.092224e-05
5.367503e-05
0.0004173091
-0.0003830002
9.063658e-07
-8.889032e-05
1.305675e-05
0.0003404549
-0.000313791
1.385369e-06
-6.311308e-05
4.223323e-06
8.284111e-06
9.499667e-06
1.391835e-06
0.0002694613
-0.000222949
9.280943e-07
-5.541464e-05
2.358956e-06
3.783428e-07
3.845065e-06
1.097572e-05
0.0001891464
-0.0001694159
1.22094e-07
-6.542653e-05
1.154306e-05
1.119275e-05
1.18624e-05
8.353918e-06
0.0001428033
-0.0001089487
1.218923e-07
-7.056561e-05
6.450366e-06
9.557452e-06
1.222732e-05
7.136896e-06
6.983933e-05
-4.37518e-05
-8.811442e-07
-7.888877e-05
1.669392e-05
1.346503e-05
1.638654e-05
6.566072e-06
2.075682e-05
1.379694e-05
-4.265018e-07
-8.505834e-05
1.375663e-05
1.511229e-05
1.549609e-05
1.43272e-05
-4.22214e-05
7.005605e-05
-3.348396e-07
-8.288918e-05
1.378124e-05
1.375614e-05
1.352479e-05
1.468954e-05
-9.964672e-05
0.0001219331
-8.112863e-08
-7.369412e-05
1.090846e-05
1.244779e-05
1.34431e-05
6.16867e-06
-0.0001547769
0.0001788856
2.727068e-07
-5.369423e-05
5.642858e-06
7.764422e-06
9.736884e-06
6.106027e-06
-0.0001963467
0.0002081337
-2.24175e-07
-3.1876e-05
6.063615e-06
3.852796e-06
4.29068e-06
4.802474e-06
-0.0002137223
0.0002176811
-4.919705e-07
-1.949237e-05
4.656276e-06
4.025255e-06
2.541611e-06
2.733848e-06
-0.00022028
0.0002253885
-4.561807e-07
-1.538152e-05
1.762198e-06
3.986835e-06
2.246338e-06
1.625563e-06
-0.0002345206
0.000242201
-2.039897e-08
-1.160668e-05
7.146762e-07
1.086924e-06
5.19502e-07
-5.47833e-07
-0.0002504345
0.0002544936
1.820398e-07
-2.843574e-07
-7.593627e-07
-1.052385e-06
-1.597297e-06
-2.399002e-06
-0.0002493736
0.0002434839
-1.366349e-07
1.56461e-05
-2.523863e-06
-2.17747e-06
-2.519392e-06
-3.79002e-06
-0.0002348374
0.0002240112
-2.415125e-07
2.572109e-05
-4.593077e-06
-2.979356e-06
-3.290976e-06
-5.848539e-06
-0.0002149659
0.0002013136
-4.293451e-08
3.704188e-05
-6.393862e-06
-4.596267e-06
-6.507973e-06
-1.145435e-05
-0.000186956
0.0001607839
-6.504164e-07
6.321411e-05
-1.164823e-05
-6.006486e-06
-7.282558e-06
-7.210101e-06
-0.0001440307
0.0001035555
-1.974658e-06
7.6993e-05
-1.179943e-05
-8.740289e-06
-6.793418e-06
-1.616048e-05
-8.257012e-05
6.636816e-05
-3.369047e-06
6.131364e-05
-7.37613e-06
-6.154548e-06
-1.205147e-05
-5.831466e-06
-4.969711e-05
1.249388e-05
-2.103241e-06
6.603163e-05
-5.415354e-06
-5.863157e-06
-9.61518e-06
-8.530044e-06
2.041255e-05
-4.544229e-05
-1.526831e-06
6.547426e-05
-6.884506e-06
-1.212527e-05
-1.137788e-05
-1.170752e-05
6.958754e-05
-0.000119126
-6.175219e-07
0.0001104185
-9.608092e-06
-2.411625e-05
-1.483059e-05
-2.15968e-05
0.0001622255
-0.0002216919
2.170675e-06
0.0001400648
-2.076509e-05
-1.77141e-05
-2.269313e-05
-2.456609e-05
0.0002939514
-0.0003751444
2.737179e-06
0.0001583668
-2.242079e-05
-1.279727e-05
-2.012679e-05
-2.171483e-05
-0.000516474
1.40331e-06
0.0001553991
-2.093905e-05
-1.927974e-05
-2.605048e-05
0.0004476557
-1.902595e-05
0.0005775455
-0.0006349822
7.453931e-07
0.0001332954
-1.818732e-05
-1.981882e-05
-1.957208e-05
-1.54194e-05
0.0006841405
-0.0007282914
2.159656e-07
0.0001047292
-1.448747e-05
-1.568612e-05
-1.520117e-05
-1.010755e-05
0.0007673179
-0.0008015478
-1.024686e-07
7.636734e-05
-1.189572e-05
-1.058746e-05
-9.444302e-06
-7.927179e-06
0.0008310576
-0.0008495819
-2.165205e-07
5.318571e-05
-1.027412e-05
-7.740064e-06
-8.503469e-06
-5.504027e-06
0.0008688803
-0.0008797503
-2.466383e-07
3.337078e-05
-5.78399e-06
-6.276493e-06
-4.689623e-06
-2.402507e-06
0.0008923193
-0.0008964066
-3.085372e-07
1.528932e-05
-2.229588e-06
-3.91066e-06
-2.350706e-06
-5.797729e-07
0.0009007585
-0.0009008788
-3.937213e-07
1.019138e-06
1.928551e-08
-2.734154e-07
3.287439e-07
1.070245e-06
0.0009004244
-0.0008973687
-3.152665e-07
-1.05333e-05
1.437241e-06
2.478087e-06
2.807319e-06
2.010935e-06
0.0008937835
-0.0008876371
-4.107519e-07
-1.666387e-05
2.143115e-06
3.428819e-06
3.345302e-06
2.740716e-06
0.0008806707
-0.0008710027
-5.324238e-07
-2.344483e-05
2.616773e-06
4.422945e-06
4.528766e-06
2.714021e-06
0.000861577
-0.0008489468
-6.488811e-07
-2.846584e-05
2.735199e-06
5.543184e-06
5.492122e-06
4.410872e-06
0.0008387672
-0.0008282014
-7.01196e-07
-2.968744e-05
3.92102e-06
5.775499e-06
5.715468e-06
5.083454e-06
0.0008192028
-0.0008060213
-6.407646e-07
-3.608502e-05
3.820945e-06
7.26588e-06
7.374012e-06
3.067898e-06
0.0007945041
-0.0007757217
-5.327211e-07
-3.828655e-05
3.019913e-06
6.963264e-06
6.98579e-06
5.615096e-06
0.0007629287
-0.0007464006
-3.938282e-07
-4.332571e-05
5.607383e-06
7.506023e-06
8.46293e-06
2.074429e-06
0.0007344743
-0.0007155465
-2.549452e-07
-3.805275e-05
2.394572e-06
7.444844e-06
7.466014e-06
7.599268e-06
0.0007066389
-0.000692252
-5.115979e-07
-4.555755e-05
8.708324e-06
5.042647e-06
1.033199e-05
5.815148e-06
0.0006785049
-0.0006609078
-7.038214e-07
-4.622362e-05
6.357704e-06
8.239822e-06
8.917696e-06
4.535783e-06
0.0006487928
-0.0006298105
-7.072037e-07
-4.116594e-05
5.34774e-06
6.467278e-06
6.540067e-06
6.725976e-06
0.0006171812
-0.0006006975
-8.367166e-07
-4.132484e-05
7.069135e-06
4.959464e-06
6.923216e-06
7.08273e-06
0.0005907502
-0.0005756535
-4.376543e-07
-4.20504e-05
9.597975e-06
5.213153e-06
5.497422e-06
8.744709e-06
0.0005646319
-0.0005440114
-1.238546e-07
-4.510839e-05
7.782791e-06
3.9226e-06
4.161658e-06
6.642328e-06
0.000529727
-0.0005087707
1.564787e-07
-2.879266e-05
5.146282e-06
-2.406443e-06
-1.702279e-06
-8.577085e-07
0.000500821
-0.0004670969
7.004671e-08
-1.835342e-05
-7.761884e-06
1.111551e-06
-7.932703e-06
5.103969e-06
0.0004327715
-0.0004402486
6.608676e-08
1.33062e-06
-6.736231e-07
3.959998e-06
-2.309975e-06
-1.357723e-06
0.0004314702
-0.0004160509
3.669177e-07
-1.112007e-05
-4.634644e-07
-2.463163e-06
-3.818672e-07
3.397262e-06
0.0004024413
-0.0003858209
5.338495e-08
-2.978573e-05
3.311935e-06
3.487239e-06
2.915468e-06
5.116285e-06
0.0003660593
-0.0003462579
-2.433839e-07
-3.9309e-05
5.906405e-06
4.295573e-06
4.432784e-06
6.589814e-06
0.0003323894
-0.0003084222
-6.38832e-08
-4.662465e-05
5.184838e-06
5.177087e-06
5.769665e-06
4.903019e-06
0.0002912697
-0.000271907
2.952997e-07
-3.931831e-05
4.974954e-06
4.884186e-06
4.898113e-06
4.233368e-06
0.0002628934
-0.0002524849
4.440225e-07
-2.725576e-05
4.168614e-06
4.053461e-06
3.947804e-06
3.489726e-06
0.000248078
-0.0002431631
7.582273e-07
-1.769001e-05
2.887143e-06
2.947469e-06
2.692498e-06
2.311042e-06
0.0002373758
-0.0002353565
9.76281e-07
-1.265719e-05
2.426712e-06
2.527881e-06
2.395965e-06
3.134053e-06
0.0002316229
-0.0002215179
1.430511e-06
-2.360241e-05
3.494359e-06
2.779335e-06
2.659169e-06
3.901765e-06
0.0002120317
-0.0002000666
1.766467e-07
-2.674797e-05
3.973276e-06
3.196643e-06
3.534544e-06
3.895826e-06
0.0001903704
-0.0001776231
-4.43014e-07
-2.677383e-05
3.51977e-06
3.466934e-06
3.587014e-06
3.082899e-06
0.0001645794
-0.0001521717
-1.101273e-06
-2.409844e-05
2.944884e-06
3.400401e-06
3.363798e-06
3.8377e-06
0.0001374014
-0.0001163045
-1.040944e-06
-4.025637e-05
4.422728e-06
5.271166e-06
6.668882e-06
7.210709e-06
9.829939e-05
-6.744797e-05
-3.122087e-08
-5.955599e-05
7.596425e-06
6.785383e-06
7.143278e-06
7.83392e-06
4.107066e-05
-2.146419e-05
-1.720207e-07
-4.845096e-05
7.259118e-06
6.427768e-06
7.495709e-06
4.673997e-06
-2.288256e-06
2.085531e-05
9.235466e-07
-3.747717e-05
4.474473e-06
4.342294e-06
4.495803e-06
5.82825e-06
-6.176378e-05
9.336535e-05
4.031378e-07
-5.604492e-05
6.021602e-06
6.18227e-06
6.008096e-06
5.427471e-06
-0.0001229792
0.0001436286
5.401583e-07
-4.243118e-05
5.243254e-06
5.364771e-06
5.206128e-06
4.578527e-06
-0.0001627854
0.0001768071
5.353415e-07
-3.195922e-05
4.27167e-06
4.776338e-06
3.775618e-06
2.679276e-06
-0.0001861296
0.0001952751
2.589733e-07
-2.019106e-05
2.548032e-06
2.966518e-06
2.592767e-06
1.754599e-06
-0.000208579
0.0002160379
5.332419e-09
-1.408071e-05
1.623917e-06
1.660122e-06
1.577826e-06
1.32452e-06
-0.0002251798
0.0002300239
-1.686123e-07
-9.881443e-06
1.35662e-06
1.26863e-06
1.256219e-06
1.543024e-06
-0.0002372097
0.0002399719
-1.517199e-07
-8.4483e-06
1.50597e-06
1.355666e-06
1.433134e-06
5.348522e-07
-0.0002440044
0.0002463908
1.483986e-08
-6.25015e-06
1.463183e-06
1.018634e-06
8.321944e-07
2.547462e-07
0.0002528487
-1.194613e-07
-4.494774e-06
-0.0002491929
1.582201e-07
2.856407e-07
2.598036e-07
2.6608e-07
-0.0002573636
0.0002619261
-2.356762e-07
-5.497508e-06
2.963387e-07
2.965819e-07
3.116369e-07
5.502841e-07
-0.0002667563
0.0002699142
-2.372276e-07
-5.180081e-06
5.630577e-07
5.710248e-07
5.749811e-07
5.635591e-07
-0.0002725629
0.0002736212
-7.397923e-08
-3.224205e-06
4.949204e-07
5.783555e-07
6.030273e-07
1.48489e-06
-0.0002736279
0.0002722418
6.719381e-08
-3.93958e-06
1.584016e-06
1.655841e-06
5.336812e-07
6.217352e-07
-0.0002708881
0.0002701851
-2.048153e-07
-7.917e-07
1.820281e-07
7.1362e-07
1.821458e-07
1.247906e-07
-0.0002735829
0.0002765464
-5.94984e-07
-2.804382e-06
9.400423e-08
6.942476e-08
1.476704e-07
1.825328e-07
-0.0002799136
0.0002841535
-8.44643e-07
-4.15333e-06
1.870404e-07
1.926673e-07
1.958421e-07
2.967177e-07
-0.0002886773
0.0002930683
-6.475074e-07
-4.793597e-06
2.063915e-07
2.854975e-07
2.615288e-07
1.044254e-07
-0.0002966656
0.00029953
-5.946024e-08
-3.102204e-06
4.053009e-08
8.250086e-08
6.979735e-08
-1.614971e-07
-0.0003013223
0.0003019863
4.59628e-08
2.038771e-07
-1.855069e-07
-9.490186e-08
-4.720017e-07
6.159287e-08
-0.000301583
0.0003002883
7.794404e-09
1.499009e-06
2.152028e-07
-2.224578e-07
-2.66384e-07
7.294238e-08
-0.0002980676
0.0002937938
-2.982389e-08
4.543868e-06
-2.776436e-07
1.098975e-07
-1.454688e-07
-9.965823e-07
-0.0002905136
0.0002888447
-3.519463e-07
6.310033e-06
-8.518734e-07
-8.38281e-07
-1.602499e-06
-9.985315e-07
-0.0002884785
0.0002816025
-7.620855e-09
9.443714e-06
-6.216372e-08
-5.19252e-07
-9.802113e-07
-9.701677e-07
-0.0002742862
0.0002683099
-7.055115e-08
9.049911e-06
-5.25835e-07
-5.530279e-07
-9.540819e-07
-1.186733e-06
-0.0002623312
0.0002527373
-1.132402e-07
1.424498e-05
-9.180531e-07
-1.071251e-06
-1.361875e-06
-1.396613e-06
-0.00024821
0.0002438473
-2.800987e-07
9.074509e-06
-7.477757e-07
-1.02164e-06
-1.265616e-06
-1.365339e-06
-0.0002421438
0.0002381418
-5.579968e-07
9.055324e-06
-7.939199e-07
-1.034222e-06
-1.301882e-06
-1.244905e-06
-0.0002317604
0.0002248274
-5.42018e-07
1.20672e-05
-1.0132e-06
-1.269377e-06
-1.064779e-06
-1.619594e-06
-0.0002187392
0.000208713
-3.582664e-07
1.681882e-05
-1.367714e-06
-1.474109e-06
-1.972959e-06
-2.617681e-06
-0.0001986794
0.0001882352
-2.292617e-07
2.063654e-05
-2.204787e-06
-2.347231e-06
-2.79337e-06
-3.288805e-06
-0.0001721949
0.0001552985
2.195233e-07
2.926964e-05
-2.893106e-06
-3.02662e-06
-3.384184e-06
-3.624109e-06
-0.0001345593
0.0001166615
4.993737e-07
3.16966e-05
-3.363166e-06
-3.461027e-06
-3.849882e-06
-5.761765e-06
-0.0001074644
8.735773e-05
4.923552e-07
4.324263e-05
-5.757087e-06
-5.922378e-06
-6.187111e-06
-2.305154e-06
-1.417593e-05
8.091456e-06
8.264307e-08
8.306986e-06
-6.599269e-07
-3.58683e-07
-1.18218e-06
-4.489907e-09
2.20528e-06
-3.729691e-07
1.855004e-06
-1.872539e-06
-1.929035e-08
4.097938e-07
5.142362e-07
2.252926e-06
-2.370385e-06
-1.010782e-08
-3.866691e-07
3.205947e-07
2.57768e-07
3.065286e-07
-2.395488e-08
-8.609365e-07
2.476161e-07
-5.982189e-07
6.905905e-07
-6.774729e-08
-2.722404e-07
2.800835e-07
-1.41223e-06
1.745555e-06
-1.87819e-08
-5.946271e-07
2.579686e-07
-2.566417e-06
2.493769e-06
-6.433386e-09
-1.78887e-07
2.037929e-07
-3.219163e-06
3.459535e-06
-1.279944e-08
-4.313647e-07
1.24189e-07
-3.853407e-06
4.0143e-06
-1.036717e-08
-2.747155e-07
-1.179338e-07
-4.175786e-06
4.197064e-06
-1.099079e-08
1.076463e-07
-3.406887e-07
-3.847009e-06
3.780982e-06
-1.682146e-08
4.235379e-07
-2.94335e-07
-2.679677e-06
1.977622e-06
-2.729799e-08
1.023688e-06
-2.736715e-07
-1.587976e-06
5.330724e-07
-4.509988e-10
1.329026e-06
-5.014035e-07
1.281213e-06
-2.071567e-06
3.359466e-08
1.258162e-06
-6.979049e-07
3.165394e-06
-3.849097e-06
7.812124e-08
1.303486e-06
-1.386606e-06
5.347187e-06
-6.883833e-06
5.832502e-08
2.864927e-06
-1.982009e-06
1.365342e-05
-1.576635e-05
1.555583e-08
4.079376e-06
-2.309176e-06
1.989578e-05
-2.351594e-05
-1.017398e-07
6.031077e-06
-1.212845e-06
3.485525e-05
-3.630807e-05
1.574256e-07
2.508238e-06
-2.246093e-06
3.877395e-05
-4.128735e-05
1.336807e-07
4.625817e-06
-1.349681e-06
4.987454e-05
-5.038001e-05
1.254577e-07
1.729694e-06
-5.992861e-07
5.301775e-05
-5.450785e-05
6.112377e-08
2.028261e-06
2.928625e-07
5.626305e-05
-5.600079e-05
4.075797e-08
-5.958876e-07
4.946732e-07
5.569485e-05
-5.546226e-05
-5.704756e-08
-6.702173e-07
5.523535e-07
5.443706e-05
-5.406889e-05
-6.864821e-08
-8.518731e-07
5.372362e-07
5.315887e-05
-5.262196e-05
-3.293205e-08
-1.04122e-06
4.091416e-07
5.167423e-05
-5.144268e-05
-4.697971e-08
-5.9371e-07
2.960141e-07
5.107508e-05
-5.102232e-05
-5.919103e-09
-3.428504e-07
2.099524e-07
5.110009e-05
-5.118038e-05
2.827818e-08
-1.579435e-07
2.087429e-07
5.139232e-05
-5.156328e-05
4.804271e-08
-8.582372e-08
1.698252e-07
5.199137e-05
-5.214927e-05
5.108482e-08
-6.301616e-08
2.968914e-07
5.229981e-05
-5.227857e-05
-2.020381e-08
-2.979256e-07
3.832179e-07
5.190699e-05
-5.15907e-05
1.967579e-09
-7.014691e-07
4.93302e-07
5.09308e-05
-5.012888e-05
-3.96848e-08
-1.255537e-06
6.775614e-07
4.897609e-05
-4.888549e-05
-3.955649e-08
-7.286042e-07
6.694925e-07
4.504787e-05
-4.37943e-05
-1.503348e-08
-1.908021e-06
6.147521e-07
4.030048e-05
-3.919281e-05
-1.649978e-08
-1.705927e-06
6.049093e-07
3.6895e-05
-3.587996e-05
1.203788e-08
-1.631991e-06
2.17031e-07
3.42119e-05
-3.39087e-05
2.889405e-08
-5.491275e-07
1.821729e-07
3.30316e-05
-3.302466e-05
4.641917e-08
-2.355347e-07
3.440186e-07
3.157938e-05
-3.155013e-05
4.950902e-08
-4.227762e-07
5.131936e-07
3.001612e-05
-2.992544e-05
1.568072e-08
-6.195472e-07
2.523416e-07
2.744496e-05
-2.669672e-05
2.655324e-08
-1.02714e-06
5.673678e-07
2.593362e-05
-2.475754e-05
1.030473e-07
-1.846496e-06
1.103172e-06
2.115921e-05
-2.006544e-05
9.497617e-08
-2.291919e-06
6.830173e-07
1.789308e-05
-1.75601e-05
1.180391e-08
-1.027804e-06
2.660887e-07
1.597832e-05
-1.580687e-05
-1.975558e-08
-4.177815e-07
1.483876e-07
1.430255e-05
-1.424039e-05
-5.233511e-08
-1.582095e-07
4.834084e-07
1.315537e-05
-1.245833e-05
-8.591263e-08
-1.094543e-06
9.789569e-07
1.119664e-05
-9.70057e-06
-4.838169e-08
-2.426647e-06
2.941081e-07
5.25005e-06
-3.417523e-06
-1.423839e-08
-2.112397e-06
8.044611e-07
3.296998e-06
-1.958112e-06
9.330015e-08
-2.236648e-06
8.253354e-07
-3.144721e-07
1.391819e-06
2.293271e-08
-1.925615e-06
7.200926e-07
-2.602474e-06
3.147208e-06
-2.7e-08
-1.237826e-06
6.703601e-07
-5.108278e-06
6.26875e-06
4.950079e-09
-1.835782e-06
4.696843e-07
-7.065751e-06
8.817491e-06
-8.608727e-09
-2.212816e-06
5.232966e-07
-9.842685e-06
9.983705e-06
-2.063417e-08
-6.436817e-07
1.128906e-06
-1.223301e-05
1.232257e-05
2.684616e-08
-1.245309e-06
8.200117e-07
-1.419806e-05
1.502534e-05
-6.745191e-09
-1.640546e-06
4.769739e-07
-1.663257e-05
1.672589e-05
-3.521378e-08
-5.350786e-07
3.485718e-07
-1.746589e-05
1.764959e-05
-1.898917e-08
-5.132891e-07
2.518717e-07
-1.816404e-05
1.856651e-05
-3.80523e-08
-6.1629e-07
3.474402e-07
-1.918913e-05
1.921448e-05
-3.908885e-08
-3.337051e-07
2.62912e-07
-1.978305e-05
1.995344e-05
-4.379171e-08
-3.895067e-07
4.234095e-07
-2.049025e-05
2.068411e-05
-4.5474e-08
-5.717897e-07
5.578371e-07
-2.167514e-05
2.199819e-05
-4.442705e-08
-8.364595e-07
4.597227e-07
-2.350845e-05
2.348278e-05
-8.006648e-08
-3.539899e-07
-5.437792e-07
-2.336381e-05
2.301793e-05
4.828359e-08
8.413759e-07
-3.038935e-06
-1.920539e-05
1.854932e-05
-1.745076e-09
3.696755e-06
-7.912957e-07
-1.401272e-05
7.943693e-05
3.686914e-07
1.345674e-05
-3.942459e-06
-4.484826e-07
-4.081453e-06
-1.327623e-05
-2.926721e-05
-2.744251e-05
4.86698e-08
-7.575703e-05
7.056126e-05
5.212769e-07
4.34843e-06
1.979786e-07
7.408243e-09
7.20003e-08
-6.19615e-07
-6.138652e-05
5.042342e-05
5.973774e-07
1.32327e-05
-8.035737e-07
-6.331388e-07
-8.106537e-07
-1.782707e-06
-3.506184e-05
1.995424e-05
-3.575566e-07
2.276941e-05
-1.823943e-06
-1.847541e-06
-1.85006e-06
-8.110992e-07
-9.480965e-06
9.657117e-06
-2.760634e-07
2.662883e-06
-4.396046e-07
-8.394403e-07
-4.728274e-07
1.125581e-06
-1.582469e-05
2.387616e-05
-4.3724e-07
-1.23492e-05
1.255692e-06
1.134291e-06
1.219402e-06
1.709136e-06
-2.971919e-05
3.483946e-05
-1.668267e-07
-1.187388e-05
1.746932e-06
1.774657e-06
1.68972e-06
1.023772e-06
-3.566277e-05
3.644753e-05
-2.379808e-08
-4.08655e-06
8.586368e-07
7.703317e-07
6.728453e-07
7.473851e-07
-4.156612e-05
4.755551e-05
-1.122253e-06
-8.033364e-06
8.488062e-07
8.110435e-07
7.589879e-07
6.617428e-07
-5.308161e-05
5.683969e-05
-2.483244e-07
-6.41088e-06
8.836804e-07
6.949573e-07
6.607461e-07
4.881716e-07
-5.926029e-05
5.738685e-05
9.205119e-07
-9.043692e-07
5.436628e-07
4.730151e-07
3.524536e-07
1.060546e-07
-5.626868e-05
5.565093e-05
5.429228e-07
-3.467702e-07
1.781074e-07
1.481827e-07
-1.075624e-08
-4.533017e-08
-5.530095e-05
5.511339e-05
1.669304e-07
1.523811e-07
2.042045e-08
-3.854456e-08
-6.829856e-08
-1.633199e-07
-5.534316e-05
5.556465e-05
3.02406e-07
8.843478e-08
-1.420842e-07
-1.438959e-07
-1.630363e-07
-2.169218e-07
-5.565627e-05
5.47638e-05
3.460944e-07
1.391222e-06
-2.176448e-07
-1.973576e-07
-2.129277e-07
-3.036316e-07
-5.377019e-05
5.266545e-05
-5.089948e-08
2.406534e-06
-3.178542e-07
-3.049279e-07
-3.24482e-07
-4.604184e-07
-5.073951e-05
4.602607e-05
-3.638143e-07
7.155703e-06
-6.765567e-07
-4.832975e-07
-4.581663e-07
-4.655741e-07
-4.120373e-05
3.746167e-05
1.367913e-07
5.561877e-06
-5.646101e-07
-4.905356e-07
-4.35887e-07
-8.544186e-07
-3.275702e-05
2.858441e-05
-4.003812e-07
7.86199e-06
-8.236257e-07
-8.15869e-07
-7.950793e-07
-6.713302e-07
-2.775234e-05
2.394444e-05
-3.235693e-07
6.615248e-06
-6.080839e-07
-6.174551e-07
-5.869065e-07
-4.015936e-07
-2.120839e-05
1.948608e-05
-2.520294e-07
3.312454e-06
-3.243034e-07
-3.100715e-07
-3.021428e-07
-2.679134e-07
-1.61507e-05
1.467026e-05
-1.49158e-07
2.671294e-06
-2.441511e-07
-2.82831e-07
-2.467934e-07
-1.498854e-09
-1.49256e-05
1.668724e-05
-2.70762e-07
-1.551813e-06
2.695528e-08
4.060934e-09
3.141164e-08
1.910363e-07
-1.905018e-05
2.17655e-05
1.808058e-08
-3.521432e-06
2.03916e-07
1.951268e-07
1.979526e-07
1.344117e-07
-2.220773e-05
2.205888e-05
1.726851e-07
-4.332807e-07
5.773787e-08
1.035442e-07
1.137506e-07
-2.20517e-07
-2.148739e-05
2.11731e-05
-6.300647e-08
1.289013e-06
-2.535286e-07
-1.782166e-07
-2.594545e-07
-6.29877e-07
-1.924277e-05
1.602015e-05
2.097231e-07
5.623813e-06
-6.745649e-07
-6.354734e-07
-6.710026e-07
-7.770759e-07
-1.203157e-05
8.447746e-06
4.616001e-07
6.212176e-06
-7.649253e-07
-7.796726e-07
-7.682814e-07
-5.732938e-07
-6.294568e-06
6.13521e-06
4.598415e-07
1.880561e-06
-5.077443e-07
-5.830361e-07
-5.169701e-07
-1.664765e-07
-6.464608e-06
7.876262e-06
5.603117e-07
-1.494704e-06
-4.749255e-08
-1.722245e-07
-9.106905e-08
3.944228e-07
-9.304226e-06
1.233362e-05
-6.114056e-07
-4.156491e-06
4.698163e-07
4.005992e-07
4.736687e-07
9.128164e-07
-1.461497e-05
1.664631e-05
-5.863282e-08
-5.760048e-06
9.897901e-07
9.057358e-07
9.790001e-07
1.44467e-06
-1.875298e-05
2.358864e-05
-4.947825e-07
-1.012367e-05
1.423787e-06
1.459272e-06
1.45507e-06
1.498168e-06
-2.70588e-05
3.01929e-05
2.083924e-08
-9.198955e-06
1.509883e-06
1.732299e-06
1.303658e-06
9.945946e-07
-3.222757e-05
3.335285e-05
-3.076558e-08
-5.220709e-06
9.493958e-07
1.133247e-06
1.048955e-06
3.694759e-07
-3.516921e-05
3.682567e-05
-1.155137e-07
-2.902915e-06
3.104912e-07
3.712667e-07
3.107365e-07
8.060006e-08
-3.700606e-05
3.627381e-05
-2.971883e-07
8.219149e-07
2.637891e-08
7.773242e-08
2.281311e-08
-8.262597e-08
-3.422884e-05
3.2962e-05
-4.699699e-07
2.058687e-06
-8.027125e-08
-8.081587e-08
-7.816465e-08
-7.204213e-09
-3.262478e-05
3.408182e-05
-6.005504e-07
-9.827575e-07
5.368251e-08
9.287113e-09
7.049707e-08
1.830524e-07
-3.760678e-05
3.895715e-05
-2.169396e-07
-1.987585e-06
2.572047e-07
2.183954e-07
1.955021e-07
3.398437e-07
-4.14601e-05
4.414537e-05
-2.609135e-07
-3.842585e-06
3.55033e-07
3.387614e-07
3.845929e-07
3.935172e-07
-4.670928e-05
4.874594e-05
-1.982258e-07
-3.414092e-06
4.025754e-07
3.868034e-07
3.927556e-07
4.482256e-07
-5.075461e-05
5.208104e-05
-5.980491e-08
-3.042085e-06
4.545705e-07
4.321567e-07
4.405057e-07
5.332353e-07
-5.291339e-05
5.29592e-05
-4.761744e-08
-2.078496e-06
5.319031e-07
5.120028e-07
5.031702e-07
5.139677e-07
-5.239222e-05
5.202885e-05
-1.07753e-07
-9.79721e-07
3.025939e-07
3.258191e-07
3.084566e-07
1.944502e-07
-5.189163e-05
5.158735e-05
-8.419056e-09
-5.152595e-07
2.035366e-07
2.085611e-07
2.214143e-07
6.832987e-08
-5.200113e-05
5.321046e-05
-7.422331e-08
-1.421959e-06
5.921894e-08
8.998951e-08
6.931363e-08
1.234015e-08
-5.403641e-05
5.518569e-05
-6.748467e-08
-1.126726e-06
2.911355e-09
2.092009e-08
8.765325e-09
-4.487875e-09
-5.661254e-05
5.837035e-05
-2.273798e-07
-1.548388e-06
1.109167e-08
-2.132731e-09
1.348173e-08
9.823306e-08
-6.040513e-05
6.374507e-05
-2.694712e-07
-3.479776e-06
1.104689e-07
8.968772e-08
1.109189e-07
-2.761757e-07
-6.760251e-05
7.049328e-05
-2.484653e-07
-2.478564e-06
3.102727e-08
8.024824e-08
1.156951e-09
-9.812749e-07
-7.288333e-05
7.428731e-05
-3.382457e-07
3.146741e-06
-1.282393e-06
-8.418197e-07
-1.106994e-06
-2.069511e-06
-7.208661e-05
6.484728e-05
-1.648411e-07
1.601661e-05
-2.224854e-06
-2.055944e-06
-2.26212e-06
-1.195862e-06
-5.550245e-05
4.055837e-05
-2.272894e-07
1.909145e-05
-2.130112e-07
-1.608439e-06
-9.027757e-07
-4.009395e-07
-4.008976e-05
2.24074e-05
-1.363732e-07
2.080666e-05
-2.520639e-07
-1.16181e-07
-2.218747e-06
-2.046182e-06
-9.414554e-06
-4.245795e-06
1.386137e-06
3.820855e-05
-7.466836e-06
-7.854274e-06
-8.567047e-06
-1.666621e-06
1.402681e-05
-2.093254e-05
1.448131e-06
1.032686e-05
-7.943777e-07
-2.148078e-06
-2.601777e-07
2.34817e-06
3.124588e-05
-3.502477e-05
9.457575e-07
-1.112494e-05
9.63625e-07
5.154441e-06
5.491833e-06
8.0539e-07
2.272397e-05
-7.152459e-06
9.455334e-07
-1.579878e-05
-5.851002e-07
-4.739006e-07
-4.646467e-07
3.121348e-06
-2.053094e-06
9.48629e-06
-1.263838e-06
-1.652967e-05
1.040455e-06
2.887436e-06
3.311076e-06
2.1606e-07
-1.905916e-05
3.0341e-05
-2.286086e-06
-1.030731e-05
1.622419e-07
7.79668e-07
1.53588e-07
6.856128e-07
-4.095633e-05
4.999063e-05
-2.402866e-06
-1.133373e-05
1.267977e-06
1.532229e-06
1.21648e-06
1.55469e-07
-5.808452e-05
6.802939e-05
-2.500031e-06
-9.885793e-06
7.22897e-07
3.197048e-07
1.242883e-06
1.97715e-07
-7.547567e-05
8.428369e-05
-2.477137e-06
-9.94341e-06
6.553074e-07
7.851667e-07
1.974336e-06
1.822513e-06
-9.022058e-05
9.470824e-05
-2.262668e-06
-9.049935e-06
2.016731e-06
1.277167e-06
1.708528e-06
8.901544e-07
-9.520707e-05
9.715856e-05
-1.275532e-06
-4.287112e-06