/*--------------------------------*- C++ -*----------------------------------*\
| =========                 |                                                 |
| \\      /  F ield         | foam-extend: Open Source CFD                    |
|  \\    /   O peration     | Version:     3.1                                |
|   \\  /    A nd           | Web:         http://www.extend-project.de       |
|    \\/     M anipulation  |                                                 |
\*---------------------------------------------------------------------------*/
FoamFile
{
    version     2.0;
    format      ascii;
    class       volScalarField;
    location    "0.5";
    object      k;
}
// * * * * * * * * * * * * * * * * * * * * * * * * * * * * * * * * * * * * * //

dimensions      [0 2 -2 0 0 0 0];

internalField   nonuniform List<scalar> 
119952
(
0.02818956
0.022515
0.02260062
0.02479214
0.02618508
0.02611202
0.02631649
0.02653371
0.0266898
0.02677446
0.0267951
0.02676312
0.02668967
0.02658453
0.02645606
0.02631139
0.02615683
0.02600026
0.02586418
0.02587861
0.02915708
0.02825408
0.02816938
0.03161795
0.03054785
0.0300282
0.02955326
0.02909379
0.02776596
0.03064295
0.02977087
0.0244924
0.02474021
0.02670814
0.02902387
0.03117471
0.03306602
0.03473095
0.03622548
0.03786607
0.04280113
0.04923496
0.05521157
0.06041962
0.06482225
0.06854988
0.07176042
0.07459416
0.07713505
0.09149528
0.0934288
0.09556474
0.09791449
0.1003892
0.1028783
0.1053012
0.1076136
0.1097993
0.1118142
0.1135483
0.1152078
0.1169406
0.1187936
0.1207366
0.1227095
0.1246617
0.1265842
0.1285674
0.129623
0.1298028
0.130271
0.1309234
0.1315368
0.1319855
0.1323642
0.1327064
0.1330092
0.1332941
0.1335556
0.1337886
0.1339908
0.1341633
0.1343095
0.1344342
0.1345436
0.1346488
0.1347789
0.1350065
0.1353494
0.1356785
0.1361412
0.1368938
0.1374366
0.137537
0.1373286
0.1366616
0.1349922
0.1327024
0.1316231
0.1307408
0.1299291
0.1291966
0.1285583
0.1280127
0.1275488
0.1271505
0.1267994
0.1264767
0.1261651
0.1258508
0.1255258
0.1251891
0.1248471
0.124511
0.1241925
0.1239022
0.123644
0.1234124
0.1231986
0.1229941
0.1227922
0.122589
0.1223833
0.1221762
0.1219698
0.1217661
0.121566
0.1213699
0.1211773
0.1209877
0.1208006
0.1206151
0.1204306
0.1202466
0.1200629
0.119879
0.1196949
0.1195105
0.1193255
0.1191399
0.1189537
0.118767
0.1185799
0.1183927
0.1182068
0.1180276
0.1178741
0.1177739
0.1174447
0.1168529
0.1161104
0.1153124
0.1145179
0.1137578
0.1130454
0.1123843
0.1117707
0.1111992
0.1106635
0.1101572
0.1096748
0.1092114
0.1087635
0.1083282
0.1079035
0.1074865
0.1070752
0.106669
0.1062699
0.1058825
0.1055118
0.1051617
0.1048338
0.1045271
0.1042392
0.1039669
0.1037066
0.1034554
0.1032106
0.1029701
0.1027325
0.1024963
0.1022608
0.1020251
0.1017888
0.1015514
0.1013128
0.1010727
0.100831
0.1005875
0.1003423
0.1000955
0.09984701
0.09959699
0.09934595
0.09909912
0.09887678
0.09259007
0.08541501
0.08255749
0.08061056
0.07904677
0.07774617
0.07664484
0.07569407
0.07485641
0.07410005
0.07340629
0.072761
0.07215373
0.07157627
0.07102271
0.07048904
0.06997274
0.06947195
0.0689849
0.06850948
0.06804365
0.0675868
0.06714176
0.06671414
0.06630437
0.06591692
0.06554805
0.06519427
0.06485234
0.06451962
0.06419486
0.0638785
0.06357589
0.06329113
0.06306812
0.06318788
0.06403697
0.06491576
0.06571648
0.06642778
0.06706779
0.06764999
0.068188
0.06869241
0.06917102
0.0696292
0.0700711
0.07049947
0.07091674
0.07132483
0.07172532
0.07211942
0.07250779
0.07289044
0.07326661
0.07363502
0.07399426
0.07434325
0.07468168
0.07501006
0.07532974
0.07564218
0.0759492
0.0762519
0.07655143
0.07684846
0.07714333
0.0774363
0.07772873
0.07802161
0.09053168
0.09073685
0.09107041
0.09171119
0.09265776
0.09381396
0.09506299
0.09631192
0.09750337
0.09861
0.09962429
0.10055
0.1013965
0.1021748
0.1028959
0.1035693
0.1042025
0.1048009
0.1053686
0.1059085
0.1064227
0.1069124
0.1073778
0.1078186
0.1082341
0.1086242
0.1089889
0.1093294
0.1096471
0.1099441
0.110223
0.1104863
0.1107366
0.1109762
0.1112071
0.1114309
0.1116491
0.1118627
0.1120722
0.112278
0.1124802
0.1126781
0.1128706
0.113055
0.1132248
0.1133652
0.1134693
0.1135615
0.11365
0.1137383
0.113828
0.1139194
0.1140133
0.114107
0.1140297
0.1138673
0.1138226
0.1139897
0.1143844
0.1149625
0.1156526
0.1163852
0.117109
0.1177935
0.1184254
0.1190026
0.119529
0.1200117
0.120458
0.1208748
0.1212673
0.1216399
0.1219957
0.1223369
0.1226644
0.1229778
0.1232753
0.1235547
0.1238138
0.1240514
0.1242673
0.1244623
0.1246385
0.1247981
0.1249437
0.125078
0.1252033
0.1253217
0.1254349
0.1255442
0.1256507
0.1257551
0.1258581
0.12596
0.1260611
0.1261617
0.1262618
0.1263615
0.1264609
0.1265601
0.1266591
0.1267579
0.1268565
0.1269551
0.1270536
0.1271522
0.1272507
0.1273493
0.127448
0.1275469
0.127646
0.1277454
0.1278452
0.1279455
0.1280462
0.1281475
0.1282495
0.1283523
0.128456
0.1285607
0.1286668
0.1287742
0.1288835
0.1289948
0.1291085
0.1292253
0.1293458
0.1294709
0.129602
0.1297409
0.1298903
0.1300546
0.1302411
0.1304631
0.1307469
0.131152
0.1318217
0.1330818
0.1339922
0.02563521
0.0239968
0.02556314
0.02794792
0.03027131
0.03231549
0.03409802
0.03567991
0.03715744
0.04001012
0.04669396
0.05314089
0.0588337
0.06364272
0.06767241
0.07109759
0.07408062
0.07675073
0.09145097
0.09332242
0.09537391
0.09766652
0.1001385
0.1026715
0.1051655
0.1075609
0.1098325
0.11197
0.1138488
0.1155425
0.1172552
0.1190825
0.1210229
0.1230198
0.1250042
0.1269183
0.1287234
0.1300273
0.1310126
0.1321275
0.1333787
0.1347612
0.1362451
0.137788
0.1393482
0.1408927
0.1423936
0.1437989
0.1451055
0.1463591
0.1476134
0.1489019
0.1502318
0.1515926
0.1529649
0.1542912
0.1666578
0.167773
0.1688328
0.1698673
0.1709027
0.171955
0.1730302
0.1741259
0.1752348
0.1763419
0.1774292
0.1784875
0.1795188
0.1805334
0.1815434
0.1825576
0.1835801
0.1846087
0.1856103
0.1864558
0.18715
0.1877618
0.1882735
0.1886616
0.1889429
0.189155
0.1893272
0.1894785
0.1896162
0.1897495
0.1898892
0.19004
0.1901991
0.1903642
0.1905342
0.1907092
0.1908931
0.1910991
0.1913185
0.1915415
0.1917637
0.1920094
0.1922443
0.1923683
0.1923591
0.1921676
0.1917554
0.1911561
0.1906279
0.1902104
0.1898419
0.1894894
0.1891374
0.1887829
0.1884279
0.1880761
0.1877293
0.1873871
0.187047
0.1867058
0.1863614
0.1860139
0.1856672
0.1853278
0.185004
0.1847038
0.1844326
0.1841918
0.1839792
0.18379
0.1836185
0.1834595
0.183309
0.1831644
0.1830243
0.1828882
0.182756
0.1826277
0.1825031
0.1823818
0.1822635
0.1821477
0.1820338
0.1819215
0.1818104
0.1817
0.1815903
0.1814811
0.1813721
0.1812634
0.1811548
0.1810465
0.1809384
0.1808309
0.1807244
0.1806201
0.1805203
0.1804291
0.1803569
0.180298
0.1802268
0.1801236
0.1799794
0.1797937
0.1795707
0.1793169
0.1790387
0.1787415
0.1784298
0.1781069
0.1777753
0.177437
0.1770936
0.1767465
0.1763972
0.1760474
0.1756986
0.1753533
0.1750145
0.1746863
0.1743735
0.17408
0.1738089
0.1735615
0.1733376
0.1731357
0.1729532
0.1727871
0.1726344
0.172492
0.1723579
0.1722295
0.1721053
0.1719838
0.1718641
0.1717455
0.1716274
0.1715094
0.1713913
0.1712729
0.1711542
0.1710352
0.1709159
0.1707964
0.1706769
0.1705581
0.1704409
0.170333
0.1631574
0.1601606
0.1593608
0.1589842
0.1586341
0.1582373
0.1577945
0.1573204
0.1568296
0.1563327
0.1558373
0.1553477
0.1548661
0.1543936
0.1539308
0.1534785
0.153038
0.1526105
0.1521974
0.1518001
0.1514205
0.1510612
0.1507255
0.1504182
0.1501407
0.1498943
0.1496774
0.149487
0.1493198
0.1491724
0.1490427
0.1489306
0.1488398
0.1487812
0.148782
0.1488847
0.1490765
0.1493254
0.1496107
0.1499185
0.1502385
0.1505634
0.1508876
0.1512075
0.1515207
0.1518262
0.1521236
0.1524128
0.1526942
0.1529684
0.1532358
0.1534966
0.1537506
0.153997
0.1542347
0.1544621
0.1546777
0.1548807
0.1550707
0.1552483
0.1554147
0.1555715
0.1557207
0.155864
0.1560027
0.156138
0.1562706
0.1564011
0.1565287
0.156619
0.1674599
0.1676502
0.1677645
0.1678429
0.1679229
0.1680334
0.1681925
0.1684075
0.1686773
0.168996
0.1693555
0.1697474
0.1701646
0.1706007
0.1710507
0.1715101
0.1719745
0.1724398
0.1729019
0.1733567
0.1737999
0.1742274
0.1746352
0.1750197
0.1753783
0.175709
0.1760113
0.1762856
0.1765333
0.1767566
0.1769584
0.1771414
0.1773088
0.1774633
0.1776074
0.1777431
0.1778722
0.177996
0.1781153
0.1782308
0.1783425
0.1784501
0.178553
0.1786497
0.1787378
0.1788145
0.1788811
0.1789409
0.178996
0.1790479
0.1790976
0.1791455
0.1791913
0.1792307
0.1792535
0.1792555
0.1792416
0.1792248
0.1792221
0.1792494
0.1793173
0.1794301
0.1795867
0.1797825
0.1800115
0.1802675
0.1805452
0.18084
0.181148
0.1814656
0.1817899
0.1821176
0.1824456
0.1827704
0.1830884
0.1833953
0.1836872
0.1839602
0.1842116
0.1844395
0.1846433
0.1848238
0.1849825
0.1851219
0.1852446
0.1853535
0.1854512
0.1855401
0.1856222
0.1856993
0.1857727
0.1858435
0.1859123
0.1859798
0.1860464
0.1861123
0.1861777
0.1862428
0.1863077
0.1863724
0.1864369
0.1865014
0.1865658
0.1866303
0.1866947
0.1867593
0.1868239
0.1868887
0.1869536
0.1870188
0.1870843
0.1871503
0.1872167
0.1872836
0.1873512
0.1874196
0.1874888
0.1875589
0.1876302
0.1877027
0.1877768
0.1878526
0.1879305
0.1880109
0.1880942
0.1881811
0.1882723
0.1883691
0.1884727
0.1885854
0.1887101
0.1888512
0.1890155
0.1892135
0.1894618
0.1897863
0.1902187
0.190753
0.1911898
0.02655525
0.02215477
0.02332596
0.02595557
0.02860887
0.0309227
0.03291293
0.03466082
0.03623848
0.03799817
0.04376669
0.05090576
0.0573059
0.0626996
0.06714007
0.07083224
0.07398405
0.07676446
0.07926943
0.0940252
0.09605467
0.09832654
0.1008296
0.1034374
0.1060208
0.1084982
0.1108338
0.1130189
0.1150078
0.116704
0.1183464
0.1200884
0.1219617
0.1239143
0.1258684
0.1277543
0.1295307
0.1312035
0.1320321
0.1330389
0.134204
0.1355216
0.1369642
0.1384864
0.1400408
0.1415884
0.1431007
0.1445397
0.145866
0.1471137
0.1483414
0.1495952
0.1508932
0.1522299
0.1535875
0.1549145
0.1673872
0.1685148
0.1695778
0.1706067
0.171631
0.1726712
0.1737371
0.1748295
0.1759428
0.1770657
0.17818
0.1792718
0.1803381
0.1813871
0.1824305
0.1834787
0.1845364
0.1856017
0.1866639
0.1877051
0.1887156
0.1896896
0.1906301
0.1915472
0.1924525
0.1933555
0.1942615
0.1951716
0.196082
0.196985
0.1978727
0.198741
0.1995916
0.2004307
0.2012666
0.2021087
0.202974
0.2039379
0.2048882
0.2058326
0.2067667
0.2076894
0.208603
0.2095111
0.2104169
0.2113221
0.2122269
0.2131286
0.2140227
0.2149049
0.2157726
0.2166265
0.2174697
0.2183071
0.2191436
0.2199817
0.2208121
0.2215985
0.2223246
0.2229895
0.2235782
0.2240742
0.2244803
0.2248134
0.2250921
0.2253323
0.2255459
0.2257417
0.2259248
0.2260987
0.2262717
0.2264484
0.2266315
0.2268229
0.2270234
0.2272253
0.227425
0.2276168
0.2277964
0.2279661
0.2281052
0.228171
0.2281297
0.2279346
0.2275724
0.2270741
0.226594
0.2261869
0.2258309
0.225504
0.225192
0.2248862
0.2245842
0.2242821
0.2239768
0.2236657
0.2233464
0.2230169
0.2226772
0.2223297
0.2219799
0.2216357
0.2213059
0.2209987
0.2207198
0.2204711
0.2202516
0.2200573
0.2198834
0.2197249
0.2195776
0.2194385
0.2193055
0.2191777
0.2190544
0.2189353
0.21882
0.2187082
0.2185995
0.2184934
0.2183895
0.2182874
0.2181867
0.2180871
0.2179884
0.2178904
0.2177929
0.2176959
0.2175994
0.2175033
0.2174078
0.2173129
0.2172192
0.2171272
0.2170381
0.216953
0.216875
0.2168059
0.216741
0.2166721
0.2165909
0.2164918
0.2163698
0.2162234
0.2160522
0.2158568
0.2156385
0.2153989
0.2151397
0.2148629
0.2145708
0.2142656
0.2139499
0.2136268
0.2132991
0.2129707
0.2126457
0.2123295
0.2120268
0.2117422
0.2114791
0.2112395
0.2110235
0.21083
0.2106574
0.2105021
0.2103614
0.2102327
0.210113
0.2100002
0.2098923
0.2097879
0.2096859
0.2095853
0.2094856
0.2093863
0.2092872
0.209188
0.2090887
0.2089893
0.2088897
0.20879
0.2086907
0.2085894
0.2084767
0.2082913
0.2076746
0.2074571
0.2073337
0.207222
0.2070959
0.2069448
0.2067643
0.2065537
0.2063136
0.2060463
0.2057545
0.2054414
0.2051101
0.204764
0.2044071
0.2040434
0.2036769
0.2033123
0.2029537
0.2026056
0.2022725
0.201959
0.2016696
0.2014067
0.2011729
0.2009686
0.2007927
0.2006431
0.2005173
0.2004128
0.2003281
0.2002634
0.2002212
0.2002077
0.2002329
0.2003013
0.2004082
0.2005446
0.2007033
0.200879
0.2010677
0.2012664
0.2014725
0.2016841
0.2018992
0.2021167
0.202335
0.2025532
0.2027706
0.2029862
0.2031995
0.2034093
0.2036147
0.2038141
0.204006
0.2041889
0.2043615
0.2045229
0.204673
0.2048121
0.204941
0.2050611
0.2051737
0.2052802
0.2053819
0.2054797
0.2055747
0.2056699
0.2057778
0.2059754
0.2061681
0.2063407
0.206491
0.2066203
0.2067351
0.2068444
0.2069586
0.207087
0.2072371
0.2074139
0.2076207
0.207859
0.2081287
0.2084289
0.2087574
0.209111
0.2094859
0.2098772
0.2102794
0.2106868
0.2110931
0.2114923
0.2118785
0.2122466
0.2125924
0.2129128
0.2132063
0.2134724
0.213712
0.2139268
0.2141193
0.2142922
0.2144486
0.2145913
0.2147227
0.2148451
0.2149603
0.2150697
0.2151743
0.2152748
0.2153714
0.2154641
0.2155526
0.215636
0.2157133
0.2157834
0.2158469
0.215905
0.2159588
0.2160093
0.216057
0.2161023
0.2161449
0.2161837
0.2162157
0.2162393
0.2162542
0.2162623
0.2162682
0.2162787
0.2163013
0.2163428
0.2164087
0.2165028
0.2166268
0.2167814
0.2169658
0.2171783
0.2174163
0.2176766
0.2179556
0.218249
0.2185522
0.2188601
0.2191673
0.2194686
0.2197585
0.2200324
0.2202866
0.2205186
0.2207271
0.2209124
0.2210756
0.2212188
0.2213445
0.2214555
0.2215544
0.2216437
0.2217256
0.221802
0.2218743
0.2219437
0.222011
0.222077
0.222142
0.2222064
0.2222705
0.2223344
0.2223982
0.222462
0.2225259
0.2225899
0.2226542
0.2227187
0.2227834
0.2228485
0.222914
0.22298
0.2230465
0.2231136
0.2231811
0.2232491
0.2233177
0.2233869
0.2234568
0.2235275
0.2235992
0.223672
0.2237461
0.2238216
0.2238988
0.2239781
0.2240596
0.224144
0.2242317
0.2243234
0.2244199
0.2245226
0.2246328
0.2247528
0.2248852
0.2250343
0.2252054
0.2254065
0.225648
0.225943
0.2263015
0.2267059
0.2270499
0.03721354
0.04274345
0.04973449
0.0681127
0.08150601
0.1048483
0.110364
0.115466
0.1197112
0.1229455
0.1253192
0.127405
0.129014
0.1303477
0.1318317
0.1334699
0.1352481
0.1371219
0.1390357
0.1409403
0.1427992
0.1445804
0.1462268
0.1477396
0.1491792
0.1506046
0.1520454
0.1535031
0.1549644
0.1564118
0.1577852
0.1701889
0.1713166
0.172387
0.173435
0.1744869
0.1755559
0.1766441
0.1777459
0.1788517
0.1799454
0.181009
0.182037
0.1830374
0.1840257
0.1850165
0.1860178
0.1870288
0.1880417
0.1890501
0.1900355
0.1909871
0.1919037
0.1927943
0.1936716
0.1945465
0.1954257
0.1963111
0.1972001
0.1980855
0.1989579
0.1998108
0.2006437
0.2014624
0.2022755
0.2030939
0.2039367
0.2048829
0.2058252
0.2067643
0.2076953
0.2086157
0.209527
0.2104329
0.2113374
0.2122433
0.2131526
0.2140641
0.2149743
0.2158794
0.2167762
0.2176646
0.2185482
0.2194327
0.2203259
0.2212379
0.2221836
0.2231651
0.2241529
0.2251311
0.2260918
0.2270329
0.2279558
0.2288636
0.2297597
0.2306465
0.2315248
0.2323938
0.233252
0.234098
0.2349317
0.2357547
0.2365702
0.2373832
0.2382021
0.2390421
0.2398974
0.2407643
0.2416385
0.2425158
0.2433924
0.2442654
0.2451328
0.2459928
0.2468444
0.2476864
0.2485178
0.2493377
0.2501459
0.2509426
0.2517288
0.2525062
0.253276
0.2540372
0.254782
0.2554907
0.2561529
0.2567666
0.2573252
0.2578201
0.2582497
0.2586206
0.2589421
0.259224
0.2594753
0.2597035
0.2599148
0.2601141
0.2603058
0.2604934
0.2606787
0.2608625
0.261044
0.2612204
0.2613884
0.2615424
0.2616784
0.2617932
0.2618766
0.2619118
0.2618544
0.2616901
0.2614162
0.2610544
0.2606792
0.2603345
0.2600234
0.2597378
0.2594694
0.2592112
0.2589571
0.2587024
0.2584426
0.2581739
0.2578929
0.2575974
0.2572873
0.2569655
0.2566376
0.2563116
0.2559966
0.2557007
0.25543
0.2551871
0.2549716
0.2547805
0.2546096
0.2544544
0.2543107
0.2541755
0.2540466
0.2539227
0.2538031
0.2536874
0.2535751
0.2534659
0.2533596
0.2532557
0.2531539
0.2530539
0.2529552
0.2528576
0.2527609
0.252665
0.2525697
0.2524749
0.2523806
0.2522867
0.2521935
0.2521009
0.2520093
0.251919
0.2518305
0.251744
0.2516599
0.2515785
0.2514987
0.2514176
0.2513313
0.2512359
0.2511279
0.2510038
0.250862
0.2507
0.2505172
0.2503135
0.2500891
0.2498446
0.2495813
0.2493015
0.2490076
0.2487018
0.248388
0.2480703
0.2477535
0.247443
0.2471441
0.2468618
0.2465997
0.2463601
0.2461437
0.2459497
0.2457761
0.245621
0.2454809
0.2453532
0.2452351
0.2451244
0.245019
0.2449174
0.2448185
0.2447212
0.2446249
0.2445292
0.2444337
0.2443383
0.2442428
0.2441473
0.2440517
0.243956
0.2438603
0.2437638
0.2436612
0.2435321
0.2433229
0.2431226
0.2429405
0.2427709
0.2426055
0.242437
0.2422597
0.2420682
0.2418592
0.2416302
0.2413798
0.2411081
0.2408158
0.2405047
0.2401786
0.2398402
0.2394942
0.2391454
0.2387985
0.2384586
0.2381314
0.2378212
0.237533
0.2372707
0.2370372
0.2368325
0.2366567
0.2365081
0.2363848
0.2362847
0.2362069
0.2361511
0.2361194
0.2361163
0.2361474
0.2362136
0.2363069
0.2364233
0.2365594
0.2367108
0.2368751
0.2370499
0.2372333
0.2374236
0.2376199
0.2378204
0.2380244
0.2382306
0.2384389
0.2386473
0.2388553
0.2390615
0.2392646
0.2394629
0.2396548
0.2398385
0.2400128
0.2401766
0.2403296
0.240472
0.2406044
0.2407278
0.2408439
0.2409534
0.2410576
0.2411573
0.2412542
0.2413493
0.2414478
0.2415632
0.2416905
0.2418237
0.2419583
0.2420907
0.2422194
0.242345
0.24247
0.2425985
0.2427351
0.2428848
0.2430524
0.2432419
0.2434567
0.2436988
0.243969
0.2442664
0.2445889
0.2449329
0.2452936
0.2456654
0.2460421
0.2464172
0.2467843
0.2471378
0.2474726
0.2477852
0.2480731
0.2483355
0.2485727
0.2487858
0.2489771
0.249149
0.2493042
0.2494455
0.2495754
0.2496959
0.2498091
0.2499162
0.2500184
0.2501163
0.2502104
0.2503008
0.2503873
0.2504695
0.2505468
0.2506189
0.2506857
0.250748
0.2508064
0.2508614
0.2509135
0.2509628
0.2510094
0.251053
0.2510929
0.251129
0.2511613
0.2511907
0.2512189
0.2512485
0.2512836
0.2513283
0.2513871
0.2514642
0.251563
0.2516861
0.2518351
0.2520103
0.2522112
0.252436
0.252682
0.2529457
0.2532228
0.2535083
0.2537966
0.2540822
0.2543594
0.2546233
0.2548699
0.2550961
0.2553005
0.2554828
0.2556439
0.2557853
0.2559095
0.2560189
0.256116
0.2562034
0.2562831
0.2563569
0.2564265
0.2564929
0.256557
0.2566195
0.2566809
0.2567416
0.2568017
0.2568615
0.256921
0.2569804
0.2570397
0.257099
0.2571583
0.2572176
0.257277
0.2573366
0.2573963
0.2574563
0.2575166
0.2575771
0.2576381
0.2576995
0.2577614
0.257824
0.2578872
0.2579513
0.2580163
0.2580823
0.2581497
0.2582184
0.2582888
0.2583612
0.2584358
0.2585131
0.2585936
0.258678
0.258767
0.2588616
0.2589633
0.2590737
0.2591951
0.2593305
0.2594839
0.2596601
0.2598651
0.2601048
0.2603818
0.2606833
0.2609463
0.05754755
0.07262728
0.08416096
0.1306583
0.151238
0.1814989
0.184389
0.1858032
0.1856277
0.1847
0.1835807
0.1812139
0.1797336
0.1787789
0.1781755
0.1778028
0.1890991
0.1887448
0.1886678
0.1887842
0.1889909
0.1892522
0.1896043
0.190065
0.1906263
0.1912911
0.1920591
0.1929273
0.1938887
0.1949303
0.1960342
0.1971789
0.1983406
0.1994925
0.2006126
0.2016884
0.2027189
0.2037109
0.2046755
0.2056257
0.2065834
0.207634
0.2086913
0.209709
0.2106902
0.21164
0.2125653
0.2134727
0.2143676
0.2152536
0.2161325
0.2170031
0.2178627
0.2187094
0.2195445
0.220373
0.2212037
0.2220486
0.2229236
0.2238481
0.2247966
0.2257481
0.2266907
0.2276173
0.2285256
0.2294167
0.2302937
0.23116
0.232018
0.2328688
0.2337117
0.2345447
0.2353662
0.2361753
0.2369734
0.2377636
0.2385514
0.2393459
0.2401638
0.241
0.2418513
0.2427125
0.2435795
0.2444484
0.2453166
0.2461815
0.2470423
0.2478979
0.2487481
0.2495927
0.2504314
0.2512644
0.2520926
0.252918
0.2537435
0.2545732
0.2554111
0.2562599
0.2571163
0.2579734
0.2588247
0.2596654
0.2604925
0.2613046
0.2621018
0.2628852
0.2636557
0.2644143
0.2651618
0.2658982
0.2666238
0.267339
0.2680446
0.2687424
0.2694353
0.2701274
0.2708241
0.2715283
0.2722414
0.2729625
0.2736895
0.274419
0.2751475
0.2758717
0.2765885
0.277296
0.2779925
0.2786775
0.2793507
0.2800123
0.2806625
0.281302
0.2819309
0.2825489
0.2831544
0.2837427
0.2843052
0.2848361
0.2853333
0.2857938
0.2862136
0.286591
0.2869281
0.2872287
0.2874978
0.2877404
0.2879614
0.2881653
0.288356
0.2885366
0.2887096
0.2888764
0.2890373
0.2891913
0.2893364
0.2894698
0.2895882
0.2896881
0.2897661
0.2898167
0.2898295
0.2897798
0.2896622
0.2894779
0.2892394
0.2889797
0.2887255
0.2884861
0.2882616
0.2880494
0.2878459
0.287647
0.2874485
0.287246
0.2870355
0.2868135
0.2865778
0.2863282
0.2860667
0.2857982
0.2855291
0.2852671
0.2850191
0.2847905
0.284584
0.2843999
0.2842365
0.2840906
0.2839588
0.2838376
0.2837243
0.283617
0.2835141
0.283415
0.283319
0.2832258
0.2831351
0.2830466
0.28296
0.282875
0.2827914
0.2827089
0.2826274
0.2825466
0.2824665
0.2823869
0.2823077
0.282229
0.2821506
0.2820728
0.2819955
0.2819189
0.2818432
0.2817685
0.281695
0.2816226
0.2815512
0.2814804
0.281409
0.2813352
0.2812567
0.2811712
0.281076
0.2809687
0.2808481
0.280711
0.2805571
0.2803851
0.2801947
0.279987
0.2797619
0.2795218
0.2792689
0.2790063
0.2787378
0.278468
0.2782016
0.2779438
0.277699
0.2774708
0.2772613
0.2770717
0.2769015
0.2767495
0.2766135
0.2764913
0.2763803
0.2762783
0.276183
0.2760928
0.2760062
0.2759221
0.2758396
0.2757582
0.2756773
0.2755967
0.2755163
0.2754359
0.2753554
0.2752749
0.2751945
0.2751141
0.2750333
0.2749504
0.2748594
0.2747495
0.2746274
0.2744994
0.2743681
0.2742342
0.2740967
0.2739536
0.2738021
0.2736394
0.2734625
0.2732693
0.2730583
0.2728291
0.2725821
0.2723191
0.2720432
0.2717573
0.2714657
0.2711728
0.2708833
0.2706023
0.2703346
0.2700848
0.2698566
0.2696525
0.2694742
0.2693213
0.2691931
0.2690879
0.2690045
0.2689416
0.2688992
0.2688783
0.2688811
0.2689101
0.2689654
0.2690393
0.2691299
0.269235
0.2693529
0.2694814
0.2696191
0.2697647
0.2699171
0.2700754
0.2702389
0.2704067
0.2705781
0.2707521
0.2709281
0.2711054
0.2712819
0.2714568
0.2716283
0.271795
0.2719554
0.2721082
0.2722524
0.2723877
0.2725139
0.2726313
0.2727419
0.272845
0.2729422
0.2730346
0.2731228
0.2732079
0.2732908
0.2733732
0.2734586
0.2735485
0.2736432
0.2737419
0.2738429
0.2739448
0.2740466
0.2741483
0.2742511
0.2743573
0.27447
0.2745931
0.2747305
0.2748858
0.2750622
0.2752616
0.2754848
0.2757311
0.2759984
0.2762833
0.2765815
0.2768876
0.2771961
0.2775012
0.2777975
0.2780805
0.2783464
0.2785926
0.278818
0.2790223
0.2792064
0.2793717
0.2795202
0.2796542
0.2797759
0.2798874
0.2799907
0.2800873
0.2801785
0.2802653
0.2803484
0.2804281
0.2805048
0.2805783
0.2806485
0.2807153
0.2807784
0.2808378
0.2808938
0.2809466
0.2809967
0.2810442
0.2810892
0.281132
0.2811724
0.2812104
0.281246
0.2812796
0.2813116
0.2813426
0.2813743
0.2814083
0.2814474
0.2814944
0.2815524
0.2816245
0.2817134
0.2818213
0.2819496
0.2820988
0.2822686
0.2824575
0.2826631
0.2828823
0.2831109
0.2833444
0.2835777
0.283806
0.2840249
0.2842305
0.2844201
0.284592
0.2847458
0.2848818
0.2850014
0.2851061
0.2851982
0.2852797
0.2853526
0.2854188
0.2854798
0.2855369
0.2855912
0.2856434
0.2856941
0.2857438
0.2857928
0.2858413
0.2858894
0.2859373
0.285985
0.2860326
0.2860801
0.2861277
0.2861752
0.2862229
0.2862706
0.2863184
0.2863665
0.2864148
0.2864633
0.2865122
0.2865614
0.2866111
0.2866614
0.2867122
0.2867637
0.286816
0.2868692
0.2869235
0.286979
0.2870359
0.2870944
0.2871549
0.2872175
0.2872829
0.2873513
0.2874236
0.2875004
0.2875828
0.2876719
0.2877694
0.2878771
0.2879976
0.2881335
0.2882879
0.2884636
0.2886608
0.2888713
0.2890568
0.03901082
0.05547523
0.07173492
0.1306254
0.1742862
0.2295463
0.2529829
0.2712308
0.2841583
0.2918985
0.2947558
0.2941827
0.2905655
0.2853002
0.2790092
0.2831935
0.276226
0.269416
0.2629257
0.2568639
0.2513184
0.2463294
0.2419399
0.2381716
0.2350316
0.2325774
0.2306552
0.2291933
0.228133
0.2274023
0.2269231
0.2266443
0.2265581
0.2266773
0.2270282
0.2275659
0.2282538
0.2290639
0.2299729
0.2309599
0.2320051
0.2330888
0.2341911
0.2352933
0.2363787
0.237435
0.2384555
0.2394391
0.2403895
0.2413141
0.2422251
0.2431432
0.2440677
0.2449896
0.2459018
0.2467995
0.2476795
0.2485405
0.2493826
0.2502069
0.2510153
0.2518099
0.2525928
0.2533661
0.2541328
0.2548967
0.2556625
0.2564358
0.2572219
0.2580218
0.2588299
0.25964
0.2604465
0.2612452
0.262033
0.2628082
0.2635705
0.2643204
0.2650588
0.2657864
0.2665036
0.2672106
0.2679074
0.2685941
0.2692718
0.2699421
0.2706081
0.2712742
0.2719463
0.2726278
0.2733202
0.2740233
0.2747347
0.2754521
0.2761711
0.2768887
0.2776023
0.2783098
0.2790103
0.2797034
0.2803894
0.281069
0.2817431
0.282413
0.2830803
0.2837465
0.2844128
0.2850796
0.2857456
0.2864087
0.2870666
0.2877171
0.2883586
0.2889898
0.28961
0.2902191
0.2908173
0.2914048
0.2919819
0.2925491
0.2931067
0.2936552
0.2941955
0.2947288
0.2952569
0.2957821
0.2963072
0.2968345
0.2973656
0.2979011
0.2984403
0.2989814
0.2995219
0.3000592
0.3005907
0.3011145
0.3016291
0.3021335
0.3026274
0.3031109
0.3035839
0.3040468
0.3044994
0.3049416
0.3053721
0.305789
0.306189
0.3065693
0.3069286
0.3072655
0.3075783
0.307866
0.3081291
0.3083688
0.3085872
0.3087867
0.3089697
0.3091388
0.3092963
0.3094442
0.3095841
0.3097169
0.3098429
0.3099613
0.3100708
0.3101695
0.3102552
0.3103258
0.3103789
0.3104113
0.310415
0.3103808
0.3103065
0.3101939
0.3100495
0.3098872
0.3097207
0.3095575
0.3094002
0.3092491
0.3091031
0.3089601
0.3088174
0.308672
0.3085208
0.308361
0.3081907
0.3080097
0.3078193
0.3076228
0.3074249
0.3072309
0.3070461
0.3068744
0.3067183
0.3065785
0.3064541
0.3063432
0.3062434
0.3061523
0.3060678
0.3059883
0.3059125
0.3058397
0.3057693
0.3057009
0.3056343
0.3055692
0.3055055
0.3054428
0.3053812
0.3053203
0.3052601
0.3052005
0.3051413
0.3050826
0.3050242
0.3049661
0.3049083
0.3048509
0.3047939
0.3047373
0.3046813
0.3046259
0.3045712
0.3045171
0.3044635
0.3044101
0.3043565
0.3043017
0.3042447
0.3041839
0.3041177
0.3040444
0.303962
0.30387
0.3037653
0.3036473
0.3035152
0.3033689
0.3032086
0.3030353
0.3028506
0.3026568
0.3024568
0.3022543
0.3020531
0.3018572
0.3016702
0.3014951
0.3013338
0.3011873
0.3010556
0.3009379
0.3008328
0.3007385
0.3006531
0.3005749
0.3005022
0.3004337
0.3003682
0.3003047
0.3002427
0.3001815
0.3001208
0.3000605
0.3000003
0.2999401
0.2998799
0.2998198
0.2997597
0.2996996
0.2996395
0.2995787
0.2995156
0.2994474
0.2993732
0.2992935
0.2992091
0.2991204
0.2990274
0.2989295
0.2988255
0.2987136
0.2985919
0.2984587
0.2983124
0.2981522
0.2979782
0.2977909
0.2975922
0.2973842
0.2971698
0.2969526
0.2967363
0.296525
0.2963225
0.2961328
0.2959588
0.2958029
0.2956665
0.2955498
0.2954525
0.2953736
0.2953122
0.2952673
0.2952387
0.2952265
0.2952316
0.2952549
0.2952958
0.2953488
0.2954128
0.2954867
0.2955694
0.2956599
0.2957573
0.2958609
0.29597
0.2960842
0.2962028
0.2963254
0.2964515
0.2965804
0.2967114
0.2968438
0.2969769
0.2971092
0.2972396
0.2973669
0.2974898
0.2976073
0.2977187
0.2978236
0.2979217
0.2980138
0.2980996
0.2981802
0.2982561
0.298328
0.2983967
0.2984627
0.2985265
0.2985891
0.2986515
0.2987147
0.2987796
0.2988465
0.2989151
0.2989849
0.2990553
0.2991259
0.2991972
0.2992701
0.2993464
0.2994286
0.2995194
0.2996218
0.2997384
0.2998713
0.3000216
0.3001896
0.3003744
0.300574
0.3007855
0.3010052
0.3012288
0.3014522
0.3016709
0.3018812
0.30208
0.3022652
0.3024355
0.3025903
0.3027301
0.3028558
0.3029687
0.3030706
0.303163
0.3032475
0.3033255
0.3033983
0.3034669
0.3035321
0.3035943
0.303654
0.3037114
0.3037665
0.3038194
0.30387
0.3039182
0.3039641
0.3040076
0.304049
0.3040883
0.3041257
0.3041614
0.3041953
0.3042275
0.3042581
0.3042871
0.3043148
0.3043415
0.3043674
0.3043934
0.3044204
0.3044498
0.3044834
0.3045232
0.3045712
0.3046296
0.3047004
0.3047849
0.3048843
0.3049987
0.3051277
0.30527
0.3054235
0.3055854
0.3057524
0.3059207
0.3060866
0.3062467
0.3063979
0.3065381
0.3066656
0.3067801
0.3068815
0.3069707
0.3070489
0.3071176
0.3071781
0.3072321
0.3072809
0.3073257
0.3073675
0.307407
0.3074449
0.3074817
0.3075176
0.307553
0.3075879
0.3076226
0.307657
0.3076914
0.3077256
0.3077598
0.307794
0.3078282
0.3078624
0.3078967
0.3079312
0.3079657
0.3080004
0.3080354
0.3080705
0.308106
0.3081418
0.308178
0.3082146
0.3082518
0.3082895
0.308328
0.3083672
0.3084073
0.3084485
0.3084908
0.3085346
0.30858
0.3086273
0.3086769
0.3087292
0.3087847
0.308844
0.308908
0.3089775
0.3090537
0.3091379
0.3092316
0.3093362
0.309453
0.3095817
0.3097174
0.3098369
0.01184626
0.06036081
0.09468673
0.1255131
0.1521624
0.1764961
0.2011106
0.2250132
0.2485278
0.2719553
0.3003924
0.3168712
0.3297072
0.3379163
0.3422286
0.3430366
0.340737
0.3367186
0.3317189
0.3259115
0.3187983
0.3122325
0.3060043
0.3000276
0.2943336
0.2889853
0.2840473
0.2795782
0.27562
0.2721992
0.2693306
0.2669865
0.2651272
0.2637008
0.2626479
0.2619064
0.261426
0.2611789
0.2611512
0.2613295
0.2616895
0.2622033
0.2628433
0.2635838
0.2644023
0.2652769
0.2661889
0.2671209
0.2680569
0.2689837
0.2698906
0.2707706
0.2716203
0.2724399
0.2732329
0.274005
0.2747643
0.2755161
0.276262
0.2770007
0.2777299
0.2784466
0.2791483
0.2798337
0.2805022
0.281155
0.2817936
0.2824204
0.283038
0.2836491
0.2842563
0.2848625
0.2854698
0.28608
0.286693
0.2873075
0.2879218
0.2885337
0.2891412
0.2897425
0.2903361
0.2909209
0.2914964
0.2920625
0.292619
0.2931662
0.2937042
0.2942334
0.2947541
0.2952673
0.2957742
0.2962767
0.2967772
0.2972786
0.2977837
0.2982941
0.2988108
0.2993331
0.2998603
0.3003888
0.3009168
0.3014418
0.301962
0.3024761
0.3029835
0.3034839
0.3039779
0.3044658
0.3049485
0.3054267
0.3059011
0.3063722
0.3068404
0.3073053
0.3077665
0.3082235
0.3086753
0.3091214
0.3095611
0.3099937
0.3104189
0.3108366
0.3112465
0.3116486
0.3120432
0.3124302
0.3128102
0.3131837
0.3135516
0.3139149
0.3142752
0.3146338
0.3149923
0.3153516
0.3157124
0.3160745
0.3164371
0.3167988
0.317158
0.3175131
0.3178626
0.3182054
0.3185407
0.3188679
0.319187
0.3194977
0.3198003
0.3200947
0.3203808
0.3206583
0.3209265
0.3211844
0.3214309
0.3216654
0.3218873
0.3220961
0.3222911
0.3224724
0.3226403
0.3227955
0.3229388
0.3230714
0.3231943
0.3233088
0.3234158
0.3235162
0.3236107
0.3236993
0.3237816
0.3238569
0.323924
0.3239818
0.324029
0.3240642
0.3240855
0.3240878
0.3240682
0.3240263
0.3239633
0.3238825
0.3237897
0.3236911
0.3235912
0.3234923
0.3233954
0.3233005
0.3232068
0.323113
0.3230172
0.3229175
0.3228122
0.3227
0.3225807
0.322455
0.3223249
0.3221934
0.3220639
0.3219397
0.3218236
0.3217174
0.3216217
0.3215363
0.3214601
0.3213918
0.3213298
0.3212728
0.3212195
0.321169
0.3211207
0.3210741
0.3210289
0.3209848
0.3209416
0.3208993
0.3208577
0.3208167
0.3207762
0.3207362
0.3206964
0.320657
0.3206179
0.320579
0.3205404
0.320502
0.3204638
0.3204258
0.3203882
0.3203509
0.3203139
0.3202773
0.320241
0.320205
0.3201691
0.3201332
0.3200968
0.3200592
0.3200199