/*--------------------------------*- C++ -*----------------------------------*\
| =========                 |                                                 |
| \\      /  F ield         | foam-extend: Open Source CFD                    |
|  \\    /   O peration     | Version:     3.1                                |
|   \\  /    A nd           | Web:         http://www.extend-project.de       |
|    \\/     M anipulation  |                                                 |
\*---------------------------------------------------------------------------*/
FoamFile
{
    version     2.0;
    format      ascii;
    class       volScalarField;
    location    "18";
    object      alpha;
}
// * * * * * * * * * * * * * * * * * * * * * * * * * * * * * * * * * * * * * //

dimensions      [0 0 -1 0 0 0 0];

internalField   nonuniform List<scalar> 
2539
(
0.00548165
0.00549061
0.00550464
0.0055185
0.00553243
0.00554641
0.00556044
0.00557453
0.00558867
0.00560286
0.00561711
0.00563142
0.00564578
0.0056602
0.00567468
0.00568921
0.00570379
0.00571844
0.00573314
0.0057479
0.00576272
0.0057776
0.00579253
0.00580753
0.00582258
0.00583769
0.00585287
0.0058681
0.0058834
0.00589875
0.00591417
0.00592965
0.00594519
0.0059608
0.00597646
0.00599219
0.00600799
0.00602384
0.00603977
0.00605575
0.0060718
0.00608792
0.0061041
0.00612035
0.00613667
0.00615305
0.0061695
0.00618602
0.0062026
0.00621926
0.00623598
0.00625277
0.00626963
0.00628657
0.00630357
0.00632064
0.00633779
0.006355
0.00637229
0.00638965
0.00640709
0.0064246
0.00644218
0.00645984
0.00647757
0.00649537
0.00651326
0.00653121
0.00654925
0.00656736
0.00658555
0.00660382
0.00662217
0.00664059
0.0066591
0.00667769
0.00669635
0.0067151
0.00673393
0.00675284
0.00677183
0.00679091
0.00681007
0.00682931
0.00684864
0.00686806
0.00688756
0.00690714
0.00692681
0.00694657
0.00696642
0.00698636
0.00700638
0.0070265
0.00704671
0.007067
0.00708739
0.00710787
0.00712844
0.00714911
0.00716987
0.00719072
0.00721167
0.00723271
0.00725385
0.00727509
0.00729642
0.00731786
0.00733939
0.00736102
0.00738275
0.00740458
0.00742652
0.00744855
0.00747069
0.00749293
0.00751528
0.00753773
0.00756029
0.00758295
0.00760572
0.0076286
0.00765159
0.00767468
0.00769789
0.00772121
0.00774464
0.00776818
0.00779183
0.0078156
0.00783949
0.00786348
0.0078876
0.00791183
0.00793618
0.00796065
0.00798524
0.00800995
0.00803479
0.00805974
0.00808482
0.00811002
0.00813535
0.0081608
0.00818638
0.00821209
0.00823792
0.00826389
0.00828998
0.00831621
0.00834257
0.00836907
0.0083957
0.00842246
0.00844936
0.0084764
0.00850358
0.00853089
0.00855835
0.00858595
0.00861369
0.00864158
0.00866961
0.00869779
0.00872611
0.00875459
0.00878321
0.00881199
0.00884091
0.00886999
0.00889923
0.00892861
0.00895816
0.00898786
0.00901773
0.00904775
0.00907794
0.00910829
0.0091388
0.00916948
0.00920033
0.00923134
0.00926253
0.00929388
0.00932958
0.00416632
0.00418057
0.00418527
0.00418948
0.00419367
0.00419787
0.00420207
0.00420628
0.00421049
0.00421472
0.00421895
0.00422318
0.00422743
0.00423168
0.00423593
0.0042402
0.00424447
0.00424875
0.00425303
0.00425733
0.00426163
0.00426593
0.00427025
0.00427457
0.0042789
0.00428323
0.00428757
0.00429192
0.00429628
0.00430065
0.00430502
0.0043094
0.00431378
0.00431818
0.00432258
0.00432699
0.0043314
0.00433583
0.00434026
0.00434469
0.00434914
0.00435359
0.00435805
0.00436252
0.004367
0.00437148
0.00437597
0.00438047
0.00438498
0.00438949
0.00439401
0.00439854
0.00440308
0.00440762
0.00441217
0.00441673
0.0044213
0.00442588
0.00443046
0.00443505
0.00443965
0.00444426
0.00444887
0.0044535
0.00445813
0.00446276
0.00446741
0.00447207
0.00447673
0.0044814
0.00448608
0.00449077
0.00449546
0.00450016
0.00450487
0.00450959
0.00451432
0.00451906
0.0045238
0.00452855
0.00453332
0.00453808
0.00454286
0.00454765
0.00455244
0.00455724
0.00456205
0.00456687
0.0045717
0.00457654
0.00458138
0.00458624
0.0045911
0.00459597
0.00460085
0.00460574
0.00461063
0.00461554
0.00462045
0.00462537
0.0046303
0.00463524
0.00464019
0.00464515
0.00465012
0.00465509
0.00466008
0.00466507
0.00467007
0.00467508
0.0046801
0.00468513
0.00469017
0.00469522
0.00470027
0.00470534
0.00471041
0.0047155
0.00472059
0.00472569
0.0047308
0.00473592
0.00474105
0.00474619
0.00475134
0.0047565
0.00476167
0.00476684
0.00477203
0.00477722
0.00478243
0.00478764
0.00479287
0.0047981
0.00480335
0.0048086
0.00481386
0.00481913
0.00482442
0.00482971
0.00483501
0.00484032
0.00484564
0.00485097
0.00485631
0.00486166
0.00486703
0.0048724
0.00487778
0.00488317
0.00488857
0.00489398
0.0048994
0.00490483
0.00491027
0.00491573
0.00492119
0.00492666
0.00493214
0.00493763
0.00494314
0.00494865
0.00495417
0.00495971
0.00496525
0.00497081
0.00497638
0.00498195
0.00498754
0.00499314
0.00499874
0.00500436
0.00500999
0.00501563
0.00502129
0.00502695
0.00503262
0.0050383
0.005044
0.00504971
0.00505542
0.00506115
0.00506689
0.00507264
0.0050784
0.00508417
0.00508996
0.00509575
0.00510156
0.00510737
0.0051132
0.00511904
0.00512489
0.00513075
0.00513663
0.00514251
0.00514841
0.00515426
0.00516137
0.00514327
0.0026878
0.00301413
0.00344069
0.00372662
0.00392016
0.00406406
0.00418046
0.00428086
0.00437139
0.00445544
0.004535
0.00461125
0.00468498
0.00475671
0.0048268
0.00489554
0.00496313
0.00502974
0.00509551
0.00516056
0.00522497
0.00528882
0.0053522
0.00541516
0.00547776
0.00554005
0.00560206
0.00566384
0.00572543
0.00578685
0.00584814
0.00590933
0.00597043
0.00603148
0.00609249
0.00615349
0.0062145
0.00627553
0.0063366
0.00639773
0.00645893
0.00652022
0.00658162
0.00664314
0.00670478
0.00676658
0.00682853
0.00689066
0.00695297
0.00701548
0.0070782
0.00714115
0.00720433
0.00726776
0.00733146
0.00739543
0.00745969
0.00752426
0.00758914
0.00765436
0.00771993
0.00778587
0.00785218
0.0079189
0.00798604
0.00805362
0.00812166
0.00819019
0.00825923
0.00832881
0.00839896
0.0084697
0.00854109
0.00861315
0.00868594
0.0087595
0.00883388
0.00890916
0.00898541
0.0090627
0.00914114
0.00922085
0.00930196
0.00938463
0.00946907
0.00955552
0.00964428
0.00973574
0.00983039
0.00992884
0.0100319
0.0101406
0.0102562
0.0103804
0.0105153
0.0106634
0.0108277
0.0110113
0.0112172
0.0114473
0.0120813
0.0123747
0.0126531
0.0129187
0.0131732
0.013418
0.0136543
0.013883
0.014105
0.014321
0.0145314
0.0147369
0.0149379
0.0151346
0.0153276
0.015517
0.0157031
0.0158861
0.0160663
0.0162439
0.0164189
0.0165916
0.0167621
0.0169305
0.017097
0.0172615
0.0174243
0.0175855
0.017745
0.017903
0.0180596
0.0182147
0.0183686
0.0185211
0.0186725
0.0188227
0.0189718
0.0191197
0.0192667
0.0194126
0.0195576
0.0197017
0.0198449
0.0199872
0.0201286
0.0202693
0.0204091
0.0205483
0.0206866
0.0208243
0.0209613
0.0210976
0.0212332
0.0213682
0.0215026
0.0216364
0.0217696
0.0219023
0.0220344
0.0221659
0.0222969
0.0224275
0.0225575
0.022687
0.022816
0.0229446
0.0230728
0.0232004
0.0233277
0.0234545
0.0235809
0.0237069
0.0238325
0.0239577
0.0240826
0.024207
0.0243311
0.0244548
0.0245782
0.0247012
0.0248239
0.0249463
0.0250683
0.02519
0.0253114
0.0254325
0.0255533
0.0256738
0.025794
0.0259139
0.0260335
0.0261528
0.0262718
0.0263905
0.0265093
0.0266284
0.0267481
0.0268671
0.026981
0.0270821
0.0271665
0.0272428
0.0273189
0.027395
0.0274709
0.0275467
0.0276225
0.0276981
0.0277736
0.0278489
0.0279242
0.0279994
0.0280745
0.0281494
0.0282243
0.0282991
0.0283737
0.0284483
0.0285227
0.0285971
0.0286714
0.0287455
0.0288196
0.0288936
0.0289674
0.0290412
0.0291149
0.0291885
0.029262
0.0293354
0.0294087
0.029482
0.0295551
0.0296282
0.0297011
0.029774
0.0298468
0.0299195
0.0299921
0.0300646
0.0301371
0.0302094
0.0302817
0.0303539
0.030426
0.0304981
0.03057
0.0306419
0.0307137
0.0307854
0.030857
0.0309285
0.031
0.0310714
0.0311427
0.031214
0.0312851
0.0313562
0.0314272
0.0314981
0.031569
0.0316398
0.0317105
0.0317811
0.0318517
0.0319222
0.0319926
0.032063
0.0321333
0.0322035
0.0322736
0.0323437
0.0324137
0.0324836
0.0325535
0.0326233
0.032693
0.0327626
0.0328322
0.0329017
0.0329712
0.0330406
0.0331099
0.0331792
0.0332483
0.0333175
0.0333865
0.0334555
0.0335245
0.0335933
0.0336621
0.0337309
0.0337995
0.0338682
0.0339367
0.0340052
0.0340736
0.034142
0.0342103
0.0342785
0.0343467
0.0344148
0.0344829
0.0345509
0.0346189
0.0346867
0.0347546
0.0348223
0.03489
0.0349577
0.0350253
0.0350928
0.0351603
0.0352277
0.0352951
0.0353624
0.0354296
0.0354968
0.0355639
0.035631
0.035698
0.035765
0.0358319
0.0358988
0.0359656
0.0360323
0.036099
0.0361657
0.0362322
0.0362988
0.0363652
0.0364317
0.036498
0.0365643
0.0366306
0.0366968
0.036763
0.0368291
0.0368951
0.0369611
0.0370271
0.037093
0.0371588
0.0372246
0.0372904
0.0373561
0.0374217
0.0374873
0.0375528
0.0376183
0.0376838
0.0377492
0.0378145
0.0378798
0.037945
0.0380102
0.0380754
0.0381405
0.0382055
0.0382705
0.0383355
0.0384004
0.0384652
0.03853
0.0385948
0.0386595
0.0387241
0.0387887
0.0388533
0.0389178
0.0389823
0.0390467
0.0391111
0.0391754
0.0392397
0.0393039
0.0393681
0.0394323
0.0394964
0.0395604
0.0396244
0.0396884
0.0397523
0.0398162
0.03988
0.0399438
0.0400075
0.0400712
0.0401348
0.0401984
0.040262
0.0403255
0.040389
0.0404524
0.0405158
0.0405791
0.0406424
0.0407056
0.0407688
0.040832
0.0408951
0.0409581
0.0410212
0.0410842
0.0411471
0.04121
0.0412728
0.0413357
0.0413984
0.0414611
0.0415238
0.0415865
0.0416491
0.0417116
0.0417741
0.0418366
0.041899
0.0419614
0.0420237
0.042086
0.0421483
0.0422105
0.0422727
0.0423348
0.0423969
0.042459
0.042521
0.042583
0.0426449
0.0427068
0.0427686
0.0428304
0.0428922
0.0429539
0.0430156
0.0430773
0.0431389
0.0432004
0.0432619
0.0433234
0.0433849
0.0434463
0.0435076
0.043569
0.0436302
0.0436915
0.0437527
0.0438139
0.043875
0.0439361
0.0439971
0.0440581
0.0441191
0.04418
0.0442409
0.0443017
0.0443626
0.0444233
0.0444841
0.0445448
0.0446054
0.044666
0.0447266
0.0447871
0.0448477
0.0449081
0.0449685
0.0450289
0.0450893
0.0451496
0.0452099
0.0452701
0.0453303
0.0453904
0.0454506
0.0455106
0.0455707
0.0456307
0.0456907
0.0457506
0.0458105
0.0458703
0.0459302
0.0459899
0.0460497
0.0461094
0.0461691
0.0462287
0.0462883
0.0463479
0.0464074
0.0464669
0.0465263
0.0465857
0.0466451
0.0467044
0.0467637
0.046823
0.0468822
0.0469414
0.0470006
0.0470597
0.0471188
0.0471778
0.0472368
0.0472958
0.0473547
0.0474136
0.0474725
0.0475313
0.0475901
0.0476489
0.0477076
0.0477663
0.0478249
0.0478835
0.0479421
0.0480007
0.0480592
0.0481176
0.0481761
0.0482345
0.0482928
0.0483512
0.0484094
0.0484677
0.0485259
0.0485841
0.0486423
0.0487004
0.0487585
0.0488165
0.0488745
0.0489325
0.0489904
0.0490483
0.0491062
0.049164
0.0492219
0.0492796
0.0493373
0.049395
0.0494527
0.0495104
0.0495681
0.0496257
0.0496828
0.0497388
0.0497946
0.049855
0.0499256
0.0500021
0.0500785
0.0501549
0.0502312
0.0503075
0.0503838
0.05046
0.0505361
0.0506122
0.0506882
0.0507643
0.0508402
0.0509161
0.050992
0.0510678
0.0511436
0.0512193
0.051295
0.0513706
0.0514462
0.0515218
0.0515973
0.0516727
0.0517481
0.0518235
0.0518988
0.0519741
0.0520493
0.0521245
0.0521996
0.0522747
0.0523497
0.0524247
0.0524997
0.0525746
0.0526494
0.0527242
0.052799
0.0528737
0.0529484
0.053023
0.0530976
0.0531722
0.0532467
0.0533211
0.0533955
0.0534699
0.0535442
0.0536185
0.0536927
0.0537669
0.0538411
0.0539152
0.0539892
0.0540632
0.0541372
0.0542111
0.054285
0.0543589
0.0544326
0.0545064
0.0545801
0.0546538
0.0547274
0.0548009
0.0548745
0.0549479
0.0550214
0.0550948
0.0551681
0.0552414
0.0553147
0.0553879
0.0554611
0.0555343
0.0556073
0.0556804
0.0557534
0.0558264
0.0558993
0.0559722
0.056045
0.0561178
0.0561905
0.0562632
0.0563359
0.0564085
0.0564811
0.0565536
0.0566261
0.0566986
0.056771
0.0568433
0.0569156
0.0569879
0.0570601
0.0571323
0.0572045
0.0572766
0.0573487
0.0574207
0.0574927
0.0575646
0.0576365
0.0577083
0.0577801
0.0578519
0.0579236
0.0579953
0.058067
0.0581386
0.0582101
0.0582816
0.0583531
0.0584245
0.0584959
0.0585673
0.0586386
0.0587098
0.058781
0.0588522
0.0589234
0.0589945
0.0590655
0.0591365
0.0592075
0.0592784
0.0593493
0.0594201
0.059491
0.0595617
0.0596324
0.0597031
0.0597737
0.0598443
0.0599149
0.0599854
0.0600559
0.0601263
0.0601967
0.060267
0.0603374
0.0604076
0.0604778
0.060548
0.0606182
0.0606883
0.0607583
0.0608283
0.0608983
0.0609683
0.0610381
0.061108
0.0611778
0.0612476
0.0613173
0.061387
0.0614567
0.0615263
0.0615958
0.0616654
0.0617348
0.0618043
0.0618737
0.0619431
0.0620124
0.0620816
0.0621509
0.0622201
0.0622894
0.0623585
0.0624273
0.0624954
0.0625634
0.0626351
0.0627152
0.0627975
0.0628429
0.0925867
0.0924811
0.0924466
0.0924783
0.0925026
0.0925253
0.0925457
0.0925583
0.0925598
0.0925536
0.0925456
0.0925356
0.0925191
0.0924932
0.0924603
0.0924232
0.0923797
0.0923303
0.092274
0.0922105
0.0921427
0.0920696
0.0919926
0.0919106
0.0918205
0.0917225
0.0916174
0.0915069
0.0913923
0.0912725
0.0911446
0.0910092
0.090868
0.0907226
0.0905732
0.090418
0.0902579
0.0900916
0.0899168
0.0897366
0.0895528
0.0893607
0.0891598
0.0889547
0.0887452
0.0885299
0.0883103
0.0880856
0.0878538
0.0876167
0.0873755
0.0871292
0.0868747
0.0866128
0.0863449
0.0860728
0.0857965
0.085515
0.0852293
0.0849383
0.0846389
0.0843318
0.0840189
0.0837027
0.0833839
0.083061
0.0827329
0.0823967
0.0820533
0.0817038
0.0813499
0.0809913
0.0806267
0.0802579
0.0798851
0.079507
0.0791248
0.078737
0.0783402
0.077935
0.0775237
0.0771098
0.0766959
0.0762817
0.0758668
0.0754489
0.0750168
0.0745554
0.0740607
0.0735532
0.073086
0.0727289
0.0725156
0.0723511
0.0719544
0.0709436
0.0691473
0.0670457
0.0659826
0.067897
0.0744373
0.0572253
0.0653062
0.0653753
0.0654444
0.0655135
0.0655825
0.0656514
0.0657204
0.0657892
0.0658581
0.0659269
0.0659957
0.0660644
0.0661331
0.0662017
0.0662703
0.0663389
0.0664074
0.0664759
0.0665443
0.0666127
0.0666811
0.0667494
0.0668176
0.0668859
0.0669541
0.0670222
0.0670904
0.0671584
0.0672265
0.0672945
0.0673624
0.0674303
0.0674982
0.0675661
0.0676339
0.0677016
0.0677693
0.067837
0.0679047
0.0679722
0.0680398
0.0681073
0.0681748
0.0682422
0.0683096
0.068377
0.0684443
0.0685116
0.0685788
0.068646
0.0687132
0.0687803
0.0688474
0.0689144
0.0689814
0.0690484
0.0691153
0.0691822
0.069249
0.0693158
0.0693826
0.0694493
0.069516
0.0695827
0.0696493
0.0697158
0.0697823
0.0698488
0.0699153
0.0699817
0.0700481
0.0701144
0.0701807
0.0702469
0.0703131
0.0703793
0.0704454
0.0705115
0.0705776
0.0706436
0.0707096
0.0707754
0.0708409
0.0709065
0.0709738
0.0710441
0.0711133
0.0711643
0.0711801
0.0711762
0.0711724
0.0711685
0.0711646
0.0711608
0.0711569
0.071153
0.0711492
0.0711453
0.0711415
0.0711376
0.0711338
0.0711299
0.0711261
0.0711222
0.0711184
0.0711145
0.0711107
0.0711069
0.071103
0.0710992
0.0710954
0.0710915
0.0710877
0.0710839
0.0710801
0.0710763
0.0710724
0.0710686
0.0710648
0.071061
0.0710572
0.0710534
0.0710496
0.0710458
0.071042
0.0710382
0.0710344
0.0710306
0.0710269
0.0710231
0.0710193
0.0710155
0.0710117
0.0710079
0.0710042
0.0710004
0.0709966
0.0709929
0.0709891
0.0709853
0.0709816
0.0709778
0.0709741
0.0709703
0.0709666
0.0709628
0.0709591
0.0709553
0.0709516
0.0709478
0.0709441
0.0709404
0.0709366
0.0709329
0.0709292
0.0709254
0.0709217
0.070918
0.0709143
0.0709106
0.0709068
0.0709031
0.0708994
0.0708957
0.070892
0.0708883
0.0708846
0.0708809
0.0708772
0.0708735
0.0708698
0.0708661
0.0708624
0.0708587
0.070855
0.0708514
0.0708477
0.070844
0.0708403
0.0708366
0.070833
0.0708293
0.0708256
0.070822
0.0708183
0.0708146
0.070811
0.0708073
0.0708037
0.0708
0.0707964
0.0707927
0.0707891
0.0707854
0.0707818
0.0707781
0.0707745
0.0707709
0.0707672
0.0707636
0.07076
0.0707564
0.0707527
0.0707491
0.0707455
0.0707419
0.0707383
0.0707346
0.070731
0.0707274
0.0707238
0.0707202
0.0707166
0.070713
0.0707094
0.0707058
0.0707022
0.0706986
0.070695
0.0706914
0.0706878
0.0706843
0.0706807
0.0706771
0.0706735
0.0706699
0.0706664
0.0706628
0.0706592
0.0706557
0.0706521
0.0706485
0.070645
0.0706414
0.0706379
0.0706343
0.0706308
0.0706272
0.0706237
0.0706201
0.0706166
0.070613
0.0706095
0.0706059
0.0706024
0.0705989
0.0705953
0.0705918
0.0705883
0.0705848
0.0705812
0.0705777
0.0705742
0.0705707
0.0705672
0.0705636
0.0705601
0.0705566
0.0705531
0.0705496
0.0705461
0.0705426
0.0705391
0.0705356
0.0705321
0.0705286
0.0705251
0.0705216
0.0705182
0.0705147
0.0705112
0.0705077
0.0705042
0.0705008
0.0704973
0.0704938
0.0704903
0.0704869
0.0704834
0.0704799
0.0704765
0.070473
0.0704696
0.0704661
0.0704627
0.0704592
0.0704558
0.0704523
0.0704489
0.0704454
0.070442
0.0704385
0.0704351
0.0704317
0.0704282
0.0704248
0.0704214
0.0704179
0.0704145
0.0704111
0.0704077
0.0704043
0.0704008
0.0703974
0.070394
0.0703906
0.0703872
0.0703838
0.0703804
0.070377
0.0703736
0.0703702
0.0703668
0.0703634
0.07036
0.0703566
0.0703532
0.0703498
0.0703464
0.070343
0.0703397
0.0703363
0.0703329
0.0703295
0.0703262
0.0703228
0.0703194
0.0703161
0.0703127
0.0703093
0.070306
0.0703026
0.0702992
0.0702959
0.0702925
0.0702892
0.0702858
0.0702825
0.0702791
0.0702758
0.0702725
0.0702691
0.0702658
0.0702624
0.0702591
0.0702558
0.0702524
0.0702491
0.0702458
0.0702425
0.0702391
0.0702358
0.0702325
0.0702292
0.0702259
0.0702226
0.0702193
0.0702159
0.0702126
0.0702093
0.070206
0.0702027
0.0701994
0.0701961
0.0701928
0.0701895
0.0701864
0.0701834
0.0701802
0.0701753
0.0701681
0.0701635
0.070177
0.07022
0.0702404
0.0700596
0.0695226
0.0691582
0.0710215
0.0776372
0.0834922
0.0648848
0.0253891
0.00611571
0.0026376
0.0023059
0.00228879
0.00228503
0.00228175
0.00227895
0.00227737
0.0022766
0.00227585
0.00227511
0.00227437
0.00227365
0.00227292
0.0022722
0.00227149
0.00227078
0.00227008
0.00226938
0.00226868
0.00226799
0.0022673
0.00226662
0.00226594
0.00226526
0.00226459
0.00226392
0.00226326
0.0022626
0.00226194
0.00226128
0.00226063
0.00225998
0.00225934
0.00225869
0.00225805
0.00225741
0.00225678
0.00225615
0.00225552
0.00225489
0.00225426
0.00225364
0.00225302
0.0022524
0.00225179
0.00225118
0.00225057
0.00224996
0.00224935
0.00224875
0.00224815
0.00224755
0.00224695
0.00224636
0.00224577
0.00224518
0.00224459
0.002244
0.00224342
0.00224284
0.00224226
0.00224169
0.00224111
0.00224054
0.00223997
0.0022394
0.00223884
0.00223828
0.00223772
0.00223716
0.0022366
0.00223605
0.0022355
0.00223495
0.0022344
0.00223386
0.00223332
0.00223278
0.00223224
0.00223171
0.00223117
0.00223064
0.00223012
0.00222959
0.00222907
0.00222855
0.00222803
0.00222752
0.002227
0.00222649
0.00222598
0.00222548
0.00222497
0.00222447
0.00222398
0.00222348
0.00222298
0.00222249
0.002222
0.00222152
0.00222103
0.00222055
0.00222007
0.00221959
0.00221912
0.00221865
0.00221818
0.00221771
0.00221724
0.00221678
0.00221632
0.00221586
0.0022154
0.00221495
0.0022145
0.00221405
0.0022136
0.00221316
0.00221271
0.00221227
0.00221183
0.0022114
0.00221096
0.00221053
0.0022101
0.00220967
0.00220925
0.00220882
0.0022084
0.00220798
0.00220757
0.00220715
0.00220674
0.00220633
0.00220592
0.00220551
0.00220511
0.0022047
0.0022043
0.0022039
0.00220351
0.00220311
0.00220272
0.00220233
0.00220194
0.00220155
0.00220117
0.00220078
0.0022004
0.00220002
0.00219964
0.00219927
0.00219889
0.00219852
0.00219815
0.00219778
0.00219741
0.00219705
0.00219668
0.00219632
0.00219596
0.0021956
0.00219525
0.00219489
0.00219454
0.00219419
0.00219383
0.00219349
0.00219314
0.00219279
0.00219245
0.0021921
0.00219176
0.00219142
0.00219108
0.00219075
0.00219041
0.00219008
0.00218975
0.00218941
0.00218908
0.00218875
0.00218843
0.0021881
0.00218778
0.00218745
0.00218713
0.00218681
0.00218649
0.00218617
0.00218585
0.00218554
0.00218522
0.00218491
0.0021846
0.00218429
0.00218398
0.00218367
0.00218336
0.00218306
0.00218275
0.00218245
0.00218215
0.00218185
0.00218155
0.00218125
0.00218095
0.00218065
0.00218036
0.00218007
0.00217977
0.00217948
0.00217919
0.00217891
0.00217862
0.00217834
0.00217805
0.00217777
0.00217749
0.00217721
0.00217693
0.00217666
0.00217638
0.00217611
0.00217584
0.00217557
0.0021753
0.00217503
0.00217477
0.0021745
0.00217424
0.00217398
0.00217372
0.00217347
0.00217321
0.00217296
0.00217271
0.00217246
0.00217222
0.00217197
0.00217173
0.00217149
0.00217125
0.00217102
0.00217079
0.00217056
0.00217033
0.0021701
0.00216988
0.00216966
0.00216944
0.00216922
0.00216901
0.00216879
0.00216858
0.00216838
0.00216817
0.00216797
0.00216777
0.00216758
0.00216738
0.00216719
0.002167
0.00216681
0.00216663
0.00216645
0.00216627
0.00216609
0.00216592
0.00216574
0.00216557
0.00216541
0.00216524
0.00216508
0.00216491
0.00216475
0.0021646
0.00216444
0.00216428
0.00216413
0.00216398
0.00216383
0.00216368
0.00216353
0.00216339
0.00216324
0.0021631
0.00216296
0.00216281
0.00216267
0.00216253
0.00216239
0.00216225
0.00216211
0.00216197
0.00216183
0.00216169
0.00216155
0.00216141
0.00216127
0.00216113
0.00216099
0.00216085
0.00216071
0.00216057
0.00216043
0.00216028
0.00216014
0.00216
0.00215985
0.0021597
0.00215956
0.00215941
0.00215926
0.00215912
0.00215897
0.00215882
0.00215867
0.00215852
0.00215836
0.00215821
0.00215806
0.00215791
0.00215775
0.0021576
0.00215745
0.00215729
0.00215714
0.00215699
0.00215684
0.00215668
0.00215653
0.00215638
0.00215623
0.00215608
0.00215593
0.00215579
0.00215564
0.00215549
0.00215535
0.00215521
0.00215507
0.00215493
0.0021548
0.00215466
0.00215453
0.00215441
0.00215428
0.00215416
0.00215404
0.00215392
0.0021538
0.00215369
0.00215358
0.00215348
0.00215338
0.00215328
0.00215319
0.00215309
0.00215301
0.00215292
0.00215285
0.00215277
0.0021527
0.00215263
0.00215257
0.00215251
0.00215245
0.0021524
0.00215236
0.00215231
0.00215228
0.00215224
0.00215221
0.00215219
0.00215217
0.00215215
0.00215214
0.00215213
0.00215213
0.00215213
0.00215214
0.00215215
0.00215216
0.00215218
0.0021522
0.00215223
0.00215226
0.0021523
0.00215234
0.00215238
0.00215243
0.00215248
0.00215254
0.0021526
0.00215267
0.00215274
0.00215281
0.00215289
0.00215297
0.00215306
0.00215315
0.00215325
0.00215334
0.00215345
0.00215356
0.00215367
0.00215378
0.0021539
0.00215403
0.00215416
0.00215429
0.00215442
0.00215456
0.00215471
0.00215486
0.00215501
0.00215517
0.00215533
0.0021555
0.00215566
0.00215584
0.00215602
0.0021562
0.00215639
0.00215658
0.00215677
0.00215697
0.00215717
0.00215738
0.0021576
0.00215781
0.00215803
0.00215826
0.00215849
0.00215872
0.00215896
0.00215921
0.00215945
0.00215971
0.00215996
0.00216023
0.00216049
0.00216076
0.00216104
0.00216132
0.00216161
0.0021619
0.00216219
0.0021625
0.0021628
0.00216311
0.00216343
0.00216375
0.00216408
0.00216441
0.00216475
0.00216509
0.00216544
0.00216579
0.00216615
0.00216652
0.00216689
0.00216727
0.00216765
0.00216804
0.00216844
0.00216884
0.00216925
0.00216967
0.00217009
0.00217052
0.00217095
0.0021714
0.00217185
0.0021723
0.00217277
0.00217324
0.00217372
0.00217421
0.0021747
0.0021752
0.00217571
0.00217623
0.00217676
0.0021773
0.00217784
0.0021784
0.00217896
0.00217953
0.00218012
0.00218071
0.00218131
0.00218192
0.00218255
0.00218318
0.00218383
0.00218448
0.00218515
0.00218583
0.00218652
0.00218723
0.00218795
0.00218868
0.00218942
0.00219018
0.00219095
0.00219174
0.00219254
0.00219336
0.00219419
0.00219504
0.00219591
0.00219679
0.00219769
0.00219861
0.00219955
0.0022005
0.00220148
0.00220248
0.00220349
0.00220453
0.00220559
0.00220667
0.00220778
0.00220891
0.00221006
0.00221124
0.00221244
0.00221367
0.00221492
0.0022162
0.00221751
0.00221885
0.00222021
0.0022216
0.00222302
0.00222448
0.00222596
0.00222747
0.00222901
0.00223059
0.0022322
0.00223383
0.00223551
0.00223721
0.00223895
0.00224072
0.00224252
0.00224435
0.00224622
0.00224812
0.00225006
0.00225203
0.00225403
0.00225606
0.00225812
0.00226022
0.00226235
0.0022645
0.00226669
0.00226891
0.00227116
0.00227343
0.00227573
0.00227806
0.00228042
0.0022828
0.0022852
0.00228762
0.00229007
0.00229253
0.00229502
0.00229752
0.00230003
0.00230257
0.00230511
0.00230766
0.00231023
0.0023128
0.00231538
0.00231796
0.00232054
0.00232313
0.00232571
0.00232829
0.00233086
0.00233343
0.00233599
0.00233853
0.00234106
0.00234358
0.00234608
0.00234856
0.00235101
0.00235344
0.00235585
0.00235823
0.00236057
0.00236289
0.00236517
0.00236741
0.00236962
0.00237179
0.00237391
0.00237599
0.00237803
0.00238001
0.00238195
0.00238384
0.00238568
0.00238746
0.00238919
0.00239086
0.00239248
0.00239403
0.00239553
0.00239697
0.00239835
0.00239967
0.00240092
0.00240212
0.00240325
0.00240431
0.00240532
0.00240626
0.00240713
0.00240795
0.0024087
0.00240938
0.00241001
0.00241057
0.00241106
0.0024115
0.00241187
0.00241218
0.00241243
0.00241262
0.00241275
0.00241281
0.00241282
0.00241277
0.00241266
0.00241249
0.00241226
0.00241197
0.00241163
0.00241122
0.00241076
0.00241024
0.00240966
0.00240902
0.00240833
0.00240757
0.00240676
0.00240588
0.00240495
0.00240396
0.0024029
0.00240179
0.00240061
0.00239937
0.00239807
0.00239671
0.00239529
0.0023938
0.00239226
0.00239065
0.00238898
0.00238725
0.00238546
0.00238361
0.0023817
0.00237973
0.00237771
0.00237563
0.0023735
0.00237132
0.00236909
0.00236682
0.0023645
0.00236215
0.00235975
0.00235733
0.00235487
0.00235238
0.00234988
0.00234736
0.00234482
0.00234227
0.00233972
0.00233717
0.00233462
0.00233208
0.00232955
0.00232704
0.00232455
0.00232208
0.00231965
0.00231725
0.00231489
0.00231257
0.00231029
0.00230806
0.00230589
0.00230376
0.0023017
0.00229969
0.00229774
0.00229585
0.00229403
0.00229227
0.00229057
0.00228895
0.00228738
0.00228589
0.00228446
0.00228309
0.00228179
0.00228055
0.00227938
0.00227827
0.00227722
0.00227622
0.00227529
0.00227441
0.00227359
0.00227282
0.0022721
0.00227143
0.0022708
0.00227022
0.00226968
0.00226919
0.00226873
0.00226831
0.00226792
0.00226757
0.00226724
0.00226695
0.00226668
0.00226644
0.00226623
0.00226603
0.00226586
0.0022657
0.00226556
0.00226544
0.00226534
0.00226524
0.00226516
0.0022651
0.00226504
0.00226499
0.00226495
0.00226491
0.00226489
0.00226487
0.00226485
0.00226484
0.00226484
0.00226484
0.00226484
0.00226484
0.00226485
0.00226485
0.00226486
0.00226488
0.00226489
0.0022649
0.00226491
0.00226493
0.00226494
0.00226495
0.00226497
0.00226498
0.002265
0.00226501
0.00226502
0.00226503
0.00226504
0.00226505
0.00226506
0.00226507
0.00226508
0.00226509
0.00226509
0.0022651
0.00226511
0.00226511
0.00226511
0.00226512
0.00226512
0.00226512
0.00226512
0.00226512
0.00226511
0.00226511
0.00226511
0.0022651
0.0022651
0.00226509
0.00226509
0.00226508
0.00226507
0.00226506
0.00226505
0.00226504
0.00226503
0.00226502
0.002265
0.00226499
0.00226497
0.00226496
0.00226494
0.00226493
0.00226491
0.00226489
0.00226487
0.00226485
0.00226484
0.00226481
0.00226479
0.00226477
0.00226475
0.00226473
0.0022647
0.00226468
0.00226465
0.00226463
0.0022646
0.00226458
0.00226455
0.00226452
0.0022645
0.00226447
0.00226444
0.00226441
0.00226438
0.00226435
0.00226432
0.00226429
0.00226425
0.00226422
0.00226419
0.00226415
0.00226412
0.00226409
0.00226405
0.00226401
0.00226398
0.00226394
0.0022639
0.00226387
0.00226383
0.00226379
0.00226375
0.00226371
0.00226367
0.00226363
0.00226359
0.00226355
0.0022635
0.00226346
0.00226342
0.00226337
0.00226333
0.00226328
0.00226324
0.00226319
0.00226314
0.00226309
0.00226304
0.002263
0.00226295
0.0022629
0.00226284
0.00226279
0.00226274
0.00226269
0.00226263
0.00226258
0.00226252
0.00226247
0.00226241
0.00226235
0.00226229
0.00226223
0.00226217
0.00226211
0.00226205
0.00226199
0.00226193
0.00226186
0.0022618
0.00226173
0.00226167
0.0022616
0.00226153
0.00226147
0.0022614
0.00226133
0.00226126
0.00226119
0.00226112
0.00226104
0.00226097
0.0022609
0.00226082
0.00226075
0.00226067
0.00226059
0.00226052
0.00226044
0.00226036
0.00226028
0.0022602
0.00226012
0.00226004
0.00225996
0.00225987
0.00225979
0.00225971
0.00225962
0.00225954
0.00225945
0.00225937
0.00225928
0.0022592
0.00225911
0.00225902
0.00225893
0.00225884
0.00225875
0.00225866
0.00225857
0.00225848
0.0022584
0.00225829
)
;

boundaryField
{
    inlet
    {
        type            calculated;
        value           uniform 0.00548313;
    }
    outlet
    {
        type            calculated;
        value           uniform 0.00225829;
    }
    right
    {
        type            empty;
    }
    left
    {
        type            empty;
    }
    atmosphere
    {
        type            empty;
    }
    bottomWall
    {
        type            empty;
    }
}


// ************************************************************************* //
