/*--------------------------------*- C++ -*----------------------------------*\
| =========                 |                                                 |
| \\      /  F ield         | foam-extend: Open Source CFD                    |
|  \\    /   O peration     | Version:     3.1                                |
|   \\  /    A nd           | Web:         http://www.extend-project.de       |
|    \\/     M anipulation  |                                                 |
\*---------------------------------------------------------------------------*/
FoamFile
{
    version     2.0;
    format      ascii;
    class       volScalarField;
    location    "18";
    object      H;
}
// * * * * * * * * * * * * * * * * * * * * * * * * * * * * * * * * * * * * * //

dimensions      [0 1 0 0 0 0 0];

internalField   nonuniform List<scalar> 
2539
(
0.857659
0.856956
0.856024
0.855102
0.854179
0.853256
0.852332
0.851409
0.850485
0.849561
0.848637
0.847712
0.846787
0.845862
0.844937
0.844012
0.843086
0.84216
0.841234
0.840308
0.839381
0.838454
0.837527
0.8366
0.835672
0.834744
0.833816
0.832888
0.83196
0.831031
0.830102
0.829172
0.828243
0.827313
0.826383
0.825453
0.824522
0.823591
0.82266
0.821729
0.820797
0.819865
0.818933
0.818001
0.817068
0.816135
0.815202
0.814269
0.813335
0.812401
0.811466
0.810532
0.809597
0.808662
0.807726
0.806791
0.805855
0.804918
0.803982
0.803045
0.802108
0.80117
0.800232
0.799294
0.798356
0.797417
0.796478
0.795539
0.7946
0.79366
0.792719
0.791779
0.790838
0.789897
0.788955
0.788014
0.787072
0.786129
0.785186
0.784243
0.7833
0.782356
0.781412
0.780468
0.779523
0.778578
0.777632
0.776687
0.775741
0.774794
0.773847
0.7729
0.771953
0.771005
0.770057
0.769108
0.768159
0.76721
0.76626
0.76531
0.76436
0.763409
0.762458
0.761506
0.760554
0.759602
0.758649
0.757696
0.756743
0.755789
0.754835
0.75388
0.752925
0.751969
0.751014
0.750057
0.749101
0.748144
0.747186
0.746228
0.74527
0.744311
0.743352
0.742392
0.741432
0.740472
0.739511
0.73855
0.737588
0.736626
0.735663
0.7347
0.733736
0.732772
0.731808
0.730843
0.729877
0.728911
0.727945
0.726978
0.726011
0.725043
0.724075
0.723106
0.722137
0.721167
0.720197
0.719226
0.718255
0.717283
0.716311
0.715338
0.714364
0.713391
0.712416
0.711441
0.710466
0.70949
0.708513
0.707536
0.706559
0.70558
0.704602
0.703622
0.702643
0.701662
0.700681
0.699699
0.698717
0.697735
0.696751
0.695767
0.694783
0.693798
0.692812
0.691825
0.690838
0.689851
0.688863
0.687874
0.686884
0.685894
0.684903
0.683912
0.682691
0.681336
0.680537
0.680219
0.679927
0.679636
0.679345
0.679054
0.678763
0.678472
0.678181
0.67789
0.677598
0.677307
0.677016
0.676724
0.676433
0.676141
0.67585
0.675558
0.675266
0.674974
0.674682
0.67439
0.674098
0.673806
0.673514
0.673222
0.67293
0.672637
0.672345
0.672052
0.67176
0.671467
0.671175
0.670882
0.670589
0.670296
0.670003
0.669711
0.669417
0.669124
0.668831
0.668538
0.668245
0.667951
0.667658
0.667364
0.667071
0.666777
0.666483
0.66619
0.665896
0.665602
0.665308
0.665014
0.66472
0.664426
0.664131
0.663837
0.663543
0.663248
0.662954
0.662659
0.662365
0.66207
0.661775
0.66148
0.661185
0.66089
0.660595
0.6603
0.660005
0.65971
0.659414
0.659119
0.658823
0.658528
0.658232
0.657936
0.657641
0.657345
0.657049
0.656753
0.656457
0.656161
0.655864
0.655568
0.655272
0.654975
0.654679
0.654382
0.654086
0.653789
0.653492
0.653195
0.652898
0.652601
0.652304
0.652007
0.65171
0.651412
0.651115
0.650817
0.65052
0.650222
0.649924
0.649627
0.649329
0.649031
0.648733
0.648435
0.648137
0.647838
0.64754
0.647241
0.646943
0.646644
0.646346
0.646047
0.645748
0.645449
0.64515
0.644851
0.644552
0.644253
0.643954
0.643654
0.643355
0.643055
0.642756
0.642456
0.642156
0.641856
0.641556
0.641256
0.640956
0.640656
0.640356
0.640055
0.639755
0.639454
0.639154
0.638853
0.638552
0.638251
0.637951
0.637649
0.637348
0.637047
0.636746
0.636444
0.636143
0.635841
0.63554
0.635238
0.634936
0.634634
0.634332
0.63403
0.633728
0.633426
0.633123
0.632821
0.632518
0.632216
0.631913
0.63161
0.631307
0.631004
0.630701
0.630398
0.630095
0.629792
0.629488
0.629185
0.628881
0.628577
0.628273
0.627969
0.627665
0.627361
0.627057
0.626753
0.626449
0.626144
0.625839
0.625535
0.62523
0.624925
0.62462
0.624315
0.62401
0.623705
0.623399
0.623094
0.622788
0.622483
0.622183
0.62176
0.623816
0.59854
0.572907
0.544393
0.527767
0.517249
0.509739
0.503843
0.498887
0.494527
0.490573
0.486915
0.483486
0.480241
0.47715
0.47419
0.471344
0.468599
0.465945
0.463371
0.460871
0.458439
0.456069
0.453755
0.451495
0.449285
0.447121
0.444999
0.442919
0.440877
0.438871
0.436899
0.434959
0.433051
0.431171
0.429319
0.427494
0.425694
0.423918
0.422166
0.420436
0.418727
0.417038
0.415369
0.413719
0.412087
0.410472
0.408874
0.407292
0.405726
0.404174
0.402637
0.401114
0.399604
0.398107
0.396623
0.39515
0.393689
0.392239
0.390799
0.38937
0.38795
0.386539
0.385137
0.383744
0.382359
0.380981
0.37961
0.378246
0.376888
0.375535
0.374188
0.372845
0.371506
0.370171
0.368837
0.367506
0.366176
0.364845
0.363514
0.36218
0.360843
0.359501
0.358151
0.356792
0.355421
0.354035
0.352629
0.351198
0.349736
0.348235
0.346684
0.34507
0.343377
0.341584
0.339668
0.337599
0.335349
0.33289
0.330202
0.327289
0.319727
0.316509
0.31355
0.310809
0.308254
0.305859
0.303603
0.301471
0.299447
0.297521
0.295682
0.293922
0.292233
0.290611
0.289048
0.28754
0.286084
0.284675
0.28331
0.281986
0.2807
0.27945
0.278235
0.277051
0.275897
0.274772
0.273673
0.2726
0.271551
0.270526
0.269522
0.268539
0.267577
0.266633
0.265708
0.2648
0.26391
0.263035
0.262176
0.261332
0.260503
0.259687
0.258885
0.258096
0.257319
0.256554
0.255801
0.25506
0.254329
0.253609
0.252899
0.2522
0.25151
0.250829
0.250158
0.249495
0.248841
0.248196
0.247558
0.246929
0.246307
0.245693
0.245087
0.244487
0.243895
0.24331
0.242731
0.242159
0.241593
0.241033
0.24048
0.239932
0.23939
0.238854
0.238324
0.237799
0.23728
0.236765
0.236256
0.235752
0.235253
0.234758
0.234269
0.233784
0.233304
0.232828
0.232356
0.231889
0.231426
0.230967
0.230513
0.230062
0.229616
0.229173
0.228733
0.228294
0.227856
0.227425
0.227022
0.226673
0.22638
0.226108
0.225838
0.22557
0.225303
0.225037
0.224773
0.22451
0.224249
0.223988
0.22373
0.223472
0.223216
0.222962
0.222708
0.222456
0.222206
0.221956
0.221708
0.221461
0.221215
0.220971
0.220727
0.220485
0.220244
0.220005
0.219766
0.219529
0.219292
0.219057
0.218823
0.218591
0.218359
0.218128
0.217899
0.21767
0.217443
0.217216
0.216991
0.216767
0.216544
0.216321
0.2161
0.21588
0.215661
0.215443
0.215225
0.215009
0.214794
0.21458
0.214366
0.214154
0.213942
0.213732
0.213522
0.213313
0.213105
0.212898
0.212692
0.212487
0.212283
0.212079
0.211877
0.211675
0.211474
0.211274
0.211075
0.210876
0.210679
0.210482
0.210286
0.210091
0.209897
0.209703
0.20951
0.209318
0.209127
0.208936
0.208747
0.208558
0.20837
0.208182
0.207995
0.207809
0.207624
0.20744
0.207256
0.207073
0.20689
0.206709
0.206528
0.206347
0.206168
0.205989
0.205811
0.205633
0.205456
0.20528
0.205104
0.204929
0.204755
0.204582
0.204409
0.204236
0.204065
0.203893
0.203723
0.203553
0.203384
0.203215
0.203047
0.20288
0.202713
0.202547
0.202381
0.202216
0.202052
0.201888
0.201725
0.201562
0.2014
0.201239
0.201078
0.200917
0.200757
0.200598
0.200439
0.200281
0.200123
0.199966
0.19981
0.199654
0.199498
0.199343
0.199189
0.199035
0.198881
0.198728
0.198576
0.198424
0.198273
0.198122
0.197971
0.197822
0.197672
0.197523
0.197375
0.197227
0.19708
0.196933
0.196786
0.19664
0.196495
0.196349
0.196205
0.196061
0.195917
0.195774
0.195631
0.195489
0.195347
0.195205
0.195064
0.194924
0.194784
0.194644
0.194505
0.194366
0.194228
0.19409
0.193952
0.193815
0.193679
0.193543
0.193407
0.193271
0.193136
0.193002
0.192868
0.192734
0.192601
0.192468
0.192335
0.192203
0.192071
0.19194
0.191809
0.191678
0.191548
0.191418
0.191289
0.19116
0.191031
0.190903
0.190775
0.190647
0.19052
0.190394
0.190267
0.190141
0.190015
0.18989
0.189765
0.189641
0.189516
0.189392
0.189269
0.189146
0.189023
0.1889
0.188778
0.188656
0.188535
0.188414
0.188293
0.188173
0.188053
0.187933
0.187814
0.187694
0.187576
0.187457
0.187339
0.187221
0.187104
0.186987
0.18687
0.186754
0.186637
0.186522
0.186406
0.186291
0.186176
0.186061
0.185947
0.185833
0.18572
0.185606
0.185493
0.18538
0.185268
0.185156
0.185044
0.184932
0.184821
0.18471
0.1846
0.184489
0.184379
0.184269
0.18416
0.184051
0.183942
0.183833
0.183725
0.183617
0.183509
0.183401
0.183294
0.183187
0.183081
0.182974
0.182868
0.182762
0.182657
0.182551
0.182446
0.182341
0.182237
0.182133
0.182029
0.181925
0.181821
0.181718
0.181615
0.181513
0.18141
0.181308
0.181206
0.181105
0.181003
0.180902
0.180801
0.1807
0.1806
0.1805
0.1804
0.1803
0.180201
0.180102
0.180003
0.179904
0.179806
0.179708
0.17961
0.179512
0.179414
0.179317
0.17922
0.179123
0.179027
0.178931
0.178834
0.178739
0.178643
0.178548
0.178452
0.178358
0.178263
0.178168
0.178074
0.17798
0.177886
0.177793
0.177699
0.177606
0.177513
0.177421
0.177328
0.177236
0.177144
0.177052
0.17696
0.176869
0.176778
0.176687
0.176596
0.176505
0.176415
0.176325
0.176235
0.176145
0.176056
0.175966
0.175877
0.175788
0.1757
0.175611
0.175523
0.175435
0.175347
0.175259
0.175172
0.175084
0.174997
0.17491
0.174824
0.17474
0.174656
0.174562
0.174453
0.174339
0.174225
0.174111
0.173998
0.173885
0.173772
0.17366
0.173548
0.173436
0.173325
0.173214
0.173103
0.172992
0.172882
0.172772
0.172663
0.172553
0.172444
0.172335
0.172227
0.172119
0.172011
0.171903
0.171796
0.171689
0.171582
0.171476
0.17137
0.171264
0.171159
0.171053
0.170948
0.170843
0.170739
0.170635
0.170531
0.170427
0.170324
0.170221
0.170118
0.170016
0.169913
0.169811
0.16971
0.169608
0.169507
0.169406
0.169305
0.169205
0.169105
0.169005
0.168905
0.168806
0.168706
0.168607
0.168509
0.16841
0.168312
0.168214
0.168117
0.168019
0.167922
0.167825
0.167729
0.167632
0.167536
0.16744
0.167344
0.167249
0.167154
0.167059
0.166964
0.166869
0.166775
0.166681
0.166587
0.166494
0.1664
0.166307
0.166214
0.166122
0.166029
0.165937
0.165845
0.165753
0.165662
0.16557
0.165479
0.165388
0.165298
0.165207
0.165117
0.165027
0.164937
0.164848
0.164758
0.164669
0.16458
0.164492
0.164403
0.164315
0.164227
0.164139
0.164051
0.163964
0.163876
0.163789
0.163703
0.163616
0.163529
0.163443
0.163357
0.163271
0.163186
0.1631
0.163015
0.16293
0.162845
0.162761
0.162676
0.162592
0.162508
0.162424
0.16234
0.162257
0.162174
0.162091
0.162008
0.161925
0.161842
0.16176
0.161678
0.161596
0.161514
0.161433
0.161351
0.16127
0.161189
0.161108
0.161028
0.160947
0.160867
0.160787
0.160707
0.160627
0.160547
0.160468
0.160389
0.16031
0.160231
0.160152
0.160074
0.159995
0.159917
0.159839
0.159761
0.159684
0.159606
0.159529
0.159452
0.159375
0.159298
0.159221
0.159145
0.159069
0.158993
0.158917
0.158841
0.158765
0.15869
0.158614
0.15854
0.158466
0.158392
0.158312
0.158223
0.158138
0.15811
0.158191
0.158248
0.158258
0.158236
0.158219
0.158202
0.158188
0.158181
0.158181
0.158186
0.158192
0.1582
0.158214
0.158234
0.158259
0.158287
0.15832
0.158358
0.1584
0.158448
0.158499
0.158553
0.158611
0.158673
0.158741
0.158815
0.158894
0.158977
0.159063
0.159154
0.159251
0.159353
0.15946
0.15957
0.159684
0.159802
0.159925
0.160053
0.160187
0.160325
0.160468
0.160617
0.160773
0.160933
0.161096
0.161265
0.161438
0.161615
0.161799
0.161987
0.16218
0.162378
0.162583
0.162795
0.163012
0.163233
0.16346
0.163691
0.163927
0.164169
0.164419
0.164677
0.164941
0.165208
0.165479
0.165756
0.166039
0.166331
0.16663
0.166937
0.167248
0.167567
0.167893
0.168224
0.168561
0.168906
0.169256
0.169615
0.169985
0.170365
0.170753
0.171146
0.171541
0.171941
0.172344
0.172755
0.173186
0.173653
0.174156
0.174666
0.175125
0.175459
0.175654
0.175851
0.176384
0.177654
0.179779
0.182067
0.182711
0.179403
0.17152
0.162979
0.155511
0.15544
0.15537
0.1553
0.15523
0.15516
0.155091
0.155021
0.154952
0.154883
0.154813
0.154745
0.154676
0.154607
0.154539
0.15447
0.154402
0.154334
0.154266
0.154198
0.154131
0.154063
0.153996
0.153928
0.153861
0.153794
0.153727
0.153661
0.153594
0.153528
0.153461
0.153395
0.153329
0.153263
0.153198
0.153132
0.153066
0.153001
0.152936
0.152871
0.152806
0.152741
0.152676
0.152612
0.152547
0.152483
0.152419
0.152355
0.152291
0.152227
0.152163
0.1521
0.152036
0.151973
0.15191
0.151847
0.151784
0.151721
0.151658
0.151596
0.151533
0.151471
0.151409
0.151347
0.151285
0.151223
0.151161
0.1511
0.151038
0.150977
0.150916
0.150855
0.150794
0.150733
0.150672
0.150611
0.150551
0.15049
0.15043
0.15037
0.15031
0.15025
0.150191
0.150131
0.15007
0.150006
0.149945
0.149906
0.149898
0.149901
0.149905
0.149908
0.149912
0.149915
0.149919
0.149923
0.149926
0.14993
0.149933
0.149937
0.14994
0.149944
0.149948
0.149951
0.149955
0.149958
0.149962
0.149965
0.149969
0.149972
0.149976
0.149979
0.149983
0.149987
0.14999
0.149994
0.149997
0.150001
0.150004
0.150008
0.150011
0.150015
0.150018
0.150022
0.150025
0.150029
0.150032
0.150036
0.150039
0.150043
0.150046
0.15005
0.150053
0.150057
0.15006
0.150064
0.150067
0.150071
0.150074
0.150078
0.150081
0.150085
0.150088
0.150092
0.150095
0.150099
0.150102
0.150106
0.150109
0.150113
0.150116
0.15012
0.150123
0.150127
0.15013
0.150134
0.150137
0.150141
0.150144
0.150148
0.150151
0.150154
0.150158
0.150161
0.150165
0.150168
0.150172
0.150175
0.150179
0.150182
0.150185
0.150189
0.150192
0.150196
0.150199
0.150203
0.150206
0.15021
0.150213
0.150216
0.15022
0.150223
0.150227
0.15023
0.150234
0.150237
0.15024
0.150244
0.150247
0.150251
0.150254
0.150257
0.150261
0.150264
0.150268
0.150271
0.150274
0.150278
0.150281
0.150285
0.150288
0.150291
0.150295
0.150298
0.150302
0.150305
0.150308
0.150312
0.150315
0.150319
0.150322
0.150325
0.150329
0.150332
0.150335
0.150339
0.150342
0.150345
0.150349
0.150352
0.150356
0.150359
0.150362
0.150366
0.150369
0.150372
0.150376
0.150379
0.150382
0.150386
0.150389
0.150392
0.150396
0.150399
0.150402
0.150406
0.150409
0.150412
0.150416
0.150419
0.150422
0.150426
0.150429
0.150432
0.150436
0.150439
0.150442
0.150446
0.150449
0.150452
0.150456
0.150459
0.150462
0.150466
0.150469
0.150472
0.150476
0.150479
0.150482
0.150485
0.150489
0.150492
0.150495
0.150499
0.150502
0.150505
0.150509
0.150512
0.150515
0.150518
0.150522
0.150525
0.150528
0.150532
0.150535
0.150538
0.150541
0.150545
0.150548
0.150551
0.150554
0.150558
0.150561
0.150564
0.150567
0.150571
0.150574
0.150577
0.15058
0.150584
0.150587
0.15059
0.150594
0.150597
0.1506
0.150603
0.150606
0.15061
0.150613
0.150616
0.150619
0.150623
0.150626
0.150629
0.150632
0.150636
0.150639
0.150642
0.150645
0.150649
0.150652
0.150655
0.150658
0.150661
0.150665
0.150668
0.150671
0.150674
0.150677
0.150681
0.150684
0.150687
0.15069
0.150693
0.150697
0.1507
0.150703
0.150706
0.150709
0.150713
0.150716
0.150719
0.150722
0.150725
0.150729
0.150732
0.150735
0.150738
0.150741
0.150744
0.150748
0.150751
0.150754
0.150757
0.15076
0.150764
0.150767
0.15077
0.150773
0.150776
0.150779
0.150782
0.150786
0.150789
0.150792
0.150795
0.150798
0.150801
0.150805
0.150808
0.150811
0.150814
0.150817
0.15082
0.150823
0.150827
0.15083
0.150832
0.150836
0.150841
0.150848
0.15085
0.150831
0.150788
0.150794
0.151038
0.151593
0.151676
0.149063
0.142709
0.140872
0.166559
0.262438
0.468953
0.627382
0.654294
0.655872
0.656286
0.656655
0.656936
0.657071
0.657136
0.657199
0.657261
0.657322
0.657384
0.657445
0.657505
0.657566
0.657626
0.657686
0.657745
0.657804
0.657864
0.657922
0.657981
0.658039
0.658098
0.658155
0.658213
0.658271
0.658328
0.658386
0.658443
0.6585
0.658557
0.658613
0.65867
0.658726
0.658783
0.658839
0.658895
0.658951
0.659007
0.659062
0.659118
0.659174
0.659229
0.659285
0.65934
0.659395
0.65945
0.659505
0.65956
0.659615
0.65967
0.659725
0.659779
0.659834
0.659888
0.659943
0.659997
0.660052
0.660106
0.66016
0.660214
0.660268
0.660322
0.660376
0.66043
0.660484
0.660537
0.660591
0.660645
0.660698
0.660752
0.660805
0.660859
0.660912
0.660965
0.661018
0.661072
0.661125
0.661178
0.661231
0.661284
0.661336
0.661389
0.661442
0.661495
0.661547
0.6616
0.661652
0.661705
0.661757
0.66181
0.661862
0.661914
0.661966
0.662019
0.662071
0.662123
0.662175
0.662227
0.662278
0.66233
0.662382
0.662434
0.662485
0.662537
0.662589
0.66264
0.662692
0.662743
0.662795
0.662846
0.662897
0.662949
0.663
0.663051
0.663102
0.663153
0.663204
0.663255
0.663306
0.663357
0.663408
0.663459
0.66351
0.663561
0.663611
0.663662
0.663713
0.663763
0.663814
0.663865
0.663915
0.663966
0.664016
0.664067
0.664117
0.664167
0.664218
0.664268
0.664318
0.664369
0.664419
0.664469
0.664519
0.664569
0.664619
0.664669
0.664719
0.664769
0.664819
0.664869
0.664919
0.664969
0.665019
0.665069
0.665119
0.665168
0.665218
0.665268
0.665318
0.665367
0.665417
0.665466
0.665516
0.665565
0.665615
0.665664
0.665714
0.665763
0.665812
0.665862
0.665911
0.66596
0.666009
0.666058
0.666107
0.666156
0.666205
0.666254
0.666303
0.666352
0.666401
0.666449
0.666498
0.666547
0.666595
0.666644
0.666692
0.66674
0.666789
0.666837
0.666885
0.666933
0.666981
0.667029
0.667077
0.667125
0.667172
0.66722
0.667268
0.667315
0.667362
0.66741
0.667457
0.667504
0.667552
0.667599
0.667646
0.667693
0.667739
0.667786
0.667833
0.667879
0.667926
0.667972
0.668018
0.668065
0.668111
0.668157
0.668203
0.668248
0.668294
0.66834
0.668385
0.66843
0.668476
0.668521
0.668566
0.66861
0.668655
0.6687
0.668744
0.668788
0.668832
0.668876
0.66892
0.668963
0.669007
0.66905
0.669093
0.669136
0.669179
0.669221
0.669264
0.669306
0.669348
0.66939
0.669432
0.669473
0.669514
0.669555
0.669596
0.669637
0.669677
0.669718
0.669758
0.669798
0.669837
0.669877
0.669916
0.669955
0.669994
0.670033
0.670072
0.67011
0.670148
0.670186
0.670224
0.670262
0.670299
0.670337
0.670374
0.670411
0.670448
0.670484
0.670521
0.670557
0.670594
0.67063
0.670666
0.670702
0.670738
0.670774
0.670809
0.670845
0.67088
0.670916
0.670951
0.670987
0.671022
0.671057
0.671093
0.671128
0.671163
0.671198
0.671234
0.671269
0.671304
0.67134
0.671375
0.67141
0.671446
0.671481
0.671517
0.671552
0.671588
0.671624
0.67166
0.671695
0.671731
0.671767
0.671804
0.67184
0.671876
0.671912
0.671949
0.671985
0.672022
0.672058
0.672095
0.672132
0.672169
0.672206
0.672242
0.672279
0.672316
0.672353
0.67239
0.672427
0.672464
0.672501
0.672538
0.672575
0.672612
0.672649
0.672686
0.672722
0.672759
0.672796
0.672832
0.672869
0.672905
0.672941
0.672977
0.673013
0.673049
0.673084
0.67312
0.673155
0.67319
0.673225
0.67326
0.673294
0.673328
0.673362
0.673396
0.67343
0.673463
0.673496
0.673529
0.673561
0.673594
0.673626
0.673657
0.673689
0.67372
0.673751
0.673782
0.673812
0.673842
0.673872
0.673901
0.67393
0.673959
0.673988
0.674016
0.674044
0.674072
0.6741
0.674127
0.674154
0.67418
0.674207
0.674233
0.674258
0.674284
0.674309
0.674334
0.674358
0.674383
0.674407
0.67443
0.674454
0.674477
0.6745
0.674523
0.674545
0.674567
0.674589
0.67461
0.674632
0.674653
0.674673
0.674694
0.674714
0.674734
0.674753
0.674773
0.674792
0.674811
0.674829
0.674848
0.674866
0.674884
0.674901
0.674918
0.674935
0.674952
0.674969
0.674985
0.675001
0.675016
0.675032
0.675047
0.675062
0.675076
0.675091
0.675105
0.675119
0.675132
0.675146
0.675159
0.675171
0.675184
0.675196
0.675208
0.675219
0.675231
0.675242
0.675252
0.675263
0.675273
0.675283
0.675293
0.675302
0.675311
0.675319
0.675328
0.675336
0.675344
0.675351
0.675358
0.675365
0.675372
0.675378
0.675384
0.675389
0.675394
0.675399
0.675403
0.675408
0.675411
0.675415
0.675418
0.67542
0.675423
0.675424
0.675426
0.675427
0.675428
0.675428
0.675428
0.675427
0.675426
0.675425
0.675423
0.675421
0.675418
0.675415
0.675411
0.675406
0.675402
0.675396
0.675391
0.675384
0.675377
0.67537
0.675362
0.675353
0.675344
0.675334
0.675324
0.675313
0.675301
0.675289
0.675276
0.675262
0.675247
0.675232
0.675216
0.675199
0.675182
0.675163
0.675144
0.675124
0.675102
0.67508
0.675057
0.675033
0.675008
0.674982
0.674955
0.674927
0.674897
0.674867
0.674835
0.674802
0.674768
0.674732
0.674695
0.674657
0.674617
0.674576
0.674533
0.674488
0.674443
0.674395
0.674346
0.674295
0.674242
0.674188
0.674132
0.674074
0.674014
0.673952
0.673888
0.673822
0.673755
0.673685
0.673613
0.673539
0.673463
0.673385
0.673305
0.673222
0.673138
0.673051
0.672962
0.672871
0.672777
0.672682
0.672584
0.672485
0.672383
0.672279
0.672173
0.672065
0.671955
0.671843
0.671729
0.671613
0.671495
0.671376
0.671255
0.671132
0.671008
0.670883
0.670756
0.670628
0.670498
0.670368
0.670236
0.670103
0.66997
0.669836
0.669702
0.669567
0.669432
0.669296
0.669161
0.669025
0.66889
0.668755
0.66862
0.668487
0.668353
0.668221
0.66809
0.66796
0.667831
0.667704
0.667579
0.667455
0.667333
0.667213
0.667096
0.66698
0.666868
0.666758
0.66665
0.666546
0.666445
0.666346
0.666251
0.66616
0.666072
0.665988
0.665907
0.66583
0.665757
0.665689
0.665624
0.665564
0.665507
0.665455
0.665408
0.665365
0.665326
0.665292
0.665263
0.665238
0.665218
0.665202
0.665191
0.665185
0.665183
0.665186
0.665193
0.665205
0.665222
0.665243
0.665268
0.665298
0.665333
0.665372
0.665415
0.665463
0.665515
0.665571
0.665632
0.665696
0.665765
0.665838
0.665915
0.665997
0.666082
0.666172
0.666265
0.666363
0.666465
0.66657
0.66668
0.666794
0.666912
0.667035
0.667161
0.667292
0.667427
0.667566
0.667709
0.667857
0.668009
0.668165
0.668326
0.668491
0.66866
0.668833
0.669011
0.669194
0.66938
0.669571
0.669765
0.669964
0.670167
0.670373
0.670583
0.670797
0.671015
0.671235
0.671458
0.671685
0.671914
0.672145
0.672378
0.672613
0.67285
0.673088
0.673327
0.673566
0.673806
0.674045
0.674285
0.674523
0.674761
0.674997
0.675231
0.675463
0.675693
0.67592
0.676144
0.676365
0.676582
0.676796
0.677005
0.677211
0.677411
0.677608
0.677799
0.677986
0.678167
0.678344
0.678515
0.678681
0.678842
0.678998
0.679148
0.679293
0.679433
0.679567
0.679697
0.679821
0.679941
0.680056
0.680166
0.680271
0.680372
0.680469
0.680561
0.68065
0.680735
0.680816
0.680893
0.680967
0.681038
0.681105
0.68117
0.681232
0.681291
0.681348
0.681402
0.681454
0.681504
0.681552
0.681598
0.681643
0.681686
0.681727
0.681767
0.681806
0.681843
0.681879
0.681915
0.681949
0.681983
0.682015
0.682047
0.682079
0.682109
0.68214
0.682169
0.682198
0.682227
0.682255
0.682283
0.682311
0.682338
0.682365
0.682392
0.682418
0.682445
0.682471
0.682497
0.682523
0.682549
0.682574
0.6826
0.682625
0.68265
0.682675
0.6827
0.682725
0.68275
0.682775
0.6828
0.682825
0.682849
0.682874
0.682898
0.682923
0.682947
0.682972
0.682996
0.683021
0.683045
0.683069
0.683094
0.683118
0.683142
0.683166
0.68319
0.683215
0.683239
0.683263
0.683287
0.683311
0.683335
0.683359
0.683383
0.683407
0.683432
0.683456
0.68348
0.683504
0.683528
0.683552
0.683576
0.6836
0.683624
0.683648
0.683672
0.683696
0.68372
0.683744
0.683768
0.683792
0.683816
0.68384
0.683864
0.683888
0.683912
0.683936
0.68396
0.683984
0.684008
0.684032
0.684056
0.68408
0.684104
0.684128
0.684152
0.684177
0.684201
0.684225
0.684249
0.684273
0.684297
0.684322
0.684346
0.68437
0.684394
0.684419
0.684443
0.684467
0.684491
0.684516
0.68454
0.684565
0.684589
0.684613
0.684638
0.684662
0.684687
0.684712
0.684736
0.684761
0.684785
0.68481
0.684835
0.68486
0.684884
0.684909
0.684934
0.684959
0.684984
0.685009
0.685034
0.685059
0.685084
0.685109
0.685135
0.68516
0.685185
0.68521
0.685236
0.685261
0.685287
0.685312
0.685338
0.685363
0.685389
0.685415
0.685441
0.685466
0.685492
0.685518
0.685544
0.68557
0.685596
0.685622
0.685648
0.685675
0.685701
0.685727
0.685753
0.68578
0.685806
0.685833
0.685859
0.685886
0.685912
0.685939
0.685966
0.685992
0.686019
0.686046
0.686073
0.6861
0.686127
0.686154
0.686181
0.686208
0.686235
0.686262
0.686289
0.686316
0.686343
0.68637
0.686397
0.686425
0.686452
0.686479
0.686507
0.686534
0.686561
0.686588
0.686616
0.686643
0.686674
)
;

boundaryField
{
    inlet
    {
        type            criticalFlowDepthInlet;
        criticalH       0.38;
        value           uniform 0.857659;
    }
    outlet
    {
        type            zeroGradient;
    }
    right
    {
        type            empty;
    }
    left
    {
        type            empty;
    }
    atmosphere
    {
        type            empty;
    }
    bottomWall
    {
        type            empty;
    }
}


// ************************************************************************* //
