/*--------------------------------*- C++ -*----------------------------------*\
| =========                 |                                                 |
| \\      /  F ield         | foam-extend: Open Source CFD                    |
|  \\    /   O peration     | Version:     3.1                                |
|   \\  /    A nd           | Web:         http://www.extend-project.de       |
|    \\/     M anipulation  |                                                 |
\*---------------------------------------------------------------------------*/
FoamFile
{
    version     2.0;
    format      ascii;
    class       volScalarField;
    location    "18";
    object      nut;
}
// * * * * * * * * * * * * * * * * * * * * * * * * * * * * * * * * * * * * * //

dimensions      [0 2 -1 0 0 0 0];

internalField   nonuniform List<scalar> 
2539
(
0.0351358
0.0351308
0.0351376
0.0351439
0.0351503
0.0351566
0.035163
0.0351693
0.0351757
0.0351821
0.0351885
0.0351949
0.0352013
0.0352077
0.0352142
0.0352206
0.0352271
0.0352335
0.03524
0.0352465
0.035253
0.0352595
0.035266
0.0352725
0.0352791
0.0352856
0.0352922
0.0352987
0.0353053
0.0353119
0.0353185
0.0353251
0.0353317
0.0353383
0.035345
0.0353516
0.0353583
0.0353649
0.0353716
0.0353783
0.035385
0.0353917
0.0353984
0.0354052
0.0354119
0.0354186
0.0354254
0.0354322
0.035439
0.0354458
0.0354526
0.0354594
0.0354662
0.0354731
0.0354799
0.0354868
0.0354937
0.0355005
0.0355074
0.0355143
0.0355213
0.0355282
0.0355351
0.0355421
0.0355491
0.035556
0.035563
0.03557
0.035577
0.0355841
0.0355911
0.0355981
0.0356052
0.0356123
0.0356194
0.0356265
0.0356336
0.0356407
0.0356478
0.035655
0.0356621
0.0356693
0.0356765
0.0356837
0.0356909
0.0356981
0.0357053
0.0357126
0.0357198
0.0357271
0.0357344
0.0357417
0.035749
0.0357563
0.0357637
0.035771
0.0357784
0.0357857
0.0357931
0.0358005
0.035808
0.0358154
0.0358228
0.0358303
0.0358378
0.0358452
0.0358527
0.0358603
0.0358678
0.0358753
0.0358829
0.0358904
0.035898
0.0359056
0.0359132
0.0359209
0.0359285
0.0359361
0.0359438
0.0359515
0.0359592
0.0359669
0.0359746
0.0359824
0.0359901
0.0359979
0.0360057
0.0360135
0.0360213
0.0360292
0.036037
0.0360449
0.0360527
0.0360606
0.0360686
0.0360765
0.0360844
0.0360924
0.0361004
0.0361083
0.0361164
0.0361244
0.0361324
0.0361405
0.0361485
0.0361566
0.0361647
0.0361729
0.036181
0.0361892
0.0361973
0.0362055
0.0362137
0.0362219
0.0362302
0.0362384
0.0362467
0.036255
0.0362633
0.0362717
0.03628
0.0362884
0.0362968
0.0363052
0.0363136
0.036322
0.0363305
0.0363389
0.0363474
0.036356
0.0363645
0.036373
0.0363816
0.0363902
0.0363988
0.0364074
0.0364161
0.0364247
0.0364334
0.0364421
0.0364509
0.0364596
0.0364684
0.0364772
0.0364758
0.0243286
0.0243498
0.0243526
0.0243544
0.0243561
0.0243579
0.0243597
0.0243614
0.0243632
0.0243649
0.0243667
0.0243685
0.0243702
0.024372
0.0243738
0.0243755
0.0243773
0.0243791
0.0243809
0.0243826
0.0243844
0.0243862
0.024388
0.0243898
0.0243915
0.0243933
0.0243951
0.0243969
0.0243987
0.0244005
0.0244023
0.0244041
0.0244058
0.0244076
0.0244094
0.0244112
0.024413
0.0244148
0.0244166
0.0244184
0.0244202
0.024422
0.0244238
0.0244256
0.0244275
0.0244293
0.0244311
0.0244329
0.0244347
0.0244365
0.0244383
0.0244401
0.024442
0.0244438
0.0244456
0.0244474
0.0244492
0.0244511
0.0244529
0.0244547
0.0244565
0.0244584
0.0244602
0.024462
0.0244639
0.0244657
0.0244676
0.0244694
0.0244712
0.0244731
0.0244749
0.0244768
0.0244786
0.0244804
0.0244823
0.0244841
0.024486
0.0244878
0.0244897
0.0244916
0.0244934
0.0244953
0.0244971
0.024499
0.0245008
0.0245027
0.0245046
0.0245064
0.0245083
0.0245102
0.024512
0.0245139
0.0245158
0.0245177
0.0245195
0.0245214
0.0245233
0.0245252
0.0245271
0.0245289
0.0245308
0.0245327
0.0245346
0.0245365
0.0245384
0.0245403
0.0245422
0.0245441
0.024546
0.0245479
0.0245497
0.0245517
0.0245536
0.0245555
0.0245574
0.0245593
0.0245612
0.0245631
0.024565
0.0245669
0.0245688
0.0245707
0.0245727
0.0245746
0.0245765
0.0245784
0.0245803
0.0245823
0.0245842
0.0245861
0.024588
0.02459
0.0245919
0.0245938
0.0245958
0.0245977
0.0245997
0.0246016
0.0246035
0.0246055
0.0246074
0.0246094
0.0246113
0.0246133
0.0246152
0.0246172
0.0246191
0.0246211
0.024623
0.024625
0.024627
0.0246289
0.0246309
0.0246329
0.0246348
0.0246368
0.0246388
0.0246407
0.0246427
0.0246447
0.0246467
0.0246486
0.0246506
0.0246526
0.0246546
0.0246566
0.0246586
0.0246606
0.0246625
0.0246645
0.0246665
0.0246685
0.0246705
0.0246725
0.0246745
0.0246765
0.0246785
0.0246805
0.0246825
0.0246846
0.0246866
0.0246886
0.0246906
0.0246926
0.0246946
0.0246967
0.0246987
0.0247007
0.0247027
0.0247047
0.0247068
0.0247088
0.0247108
0.0247129
0.0247149
0.0247169
0.024719
0.0247212
0.0247189
0.024809
0.0167925
0.0171275
0.0175041
0.0177265
0.0178512
0.0179293
0.0179837
0.0180254
0.0180598
0.0180897
0.0181165
0.0181412
0.0181643
0.0181862
0.018207
0.018227
0.0182463
0.018265
0.0182831
0.0183007
0.0183179
0.0183347
0.0183511
0.0183672
0.018383
0.0183985
0.0184138
0.0184288
0.0184435
0.0184581
0.0184725
0.0184867
0.0185007
0.0185146
0.0185283
0.0185418
0.0185553
0.0185685
0.0185817
0.0185948
0.0186077
0.0186205
0.0186333
0.0186459
0.0186585
0.0186709
0.0186833
0.0186956
0.0187078
0.01872
0.0187321
0.0187441
0.018756
0.018768
0.0187798
0.0187916
0.0188033
0.0188151
0.0188267
0.0188383
0.0188499
0.0188615
0.018873
0.0188845
0.0188959
0.0189073
0.0189188
0.0189302
0.0189415
0.0189529
0.0189643
0.0189756
0.018987
0.0189983
0.0190097
0.0190211
0.0190325
0.0190439
0.0190553
0.0190668
0.0190783
0.0190899
0.0191015
0.0191132
0.0191249
0.0191368
0.0191488
0.0191608
0.019173
0.0191854
0.019198
0.0192107
0.0192238
0.0192372
0.0192511
0.0192656
0.019281
0.0192977
0.0193163
0.0193377
0.0194007
0.0194411
0.019478
0.0195121
0.0195438
0.0195734
0.0196012
0.0196275
0.0196525
0.0196763
0.019699
0.0197208
0.0197418
0.0197619
0.0197814
0.0198002
0.0198184
0.0198361
0.0198533
0.01987
0.0198862
0.0199021
0.0199176
0.0199327
0.0199474
0.0199619
0.019976
0.0199899
0.0200034
0.0200168
0.0200298
0.0200427
0.0200553
0.0200677
0.0200799
0.0200919
0.0201037
0.0201154
0.0201268
0.0201381
0.0201493
0.0201602
0.0201711
0.0201818
0.0201923
0.0202027
0.020213
0.0202231
0.0202332
0.0202431
0.0202529
0.0202626
0.0202722
0.0202816
0.020291
0.0203003
0.0203094
0.0203185
0.0203275
0.0203364
0.0203452
0.0203539
0.0203626
0.0203712
0.0203796
0.020388
0.0203964
0.0204046
0.0204128
0.0204209
0.020429
0.0204369
0.0204448
0.0204527
0.0204605
0.0204682
0.0204758
0.0204834
0.020491
0.0204985
0.0205059
0.0205133
0.0205206
0.0205278
0.020535
0.0205422
0.0205493
0.0205564
0.0205634
0.0205703
0.0205773
0.0205841
0.0205909
0.0205977
0.0206044
0.0206109
0.0206176
0.0206247
0.0206326
0.0206411
0.0206474
0.0206516
0.0206558
0.0206599
0.0206641
0.0206682
0.0206723
0.0206764
0.0206805
0.0206846
0.0206886
0.0206927
0.0206967
0.0207007
0.0207047
0.0207086
0.0207126
0.0207165
0.0207205
0.0207244
0.0207283
0.0207321
0.020736
0.0207399
0.0207437
0.0207475
0.0207513
0.0207551
0.0207589
0.0207627
0.0207664
0.0207702
0.0207739
0.0207776
0.0207813
0.020785
0.0207887
0.0207924
0.020796
0.0207997
0.0208033
0.0208069
0.0208105
0.0208141
0.0208177
0.0208212
0.0208248
0.0208283
0.0208319
0.0208354
0.0208389
0.0208424
0.0208459
0.0208493
0.0208528
0.0208562
0.0208597
0.0208631
0.0208665
0.0208699
0.0208733
0.0208767
0.0208801
0.0208835
0.0208868
0.0208902
0.0208935
0.0208968
0.0209001
0.0209034
0.0209067
0.02091
0.0209133
0.0209165
0.0209198
0.020923
0.0209263
0.0209295
0.0209327
0.0209359
0.0209391
0.0209423
0.0209455
0.0209486
0.0209518
0.020955
0.0209581
0.0209612
0.0209644
0.0209675
0.0209706
0.0209737
0.0209768
0.0209798
0.0209829
0.020986
0.020989
0.0209921
0.0209951
0.0209981
0.0210012
0.0210042
0.0210072
0.0210102
0.0210132
0.0210161
0.0210191
0.0210221
0.021025
0.021028
0.0210309
0.0210338
0.0210368
0.0210397
0.0210426
0.0210455
0.0210484
0.0210513
0.0210542
0.021057
0.0210599
0.0210628
0.0210656
0.0210684
0.0210713
0.0210741
0.0210769
0.0210797
0.0210826
0.0210854
0.0210881
0.0210909
0.0210937
0.0210965
0.0210992
0.021102
0.0211048
0.0211075
0.0211102
0.021113
0.0211157
0.0211184
0.0211211
0.0211238
0.0211265
0.0211292
0.0211319
0.0211346
0.0211373
0.0211399
0.0211426
0.0211452
0.0211479
0.0211505
0.0211532
0.0211558
0.0211584
0.021161
0.0211636
0.0211662
0.0211688
0.0211714
0.021174
0.0211766
0.0211792
0.0211817
0.0211843
0.0211869
0.0211894
0.021192
0.0211945
0.021197
0.0211996
0.0212021
0.0212046
0.0212071
0.0212096
0.0212121
0.0212146
0.0212171
0.0212196
0.0212221
0.0212245
0.021227
0.0212295
0.0212319
0.0212344
0.0212368
0.0212393
0.0212417
0.0212441
0.0212465
0.021249
0.0212514
0.0212538
0.0212562
0.0212586
0.021261
0.0212634
0.0212658
0.0212681
0.0212705
0.0212729
0.0212752
0.0212776
0.0212799
0.0212823
0.0212846
0.021287
0.0212893
0.0212916
0.021294
0.0212963
0.0212986
0.0213009
0.0213032
0.0213055
0.0213078
0.0213101
0.0213124
0.0213147
0.0213169
0.0213192
0.0213215
0.0213238
0.021326
0.0213283
0.0213305
0.0213328
0.021335
0.0213372
0.0213395
0.0213417
0.0213439
0.0213461
0.0213484
0.0213506
0.0213528
0.021355
0.0213572
0.0213594
0.0213616
0.0213637
0.0213659
0.0213681
0.0213703
0.0213724
0.0213746
0.0213768
0.0213789
0.0213811
0.0213832
0.0213854
0.0213875
0.0213896
0.0213918
0.0213939
0.021396
0.0213981
0.0214002
0.0214023
0.0214045
0.0214066
0.0214087
0.0214108
0.0214128
0.0214149
0.021417
0.0214191
0.0214212
0.0214232
0.0214253
0.0214274
0.0214294
0.0214315
0.0214335
0.0214356
0.0214376
0.0214397
0.0214417
0.0214437
0.0214458
0.0214478
0.0214498
0.0214518
0.0214539
0.0214559
0.0214579
0.0214599
0.0214619
0.0214639
0.0214659
0.0214679
0.0214698
0.0214718
0.0214738
0.0214758
0.0214778
0.0214797
0.0214817
0.0214837
0.0214856
0.0214876
0.0214895
0.0214915
0.0214934
0.0214954
0.0214973
0.0214992
0.0215012
0.0215031
0.021505
0.0215069
0.0215089
0.0215108
0.0215127
0.0215146
0.0215165
0.0215184
0.0215203
0.0215222
0.0215241
0.021526
0.0215279
0.0215297
0.0215316
0.0215335
0.0215354
0.0215372
0.0215391
0.021541
0.0215428
0.0215447
0.0215465
0.0215484
0.0215502
0.0215521
0.0215539
0.0215558
0.0215576
0.0215594
0.0215612
0.0215631
0.0215649
0.0215667
0.0215686
0.0215704
0.0215723
0.0215739
0.0215748
0.0215763
0.0215787
0.0215811
0.0215835
0.0215859
0.0215882
0.0215906
0.021593
0.0215953
0.0215977
0.0216
0.0216024
0.0216047
0.0216071
0.0216094
0.0216117
0.0216141
0.0216164
0.0216187
0.021621
0.0216233
0.0216256
0.0216279
0.0216302
0.0216325
0.0216348
0.021637
0.0216393
0.0216416
0.0216438
0.0216461
0.0216484
0.0216506
0.0216529
0.0216551
0.0216573
0.0216596
0.0216618
0.021664
0.0216663
0.0216685
0.0216707
0.0216729
0.0216751
0.0216773
0.0216795
0.0216817
0.0216839
0.0216861
0.0216882
0.0216904
0.0216926
0.0216948
0.0216969
0.0216991
0.0217012
0.0217034
0.0217055
0.0217077
0.0217098
0.021712
0.0217141
0.0217162
0.0217183
0.0217205
0.0217226
0.0217247
0.0217268
0.0217289
0.021731
0.0217331
0.0217352
0.0217373
0.0217394
0.0217415
0.0217435
0.0217456
0.0217477
0.0217498
0.0217518
0.0217539
0.0217559
0.021758
0.02176
0.0217621
0.0217641
0.0217662
0.0217682
0.0217702
0.0217723
0.0217743
0.0217763
0.0217783
0.0217803
0.0217824
0.0217844
0.0217864
0.0217884
0.0217904
0.0217924
0.0217943
0.0217963
0.0217983
0.0218003
0.0218023
0.0218042
0.0218062
0.0218082
0.0218101
0.0218121
0.0218141
0.021816
0.021818
0.0218199
0.0218218
0.0218238
0.0218257
0.0218276
0.0218296
0.0218315
0.0218334
0.0218353
0.0218373
0.0218392
0.0218411
0.021843
0.0218449
0.0218468
0.0218487
0.0218506
0.0218525
0.0218544
0.0218562
0.0218581
0.02186
0.0218619
0.0218638
0.0218656
0.0218675
0.0218693
0.0218712
0.0218731
0.0218749
0.0218768
0.0218786
0.0218805
0.0218823
0.0218841
0.021886
0.0218878
0.0218896
0.0218915
0.0218933
0.0218951
0.0218969
0.0218987
0.0219005
0.0219024
0.0219042
0.021906
0.0219078
0.0219096
0.0219114
0.0219131
0.0219149
0.0219167
0.0219185
0.0219203
0.0219221
0.0219238
0.0219256
0.0219274
0.0219292
0.021931
0.0219326
0.0219338
0.0219352
0.0219384
0.0219457
0.0266566
0.0266468
0.0266406
0.0266418
0.0266424
0.0266429
0.0266437
0.0266447
0.0266453
0.0266453
0.0266452
0.0266453
0.0266455
0.0266455
0.026645
0.0266446
0.0266441
0.0266434
0.0266428
0.0266417
0.0266407
0.0266394
0.026638
0.0266368
0.0266354
0.0266339
0.0266321
0.02663
0.0266279
0.0266259
0.0266237
0.0266213
0.0266186
0.0266158
0.026613
0.0266101
0.0266071
0.0266041
0.0266009
0.0265972
0.0265938
0.0265904
0.0265864
0.0265823
0.0265782
0.0265739
0.0265695
0.0265652
0.0265606
0.0265557
0.0265508
0.026546
0.026541
0.0265357
0.0265302
0.0265245
0.0265188
0.0265129
0.0265069
0.0265011
0.026495
0.0264886
0.0264819
0.026475
0.0264681
0.0264611
0.0264542
0.0264471
0.0264398
0.0264321
0.0264243
0.0264165
0.0264084
0.0264001
0.0263918
0.0263833
0.0263746
0.0263661
0.0263573
0.0263482
0.0263387
0.0263288
0.0263188
0.0263089
0.0262988
0.0262893
0.0262805
0.0262717
0.0262613
0.0262473
0.026229
0.0262088
0.0261951
0.0261993
0.0262268
0.0262636
0.0262665
0.0261757
0.0259586
0.0256749
0.0255369
0.0213415
0.0220015
0.0220031
0.0220048
0.0220065
0.0220082
0.0220099
0.0220116
0.0220133
0.0220149
0.0220166
0.0220183
0.02202
0.0220216
0.0220233
0.0220249
0.0220266
0.0220283
0.0220299
0.0220316
0.0220332
0.0220349
0.0220365
0.0220381
0.0220398
0.0220414
0.0220431
0.0220447
0.0220463
0.0220479
0.0220496
0.0220512
0.0220528
0.0220544
0.022056
0.0220577
0.0220593
0.0220609
0.0220625
0.0220641
0.0220657
0.0220673
0.0220689
0.0220705
0.0220721
0.0220736
0.0220752
0.0220768
0.0220784
0.02208
0.0220815
0.0220831
0.0220847
0.0220863
0.0220878
0.0220894
0.022091
0.0220925
0.0220941
0.0220956
0.0220972
0.0220987
0.0221003
0.0221018
0.0221034
0.0221049
0.0221065
0.022108
0.0221095
0.0221111
0.0221126
0.0221141
0.0221157
0.0221172
0.0221187
0.0221202
0.0221217
0.0221233
0.0221248
0.0221263
0.0221278
0.0221293
0.0221308
0.0221323
0.0221338
0.0221351
0.0221365
0.0221387
0.0221423
0.0221444
0.0221443
0.0221442
0.0221442
0.0221441
0.0221441
0.022144
0.0221439
0.0221439
0.0221438
0.0221438
0.0221437
0.0221436
0.0221436
0.0221435
0.0221435
0.0221434
0.0221433
0.0221433
0.0221432
0.0221432
0.0221431
0.022143
0.022143
0.0221429
0.0221429
0.0221428
0.0221428
0.0221427
0.0221426
0.0221426
0.0221425
0.0221425
0.0221424
0.0221423
0.0221423
0.0221422
0.0221422
0.0221421
0.0221421
0.022142
0.0221419
0.0221419
0.0221418
0.0221418
0.0221417
0.0221417
0.0221416
0.0221415
0.0221415
0.0221414
0.0221414
0.0221413
0.0221413
0.0221412
0.0221412
0.0221411
0.022141
0.022141
0.0221409
0.0221409
0.0221408
0.0221408
0.0221407
0.0221407
0.0221406
0.0221405
0.0221405
0.0221404
0.0221404
0.0221403
0.0221403
0.0221402
0.0221402
0.0221401
0.02214
0.02214
0.0221399
0.0221399
0.0221398
0.0221398
0.0221397
0.0221397
0.0221396
0.0221396
0.0221395
0.0221394
0.0221394
0.0221393
0.0221393
0.0221392
0.0221392
0.0221391
0.0221391
0.022139
0.022139
0.0221389
0.0221389
0.0221388
0.0221388
0.0221387
0.0221386
0.0221386
0.0221385
0.0221385
0.0221384
0.0221384
0.0221383
0.0221383
0.0221382
0.0221382
0.0221381
0.0221381
0.022138
0.022138
0.0221379
0.0221379
0.0221378
0.0221378
0.0221377
0.0221377
0.0221376
0.0221376
0.0221375
0.0221375
0.0221374
0.0221374
0.0221373
0.0221372
0.0221372
0.0221371
0.0221371
0.022137
0.022137
0.0221369
0.0221369
0.0221368
0.0221368
0.0221367
0.0221367
0.0221366
0.0221366
0.0221365
0.0221365
0.0221364
0.0221364
0.0221363
0.0221363
0.0221362
0.0221362
0.0221361
0.0221361
0.022136
0.022136
0.022136
0.0221359
0.0221359
0.0221358
0.0221358
0.0221357
0.0221357
0.0221356
0.0221356
0.0221355
0.0221355
0.0221354
0.0221354
0.0221353
0.0221353
0.0221352
0.0221352
0.0221351
0.0221351
0.022135
0.022135
0.0221349
0.0221349
0.0221348
0.0221348
0.0221347
0.0221347
0.0221347
0.0221346
0.0221346
0.0221345
0.0221345
0.0221344
0.0221344
0.0221343
0.0221343
0.0221342
0.0221342
0.0221341
0.0221341
0.022134
0.022134
0.022134
0.0221339
0.0221339
0.0221338
0.0221338
0.0221337
0.0221337
0.0221336
0.0221336
0.0221335
0.0221335
0.0221335
0.0221334
0.0221334
0.0221333
0.0221333
0.0221332
0.0221332
0.0221331
0.0221331
0.022133
0.022133
0.022133
0.0221329
0.0221329
0.0221328
0.0221328
0.0221327
0.0221327
0.0221326
0.0221326
0.0221326
0.0221325
0.0221325
0.0221324
0.0221324
0.0221323
0.0221323
0.0221323
0.0221322
0.0221322
0.0221321
0.0221321
0.022132
0.022132
0.022132
0.0221319
0.0221319
0.0221318
0.0221318
0.0221317
0.0221317
0.0221317
0.0221316
0.0221316
0.0221315
0.0221315
0.0221314
0.0221314
0.0221314
0.0221313
0.0221313
0.0221312
0.0221312
0.0221312
0.0221311
0.0221311
0.022131
0.022131
0.0221309
0.0221309
0.0221309
0.0221308
0.0221308
0.0221307
0.0221307
0.0221307
0.0221306
0.0221306
0.0221305
0.0221305
0.0221304
0.0221304
0.0221304
0.0221304
0.0221305
0.0221304
0.0221296
0.0221278
0.0221276
0.022136
0.0221566
0.0221623
0.0220723
0.0218292
0.0217131
0.0227051
0.0253663
0.0265838
0.022523
0.0182482
0.0174729
0.0174339
0.0174291
0.0174253
0.0174201
0.0174158
0.0174136
0.0174114
0.0174093
0.0174072
0.0174052
0.0174031
0.0174011
0.0173991
0.0173971
0.0173951
0.0173932
0.0173913
0.0173893
0.0173874
0.0173856
0.0173837
0.0173818
0.01738
0.0173782
0.0173764
0.0173746
0.0173728
0.017371
0.0173693
0.0173675
0.0173658
0.0173641
0.0173624
0.0173607
0.017359
0.0173574
0.0173557
0.0173541
0.0173524
0.0173508
0.0173492
0.0173476
0.017346
0.0173445
0.0173429
0.0173414
0.0173398
0.0173383
0.0173368
0.0173353
0.0173338
0.0173324
0.0173309
0.0173294
0.017328
0.0173266
0.0173252
0.0173238
0.0173224
0.017321
0.0173197
0.0173183
0.017317
0.0173156
0.0173143
0.017313
0.0173117
0.0173105
0.0173092
0.017308
0.0173067
0.0173055
0.0173043
0.0173031
0.0173019
0.0173008
0.0172996
0.0172985
0.0172974
0.0172963
0.0172952
0.0172941
0.017293
0.017292
0.0172909
0.0172899
0.0172889
0.0172879
0.0172869
0.017286
0.017285
0.0172841
0.0172832
0.0172822
0.0172814
0.0172805
0.0172796
0.0172788
0.0172779
0.0172771
0.0172763
0.0172755
0.0172747
0.017274
0.0172732
0.0172725
0.0172718
0.0172711
0.0172704
0.0172697
0.0172691
0.0172684
0.0172678
0.0172672
0.0172666
0.017266
0.0172654
0.0172648
0.0172643
0.0172638
0.0172632
0.0172627
0.0172622
0.0172618
0.0172613
0.0172608
0.0172604
0.01726
0.0172596
0.0172592
0.0172588
0.0172584
0.0172581
0.0172577
0.0172574
0.0172571
0.0172568
0.0172565
0.0172562
0.0172559
0.0172557
0.0172555
0.0172552
0.017255
0.0172548
0.0172546
0.0172544
0.0172543
0.0172541
0.017254
0.0172538
0.0172537
0.0172536
0.0172535
0.0172534
0.0172534
0.0172533
0.0172533
0.0172532
0.0172532
0.0172532
0.0172532
0.0172532
0.0172532
0.0172532
0.0172532
0.0172533
0.0172533
0.0172534
0.0172535
0.0172535
0.0172536
0.0172537
0.0172538
0.0172539
0.017254
0.0172542
0.0172543
0.0172544
0.0172546
0.0172547
0.0172549
0.0172551
0.0172552
0.0172554
0.0172556
0.0172558
0.017256
0.0172562
0.0172564
0.0172566
0.0172568
0.0172571
0.0172573
0.0172575
0.0172578
0.017258
0.0172583
0.0172585
0.0172588
0.0172591
0.0172593
0.0172596
0.0172599
0.0172602
0.0172605
0.0172608
0.0172611
0.0172614
0.0172617
0.017262
0.0172624
0.0172627
0.017263
0.0172634
0.0172637
0.0172641
0.0172645
0.0172648
0.0172652
0.0172656
0.017266
0.0172663
0.0172667
0.0172671
0.0172675
0.017268
0.0172684
0.0172688
0.0172692
0.0172697
0.0172701
0.0172705
0.017271
0.0172715
0.0172719
0.0172724
0.0172729
0.0172734
0.0172739
0.0172744
0.0172749
0.0172754
0.0172759
0.0172764
0.017277
0.0172775
0.0172781
0.0172786
0.0172792
0.0172798
0.0172804
0.017281
0.0172816
0.0172822
0.0172828
0.0172835
0.0172841
0.0172847
0.0172854
0.0172861
0.0172868
0.0172874
0.0172881
0.0172888
0.0172895
0.0172903
0.017291
0.0172917
0.0172925
0.0172932
0.017294
0.0172948
0.0172955
0.0172963
0.0172971
0.0172979
0.0172987
0.0172995
0.0173003
0.0173011
0.0173019
0.0173028
0.0173036
0.0173044
0.0173053
0.0173061
0.0173069
0.0173078
0.0173086
0.0173095
0.0173103
0.0173112
0.017312
0.0173129
0.0173137
0.0173146
0.0173155
0.0173163
0.0173172
0.017318
0.0173189
0.0173197
0.0173206
0.0173214
0.0173223
0.0173231
0.017324
0.0173248
0.0173256
0.0173265
0.0173273
0.0173282
0.017329
0.0173298
0.0173306
0.0173315
0.0173323
0.0173331
0.017334
0.0173348
0.0173356
0.0173365
0.0173373
0.0173381
0.017339
0.0173398
0.0173406
0.0173415
0.0173423
0.0173432
0.017344
0.0173449
0.0173458
0.0173466
0.0173475
0.0173484
0.0173493
0.0173502
0.0173511
0.017352
0.017353
0.0173539
0.0173548
0.0173558
0.0173568
0.0173578
0.0173588
0.0173598
0.0173608
0.0173618
0.0173629
0.017364
0.017365
0.0173661
0.0173672
0.0173684
0.0173695
0.0173707
0.0173719
0.0173731
0.0173743
0.0173755
0.0173768
0.017378
0.0173793
0.0173806
0.0173819
0.0173833
0.0173846
0.017386
0.0173874
0.0173888
0.0173903
0.0173917
0.0173932
0.0173947
0.0173962
0.0173977
0.0173993
0.0174008
0.0174024
0.017404
0.0174057
0.0174073
0.017409
0.0174106
0.0174123
0.0174141
0.0174158
0.0174176
0.0174193
0.0174211
0.0174229
0.0174248
0.0174266
0.0174285
0.0174304
0.0174323
0.0174342
0.0174362
0.0174381
0.0174401
0.0174421
0.0174441
0.0174462
0.0174482
0.0174503
0.0174524
0.0174545
0.0174567
0.0174588
0.017461
0.0174632
0.0174654
0.0174676
0.0174699
0.0174721
0.0174744
0.0174767
0.017479
0.0174814
0.0174837
0.0174861
0.0174885
0.0174909
0.0174934
0.0174959
0.0174983
0.0175008
0.0175034
0.0175059
0.0175085
0.0175111
0.0175137
0.0175163
0.0175189
0.0175216
0.0175243
0.017527
0.0175298
0.0175325
0.0175353
0.0175381
0.0175409
0.0175438
0.0175467
0.0175496
0.0175525
0.0175554
0.0175584
0.0175614
0.0175644
0.0175675
0.0175705
0.0175736
0.0175767
0.0175799
0.0175831
0.0175863
0.0175895
0.0175928
0.017596
0.0175994
0.0176027
0.0176061
0.0176095
0.0176129
0.0176164
0.0176199
0.0176234
0.017627
0.0176306
0.0176342
0.0176379
0.0176416
0.0176453
0.0176491
0.0176529
0.0176567
0.0176606
0.0176645
0.0176685
0.0176725
0.0176765
0.0176806
0.0176847
0.0176889
0.0176931
0.0176973
0.0177016
0.017706
0.0177104
0.0177148
0.0177193
0.0177238
0.0177284
0.0177331
0.0177378
0.0177425
0.0177474
0.0177522
0.0177572
0.0177622
0.0177672
0.0177724
0.0177775
0.0177828
0.0177881
0.0177935
0.017799
0.0178045
0.0178102
0.0178159
0.0178217
0.0178275
0.0178335
0.0178395
0.0178456
0.0178518
0.0178581
0.0178645
0.017871
0.0178776
0.0178843
0.0178911
0.017898
0.017905
0.0179121
0.0179193
0.0179267
0.0179341
0.0179417
0.0179494
0.0179572
0.0179651
0.0179732
0.0179814
0.0179897
0.0179981
0.0180067
0.0180154
0.0180242
0.0180332
0.0180422
0.0180515
0.0180608
0.0180703
0.0180799
0.0180897
0.0180995
0.0181095
0.0181197
0.0181299
0.0181403
0.0181509
0.0181615
0.0181723
0.0181832
0.0181941
0.0182053
0.0182165
0.0182278
0.0182393
0.0182508
0.0182624
0.0182741
0.018286
0.0182979
0.0183098
0.0183219
0.018334
0.0183462
0.0183584
0.0183707
0.018383
0.0183954
0.0184078
0.0184202
0.0184327
0.0184451
0.0184576
0.0184701
0.0184825
0.018495
0.0185074
0.0185198
0.0185322
0.0185445
0.0185568
0.018569
0.0185811
0.0185932
0.0186052
0.0186171
0.0186289
0.0186406
0.0186522
0.0186637
0.0186751
0.0186863
0.0186974
0.0187084
0.0187192
0.0187299
0.0187404
0.0187507
0.0187609
0.0187709
0.0187807
0.0187904
0.0187998
0.0188091
0.0188181
0.018827
0.0188357
0.0188441
0.0188524
0.0188604
0.0188683
0.0188759
0.0188833
0.0188905
0.0188975
0.0189043
0.0189108
0.0189172
0.0189233
0.0189292
0.0189349
0.0189404
0.0189456
0.0189507
0.0189555
0.0189601
0.0189646
0.0189688
0.0189728
0.0189766
0.0189801
0.0189835
0.0189867
0.0189897
0.0189924
0.018995
0.0189973
0.0189994
0.0190014
0.0190031
0.0190046
0.0190059
0.0190069
0.0190078
0.0190084
0.0190089
0.0190091
0.019009
0.0190088
0.0190083
0.0190076
0.0190067
0.0190055
0.0190041
0.0190025
0.0190006
0.0189985
0.0189962
0.0189936
0.0189908
0.0189878
0.0189845
0.018981
0.0189773
0.0189734
0.0189693
0.018965
0.0189604
0.0189557
0.0189508
0.0189457
0.0189405
0.0189351
0.0189296
0.018924
0.0189183
0.0189124
0.0189065
0.0189005
0.0188945
0.0188884
0.0188823
0.0188762
0.0188701
0.0188641
0.0188581
0.0188521
0.0188463
0.0188405
0.0188348
0.0188292
0.0188238
0.0188185
0.0188134
0.0188084
0.0188036
0.018799
0.0187946
0.0187904
0.0187864
0.0187825
0.0187789
0.0187755
0.0187724
0.0187694
0.0187666
0.0187641
0.0187618
0.0187597
0.0187578
0.0187561
0.0187546
0.0187533
0.0187521
0.0187512
0.0187505
0.0187499
0.0187495
0.0187492
0.0187491
0.0187491
0.0187493
0.0187496
0.0187501
0.0187506
0.0187513
0.0187521
0.0187529
0.0187539
0.0187549
0.018756
0.0187572
0.0187585
0.0187598
0.0187611
0.0187626
0.018764
0.0187655
0.0187671
0.0187686
0.0187702
0.0187719
0.0187735
0.0187752
0.0187769
0.0187786
0.0187803
0.018782
0.0187837
0.0187854
0.0187871
0.0187888
0.0187906
0.0187923
0.018794
0.0187957
0.0187974
0.0187991
0.0188008
0.0188025
0.0188041
0.0188058
0.0188075
0.0188091
0.0188108
0.0188124
0.018814
0.0188156
0.0188172
0.0188188
0.0188204
0.018822
0.0188235
0.0188251
0.0188266
0.0188281
0.0188296
0.0188312
0.0188326
0.0188341
0.0188356
0.0188371
0.0188386
0.01884
0.0188415
0.0188429
0.0188443
0.0188457
0.0188471
0.0188485
0.0188499
0.0188513
0.0188527
0.0188541
0.0188554
0.0188568
0.0188582
0.0188595
0.0188608
0.0188622
0.0188635
0.0188648
0.0188661
0.0188674
0.0188687
0.01887
0.0188713
0.0188726
0.0188739
0.0188751
0.0188764
0.0188776
0.0188789
0.0188802
0.0188814
0.0188826
0.0188839
0.0188851
0.0188863
0.0188876
0.0188888
0.01889
0.0188912
0.0188924
0.0188936
0.0188948
0.018896
0.0188972
0.0188984
0.0188996
0.0189007
0.0189019
0.0189031
0.0189043
0.0189054
0.0189066
0.0189078
0.0189089
0.0189101
0.0189112
0.0189124
0.0189135
0.0189146
0.0189158
0.0189169
0.018918
0.0189192
0.0189203
0.0189214
0.0189225
0.0189237
0.0189248
0.0189259
0.018927
0.0189281
0.0189292
0.0189303
0.0189314
0.0189325
0.0189336
0.0189347
0.0189357
0.0189368
0.0189379
0.018939
0.01894
0.0189411
0.0189422
0.0189432
0.0189443
0.0189453
0.0189464
0.0189474
0.0189485
0.0189495
0.0189506
0.0189516
0.0189526
0.0189537
0.0189547
0.0189557
0.0189567
0.0189577
0.0189587
0.0189597
0.0189608
0.0189618
0.0189627
0.0189637
0.0189647
0.0189657
0.0189667
0.0189677
0.0189687
0.0189696
0.0189706
0.0189716
0.0189725
0.0189735
0.0189745
0.0189754
0.0189764
0.0189773
0.0189782
0.0189792
0.0189801
0.0189811
0.018982
0.0189829
0.0189838
0.0189848
0.0189857
0.0189866
0.0189875
0.0189884
0.0189893
0.0189902
0.0189911
0.018992
0.0189929
0.0189938
0.0189947
0.0189956
0.0189965
0.0189974
0.0189982
0.0189991
0.0190001
)
;

boundaryField
{
    inlet
    {
        type            zeroGradient;
    }
    outlet
    {
        type            zeroGradient;
    }
    right
    {
        type            empty;
    }
    left
    {
        type            empty;
    }
    atmosphere
    {
        type            empty;
    }
    bottomWall
    {
        type            empty;
    }
}


// ************************************************************************* //
