/*--------------------------------*- C++ -*----------------------------------*\
| =========                 |                                                 |
| \\      /  F ield         | foam-extend: Open Source CFD                    |
|  \\    /   O peration     | Version:     3.1                                |
|   \\  /    A nd           | Web:         http://www.extend-project.de       |
|    \\/     M anipulation  |                                                 |
\*---------------------------------------------------------------------------*/
FoamFile
{
    version     2.0;
    format      ascii;
    class       volVectorField;
    location    "18";
    object      U;
}
// * * * * * * * * * * * * * * * * * * * * * * * * * * * * * * * * * * * * * //

dimensions      [0 1 -1 0 0 0 0];

internalField   nonuniform List<vector> 
2539
(
(0.728532 0 0)
(0.728926 0 0)
(0.729728 0 0)
(0.730515 0 0)
(0.731305 0 0)
(0.732097 0 0)
(0.73289 0 0)
(0.733685 0 0)
(0.734483 0 0)
(0.735282 0 0)
(0.736083 0 0)
(0.736886 0 0)
(0.737691 0 0)
(0.738498 0 0)
(0.739307 0 0)
(0.740118 0 0)
(0.74093 0 0)
(0.741745 0 0)
(0.742562 0 0)
(0.743381 0 0)
(0.744202 0 0)
(0.745025 0 0)
(0.74585 0 0)
(0.746677 0 0)
(0.747506 0 0)
(0.748337 0 0)
(0.74917 0 0)
(0.750005 0 0)
(0.750842 0 0)
(0.751682 0 0)
(0.752523 0 0)
(0.753367 0 0)
(0.754213 0 0)
(0.755061 0 0)
(0.755911 0 0)
(0.756763 0 0)
(0.757617 0 0)
(0.758474 0 0)
(0.759332 0 0)
(0.760193 0 0)
(0.761056 0 0)
(0.761921 0 0)
(0.762789 0 0)
(0.763658 0 0)
(0.76453 0 0)
(0.765404 0 0)
(0.766281 0 0)
(0.76716 0 0)
(0.76804 0 0)
(0.768924 0 0)
(0.769809 0 0)
(0.770697 0 0)
(0.771587 0 0)
(0.77248 0 0)
(0.773374 0 0)
(0.774272 0 0)
(0.775171 0 0)
(0.776073 0 0)
(0.776977 0 0)
(0.777884 0 0)
(0.778793 0 0)
(0.779704 0 0)
(0.780618 0 0)
(0.781534 0 0)
(0.782453 0 0)
(0.783374 0 0)
(0.784298 0 0)
(0.785224 0 0)
(0.786153 0 0)
(0.787084 0 0)
(0.788018 0 0)
(0.788954 0 0)
(0.789892 0 0)
(0.790834 0 0)
(0.791778 0 0)
(0.792724 0 0)
(0.793673 0 0)
(0.794624 0 0)
(0.795579 0 0)
(0.796535 0 0)
(0.797495 0 0)
(0.798457 0 0)
(0.799422 0 0)
(0.800389 0 0)
(0.801359 0 0)
(0.802332 0 0)
(0.803308 0 0)
(0.804286 0 0)
(0.805267 0 0)
(0.806251 0 0)
(0.807237 0 0)
(0.808226 0 0)
(0.809219 0 0)
(0.810213 0 0)
(0.811211 0 0)
(0.812212 0 0)
(0.813215 0 0)
(0.814221 0 0)
(0.815231 0 0)
(0.816243 0 0)
(0.817257 0 0)
(0.818275 0 0)
(0.819296 0 0)
(0.82032 0 0)
(0.821347 0 0)
(0.822376 0 0)
(0.823409 0 0)
(0.824445 0 0)
(0.825484 0 0)
(0.826525 0 0)
(0.82757 0 0)
(0.828618 0 0)
(0.829669 0 0)
(0.830723 0 0)
(0.831781 0 0)
(0.832841 0 0)
(0.833904 0 0)
(0.834971 0 0)
(0.836041 0 0)
(0.837114 0 0)
(0.838191 0 0)
(0.83927 0 0)
(0.840353 0 0)
(0.841439 0 0)
(0.842529 0 0)
(0.843621 0 0)
(0.844718 0 0)
(0.845817 0 0)
(0.84692 0 0)
(0.848026 0 0)
(0.849136 0 0)
(0.850249 0 0)
(0.851365 0 0)
(0.852485 0 0)
(0.853608 0 0)
(0.854735 0 0)
(0.855866 0 0)
(0.857 0 0)
(0.858137 0 0)
(0.859278 0 0)
(0.860423 0 0)
(0.861571 0 0)
(0.862723 0 0)
(0.863879 0 0)
(0.865038 0 0)
(0.866201 0 0)
(0.867368 0 0)
(0.868539 0 0)
(0.869713 0 0)
(0.870891 0 0)
(0.872073 0 0)
(0.873259 0 0)
(0.874448 0 0)
(0.875642 0 0)
(0.876839 0 0)
(0.87804 0 0)
(0.879246 0 0)
(0.880455 0 0)
(0.881668 0 0)
(0.882885 0 0)
(0.884107 0 0)
(0.885332 0 0)
(0.886561 0 0)
(0.887795 0 0)
(0.889033 0 0)
(0.890275 0 0)
(0.891521 0 0)
(0.892771 0 0)
(0.894026 0 0)
(0.895285 0 0)
(0.896548 0 0)
(0.897815 0 0)
(0.899087 0 0)
(0.900363 0 0)
(0.901644 0 0)
(0.902929 0 0)
(0.904219 0 0)
(0.905513 0 0)
(0.906812 0 0)
(0.908115 0 0)
(0.909422 0 0)
(0.910735 0 0)
(0.912052 0 0)
(0.913374 0 0)
(0.9147 0 0)
(0.916646 0 0)
(0.918342 0 0)
(0.918803 0 0)
(0.919201 0 0)
(0.919595 0 0)
(0.91999 0 0)
(0.920385 0 0)
(0.92078 0 0)
(0.921176 0 0)
(0.921572 0 0)
(0.921969 0 0)
(0.922366 0 0)
(0.922764 0 0)
(0.923161 0 0)
(0.92356 0 0)
(0.923959 0 0)
(0.924358 0 0)
(0.924758 0 0)
(0.925158 0 0)
(0.925558 0 0)
(0.925959 0 0)
(0.92636 0 0)
(0.926762 0 0)
(0.927165 0 0)
(0.927567 0 0)
(0.92797 0 0)
(0.928374 0 0)
(0.928778 0 0)
(0.929182 0 0)
(0.929587 0 0)
(0.929992 0 0)
(0.930398 0 0)
(0.930804 0 0)
(0.931211 0 0)
(0.931618 0 0)
(0.932026 0 0)
(0.932434 0 0)
(0.932842 0 0)
(0.933251 0 0)
(0.93366 0 0)
(0.93407 0 0)
(0.93448 0 0)
(0.934891 0 0)
(0.935302 0 0)
(0.935713 0 0)
(0.936125 0 0)
(0.936538 0 0)
(0.936951 0 0)
(0.937364 0 0)
(0.937778 0 0)
(0.938192 0 0)
(0.938607 0 0)
(0.939022 0 0)
(0.939438 0 0)
(0.939854 0 0)
(0.940271 0 0)
(0.940688 0 0)
(0.941105 0 0)
(0.941523 0 0)
(0.941942 0 0)
(0.942361 0 0)
(0.94278 0 0)
(0.9432 0 0)
(0.94362 0 0)
(0.944041 0 0)
(0.944462 0 0)
(0.944884 0 0)
(0.945306 0 0)
(0.945729 0 0)
(0.946152 0 0)
(0.946576 0 0)
(0.947 0 0)
(0.947425 0 0)
(0.94785 0 0)
(0.948275 0 0)
(0.948701 0 0)
(0.949128 0 0)
(0.949555 0 0)
(0.949982 0 0)
(0.95041 0 0)
(0.950839 0 0)
(0.951268 0 0)
(0.951697 0 0)
(0.952127 0 0)
(0.952558 0 0)
(0.952989 0 0)
(0.95342 0 0)
(0.953852 0 0)
(0.954285 0 0)
(0.954718 0 0)
(0.955151 0 0)
(0.955585 0 0)
(0.956019 0 0)
(0.956454 0 0)
(0.95689 0 0)
(0.957326 0 0)
(0.957762 0 0)
(0.958199 0 0)
(0.958637 0 0)
(0.959075 0 0)
(0.959513 0 0)
(0.959952 0 0)
(0.960392 0 0)
(0.960832 0 0)
(0.961272 0 0)
(0.961713 0 0)
(0.962155 0 0)
(0.962597 0 0)
(0.96304 0 0)
(0.963483 0 0)
(0.963926 0 0)
(0.964371 0 0)
(0.964815 0 0)
(0.965261 0 0)
(0.965706 0 0)
(0.966153 0 0)
(0.966599 0 0)
(0.967047 0 0)
(0.967495 0 0)
(0.967943 0 0)
(0.968392 0 0)
(0.968842 0 0)
(0.969292 0 0)
(0.969742 0 0)
(0.970193 0 0)
(0.970645 0 0)
(0.971097 0 0)
(0.97155 0 0)
(0.972003 0 0)
(0.972457 0 0)
(0.972911 0 0)
(0.973366 0 0)
(0.973822 0 0)
(0.974278 0 0)
(0.974734 0 0)
(0.975191 0 0)
(0.975649 0 0)
(0.976107 0 0)
(0.976566 0 0)
(0.977025 0 0)
(0.977485 0 0)
(0.977946 0 0)
(0.978407 0 0)
(0.978868 0 0)
(0.979331 0 0)
(0.979793 0 0)
(0.980257 0 0)
(0.98072 0 0)
(0.981185 0 0)
(0.98165 0 0)
(0.982115 0 0)
(0.982582 0 0)
(0.983048 0 0)
(0.983516 0 0)
(0.983983 0 0)
(0.984452 0 0)
(0.984921 0 0)
(0.985391 0 0)
(0.985861 0 0)
(0.986332 0 0)
(0.986803 0 0)
(0.987275 0 0)
(0.987747 0 0)
(0.988221 0 0)
(0.988694 0 0)
(0.989169 0 0)
(0.989644 0 0)
(0.990119 0 0)
(0.990595 0 0)
(0.991072 0 0)
(0.991549 0 0)
(0.992027 0 0)
(0.992506 0 0)
(0.992985 0 0)
(0.993465 0 0)
(0.993945 0 0)
(0.994426 0 0)
(0.994908 0 0)
(0.99539 0 0)
(0.995873 0 0)
(0.996356 0 0)
(0.99684 0 0)
(0.997325 0 0)
(0.99781 0 0)
(0.998296 0 0)
(0.998783 0 0)
(0.99927 0 0)
(0.999758 0 0)
(1.00025 0 0)
(1.00073 0 0)
(1.00122 0 0)
(1.00171 0 0)
(1.00221 0 0)
(1.0027 0 0)
(1.00319 0 0)
(1.00368 0 0)
(1.00418 0 0)
(1.00467 0 0)
(1.00515 0 0)
(1.00604 0 0)
(0.99852 0 0)
(1.05627 0 0)
(1.12641 0 0)
(1.1706 0 0)
(1.19878 0 0)
(1.21878 0 0)
(1.23439 0 0)
(1.24749 0 0)
(1.25905 0 0)
(1.26959 0 0)
(1.27943 0 0)
(1.28874 0 0)
(1.29764 0 0)
(1.30622 0 0)
(1.31451 0 0)
(1.32258 0 0)
(1.33043 0 0)
(1.33812 0 0)
(1.34564 0 0)
(1.35302 0 0)
(1.36028 0 0)
(1.36742 0 0)
(1.37446 0 0)
(1.3814 0 0)
(1.38825 0 0)
(1.39502 0 0)
(1.40172 0 0)
(1.40836 0 0)
(1.41492 0 0)
(1.42143 0 0)
(1.42789 0 0)
(1.43429 0 0)
(1.44065 0 0)
(1.44697 0 0)
(1.45324 0 0)
(1.45948 0 0)
(1.46568 0 0)
(1.47185 0 0)
(1.47798 0 0)
(1.48409 0 0)
(1.49017 0 0)
(1.49623 0 0)
(1.50227 0 0)
(1.50828 0 0)
(1.51428 0 0)
(1.52025 0 0)
(1.52621 0 0)
(1.53216 0 0)
(1.53809 0 0)
(1.54401 0 0)
(1.54992 0 0)
(1.55582 0 0)
(1.56172 0 0)
(1.5676 0 0)
(1.57349 0 0)
(1.57936 0 0)
(1.58524 0 0)
(1.59111 0 0)
(1.59698 0 0)
(1.60285 0 0)
(1.60873 0 0)
(1.61461 0 0)
(1.62049 0 0)
(1.62638 0 0)
(1.63228 0 0)
(1.63819 0 0)
(1.64411 0 0)
(1.65004 0 0)
(1.65599 0 0)
(1.66196 0 0)
(1.66794 0 0)
(1.67395 0 0)
(1.67998 0 0)
(1.68604 0 0)
(1.69212 0 0)
(1.69825 0 0)
(1.70441 0 0)
(1.71061 0 0)
(1.71686 0 0)
(1.72316 0 0)
(1.72953 0 0)
(1.73596 0 0)
(1.74247 0 0)
(1.74907 0 0)
(1.75577 0 0)
(1.76259 0 0)
(1.76955 0 0)
(1.77667 0 0)
(1.78399 0 0)
(1.79156 0 0)
(1.79941 0 0)
(1.80762 0 0)
(1.81628 0 0)
(1.82549 0 0)
(1.83539 0 0)
(1.84615 0 0)
(1.85795 0 0)
(1.871 0 0)
(1.8855 0 0)
(1.90158 0 0)
(1.9453 0 0)
(1.96586 0 0)
(1.98507 0 0)
(2.00315 0 0)
(2.02025 0 0)
(2.0365 0 0)
(2.05201 0 0)
(2.06687 0 0)
(2.08115 0 0)
(2.09491 0 0)
(2.10819 0 0)
(2.12105 0 0)
(2.13352 0 0)
(2.14564 0 0)
(2.15742 0 0)
(2.16891 0 0)
(2.18011 0 0)
(2.19105 0 0)
(2.20175 0 0)
(2.21222 0 0)
(2.22248 0 0)
(2.23253 0 0)
(2.2424 0 0)
(2.25209 0 0)
(2.26161 0 0)
(2.27097 0 0)
(2.28018 0 0)
(2.28924 0 0)
(2.29816 0 0)
(2.30696 0 0)
(2.31563 0 0)
(2.32418 0 0)
(2.33261 0 0)
(2.34093 0 0)
(2.34915 0 0)
(2.35727 0 0)
(2.36529 0 0)
(2.37321 0 0)
(2.38104 0 0)
(2.38879 0 0)
(2.39645 0 0)
(2.40403 0 0)
(2.41153 0 0)
(2.41896 0 0)
(2.42631 0 0)
(2.43358 0 0)
(2.44079 0 0)
(2.44794 0 0)
(2.45501 0 0)
(2.46202 0 0)
(2.46898 0 0)
(2.47587 0 0)
(2.4827 0 0)
(2.48947 0 0)
(2.49619 0 0)
(2.50286 0 0)
(2.50947 0 0)
(2.51604 0 0)
(2.52255 0 0)
(2.52901 0 0)
(2.53543 0 0)
(2.54179 0 0)
(2.54812 0 0)
(2.5544 0 0)
(2.56063 0 0)
(2.56682 0 0)
(2.57297 0 0)
(2.57908 0 0)
(2.58515 0 0)
(2.59118 0 0)
(2.59717 0 0)
(2.60313 0 0)
(2.60904 0 0)
(2.61492 0 0)
(2.62077 0 0)
(2.62658 0 0)
(2.63236 0 0)
(2.6381 0 0)
(2.64381 0 0)
(2.64949 0 0)
(2.65513 0 0)
(2.66075 0 0)
(2.66633 0 0)
(2.67188 0 0)
(2.67741 0 0)
(2.6829 0 0)
(2.68837 0 0)
(2.6938 0 0)
(2.69921 0 0)
(2.7046 0 0)
(2.70995 0 0)
(2.71528 0 0)
(2.72058 0 0)
(2.72585 0 0)
(2.7311 0 0)
(2.73636 0 0)
(2.74163 0 0)
(2.74689 0 0)
(2.75202 0 0)
(2.75667 0 0)
(2.76049 0 0)
(2.76382 0 0)
(2.76713 0 0)
(2.77044 0 0)
(2.77373 0 0)
(2.77701 0 0)
(2.78029 0 0)
(2.78355 0 0)
(2.7868 0 0)
(2.79005 0 0)
(2.79328 0 0)
(2.79651 0 0)
(2.79972 0 0)
(2.80293 0 0)
(2.80613 0 0)
(2.80932 0 0)
(2.81249 0 0)
(2.81566 0 0)
(2.81883 0 0)
(2.82198 0 0)
(2.82512 0 0)
(2.82825 0 0)
(2.83138 0 0)
(2.8345 0 0)
(2.83761 0 0)
(2.84071 0 0)
(2.8438 0 0)
(2.84688 0 0)
(2.84995 0 0)
(2.85302 0 0)
(2.85608 0 0)
(2.85913 0 0)
(2.86217 0 0)
(2.86521 0 0)
(2.86823 0 0)
(2.87125 0 0)
(2.87426 0 0)
(2.87726 0 0)
(2.88026 0 0)
(2.88325 0 0)
(2.88623 0 0)
(2.8892 0 0)
(2.89216 0 0)
(2.89512 0 0)
(2.89807 0 0)
(2.90101 0 0)
(2.90395 0 0)
(2.90688 0 0)
(2.9098 0 0)
(2.91271 0 0)
(2.91562 0 0)
(2.91852 0 0)
(2.92141 0 0)
(2.9243 0 0)
(2.92717 0 0)
(2.93005 0 0)
(2.93291 0 0)
(2.93577 0 0)
(2.93862 0 0)
(2.94147 0 0)
(2.9443 0 0)
(2.94714 0 0)
(2.94996 0 0)
(2.95278 0 0)
(2.95559 0 0)
(2.9584 0 0)
(2.9612 0 0)
(2.96399 0 0)
(2.96678 0 0)
(2.96956 0 0)
(2.97233 0 0)
(2.9751 0 0)
(2.97786 0 0)
(2.98061 0 0)
(2.98336 0 0)
(2.98611 0 0)
(2.98884 0 0)
(2.99158 0 0)
(2.9943 0 0)
(2.99702 0 0)
(2.99973 0 0)
(3.00244 0 0)
(3.00514 0 0)
(3.00784 0 0)
(3.01053 0 0)
(3.01321 0 0)
(3.01589 0 0)
(3.01857 0 0)
(3.02123 0 0)
(3.0239 0 0)
(3.02655 0 0)
(3.0292 0 0)
(3.03185 0 0)
(3.03449 0 0)
(3.03712 0 0)
(3.03975 0 0)
(3.04237 0 0)
(3.04499 0 0)
(3.04761 0 0)
(3.05021 0 0)
(3.05282 0 0)
(3.05541 0 0)
(3.058 0 0)
(3.06059 0 0)
(3.06317 0 0)
(3.06575 0 0)
(3.06832 0 0)
(3.07089 0 0)
(3.07345 0 0)
(3.076 0 0)
(3.07855 0 0)
(3.0811 0 0)
(3.08364 0 0)
(3.08618 0 0)
(3.08871 0 0)
(3.09123 0 0)
(3.09376 0 0)
(3.09627 0 0)
(3.09878 0 0)
(3.10129 0 0)
(3.10379 0 0)
(3.10629 0 0)
(3.10878 0 0)
(3.11127 0 0)
(3.11376 0 0)
(3.11623 0 0)
(3.11871 0 0)
(3.12118 0 0)
(3.12364 0 0)
(3.1261 0 0)
(3.12856 0 0)
(3.13101 0 0)
(3.13346 0 0)
(3.1359 0 0)
(3.13834 0 0)
(3.14077 0 0)
(3.1432 0 0)
(3.14562 0 0)
(3.14804 0 0)
(3.15046 0 0)
(3.15287 0 0)
(3.15528 0 0)
(3.15768 0 0)
(3.16008 0 0)
(3.16247 0 0)
(3.16486 0 0)
(3.16725 0 0)
(3.16963 0 0)
(3.172 0 0)
(3.17438 0 0)
(3.17674 0 0)
(3.17911 0 0)
(3.18147 0 0)
(3.18383 0 0)
(3.18618 0 0)
(3.18853 0 0)
(3.19087 0 0)
(3.19321 0 0)
(3.19555 0 0)
(3.19788 0 0)
(3.20021 0 0)
(3.20253 0 0)
(3.20485 0 0)
(3.20717 0 0)
(3.20948 0 0)
(3.21179 0 0)
(3.21409 0 0)
(3.21639 0 0)
(3.21869 0 0)
(3.22098 0 0)
(3.22327 0 0)
(3.22555 0 0)
(3.22784 0 0)
(3.23011 0 0)
(3.23239 0 0)
(3.23466 0 0)
(3.23692 0 0)
(3.23919 0 0)
(3.24144 0 0)
(3.2437 0 0)
(3.24595 0 0)
(3.2482 0 0)
(3.25044 0 0)
(3.25268 0 0)
(3.25492 0 0)
(3.25715 0 0)
(3.25938 0 0)
(3.26161 0 0)
(3.26383 0 0)
(3.26605 0 0)
(3.26826 0 0)
(3.27047 0 0)
(3.27268 0 0)
(3.27489 0 0)
(3.27709 0 0)
(3.27928 0 0)
(3.28148 0 0)
(3.28367 0 0)
(3.28586 0 0)
(3.28804 0 0)
(3.29022 0 0)
(3.2924 0 0)
(3.29457 0 0)
(3.29674 0 0)
(3.29891 0 0)
(3.30107 0 0)
(3.30323 0 0)
(3.30539 0 0)
(3.30754 0 0)
(3.30969 0 0)
(3.31184 0 0)
(3.31398 0 0)
(3.31612 0 0)
(3.31826 0 0)
(3.32039 0 0)
(3.32252 0 0)
(3.32465 0 0)
(3.32677 0 0)
(3.32889 0 0)
(3.33101 0 0)
(3.33312 0 0)
(3.33523 0 0)
(3.33734 0 0)
(3.33944 0 0)
(3.34155 0 0)
(3.34364 0 0)
(3.34574 0 0)
(3.34783 0 0)
(3.34992 0 0)
(3.35201 0 0)
(3.35409 0 0)
(3.35617 0 0)
(3.35824 0 0)
(3.36032 0 0)
(3.36239 0 0)
(3.36445 0 0)
(3.36652 0 0)
(3.36858 0 0)
(3.37064 0 0)
(3.37269 0 0)
(3.37475 0 0)
(3.37679 0 0)
(3.37884 0 0)
(3.38088 0 0)
(3.38292 0 0)
(3.38496 0 0)
(3.387 0 0)
(3.38903 0 0)
(3.39106 0 0)
(3.39308 0 0)
(3.3951 0 0)
(3.39712 0 0)
(3.39914 0 0)
(3.40115 0 0)
(3.40317 0 0)
(3.40517 0 0)
(3.40718 0 0)
(3.40918 0 0)
(3.41118 0 0)
(3.41318 0 0)
(3.41517 0 0)
(3.41716 0 0)
(3.41915 0 0)
(3.42114 0 0)
(3.42312 0 0)
(3.4251 0 0)
(3.42708 0 0)
(3.42905 0 0)
(3.43102 0 0)
(3.43299 0 0)
(3.43496 0 0)
(3.43692 0 0)
(3.43888 0 0)
(3.44084 0 0)
(3.4428 0 0)
(3.44475 0 0)
(3.4467 0 0)
(3.44865 0 0)
(3.45059 0 0)
(3.45253 0 0)
(3.45447 0 0)
(3.45641 0 0)
(3.45834 0 0)
(3.46028 0 0)
(3.4622 0 0)
(3.46413 0 0)
(3.46605 0 0)
(3.46797 0 0)
(3.46989 0 0)
(3.47181 0 0)
(3.47372 0 0)
(3.47563 0 0)
(3.47754 0 0)
(3.47945 0 0)
(3.48135 0 0)
(3.48325 0 0)
(3.48515 0 0)
(3.48704 0 0)
(3.48893 0 0)
(3.49082 0 0)
(3.49271 0 0)
(3.4946 0 0)
(3.49648 0 0)
(3.49836 0 0)
(3.50024 0 0)
(3.50211 0 0)
(3.50398 0 0)
(3.50585 0 0)
(3.50772 0 0)
(3.50959 0 0)
(3.51145 0 0)
(3.51331 0 0)
(3.51517 0 0)
(3.51702 0 0)
(3.51888 0 0)
(3.52073 0 0)
(3.52258 0 0)
(3.52442 0 0)
(3.52626 0 0)
(3.52811 0 0)
(3.52994 0 0)
(3.53178 0 0)
(3.53361 0 0)
(3.53545 0 0)
(3.53727 0 0)
(3.5391 0 0)
(3.54093 0 0)
(3.54275 0 0)
(3.54457 0 0)
(3.54638 0 0)
(3.5482 0 0)
(3.55001 0 0)
(3.55182 0 0)
(3.55363 0 0)
(3.55544 0 0)
(3.55724 0 0)
(3.55904 0 0)
(3.56084 0 0)
(3.56264 0 0)
(3.56443 0 0)
(3.56622 0 0)
(3.56801 0 0)
(3.5698 0 0)
(3.57159 0 0)
(3.57337 0 0)
(3.57516 0 0)
(3.57693 0 0)
(3.57867 0 0)
(3.58037 0 0)
(3.58214 0 0)
(3.58425 0 0)
(3.5866 0 0)
(3.58895 0 0)
(3.5913 0 0)
(3.59365 0 0)
(3.59599 0 0)
(3.59833 0 0)
(3.60066 0 0)
(3.60299 0 0)
(3.60532 0 0)
(3.60764 0 0)
(3.60997 0 0)
(3.61228 0 0)
(3.6146 0 0)
(3.61691 0 0)
(3.61922 0 0)
(3.62152 0 0)
(3.62382 0 0)
(3.62612 0 0)
(3.62841 0 0)
(3.6307 0 0)
(3.63299 0 0)
(3.63527 0 0)
(3.63755 0 0)
(3.63983 0 0)
(3.64211 0 0)
(3.64438 0 0)
(3.64664 0 0)
(3.64891 0 0)
(3.65117 0 0)
(3.65343 0 0)
(3.65568 0 0)
(3.65793 0 0)
(3.66018 0 0)
(3.66243 0 0)
(3.66467 0 0)
(3.66691 0 0)
(3.66914 0 0)
(3.67138 0 0)
(3.67361 0 0)
(3.67583 0 0)
(3.67806 0 0)
(3.68028 0 0)
(3.68249 0 0)
(3.68471 0 0)
(3.68692 0 0)
(3.68913 0 0)
(3.69133 0 0)
(3.69353 0 0)
(3.69573 0 0)
(3.69793 0 0)
(3.70012 0 0)
(3.70231 0 0)
(3.70449 0 0)
(3.70668 0 0)
(3.70886 0 0)
(3.71103 0 0)
(3.71321 0 0)
(3.71538 0 0)
(3.71755 0 0)
(3.71971 0 0)
(3.72188 0 0)
(3.72404 0 0)
(3.72619 0 0)
(3.72835 0 0)
(3.7305 0 0)
(3.73264 0 0)
(3.73479 0 0)
(3.73693 0 0)
(3.73907 0 0)
(3.74121 0 0)
(3.74334 0 0)
(3.74547 0 0)
(3.7476 0 0)
(3.74972 0 0)
(3.75184 0 0)
(3.75396 0 0)
(3.75608 0 0)
(3.75819 0 0)
(3.7603 0 0)
(3.76241 0 0)
(3.76452 0 0)
(3.76662 0 0)
(3.76872 0 0)
(3.77081 0 0)
(3.77291 0 0)
(3.775 0 0)
(3.77709 0 0)
(3.77917 0 0)
(3.78125 0 0)
(3.78333 0 0)
(3.78541 0 0)
(3.78749 0 0)
(3.78956 0 0)
(3.79163 0 0)
(3.79369 0 0)
(3.79576 0 0)
(3.79782 0 0)
(3.79987 0 0)
(3.80193 0 0)
(3.80398 0 0)
(3.80603 0 0)
(3.80808 0 0)
(3.81013 0 0)
(3.81217 0 0)
(3.81421 0 0)
(3.81624 0 0)
(3.81828 0 0)
(3.82031 0 0)
(3.82234 0 0)
(3.82436 0 0)
(3.82639 0 0)
(3.82841 0 0)
(3.83043 0 0)
(3.83244 0 0)
(3.83446 0 0)
(3.83647 0 0)
(3.83848 0 0)
(3.84048 0 0)
(3.84248 0 0)
(3.84448 0 0)
(3.84648 0 0)
(3.84848 0 0)
(3.85047 0 0)
(3.85246 0 0)
(3.85445 0 0)
(3.85643 0 0)
(3.85842 0 0)
(3.8604 0 0)
(3.86237 0 0)
(3.86435 0 0)
(3.86632 0 0)
(3.86829 0 0)
(3.87026 0 0)
(3.87223 0 0)
(3.87419 0 0)
(3.87615 0 0)
(3.87811 0 0)
(3.88006 0 0)
(3.88202 0 0)
(3.88397 0 0)
(3.88591 0 0)
(3.88786 0 0)
(3.8898 0 0)
(3.89174 0 0)
(3.89368 0 0)
(3.89562 0 0)
(3.89755 0 0)
(3.89948 0 0)
(3.90141 0 0)
(3.90334 0 0)
(3.90526 0 0)
(3.90718 0 0)
(3.9091 0 0)
(3.91102 0 0)
(3.91293 0 0)
(3.91485 0 0)
(3.91676 0 0)
(3.91866 0 0)
(3.92057 0 0)
(3.92247 0 0)
(3.92437 0 0)
(3.92627 0 0)
(3.92816 0 0)
(3.93006 0 0)
(3.93195 0 0)
(3.93384 0 0)
(3.93572 0 0)
(3.93761 0 0)
(3.93949 0 0)
(3.94137 0 0)
(3.94325 0 0)
(3.94512 0 0)
(3.94698 0 0)
(3.94881 0 0)
(3.95068 0 0)
(3.95278 0 0)
(3.95513 0 0)
(3.95704 0 0)
(3.95657 0 0)
(3.95394 0 0)
(3.9528 0 0)
(3.95343 0 0)
(3.95389 0 0)
(3.95431 0 0)
(3.95472 0 0)
(3.95501 0 0)
(3.95509 0 0)
(3.95499 0 0)
(3.95485 0 0)
(3.95469 0 0)
(3.95444 0 0)
(3.95401 0 0)
(3.95343 0 0)
(3.95279 0 0)
(3.95202 0 0)
(3.95115 0 0)
(3.95016 0 0)
(3.94902 0 0)
(3.94781 0 0)
(3.94648 0 0)
(3.94509 0 0)
(3.94363 0 0)
(3.94202 0 0)
(3.94025 0 0)
(3.93835 0 0)
(3.93634 0 0)
(3.93425 0 0)
(3.93208 0 0)
(3.92976 0 0)
(3.9273 0 0)
(3.92471 0 0)
(3.92204 0 0)
(3.9193 0 0)
(3.91645 0 0)
(3.91351 0 0)
(3.91047 0 0)
(3.90725 0 0)
(3.90391 0 0)
(3.90052 0 0)
(3.89699 0 0)
(3.89326 0 0)
(3.88945 0 0)
(3.88555 0 0)
(3.88154 0 0)
(3.87744 0 0)
(3.87325 0 0)
(3.86892 0 0)
(3.86446 0 0)
(3.85993 0 0)
(3.85531 0 0)
(3.85053 0 0)
(3.84559 0 0)
(3.84052 0 0)
(3.83535 0 0)
(3.83011 0 0)
(3.82474 0 0)
(3.81929 0 0)
(3.81375 0 0)
(3.80804 0 0)
(3.80215 0 0)
(3.79613 0 0)
(3.79002 0 0)
(3.78386 0 0)
(3.7776 0 0)
(3.77125 0 0)
(3.76473 0 0)
(3.75804 0 0)
(3.75121 0 0)
(3.74427 0 0)
(3.73723 0 0)
(3.73005 0 0)
(3.72276 0 0)
(3.71538 0 0)
(3.70787 0 0)
(3.70026 0 0)
(3.69254 0 0)
(3.68461 0 0)
(3.67649 0 0)
(3.6682 0 0)
(3.6598 0 0)
(3.65139 0 0)
(3.64294 0 0)
(3.63445 0 0)
(3.62593 0 0)
(3.61719 0 0)
(3.60787 0 0)
(3.59776 0 0)
(3.58708 0 0)
(3.57677 0 0)
(3.56835 0 0)
(3.56317 0 0)
(3.56041 0 0)
(3.55518 0 0)
(3.53895 0 0)
(3.50445 0 0)
(3.45572 0 0)
(3.41698 0 0)
(3.43149 0 0)
(3.54327 0 0)
(3.75204 0 0)
(4.02226 0 0)
(4.02409 0 0)
(4.02592 0 0)
(4.02774 0 0)
(4.02956 0 0)
(4.03138 0 0)
(4.0332 0 0)
(4.03501 0 0)
(4.03683 0 0)
(4.03864 0 0)
(4.04044 0 0)
(4.04225 0 0)
(4.04405 0 0)
(4.04586 0 0)
(4.04766 0 0)
(4.04945 0 0)
(4.05125 0 0)
(4.05304 0 0)
(4.05484 0 0)
(4.05662 0 0)
(4.05841 0 0)
(4.0602 0 0)
(4.06198 0 0)
(4.06376 0 0)
(4.06554 0 0)
(4.06732 0 0)
(4.06909 0 0)
(4.07086 0 0)
(4.07263 0 0)
(4.0744 0 0)
(4.07617 0 0)
(4.07793 0 0)
(4.0797 0 0)
(4.08146 0 0)
(4.08322 0 0)
(4.08497 0 0)
(4.08673 0 0)
(4.08848 0 0)
(4.09023 0 0)
(4.09198 0 0)
(4.09372 0 0)
(4.09547 0 0)
(4.09721 0 0)
(4.09895 0 0)
(4.10069 0 0)
(4.10242 0 0)
(4.10416 0 0)
(4.10589 0 0)
(4.10762 0 0)
(4.10935 0 0)
(4.11107 0 0)
(4.1128 0 0)
(4.11452 0 0)
(4.11624 0 0)
(4.11796 0 0)
(4.11968 0 0)
(4.12139 0 0)
(4.1231 0 0)
(4.12481 0 0)
(4.12652 0 0)
(4.12823 0 0)
(4.12993 0 0)
(4.13164 0 0)
(4.13334 0 0)
(4.13503 0 0)
(4.13673 0 0)
(4.13843 0 0)
(4.14012 0 0)
(4.14181 0 0)
(4.1435 0 0)
(4.14519 0 0)
(4.14687 0 0)
(4.14856 0 0)
(4.15024 0 0)
(4.15192 0 0)
(4.1536 0 0)
(4.15527 0 0)
(4.15695 0 0)
(4.15862 0 0)
(4.16029 0 0)
(4.16196 0 0)
(4.16362 0 0)
(4.16528 0 0)
(4.16693 0 0)
(4.1686 0 0)
(4.17036 0 0)
(4.17218 0 0)
(4.17373 0 0)
(4.17433 0 0)
(4.17424 0 0)
(4.17414 0 0)
(4.17405 0 0)
(4.17396 0 0)
(4.17386 0 0)
(4.17377 0 0)
(4.17367 0 0)
(4.17358 0 0)
(4.17348 0 0)
(4.17339 0 0)
(4.1733 0 0)
(4.1732 0 0)
(4.17311 0 0)
(4.17302 0 0)
(4.17292 0 0)
(4.17283 0 0)
(4.17274 0 0)
(4.17264 0 0)
(4.17255 0 0)
(4.17246 0 0)
(4.17236 0 0)
(4.17227 0 0)
(4.17218 0 0)
(4.17208 0 0)
(4.17199 0 0)
(4.1719 0 0)
(4.1718 0 0)
(4.17171 0 0)
(4.17162 0 0)
(4.17153 0 0)
(4.17143 0 0)
(4.17134 0 0)
(4.17125 0 0)
(4.17116 0 0)
(4.17106 0 0)
(4.17097 0 0)
(4.17088 0 0)
(4.17079 0 0)
(4.17069 0 0)
(4.1706 0 0)
(4.17051 0 0)
(4.17042 0 0)
(4.17033 0 0)
(4.17023 0 0)
(4.17014 0 0)
(4.17005 0 0)
(4.16996 0 0)
(4.16987 0 0)
(4.16977 0 0)
(4.16968 0 0)
(4.16959 0 0)
(4.1695 0 0)
(4.16941 0 0)
(4.16932 0 0)
(4.16923 0 0)
(4.16913 0 0)
(4.16904 0 0)
(4.16895 0 0)
(4.16886 0 0)
(4.16877 0 0)
(4.16868 0 0)
(4.16859 0 0)
(4.1685 0 0)
(4.16841 0 0)
(4.16832 0 0)
(4.16822 0 0)
(4.16813 0 0)
(4.16804 0 0)
(4.16795 0 0)
(4.16786 0 0)
(4.16777 0 0)
(4.16768 0 0)
(4.16759 0 0)
(4.1675 0 0)
(4.16741 0 0)
(4.16732 0 0)
(4.16723 0 0)
(4.16714 0 0)
(4.16705 0 0)
(4.16696 0 0)
(4.16687 0 0)
(4.16678 0 0)
(4.16669 0 0)
(4.1666 0 0)
(4.16651 0 0)
(4.16642 0 0)
(4.16633 0 0)
(4.16624 0 0)
(4.16615 0 0)
(4.16606 0 0)
(4.16598 0 0)
(4.16589 0 0)
(4.1658 0 0)
(4.16571 0 0)
(4.16562 0 0)
(4.16553 0 0)
(4.16544 0 0)
(4.16535 0 0)
(4.16526 0 0)
(4.16517 0 0)
(4.16508 0 0)
(4.165 0 0)
(4.16491 0 0)
(4.16482 0 0)
(4.16473 0 0)
(4.16464 0 0)
(4.16455 0 0)
(4.16447 0 0)
(4.16438 0 0)
(4.16429 0 0)
(4.1642 0 0)
(4.16411 0 0)
(4.16402 0 0)
(4.16394 0 0)
(4.16385 0 0)
(4.16376 0 0)
(4.16367 0 0)
(4.16358 0 0)
(4.1635 0 0)
(4.16341 0 0)
(4.16332 0 0)
(4.16323 0 0)
(4.16315 0 0)
(4.16306 0 0)
(4.16297 0 0)
(4.16288 0 0)
(4.1628 0 0)
(4.16271 0 0)
(4.16262 0 0)
(4.16253 0 0)
(4.16245 0 0)
(4.16236 0 0)
(4.16227 0 0)
(4.16219 0 0)
(4.1621 0 0)
(4.16201 0 0)
(4.16193 0 0)
(4.16184 0 0)
(4.16175 0 0)
(4.16167 0 0)
(4.16158 0 0)
(4.16149 0 0)
(4.16141 0 0)
(4.16132 0 0)
(4.16123 0 0)
(4.16115 0 0)
(4.16106 0 0)
(4.16097 0 0)
(4.16089 0 0)
(4.1608 0 0)
(4.16072 0 0)
(4.16063 0 0)
(4.16054 0 0)
(4.16046 0 0)
(4.16037 0 0)
(4.16029 0 0)
(4.1602 0 0)
(4.16011 0 0)
(4.16003 0 0)
(4.15994 0 0)
(4.15986 0 0)
(4.15977 0 0)
(4.15969 0 0)
(4.1596 0 0)
(4.15952 0 0)
(4.15943 0 0)
(4.15935 0 0)
(4.15926 0 0)
(4.15918 0 0)
(4.15909 0 0)
(4.15901 0 0)
(4.15892 0 0)
(4.15884 0 0)
(4.15875 0 0)
(4.15867 0 0)
(4.15858 0 0)
(4.1585 0 0)
(4.15841 0 0)
(4.15833 0 0)
(4.15824 0 0)
(4.15816 0 0)
(4.15807 0 0)
(4.15799 0 0)
(4.15791 0 0)
(4.15782 0 0)
(4.15774 0 0)
(4.15765 0 0)
(4.15757 0 0)
(4.15748 0 0)
(4.1574 0 0)
(4.15732 0 0)
(4.15723 0 0)
(4.15715 0 0)
(4.15707 0 0)
(4.15698 0 0)
(4.1569 0 0)
(4.15681 0 0)
(4.15673 0 0)
(4.15665 0 0)
(4.15656 0 0)
(4.15648 0 0)
(4.1564 0 0)
(4.15631 0 0)
(4.15623 0 0)
(4.15615 0 0)
(4.15606 0 0)
(4.15598 0 0)
(4.1559 0 0)
(4.15581 0 0)
(4.15573 0 0)
(4.15565 0 0)
(4.15557 0 0)
(4.15548 0 0)
(4.1554 0 0)
(4.15532 0 0)
(4.15523 0 0)
(4.15515 0 0)
(4.15507 0 0)
(4.15499 0 0)
(4.1549 0 0)
(4.15482 0 0)
(4.15474 0 0)
(4.15466 0 0)
(4.15458 0 0)
(4.15449 0 0)
(4.15441 0 0)
(4.15433 0 0)
(4.15425 0 0)
(4.15417 0 0)
(4.15408 0 0)
(4.154 0 0)
(4.15392 0 0)
(4.15384 0 0)
(4.15376 0 0)
(4.15367 0 0)
(4.15359 0 0)
(4.15351 0 0)
(4.15343 0 0)
(4.15335 0 0)
(4.15327 0 0)
(4.15319 0 0)
(4.1531 0 0)
(4.15302 0 0)
(4.15294 0 0)
(4.15286 0 0)
(4.15278 0 0)
(4.1527 0 0)
(4.15262 0 0)
(4.15254 0 0)
(4.15246 0 0)
(4.15237 0 0)
(4.15229 0 0)
(4.15221 0 0)
(4.15213 0 0)
(4.15205 0 0)
(4.15197 0 0)
(4.15189 0 0)
(4.15181 0 0)
(4.15173 0 0)
(4.15165 0 0)
(4.15157 0 0)
(4.15149 0 0)
(4.15141 0 0)
(4.15133 0 0)
(4.15125 0 0)
(4.15117 0 0)
(4.15109 0 0)
(4.15101 0 0)
(4.15093 0 0)
(4.15085 0 0)
(4.15077 0 0)
(4.15069 0 0)
(4.15061 0 0)
(4.15053 0 0)
(4.15045 0 0)
(4.15037 0 0)
(4.15029 0 0)
(4.15021 0 0)
(4.15014 0 0)
(4.15007 0 0)
(4.14997 0 0)
(4.1498 0 0)
(4.1496 0 0)
(4.1497 0 0)
(4.15066 0 0)
(4.15209 0 0)
(4.15035 0 0)
(4.13875 0 0)
(4.12006 0 0)
(4.13412 0 0)
(4.26411 0 0)
(4.50719 0 0)
(4.37959 0 0)
(3.14266 0 0)
(1.64154 0 0)
(1.04339 0 0)
(0.964636 0 0)
(0.960551 0 0)
(0.959785 0 0)
(0.959122 0 0)
(0.958494 0 0)
(0.958093 0 0)
(0.957893 0 0)
(0.9577 0 0)
(0.957509 0 0)
(0.957319 0 0)
(0.957131 0 0)
(0.956945 0 0)
(0.95676 0 0)
(0.956577 0 0)
(0.956395 0 0)
(0.956214 0 0)
(0.956035 0 0)
(0.955857 0 0)
(0.95568 0 0)
(0.955505 0 0)
(0.95533 0 0)
(0.955157 0 0)
(0.954985 0 0)
(0.954814 0 0)
(0.954644 0 0)
(0.954475 0 0)
(0.954307 0 0)
(0.95414 0 0)
(0.953974 0 0)
(0.953809 0 0)
(0.953644 0 0)
(0.953481 0 0)
(0.953319 0 0)
(0.953157 0 0)
(0.952997 0 0)
(0.952837 0 0)
(0.952678 0 0)
(0.95252 0 0)
(0.952363 0 0)
(0.952206 0 0)
(0.95205 0 0)
(0.951895 0 0)
(0.951741 0 0)
(0.951588 0 0)
(0.951435 0 0)
(0.951284 0 0)
(0.951133 0 0)
(0.950982 0 0)
(0.950833 0 0)
(0.950684 0 0)
(0.950536 0 0)
(0.950389 0 0)
(0.950243 0 0)
(0.950097 0 0)
(0.949952 0 0)
(0.949808 0 0)
(0.949665 0 0)
(0.949523 0 0)
(0.949381 0 0)
(0.94924 0 0)
(0.9491 0 0)
(0.94896 0 0)
(0.948822 0 0)
(0.948684 0 0)
(0.948547 0 0)
(0.948411 0 0)
(0.948275 0 0)
(0.94814 0 0)
(0.948007 0 0)
(0.947874 0 0)
(0.947741 0 0)
(0.94761 0 0)
(0.94748 0 0)
(0.94735 0 0)
(0.947221 0 0)
(0.947093 0 0)
(0.946966 0 0)
(0.946839 0 0)
(0.946714 0 0)
(0.946589 0 0)
(0.946465 0 0)
(0.946343 0 0)
(0.94622 0 0)
(0.946099 0 0)
(0.945979 0 0)
(0.945859 0 0)
(0.945741 0 0)
(0.945623 0 0)
(0.945506 0 0)
(0.94539 0 0)
(0.945275 0 0)
(0.94516 0 0)
(0.945047 0 0)
(0.944935 0 0)
(0.944823 0 0)
(0.944712 0 0)
(0.944602 0 0)
(0.944493 0 0)
(0.944385 0 0)
(0.944278 0 0)
(0.944171 0 0)
(0.944066 0 0)
(0.943961 0 0)
(0.943857 0 0)
(0.943754 0 0)
(0.943652 0 0)
(0.943551 0 0)
(0.94345 0 0)
(0.943351 0 0)
(0.943252 0 0)
(0.943155 0 0)
(0.943058 0 0)
(0.942961 0 0)
(0.942866 0 0)
(0.942772 0 0)
(0.942678 0 0)
(0.942585 0 0)
(0.942494 0 0)
(0.942402 0 0)
(0.942312 0 0)
(0.942223 0 0)
(0.942134 0 0)
(0.942046 0 0)
(0.941959 0 0)
(0.941873 0 0)
(0.941788 0 0)
(0.941703 0 0)
(0.941619 0 0)
(0.941536 0 0)
(0.941454 0 0)
(0.941373 0 0)
(0.941292 0 0)
(0.941212 0 0)
(0.941133 0 0)
(0.941055 0 0)
(0.940977 0 0)
(0.940901 0 0)
(0.940825 0 0)
(0.940749 0 0)
(0.940675 0 0)
(0.940601 0 0)
(0.940528 0 0)
(0.940456 0 0)
(0.940384 0 0)
(0.940313 0 0)
(0.940243 0 0)
(0.940174 0 0)
(0.940105 0 0)
(0.940037 0 0)
(0.93997 0 0)
(0.939903 0 0)
(0.939837 0 0)
(0.939772 0 0)
(0.939707 0 0)
(0.939644 0 0)
(0.93958 0 0)
(0.939518 0 0)
(0.939456 0 0)
(0.939395 0 0)
(0.939334 0 0)
(0.939274 0 0)
(0.939214 0 0)
(0.939156 0 0)
(0.939098 0 0)
(0.93904 0 0)
(0.938983 0 0)
(0.938927 0 0)
(0.938871 0 0)
(0.938815 0 0)
(0.938761 0 0)
(0.938706 0 0)
(0.938653 0 0)
(0.9386 0 0)
(0.938547 0 0)
(0.938495 0 0)
(0.938443 0 0)
(0.938392 0 0)
(0.938341 0 0)
(0.938291 0 0)
(0.938241 0 0)
(0.938192 0 0)
(0.938143 0 0)
(0.938095 0 0)
(0.938047 0 0)
(0.937999 0 0)
(0.937952 0 0)
(0.937905 0 0)
(0.937859 0 0)
(0.937813 0 0)
(0.937768 0 0)
(0.937723 0 0)
(0.937678 0 0)
(0.937634 0 0)
(0.93759 0 0)
(0.937546 0 0)
(0.937503 0 0)
(0.93746 0 0)
(0.937418 0 0)
(0.937375 0 0)
(0.937334 0 0)
(0.937292 0 0)
(0.937252 0 0)
(0.937211 0 0)
(0.937171 0 0)
(0.937131 0 0)
(0.937092 0 0)
(0.937053 0 0)
(0.937014 0 0)
(0.936976 0 0)
(0.936938 0 0)
(0.936901 0 0)
(0.936863 0 0)
(0.936827 0 0)
(0.936791 0 0)
(0.936755 0 0)
(0.936719 0 0)
(0.936684 0 0)
(0.93665 0 0)
(0.936616 0 0)
(0.936582 0 0)
(0.936549 0 0)
(0.936516 0 0)
(0.936484 0 0)
(0.936452 0 0)
(0.93642 0 0)
(0.936389 0 0)
(0.936359 0 0)
(0.936329 0 0)
(0.936299 0 0)
(0.93627 0 0)
(0.936241 0 0)
(0.936213 0 0)
(0.936185 0 0)
(0.936158 0 0)
(0.936132 0 0)
(0.936106 0 0)
(0.93608 0 0)
(0.936055 0 0)
(0.936031 0 0)
(0.936007 0 0)
(0.935984 0 0)
(0.935961 0 0)
(0.935939 0 0)
(0.935918 0 0)
(0.935897 0 0)
(0.935877 0 0)
(0.935857 0 0)
(0.935838 0 0)
(0.93582 0 0)
(0.935803 0 0)
(0.935786 0 0)
(0.93577 0 0)
(0.935754 0 0)
(0.935739 0 0)
(0.935725 0 0)
(0.935712 0 0)
(0.935699 0 0)
(0.935687 0 0)
(0.935676 0 0)
(0.935666 0 0)
(0.935656 0 0)
(0.935647 0 0)
(0.935639 0 0)
(0.935631 0 0)
(0.935624 0 0)
(0.935618 0 0)
(0.935612 0 0)
(0.935607 0 0)
(0.935603 0 0)
(0.935599 0 0)
(0.935596 0 0)
(0.935593 0 0)
(0.935591 0 0)
(0.93559 0 0)
(0.935589 0 0)
(0.935589 0 0)
(0.935589 0 0)
(0.93559 0 0)
(0.935591 0 0)
(0.935593 0 0)
(0.935595 0 0)
(0.935597 0 0)
(0.9356 0 0)
(0.935603 0 0)
(0.935607 0 0)
(0.93561 0 0)
(0.935614 0 0)
(0.935619 0 0)
(0.935623 0 0)
(0.935628 0 0)
(0.935633 0 0)
(0.935637 0 0)
(0.935642 0 0)
(0.935648 0 0)
(0.935653 0 0)
(0.935658 0 0)
(0.935663 0 0)
(0.935668 0 0)
(0.935673 0 0)
(0.935678 0 0)
(0.935683 0 0)
(0.935688 0 0)
(0.935693 0 0)
(0.935698 0 0)
(0.935702 0 0)
(0.935707 0 0)
(0.935711 0 0)
(0.935715 0 0)
(0.935719 0 0)
(0.935723 0 0)
(0.935726 0 0)
(0.935729 0 0)
(0.935733 0 0)
(0.935736 0 0)
(0.935738 0 0)
(0.935741 0 0)
(0.935744 0 0)
(0.935746 0 0)
(0.935748 0 0)
(0.935751 0 0)
(0.935753 0 0)
(0.935755 0 0)
(0.935757 0 0)
(0.935759 0 0)
(0.935761 0 0)
(0.935763 0 0)
(0.935765 0 0)
(0.935767 0 0)
(0.93577 0 0)
(0.935772 0 0)
(0.935775 0 0)
(0.935778 0 0)
(0.935782 0 0)
(0.935785 0 0)
(0.935789 0 0)
(0.935794 0 0)
(0.935798 0 0)
(0.935804 0 0)
(0.935809 0 0)
(0.935816 0 0)
(0.935823 0 0)
(0.93583 0 0)
(0.935839 0 0)
(0.935848 0 0)
(0.935857 0 0)
(0.935868 0 0)
(0.935879 0 0)
(0.935891 0 0)
(0.935904 0 0)
(0.935918 0 0)
(0.935933 0 0)
(0.935949 0 0)
(0.935966 0 0)
(0.935984 0 0)
(0.936003 0 0)
(0.936023 0 0)
(0.936044 0 0)
(0.936067 0 0)
(0.93609 0 0)
(0.936115 0 0)
(0.936141 0 0)
(0.936168 0 0)
(0.936196 0 0)
(0.936226 0 0)
(0.936257 0 0)
(0.936289 0 0)
(0.936323 0 0)
(0.936357 0 0)
(0.936393 0 0)
(0.936431 0 0)
(0.93647 0 0)
(0.93651 0 0)
(0.936551 0 0)
(0.936594 0 0)
(0.936638 0 0)
(0.936684 0 0)
(0.936731 0 0)
(0.936779 0 0)
(0.936829 0 0)
(0.93688 0 0)
(0.936932 0 0)
(0.936986 0 0)
(0.937041 0 0)
(0.937097 0 0)
(0.937155 0 0)
(0.937214 0 0)
(0.937274 0 0)
(0.937336 0 0)
(0.937399 0 0)
(0.937464 0 0)
(0.93753 0 0)
(0.937597 0 0)
(0.937665 0 0)
(0.937735 0 0)
(0.937806 0 0)
(0.937879 0 0)
(0.937953 0 0)
(0.938028 0 0)
(0.938104 0 0)
(0.938182 0 0)
(0.938261 0 0)
(0.938342 0 0)
(0.938424 0 0)
(0.938507 0 0)
(0.938591 0 0)
(0.938677 0 0)
(0.938764 0 0)
(0.938852 0 0)
(0.938942 0 0)
(0.939033 0 0)
(0.939125 0 0)
(0.939218 0 0)
(0.939313 0 0)
(0.939409 0 0)
(0.939507 0 0)
(0.939606 0 0)
(0.939706 0 0)
(0.939808 0 0)
(0.93991 0 0)
(0.940015 0 0)
(0.94012 0 0)
(0.940227 0 0)
(0.940335 0 0)
(0.940445 0 0)
(0.940556 0 0)
(0.940668 0 0)
(0.940782 0 0)
(0.940897 0 0)
(0.941013 0 0)
(0.941131 0 0)
(0.94125 0 0)
(0.941371 0 0)
(0.941493 0 0)
(0.941617 0 0)
(0.941742 0 0)
(0.941868 0 0)
(0.941996 0 0)