/*--------------------------------*- C++ -*----------------------------------*\
| =========                 |                                                 |
| \\      /  F ield         | foam-extend: Open Source CFD                    |
|  \\    /   O peration     | Version:     3.1                                |
|   \\  /    A nd           | Web:         http://www.extend-project.de       |
|    \\/     M anipulation  |                                                 |
\*---------------------------------------------------------------------------*/
FoamFile
{
    version     2.0;
    format      ascii;
    class       volScalarField;
    location    "6";
    object      pd;
}
// * * * * * * * * * * * * * * * * * * * * * * * * * * * * * * * * * * * * * //

dimensions      [1 -1 -2 0 0 0 0];

internalField   nonuniform List<scalar> 
119952
(
9083.903
8923.396
8896.836
8943.103
8988.366
8987.059
8998.135
9010.35
9024.493
9039.248
9054.586
9070.098
9085.462
9100.5
9115.108
9128.982
9141.976
9153.965
9163.906
9167.527
9216.715
9205.923
9210.673
9269.343
9272.811
9288.963
9301.01
9320.642
9366.135
9697.174
6975.812
6999.065
7030.455
7070.925
7112.189
7156.572
7203.019
7251.954
7303.181
7338.231
7402.042
7457.258
7512.639
7568.688
7625.356
7682.864
7740.773
7799.069
7857.218
7943.731
7989.67
8036.638
8091.536
8146.771
8200.484
8254.389
8307.953
8360.536
8411.148
8456.997
8506.192
8555.172
8601.455
8646.374
8690.132
8732.768
8775.925
8826.917
8886.922
8893.851
8910.494
8945.013
8971.82
8988.488
9000.484
9014.411
9029.191
9044.136
9059.368
9074.706
9089.819
9104.553
9118.725
9132.277
9145.104
9157.262
9169.024
9181.269
9196.644
9211.196
9223.851
9247.851
9273.37
9286.119
9297.574
9306.971
9305.035
9279.623
9282.242
9293.313
9302.104
9310.796
9318.936
9326.522
9333.648
9340.403
9346.849
9353.017
9358.919
9364.578
9370.009
9375.228
9380.248
9385.079
9389.732
9394.218
9398.545
9402.71
9406.728
9410.607
9414.348
9417.956
9421.434
9424.787
9428.017
9431.128
9434.119
9436.992
9439.747
9442.384
9444.903
9447.303
9449.583
9451.742
9453.779
9455.693
9457.483
9459.148
9460.696
9462.115
9463.405
9464.563
9465.586
9466.464
9467.179
9467.771
9468.746
9470.149
9471.329
9471.57
9471.724
9471.901
9472.007
9472.05
9472.04
9471.975
9471.858
9471.695
9471.487
9471.24
9470.955
9470.635
9470.282
9469.898
9469.484
9469.041
9468.57
9468.07
9467.543
9466.987
9466.402
9465.786
9465.137
9464.477
9463.786
9463.065
9462.281
9461.469
9460.623
9459.742
9458.825
9457.871
9456.88
9455.852
9454.786
9453.683
9452.547
9451.373
9450.159
9448.904
9447.606
9446.258
9444.85
9443.347
9441.687
9439.832
9438.242
9439.84
9438.836
9437.268
9435.753
9434.27
9432.778
9431.266
9429.74
9428.199
9426.645
9425.079
9423.498
9421.904
9420.296
9418.666
9416.956
9415.299
9413.626
9411.918
9410.177
9408.402
9406.587
9404.729
9402.818
9400.848
9398.804
9396.673
9394.434
9392.059
9389.505
9386.706
9383.547
9379.874
9375.437
9368.859
9361.096
9367.354
9370.778
9373.038
9374.534
9375.663
9376.518
9377.17
9377.684
9378.094
9378.421
9378.686
9378.901
9379.077
9379.224
9379.348
9379.455
9379.55
9379.639
9379.723
9379.809
9379.898
9379.994
9380.1
9380.218
9380.353
9380.505
9380.678
9380.874
9381.097
9381.352
9381.654
9382.065
9382.411
9382.486
9397.808
9392.124
9382.858
9383.464
9384.318
9384.007
9383.984
9384.349
9384.775
9385.188
9385.636
9386.19
9386.78
9387.397
9388.05
9388.733
9389.442
9390.173
9390.924
9391.693
9392.479
9393.28
9394.095
9394.923
9395.766
9396.619
9397.484
9398.359
9399.245
9400.141
9401.047
9401.964
9402.892
9403.833
9404.787
9405.758
9406.749
9407.764
9408.811
9409.899
9411.043
9412.267
9413.61
9415.12
9416.727
9417.946
9418.223
9418.01
9418.039
9418.333
9418.738
9419.238
9419.658
9418.387
9412.383
9417.52
9419.541
9419.681
9420.303
9420.913
9421.42
9421.971
9422.58
9423.233
9423.921
9424.64
9425.382
9426.144
9426.932
9427.741
9428.57
9429.415
9430.277
9431.152
9432.041
9432.944
9433.859
9434.786
9435.726
9436.677
9437.639
9438.612
9439.596
9440.59
9441.593
9442.605
9443.624
9444.65
9445.682
9446.717
9447.756
9448.796
9449.835
9450.872
9451.904
9452.929
9453.945
9454.949
9455.939
9456.911
9457.863
9458.792
9459.694
9460.564
9461.4
9462.198
9462.952
9463.659
9464.313
9464.91
9465.444
9465.91
9466.301
9466.612
9466.834
9466.96
9466.983
9466.892
9466.678
9466.331
9465.837
9465.181
9464.349
9463.321
9462.074
9460.582
9458.814
9456.729
9454.257
9451.329
9447.862
9443.708
9438.689
9432.477
9424.515
9414.378
9404.607
9410.765
9460.794
8654.861
8546.063
8419.628
8299.266
8182.786
8070.945
7964.234
7862.655
7766.352
7671.084
7584.958
7507.596
7433.645
7365.651
7303.179
7245.847
7193.962
7144.003
7093.38
7065.527
7022.678
6983.633
6953.319
6927.299
6904.897
6886.42
6871.46
6861.014
6855.533
6844.345
6845.843
6852.031
6861.235
6874.739
6892.285
6913.924
6939.99
6971.139
6992.655
7030.868
7071.638
7113.651
7158.561
7205.966
7255.382
7306.323
7357.461
7410.852
7467.282
7522.778
7578.456
7634.823
7691.904
7749.51
7806.925
7865.151
7942.491
8002.499
8054.776
8106.425
8159.611
8213.599
8267.245
8320.1
8371.833
8422.354
8471.642
8519.134
8565.4
8610.853
8655.545
8699.313
8742.151
8784.265
8825.248
8862.82
8892.795
8917.067
8941.11
8964.415
8984.877
9002.428
9018.455
9034.112
9049.816
9065.551
9081.116
9096.328
9111.053
9125.26
9138.955
9152.194
9165.137
9178.072
9191.394
9205.43
9220.353
9236.092
9252.852
9269.411
9282.872
9292.015
9296.827
9297.119
9294.743
9295.083
9300.093
9307.684
9315.77
9323.369
9330.388
9337.035
9343.454
9349.664
9355.64
9361.37
9366.867
9372.151
9377.234
9382.128
9386.842
9391.383
9395.762
9399.984
9404.063
9407.993
9411.786
9415.447
9418.979
9422.383
9425.662
9428.823
9431.864
9434.793
9437.604
9440.307
9442.891
9445.357
9447.707
9449.938
9452.048
9454.039
9455.907
9457.652
9459.274
9460.773
9462.148
9463.387
9464.52
9465.53
9466.427
9467.24
9468.028
9468.839
9469.682
9470.426
9470.922
9471.209
9471.372
9471.465
9471.505
9471.49
9471.416
9471.286
9471.106
9470.881
9470.617
9470.316
9469.98
9469.612
9469.214
9468.787
9468.332
9467.849
9467.34
9466.803
9466.239
9465.647
9465.026
9464.376
9463.696
9462.987
9462.248
9461.477
9460.669
9459.824
9458.942
9458.023
9457.068
9456.076
9455.045
9453.976
9452.862
9451.742
9450.573
9449.365
9448.112
9446.827
9445.491
9444.132
9442.728
9441.355
9439.99
9438.67
9439.583
9438.264
9436.513
9434.996
9433.562
9432.073
9430.563
9429.038
9427.494
9425.938
9424.369
9422.788
9421.192
9419.578
9417.946
9416.301
9414.638
9412.95
9411.234
9409.49
9407.713
9405.897
9404.037
9402.127
9400.157
9398.116
9395.991
9393.763
9391.409
9388.89
9386.152
9383.133
9379.786
9376.123
9372.447
9369.941
9370.373
9372.443
9373.89
9374.999
9375.919
9376.639
9377.206
9377.662
9378.029
9378.326
9378.566
9378.761
9378.921
9379.053
9379.165
9379.262
9379.349
9379.43
9379.509
9379.59
9379.675
9379.768
9379.872
9379.989
9380.121
9380.272
9380.444
9380.639
9380.863
9381.12
9381.419
9381.761
9382.211
9383.792
9384.719
9386.932
9386.703
9385.13
9383.941
9383.603
9383.809
9384.201
9384.616
9385.042
9385.511
9386.039
9386.623
9387.25
9387.911
9388.6
9389.314
9390.05
9390.807
9391.583
9392.375
9393.182
9394.004
9394.84
9395.689
9396.551
9397.424
9398.307
9399.202
9400.106
9401.021
9401.947
9402.884
9403.833
9404.796
9405.774
9406.771
9407.79
9408.837
9409.917
9411.037
9412.2
9413.396
9414.58
9415.666
9416.548
9417.126
9417.439
9417.699
9418.031
9418.429
9418.798
9418.971
9418.517
9417.175
9416.662
9417.858
9419.497
9420.556
9421.237
9421.794
9422.359
9422.972
9423.633
9424.324
9425.036
9425.766
9426.517
9427.29
9428.085
9428.9
9429.734
9430.585
9431.452
9432.334
9433.231
9434.143
9435.067
9436.004
9436.954
9437.916
9438.89
9439.875
9440.87
9441.874
9442.887
9443.909
9444.937
9445.97
9447.008
9448.048
9449.089
9450.13
9451.168
9452.201
9453.226
9454.242
9455.247
9456.236
9457.207
9458.158
9459.084
9459.983
9460.85
9461.682
9462.475
9463.224
9463.925
9464.573
9465.163
9465.689
9466.147
9466.529
9466.829
9467.041
9467.156
9467.168
9467.065
9466.84
9466.481
9465.977
9465.312
9464.474
9463.441
9462.198
9460.712
9458.966
9456.908
9454.512
9451.699
9448.44
9444.633
9440.303
9435.476
9430.705
9426.921
9425.862
9428.023
9434.242
4369.445
4387.054
4429.832
4489.159
4565.641
4660.257
4773.189
4904.65
5054.721
5223.484
5413.639
5625.241
5854.678
6102.481
6367.022
6645.958
6935.677
7229.481
7527.64
7855.169
8136.246
8400.789
8644.786
8860.25
9042.64
9189.133
9298.388
9370.426
9411.1
9415.203
9389.086
9338.311
9267.038
9179.217
9078.773
8968.698
8852.438
8732.858
8603.896
8483.352
8362.959
8245.47
8132.022
8022.777
7918.576
7819.975
7727.544
7640.443
7556.418
7479.906
7408.762
7342.487
7281.598
7225.666
7174.818
7134.107
7065.111
7026.045
6994.863
6965.265
6937.003
6911.515
6889.787
6871.984
6858.022
6847.401
6840.547
6838.612
6840.382
6845.679
6855.168
6869.218
6887.745
6910.463
6937.017
6967.346
7001.195
7037.236
7076.217
7118.559
7163.997
7212.103
7262.142
7313.749
7366.769
7421.064
7476.144
7532.039
7588.684
7645.969
7703.539
7761.422
7819.298
7878.13
7937.541
7993.622
8047.7
8101.844
8156.629
8211.515
8265.767
8318.807
8370.519
8420.865
8469.981
8517.876
8564.572
8610.205
8654.587
8697.693
8739.275
8779.379
8817.406
8853.126
8884.811
8911.411
8935.533
8958.856
8980.778
9000.353
9018.008
9034.77
9051.235
9067.509
9083.491
9099.026
9114.052
9128.576
9142.596
9156.209
9169.587
9182.902
9196.349
9210.174
9224.471
9238.897
9253.221
9267.19
9279.379
9288.47
9294.386
9297.921
9299.323
9300.842
9305.006
9311.664
9319.147
9326.357
9333.065
9339.436
9345.623
9351.651
9357.478
9363.08
9368.46
9373.634
9378.617
9383.416
9388.041
9392.499
9396.797
9400.944
9404.946
9408.806
9412.532
9416.128
9419.599
9422.949
9426.188
9429.308
9432.314
9435.206
9437.987
9440.654
9443.205
9445.643
9447.968
9450.176
9452.267
9454.24
9456.092
9457.823
9459.433
9460.921
9462.286
9463.53
9464.659
9465.676
9466.593
9467.429
9468.21
9468.951
9469.646
9470.248
9470.691
9470.975
9471.148
9471.245
9471.279
9471.251
9471.163
9471.019
9470.824
9470.585
9470.304
9469.987
9469.635
9469.252
9468.839
9468.398
9467.93
9467.436
9466.916
9466.371
9465.799
9465.201
9464.576
9463.923
9463.242
9462.531
9461.788
9461.012
9460.203
9459.36
9458.484
9457.573
9456.627
9455.646
9454.629
9453.579
9452.499
9451.352
9450.179
9448.977
9447.741
9446.472
9445.177
9443.858
9442.541
9441.246
9440.062
9439.051
9438.331
9437.265
9435.806
9434.222
9432.683
9431.189
9429.699
9428.187
9426.655
9425.106
9423.544
9421.967
9420.375
9418.766
9417.139
9415.494
9413.83
9412.142
9410.428
9408.685
9406.908
9405.095
9403.239
9401.335
9399.375
9397.351
9395.251
9393.063
9390.772
9388.364
9385.839
9383.22
9380.543
9377.958
9375.773
9374.403
9374.098
9374.621
9375.399
9376.109
9376.683
9377.149
9377.539
9377.867
9378.14
9378.362
9378.542
9378.689
9378.809
9378.91
9378.995
9379.069
9379.138
9379.203
9379.27
9379.34
9379.416
9379.502
9379.6
9379.712
9379.84
9379.987
9380.154
9380.347
9380.562
9380.81
9381.081
9381.398
9381.733
9382.17
9382.266
9381.505
9380.885
9380.879
9381.325
9381.942
9382.578
9383.186
9383.767
9384.335
9384.911
9385.512
9386.144
9386.804
9387.487
9388.192
9388.917
9389.662
9390.425
9391.206
9392.004
9392.818
9393.646
9394.487
9395.342
9396.208
9397.086
9397.976
9398.875
9399.785
9400.706
9401.637
9402.578
9403.532
9404.497
9405.477
9406.472
9407.486
9408.519
9409.574
9410.65
9411.736
9412.814
9413.854
9414.823
9415.676
9416.358
9416.86
9417.249
9417.636
9418.047
9418.489
9418.987
9419.761
9421.127
9422.086
9422.298
9422.203
9422.196
9422.354
9422.639
9423.021
9423.491
9424.039
9424.649
9425.301
9425.988
9426.705
9427.452
9428.227
9429.025
9429.844
9430.683
9431.54
9432.413
9433.301
9434.205
9435.124
9436.056
9437.001
9437.96
9438.931
9439.914
9440.907
9441.911
9442.924
9443.945
9444.974
9446.008
9447.047
9448.089
9449.132
9450.175
9451.216
9452.252
9453.281
9454.301
9455.309
9456.302
9457.279
9458.234
9459.166
9460.071
9460.945
9461.784
9462.584
9463.342
9464.051
9464.709
9465.309
9465.847
9466.317
9466.713
9467.028
9467.256
9467.39
9467.422
9467.343
9467.145
9466.817
9466.348
9465.726
9464.937
9463.966
9462.795
9461.405
9459.772
9457.872
9455.674
9453.158
9450.297
9447.119
9443.682
9440.198
9436.951
9434.391
9432.842
9433.014
9435.149
4583.573
4530.66
4490.144
4448.352
4412.824
4387.443
4376.419
4386.562
4412.63
4408.894
4378.107
4358.762
4362.758
4386.476
4427.855
4486.328
4561.768
4654.137
4764.232
4892.235
5038.385
5203.261
5386.115
5589.025
5811.905
6053.115
6311.504
6585.41
6870.009
7159.359
7454.169
7815.173
8103.773
8369.631
8611.421
8823.889
9002.337
9143.829
9247.836
9315.111
9348.091
9348.593
9319.227
9264.819
9190.316
9099.909
8997.228
8885.929
8769.034
8648.852
8527.641
8407.547
8289.57
8174.761
8063.921
7957.875
7857.265
7762.231
7672.646
7588.411
7509.387
7435.647
7367.304
7304.176
7246.003
7192.42
7143.06
7097.142
7052.772
7014.56
6982.11
6951.773
6923.24
6897.757
6876.036
6858.177
6843.953
6833.498
6827.049
6824.272
6825.345
6830.692
6840.521
6854.872
6873.655
6896.589
6923.617
6954.417
6988.221
7024.964
7065.22
7108.826
7155.218
7203.756
7254.265
7306.481
7360.071
7414.801
7470.696
7527.394
7584.693
7642.362
7700.462
7758.653
7817.252
7875.024
7932.67
7989.915
8046.378
8102.111
8157.313
8211.988
8265.854
8318.533
8369.943
8420.122
8469.102
8516.847
8563.273
8608.359
8652.035
8694.284
8734.955
8773.935
8810.913
8845.57
8877.142
8905.18
8930.64
8954.582
8977.085
8997.783
9016.811
9034.731
9052.021
9068.869
9085.267
9101.149
9116.489
9131.305
9145.638
9159.583
9173.251
9186.762
9200.232
9213.77
9227.362
9240.859
9254.011
9266.513
9277.637
9286.678
9293.457
9298.381
9301.919
9305.292
9309.868
9315.92
9322.723
9329.514
9335.986
9342.173
9348.178
9354.034
9359.713
9365.189
9370.458
9375.529
9380.413
9385.12
9389.657
9394.03
9398.247
9402.315
9406.24
9410.028
9413.686
9417.218
9420.628
9423.922
9427.104
9430.171
9433.127
9435.975
9438.712
9441.344
9443.855
9446.26
9448.556
9450.74
9452.81
9454.763
9456.598
9458.314
9459.91
9461.386
9462.742
9463.98
9465.105
9466.121
9467.038
9467.866
9468.618
9469.302
9469.915
9470.44
9470.847
9471.126
9471.296
9471.381
9471.394
9471.342
9471.23
9471.062
9470.844
9470.581
9470.278
9469.938
9469.565
9469.162
9468.73
9468.272
9467.788
9467.279
9466.747
9466.19
9465.608
9465.001
9464.368
9463.708
9463.021
9462.305
9461.559
9460.781
9459.972
9459.129
9458.253
9457.342
9456.396
9455.414
9454.397
9453.344
9452.255
9451.125
9449.964
9448.773
9447.549
9446.299
9445.024
9443.739
9442.447
9441.186
9439.942
9438.745
9437.428
9436.106
9434.814
9433.491
9432.118
9430.704
9429.255
9427.773
9426.263
9424.731
9423.181
9421.614
9420.03
9418.428
9416.809
9415.171
9413.513
9411.833
9410.128
9408.396
9406.633
9404.836
9403.002
9401.125
9399.2
9397.221
9395.182
9393.079
9390.908
9388.672
9386.387
9384.081
9381.821
9379.724
9377.954
9376.689
9376.082
9376.097
9376.457
9376.866
9377.216
9377.511
9377.769
9377.996
9378.188
9378.348
9378.476
9378.581
9378.667
9378.737
9378.797
9378.849
9378.898
9378.947
9378.998
9379.055
9379.119
9379.193
9379.28
9379.381
9379.499
9379.636
9379.792
9379.971
9380.171
9380.397
9380.643
9380.91
9381.167
9381.355
9381.425
9381.58
9381.888
9382.225
9382.503
9382.768
9383.085
9383.471
9383.91
9384.387
9384.899
9385.449
9386.036
9386.657
9387.312
9387.995
9388.703
9389.434
9390.187
9390.959
9391.75
9392.559
9393.382
9394.221
9395.073
9395.938
9396.816
9397.705
9398.605
9399.515
9400.436
9401.367
9402.308
9403.26
9404.223
9405.197
9406.184
9407.183
9408.195
9409.217
9410.244
9411.266
9412.27
9413.239
9414.151
9414.976
9415.686
9416.271
9416.764
9417.229
9417.711
9418.225
9418.775
9419.265
9419.634
9419.798
9419.968
9420.345
9420.887
9421.477
9422.06
9422.644
9423.251
9423.891
9424.562
9425.257
9425.974
9426.711
9427.471
9428.252
9429.053
9429.874
9430.713
9431.568
9432.44
9433.328
9434.23
9435.147
9436.079
9437.024
9437.983
9438.954
9439.938
9440.932
9441.938
9442.953
9443.976
9445.007
9446.045
9447.087
9448.133
9449.18
9450.228
9451.273
9452.315
9453.35
9454.377
9455.392
9456.394
9457.378
9458.343
9459.284
9460.199
9461.084
9461.935
9462.748
9463.519
9464.243
9464.916
9465.532
9466.088
9466.577
9466.994
9467.332
9467.585
9467.746
9467.808
9467.764
9467.603
9467.319
9466.9
9466.336
9465.615
9464.725
9463.652
9462.382
9460.899
9459.189
9457.24
9455.05
9452.628
9450.023
9447.312
9444.642
9442.19
9440.146
9438.793
9438.336
9438.854
5255.44
5197.529
5140.94
5081.924
5017.718
4951.283
4889.235
4825.728
4764.454
4703.852
4645.125
4590.953
4538.286
4489.691
4447.119
4409.612
4376.432
4357.341
4347.262
4340.481
4331.01
4323.524
4324.716
4338.802
4367.424
4411.524
4472.121
4549.343
4641.706
4749.576
4875.65
5020.1
5183.289
5365.898
5568.267
5790.118
6031
6289.694
6564.309
6851.581
7145.749
7440.258
7725.512
8011.232
8277.674
8521.156
8734.99
8915.034
9058.373
9164.03
9232.697
9266.525
9268.3
9241.123
9189.221
9117.241
9029.494
8929.71
8821.303
8707.288
8590.057
8471.483
8353.612
8237.983
8125.364
8016.422
7912.36
7813.773
7720.628
7632.999
7550.978
7474.394
7403.143
7337.138
7276.174
7219.852
7167.902
7119.668
7075.192
7034.361
6997.336
6964.108
6933.706
6905.798
6880.812
6859.144
6840.954
6826.272
6815.258
6807.989
6804.502
6805.18
6810.353
6820.12
6834.458
6853.266
6876.168
6903.224
6934.104
6968.742
7007.05
7048.587
7093.082
7140.227
7189.66
7241.114
7294.288
7348.881
7404.664
7461.471
7519.007
7577.089
7635.536
7694.305
7753.145
7811.99
7870.416
7928.668
7986.664
8043.909
8100.17
8155.574
8210.23
8264.032
8316.766
8368.298
8418.576
8467.556
8515.185
8561.396
8606.164
8649.451
8691.206
8731.3
8769.596
8805.889
8839.928
8871.434
8900.253
8926.697
8951.31
8974.38
8995.913
9015.988
9034.892
9052.947
9070.354
9087.177
9103.418
9119.08
9134.197
9148.82
9163.02
9176.877
9190.475
9203.88
9217.137
9230.218
9243.027
9255.348
9266.912
9277.349
9286.305
9293.635
9299.564
9304.544
9309.233
9314.331
9320.16
9326.509
9332.959
9339.236
9345.282
9351.142
9356.847
9362.387
9367.74
9372.897
9377.864
9382.648
9387.259
9391.701
9395.983
9400.11
9404.09
9407.93
9411.636
9415.213
9418.667
9422.002
9425.224
9428.334
9431.335
9434.23
9437.018
9439.702
9442.28
9444.765
9447.134
9449.393
9451.541
9453.58
9455.503
9457.313
9459.007
9460.584
9462.043
9463.386
9464.613
9465.727
9466.734
9467.639
9468.449
9469.172
9469.813
9470.372
9470.84
9471.204
9471.457
9471.606
9471.668
9471.656
9471.577
9471.439
9471.244
9471
9470.711
9470.383
9470.018
9469.622
9469.196
9468.742
9468.264
9467.761
9467.235
9466.686
9466.114
9465.519
9464.9
9464.257
9463.588
9462.893
9462.17
9461.418
9460.636
9459.823
9458.978
9458.1
9457.188
9456.241
9455.259
9454.243
9453.191
9452.105
9450.983
9449.828
9448.643
9447.429
9446.19
9444.93
9443.658
9442.379
9441.105
9439.831
9438.565
9437.293
9436.035
9434.752
9433.404
9431.997
9430.551
9429.082
9427.592
9426.082
9424.552
9423.006
9421.444
9419.866
9418.272
9416.661
9415.033
9413.385
9411.716
9410.025
9408.309
9406.565
9404.792
9402.986
9401.143
9399.262
9397.339
9395.372
9393.363
9391.313
9389.235
9387.147
9385.086
9383.11
9381.301
9379.759
9378.589
9377.874
9377.6
9377.618
9377.751
9377.898
9378.038
9378.171
9378.295
9378.405
9378.496
9378.569
9378.627
9378.672
9378.709
9378.74
9378.767
9378.793
9378.821
9378.854
9378.894
9378.942
9379.003
9379.076
9379.164
9379.269
9379.392
9379.535
9379.698
9379.881
9380.085
9380.303
9380.531
9380.752
9380.961
9381.198
9381.482
9381.751
9381.942
9382.12
9382.364
9382.7
9383.114
9383.58
9384.081
9384.612
9385.176
9385.772
9386.398
9387.048
9387.735
9388.447
9389.181
9389.935
9390.708
9391.5
9392.308
9393.131
9393.97
9394.822
9395.688
9396.566
9397.456
9398.356
9399.266
9400.187
9401.116
9402.055
9403.004
9403.961
9404.927
9405.902
9406.884
9407.872
9408.863
9409.851
9410.828
9411.784
9412.706
9413.578
9414.382
9415.102
9415.736
9416.304
9416.838
9417.37
9417.901
9418.419
9418.886
9419.357
9419.873
9420.399
9420.909
9421.398
9421.879
9422.373
9422.897
9423.459
9424.062
9424.702
9425.374
9426.073
9426.798
9427.547
9428.319
9429.111
9429.923
9430.754
9431.604
9432.47
9433.353
9434.252
9435.167
9436.097
9437.041
9437.999
9438.971
9439.955
9440.951
9441.958
9442.976
9444.003
9445.038
9446.079
9447.127
9448.178
9449.232
9450.287
9451.34
9452.389
9453.433
9454.469
9455.495
9456.507
9457.503
9458.48
9459.435
9460.364
9461.264
9462.13
9462.96
9463.749
9464.492
9465.185
9465.824
9466.403
9466.917
9467.361
9467.728
9468.013
9468.209
9468.31
9468.308
9468.195
9467.965
9467.607
9467.113
9466.474
9465.68
9464.721
9463.588
9462.272
9460.769
9459.077
9457.207
9455.18
9453.047
9450.871
9448.763
9446.828
9445.227
9444.087
9443.522
9443.465
5866.458
5793.618
5728.239
5664.169
5607.055
5542.738
5486.793
5430.903
5374.257
5317.077
5259.938
5202.729
5143.719
5084.092
5021.174
4948.84
4885.904
4823.744
4762.017
4701.176
4641.802
4585.06
4531.131
4480.372
4434.125
4394.401
4361.275
4335.217
4315.285
4299.76
4288.261
4283.483
4287.905
4303.576
4332.033
4374.668
4432.751
4505.862
4594.499
4698.815
4819.605
4957.993
5115.25
5292.164
5488.858
5705.212
5940.654
6194.006
6463.184
6745.427
7036.777
7331.495
7620.294
7902.786
8168.779
8411.612
8625.019
8804.547
8947.421
9052.706
9121.175
9155.051
9157.496
9132.075
9082.816
9014.026
8929.879
8834.083
8729.902
8620.186
8507.322
8393.238
8279.733
8168.227
8059.732
7955.01
7854.729
7759.232
7668.915
7584.234
7505.329
7431.972
7363.906
7300.888
7242.661
7188.852
7139.154
7093.161
7050.804
7011.785
6975.752
6942.721
6912.54
6884.967
6860.034
6837.972
6819.033
6803.422
6791.342
6783.007
6778.692
6778.729
6783.371
6792.752
6806.936
6826.063
6848.802
6876.394
6908.319
6944.17
6983.65
7026.392
7072.111
7120.531
7171.32
7224.137
7278.648
7334.559
7391.601
7449.553
7508.182
7567.31
7626.761
7686.418
7746.093
7805.674
7864.993
7923.981
7982.489
8040.242
8097.075
8153.004
8208.06
8262.167
8315.165
8366.908
8417.31
8466.316
8513.882
8559.96
8604.518
8647.513
8688.88
8728.52
8766.325
8802.164
8835.895
8867.408
8896.651
8923.745
8948.99
8972.658
8994.883
9015.756
9035.446
9054.171
9072.11
9089.358
9105.957
9121.934
9137.329
9152.194
9166.585
9180.563
9194.191
9207.506
9220.526
9233.223
9245.514
9257.245
9268.234
9278.275
9287.188
9294.898
9301.543
9307.433
9312.952
9318.504
9324.351
9330.482
9336.699
9342.809
9348.728
9354.464
9360.037
9365.446
9370.679
9375.726
9380.588
9385.271
9389.783
9394.129
9398.315
9402.349
9406.236
9409.985
9413.6
9417.089
9420.456
9423.708
9426.847
9429.879
9432.805
9435.628
9438.349
9440.97
9443.49
9445.909
9448.226
9450.442
9452.554
9454.557
9456.439
9458.215
9459.879
9461.43
9462.866
9464.188
9465.397
9466.494
9467.484
9468.37
9469.157
9469.851
9470.454
9470.968
9471.389
9471.711
9471.931
9472.054
9472.091
9472.052
9471.947
9471.78
9471.558
9471.286
9470.97
9470.615
9470.224
9469.801
9469.35
9468.873
9468.371
9467.847
9467.3
9466.732
9466.143
9465.532
9464.899
9464.242
9463.562
9462.856
9462.124
9461.365
9460.577
9459.758
9458.909
9458.027
9457.112
9456.164
9455.181
9454.165
9453.115
9452.03
9450.912
9449.762
9448.582
9447.375
9446.145
9444.893
9443.628
9442.352
9441.072
9439.789
9438.51
9437.23
9435.936
9434.608
9433.234
9431.82
9430.379
9428.917
9427.436
9425.935
9424.416
9422.88
9421.327
9419.759
9418.175
9416.574
9414.957
9413.322
9411.668
9409.993
9408.296
9406.575
9404.829
9403.055
9401.252
9399.42
9397.557
9395.665
9393.747
9391.813
9389.875
9387.955
9386.086
9384.316
9382.702
9381.312
9380.207
9379.43
9378.969
9378.747
9378.663
9378.639
9378.642
9378.659
9378.684
9378.71
9378.731
9378.746
9378.753
9378.756
9378.755
9378.752
9378.75
9378.751
9378.756
9378.767
9378.788
9378.819
9378.862
9378.92
9378.993
9379.083
9379.191
9379.319
9379.466
9379.632
9379.815
9380.014
9380.224
9380.443
9380.674
9380.921
9381.164
9381.381
9381.582
9381.817
9382.121
9382.493
9382.921
9383.389
9383.891
9384.423
9384.987
9385.583
9386.209
9386.852
9387.52
9388.233
9388.969
9389.724
9390.497
9391.287
9392.094
9392.917
9393.755
9394.607
9395.473
9396.351
9397.24
9398.14
9399.05
9399.968
9400.895
9401.83
9402.773
9403.723
9404.679
9405.641
9406.606
9407.572
9408.536
9409.492
9410.434
9411.354
9412.241
9413.085
9413.874
9414.602
9415.268
9415.883
9416.464
9417.027
9417.576
9418.113
9418.64
9419.182
9419.729
9420.237
9420.714
9421.199
9421.71
9422.25
9422.819
9423.416
9424.042
9424.697
9425.379
9426.084
9426.812
9427.562
9428.333
9429.123
9429.933
9430.762
9431.609
9432.473
9433.355
9434.253
9435.167
9436.096
9437.041
9438
9438.973
9439.959
9440.958
9441.969
9442.99
9444.022
9445.062
9446.11
9447.165
9448.224
9449.286
9450.349
9451.412
9452.472
9453.528
9454.576
9455.614
9456.64
9457.651
9458.644
9459.615
9460.562
9461.48
9462.367
9463.218
9464.029
9464.796
9465.514
9466.18
9466.787
9467.332
9467.809
9468.212
9468.535
9468.774
9468.92
9468.969
9468.913
9468.744
9468.457
9468.044
9467.497
9466.81
9465.975
9464.989
9463.848
9462.553
9461.109
9459.534
9457.85
9456.105
9454.35
9452.671
9451.14
9449.885
9448.94
9448.414
9448.189
6196.741
6170.746
6102.021
6016.266
5931.536
5855.197
5785.136
5720.978
5661.323
5602.112
5536.103
5480.397
5425.401
5369.892
5313.524
5256.324
5198.2
5138.721
5078.018
5016.864
4956.37
4894.023
4831.543
4769.099
4707.208
4646.238
4587.051
4530.019
4475.522
4424.521
4378.523
4339.614
4307.577
4281.88
4262.301
4249.217
4244.556
4249.911
4266.313
4294.701
4335.922
4390.732
4460.715
4546.193
4647.579
4765.011
4899.291
5051.521
5222.632
5413.109
5623.043
5852.212
6099.322
6362.54
6639.686
6925.67
7215.25
7501.805
7780.04
8042.488
8281.668
8491.443
8667.428
8807.102
8909.791
8976.524
9009.719
9012.694
8989.192
8943.154
8878.582
8799.354
8708.973
8610.53
8506.684
8399.731
8291.561
8183.886
8078.029
7974.803
7875.145
7779.705
7688.816
7603.13
7523.055
7448.609
7379.555
7315.6
7256.445
7201.792
7151.285
7104.581
7061.323
7021.22
6983.972
6949.286
6917.087
6887.321
6859.844
6834.643
6811.915
6791.964
6775.111
6761.684
6752.044
6746.572
6745.619
6749.464
6758.262
6772.038
6790.423
6814.744
6843.4
6876.398
6913.495
6954.365
6998.662
7046.075
7096.251
7148.808
7203.369
7259.579
7317.12
7375.707
7435.105
7495.1
7555.515
7616.175
7676.94
7737.663
7798.219
7858.472
7918.278
7977.495
8035.964
8093.554
8150.194
8205.834
8260.391
8313.738
8365.747
8416.332
8465.44
8513.026
8559.05
8603.471
8646.246
8687.324
8726.638
8764.118
8799.684
8833.266
8864.818
8894.333
8921.891
8947.677
8971.899
8994.705
9016.206
9036.527
9055.827
9074.252
9091.902
9108.84
9125.107
9140.749
9155.813
9170.352
9184.415
9198.047
9211.274
9224.103
9236.506
9248.425
9259.759
9270.391
9280.205
9289.107
9297.07
9304.185
9310.648
9316.708
9322.624
9328.586
9334.642
9340.712
9346.683
9352.486
9358.112
9363.568
9368.859
9373.977
9378.915
9383.674
9388.256
9392.668
9396.916
9401.006
9404.943
9408.735
9412.388
9415.908
9419.303
9422.578
9425.738
9428.789
9431.733
9434.575
9437.316
9439.959
9442.504
9444.952
9447.303
9449.557
9451.711
9453.761
9455.707
9457.558
9459.297
9460.923
9462.437
9463.842
9465.133
9466.315
9467.388
9468.354
9469.214
9469.973
9470.635
9471.202
9471.676
9472.055
9472.338
9472.525
9472.62
9472.63
9472.564
9472.43
9472.235
9471.985
9471.685
9471.34
9470.956
9470.538
9470.087
9469.609
9469.106
9468.579
9468.03
9467.461
9466.871
9466.262
9465.632
9464.981
9464.309
9463.614
9462.895
9462.151
9461.381
9460.584
9459.757
9458.901
9458.014
9457.095
9456.143
9455.159
9454.141
9453.09
9452.006
9450.89
9449.743
9448.568
9447.366
9446.14
9444.894
9443.632
9442.357
9441.073
9439.783
9438.487
9437.181
9435.856
9434.504
9433.122
9431.712
9430.278
9428.823
9427.348
9425.854
9424.342
9422.813
9421.269
9419.71
9418.136
9416.546
9414.942
9413.32
9411.682
9410.026
9408.351
9406.655
9404.938
9403.2
9401.439
9399.657
9397.854
9396.036
9394.206
9392.376
9390.559
9388.777
9387.058
9385.438
9383.96
9382.668
9381.601
9380.779
9380.196
9379.811
9379.562
9379.395
9379.276
9379.187
9379.118
9379.063
9379.014
9378.968
9378.923
9378.88
9378.839
9378.801
9378.768
9378.74
9378.719
9378.707
9378.706
9378.718
9378.743
9378.783
9378.839
9378.913
9379.006
9379.118
9379.249
9379.399
9379.567
9379.751
9379.951
9380.163
9380.388
9380.619
9380.851
9381.087
9381.34
9381.629
9381.964
9382.345
9382.769
9383.23
9383.727
9384.257
9384.82
9385.414
9386.037
9386.681
9387.326
9388.025
9388.769
9389.53
9390.306
9391.098
9391.906
9392.729
9393.568
9394.421
9395.287
9396.165
9397.054
9397.954
9398.862
9399.778
9400.702
9401.632
9402.568
9403.51
9404.456
9405.406
9406.355
9407.301
9408.241
9409.171
9410.085
9410.976
9411.838
9412.662
9413.442
9414.174
9414.86
9415.503
9416.115
9416.704
9417.28
9417.846
9418.406
9418.96
9419.502
9420.023
9420.539
9421.069
9421.62
9422.193
9422.784
9423.397
9424.033
9424.693
9425.376
9426.083
9426.811
9427.56
9428.329
9429.117
9429.925
9430.752
9431.597
9432.46
9433.34
9434.238
9435.151
9436.081
9437.026
9437.987
9438.962
9439.951
9440.954
9441.969
9442.996
9444.034
9445.081
9446.136
9447.199
9448.267
9449.34
9450.414
9451.489
9452.562
9453.632
9454.695
9455.749
9456.792
9457.821
9458.833
9459.824
9460.792
9461.733
9462.644
9463.52
9464.358
9465.153
9465.902
9466.599
9467.241
9467.822
9468.337
9468.782
9469.15
9469.437
9469.636
9469.743
9469.75
9469.653
9469.444
9469.119
9468.672
9468.099
9467.395
9466.559
9465.592
9464.498
9463.288
9461.978
9460.594
9459.175
9457.764
9456.429
9455.221
9454.229
9453.465
9453.017
9452.788
6175.565
6127.932
6028.396
5955.424
5884.816
5819.255
5757.861
5699.762
5643.91
5589.784
5537.359
5484.093
5430.36
5375.718
5320.139
5263.265
5205.022
5145.256
5083.871
5021.512
4959.812
4897.454
4834.381
4770.968
4707.343
4643.628
4580.843
4520.025
4462.111
4407.912
4358.379
4315.198
4279.326
4250.644
4229.39
4216.082
4211.799
4217.496
4233.934
4261.775
4301.601
4354.102
4420.468
4502.297
4600.433
4714.28
4844.024
4990.935
5156.026
5340.043
5543.181
5766.328
6006.77
6263.806
6534.681
6814.842
7098.769
7380.036
7651.944
7907.449
8139.462
8342.117
8511.357
8645.108
8743.141
8806.842
8838.801
8842.355
8821.176
8779.008
8719.532
8646.246
8562.372
8470.744
8373.895
8273.961
8172.788
8071.687
7971.831
7874.346
7780.322
7690.661
7605.728
7525.902
7451.427
7382.296
7318.315
7259.205
7204.643
7154.282
7107.733
7064.598
7024.463
6987.004
6951.907
6918.882
6887.774
6858.489
6830.966