/*--------------------------------*- C++ -*----------------------------------*\
| =========                 |                                                 |
| \\      /  F ield         | foam-extend: Open Source CFD                    |
|  \\    /   O peration     | Version:     3.1                                |
|   \\  /    A nd           | Web:         http://www.extend-project.de       |
|    \\/     M anipulation  |                                                 |
\*---------------------------------------------------------------------------*/
FoamFile
{
    version     2.0;
    format      ascii;
    class       volScalarField;
    location    "9";
    object      omega;
}
// * * * * * * * * * * * * * * * * * * * * * * * * * * * * * * * * * * * * * //

dimensions      [0 0 -1 0 0 0 0];

internalField   nonuniform List<scalar> 
119952
(
405.4068
520.3684
499.2504
439.4873
397.4008
402.5456
409.879
417.912
425.9505
433.6105
440.4864
446.2622
450.686
453.556
454.715
453.9845
450.9852
445.6047
438.2266
430.6982
349.0754
334.6629
332.161
293.9071
287.3534
284.6056
282.3616
279.227
272.9846
162.0417
748.2081
622.4128
526.018
457.3189
405.9306
365.7892
332.9611
305.4943
281.8344
255.7034
214.6499
186.5347
167.344
153.3453
142.3837
133.2587
125.3067
118.1415
111.5688
87.91343
83.65873
79.22496
74.73989
70.27216
65.97087
61.93224
58.21418
54.85142
51.89095
49.34798
47.0855
45.0965
43.36782
41.88441
40.62691
39.56258
38.63166
37.76715
38.04711
38.64991
38.79571
38.97061
39.2475
39.59439
40.0012
40.57604
41.30167
42.20375
43.31138
44.65188
46.24083
48.08681
50.18643
52.52044
55.05088
57.71683
60.41182
62.99471
65.11622
67.01843
67.97338
67.75976
67.64342
67.68349
67.44277
67.22635
67.3914
67.41631
65.49934
63.03556
60.26599
57.42142
54.63535
52.00494
49.60133
47.46612
45.63065
44.11868
42.93508
42.094
41.61638
41.54433
42.00305
43.26184
45.97076
52.04221
65.13566
82.79439
98.34625
110.3643
115.9199
114.9042
107.4142
95.04643
82.12548
71.12197
62.55372
56.13743
51.35193
47.64769
44.66601
42.21598
40.1734
38.4492
36.97074
35.68192
34.54123
33.52074
32.6024
31.77344
31.02328
30.34325
29.72571
29.16338
28.64937
28.17537
27.73553
27.55386
27.5276
27.47639
27.37334
27.22561
27.04741
26.852
26.64935
26.44649
26.24788
26.05493
25.86906
25.69236
25.52599
25.37027
25.22512
25.09031
24.9656
24.85095
24.74644
24.6523
24.56875
24.49601
24.43425
24.38359
24.34398
24.31535
24.29764
24.29102
24.29577
24.31214
24.34049
24.38116
24.43317
24.49605
24.57087
24.65812
24.75796
24.87047
24.99568
25.13371
25.28474
25.44899
25.62611
25.8165
26.02247
26.24198
26.47386
26.70804
26.86391
29.98765
34.4119
36.92365
38.42302
39.39687
40.09157
40.63659
41.10252
41.5296
41.94125
42.35136
42.76734
43.19332
43.6325
44.08816
44.56297
45.05776
45.57234
46.10677
46.66138
47.23704
47.83678
48.45114
49.08029
49.74425
50.43272
51.14413
51.87969
52.64023
53.42627
54.23716
55.07063
55.91756
56.7562
57.52413
57.3806
56.40632
55.56826
54.80935
54.09497
53.41068
52.74769
52.09956
51.46351
50.83796
50.22264
49.61783
49.02361
48.44022
47.86789
47.30683
46.75722
46.21913
45.69249
45.17727
44.67349
44.18103
43.69966
43.22921
42.76949
42.32022
41.88133
41.45276
41.03413
40.62522
40.22584
39.83563
39.45496
39.08459
38.717
31.1361
30.55609
29.91098
29.22695
28.58097
27.99631
27.48268
27.04031
26.66278
26.34082
26.06412
25.82293
25.60879
25.41476
25.23543
25.06677
24.90588
24.75079
24.60015
24.45316
24.3093
24.16833
24.03012
23.89466
23.76199
23.63218
23.50533
23.38151
23.26082
23.14332
23.02907
22.91812
22.81051
22.70628
22.60543
22.50801
22.41403
22.32351
22.23647
22.15295
22.07305
21.99696
21.92513
21.85878
21.80098
21.7553
21.71873
21.68654
21.65857
21.63454
21.61393
21.59738
21.58609
21.58527
21.63756
21.61678
21.58272
21.53704
21.47999
21.41413
21.34229
21.26765
21.19289
21.12007
21.05055
20.98505
20.92375
20.86632
20.81212
20.7604
20.71037
20.66126
20.61233
20.56287
20.51219
20.45974
20.40504
20.34772
20.28754
20.22435
20.15812
20.0889
20.01679
19.94198
19.86465
19.78504
19.70342
19.62005
19.53524
19.44929
19.36248
19.27509
19.18737
19.09957
19.01192
18.92465
18.83796
18.75206
18.6671
18.58324
18.50061
18.41931
18.33943
18.26104
18.18417
18.10885
18.03509
17.96287
17.89216
17.82292
17.75508
17.68857
17.62332
17.55922
17.49617
17.43405
17.37275
17.31214
17.25209
17.19245
17.13307
17.07379
17.01445
16.95487
16.89484
16.83413
16.77248
16.70958
16.64499
16.57821
16.50843
16.43456
16.3547
16.26536
16.15876
16.01816
15.80611
15.48101
15.40338
722.0486
602.9225
545.8693
503.1737
465.2177
430.9474
400.2633
372.9481
347.6515
286.6913
223.9205
188.0213
165.9351
151.2892
140.806
132.7379
126.1337
120.4594
95.27423
90.56992
86.08066
81.90872
78.11731
74.69968
71.62174
68.83793
66.3036
63.97936
61.90128
59.93074
58.0045
56.14551
54.38648
52.74915
51.24811
49.88991
48.67195
47.90811
47.45294
46.90669
46.32065
45.73441
45.17219
44.64549
44.16451
43.73671
43.36265
43.02908
42.72226
42.42916
42.1213
41.76821
41.35135
40.85603
40.27136
39.6057
35.32721
34.55167
33.73239
32.87303
31.98104
31.07056
30.16228
29.28093
28.45243
27.70063
27.04336
26.49071
26.04498
25.69905
25.44019
25.24883
25.10201
24.98053
24.8864
24.8217
24.73198
24.62459
24.52817
24.44304
24.36912
24.32093
24.32552
24.39189
24.52778
24.74008
25.03425
25.41389
25.88046
26.43104
27.05501
27.7355
28.45026
29.17294
29.87045
30.50584
31.05674
31.4873
31.79905
32.04089
32.22411
32.34314
32.4027
32.37951
32.17282
31.75752
31.20647
30.52951
29.75041
28.90289
28.02318
27.14779
26.31025
25.5363
24.8446
24.25305
23.77888
23.43938
23.26641
23.30977
23.64654
24.4532
26.04371
28.59735
31.7954
35.40644
39.23136
43.16201
47.3507
51.75395
55.93499
59.28131
61.23498
61.58042
60.34326
57.63955
53.85218
49.5971
45.44242
41.71205
38.50844
35.81036
33.5467
31.6379
30.0119
28.60992
27.38649
26.30696
25.3449
24.47993
23.69619
22.98126
22.32559
21.72229
21.16552
20.65003
20.17176
19.72645
19.30998
18.91885
18.55001
18.20112
17.87046
17.55575
17.25546
16.96833
16.69318
16.42897
16.17482
15.92995
15.69367
15.46546
15.24485
15.03145
14.82492
14.625
14.4315
14.24425
14.0631
13.88793
13.71871
13.55543
13.39809
13.24665
13.10111
12.96152
12.82793
12.70049
12.5793
12.46438
12.35567
12.25311
12.15659
12.06603
11.98127
11.90218
11.82858
11.76031
11.69711
11.63887
11.58501
11.53553
11.4885
11.43456
11.75126
12.05241
12.22394
12.32404
12.38433
12.42243
12.44858
12.46808
12.48383
12.49748
12.50994
12.52177
12.53332
12.54487
12.55663
12.56867
12.58066
12.59247
12.60446
12.61676
12.62937
12.64224
12.65538
12.66895
12.68283
12.69703
12.71152
12.72626
12.74113
12.75592
12.77021
12.78323
12.79347
12.79772
12.78808
12.7612
12.72783
12.69292
12.65633
12.61847
12.5799
12.54098
12.50199
12.46309
12.42437
12.38585
12.3475
12.30925
12.27104
12.23278
12.19439
12.1558
12.11691
12.07767
12.03803
11.99797
11.95745
11.91645
11.87497
11.83302
11.79061
11.74776
11.7045
11.66087
11.61692
11.57271
11.52831
11.48387
11.43967
11.39762
10.2376
10.17154
10.11682
10.06753
10.02064
9.974987
9.930068
9.885575
9.841366
9.797445
9.75389
9.710808
9.668324
9.626551
9.585585
9.545505
9.506363
9.468196
9.43102
9.394841
9.359652
9.325443
9.292199
9.259902
9.228538
9.198089
9.168543
9.139888
9.112113
9.085213
9.059182
9.034019
9.009727
8.98631
8.963776
8.942139
8.921415
8.901627
8.882803
8.864988
8.848244
8.832667
8.8184
8.805627
8.794498
8.784993
8.776793
8.769663
8.763643
8.75878
8.755066
8.752525
8.751229
8.752178
8.755375
8.757035
8.757935
8.75928
8.761268
8.763711
8.76635
8.768955
8.77134
8.773342
8.774812
8.775605
8.77559
8.774641
8.772639
8.769477
8.765055
8.759282
8.752069
8.743335
8.733005
8.721012
8.707302
8.691832
8.674576
8.655527
8.634694
8.612106
8.587807
8.561857
8.53433
8.505314
8.47491
8.443232
8.410401
8.376545
8.341797
8.306292
8.270164
8.233547
8.196571
8.159363
8.122044
8.084729
8.047524
8.010528
7.973832
7.937516
7.90165
7.866295
7.8315
7.797304
7.763736
7.730817
7.698554
7.666949
7.635993
7.605669
7.575955
7.546816
7.518219
7.490117
7.462465
7.435206
7.408286
7.381637
7.355201
7.328896
7.302659
7.27639
7.250021
7.223421
7.196512
7.169104
7.141089
7.112157
7.082092
7.050302
7.016239
6.978664
6.936401
6.888157
6.834926
6.783201
6.735767
620.8142
543.4918
480.8962
435.001
400.194
373.3163
352.2458
335.8647
323.279
306.4056
182.9736
170.3396
159.7481
150.6714
142.5865
135.8341
130.8962
127.9803
117.0795
79.6177
78.07771
77.5559
77.06314
76.54798
75.99668
75.35759
74.70517
73.8894
72.14616
68.96727
67.12558
66.03695
65.18669
64.39698
63.61295
62.82543
62.02149
61.19718
61.27773
60.38836
59.15484
57.84852
56.58485
55.40104
54.30198
53.28064
52.32914
51.44583
50.60122
49.77246
48.95283
48.14486
47.35602
46.59301
45.85959
45.16445
41.63721
41.03558
40.45163
39.86958
39.27841
38.67399
38.05522
37.42408
36.78626
36.14893
35.51942
34.90617
34.31593
33.75253
33.21898
32.71815
32.25163
31.82041
31.42466
31.06401
30.73839
30.44778
30.18967
29.96096
29.75933
29.58318
29.43079
29.29917
29.1826
29.06869
28.95065
28.82488
28.68825
28.53257
28.34729
28.12871
27.87734
27.5857
27.29846
26.95667
26.566
26.1346
25.67317
25.1958
24.72017
24.26695
23.8583
23.51568
23.25364
23.0795
22.99155
22.97907
23.02382
23.10333
23.19161
23.26454
23.30144
23.29576
23.22397
23.09168
22.92234
22.7346
22.54354
22.36594
22.22603
22.13295
22.09038
22.10093
22.16655
22.28793
22.4632
22.68768
22.95432
23.25266
23.57025
23.89345
24.2089
24.50236
24.76125
24.9745
25.13064
25.232
25.28594
25.29027
25.24089
25.14134
24.97329
24.71337
24.36918
23.95309
23.47399
22.94592
22.38704
21.81844
21.26374
20.74402
20.27453
19.8689
19.54054
19.2992
19.15807
19.13813
19.26554
19.59717
20.23466
21.23242
22.53717
24.12601
26.01581
28.22653
30.82055
33.78756
36.98938
40.21305
43.15334
45.52003
47.12406
47.84273
47.6312
46.56558
44.80695
42.5765
40.11135
37.61998
35.25288
33.09358
31.17186
29.48371
28.00799
26.71732
25.58409
24.58315
23.69311
22.89657
22.17906
21.52824
20.93382
20.38712
19.88105
19.40976
18.96832
18.55273
18.15963
17.78631
17.43056
17.09077
16.76535
16.4529
16.15229
15.86261
15.583
15.31264
15.05079
14.79688
14.55033
14.31065
14.07737
13.85013
13.62862
13.41257
13.20173
12.99592
12.79509
12.59914
12.40809
12.22204
12.04106
11.86522
11.69471
11.52967
11.37023
11.21653
11.06869
10.92683
10.79102
10.6613
10.53769
10.42015
10.30861
10.20293
10.10303
10.00856
9.919537
9.835272
9.756313
9.680789
9.624628
9.560352
9.494535
9.430212
9.368833
9.310938
9.256604
9.205683
9.157915
9.113006
9.07067
9.030636
8.992666
8.956545
8.922087
8.889148
8.857619
8.827384
8.798315
8.770299
8.743247
8.717121
8.691961
8.667864
8.644664
8.622171
8.600246
8.578762
8.557581
8.536521
8.515318
8.493581
8.470888
8.4472
8.422312
8.39668
8.371186
8.346045
8.321139
8.296425
8.271877
8.247468
8.223178
8.198991
8.174887
8.15085
8.126856
8.10288
8.078896
8.054875
8.030788
8.006603
7.982292
7.957827
7.933181
7.908332
7.883257
7.857939
7.832363
7.806519
7.780401
7.754006
7.727335
7.7004
7.673209
7.645797
7.618177
7.590429
7.562399
7.532198
7.523094
7.510223
7.49378
7.474558
7.453537
7.431314
7.408158
7.384208
7.359578
7.334389
7.308754
7.282775
7.256545
7.230154
7.203687
7.177219
7.15082
7.124553
7.098471
7.072622
7.047046
7.021779
6.99685
6.972284
6.948103
6.924324
6.900963
6.878033
6.855545
6.833508
6.811934
6.790831
6.770209
6.750078
6.730451
6.711342
6.692765
6.674741
6.657293
6.640452
6.624256
6.608754
6.594005
6.580068
6.566985
6.554749
6.543284
6.532499
6.522389
6.512967
6.504267
6.496256
6.488925
6.482122
6.476121
6.470813
6.4662
6.462236
6.458743
6.455571
6.452641
6.449904
6.447318
6.444825
6.442358
6.439837
6.437178
6.434291
6.431082
6.42746
6.423329
6.418594
6.413161
6.406935
6.399828
6.391755
6.382639
6.372412
6.361017
6.348407
6.334552
6.319431
6.303038
6.28538
6.266476
6.246359
6.225073
6.202674
6.17923
6.154817
6.129519
6.103428
6.076637
6.049246
6.021356
5.993065
5.964474
5.935678
5.90677
5.877839
5.848966
5.820227
5.791692
5.763421
5.735469
5.707882
5.680696
5.653942
5.627641
5.601807
5.576448
5.551563
5.527145
5.503182
5.479654
5.456539
5.433807
5.411427
5.389359
5.367567
5.345999
5.324617
5.303355
5.282176
5.260991
5.239766
5.218376
5.196791
5.17482
5.152426
5.129295
5.105363
5.080109
5.053492
5.02486
4.994619
4.962409
4.930056
4.899131
380.7172
272.5247
392.1414
172.508
133.2212
96.72102
82.82758
71.40346
62.24355
57.89665
56.14926
55.22481
54.31667
53.48891
52.68667
51.95851
51.28178
50.63409
50.04049
49.54425
49.17212
48.91879
48.91101
49.06936
49.29678
49.58245
49.9178
50.28476
50.6596
50.96984
51.11018
49.93041
50.52092
51.10456
51.59423
51.98064
52.24235
52.39018
52.41855
52.34247
52.17739
51.89445
51.52178
51.07627
50.568
49.99821
49.37193
48.68681
47.9511
47.19163
46.42815
45.66618
44.9052
44.15031
43.40744
42.68201
41.97883
41.30223
40.65607
40.04271
39.46242
38.91455
38.39682
37.90612
37.4389
36.99085
36.55773
36.12649
35.74492
35.35365
34.9497
34.52839
34.08835
33.6305
33.15612
32.66975
32.17788
31.68714
31.20438
30.73609
30.28728
29.86191
29.46271
29.09131
28.74835
28.43344
28.1453
27.88204
27.6412
27.42028
27.21668
27.02841
26.85439
26.69421
26.54727
26.41005
26.28136
26.16656
26.06041
25.95311
25.83436
25.69476
25.52646
25.32438
25.08746
24.81835
24.5288
24.22372
23.89973
23.56313
23.22333
22.89324
22.5893
22.33067
22.13735
22.02648
22.01049
22.09253
22.26431
22.50733
22.79478
23.09415
23.36978
23.58684
23.71427
23.73534
23.64684
23.46301
23.21381
22.9305
22.63928
22.36139
22.11722
21.91028
21.7419
21.61312
21.52491
21.47806
21.47165
21.50187
21.56255
21.64586
21.74334
21.84641
21.94698
22.03764
22.11193
22.16344
22.18559
22.17436
22.1297
22.05189
21.94109
21.79813
21.61985
21.40008
21.13566
20.82737
20.47866
20.0966
19.69146
19.27659
18.86806
18.48116
18.12749
17.81723
17.55965
17.36087
17.22649
17.16244
17.17657
17.29144
17.5405
17.94168
18.50073
19.23945
20.19034
21.38701
22.87244
24.6768
26.78915
29.12876
31.52342
33.76186
35.67019
37.13899
38.09477
38.50814
38.38142
37.7507
36.69719
35.33742
33.79552
32.18598
30.59847
29.09286
27.70216
26.43921
25.30357
24.28727
23.37896
22.56638
21.83767
21.18194
20.5894
20.05127
19.5597
19.10778
18.68945
18.29958
17.93371
17.58796
17.25919
16.94481
16.64269
16.35109
16.06874
15.79463
15.52785
15.26764
15.01368
14.76568
14.52326
14.28604
14.05365
13.82577
13.60209
13.38229
13.1661
12.95328
12.74366
12.53706
12.33344
12.13296
11.93576
11.74199
11.55188
11.36568
11.18369
11.00622
10.83358
10.66608
10.50401
10.34759
10.19707
10.05257
9.914227
9.782057
9.656075
9.536162
9.422279
9.314155
9.211869
9.115019
9.024696
8.939288
8.85788
8.780198
8.706125
8.635509
8.568159
8.503884
8.442489
8.383765
8.327521
8.273573
8.22174
8.171853
8.123755
8.077308
8.032391
7.988879
7.946671
7.905679
7.865836
7.827099
7.789435
7.75278
7.717064
7.682234
7.648238
7.61501
7.582479
7.550555
7.519126
7.488054
7.457193
7.426439
7.395801
7.365487
7.335852
7.30707
7.279091
7.251806
7.225121
7.198958
7.173252
7.147942
7.122972
7.098292
7.073851
7.049602
7.025498
7.001498
6.977563
6.953651
6.929728
6.905761
6.88172
6.857579
6.833314
6.808905
6.784336
6.759591
6.734663
6.709542
6.68423
6.658723
6.633036
6.607161
6.581149
6.554951
6.528719
6.502155
6.476503
6.451298
6.426418
6.401769
6.37724
6.352734
6.328188
6.303574
6.278887
6.254142
6.22936
6.204566
6.179785
6.155042
6.130361
6.105769
6.08129
6.056948
6.032767
6.008768
5.98497
5.961392
5.93805
5.914959
5.89213
5.869576
5.847306
5.82533
5.803655
5.782288
5.761236
5.740508
5.72011
5.700051
5.68034
5.660989
5.642011
5.62342
5.605236
5.58748
5.570179
5.553361
5.537057
5.521297
5.506102
5.491474
5.477391
5.46382
5.450752
5.438199
5.426176
5.414682
5.40371
5.393277
5.383457
5.374181
5.365357
5.356954
5.348968
5.341388
5.33419
5.327342
5.320807
5.314542
5.308497
5.302617
5.296842
5.291106
5.285341
5.279478
5.273444
5.267163
5.260557
5.25355
5.246063
5.23802
5.229351
5.219987
5.209866
5.198936
5.187149
5.17447
5.160872
5.146337
5.130857
5.114435
5.097084
5.078829
5.059702
5.039745
5.019011
4.997558
4.97545
4.95276
4.929561
4.90593
4.881946
4.857687
4.833229
4.808648
4.784016
4.7594
4.734864
4.710464
4.686254
4.662278
4.638577
4.615183
4.592122
4.569415
4.547075
4.525111
4.503523
4.482309
4.461459
4.440962
4.420798
4.400946
4.381381
4.362075
4.342992
4.324102
4.30536
4.28673
4.268158
4.249604
4.230995
4.212285
4.193373
4.174202
4.154624
4.134571
4.113847
4.092411
4.070083
4.046967
4.022995
3.998715
3.97523
356.8797
238.2548
178.4449
160.1828
128.8894
107.3716
91.09643
84.23878
76.84602
72.25209
68.26128
63.30172
58.51235
54.13642
50.22781
46.13083
40.31068
38.92119
37.90414
37.31882
37.1077
37.13955
37.27107
37.44929
37.66417
37.91525
38.22037
38.58173
38.98053
39.41101
39.87363
40.37147
40.90714
41.48142
42.09388
42.74724
43.4467
44.19783
44.99903
45.84995
46.76083
47.58561
48.09616
48.70727
49.24237
49.64615
49.93193
50.09537
50.13726
50.05927
49.87395
49.59835
49.22987
48.76903
48.22158
47.59896
46.91123
46.17399
45.41151
44.63915
43.87206
43.11807
42.38186
41.66516
40.96944
40.29584
39.64529
39.01895
38.41879
37.84761
37.30794
36.80099
36.32629
35.88163
35.46324
35.06677
34.68697
34.31931
33.95705
33.59653
33.23165
32.85538
32.46157
32.04822
31.61651
31.1701
30.71457
30.25704
29.80551
29.36749
28.94936
28.55598
28.19049
27.85457
27.54848
27.27122
27.0205
26.79304
26.5848
26.39122
26.20788
26.03131
25.85954
25.69225
25.53064
25.37609
25.23304
25.10351
24.98425
24.8697
24.75214
24.62305
24.47468
24.30089
24.09865
23.86809
23.61208
23.33626
23.05019
22.7648
22.48675
22.22781
22.00353
21.83319
21.73831
21.73958
21.85324
22.08643
22.43175
22.86704
23.36087
23.87569
24.36917
24.79785
25.12047
25.3007
25.32203
25.19672
24.95489
24.63169
24.26503
23.89123
23.53346
23.19794
22.88134
22.58621
22.31822
22.08243
21.88152
21.71639
21.5853
21.48268
21.40139
21.33504
21.27762
21.22305
21.16616
21.10318
21.03033
20.94321
20.83796
20.71239
20.56661
20.40185
20.21933
20.01925
19.80009
19.5593
19.29528
19.00866
18.70295
18.38429
18.061
17.74355
17.44257
17.16619
16.92118
16.71342
16.54623
16.42072
16.33674
16.29601
16.30698
16.38149
16.52986
16.76543
17.10822
17.58171
18.21311
19.03582
20.08215
21.3689
22.88012
24.54833
26.26073
27.89412
29.33909
30.50862
31.34295
31.81693
31.92671
31.68929
31.14566
30.35443
29.38696
28.31719
27.2103
26.11637
25.06919
24.08832
23.18251
22.35338
21.59835
20.91276
20.29109
19.72754
19.2164
18.75215
18.3295
17.94335
17.58883
17.26136
16.95679
16.67129
16.40157
16.14446
15.89757
15.65885
15.42676
15.20025
14.97873
14.76163
14.54843
14.33849
14.13152
13.92745
13.72612
13.52726
13.33054
13.1356
12.9421
12.74968
12.55812
12.36725
12.17699
11.98738
11.79853
11.61063
11.424
11.239
11.05606
10.87566
10.69827
10.5244
10.35453
10.18912
10.02857
9.873263
9.72347
9.579426
9.441272
9.309121
9.182966
9.06285
8.948639
8.840253
8.737438
8.639919
8.54739
8.459548
8.376076
8.296662
8.221004
8.148817
8.079829
8.013782
7.950433
7.889551
7.83092
7.774343
7.719644
7.666663
7.615256
7.5653
7.516687
7.469326
7.423143
7.378071
7.334051
7.29103
7.248969
7.207827
7.167564
7.128136
7.089495
7.051587
7.014355
6.977749
6.941745
6.906369
6.871734
6.838015
6.805322
6.773635
6.742873
6.71295
6.683789
6.655319
6.627471
6.600177
6.573371
6.546989
6.520972
6.49526
6.469798
6.444535
6.419422
6.394414
6.369468
6.344546
6.319615
6.294644
6.269606
6.24448
6.219245
6.193886
6.168393
6.142758
6.116977
6.091049
6.064969
6.038756
6.012396
5.985921
5.959291
5.932588
5.905852
5.879117
5.852401
5.825723
5.799101
5.772551
5.746079
5.719693
5.693402
5.66722
5.641158
5.615229
5.589448
5.563826
5.538378
5.513116
5.488054
5.463203
5.438573
5.414175
5.390017
5.366106
5.34245
5.319053
5.29592
5.273055
5.25046
5.228139
5.206093
5.184325
5.162838
5.141635
5.120722
5.100103
5.079786
5.05978
5.040096
5.020749
5.001752
4.983126
4.964888
4.947059
4.929658
4.912697
4.896181
4.880106
4.864462
4.84925
4.834478
4.820159
4.806302
4.792918
4.780022
4.767624
4.755684
4.744161
4.733054
4.722366
4.712092
4.702211
4.6927
4.683536
4.674689
4.666128
4.657814
4.649705
4.641753
4.633908
4.626117
4.618323
4.610466
4.602485
4.594315
4.585893
4.577153
4.568032
4.558468
4.548406
4.537791
4.526577
4.514722
4.502191
4.488959
4.475005
4.460319
4.444898
4.428747
4.41188
4.394321
4.3761
4.357254
4.337829
4.317875
4.297449
4.27661
4.255418
4.233939
4.212234
4.190368
4.168402
4.146395
4.124403
4.102479
4.080671
4.059021
4.037569
4.016347
3.995384
3.9747
3.954313
3.934235
3.914472
3.895025
3.875892
3.857065
3.838533
3.820282
3.802292
3.784543
3.76701
3.749665
3.732478
3.715417
3.698444
3.681522
3.664603
3.647645
3.630586
3.613377
3.59594
3.578222
3.56014
3.541661
3.522719
3.503349
3.483547
3.463523
3.444316
176.2931
131.634
203.0364
102.1681
87.90258
75.9509
72.05144
69.12828
65.87091
64.29947
62.31994
59.57906
56.92512
54.12309
50.9256
45.36313
43.76914
42.28248
40.89092
39.60456
38.38548
37.28014
36.33905
35.57979
35.0021
34.58747
34.24944
33.93061
33.77832
33.80754
33.99917
34.30037
34.65245
35.02925
35.43064
35.8658
36.32104
36.79363
37.28332
37.79197
38.32179
38.8765
39.4612
40.08199
40.7459
41.45783
42.21545
43.02556
43.86623
44.67124
45.45224
46.15695
46.64152
47.07991
47.38266
47.55509
47.60064
47.52224
47.32872
47.03119
46.64374
46.17856
45.64652
45.05513
44.41985
43.75733
43.10044
42.46017
41.85086
41.27357
40.71636
40.17415
39.64353
39.12165
38.60703
38.09913
37.59808
37.10456
36.62088
36.15145
35.7014
35.27481
34.87276
34.49385
34.13481
33.79153
33.45954
33.13475
32.81303
32.48928
32.15702
31.80913
31.44056
31.0505
30.64135
30.21797
29.78803
29.36093
28.94626
28.55272
28.18721
27.85424
27.55578
27.29169
27.05985
26.85633
26.6754
26.51019
26.35348
26.19816
26.03816
25.86973
25.69215
25.50796
25.32469
25.14831
24.98115
24.82405
24.67584
24.5328
24.38883
24.23668
24.06962
23.88272
23.674
23.44443
23.19787
22.94057
22.68161
22.43443
22.21696
22.04658
21.94328
21.93033
22.03164
22.26734
22.64788
23.1663
23.79381
24.48621
25.19909
25.8918
26.52125
27.04596
27.42833
27.63528
27.65869
27.52676
27.27995
26.94744
26.56011
26.16298
25.77348
25.3613
24.91605
24.45629
24.00604
23.58523
23.20374
22.86193
22.55776
22.28737
22.04557
21.82703
21.62487
21.43131
21.24115
21.0522
20.86289
20.67043
20.47155
20.26417
20.04852
19.82646
19.60004
19.37047
19.13752
18.89971
18.65525
18.40347
18.14582
17.88573
17.6278
17.37793
17.14281
16.92776
16.73643
16.57161
16.43397
16.32219
16.23372
16.16722
16.12563
16.11469
16.14175
16.21698
16.35309
16.56539
16.87316
17.30059
17.87396
18.61412
19.5281
20.5982
21.77576
22.98767
24.1518
25.19229
26.05043
26.6871
27.07859
27.21546
27.10277
26.76436
26.23736
25.56829
24.80647
23.99754
23.17896
22.37817
21.61295
20.89324
20.22335
19.60409
19.0342
18.51147
18.03325
17.59679
17.1992
16.83742
16.50818
16.20806
15.93352
15.68096
15.44694
15.22815
15.02168
14.82503
14.63607
14.45317
14.27513
14.10105
13.93034
13.76285
13.59835
13.43645
13.27676
13.11873
12.96177
12.8056
12.64982
12.49399
12.33772
12.18055
12.02212
11.86217
11.70053
11.53719
11.37226
11.20597
11.03865
10.87077
10.70282
10.53542
10.36918
10.20475
10.04276
9.883831
9.72851
9.577309
9.430664
9.288951
9.152448
9.021375
8.895842
8.775889
8.661505
8.5526
8.449011
8.350531
8.256923
8.167924
8.083256
8.002631
7.925759
7.852353
7.782134
7.71483
7.65018
7.587943
7.527896
7.469835
7.413576
7.358955
7.305828
7.254068
7.20357
7.154243
7.106011
7.058811
7.012592
6.967312
6.922936
6.879431
6.836772
6.794931
6.753889
6.713637
6.674186
6.635572
6.597873
6.561184
6.525572
6.491035
6.457525
6.424978
6.393331
6.362519
6.332474
6.303129
6.274414
6.24626
6.218602
6.191372
6.16451
6.137952
6.111645
6.085532
6.059566
6.0337
6.007892
5.982105
5.956307
5.930468
5.904563
5.87857
5.852474
5.826262
5.799922
5.773446
5.746831
5.720077
5.693181
5.666149
5.638981
5.611693
5.584288
5.556766
5.529145
5.501459
5.473747
5.446043
5.418372
5.390753
5.363209
5.33576
5.308426
5.281226
5.254181
5.227307
5.20062
5.174138
5.147873
5.121838
5.096046
5.070504
5.045221
5.020204
4.995458
4.970985
4.946789
4.922871
4.899232
4.875872
4.85279
4.829986
4.80746
4.785214
4.763248
4.741564
4.720169
4.699066
4.678265
4.657775
4.637606
4.617773
4.598288
4.579167
4.560421
4.54206
4.524092
4.506518
4.48934
4.472561
4.45619
4.440237
4.424713
4.409628
4.394986
4.380791
4.367032
4.353697
4.340783
4.328288
4.316203
4.304516
4.293211
4.282273
4.271679
4.261406
4.251424
4.241701
4.232201
4.222882
4.213702
4.204614
4.195569
4.186517
4.177402
4.16817
4.158766
4.149134
4.13922
4.128971
4.118338
4.107276
4.095743
4.083703
4.071126
4.057987
4.04427
4.029962
4.015059
3.999566
3.983492
3.966855
3.949678
3.931994
3.91384
3.895258
3.876293
3.856996
3.837417
3.81761
3.797628
3.777524
3.75735
3.737155
3.716986
3.696887
3.6769
3.657059
3.637397
3.617941
3.598714
3.579734
3.561014
3.542564
3.524388
3.506487
3.488857
3.471491
3.45438
3.437508
3.420861
3.404419
3.38816
3.37206
3.356093
3.340229
3.324438
3.308685
3.292935
3.277145
3.261279
3.245288
3.229136
3.212779
3.196193
3.179352
3.162263
3.144945
3.127495
3.110952
69.3909
53.26237
55.08168
52.75133
51.71096
50.34239
49.21931
48.18317
47.2223
45.70139
42.28247
41.77646
41.24329
40.69696
40.10136
39.45717
38.81756
38.22857
37.70874
37.2439
36.68817
35.88911
35.14048
34.44993
33.83409
33.29749
32.85018
32.50152
32.24991
32.08274
31.98527
31.9476
31.97987
32.09585
32.30444
32.59183
32.92807
33.28322
33.65897
34.05555
34.46557
34.89072
35.33523
35.8019
36.294
36.81535
37.37068
37.96246
38.60011
39.30265
40.06689
40.8486
41.6376
42.43434
43.09902
43.65496
44.08781
44.37439
44.53875
44.56564
44.46064
44.23546
43.90651
43.49429
43.01878
42.50074
41.96097
41.42371
40.91743
40.46982
40.08469
39.76866
39.51384
39.29431
39.08903
38.87974
38.65382
38.40311
38.12327
37.81402
37.47767
37.11748
36.73572
36.33728
35.9305
35.5257
35.13065
34.74908
34.3811
34.02435
33.67568
33.33213
32.99176
32.65296
32.31241
31.96466
31.60418
31.22814
30.83766
30.43713
30.03386
29.63741
29.25835
28.90686
28.59148
28.31773
28.0875
27.89938
27.74917
27.63
27.53253
27.4453
27.35563
27.25123
27.12171
26.96049
26.76632
26.54383
26.30714
26.06867
25.82768
25.58817
25.35477
25.13106
24.91787
24.71275
24.51066
24.30574
24.09302
23.87014
23.63797
23.4009
23.16649
22.94576
22.75389
22.61267
22.55443
22.6038
22.78608
23.12346
23.62937
24.2992
25.09963
25.96926
26.83997
27.66711
28.42505
29.08775
29.63302
30.04203
30.29281
30.38774
30.37456
30.30112
30.17297
29.97721
29.72842
29.39985
28.91789
28.30446
27.61337
26.8842
26.15887
25.48751
24.89564
24.368
23.88869
23.45391
23.06035
22.69781
22.35375
22.02095
21.69807
21.38495
21.07896
20.7762
20.47492
20.17692
19.88594
19.60546
19.33768
19.08305
18.84054
18.6083
18.3847
18.16924
17.96253
17.76592
17.58135
17.41194
17.2598
17.12467
17.00558
16.90114
16.8091
16.72601
16.64875
16.57733
16.51505
16.46783
16.44351
16.45046
16.49791
16.59932
16.77317
17.0395
17.41755
17.92018
18.54912
19.28793
20.10064
20.93611
21.73785
22.45489
23.04603
23.48079
23.73946
23.8131
23.70466
23.42916
23.01229
22.48703
21.88876
21.25071
20.60056
19.959
19.33985
18.75126
18.19728
17.67937
17.19757
16.75122
16.33943
15.96111
15.61501
15.29955
15.01283
14.75255
14.5161
14.30064
14.10325
13.92102
13.75132
13.59166
13.44001
13.2947
13.15449
13.01846
12.88604
12.75684
12.63056
12.50696
12.38591
12.26726
12.15044
12.03483
11.91978
11.8046
11.6886
11.57106
11.45136
11.32901
11.20366
11.07501
10.94296
10.80753
10.6689
10.52736
10.38337
10.23747
10.09028
9.942494
9.794814
9.647949
9.502602
9.359461
9.219164
9.08227
8.949265
8.82055
8.696433
8.577134
8.462781
8.353415
8.249011
8.149482
8.054687
7.964442
7.878526
7.796693
7.718681
7.644218
7.573034
7.504855
7.439417
7.376467
7.315771
7.257108
7.200278
7.145102
7.091419
7.039089
6.987992
6.938025
6.889103
6.841159
6.794138
6.747999
6.702711
6.658253
6.614613
6.571788
6.52979
6.488642
6.448388
6.409085
6.370798
6.333573
6.297424
6.262327
6.228244
6.195126
6.162921
6.13157
6.101009
6.071172
6.041992
6.013398
5.985324
5.957701
5.930463
5.903546
5.876892
5.850442
5.824144
5.797951
5.771817
5.745703
5.719573
5.693395
5.667144
5.640797
5.614336
5.587743
5.561006
5.534116
5.507069
5.479861
5.452491
5.424962
5.397277
5.369436
5.341443
5.313312
5.285071
5.25675
5.228376
5.199974
5.171571
5.14319
5.114859
5.086602
5.058446
5.030413
5.002529
4.974814
4.947289
4.919973
4.892883
4.866035
4.83944
4.813111
4.787056
4.761282
4.735794
4.710595
4.685688
4.661074
4.636752
4.612721
4.588981
4.565529
4.542366
4.51949
4.496902
4.474605
4.452602
4.430898
4.409501
4.388418
4.367659
4.347234
4.327153
4.307426
4.288062
4.269068
4.250448
4.232207
4.214352
4.196889
4.179829
4.163179
4.146949
4.131143
4.115764
4.100813
4.086284
4.072176
4.058483
4.045202
4.032324
4.019838
4.00773
3.995984
3.984581
3.973495
3.962701
3.952168
3.941862
3.931747
3.921784
3.91193
3.902142
3.892373
3.882575
3.872699
3.862697
3.852519
3.842117
3.831446
3.820463
3.809129
3.797407
3.785266
3.77268
3.759627
3.746093
3.732068
3.717548
3.702536
3.687041
3.671079
3.65467
3.637842
3.620628
3.603064
3.585189
3.567047
3.548682
3.530138
3.511462
3.492699
3.473893
3.455087
3.43632
3.41763
3.399051
3.380614
3.362344
3.344264
3.326394
3.308747
3.291334
3.274161
3.257233
3.240547
3.2241
3.207885
3.191892
3.176108
3.160519
3.145107
3.129852
3.114733
3.099726
3.084808
3.069949
3.055123
3.040299
3.025447
3.010537
2.99554
2.980432
2.965194
2.949815
2.93429
2.918646
2.902938
2.888196
106.3046
43.12217
37.84721
36.64839
35.91575
35.5147
35.38885
35.39624
35.49519
35.65871
35.73129
35.53758
35.30601
35.03511
34.73224
34.40185
34.06415
33.73016
33.39388
33.03624
32.63286
32.20227
31.81168
31.46919
31.18556
30.96275
30.79861
30.6922
30.63781
30.62701
30.65379
30.71473
30.81052
30.94109
31.11158
31.31475
31.53689
31.79288
32.08263
32.39938
32.74554
33.12561
33.54431
34.00248
34.50316
35.05153
35.65577
36.30158
37.0057
37.78736
38.61708
39.38225
40.08636
40.70628
41.20525
41.56709
41.78272
41.84226
41.73305
41.47528
41.09802
40.63547
40.12517
39.60409
39.1094
38.67625
38.34709
38.1529
38.0988
38.17803
38.36521
38.61813
38.90115
39.17498
39.40636
39.57175
39.65631
39.65292
39.56045
39.38575
39.14046
38.83225
38.46947
38.06379
37.63153
37.19081
36.75461
36.32897
35.91287
35.50175
35.09092
34.67773
34.26237
33.8457
33.42573
33.00035
32.56969