/*--------------------------------*- C++ -*----------------------------------*\
| =========                 |                                                 |
| \\      /  F ield         | foam-extend: Open Source CFD                    |
|  \\    /   O peration     | Version:     3.1                                |
|   \\  /    A nd           | Web:         http://www.extend-project.de       |
|    \\/     M anipulation  |                                                 |
\*---------------------------------------------------------------------------*/
FoamFile
{
    version     2.0;
    format      ascii;
    class       volScalarField;
    location    "14";
    object      k;
}
// * * * * * * * * * * * * * * * * * * * * * * * * * * * * * * * * * * * * * //

dimensions      [0 2 -2 0 0 0 0];

internalField   nonuniform List<scalar> 
119952
(
0.07209199
0.06775145
0.06640593
0.06482021
0.06325493
0.06196922
0.06170604
0.06202623
0.06272458
0.06368231
0.06481815
0.06606813
0.06737474
0.06868444
0.06995935
0.0711616
0.07225127
0.07319348
0.07399786
0.07488573
0.07701389
0.07452664
0.07365662
0.07464079
0.07013733
0.06678842
0.06353819
0.06031594
0.05614766
0.01581414
0.09631652
0.09255238
0.0899273
0.08858766
0.08825862
0.08864207
0.08944821
0.09045864
0.09153305
0.09267435
0.0891684
0.09022852
0.09346842
0.09753721
0.1016837
0.1055264
0.1089735
0.1120059
0.1146013
0.1269284
0.1282906
0.1291991
0.1296521
0.1298657
0.1299857
0.1300809
0.1301829
0.1302827
0.130305
0.1306961
0.1307072
0.1304552
0.1300688
0.1295863
0.129031
0.1284079
0.1277023
0.1271032
0.1289419
0.1282189
0.1269307
0.1265153
0.1262775
0.1258802
0.1252544
0.1246341
0.1241662
0.1238791
0.1237645
0.1238233
0.1240544
0.1244426
0.1249562
0.1255425
0.1261244
0.1265999
0.126845
0.126753
0.1265505
0.1261861
0.1251888
0.1245376
0.1247315
0.1243013
0.1234695
0.1227735
0.1217213
0.1184006
0.1157072
0.113261
0.1109935
0.1089432
0.1070343
0.105259
0.1036015
0.1020235
0.1004965
0.09900042
0.09753618
0.09612256
0.09478381
0.09353997
0.0924173
0.09142583
0.0905609
0.08982811
0.08923358
0.08878054
0.08847326
0.08831012
0.08823942
0.08819829
0.08813245
0.0880065
0.08778357
0.08740276
0.08683398
0.08606034
0.08503894
0.08380802
0.08291836
0.08333476
0.08537688
0.08830158
0.09128639
0.0937067
0.09514479
0.0954888
0.09487121
0.09347708
0.09158253
0.08948288
0.08735601
0.08530408
0.08340319
0.08170279
0.08022272
0.07906284
0.0782109
0.07733514
0.07653938
0.07534372
0.07256174
0.06705554
0.069881
0.08057101
0.08784578
0.08137547
0.06977758
0.06314982
0.06044112
0.05812159
0.05592573
0.05441837
0.05352602
0.05313085
0.0530519
0.0531109
0.05324462
0.05343897
0.05369158
0.05399318
0.0543217
0.05464845
0.05490616
0.05505975
0.05511854
0.05509718
0.05500882
0.05486465
0.05467376
0.0544433
0.05417886
0.05388497
0.05356533
0.05322303
0.0528611
0.05248272
0.05208944
0.05168183
0.05126015
0.05082509
0.05037691
0.04991899
0.04945404
0.0489862
0.04848892
0.04605623
0.04278735
0.04127785
0.04022742
0.0393621
0.03861547
0.03796616
0.03740097
0.0369072
0.03647365
0.0360905
0.03574845
0.03542382
0.03511678
0.03482801
0.03455093
0.03428131
0.03401522
0.03374864
0.03347754
0.03319821
0.03290766
0.03260379
0.03228551
0.0319528
0.03160632
0.03125347
0.03089608
0.03053324
0.03016872
0.02980831
0.02946001
0.02913493
0.02883941
0.0285727
0.02830699
0.02841584
0.02863637
0.02885842
0.02908181
0.02930154
0.02952161
0.02974693
0.02998181
0.03023186
0.03050285
0.03079922
0.03112317
0.03147424
0.03184844
0.03223695
0.03262459
0.0329885
0.03332733
0.03367853
0.0340209
0.03438376
0.03500516
0.03607251
0.03713108
0.037828
0.03817874
0.038192
0.0380479
0.03768176
0.03678138
0.03527289
0.03336011
0.03126766
0.02921036
0.02958259
0.02817007
0.02695876
0.02592966
0.02518441
0.02477344
0.02474653
0.02514775
0.02600801
0.02732929
0.02906856
0.03115017
0.03348373
0.03598259
0.03857841
0.04122807
0.04391346
0.04663498
0.04941809
0.05232494
0.05537624
0.0585121
0.06169536
0.0648971
0.06807932
0.07119169
0.07417392
0.0769648
0.07951809
0.08181708
0.08387594
0.08570852
0.08728062
0.08849752
0.08926615
0.08954467
0.08929925
0.0884986
0.08711856
0.08512243
0.08246083
0.07913116
0.07520911
0.07085708
0.06630017
0.06179823
0.05756104
0.05377299
0.05053892
0.04783928
0.04562118
0.04381508
0.04234084
0.04115883
0.04033214
0.03941057
0.03853086
0.0376876
0.03684032
0.03596818
0.03506523
0.03414267
0.03321485
0.032296
0.03140031
0.03053874
0.02971742
0.02894596
0.02823107
0.02757684
0.02698843
0.02646499
0.02600184
0.02559591
0.02524334
0.02493873
0.02467724
0.02445452
0.02426695
0.02411111
0.02398388
0.02388238
0.02380399
0.02374633
0.02370723
0.02368465
0.02367667
0.02368145
0.02369722
0.0237223
0.02375505
0.02379391
0.02383736
0.02388393
0.02393225
0.02398105
0.02402912
0.02407539
0.02411891
0.02415889
0.02419471
0.02422591
0.02425204
0.02427239
0.02428688
0.02429735
0.02430505
0.02431059
0.02431495
0.02432014
0.02432977
0.02435003
0.02438727
0.02444531
0.02452879
0.02464318
0.02479402
0.02498342
0.02521053
0.02547793
0.02579183
0.02615575
0.02656251
0.02699157
0.02740831
0.02778006
0.02808733
0.02831263
0.02843463
0.02843391
0.02830107
0.02803151
0.02762087
0.02707475
0.02641264
0.02563565
0.02475643
0.02382263
0.02341343
0.09066354
0.08840627
0.09681357
0.1059848
0.1135643
0.1195358
0.1242944
0.1281759
0.1315583
0.1356856
0.1475855
0.1600489
0.171034
0.1801346
0.1873524
0.1929528
0.1972506
0.2005725
0.2272527
0.2272997
0.2271513
0.2265965
0.2258748
0.2251827
0.2245752
0.224031
0.2235108
0.2228529
0.2223652
0.2216248
0.220468
0.2191225
0.217728
0.2163511
0.2150204
0.2137375
0.2124858
0.2114591
0.2104552
0.2091457
0.2077216
0.2062813
0.2048361
0.2033953
0.2019717
0.2005785
0.1992466
0.1980285
0.1968349
0.1957324
0.1947061
0.1937175
0.1927454
0.1917887
0.1908546
0.1899726
0.1998831
0.1988543
0.1978482
0.1968813
0.1959169
0.1949209
0.1938699
0.1927535
0.1915668
0.1902816
0.1889293
0.1875585
0.1861553
0.1846872
0.1831645
0.1815584
0.1799195
0.1783138
0.1769298
0.1755115
0.1736598
0.1718591
0.1703318
0.1688693
0.167376
0.16594
0.1646356
0.1634996
0.1625784
0.1619102
0.1615201
0.16142
0.1616075
0.1620554
0.1627041
0.1634491
0.1641649
0.1647238
0.1650626
0.1651679
0.1649725
0.164646
0.1644366
0.1640877
0.1632637
0.1619441
0.1601057
0.157445
0.1542653
0.1512758
0.1484752
0.1457492
0.1430658
0.1404262
0.1378478
0.1353536
0.1329595
0.1306736
0.1285002
0.1264423
0.1245041
0.1226918
0.1210153
0.1194875
0.1181215
0.1169313
0.1159323
0.1151386
0.1145614
0.1142112
0.114095
0.1141868
0.1144456
0.1148161
0.1152232
0.1155698
0.1157631
0.1157383
0.1153695
0.1145231
0.1131727
0.1114918
0.1097735
0.1082741
0.1071537
0.1064998
0.1063296
0.1065688
0.107076
0.107669
0.1081667
0.1084228
0.1083783
0.1080422
0.1074932
0.1068439
0.106228
0.1058465
0.1058046
0.1060513
0.1065805
0.1072694
0.107403
0.1060489
0.1035141
0.1015081
0.1016203
0.1046286
0.1101875
0.1178758
0.1265962
0.1316608
0.1299095
0.1233413
0.1151956
0.1081795
0.1034297
0.1004621
0.09836278
0.09669562
0.09536355
0.0943197
0.09351922
0.09290574
0.09243964
0.09204369
0.09157951
0.09103342
0.09042506
0.08977935
0.08911857
0.08845915
0.08781037
0.08717576
0.08655501
0.08594581
0.0853451
0.08474971
0.08415618
0.08356071
0.0829591
0.082348
0.08172393
0.08108797
0.08043517
0.07977665
0.07909498
0.07847193
0.07564178
0.07330096
0.07200002
0.07108479
0.07030629
0.06958271
0.06888995
0.06822302
0.06758223
0.06696863
0.06638316
0.06582668
0.06529836
0.06479562
0.06431548
0.06385348
0.06340414
0.0629614
0.06251887
0.06206995
0.06160817
0.06112736
0.060622
0.06008747
0.05952029
0.05891836
0.05828069
0.05760825
0.05690378
0.05617172
0.05541791
0.05464914
0.05387251
0.05309494
0.05232297
0.05157423
0.05090059
0.05031461
0.04980465
0.04937293
0.04902465
0.04876486
0.04859785
0.04852718
0.0485557
0.04868483
0.04891377
0.04923926
0.04965528
0.05015244
0.05071701
0.05132948
0.05196126
0.05256949
0.05310294
0.05351244
0.0537472
0.05376843
0.05358671
0.05321452
0.05261844
0.05184578
0.05097923
0.05017875
0.04962802
0.04941395
0.04945232
0.04949273
0.04920153
0.04837573
0.0496296
0.04820841
0.04680643
0.0455827
0.04466147
0.04416703
0.0441948
0.04479577
0.04597319
0.04768422
0.04985122
0.05237621
0.05515382
0.05808352
0.06108122
0.06408826
0.06707556
0.07004195
0.07300725
0.07600176
0.0790671
0.08225129
0.0855546
0.08896517
0.09245058
0.09595309
0.09939167
0.1026745
0.1057216
0.1084964
0.1110235
0.1133137
0.1153208
0.1169218
0.1179581
0.1183484
0.1180389
0.1170127
0.1152824
0.1128742
0.1097838
0.1060411
0.101688
0.09684951
0.09170968
0.08649681
0.08142833
0.07665661
0.07229577
0.06836267
0.06482878
0.0616515
0.05878312
0.05618188
0.05381859
0.05166161
0.04967754
0.04784996
0.04616766
0.04461762
0.04318504
0.04185681
0.04062199
0.039471
0.03839604
0.03739148
0.03645345
0.03557924
0.03476682
0.0340144
0.03332024
0.03268244
0.03209835
0.03156493
0.0310822
0.03065097
0.03027235
0.02994393
0.02966145
0.0294209
0.02921863
0.02905118
0.02891523
0.02880766
0.02872552
0.02866605
0.02862665
0.02860483
0.02859823
0.02860457
0.0286217
0.02864753
0.02868009
0.02871746
0.02875781
0.02879938
0.02884044
0.02887933
0.02891446
0.02894426
0.02896716
0.02898148
0.02898548
0.02897746
0.02895607
0.02892015
0.02886851
0.02879988
0.02871305
0.02860703
0.02848115
0.02833558
0.02817361
0.02799997
0.02781686
0.02762736
0.02743477
0.0272438
0.02706109
0.02689761
0.02676662
0.02668535
0.02666941
0.02673612
0.02689446
0.02715361
0.02750687
0.02795065
0.02845442
0.02899696
0.02953014
0.03003988
0.03047438
0.03082093
0.03101494
0.03107715
0.03096458
0.03078832
0.03047915
0.05356379
0.05781101
0.06275692
0.06817993
0.07412333
0.08067884
0.088018
0.09639108
0.1061559
0.1171251
0.1699553
0.1861848
0.2023164
0.2184828
0.2348128
0.251015
0.2671478
0.2849975
0.3140667
0.3719137
0.3834385
0.3938557
0.403125
0.4113051
0.4184363
0.4242544
0.4288289
0.4324319
0.4360959
0.4400321
0.443744
0.4458933
0.4464965
0.4458983
0.4443714
0.4420949
0.4392169
0.4362002
0.4303195
0.4251728
0.4204648
0.4160233
0.4117311
0.4074917
0.4032391
0.3989174
0.3945188
0.3900929
0.3854528
0.3807161
0.3758844
0.3710106
0.3661577
0.3613724
0.3566755
0.3520359
0.361604
0.3571987
0.3526623
0.348095
0.3435422
0.3390129
0.3345293
0.3301061
0.3257684
0.3215098
0.3172899
0.3131432
0.3091024
0.3051539
0.3012982
0.2975386
0.2938677
0.2902835
0.2867938
0.2833723
0.2800275
0.2768223
0.2737543
0.2707894
0.2678919
0.2650286
0.2621806
0.2593449
0.2565291
0.2537829
0.2511547
0.2486544
0.2462825
0.2440271
0.2418705
0.2397986
0.2378134
0.235889
0.2339735
0.232189
0.2305371
0.2289857
0.2274949
0.2260289
0.2245572
0.2230546
0.2214989
0.2198817
0.218224
0.2165352
0.2148098
0.2130411
0.2112225
0.2093422
0.2074019
0.2054145
0.2033993
0.2013053
0.1990935
0.1968303
0.1946064
0.1924634
0.1903723
0.1883526
0.1864782
0.1848258
0.1834517
0.1824065
0.1817347
0.1814703
0.1816296
0.1822001
0.1831212
0.1842717
0.1854835
0.186589
0.1874628
0.1880526
0.1883367
0.1883604
0.1881977
0.187768
0.1869275
0.1855602
0.1836277
0.1810407
0.1779866
0.1747865
0.1715353
0.1682372
0.1649047
0.1615603
0.1582432
0.1549983
0.1518645
0.1488698
0.1460316
0.1433591
0.1408563
0.1385262
0.1363738
0.1344076
0.1326398
0.1310871
0.129769
0.1287059
0.1279147
0.1274053
0.1272023
0.127295
0.1276551
0.1282354
0.128966
0.1297492
0.1304576
0.130938
0.13108
0.1307448
0.129839
0.1283967
0.1265555
0.1244794
0.1223185
0.1202112
0.1182785
0.1166104
0.1152582
0.1142241
0.1134704
0.112936
0.1125541
0.1122833
0.1121218
0.1121
0.1122965
0.1128329
0.1137802
0.1151207
0.1168534
0.1188342
0.1206851
0.1218329
0.1219303
0.121401
0.1209877
0.1206388
0.1209604
0.1240658
0.1307998
0.1397745
0.149306
0.156404
0.1580285
0.1545333
0.1485446
0.1422886
0.1367462
0.1322349
0.1286901
0.1258259
0.1233605
0.1210813
0.1189562
0.1170563
0.1152376
0.1134312
0.1116497
0.1099237
0.1082841
0.10676
0.1053634
0.1040937
0.1029423
0.1018964
0.1009419
0.100064
0.09924778
0.09847859
0.09774217
0.09702603
0.09631855
0.09561231
0.09489674
0.09416934
0.09340978
0.09261804
0.09180817
0.09103869
0.09028087
0.08949987
0.08869505
0.08787683
0.08705558
0.08623974
0.08543599
0.08465007
0.08388765
0.08315357
0.08245114
0.08178171
0.08114467
0.08053742
0.07995575
0.07939408
0.0788458
0.07830349
0.07775924
0.077205
0.07663289
0.07603559
0.07540681
0.07474142
0.07403583
0.07328821
0.07249861
0.07166893
0.07080275
0.06990506
0.06898202
0.06804209
0.0670983
0.06617308
0.06529137
0.06446437
0.0636984
0.06300248
0.06238576
0.06185709
0.06142495
0.0610979
0.06088462
0.06079296
0.06082901
0.06099671
0.06129716
0.06172761
0.06228007
0.06293904
0.06367871
0.06446122
0.06523761
0.06594974
0.06653593
0.0669437
0.06713478
0.06707312
0.06671963
0.06606303
0.06516424
0.06408617
0.06293213
0.06184811
0.06098105
0.06045388
0.06024803
0.06021098
0.06001961
0.05956764
0.058827
0.05787848
0.05687612
0.05606223
0.05563914
0.05575232
0.05647498
0.0578027
0.05966638
0.06195503
0.06453923
0.06729115
0.07010096
0.07288877
0.07561058
0.07825801
0.08085274
0.08343654
0.08605739
0.08877973
0.09165086
0.09469062
0.0978891
0.1012024
0.1045535
0.1078397
0.1109538
0.1138284
0.1164767
0.1189131
0.1210948
0.1229322
0.1242764
0.124995
0.1250165
0.1243128
0.1228892
0.1207878
0.1180808
0.1148119
0.1109643
0.1065745
0.1017532
0.09670176
0.09166623
0.0868557
0.08238081
0.078288
0.07455575
0.07114229
0.06800014
0.0650885
0.0623749
0.05983125
0.05744209
0.05519979
0.05310017
0.05113965
0.04931415
0.04761897
0.0460484
0.04459579
0.04325398
0.04201589
0.04087501
0.03982545
0.038862
0.03797997
0.03717501
0.03644283
0.03577927
0.03518048
0.03464234
0.03416016
0.03372893
0.03334724
0.03301575
0.03273208
0.03249191
0.03229126
0.03212651
0.03199425
0.0318913
0.03181466
0.03176149
0.03172907
0.0317148
0.03171618
0.03173083
0.03175647
0.03179093
0.03183213
0.03187808
0.03192688
0.03197668
0.03202568
0.03207214
0.03211436
0.03215057
0.03217895
0.03219756
0.03220446
0.03219786
0.0321761
0.03213754
0.03208061
0.03200382
0.03190586
0.0317856
0.0316419
0.03147336
0.03128181
0.03106902
0.03083531
0.03058124
0.03030791
0.03001779
0.02971556
0.02940831
0.02910606
0.02882077
0.02856718
0.02835934
0.02821322
0.02814012
0.0281542
0.02825911
0.02846538
0.02876486
0.02916292
0.02963159
0.03016351
0.030704
0.03123219
0.0316941
0.03210236
0.03238619
0.03873235
0.04379968
0.04831697
0.07396033
0.1002755
0.1330017
0.1553648
0.1779039
0.1994104
0.2195041
0.2369915
0.2521398
0.2669391
0.2821387
0.2974906
0.3130991
0.3290014
0.3451338
0.3614094
0.3774273
0.3927971
0.4075893
0.4218195
0.4357455
0.4493803
0.462693
0.4756432
0.4882155
0.5004058
0.5122369
0.5244083
0.5597829
0.5660023
0.5718515
0.5765439
0.5796625
0.5811329
0.5811679
0.5799508
0.5777861
0.5750432
0.5715673
0.5674453
0.5627591
0.5575668
0.5519387
0.5459526
0.5396845
0.5332028
0.5265568
0.5197586
0.5129035
0.5059948
0.499072
0.4921803
0.4853454
0.478499
0.4716523
0.4648598
0.4581068
0.4513616
0.4446137
0.4378584
0.4311217
0.4244626
0.4179214
0.4115763
0.405382
0.3988964
0.3926975
0.3867486
0.3809825
0.3753608
0.3698774
0.364546
0.3593808
0.35438
0.3495225
0.3447786
0.3401375
0.3355963
0.331163
0.3268543
0.3226762
0.3186139
0.3146428
0.3107468
0.3069305
0.3032225
0.2996598
0.2962606
0.293014
0.2898799
0.2868031
0.2837305
0.2806332
0.2775257
0.2744611
0.2715069
0.2687134
0.2660984
0.263641
0.2613111
0.259075
0.2569357
0.2548898
0.2529655
0.2511946
0.2495836
0.2481066
0.2467261
0.2453986
0.2440776
0.2427161
0.2412783
0.2397496
0.2381392
0.2364674
0.2347555
0.2330106
0.2312198
0.2293513
0.2273651
0.2252356
0.2229765
0.2205992
0.2180851
0.2154617
0.2128166
0.2102139
0.2076825
0.2052601
0.2030093
0.2010104
0.1993652
0.19816
0.1974704
0.1973528
0.197846
0.1989512
0.2005945
0.2026017
0.2047219
0.2066984
0.2083401
0.2095534
0.2103223
0.210695
0.2107016
0.210323
0.2094978
0.2081449
0.2062201
0.2037047
0.2006736
0.1972833
0.193666
0.1898862
0.1859753
0.1819709
0.1779305
0.1739224
0.1700107
0.1662461
0.1626623
0.1592784
0.1561029
0.1531389
0.1503895
0.1478616
0.1455677
0.1435276
0.1417667
0.1403145
0.1392014
0.138454
0.1381027
0.1381559
0.1385921
0.139363
0.1403918
0.1415721
0.1427678
0.1438147
0.1445294
0.1447874
0.1444567
0.1434889
0.1419333
0.139892
0.1374873
0.1348555
0.1321409
0.1294791
0.1269849
0.1247399
0.1227936
0.1211705
0.1198721
0.1188988
0.11827
0.1180118
0.11818
0.1188851
0.1202035
0.1221323
0.1246563
0.1276829
0.1309743
0.1340452
0.1365175
0.1383484
0.1395018
0.1397793
0.139344
0.1389532
0.1396969
0.1432343
0.1503681
0.1598336
0.1696333
0.1778492
0.1828265
0.1838131
0.1814086
0.1769262
0.171543
0.1659844
0.1605257
0.1551112
0.1498484
0.1449239
0.1405182
0.1364328
0.1326017
0.1290256
0.1257215
0.1227237
0.1200446
0.1176771
0.1156023
0.1137944
0.1122241
0.1108603
0.1096713
0.108625
0.107691
0.1068409
0.1060493
0.1052948
0.1045578
0.1038234
0.1030766
0.1023158
0.1015413
0.100739
0.09990944
0.09905359
0.09817094
0.09726862
0.0963543
0.09543511
0.09451711
0.09360594
0.09271201
0.09184529
0.09101327
0.09022076
0.08946993
0.08876049
0.08809011
0.08745452
0.08684772
0.08626234
0.08568984
0.08512087
0.08454579
0.08395498
0.08333937
0.08269077
0.08200247
0.08126939
0.08048839
0.07965839
0.07878042
0.07785757
0.07689537
0.07590232
0.07489106
0.07387898
0.0728859
0.07192707
0.07101351
0.07015613
0.06936697
0.0686583
0.06804233
0.06753185
0.06714046
0.06688183
0.06676845
0.06681091
0.06701696
0.06739022
0.06792817
0.06862013
0.06944455
0.07036736
0.07134163
0.07230897
0.07320524
0.07396904
0.07454462
0.07487946
0.07492424
0.07463224
0.07398742
0.07302796
0.07179296
0.07036559
0.06888416
0.06753524
0.06650151
0.06590775
0.06574823
0.06580085
0.06580087
0.06562695
0.06528079
0.06487147
0.06455469
0.06452577
0.06493903
0.06587373
0.06732303
0.06920897
0.07141162
0.0737967
0.07623918
0.07864118
0.08094255
0.08312435
0.08520598
0.0872359
0.08927789
0.0914016
0.09368324
0.09617312
0.09888896
0.1018118
0.1048806
0.1079946
0.1110351
0.1139004
0.1165346
0.1189287
0.1210798
0.1229365
0.1244003
0.1253678
0.1257572
0.1255141
0.1246198
0.1231026
0.1210236
0.1184237
0.1152917
0.1116019
0.1073675
0.1027282
0.09795186
0.09331323
0.08897094
0.08497315
0.08129905
0.07790636
0.07474775
0.07178114
0.06897426
0.06630482
0.06376084
0.06133762
0.0590349
0.05685452
0.05479858
0.0528683
0.05106348
0.04938228
0.04782137
0.04637631
0.04504214
0.04381377
0.04268614
0.04165435
0.0407136
0.03985916
0.03908631
0.03839029
0.0377662
0.03720905
0.0367137
0.03627507
0.03588821
0.03555171
0.03526481
0.03502328
0.03482309
0.03466055
0.03453219
0.03443472
0.03436503
0.03432011
0.0342971
0.03429323
0.03430585
0.03433242
0.03437055
0.03441796
0.03447246
0.03453198
0.03459452
0.03465813
0.03472097
0.03478118
0.03483689
0.03488611
0.03492675
0.03495665
0.03497371
0.0349759
0.03496132
0.03492825
0.03487512
0.03480052
0.03470313
0.03458161
0.03443457
0.0342608
0.03406162
0.03383629
0.03358404
0.03330425
0.03299708
0.03266375
0.03230705
0.03193141
0.03154348
0.0311519
0.03076723
0.03040176
0.03006874
0.02978276
0.02955802
0.02940909
0.02934914
0.02938803
0.02953585
0.02979021
0.03015525
0.03060828
0.0311483
0.03173141
0.03231251
0.01839393
0.02056998
0.02268282
0.03028242
0.04049207
0.05778332
0.07019584
0.08354516
0.09808867
0.1130334
0.1286521
0.1459994
0.1647556
0.1841766
0.2046549
0.2279108
0.2636313
0.2806693
0.2980674
0.3155983
0.3335164
0.3510818
0.3678642
0.3840035
0.3997164
0.4152665
0.4308696
0.4463731
0.461512
0.4764832
0.4912241
0.5056719
0.5197438
0.5333264
0.5462088
0.5583082
0.5695888
0.5800149
0.58966
0.5985536
0.606764
0.6124284
0.613121
0.6148357
0.6150936
0.6139793
0.6114951
0.6077058
0.6027108
0.5966656
0.5898079
0.5824267
0.574604
0.5664304
0.5580329
0.5495374
0.5410499
0.5326561
0.5244195
0.5163836
0.5085693
0.5009623
0.4935704
0.4863764
0.4793659
0.4725352
0.4658917
0.4594335
0.4531678
0.4470913
0.4411902
0.4352553
0.429269
0.4232454
0.4172176
0.4112494
0.4054079
0.3997721
0.3943575
0.3891268
0.3840939
0.3792386
0.3744915
0.369809
0.3651948
0.3606832
0.3563132
0.3520996
0.3480249
0.3440469
0.3401254
0.3362517
0.332454
0.3287698
0.3252136
0.3217607
0.3183608
0.3149777
0.3116183
0.3083263
0.3051643
0.3021854
0.299395
0.2967409
0.2941385
0.2914989
0.2887666
0.2859504
0.2831244
0.2803981
0.2778657
0.2755594
0.2734453
0.2714664
0.2695775
0.2677712
0.2660693
0.2645057
0.2631101
0.2618926
0.2608328
0.2598861
0.2589931
0.2580852
0.2570903
0.2559501
0.2546401
0.2531773
0.2516045
0.2499689
0.2482954
0.2465736
0.244759
0.2427993
0.2406651
0.2382986
0.2357032
0.2329272
0.2300455
0.2271404
0.2242769
0.2215049
0.2188833
0.2164876
0.2144167
0.2128226
0.211852
0.2116287
0.2122462
0.2137775
0.2162317
0.2194742
0.2231892
0.2269472
0.2303386
0.2330903
0.2350907
0.2363373
0.2369408
0.2369419
0.2363461
0.23516
0.2333666
0.2309518
0.227927
0.2243596
0.2203681
0.2160701
0.211539
0.2068185
0.2019594
0.1970355
0.1921352
0.1873442
0.1827317
0.1783449
0.1742098
0.1703359
0.1667238
0.1633725
0.1602847
0.1574718
0.154956
0.1527692
0.1509517
0.1495495
0.1486105
0.1481863
0.1482999
0.148932
0.1500224
0.1514703
0.1531397
0.1548649
0.1564581
0.1577226
0.1584891
0.1586478
0.158099
0.1568356
0.1549212
0.1524645
0.1496038
0.1464936
0.1432873
0.1401257
0.1371251
0.1343759
0.1319463
0.1298821
0.1282216
0.1270113
0.1262998
0.126157
0.1266903
0.1279817
0.1300662
0.1329802
0.1366854
0.1409377
0.1453423
0.1495409
0.1532482
0.1562543
0.1582065
0.1587729
0.1578497
0.1562294
0.1554387
0.156603
0.160239
0.1666613
0.1751416
0.1843862
0.1929238
0.1995908
0.203603
0.2045789
0.2026136
0.1982171
0.1920734
0.1848029
0.176892
0.169062
0.1618022
0.155079
0.1488911
0.1432546
0.1381789
0.1336642
0.1296955
0.1262448
0.1232744
0.120741
0.1185969
0.116792
0.1152744
0.1139926
0.1128979
0.1119453
0.1110954
0.1103134
0.1095704
0.1088425
0.1081139
0.1073719
0.106597
0.1057853
0.1049388
0.1040599
0.1031506
0.1022151
0.1012596
0.1002904
0.099311
0.09833561
0.09738027
0.09645764
0.09557667
0.09474308
0.09395978
0.09322703
0.09254266
0.09190217
0.09129895
0.09072448
0.09016879
0.08962082
0.08906902
0.08850184
0.08790826
0.0872784
0.08660395
0.08587857
0.08509813
0.08426101
0.0833683
0.08242398
0.08143529
0.08041308
0.07937165
0.07832763
0.07729672
0.0762924
0.07532792
0.07441784
0.07357788
0.0728241
0.07217375
0.07164633
0.07126226
0.07104102
0.07100032
0.07115482
0.07151434
0.07208163
0.07284999
0.07380022
0.07489949
0.07610057
0.07734338
0.07855885
0.07967699
0.08062724
0.08134128
0.08176076
0.08183964
0.08153109
0.08083887
0.07977185
0.07835539
0.0766666
0.07485522
0.07313537
0.07174033
0.07084185
0.07048224
0.07055157
0.07078567
0.07097458
0.07104843
0.07106582
0.07115613
0.07145289
0.07209232
0.073146
0.07459709
0.07636173
0.07831961
0.08034336
0.08232288
0.08418182
0.08588593
0.08744441
0.08890342
0.09033379
0.09181708
0.09344213
0.09528439
0.09738839
0.09976402
0.1023828
0.1051709
0.1080114
0.1107495
0.1132515
0.1155073
0.1175325
0.1193267
0.1208567
0.122053
0.1228212
0.1230723
0.1227529
0.1218692
0.1204522
0.1185587
0.116207
0.1133505
0.1099123
0.1059104
0.1015838
0.09726398
0.09317565
0.08939496
0.08590727
0.08266517
0.07961887
0.07672376
0.07394991
0.07128077
0.06870786
0.06622904
0.06384684
0.06156629
0.05939307
0.05733221
0.05538731
0.05356024
0.05185102
0.05025816
0.04877903
0.04741028
0.04614815
0.04498857
0.04392733
0.04296002
0.0420821
0.04128885
0.04057545
0.03993692
0.03936829
0.03886457
0.03842071
0.03803175
0.0376945
0.03740829
0.03716909
0.03697299
0.03681634
0.03669561
0.03660747
0.03654866
0.03651604
0.03650658
0.03651733
0.03654551
0.03658845
0.03664364
0.03670867
0.03678126
0.03685921
0.03694043
0.03702288
0.03710457
0.03718347
0.03725745
0.0373242
0.0373813
0.03742627
0.03745672
0.03747047
0.03746561
0.03744051
0.03739373
0.03732394
0.03722984
0.03711002
0.03696292
0.0367884
0.03658555
0.03635304
0.03608963
0.03579455
0.03546747
0.03510913
0.03472122
0.03430721
0.03387183
0.03342195
0.03296541
0.03251256
0.0320739
0.03166317
0.03129216
0.03097769
0.03073079
0.03057006
0.03050225
0.03054449
0.03069245
0.03096067
0.0313295
0.03177957
0.007477619
0.008769185
0.009757619
0.01452927
0.02007847
0.02740199
0.03354748
0.04058256
0.04828306
0.05659517
0.06582539
0.07679761
0.0889912
0.1027729
0.1194515
0.1452403
0.1593208
0.1743038
0.189692
0.2054323
0.2214363
0.2375499
0.2536133
0.2694867
0.2850237
0.3001006
0.314925
0.3312659
0.3479638
0.3650176
0.3825422
0.4000192
0.4170374
0.4335259
0.4495696
0.465201
0.4801929
0.4945714
0.5085361
0.5221071
0.5352555
0.5479049
0.5599402
0.5712087
0.5815624
0.5908768
0.5990964
0.6060391
0.6117742
0.6162233
0.6193883
0.6195567
0.6168798
0.6130763
0.6075597
0.6004273
0.5919032
0.5821901
0.571547
0.5602635
0.5486137
0.5368402
0.5251277
0.5136109
0.5024042
0.4916114
0.48132
0.4715974
0.4624822
0.4539892
0.4460954
0.4387445
0.431869
0.4254031
0.4193026
0.4135313
0.4081579
0.4031864
0.398593
0.3943041
0.3901172
0.3859931
0.3818752
0.3777306
0.3735674
0.3694358
0.3654149
0.3615946
0.3580425
0.3547671
0.35172
0.3488135
0.3459504
0.3430705
0.3401723
0.3373036
0.3345303
0.3318914
0.3293709
0.3269069
0.3244357
0.321944
0.3194788
0.3171047
0.3148509
0.3126852
0.3105273
0.3083105
0.3060351
0.3037672
0.3016096
0.2996507
0.2979013
0.2962847
0.2946819
0.2929653
0.2910597
0.288993
0.2868813
0.2848906
0.2831575
0.281713
0.2804887
0.2793904
0.2783589
0.2773898
0.2765205
0.2757989
0.2752603
0.274911
0.2747135
0.2745955
0.274459
0.2741847
0.2736525
0.2727843
0.271576
0.2700823
0.2683874
0.2665742
0.264696
0.2627622
0.2607503
0.258624
0.2562414
0.2535653
0.2506256
0.2475072
0.2443182
0.2411581
0.2381031
0.2352167
0.2325775
0.2302888
0.2284963
0.2274275
0.2273461
0.2284527
0.2309234
0.2348969
0.2403459
0.2469342
0.2540063
0.2607885
0.2666418
0.2712173
0.2744265
0.2762764
0.276961
0.2765613
0.2750944
0.272626
0.2692163
0.2649474
0.259927
0.2543833
0.2484983
0.2424034
0.2361802
0.2298737
0.2235306
0.2172217
0.2110361
0.2050633
0.1993761
0.194022
0.1890224
0.1843789
0.1800819
0.17612
0.1724881
0.1691942
0.166262
0.1637318
0.161659
0.1601116
0.1591683
0.1589174
0.1593944
0.1605694
0.1623462
0.1645659
0.1670238
0.1694857
0.1717079
0.1734652
0.1745802
0.174991
0.1745959
0.1733712
0.1713766
0.1687295
0.1655816
0.1621003
0.1584519
0.1547906
0.1512481
0.1479325
0.1449318
0.1423165
0.1401489
0.1384946
0.1374255
0.1370284
0.137411
0.1386651
0.1408392
0.1439522
0.1479658
0.1527243
0.1579496
0.1632459
0.1682484
0.1726583
0.1759932
0.1777502
0.1776742
0.175979
0.1732434
0.1703935
0.1685845
0.1688577
0.1716338
0.1767894
0.1835586
0.1909576
0.1981858
0.2043596
0.2087514
0.2108463
0.210381
0.2073472
0.2019991
0.1947193
0.1862207
0.1774961
0.1690257
0.1610466
0.1536977
0.1470545
0.1411459
0.1359664
0.1314879
0.1276683
0.1244545
0.1217831
0.1195831
0.1177808
0.1163034
0.115083
0.114058
0.1131739
0.1123845
0.1116509
0.1109416
0.1102315
0.1094997
0.1087332
0.1079253
0.1070737
0.1061792
0.1052453
0.1042782
0.103286
0.1022779
0.1012645
0.1002637
0.0992908
0.098358
0.09747453
0.09664672
0.09587798
0.09516882
0.0945168
0.09391671
0.09336073
0.09283879
0.09233907
0.09184863
0.09135395
0.09084161
0.09029903
0.08971503
0.08908038
0.08838816
0.08763416
0.08681721
0.08593935
0.08500596
0.08402592
0.08301115
0.08197583
0.08093474
0.07990251
0.07889447
0.07792755
0.07702034
0.07619292
0.07546785
0.0748706
0.07442816
0.07416761
0.0741144
0.07429035
0.07471139
0.07538487
0.07630585
0.07745383
0.07879522
0.08028014
0.08184441
0.08341357
0.08490565
0.08623182
0.08730445
0.0880521
0.08842883
0.08840008
0.08793966
0.08705388
0.08573169
0.0839997
0.08195996
0.07980013
0.07777017
0.07611253
0.07499814
0.07448277
0.07448298
0.07478242
0.0751265
0.0754249
0.07569165
0.07601761
0.07650883
0.07727814
0.07836608
0.07973556
0.08129385
0.08292293
0.0845082
0.08596062
0.08723058
0.08831387
0.08924934
0.09010921
0.09098587
0.09197733
0.09317928
0.09465971
0.09645266
0.0985662
0.1009572
0.1035211
0.1060779
0.1084575
0.1106469
0.1126581
0.1145056
0.1161828
0.1176346
0.1187627
0.1194574
0.1196271
0.1192152
0.1182491
0.1168466
0.1150853
0.1129522
0.1103437
0.1071462
0.1034405
0.0995602
0.09580598
0.0922945
0.08903487
0.08598774
0.08309804
0.08032413
0.07764183
0.0750385
0.07250788
0.07004802
0.06766415
0.06536327
0.06315287
0.06103997
0.05903032
0.05712803
0.05533545
0.05365333
0.05208106
0.05061708
0.04925909
0.04800434
0.04684965
0.04579152
0.04482617
0.04394951
0.04315724
0.04244488
0.0418078
0.04124132
0.04074071
0.04030131
0.03991857
0.03958966
0.03931305
0.03908479
0.03890112
0.03875842
0.03865315
0.03858187
0.03854119
0.0385278
0.03853852
0.03857027
0.03862014
0.03868537
0.03876332
0.03885148
0.03894745
0.0390489
0.03915362
0.03925942
0.03936409
0.03946529
0.03956044
0.03964678
0.03972141
0.03978152
0.03982461
0.03984862
0.03985185
0.03983286
0.03979034
0.03972301
0.03962956
0.03950858
0.03935903
0.03917986
0.03896959
0.03872685
0.03845053
0.03813986
0.03779474
0.03741576
0.03700484
0.03656483
0.03610027
0.03561635
0.03512035
0.03461945
0.03412347
0.03364095
0.03318425
0.03276323
0.03239287
0.03208342
0.03185207
0.0317054
0.03166158
0.03172076
0.03187978
0.001716764
0.00680578
0.01022267
0.01423773
0.01878708
0.02406476
0.03016537
0.03696669
0.04466958
0.0540289
0.06818659
0.07689484
0.08643084
0.09658045
0.1073891
0.1188085
0.1307945
0.1432533
0.1560231
0.1689795
0.1820907
0.1970145
0.2123317
0.227853
0.2434657
0.2590496
0.274495
0.2897282
0.3047354
0.3195572
0.3341982
0.3489352
0.364314
0.3801021
0.3963707
0.4128852
0.4292344
0.4450453
0.4601395
0.4744397
0.487841
0.5005389
0.5127742
0.5246596
0.5361943
0.5473238
0.5579692
0.5680138
0.5772638
0.5854149
0.5923104
0.5979402
0.6018215
0.6038339
0.6031968
0.6004275
0.5951537
0.5874286
0.577827
0.5664684
0.5536471
0.5397298
0.5250879
0.5100877
0.4950618
0.4802952
0.4660138
0.4523825
0.4395097
0.4274658
0.416302
0.4060627
0.3967808
0.3884723
0.3811218
0.3746608
0.36898
0.3639284
0.3594442
0.3554268
0.3518085
0.3483647
0.3451662
0.3423399
0.3399105
0.3377617
0.3357701
0.3337986
0.33176
0.3296449
0.3275149
0.3254836
0.323678
0.3221864
0.3210103
0.3200582
0.3191908
0.318281
0.3172612
0.3161431
0.3150055
0.3139466
0.3130182
0.3121878
0.3113616
0.3104579
0.3094776
0.3085037
0.30763
0.306879
0.306187
0.3054466
0.3045859
0.3036351
0.3027105
0.3019615
0.3014933