/*--------------------------------*- C++ -*----------------------------------*\
| =========                 |                                                 |
| \\      /  F ield         | foam-extend: Open Source CFD                    |
|  \\    /   O peration     | Version:     3.1                                |
|   \\  /    A nd           | Web:         http://www.extend-project.de       |
|    \\/     M anipulation  |                                                 |
\*---------------------------------------------------------------------------*/
FoamFile
{
    version     2.0;
    format      ascii;
    class       volScalarField;
    location    "14";
    object      nut;
}
// * * * * * * * * * * * * * * * * * * * * * * * * * * * * * * * * * * * * * //

dimensions      [0 2 -1 0 0 0 0];

internalField   nonuniform List<scalar> 
119952
(
5.274145e-05
3.541397e-05
3.650656e-05
4.0675e-05
4.352029e-05
4.142548e-05
4.015269e-05
3.929538e-05
3.868839e-05
3.821088e-05
3.779616e-05
3.740457e-05
3.700584e-05
3.657659e-05
3.610563e-05
3.55852e-05
3.500869e-05
3.436807e-05
3.363912e-05
3.277422e-05
4.095171e-05
3.888239e-05
3.778813e-05
4.818528e-05
4.643084e-05
4.504529e-05
4.39111e-05
4.321058e-05
4.259423e-05
2.599407e-05
3.329997e-05
3.605815e-05
4.073024e-05
4.553756e-05
5.063797e-05
5.60175e-05
6.170624e-05
6.756859e-05
7.355874e-05
8.388844e-05
0.0003737003
0.0004369873
0.0005074917
0.0005815547
0.0006566299
0.0007311845
0.000804629
0.0008766969
0.0009468745
0.001342571
0.001413306
0.001482899
0.001550449
0.00161608
0.001679915
0.001741868
0.001801753
0.001859408
0.001913635
0.001968416
0.002017508
0.002063025
0.002106321
0.002147975
0.002188673
0.002229392
0.002271663
0.0023192
0.002203345
0.002372011
0.002382482
0.002407616
0.00243357
0.002456128
0.002477582
0.002501795
0.00253084
0.002564466
0.002601808
0.002642006
0.002683956
0.002726094
0.002766255
0.002801636
0.002828939
0.002844647
0.002845406
0.002829774
0.002801752
0.002755978
0.002696628
0.002639209
0.002573761
0.002460938
0.002326482
0.002172794
0.001984923
0.001771575
0.001667191
0.001593939
0.001543707
0.001509562
0.001487634
0.001476306
0.001473844
0.001478585
0.00148907
0.001504122
0.001522949
0.001545083
0.001570208
0.001598034
0.00162839
0.0016606
0.001693847
0.001727573
0.001761173
0.001793921
0.001825367
0.00185459
0.001878216
0.001892507
0.001894053
0.001879564
0.001845824
0.001788645
0.00170509
0.001594233
0.00146022
0.001319204
0.001200832
0.001127511
0.001097946
0.001061942
0.001057374
0.001084437
0.001134489
0.001199815
0.001274298
0.001339113
0.001390187
0.001439909
0.001486937
0.001529531
0.001566016
0.001594723
0.001614202
0.001618385
0.001599604
0.001550434
0.001458791
0.001289493
0.0009676811
0.0007630877
0.000634551
0.0005707983
0.0006353164
0.0007684363
0.0008950384
0.0009839321
0.00107906
0.001130437
0.001154019
0.001177115
0.001212867
0.001263441
0.001322458
0.001382692
0.001439639
0.001491511
0.001538003
0.001578887
0.001613743
0.001642202
0.001663695
0.001679671
0.001690894
0.001698042
0.001701711
0.001702409
0.001700555
0.001696483
0.001690457
0.00168268
0.001673314
0.001662496
0.001650368
0.001637024
0.001622495
0.001606739
0.001589609
0.001570881
0.001550667
0.00152937
0.001507215
0.001484442
0.001457745
0.001161472
0.000910814
0.0008303901
0.0007898348
0.000762965
0.0007421983
0.0007247651
0.0007094292
0.0006955137
0.0006826158
0.0006704576
0.0006588084
0.0006462486
0.0006333237
0.0006205394
0.0006077914
0.0005950472
0.0005822659
0.0005693883
0.0005563507
0.0005430956
0.0005295843
0.000515801
0.000501753
0.0004874794
0.0004730521
0.0004587703
0.0004446086
0.0004305257
0.0004166234
0.0004030476
0.0003899804
0.0003776594
0.0003663215
0.0003564367
0.0003530249
0.0003601243
0.000367956
0.0003756962
0.0003834469
0.0003912388
0.0003991956
0.0004074003
0.0004159227
0.0004248212
0.0004341291
0.000443847
0.0004539365
0.0004643023
0.0004747636
0.0004850063
0.0004944913
0.0005021864
0.0005066753
0.00050736
0.0005028825
0.0004922027
0.0004802028
0.0004771216
0.0004726129
0.0004625312
0.000451173
0.0004400686
0.0004330299
0.0004351728
0.000444347
0.0004557484
0.0004671345
0.0004752769
0.0004722435
0.0005937654
0.0005994875
0.0006053046
0.0006102835
0.0006168611
0.000627122
0.0006432056
0.0006673935
0.0007022793
0.0007499543
0.0008103574
0.0008818382
0.0009618116
0.001047422
0.001136154
0.001226134
0.001316072
0.001404866
0.001493562
0.001587099
0.001687175
0.001790004
0.001893587
0.001996672
0.002097896
0.002195634
0.002288075
0.002373543
0.002451038
0.002520691
0.002583688
0.002640946
0.002691441
0.00273207
0.002760471
0.002776582
0.002780106
0.002770108
0.002745055
0.002701771
0.002635464
0.002542531
0.002422118
0.002277336
0.00211627
0.001949999
0.001787096
0.001634001
0.001501209
0.001390228
0.0012987
0.001222838
0.001159219
0.001105758
0.001061913
0.001023409
0.000991249
0.000965553
0.0009447381
0.0009275457
0.0009132812
0.0009016895
0.0008924231
0.0008851609
0.0008795776
0.0008751517
0.0008711791
0.0008678504
0.0008654687
0.0008643025
0.00086478
0.0008669309
0.0008704357
0.0008751262
0.0008808221
0.0008873429
0.0008945395
0.0009022961
0.0009105269
0.0009191561
0.0009281164
0.000937344
0.000946779
0.0009563662
0.0009660532
0.0009757878
0.0009855163
0.0009951833
0.001004731
0.001014102
0.001023235
0.001032068
0.001040536
0.00104857
0.001056093
0.001063023
0.001069268
0.001074727
0.001079291
0.001082835
0.001085216
0.001086267
0.001085808
0.001083688
0.001079836
0.001074188
0.001066596
0.001056891
0.001044943
0.001030686
0.001014097
0.0009951371
0.0009739953
0.0009512808
0.0009276374
0.0009036176
0.0008795347
0.0008554883
0.0008320803
0.0008104869
0.0007920814
0.0007778992
0.0007684183
0.0007635863
0.0007596043
0.0007567681
0.0007593685
0.0007662487
0.0007775952
0.000794417
0.0008153877
0.0008406417
0.0008638653
0.0008824341
0.0008992711
0.0009129454
0.0009244297
0.0009364375
0.0007331122
5.626857e-05
6.138542e-05
7.315828e-05
8.597722e-05
9.803895e-05
0.0001091459
0.000119477
0.0001292131
0.0001400195
0.0004589743
0.0006390858
0.0008244941
0.0009965931
0.001148763
0.001280664
0.001395603
0.001497582
0.001590167
0.002273635
0.002383596
0.002496978
0.00260788
0.002714781
0.002817297
0.002915084
0.00300771
0.003094977
0.003175839
0.003251539
0.003322136
0.003389321
0.003455618
0.003522074
0.003588648
0.003654873
0.003720317
0.00378467
0.003829531
0.003856483
0.003888361
0.003925332
0.003966472
0.004010387
0.004056143
0.0041033
0.004151806
0.004201809
0.004254164
0.004307483
0.0043624
0.004418487
0.004474987
0.004531388
0.004587515
0.004643269
0.004697743
0.00549188
0.005539016
0.005581968
0.00562133
0.005656441
0.00568678
0.005712028
0.005732187
0.005747367
0.005757458
0.005763289
0.005765806
0.005765096
0.005760972
0.005754373
0.005745254
0.005735767
0.005727431
0.005724874
0.005721581
0.005713101
0.005710308
0.00571641
0.005726782
0.005740592
0.005759773
0.005785871
0.005819736
0.005861728
0.005911673
0.005968958
0.00603237
0.006100068
0.006169323
0.006236453
0.006296702
0.006345128
0.006376931
0.00638912
0.006379509
0.00634495
0.006290379
0.006214975
0.006101539
0.005944467
0.005748503
0.005516784
0.005251728
0.004989398
0.0047532
0.004540569
0.004354875
0.004197256
0.00406759
0.003965194
0.003888369
0.00383494
0.00380252
0.003788781
0.00379158
0.003808989
0.003839309
0.003881052
0.003932818
0.003993248
0.004061055
0.004134968
0.004213604
0.004295217
0.004377831
0.004460645
0.004540182
0.004611745
0.004669072
0.004703814
0.004705212
0.004663999
0.004577509
0.004440834
0.00425421
0.00402993
0.003789814
0.003554793
0.003339574
0.003153658
0.003003483
0.002892267
0.002819983
0.002783796
0.002779131
0.00280075
0.002827545
0.002871538
0.002948395
0.003044154
0.003148724
0.003252899
0.003358668
0.003426589
0.003482618
0.003514083
0.003355825
0.003247522
0.003214745
0.002851774
0.002496093
0.002184765
0.001939626
0.001516115
0.001360826
0.001342825
0.001471476
0.001733572
0.002078095
0.002441015
0.002635817
0.00284152
0.003047267
0.003237153
0.003403733
0.003547962
0.003672783
0.003780968
0.003874559
0.003955771
0.004028326
0.004091955
0.004147192
0.00419497
0.004236333
0.004272302
0.004303782
0.004331485
0.004355941
0.004377537
0.004396564
0.004413238
0.00442772
0.004440108
0.004450449
0.004458751
0.004465033
0.004469294
0.00447166
0.004472063
0.004470974
0.004468206
0.004469617
0.004218236
0.004032577
0.003945181
0.003894817
0.003859139
0.003830011
0.003804426
0.003781232
0.003759922
0.003740224
0.003721961
0.003704981
0.003689063
0.003673932
0.003659295
0.003644811
0.003630118
0.003614844
0.003598609
0.003581035
0.003561759
0.003540442
0.003516792
0.003490572
0.00346161
0.003429778
0.003394997
0.003357343
0.003317062
0.003274541
0.003230247
0.003184672
0.00313841
0.003092532
0.003048673
0.003009006
0.002975871
0.002948998
0.002927911
0.002912797
0.00290392
0.002901541
0.002905867
0.002917059
0.002935189
0.002960152
0.002991588
0.003028822
0.003070778
0.003115819
0.003161518
0.003204314
0.003239248
0.003260187
0.003260712
0.003235462
0.003182233
0.00310255
0.002996876
0.002858872
0.002680214
0.002472022
0.002252251
0.002043172
0.001863857
0.00172588
0.001633581
0.001584899
0.001572612
0.001574558
0.001859683
0.001910743
0.001965639
0.002019727
0.002070998
0.002122685
0.002181348
0.002254608
0.002349322
0.002470399
0.002620502
0.002800126
0.003007737
0.003240049
0.003492513
0.003759974
0.004037301
0.004319762
0.004602982
0.004882675
0.005157441
0.005431623
0.005702049
0.005965954
0.006220482
0.006462322
0.006687777
0.006893396
0.007076941
0.007238318
0.007379523
0.007500099
0.007599245
0.007655552
0.007246381
0.007002059
0.00691584
0.006967214
0.007151804
0.007427828
0.007441466
0.007253834
0.00701064
0.00671843
0.006389465
0.006039872
0.005685746
0.005338346
0.005014894
0.004721036
0.004454836
0.004212253
0.003989132
0.003782249
0.003589464
0.003412156
0.003249433
0.003101452
0.00296884
0.002851859
0.002750302
0.0026635
0.002590482
0.002530074
0.00248101
0.002442025
0.00241191
0.00238952
0.002373785
0.002363691
0.002358277
0.00235665
0.002357853
0.002361138
0.002366843
0.002375472
0.002387648
0.002403245
0.002421803
0.002442927
0.002466262
0.002491485
0.002518298
0.002546422
0.002575602
0.002605593
0.002636166
0.002667096
0.002698166
0.002729165
0.002759881
0.002790107
0.002819634
0.002848247
0.002875725
0.002901837
0.002926338
0.002948971
0.00296946
0.002987503
0.003002775
0.003014925
0.003023589
0.003028399
0.003028975
0.003024912
0.003015742
0.003000933
0.00297985
0.002951705
0.002915469
0.00286979
0.002814429
0.002750418
0.002677831
0.002596873
0.002507992
0.002412219
0.002311345
0.002207914
0.002104825
0.002005178
0.001911785
0.001827134
0.001752904
0.00169038
0.00163992
0.001601752
0.001575009
0.001553969
0.001525536
0.001481591
0.001493931
0.001476078
0.001537986
0.001536406
0.001623152
0.001495865
0.001579604
2.997743e-05
3.638649e-05
4.599044e-05
5.731105e-05
7.066013e-05
8.651056e-05
0.0001056834
0.0001290864
0.0001582261
0.0002083851
0.0009101363
0.001067777
0.00123398
0.001410379
0.001598107
0.001787976
0.001962204
0.002132219
0.002550687
0.004495122
0.004735508
0.004901302
0.005052424
0.005194041
0.005327341
0.005448546
0.005557634
0.005665332
0.005854424
0.006182592
0.006401643
0.006531956
0.006618595
0.006683103
0.006734047
0.006775356
0.006809511
0.006843244
0.006736717
0.006741489
0.006789029
0.006849809
0.006910226
0.00696471
0.007011476
0.007050221
0.007081604
0.007106486
0.007125671
0.007143397
0.007160934
0.00717899
0.007197525
0.007216143
0.007234136
0.007249264
0.00802731
0.008040905
0.00804626
0.008046972
0.008045019
0.008041353
0.008036772
0.008031681
0.008026527
0.008021295
0.008015472
0.008009631
0.008004343
0.007999541
0.007995345
0.007991828
0.00798891
0.007986682
0.007985485
0.007984861
0.007984753
0.007986086
0.007988622
0.007991647
0.007994592
0.007997154
0.00799949
0.008002141
0.008005783
0.008011565
0.008020315
0.008031898
0.008045883
0.00806162
0.008078547
0.008096241
0.008114787
0.008135222
0.008139247
0.008145395
0.008152621
0.008159553
0.008164848
0.008167391
0.00816634
0.008161164
0.008151568
0.00813765
0.008120105
0.008099319
0.008075374
0.00804832
0.008018493
0.007986204
0.007952563
0.007918826
0.007886626
0.007855536
0.007826169
0.007801021
0.007781698
0.007768858
0.007761745
0.007761255
0.007768637
0.007785604
0.007812431
0.007848825
0.007894173
0.0079474
0.008006893
0.008070306
0.008134285
0.008194444
0.00824599
0.008284695
0.008307553
0.00831263
0.008297241
0.008257979
0.008194053
0.008098589
0.007966203
0.007795343
0.007589083
0.007348049
0.007088954
0.006832703
0.006586046
0.006353733
0.006141978
0.005954964
0.005795276
0.005664033
0.005560997
0.005484991
0.005434289
0.005406903
0.005400771
0.005413888
0.005444374
0.005490446
0.005550413
0.005622672
0.00570563
0.005797551
0.005896241
0.005998183
0.006102371
0.006206122
0.006305603
0.006395685
0.006469515
0.006518039
0.00652969
0.006491219
0.006398996
0.006250317
0.00604812
0.005803526
0.005531781
0.00524879
0.004969982
0.00470976
0.004479906
0.004288532
0.004139929
0.004034688
0.003970968
0.003945306
0.003953296
0.003990825
0.004054556
0.0041411
0.004248146
0.00437345
0.004495844
0.004496797
0.004479465
0.004431587
0.004329493
0.004367823
0.004524518
0.004177944
0.003755344
0.003296698
0.002888741
0.002610905
0.002150171
0.001813446
0.001706378
0.001763919
0.001966921
0.002281566
0.002684115
0.003177953
0.003630759
0.003864483
0.004081335
0.004279546
0.004457071
0.00461192
0.004744674
0.004860306
0.004963784
0.005056485
0.005139314
0.0052132
0.005279267
0.005338932
0.005393363
0.005443483
0.005490014
0.005533507
0.00557436
0.005612836
0.005649074
0.005683127
0.005714985
0.005744627
0.005772017
0.005797183
0.005820067
0.005840803
0.005859081
0.005874816
0.005880635
0.005895362
0.005911841
0.005926705
0.005939105
0.005949357
0.005957938
0.00596526
0.005971645
0.005977379
0.005982755
0.005988016
0.005993303
0.00599864
0.006003932
0.006008978
0.006013486
0.006017093
0.006019384
0.006019907
0.006018193
0.006013777
0.00600622
0.005995134
0.005980204
0.005961207
0.005938031
0.005910702
0.005879388
0.005844413
0.00580625
0.005765526
0.005723019
0.005679729
0.005636928
0.005596292
0.005559424
0.005527266
0.005500642
0.005480537
0.005467905
0.005463642
0.005468573
0.005483441
0.005508823
0.005545007
0.005591895
0.005648914
0.005714891
0.005787895
0.005865052
0.00594237
0.006014659
0.006075688
0.006118581
0.006136242
0.006121488
0.00606674
0.005963413
0.005801794
0.00557217
0.005273388
0.004924228
0.004543363
0.004156101
0.003791511
0.00347575
0.003227217
0.003051044
0.002941695
0.002687329
0.002598485
0.002671904
0.00283033
0.002916811
0.002973485
0.00304841
0.003146916
0.003274839
0.003436867
0.003635778
0.003872184
0.004144505
0.004449093
0.004780535
0.005132156
0.005496616
0.005866462
0.006234469
0.006593754
0.006937363
0.007266854
0.007584411
0.007890001
0.008182717
0.008460532
0.008720349
0.008958321
0.009171888
0.009360493
0.009526428
0.009590292
0.008921373
0.008267502
0.007806464
0.007570319
0.007513312
0.007604928
0.007850831
0.008267151
0.008823726
0.00938358
0.009368221
0.009082662
0.008752955
0.008392453
0.008018388
0.007647172
0.007288942
0.006954327
0.006643069
0.006351493
0.006074667
0.005809331
0.005553887
0.005307339
0.005071152
0.004847564
0.004638873
0.004447028
0.004273475
0.004119015
0.00398373
0.003867062
0.003768007
0.003685296
0.003617509
0.003563177
0.003520865
0.003489208
0.003466927
0.00345283
0.003445826
0.003444933
0.003449208
0.003457613
0.003468934
0.00348338
0.003501937
0.003524712
0.003551266
0.003581193
0.003614111
0.003649662
0.003687502
0.003727298
0.003768729
0.003811476
0.003855226
0.003899669
0.003944496
0.003989398
0.004034066
0.004078187
0.004121439
0.004163492
0.004204003
0.004242616
0.004278956
0.004312625
0.004343199
0.004370228
0.004393236
0.004411732
0.004425207
0.004433128
0.004434916
0.004429925
0.004417409
0.004396468
0.00436597
0.004324464
0.004270038
0.004202313
0.004121442
0.004027045
0.003918983
0.003797636
0.003664055
0.003520119
0.003368391
0.003212201
0.003055187
0.002901322
0.002754137
0.002617098
0.00249264
0.002383105
0.002289383
0.002212621
0.002152025
0.002107705
0.002077473
0.002060965
0.002055029
0.002045907
0.002001532
0.00190438
0.001932991
3.770533e-05
6.086934e-05
0.0001353684
0.0004551776
0.0007826211
0.001396492
0.001874865
0.002453434
0.003123545
0.003675164
0.004083402
0.004411247
0.004740168
0.005082843
0.005437018
0.005799244
0.006171295
0.006552795
0.006942576
0.007322804
0.007674966
0.007998263
0.0082655
0.008496104
0.008710485
0.008909847
0.00909566
0.009270489
0.009439797
0.009616055
0.009829254
0.01
0.01
0.01
0.01
0.01
0.009835194
0.009616929
0.0094431
0.009288621
0.009122119
0.009015377
0.008951572
0.008915914
0.008906469
0.008920886
0.008956476
0.009010151
0.00908126
0.009174451
0.009276705
0.009372215
0.009493772
0.009631072
0.009779253
0.009941485
0.01
0.01
0.01
0.01
0.01
0.01
0.01
0.01
0.01
0.01
0.01
0.01
0.01
0.01
0.01
0.01
0.01
0.01
0.01
0.01
0.01
0.01
0.01
0.01
0.009990048
0.009973581
0.009958123
0.009943706
0.009930093
0.009917032
0.00990452
0.009892806
0.009882414
0.009873867
0.009867146
0.009861684
0.009856653
0.009851284
0.009845166
0.009838486
0.009832115
0.00982734
0.0098253
0.009826401
0.009830307
0.009836081
0.009842844
0.009849858
0.00985708
0.009864289
0.009870885
0.009877146
0.009882751
0.009886862
0.009888585
0.009887086
0.00988162
0.009871578
0.009856672
0.009837069
0.009813364
0.009786235
0.009756287
0.009723801
0.009688803
0.009651116
0.009610758
0.009568251
0.009525729
0.009484174
0.009442776
0.009401938
0.009364253
0.009330808
0.009302158
0.009279097
0.009262128
0.009251637
0.009248766
0.009253201
0.009264295
0.009281138
0.009302969
0.00932891
0.009357441
0.009386075
0.009411755
0.009431777
0.009444503
0.009449111
0.009443837
0.009423892
0.009387374
0.00933157
0.009252395
0.009145708
0.009009394
0.008842672
0.008650385
0.008441867
0.008225606
0.008008631
0.007797813
0.007599564
0.007419358
0.007261295
0.007127903
0.00702026
0.006938303
0.006881169
0.006847481
0.006835585
0.006843722
0.006870117
0.006913045
0.00697086
0.007041956
0.007124657
0.007217023
0.007316324
0.007420174
0.007526911
0.007633399
0.00773558
0.007828204
0.00790449
0.007955733
0.00797112
0.007938547
0.007854276
0.007715538
0.007524283
0.007287671
0.007016604
0.00672462
0.006426945
0.00613878
0.00587354
0.005641626
0.005449672
0.005301086
0.005196614
0.005134908
0.005113746
0.00513079
0.005183226
0.005268797
0.005385644
0.005529442
0.00569297
0.005853258
0.005715074
0.005532623
0.005559051
0.005764379
0.005786325
0.005436858
0.00500172
0.004474253
0.003947739
0.003524048
0.003240347
0.00270764
0.002219224
0.002056803
0.002076165
0.002219619
0.002462659
0.002793314
0.003200695
0.003659037
0.004123293
0.00454206
0.004784346
0.004972195
0.005141965
0.005295836
0.005435967
0.005563247
0.005678321
0.005750917
0.005800622
0.005846176
0.005886607
0.005923482
0.005960178
0.005999904
0.006044099
0.006092702
0.00614499
0.006200417
0.006257965
0.006317811
0.006377997
0.006441256
0.006504281
0.006576273
0.006629845
0.006656429
0.006734861
0.006821552
0.006899202
0.006936862
0.006959075
0.006979832
0.006999314
0.007017574
0.007034647
0.007051024
0.007067179
0.00708342
0.007099894
0.007116599
0.0071334
0.007150058
0.007166234
0.007181512
0.007195412
0.007207413
0.00721697
0.007223546
0.007226634
0.007225788
0.007220646
0.007210963
0.007196628
0.007177681
0.007154328
0.007126946
0.007096083
0.00706248
0.007027086
0.006991093
0.006955938
0.006923149
0.006894049
0.006869819
0.006851666
0.006840832
0.00683852
0.006845878
0.006864011
0.006893912
0.006936333
0.006991648
0.007059767
0.007139993
0.007230886
0.007330033
0.007433926
0.007537837
0.007635859
0.007721048
0.007785598
0.007821017
0.007818221
0.007767385
0.007657921
0.007478851
0.007219148
0.006876561
0.006466514
0.006007028
0.005526264
0.005058287
0.004637494
0.004287881
0.004021297
0.003834944
0.003714211
0.003445965
0.003352461
0.003415413
0.00358233
0.003736261
0.00384124
0.003983687
0.004167477
0.004394758
0.004665245
0.004976205
0.005322613
0.005697483
0.006092379
0.006498076
0.006905283
0.007305307
0.007690511
0.008054422
0.008394399
0.008715459
0.009020661
0.009311952
0.009589725
0.009853012
0.01000001
0.01000015
0.01000142
0.009852031
0.009391146
0.008883981
0.008372186
0.007990939
0.007800705
0.007785379
0.007937598
0.00827895
0.008816826
0.009439858
0.009968296
0.01000001
0.01000003
0.0100002
0.01000027
0.009691343
0.009342694
0.009005184
0.008684789
0.008381071
0.008090666
0.007808937
0.007532119
0.007258117
0.006986492
0.006718779
0.006457689
0.006206448
0.005968273
0.005745991
0.005541794
0.005357084
0.00519247
0.005047859
0.004922623
0.004815755
0.004726011
0.004652028
0.004592414
0.004545796
0.00451086
0.004486368
0.004471159
0.00446413
0.004464233
0.004470455
0.004481816
0.00449722
0.004516993
0.004541887
0.004571511
0.00460546
0.004643342
0.004684774
0.004729381
0.004776792
0.004826634
0.004878529
0.004932101
0.004986969
0.005042748
0.005099051
0.005155485
0.005211648
0.005267128
0.005321502
0.005374333
0.005425165
0.005473522
0.0055189
0.005560768
0.005598563
0.005631704
0.005659594
0.005681626
0.005697171
0.005705562
0.005706064
0.005697822
0.005679801
0.005650714
0.005608948
0.005552729
0.005481804
0.005395393
0.005292798
0.005173607
0.005037866
0.004886238
0.004720074
0.004541546
0.004353509
0.004159529
0.003963436
0.003769454
0.003581499
0.003403485
0.003238383
0.00308887
0.002956427
0.002842236
0.002746466
0.002668996
0.002609097
0.002565962
0.002538575
0.002525246
0.002522966
2.095724e-05
3.391996e-05
5.11759e-05
0.00022049
0.0003611348
0.0006109611
0.000858485
0.001086193
0.001373453
0.001655873
0.001963089
0.002362222
0.002839253
0.003384352
0.004005644
0.004809859
0.006341217
0.00697771
0.007600037
0.008163832
0.008666669
0.009106276
0.009498421
0.00985718
0.01
0.01
0.01
0.01
0.01
0.01
0.01
0.01
0.01
0.01
0.01
0.01
0.01
0.01
0.01
0.01
0.01
0.01
0.01
0.01
0.009698742
0.009353357
0.00903178
0.008743494
0.008493352
0.008283716
0.008109182
0.007954717
0.0078424
0.007773523
0.007739336
0.007733837
0.007754087
0.007797015
0.007859516
0.007938995
0.008033389
0.008147014
0.008269604
0.008409514
0.008571438
0.008751598
0.008959934
0.009192868
0.009438946
0.009693838
0.009962726
0.01
0.01
0.01
0.01
0.01
0.01
0.01
0.01
0.01
0.01
0.01
0.01
0.01
0.01
0.01
0.01
0.01
0.01
0.01
0.01
0.01
0.01
0.01
0.01
0.01
0.01
0.01
0.01
0.01
0.01
0.01
0.01
0.01
0.01
0.01
0.01
0.01
0.01
0.01
0.01
0.01
0.01
0.01
0.01
0.01
0.01
0.01
0.01
0.01
0.01
0.01
0.01
0.01
0.01
0.01
0.01
0.01
0.01
0.01
0.01
0.01
0.01
0.01
0.01
0.01
0.01
0.01
0.01
0.01
0.01
0.01
0.01
0.01
0.01
0.01
0.01
0.01
0.009958599
0.009915113
0.009877514
0.009847937
0.009826689
0.009812212
0.009802237
0.009795503
0.009791446
0.009789024
0.009784201
0.009775135
0.009760455
0.009737583
0.009702696
0.009651393
0.009579918
0.009486355
0.009371876
0.009239707
0.009093976
0.008939642
0.008782567
0.008629035
0.008484948
0.008355147
0.008243096
0.008150874
0.008079367
0.008028529
0.007997663
0.007985658
0.007991182
0.008012841
0.008049266
0.008099127
0.008161091
0.008233664
0.008314852
0.00840211
0.008493986
0.00858817
0.008681577
0.008770358
0.00884984
0.008914215
0.008956091
0.008966256
0.008935408
0.008859693
0.008736299
0.008566174
0.008354009
0.008107978
0.007839295
0.007561131
0.007287091
0.007029769
0.006799476
0.006603857
0.006447943
0.006334313
0.006263895
0.006236674
0.006251777
0.006308278
0.006405113
0.006539074
0.006704781
0.006894976
0.007096218
0.007283438
0.007225885
0.007193459
0.007166112
0.006796931
0.006277082
0.006029919
0.005692259
0.005059127
0.004510273
0.004091643
0.003810421
0.003483378
0.002904462
0.002621513
0.002550482
0.002620194
0.002786683
0.003022733
0.003313723
0.003640058
0.003985332
0.004330881
0.004648356
0.004923208
0.005157082
0.005355291
0.00552488
0.005672825
0.005803069
0.005915291
0.006008527
0.006084653
0.006149307
0.006209477
0.006270065
0.006332677
0.006397094
0.006462909
0.006529655
0.006597345
0.006664994
0.006732681
0.006799079
0.006864527
0.006925407
0.006983461
0.007068097
0.007156368
0.007238606
0.007321191
0.007410314
0.007507461
0.007610696
0.007713529
0.007763722
0.007786993
0.007809711
0.007832496
0.007855714
0.007879528
0.007903933
0.007928782
0.007953799
0.007978595
0.008002687
0.008025512
0.008046455
0.008064876
0.008080142
0.008091662
0.008098918
0.008101499
0.008099134
0.00809171
0.008079294
0.008062145
0.008040726
0.008015714
0.007988007
0.007958732
0.007929226
0.007900965
0.007875409
0.007853957
0.00783802
0.00782906
0.007828554
0.007837943
0.007858661
0.007892117
0.007939537
0.008001808
0.008079351
0.008171975
0.008278688
0.008397501
0.008525266
0.008657531
0.008788626
0.00891171
0.009018916
0.009101531
0.009150694
0.009156886
0.009109855
0.00899893
0.008812866
0.008538738
0.008177259
0.00773673
0.00723373
0.00669624
0.006161249
0.005665993
0.005240307
0.004899821
0.004646428
0.00447186
0.004234126
0.003960396
0.003933697
0.004080765
0.004332666
0.004542422
0.004719154
0.004945328
0.005220026
0.005539302
0.00589649
0.006282748
0.006687783
0.007100682
0.007510816
0.007908717
0.008286721
0.008639272
0.008963401
0.009263662
0.009545982
0.009815203
0.01
0.01
0.01000002
0.01000036
0.01000324
0.009604142
0.009311123
0.009040512
0.008756515
0.008522241
0.008376821
0.008369228
0.008554301
0.008986947
0.009625222
0.01000059
0.01000029
0.01000004
0.01000003
0.01000019
0.01000132
0.01000227
0.01000199
0.01000104
0.009944894
0.009670975
0.009406252
0.009145425
0.008883679
0.008618708
0.008350519
0.008080596
0.007811588
0.0075469
0.007290191
0.007044963
0.006814247
0.006600408
0.006405048
0.006229016
0.006072502
0.005935169
0.00581629
0.005714874
0.005629777
0.005559778
0.005503642
0.00546016
0.005428167
0.005406554
0.00539427
0.005390317
0.005393737
0.005403586
0.005418895
0.005439316
0.005465626
0.005497442
0.005534363
0.005575989
0.005621923
0.005671761
0.005725094
0.005781505
0.005840568
0.005901847
0.005964905
0.006029293
0.00609456
0.00616024
0.006225861
0.006290937
0.006354968
0.00641744
0.006477817
0.006535537
0.006590004
0.006640593
0.006686654
0.006727528
0.006762559
0.0067911
0.006812501
0.006826078
0.006831069
0.006826582
0.006811538
0.006784607
0.006744123
0.006689082
0.006618631
0.0065318
0.006427763
0.006305948
0.006166162
0.006008714
0.005834542
0.005645252
0.005443154
0.005231139
0.005012648
0.004791426
0.00457137
0.004356264
0.004149536
0.003954348
0.003773181
0.003608215
0.003460828
0.003332251
0.003222797
0.00313321
0.00306266
0.003011794
1.882693e-05
2.893934e-05
5.689331e-05
0.0001716578
0.0002760319
0.0004374307
0.0005614388
0.0007025781
0.0008691041
0.001032654
0.001224468
0.001472906
0.001757838
0.002098475
0.002543292
0.003396904
0.003805219
0.004248269
0.004718175
0.00521419
0.005741802
0.006292594
0.006852463
0.007407391
0.007941964
0.008442903
0.008927744
0.009468007
0.009976441
0.01
0.01
0.01
0.01
0.01
0.01
0.01
0.01
0.01
0.01
0.01
0.01
0.01
0.01
0.01
0.01
0.01
0.01
0.01
0.01
0.01
0.01
0.009707687
0.009313131
0.008850614
0.008456975
0.008108048
0.00779882
0.007538456
0.007323772
0.007148808
0.007010241
0.006905365
0.006836478
0.00680574
0.006811288
0.006849024
0.006915994
0.007008372
0.007123951
0.007257886
0.007407516
0.007578798
0.007764748
0.007985294
0.008245206
0.008553557
0.008899924
0.009279531
0.009673385
0.01
0.01
0.01
0.01
0.01
0.01
0.01
0.01
0.01
0.01
0.01
0.01
0.01
0.01
0.01
0.01
0.01
0.01
0.01
0.01
0.01
0.01
0.01
0.01
0.01
0.01
0.01
0.01
0.01
0.01
0.01
0.01
0.01
0.01
0.01
0.01
0.01
0.01
0.01
0.01
0.01
0.01
0.01
0.01
0.01
0.01
0.01
0.01
0.01
0.01
0.01
0.01
0.01
0.01
0.01
0.01
0.01
0.01
0.01
0.01
0.01
0.01
0.01
0.01
0.01
0.01
0.01
0.01
0.01
0.01
0.01
0.01
0.01
0.01
0.01
0.01
0.01
0.01
0.01
0.009932674
0.009834926
0.009753622
0.0096955
0.009660271
0.009642245
0.009634257
0.009632109
0.009632314
0.009634624
0.009640315
0.009649096
0.009660246
0.00967322
0.009687572
0.009700666
0.009709835
0.009707074
0.009688397
0.009652453
0.009598874
0.009528648
0.009444607
0.009351284
0.009254163
0.009158754
0.009069863
0.008991193
0.008925224
0.008873322
0.008835951
0.008812921
0.008803636
0.008807317
0.008823153
0.008850363
0.008888183
0.008935727
0.008991659
0.009053737
0.009120611
0.009190546
0.009261076
0.009329313
0.009392259
0.00944673
0.00948885
0.009513413
0.00951334
0.00948285
0.009417856
0.009315897
0.009176977
0.009003931
0.008802587
0.008581459
0.008350921
0.008122107
0.007905692
0.007711045
0.007545803
0.007415678
0.007324646
0.007275331
0.007269277
0.007307341
0.007389495
0.007513711
0.007675733
0.007869033
0.008082929
0.008300735
0.008499671
0.008649998
0.008719727
0.008623611
0.008186333
0.007988568
0.007537214
0.006871508
0.006173635
0.005525888
0.004985479
0.00458551
0.004326247
0.004192138
0.003969492
0.003579807
0.003352379
0.003277775
0.003321338
0.003447707
0.003631324
0.003858855
0.004116718
0.004388773
0.00466404
0.004938087
0.005202937
0.005453222
0.005685562
0.00589458
0.006073655
0.006220573
0.006340478
0.006442353
0.006532614
0.006615574
0.006692934
0.006765928
0.00683601
0.006904656
0.006972486
0.007040659
0.007108898
0.007177986
0.007250546
0.007327435
0.007413472
0.007506287
0.007603315
0.007705656
0.007813699
0.007927569
0.008045812
0.008165111
0.008273107
0.00830033
0.008326786
0.008353269
0.008380329
0.008408306
0.008437359
0.008467475
0.008498484
0.008530064
0.00856176
0.008592994
0.008623096
0.008651335
0.008676956
0.008699218
0.008717434
0.008731017
0.008739515
0.008742644
0.00874031
0.008732633
0.008719963
0.008702888
0.008682233
0.008659062
0.008634652
0.008610439
0.008587938
0.008568697
0.008554323
0.008546495
0.008546951
0.008557448
0.00857978
0.008615752
0.008667033
0.008734997
0.008820536
0.008923857
0.009044272
0.009179984
0.009327828
0.009483155
0.009640557
0.009793501
0.009934543
0.01
0.01
0.01
0.01000002
0.01000009
0.01000015
0.0098448
0.009560014
0.009187117
0.00872948
0.008201461
0.007631929
0.007058858
0.006520833
0.006047763
0.005657344
0.005355638
0.005139153
0.004996572
0.004665062
0.004574552
0.004706272
0.004966828
0.005162609
0.00536
0.005610344
0.005909017