/*--------------------------------*- C++ -*----------------------------------*\
| =========                 |                                                 |
| \\      /  F ield         | foam-extend: Open Source CFD                    |
|  \\    /   O peration     | Version:     3.1                                |
|   \\  /    A nd           | Web:         http://www.extend-project.de       |
|    \\/     M anipulation  |                                                 |
\*---------------------------------------------------------------------------*/
FoamFile
{
    version     2.0;
    format      ascii;
    class       volScalarField;
    location    "14";
    object      pd;
}
// * * * * * * * * * * * * * * * * * * * * * * * * * * * * * * * * * * * * * //

dimensions      [1 -1 -2 0 0 0 0];

internalField   nonuniform List<scalar> 
119952
(
5414.017
4016.046
3809.415
4003.269
4208.785
4037.466
3988.931
3951.343
3928.114
3911.481
3898.488
3888.142
3879.598
3872.082
3865.069
3857.92
3849.634
3837.568
3809.357
3710.45
4082.597
3889.696
3799.266
4283.869
4288.552
4335.106
4411.48
4542.388
4871.208
8149.689
3621.632
3576.05
3583.866
3586.335
3592.885
3597.081
3605.189
3615.153
3629.66
3618.407
3623.485
3650.344
3658.423
3668.559
3678.914
3690.144
3701.023
3710.922
3721.746
3749.746
3754.246
3740.328
3739.536
3741.881
3742.134
3741.765
3741.28
3738.367
3741.744
3732.246
3728.73
3736.496
3743.953
3754.547
3768.691
3786.523
3816.291
3899.456
4056.278
3936.954
3897.998
3982
4021.051
4001.76
3961.981
3937.777
3919.094
3904.217
3891.968
3881.906
3873.199
3865.417
3858.153
3851.011
3843.477
3835.297
3827.958
3830.326
3867.238
3903.136
3911.642
4056.928
4238.918
4301.657
4344.355
4389.409
4356.332
4158.124
4202.599
4316.808
4412.586
4509.865
4608.549
4706.387
4804.633
4903.65
5003.521
5104.134
5205.319
5306.875
5408.577
5510.15
5611.343
5711.836
5811.112
5908.684
6004.18
6097.236
6187.477
6274.501
6358.079
6438.003
6514.172
6586.731
6655.217
6719.186
6778.505
6831.796
6876.206
6908.085
6928.613
6947.805
6973.198
7002.15
7029.493
7053.717
7075.565
7096.296
7117.225
7139.667
7164.323
7191.577
7221.763
7255.176
7291.764
7331.998
7377.61
7430.178
7486.865
7546.156
7613.619
7684.79
7745.071
7728.949
7694.935
7744.289
7818.947
7831.986
7817.612
7794.072
7778.235
7755.216
7719.945
7673.152
7616.401
7554.133
7491.569
7433.462
7383.948
7345.847
7320.716
7309.032
7310.274
7323.073
7345.578
7375.748
7411.867
7452.227
7495.373
7540.093
7585.419
7630.591
7675.026
7718.272
7759.981
7799.898
7837.849
7873.695
7907.367
7938.83
7968.079
7995.131
8019.989
8042.693
8063.338
8081.968
8099.216
8115.424
8126.518
8139.269
8149.812
8159.007
8166.849
8173.474
8178.997
8183.531
8187.192
8190.006
8192.26
8193.644
8194.468
8194.764
8194.574
8193.931
8192.859
8191.373
8189.482
8187.186
8184.479
8181.355
8177.804
8173.817
8169.387
8164.472
8159.099
8153.249
8146.899
8140.007
8132.488
8124.154
8114.537
8102.266
8087.636
8091.48
8091.923
8090.905
8089.448
8087.533
8085.624
8083.697
8081.91
8080.294
8078.894
8077.741
8076.853
8076.247
8075.927
8075.904
8076.173
8076.751
8077.679
8078.454
8078.902
8078.967
8078.303
8077.081
8077.193
8077.987
8079.16
8079.684
8079.18
8078.283
8077.817
8077.079
8075.583
8073.504
8071.616
8088.193
8078.109
8070.111
8069.113
8067.443
8065.167
8062.13
8057.91
8052.217
8045.339
8037.327
8028.34
8018.664
8008.707
7998.972
7990.018
7982.437
7976.899
7973.799
7973.816
7977.373
7984.828
7996.483
8012.373
8032.339
8055.992
8082.723
8111.743
8142.173
8173.174
8204.089
8234.38
8263.334
8290.069
8313.419
8332.786
8347.873
8358.468
8364.529
8366.129
8363.343
8356.617
8346.888
8335.522
8323.643
8310.415
8296.305
8283.339
8272.975
8264.034
8256.532
8250.368
8244.802
8239.911
8230.301
8228.346
8228.418
8225.437
8222.502
8220.38
8218.235
8215.973
8213.815
8211.785
8209.859
8208.04
8206.239
8204.545
8202.867
8201.23
8199.628
8198.063
8196.504
8194.953
8193.422
8191.881
8190.332
8188.765
8187.173
8185.55
8183.888
8182.183
8180.434
8178.636
8176.788
8174.887
8172.933
8170.925
8168.861
8166.743
8164.571
8162.346
8160.07
8157.745
8155.373
8152.957
8150.498
8147.999
8145.461
8142.885
8140.272
8137.621
8134.928
8132.173
8129.343
8126.437
8123.488
8120.483
8117.408
8114.251
8111.014
8107.708
8104.333
8100.91
8097.435
8093.912
8090.341
8086.665
8082.703
8078.328
8073.551
8068.446
8063.054
8057.359
8051.295
8044.712
8037.57
8029.837
8021.494
8012.449
8002.683
7992.214
7980.878
7968.594
7954.788
7939.223
7923.617
7921.776
7956.931
6560.433
6416.369
6245.529
6078.292
5911.981
5748.515
5589.124
5434.355
5284.896
5131.452
4994.38
4869.31
4745.125
4630.81
4523.777
4424.26
4332.919
4247.34
4152.084
4101.974
4028.473
3958.971
3903.805
3854.18
3809.837
3770.912
3736.202
3707.891
3686.878
3652.572
3633.619
3619.198
3606.217
3596.807
3589.928
3585
3584.017
3591.591
3576.463
3571.862
3578.022
3584.979
3592.528
3601.347
3611.1
3621.605
3632.612
3638.559
3651.179
3663.669
3673.953
3683.632
3693.6
3703.487
3713.57
3730.551
3719.249
3726.148
3736.005
3741.566
3742.517
3741.098
3738.911
3736.406
3733.403
3729.179
3728.415
3730.584
3733.912
3740.089
3751.714
3769.949
3796.651
3832.348
3873.45
3908.951
3922.16
3923.908
3932.883
3945.341
3947.97
3936.209
3920.232
3905.627
3893.78
3883.715
3874.389
3865.637
3857.57
3850.049
3843.162
3837.431
3834.447
3836.962
3848.841
3872.906
3910.682
3964.22
4037.149
4119.965
4186.692
4228.609
4249.711
4251.262
4248.922
4281.473
4351.937
4441.314
4538.47
4637.736
4737.022
4836.653
4937.184
5038.674
5140.8
5243.198
5345.578
5447.71
5549.366
5650.258
5750.049
5848.319
5944.663
6038.687
6129.999
6218.315
6303.124
6384.302
6461.601
6534.853
6603.891
6668.218
6728.792
6783.824
6832.614
6874.09
6908.003
6936.121
6962.352
6989.495
7017.066
7043.188
7067.099
7089.092
7110.157
7131.387
7153.599
7177.579
7203.778
7232.51
7264.196
7299.476
7338.482
7381.738
7430.266
7482.246
7535.656
7590.97
7642.055
7677.62
7697.765
7709.107
7747.151
7798.669
7820.032
7816.079
7829.494
7812.308
7760.027
7715.399
7664
7600.904
7534.835
7468.818
7408.805
7359.509
7323.103
7300.972
7293.173
7298.612
7315.565
7341.402
7374.498
7412.917
7454.987
7499.318
7544.772
7590.467
7635.742
7680.09
7723.109
7764.488
7803.996
7841.472
7876.811
7909.956
7940.885
7969.6
7996.124
8020.485
8042.749
8062.916
8081.035
8096.362
8111.809
8121.282
8133.964
8144.617
8153.735
8161.522
8168.081
8173.548
8178.035
8181.637
8184.431
8186.495
8187.885
8188.664
8188.906
8188.663
8187.973
8186.862
8185.347
8183.438
8181.139
8178.447
8175.356
8171.859
8167.948
8163.611
8158.844
8153.638
8147.984
8141.866
8135.257
8128.114
8120.369
8112.015
8103.494
8096.484
8093.415
8092.223
8090.468
8088.617
8086.689
8084.722
8082.82
8081.03
8079.385
8077.919
8076.659
8075.623
8074.823
8074.266
8073.953
8073.875
8074.019
8074.31
8074.559
8074.705
8074.67
8074.319
8073.915
8074.062
8074.89
8075.985
8077.098
8078.061
8078.947
8079.719
8079.856
8079.17
8077.698
8073.155
8081.397
8081.413
8075.371
8070.999
8068.884
8067.203
8064.429
8060.106
8054.357
8047.374
8039.222
8030.036
8020.112
8009.877
7999.834
7990.536
7982.562
7976.5
7972.896
7972.247
7975.086
7981.619
7992.208
8006.871
8025.483
8047.69
8072.911
8100.346
8129.062
8158.047
8186.663
8215.102
8242.634
8268.265
8290.819
8309.575
8324.049
8333.89
8339.294
8340.505
8337.87
8332.168
8323.925
8314.177
8303.687
8292.725
8281.904
8272.037
8263.832
8256.856
8250.926
8245.903
8241.714
8238.181
8235.033
8231.305
8227.8
8225.117
8223.05
8221.228
8219.348
8217.365
8215.368
8213.421
8211.53
8209.678
8207.846
8206.04
8204.271
8202.526
8200.809
8199.119
8197.486
8195.757
8194.076
8192.405
8190.737
8189.044
8187.349
8185.625
8183.86
8182.052
8180.2
8178.304
8176.36
8174.366
8172.321
8170.224
8168.075
8165.874
8163.622
8161.32
8158.971
8156.575
8154.136
8151.655
8149.134
8146.573
8143.975
8141.338
8138.662
8135.943
8133.176
8130.356
8127.476
8124.535
8121.538
8118.484
8115.363
8112.176
8108.922
8105.593
8102.255
8098.836
8095.345
8091.792
8088.132
8084.325
8080.294
8075.993
8071.385
8066.502
8061.321
8055.838
8049.947
8043.652
8036.782
8029.371
8021.306
8012.73
8003.482
7993.812
7983.479
7972.898
7961.897
7951.648
7942.179
7933.448
7920.908
3798.114
3828.749
3877.455
3942.283
4023.72
4121.017
4233.984
4362.178
4505.101
4661.807
4828.634
5008.941
5196.252
5390.07
5588.715
5789.629
5989.762
6185.337
6379.037
6584.887
6757.807
6919.007
7066.065
7195.214
7303.495
7388.728
7449.365
7484.007
7498.763
7483.417
7442.108
7378.361
7293.797
7190.624
7071.321
6938.473
6795.016
6643.883
6475.624
6315.742
6150.95
5985.854
5822.038
5661.042
5504.379
5353.181
5208.816
5070.892
4936.817
4812.979
4694.431
4582.9
4478.872
4382.162
4293.633
4218.966
4103.661
4033.866
3976.349
3921.953
3870.253
3822.8
3780.705
3743.976
3712.173
3684.105
3659.462
3639.423
3622.315
3607.426
3595.426
3586.707
3580.882
3577.293
3575.186
3573.958
3574.521
3576.388
3579.639
3584.85
3592.093
3601.006
3611.079
3621.543
3632.102
3643.33
3654.422
3665.184
3675.842
3686.437
3696.67
3706.193
3714.409
3721.278
3726.316
3732.504
3738.464
3740.822
3740.184
3737.944
3734.834
3730.875
3726.211
3721.712
3718.281
3716.743
3718.595
3725.356
3737.723
3756.553
3780.544
3808.758
3838.872
3870.323
3890.814
3898.896
3906.616
3916.859
3921.209
3916.537
3906.535
3896.492
3887.207
3878.447
3869.726
3860.937
3852.245
3843.866
3836.216
3830.264
3827.537
3830.13
3840.12
3859.863
3890.831
3930.504
3981.964
4041.675
4097.25
4140.947
4174.073
4204.506
4234.973
4276.614
4343.766
4432.878
4532.225
4634.276
4736.533
4839.019
4942.269
5046.317
5150.773
5255.19
5359.242
5462.69
5565.299
5666.79
5766.833
5865.044
5961.022
6054.389
6144.797
6231.942
6315.338
6394.787
6470.075
6541.046
6607.587
6669.531
6726.948
6779.429
6826.546
6867.981
6903.622
6934.582
6963.332
6991.873
7020.097
7046.847
7071.62
7094.67
7116.518
7137.831
7159.256
7181.64
7205.791
7232.178
7261.255
7293.535
7329.034
7368.022
7410.919
7456.296
7502.486
7550.535
7597.814
7635.026
7658.227
7679.269
7713.418
7755.594
7790.176
7805.63
7792.318
7768.067
7765.797
7748.409
7672.388
7592.29
7519.096
7448.208
7385.291
7335.344
7299.455
7278.633
7273.033
7281.059
7300.112
7329.101
7364.576
7404.972
7448.615
7494.15
7540.478
7586.761
7632.432
7677.06
7720.276
7761.781
7801.353
7838.842
7874.16
7907.26
7938.132
7966.785
7993.249
8017.557
8039.778
8059.924
8078.21
8094.86
8111.24
8124.272
8135.188
8144.873
8153.411
8160.706
8166.821
8171.89
8176.028
8179.306
8181.784
8183.541
8184.655
8185.195
8185.222
8184.786
8183.923
8182.658
8181.008
8178.981
8176.581
8173.803
8170.643
8167.094
8163.149
8158.803
8154.052
8148.896
8143.34
8137.392
8131.07
8124.42
8117.547
8110.69
8104.294
8098.968
8095.118
8092.394
8090.096
8087.894
8085.744
8083.69
8081.767
8079.996
8078.351
8076.88
8075.59
8074.484
8073.561
8072.815
8072.23
8071.773
8071.405
8071.071
8070.666
8070.127
8069.482
8068.739
8067.924
8067.317
8066.887
8067.274
8068.076
8068.976
8070.1
8071.513
8072.797
8073.744
8073.714
8072.74
8079.398
8080.157
8076.511
8073.04
8071.14
8069.567
8066.943
8062.702
8056.982
8050.001
8041.805
8032.515
8022.415
8011.909
8001.474
7991.632
7982.93
7975.923
7971.159
7969.171
7970.444
7975.425
7984.28
7997.153
8014.011
8034.575
8058.314
8084.485
8111.938
8138.267
8161.846
8189.45
8219.514
8248.487
8272.889
8292.675
8307.689
8317.772
8323.1
8323.99
8321.1
8315.401
8307.509
8298.261
8288.704
8279.173
8269.942
8261.849
8255.401
8250.213
8245.79
8241.928
8238.632
8235.638
8232.773
8230.469
8228.414
8226.423
8224.504
8222.685
8220.908
8219.093
8217.235
8215.381
8213.543
8211.697
8209.835
8207.973
8206.128
8204.299
8202.488
8200.689
8198.904
8197.119
8195.362
8193.62
8191.85
8190.067
8188.281
8186.448
8184.574
8182.666
8180.718
8178.727
8176.691
8174.606
8172.472
8170.289
8168.055
8165.773
8163.442
8161.065
8158.643
8156.177
8153.671
8151.124
8148.54
8145.919
8143.26
8140.563
8137.827
8135.05
8132.228
8129.356
8126.429
8123.448
8120.415
8117.327
8114.183
8110.981
8107.72
8104.395
8101.018
8097.565
8094.042
8090.441
8086.74
8082.907
8078.885
8074.647
8070.169
8065.463
8060.491
8055.242
8049.633
8043.656
8037.203
8030.306
8022.863
8014.922
8006.444
7997.557
7988.335
7978.986
7969.648
7960.161
7950.37
7937.462
7919.454
3952.948
3914.054
3879.643
3844.918
3816.15
3793.43
3783.127
3788.48
3806.892
3805.281
3786.475
3780.67
3795.197
3826.408
3874.254
3937.173
4015.814
4109.636
4218.25
4341.93
4479.027
4629.991
4792.618
4965.687
5147.603
5336.368
5529.883
5725.884
5921.879
6115.52
6306.675
6529.349
6707.438
6866.394
7008.224
7131.685
7234.289
7314.28
7370.729
7403.278
7411.935
7394.165
7350.096
7282.258
7193.443
7086.362
6963.753
6828.363
6682.849
6529.745
6371.225
6209.635
6046.159
5882.466
5720.459
5561.823
5407.877
5259.848
5118.668
4984.677
4857.381
4736.648
4622.572
4515.284
4414.879
4321.354
4234.531
4153.967
4076.744
4008.972
3951.304
3897.486
3846.648
3800.356
3759.452
3723.91
3693.125
3666.723
3644.411
3625.01
3608.141
3594.321
3583.766
3576.356
3571.582
3568.61
3566.949
3566.858
3567.797
3569.344
3572.858
3578.876
3586.929
3596.646
3607.645
3618.931
3630.428
3642.014
3653.508
3665.188
3676.926
3688.152
3698.605
3708.218
3716.677
3724.159
3730.466
3735.551
3739.393
3741.2
3740.724
3738.172
3733.695
3727.326
3719.52
3711.202
3703.627
3698.807
3698.623
3704.188
3715.62
3732.789
3754.498
3779.758
3806.848
3833.526
3855.118
3870.011
3881.311
3891.204
3897.743
3898.768
3895.164
3889.346
3882.44
3875.045
3867.054
3858.323
3848.998
3839.441
3830.053
3821.694
3816.151
3815.584
3821.57
3835.14
3856.539
3884.999
3920.832
3963.558
4008.849
4052.731
4094.818
4138.647
4185.945
4243.157
4318
4409.801
4511.483
4616.869
4723.26
4830.211
4937.854
5046.048
5154.366
5262.342
5369.611
5475.885
5580.889
5684.323
5785.843
5885.076
5981.633
6075.127
6165.184
6251.385
6333.589
6411.323
6484.463
6552.898
6616.58
6675.505
6729.706
6779.167
6824.081
6864.361
6900.149
6932.318
6962.477
6991.735
7020.094
7046.982
7072.078
7095.442
7117.379
7138.472
7159.338
7180.698
7203.211
7227.317
7253.536
7282.311
7313.687
7348
7385.276
7424.33
7464.551
7506.287
7547.355
7583.544
7612.068
7637.585
7669.311
7707.313
7735.233
7741.31
7738.162
7741.629
7730.246
7684.123
7630.401
7578.767
7509.638
7427.648
7354.41
7299.874
7265.482
7248.875
7248.274
7261.156
7284.997
7318.146
7356.476
7399.379
7445
7491.932
7539.204
7586.151
7632.314
7677.322
7720.837
7762.563
7802.273
7839.822
7875.135
7908.186
7938.977
7967.53
7993.884
8018.088
8040.213
8060.336
8078.629
8095.216
8110.11
8122.445
8133.13
8142.666
8151.003
8158.096
8164.027
8168.935
8172.963
8176.166
8178.541
8180.17
8181.16
8181.586
8181.512
8180.987
8180.047
8178.721
8177.024
8174.967
8172.553
8169.781
8166.646
8163.143
8159.268
8155.019
8150.397
8145.412
8140.077
8134.422
8128.492
8122.367
8116.176
8110.115
8104.454
8099.495
8095.49
8092.381
8089.796
8087.426
8085.189
8083.1
8081.171
8079.406
8077.776
8076.277
8074.931
8073.719
8072.629
8071.641
8070.728
8069.856
8068.983
8068.061
8067.034
8065.868
8064.554
8063.119
8061.679
8060.407
8059.402
8059.016
8058.705
8059.24
8060.441
8062.277
8064.668
8067.064
8069.507
8071.495
8073.947
8075.155
8075.075
8074.304
8072.958
8070.904
8067.705
8063.159
8057.293
8050.119
8041.666
8032.117
8021.759
8010.97
8000.195
7989.924
7980.666
7972.893
7967.214
7964.302
7964.57
7968.403
7976.08
7987.814
8003.669
8023.441
8046.57
8072.299
8099.062
8118.83
8129.462
8156.498
8188.106
8227.773
8258.148
8279.336
8294.612
8304.931
8310.534
8311.901
8309.576
8304.351
8296.67
8287.543
8276.896
8266.172
8256.173
8249.041
8245.054
8242.288
8239.685
8237.153
8234.855
8232.682
8230.638
8228.863
8227.131
8225.349
8223.614
8221.996
8220.465
8218.943
8217.387
8215.798
8214.181
8212.53
8210.839
8209.116
8207.373
8205.615
8203.845
8202.066
8200.282
8198.487
8196.686
8194.877
8193.049
8191.213
8189.337
8187.504
8185.509
8183.505
8181.476
8179.407
8177.292
8175.129
8172.917
8170.656
8168.345
8165.987
8163.581
8161.131
8158.638
8156.103
8153.529
8150.918
8148.27
8145.586
8142.864
8140.105
8137.307
8134.466
8131.581
8128.647
8125.663
8122.627
8119.541
8116.403
8113.21
8109.96
8106.649
8103.273
8099.836
8096.334
8092.767
8089.115
8085.358
8081.474
8077.432
8073.213
8068.793
8064.171
8059.308
8054.202
8048.785
8043.062
8036.932
8030.431
8023.485
8016.162
8008.546
8000.485
7992.342
7984.068
7975.649
7966.791
7956.917
7943.983
7925.59
4431.74
4394.1
4356.322
4316.488
4273.377
4225.961
4181.554
4136.453
4091.53
4046.772
4002.838
3961.207
3920.329
3881.965
3847.576
3816.479
3788.825
3771.663
3762.501
3756.965
3750.727
3748.556
3756.061
3776.547
3811.439
3861.033
3924.948
4003.263
4097.901
4207.807
4332.538
4471.306
4623.151
4787.226
4962.08
5145.601
5335.75
5530.314
5727.122
5923.418
6116.819
6303.942
6474.097
6645.632
6802.202
6943.421
7066.695
7169.168
7249.342
7305.844
7337.616
7344.481
7325.63
7281.009
7212.378
7122.486
7014.33
6890.904
6755.157
6609.826
6457.301
6299.408
6138.459
5976.268
5813.998
5653.356
5495.81
5342.61
5195.542
5056.079
4924.238
4799.314
4681.296
4570.146
4465.664
4367.655
4276.203
4191.067
4112.693
4041.19
3977.225
3920.173
3867.819
3819.296
3775.097
3735.792
3701.608
3672.36
3647.643
3626.622
3608.323
3592.673
3580.144
3570.961
3564.937
3561.426
3559.43
3558.339
3558.271
3559.113
3561.121
3565.339
3572.486
3581.183
3591.897
3604.624
3616.819
3629.042
3641.483
3654.293
3667.253
3680.034
3691.949
3702.885
3712.976
3722.019
3729.811
3736.108
3740.939
3744.585
3746.541
3745.904
3742.114
3734.922
3724.348
3711.125
3696.855
3683.75
3674.249
3670.382
3673.395
3683.335
3699.549
3720.821
3745.659
3772.102
3798.14
3821.645
3841.194
3856.827
3869.543
3879.273
3885.002
3886.633
3885.021
3881.014
3875.227
3867.771
3858.595
3847.819
3835.924
3823.18
3810.081
3799.088
3792.997
3792.861
3798.947
3810.52
3826.831
3848.296
3876.993
3913.452
3955.926
4003.123
4056.105
4116.744
4188.011
4272.506
4369.773
4475.904
4586.54
4699.036
4812.374
4926.213
5040.238
5154.011
5267.071
5379.012
5489.489
5598.181
5704.749
5808.826
5910.023
6007.934
6102.145
6192.255
6277.881
6358.724
6434.49
6505.035
6570.333
6630.458
6685.596
6736.003
6781.958
6823.853
6862.018
6896.878
6929.036
6959.505
6989.025
7017.648
7044.956
7070.567
7094.376
7116.544
7137.472
7157.65
7177.644
7198.042
7219.335
7242.047
7266.674
7293.419
7322.536
7354.279
7388.08
7422.79
7457.996
7493.203
7527.018
7556.952
7583.569
7612.374
7642.162
7663.118
7675.146
7685.844
7686.35
7666.498
7635.774
7600.31
7545.088
7470.622
7396.177
7334.886
7287.878
7253.371
7234.711
7233.211
7247.348
7274.231
7309.83
7352.798
7398.506
7445.981
7494.056
7541.917
7589.125
7635.371
7680.386
7723.895
7765.611
7805.289
7842.763
7877.961
7910.868
7941.501
7969.894
7996.09
8020.145
8042.124
8062.091
8080.122
8096.226
8110.471
8122.871
8133.644
8142.974
8150.97
8157.739
8163.381
8168.013
8171.74
8174.664
8176.824
8178.265
8179.09
8179.374
8179.176
8178.545
8177.516
8176.115
8174.359
8172.257
8169.813
8167.024
8163.888
8160.4
8156.558
8152.362
8147.82
8142.947
8137.769
8132.326
8126.678
8120.914
8115.154
8109.553
8104.3
8099.591
8095.579
8092.254
8089.431
8086.921
8084.634
8082.55
8080.658
8078.938
8077.392
8075.957
8074.645
8073.431
8072.288
8071.182
8070.073
8068.92
8067.668
8066.266
8064.675
8062.884
8060.89
8058.718
8056.444
8054.16
8051.918
8050.035
8048.953
8048.763
8049.544
8051.092
8053.164
8055.19
8057.457
8060.112
8063.658
8067.016
8069.112
8070.054
8070.208
8069.068
8065.975
8061.255
8055.311
8048.174
8039.701
8030.058
8019.581
8008.643
7997.66
7987.097
7977.429
7968.961
7962.333
7958.582
7957.854
7960.795
7967.754
7978.622
7993.643
8012.752
8035.403
8060.851
8085.968
8091.861
8112.72
8139.192
8164.843
8195
8237.467
8263.738
8279.454
8290.184
8295.583
8294.023
8292.233
8290.293
8285.829
8277.781
8267.208
8247.295
8227.177
8220.77
8225.662
8232.118
8233.181
8232.124
8230.984
8229.744
8228.281
8226.783
8225.276
8223.771
8222.34
8221.021
8219.786
8218.575
8217.334
8216.04
8214.688
8213.275
8211.793
8210.244
8208.635
8206.976
8205.274
8203.536
8201.766
8199.969
8198.147
8196.301
8194.43
8192.533
8190.587
8188.564
8186.654
8184.561
8182.455
8180.309
8178.114
8175.869
8173.573
8171.227
8168.832
8166.39
8163.902
8161.371
8158.799
8156.188
8153.541
8150.858
8148.141
8145.39
8142.602
8139.776
8136.91
8134.002
8131.049
8128.049
8124.998
8121.9
8118.751
8115.552
8112.302
8108.998
8105.637
8102.217
8098.732
8095.184
8091.561
8087.854
8084.045
8080.121
8076.06
8071.85
8067.469
8062.916
8058.16
8053.202
8047.98
8042.509
8036.706
8030.615
8024.186
8017.462
8010.491
8003.243
7995.889
7988.323
7980.61
7972.528
7963.461
7952.07
7936.485
4801.366
4758.938
4720.642
4683.622
4649.159
4610.681
4576.877
4542.716
4507.773
4471.854
4435.402
4398.557
4359.445
4319.433
4276.407
4226.868
4182.207
4137.522
4092.721
4048.059
4003.761
3960.617
3918.841
3878.787
3841.476
3808.427
3779.878
3756.34
3738.283
3724.991
3716.608
3715.664
3724.352
3744.408
3777.38
3824.399
3886.405
3963.651
4056.079
4163.803
4286.519
4423.514
4573.76
4736.029
4908.834
5090.256
5278.449
5471.05
5666.059
5860.568
6051.866
6236.719
6412.073
6580.362
6735.327
6875.037
6996.516
7096.78
7173.988
7226.872
7254.555
7256.811
7233.634
7185.41
7113.621
7020.86
6910.276
6785.129
6648.558
6503.233
6351.663
6195.662
6037.118
5877.573
5718.002
5559.998
5405.524
5255.759
5112.051
4975.714
4846.927
4725.576
4611.616
4504.568
4403.891
4309.269
4220.935
4139.208
4064.728
3997.452
3936.565
3881.357
3831.035
3784.858
3742.695
3705.015
3672.431
3645.11
3622.513
3603.533
3587.041
3572.936
3561.839
3554.281
3550.225
3548.734
3548.093
3547.381
3547.398
3548.534
3551.233
3556.349
3564.75
3574.306
3585.685
3600.611
3614.131
3627.382
3641.422
3655.941
3670.805
3685.004
3697.522
3708.821
3719.507
3729.311
3737.551
3743.952
3748.993
3753.02
3755.025
3753.594
3747.862
3737.242
3721.236
3700.57
3678.027
3657.142
3641.07
3632.26
3632.313
3641.21
3657.658
3680.415
3706.534
3734.39
3762.437
3789.161
3813.179
3833.752
3851.052
3865.187
3875.652
3882.122
3884.758
3883.884
3879.785
3872.783
3862.928
3850.132
3834.407
3815.545
3794.074
3774.721
3762.054
3755.349
3753.358
3754.483
3757.72
3763.403
3777.658
3805.829
3846.501
3897.164
3957.745
4029.389
4112.978
4207.8
4313.09
4426.392
4544.527
4664.965
4786.292
4907.838
5029.182
5149.881
5269.46
5387.467
5503.498
5617.175
5728.106
5835.878
5940.065
6040.208
6135.83
6226.487
6311.764
6391.311
6464.87
6532.318
6593.729
6649.389
6699.77
6745.451
6786.998
6825.013
6860.116
6892.949
6924.061
6954.27
6984.123
7013.464
7041.678
7068.167
7092.597
7114.921
7135.37
7154.361
7172.444
7190.228
7208.277
7227.133
7247.284
7269.035
7292.782
7318.881
7346.945
7376.282
7406.675
7437.254
7466.985
7494.881
7520.306
7544.697
7569.182
7590.696
7606.46
7615.033
7613.318
7603.621
7587.993
7557.216
7508.408
7451.293
7394.004
7339.895
7292.073
7257.706
7242.23
7244.001
7259.575
7286.147
7321.51
7363.09
7408.769
7456.252
7504.152
7551.559
7598.048
7643.459
7687.677
7730.502
7771.641
7810.792
7847.751
7882.455
7914.91
7945.139
7973.178
7999.068
8022.859
8044.591
8064.288
8082.012
8097.82
8111.839
8124.143
8134.782
8143.905
8151.663
8158.177
8163.557
8167.942
8171.366
8173.894
8175.701
8176.893
8177.525
8177.649
8177.314
8176.563
8175.43
8173.938
8172.103
8169.933
8167.431
8164.595
8161.421
8157.907
8154.051
8149.859
8145.342
8140.523
8135.434
8130.126
8124.664
8119.137
8113.656
8108.352
8103.368
8098.843
8094.872
8091.468
8088.548
8086.003
8083.755
8081.766
8080.011
8078.46
8077.074
8075.808
8074.644
8073.542
8072.456
8071.331
8070.108
8068.742
8067.168
8065.315
8063.161
8060.705
8057.945
8054.905
8051.611
8047.98
8043.631
8039.49
8037.194
8036.601
8037.271
8038.251
8039.779
8038.417
8027.517
8031.083
8044.768
8055.874
8060.455
8062.692
8063.783
8063.65
8061.726
8057.698
8051.882
8044.704
8036.282
8026.736
8016.352
8005.479
7994.505
7983.857
7973.979
7965.096
7957.931
7953.521
7952.014
7953.905
7959.747
7969.929
7984.014
8002.152
8024.114
8049.225
8076.099
8097.351
8097.325
8120.403
8147.603
8192.894
8226.777
8247.701
8263.268
8274.786
8280.633
8267.663
8260.415
8268.888
8272.882
8267.262
8257.965
8226.343
8105.047
8109.384
8182.013
8220.739
8226.844
8227.338
8227.374
8227.16
8226.083
8224.766
8223.444
8222.177
8220.998
8219.922
8218.926
8217.97
8217.009
8215.997
8214.917
8213.757
8212.505
8211.158
8209.72
8208.201
8206.61
8204.955
8203.243
8201.481
8199.674
8197.823
8195.929
8193.99
8191.999
8189.952
8187.844
8185.778
8183.614
8181.392
8179.116
8176.784
8174.399
8171.962
8169.475
8166.941
8164.362
8161.743
8159.085
8156.392
8153.666
8150.908
8148.118
8145.297
8142.441
8139.547
8136.614
8133.637
8130.613
8127.541
8124.422
8121.256
8118.041
8114.779
8111.473
8108.118
8104.712
8101.247
8097.722
8094.129
8090.46
8086.709
8082.864
8078.915
8074.847
8070.656
8066.327
8061.856
8057.218
8052.416
8047.402
8042.189
8036.713
8031.007
8025.029
8018.82
8012.4
8005.81
7999.075
7992.23
7985.268
7978.049
7970.134
7960.745
7948.747
4978.488
4967.129
4932.344
4885.826
4837.995
4794.255
4753.558
4716.096
4681.165
4646.118
4607.259
4573.815
4540.38
4506.214
4471.018
4434.754
4397.273
4358.202
4317.563
4275.949
4234.205
4190.319
4145.756
4100.757
4055.728
4010.782
3966.23
3922.345
3879.178
3837.314
3798.31
3764.197
3735.023
3710.988
3693.348
3683.303
3682.078
3691.048
3711.463
3744.358
3790.759
3851.415
3926.903
4017.465
4123.225
4243.935
4378.979
4527.373
4687.81
4858.724
5038.085
5224.114
5414.08
5605.032
5795.198
5982.25
6163.567
6337.16
6501.647
6653.215
6788.431
6904.345
6998.486
7069.104
7115.073
7135.847
7131.399
7102.011
7048.427
6972.105
6875.576
6762.045
6634.868
6497.617
6352.783
6202.962
6050.158
5895.828
5740.91
5586.42
5433.299
5282.784
5137.079
4998.149
4867.043
4744.163
4629.439
4522.139
4421.354
4326.19
4236.231
4152.009
4074.456
4004.482
3941.769
3884.737
3832.568
3784.985
3741.425
3701.495
3665.665
3635.066
3610.362
3590.922
3575.071
3560.819
3548.236
3538.59
3532.966
3531.547
3533.412
3535.244
3534.415
3534.492
3535.963
3538.897
3544.723
3554.788
3566.523
3578.42
3594.675
3610.125
3625.219
3641.533
3658.438
3676.098
3692.374
3705.321
3716.617
3727.715
3738.14
3746.876
3753.73
3759.692
3765.032
3767.501
3765.005
3756.413
3740.834
3717.582
3687.303
3653.679
3621.952
3596.934
3582.232
3579.786
3588.701
3606.924
3632.171
3661.417
3692.612
3724.673
3756.345
3786.097
3812.666
3835.647
3855.037
3870.66
3882.165
3889.277
3891.825
3889.502
3882.85
3872.21
3857.483
3837.741
3810.627
3775.942
3744.187
3723.975
3710.877
3703.17
3694.193
3681.916
3666.459
3662.751
3683.001
3721.792
3774.5
3843.155
3925.977
4020.349
4125.826
4241.259
4364.011
4491.541
4621.485
4752.189
4882.782
5012.824
5141.869
5269.406
5394.915
5517.921
5637.971
5754.601
5867.326
5975.649
6079.034
6176.911
6268.763
6354.016
6432.246
6503.245
6566.958
6623.556
6673.553
6717.82
6757.383
6793.117
6826.071
6857.308
6887.213
6916.517
6946.066
6976.429
7007.125
7036.98
7064.912
7090.243
7112.748
7132.564
7150.097
7165.924
7180.686
7195.023
7209.59
7224.961
7241.486
7259.654
7279.9
7302.103
7326.038
7351.468
7377.508
7403.453
7428.419
7451.445
7472.96
7494.661
7514.184
7527.425
7535.008
7538.87
7538.661
7529.973
7508.602
7477.673
7441.026
7399.89
7356.799
7320.534
7295.214
7282.814
7283.236
7296.028
7320.709
7354.759
7394.481
7437.471
7482.175
7527.394
7572.181
7616.186
7659.317
7701.54
7742.669
7782.376
7820.256
7856
7889.575
7921.039
7950.421
7977.745
8003.033
8026.328
8047.65
8066.979
8084.355
8099.857
8113.579
8125.59
8135.962
8144.849
8152.39
8158.667
8163.783
8167.849
8170.951
8173.185
8174.726
8175.706
8176.159
8176.125
8175.65
8174.773
8173.524
8171.925
8169.989
8167.724
8165.131
8162.208
8158.952
8155.363
8151.441
8147.195
8142.641
8137.809
8132.737
8127.481
8122.114
8116.724
8111.415
8106.301
8101.5
8097.117
8093.228
8089.854
8086.966
8084.5
8082.397
8080.613
8079.104
8077.824
8076.725
8075.757
8074.865
8073.987
8073.067
8072.022
8070.754
8069.198
8067.304
8065.006
8062.259
8059.064
8055.433
8051.479
8047.181
8042.044
8031.403
8011.117
8010.453
8019.673
8024.812
8025.449
8026.038
8016.365
7979.445
7981.515
8010.287
8040.304
8049.013
8052.637
8054.941
8055.831
8054.877
8051.74
8046.562
8039.758
8031.672
8022.522
8012.552
8002.064
7991.402
7980.952
7971.14
7962.378
7954.769
7949.686
7947.541
7948.65
7953.867
7963.018
7975.993
7993.027
8013.981
8038.302
8064.987
8091.94
8106.797
8112.286
8152.246
8189.159
8213.307
8232.303
8247.943
8259.947
8265.72
8250.313
8241.995
8245.906
8257.482
8256.354
8248.735
8198.036
8024.784
8006.589
8086.563
8186.441
8216.66
8223.773
8225.374
8225.543
8224.501
8223.172
8221.848
8220.628
8219.571
8218.68
8217.903
8217.18
8216.469
8215.733
8214.935
8214.049
8213.052
8211.934
8210.7
8209.358
8207.914
8206.376
8204.755
8203.057
8201.288
8199.454
8197.558
8195.601
8193.582
8191.504
8189.37
8187.194
8184.956
8182.651
8180.287
8177.863
8175.382
8172.846
8170.259
8167.624
8164.946
8162.229
8159.477
8156.695
8153.884
8151.046
8148.182
8145.289
8142.364
8139.403
8136.402
8133.357
8130.259
8127.115
8123.927
8120.688
8117.402
8114.075
8110.713
8107.311
8103.863
8100.362
8096.803
8093.177
8089.475
8085.692
8081.822
8077.854
8073.794
8069.637
8065.374
8061.004
8056.508
8051.882
8047.094
8042.147
8036.994
8031.651
8026.085
8020.332
8014.393
8008.356
8002.222
7996.052
7989.799
7983.484
7976.856
7969.564
7960.823
4969.221
4944.347
4890.447
4849.446
4809.24
4771.626
4736.334
4702.842
4670.506
4639.002
4608.247
4576.602
4544.257
4510.903
4476.492
4440.74
4403.509
4364.622
4323.893
4281.647
4239.015
4195.126
4150.259
4104.917
4059.302
4013.054
3965.967
3918.55
3871.709
3826.21
3783.524
3745.548
3713.186
3686.825
3667.55
3656.475
3654.668
3663.208
3683.077
3715.317
3760.765
3820.137
3894.052
3982.904
4086.827
4205.588
4338.606
4484.907
4643.143
4811.613
4988.031
5169.546
5353.906
5539.172
5724.055
5907.137
6084.955
6254.342
6412.732
6557.209
6684.365
6791.258
6875.713
6936.367
6972.463
6983.874
6970.921
6934.046
6874.249
6792.925
6692.363
6576.109
6447.167
6309.528
6166.266
6019.521
5871.739
5723.729
5575.186
5427.003
5279.71
5134.185
4993.388
4860.163
4736.199
4621.901
4516.192
4417.431
4324.271
4235.64
4151.224
4071.716
3998.312
3933.089
3876.026
3823.985
3775.841
3731.635
3690.755