/*--------------------------------*- C++ -*----------------------------------*\
| =========                 |                                                 |
| \\      /  F ield         | foam-extend: Open Source CFD                    |
|  \\    /   O peration     | Version:     3.1                                |
|   \\  /    A nd           | Web:         http://www.extend-project.de       |
|    \\/     M anipulation  |                                                 |
\*---------------------------------------------------------------------------*/
FoamFile
{
    version     2.0;
    format      ascii;
    class       surfaceScalarField;
    location    "14";
    object      phi;
}
// * * * * * * * * * * * * * * * * * * * * * * * * * * * * * * * * * * * * * //

dimensions      [0 3 -1 0 0 0 0];

internalField   nonuniform List<scalar> 
275122
(
-0.000366781
0.0003714186
-3.386565e-07
-4.298965e-06
-0.0003266529
0.0003113259
1.267089e-06
1.405984e-05
-0.0003228134
0.0003308428
-3.464389e-07
-7.682971e-06
-0.0003580003
0.0003674497
-4.239852e-07
-9.025413e-06
-0.0003912749
0.0003941408
-4.817123e-07
-2.384151e-06
-0.0003944361
0.0003940171
-4.255381e-07
8.445206e-07
-0.0003912713
0.0003902281
-3.968079e-07
1.439958e-06
-0.0003867635
0.0003855308
-3.65964e-07
1.598591e-06
-0.0003817393
0.0003804586
-3.399336e-07
1.620721e-06
-0.0003766083
0.0003753231
-3.115967e-07
1.596775e-06
-0.0003714577
0.0003701642
-2.816116e-07
1.575146e-06
-0.000366251
0.0003649322
-2.526876e-07
1.571543e-06
-0.0003609104
0.0003595437
-2.264841e-07
1.593203e-06
-0.0003553449
0.0003539086
-2.031527e-07
1.639454e-06
-0.0003494717
0.000347947
-1.825893e-07
1.707282e-06
-0.000343209
0.0003415784
-1.646949e-07
1.795338e-06
-0.0003364802
0.0003347349
-1.498091e-07
1.895131e-06
-0.0003292753
0.0003274446
-1.444289e-07
1.97519e-06
-0.0003220006
0.0003203563
-1.974389e-07
1.841753e-06
-0.0003167119
0.0003170344
-5.779576e-07
2.554414e-07
-0.0003508955
0.0003644617
-1.222005e-06
-1.234419e-05
-0.0003663529
0.0003651313
-1.683342e-07
1.389923e-06
-0.0003656461
0.0003670403
-1.284761e-07
-1.265732e-06
-0.0004030155
0.0004160371
4.125671e-07
-1.343413e-05
-0.0004125475
0.0004088026
6.848558e-07
3.060024e-06
-0.0004028425
0.0004002777
-1.671228e-07
2.731941e-06
-0.0003926766
0.0003883342
-1.843787e-07
4.526801e-06
-0.000375686
0.0003691734
-1.914227e-07
6.704028e-06
-0.0003393464
0.0003148381
-3.058536e-07
2.481413e-05
-0.0001645932
0.0001686498
4.105278e-09
-4.060691e-06
-0.000254861
0.0002678035
-6.861474e-08
-1.287392e-05
-0.0003047229
0.0003169344
6.707037e-09
-1.221822e-05
-0.0003541759
0.000366762
7.667168e-09
-1.259378e-05
-0.0004050097
0.0004178228
8.644318e-09
-1.282169e-05
-0.0004570424
0.0004702803
9.002765e-09
-1.324682e-05
-0.0005105823
0.0005241255
7.431111e-09
-1.35507e-05
-0.0005652238
0.0005790224
6.18887e-09
-1.380481e-05
-0.0006207117
0.0006346958
6.200425e-09
-1.399025e-05
-0.0006767593
0.0006908455
9.027992e-09
-1.409529e-05
-0.0007327125
0.000748003
2.207271e-07
-1.55112e-05
1.224947e-05
-0.0005076366
0.0005095119
5.769894e-10
-1.41253e-05
1.24904e-05
-0.0005152184
0.0005169976
-7.215277e-10
-1.426896e-05
1.279402e-05
-0.0005220059
0.0005235789
-1.298399e-09
-1.436578e-05
1.311764e-05
-0.0005280949
0.0005294763
-1.399536e-09
-1.449765e-05
1.353234e-05
-0.0005332392
0.0005343656
-1.382816e-09
-1.465739e-05
1.38489e-05
-0.0005375464
0.0005385135
-8.616431e-10
-1.481509e-05
1.409997e-05
-0.000541294
0.0005421621
-9.581062e-10
-1.496711e-05
1.430847e-05
-0.0005446717
0.0005454973
-1.036943e-09
-1.513306e-05
1.48707e-05
-0.0005478266
0.0005476376
-7.080418e-10
-1.468099e-05
1.323759e-05
-0.002232426
0.002242018
8.396653e-11
-6.314989e-05
1.356848e-05
1.321364e-05
1.353767e-05
1.405136e-05
-0.002250055
0.002256838
3.483236e-11
-6.401625e-05
1.459262e-05
1.402614e-05
1.456232e-05
1.447417e-05
-0.002262588
0.002268087
1.899017e-13
-6.380389e-05
1.470434e-05
1.444582e-05
1.468037e-05
1.452623e-05
-0.002273774
0.002279483
-2.761785e-11
-6.415736e-05
1.472662e-05
1.449765e-05
1.469809e-05
1.471768e-05
-0.002284984
0.002290062
-5.189869e-11
-6.417391e-05
1.485643e-05
1.469164e-05
1.483046e-05
1.479743e-05
-0.002295015
0.002299554
-4.18528e-11
-6.386846e-05
1.489199e-05
1.477238e-05
1.48681e-05
1.478503e-05
-0.002303981
0.002307875
-3.673706e-11
-6.312904e-05
1.485722e-05
1.476024e-05
1.483314e-05
1.459678e-05
-0.002311716
0.002315161
-7.051624e-11
-6.192383e-05
1.466598e-05
1.457219e-05
1.464361e-05
1.443703e-05
-0.002318816
0.002321703
2.701276e-11
-6.06497e-05
1.446944e-05
1.441032e-05
1.444532e-05
1.385525e-05
-0.0023219
0.002324855
-2.141048e-11
-5.834545e-05
1.385929e-05
1.382869e-05
1.384701e-05
1.425413e-05
-0.002327918
0.002328812
-2.014887e-11
-5.797619e-05
1.429592e-05
1.424738e-05
1.428558e-05
1.38325e-05
-0.002329129
0.002329012
-1.038006e-11
-5.48697e-05
1.366662e-05
1.382648e-05
1.366111e-05
1.348063e-05
-0.002328683
0.002327851
6.321627e-12
-5.283389e-05
1.335851e-05
1.347399e-05
1.335216e-05
1.318652e-05
-0.002326722
0.002325116
7.718272e-12
-5.092293e-05
1.308427e-05
1.317919e-05
1.307887e-05
1.289756e-05
-0.00232325
0.002320986
8.565298e-12
-4.913699e-05
1.281011e-05
1.288751e-05
1.280616e-05
1.267001e-05
-0.002318521
0.002315642
3.510936e-12
-4.759639e-05
1.260231e-05
1.26285e-05
1.257466e-05
1.266167e-05
-0.002312543
0.002309134
-1.357151e-12
-4.687865e-05
1.264972e-05
1.248896e-05
1.248694e-05
1.363693e-05
-0.002305282
0.002299553
-4.738832e-12
-4.755904e-05
1.393759e-05
1.274395e-05
1.296922e-05
1.799548e-05
-0.002289288
0.00226931
-6.969888e-12
-4.749514e-05
1.918799e-05
1.547822e-05
1.481099e-05
1.651408e-05
-0.002245349
0.00226197
-9.680522e-12
-3.31351e-05
1.159544e-05
-0.002273135
0.002273658
-1.291303e-11
-1.211894e-05
3.117855e-05
-0.002263216
0.002255086
-1.231399e-11
-2.304825e-05
2.668793e-05
-0.002249504
0.002243851
-1.343727e-11
-2.103473e-05
1.404857e-05
-0.00223781
0.002235592
-1.201719e-11
-1.183033e-05
2.619869e-06
-0.00223679
0.002237679
-9.821028e-12
-3.50903e-06
1.71123e-07
-0.002238089
0.002238668
-9.61276e-12
-7.504279e-07
-5.212922e-07
-0.002239527
0.00224061
-8.760708e-12
-5.615553e-07
-1.955043e-07
-0.002241832
0.002243363
-1.396795e-11
-1.335789e-06
4.728609e-07
-0.002245157
0.002247376
-2.002087e-11
-2.692076e-06
1.410086e-06
-0.002249819
0.002252731
-2.563787e-11
-4.321439e-06
2.278042e-06
-0.002255924
0.002259615
-2.95417e-11
-5.968436e-06
3.01165e-06
-0.002263595
0.002268065
-3.086667e-11
-7.482431e-06
3.542932e-06
-0.00227282
0.002278037
-2.992231e-11
-8.759456e-06
3.794236e-06
-0.002283523
0.002289412
-2.705168e-11
-9.683296e-06
3.713937e-06
-0.00229553
0.002301966
-2.269949e-11
-1.014978e-05
3.348427e-06
-0.002308593
0.002315337
-1.851328e-11
-1.009241e-05
2.887758e-06
-0.002322257
0.002329008
-1.527485e-11
-9.638577e-06
3.044184e-06
-0.002335829
0.002341957
-1.260015e-11
-9.172418e-06
5.126113e-06
-0.002347523
0.002351776
-9.959872e-12
-9.378796e-06
1.081082e-05
-0.002351788
0.002350643
-7.88034e-12
-9.66594e-06
1.95723e-07
-0.002354618
0.00235766
-6.878251e-12
-3.238323e-06
8.258728e-06
-0.002358376
0.002355156
-6.584219e-12
-5.038632e-06
2.343592e-05
-0.002340401
0.002322928
-1.428172e-12
-5.963793e-06
-8.298214e-06
-0.002312791
0.002306414
5.816551e-12
1.467521e-05
-3.12231e-05
-0.002301683
0.002293886
1.772743e-11
3.901987e-05
-4.727664e-05
-0.002282872
0.002272142
2.918525e-11
5.800595e-05
-7.169839e-05
-0.002261143
0.002253883
3.684014e-11
7.895839e-05
-0.0001107432
-0.002244567
0.002249239
4.481959e-11
0.0001060721
-2.52484e-05
-0.002257623
0.002245197
5.526174e-11
0.0001033412
-2.040171e-05
-2.512637e-05
-2.013878e-05
-1.589852e-05
-0.002221196
0.0022018
6.674211e-11
8.228714e-05
-1.607249e-05
-1.539589e-05
-1.552375e-05
-1.466838e-05
-0.002181978
0.002159826
7.027957e-11
7.929646e-05
-1.430116e-05
-1.426043e-05
-1.391464e-05
-1.305257e-05
-0.002136251
0.002112363
7.203683e-11
7.492735e-05
-1.278442e-05
-1.272386e-05
-1.247892e-05
-1.202724e-05
-0.002088537
0.002064974
6.438749e-11
7.08892e-05
-1.188794e-05
-1.176778e-05
-1.164335e-05
-1.112079e-05
-0.00204156
0.002018411
5.877341e-11
6.690734e-05
-1.09453e-05
-1.092614e-05
-1.076627e-05
-1.011291e-05
-0.001995487
0.001973126
5.153501e-11
6.218364e-05
-9.934464e-06
-9.970635e-06
-9.805075e-06
-9.147703e-06
-0.001951216
0.001930079
3.877514e-11
5.721552e-05
-8.984939e-06
-9.047328e-06
-8.898148e-06
-8.198993e-06
-0.001909491
0.001889836
2.582201e-11
5.201855e-05
-8.040069e-06
-8.136315e-06
-7.98798e-06
-7.300133e-06
-0.001870844
0.001852905
1.19786e-11
4.678426e-05
-7.152866e-06
-7.265627e-06
-7.126388e-06
-6.442477e-06
-0.001835691
0.001819603
-4.348712e-12
4.155412e-05
-6.306542e-06
-6.425472e-06
-6.291341e-06
-5.63114e-06
-0.001804275
0.001790106
-1.981718e-11
3.640462e-05
-5.500708e-06
-5.616647e-06
-5.487078e-06
-4.854121e-06
-0.001776699
0.001764458
-3.262301e-11
3.138715e-05
-4.729095e-06
-4.843146e-06
-4.719389e-06
-4.113061e-06
-0.001752964
0.001742616
-3.972802e-11
2.655581e-05
-3.99432e-06
-4.109398e-06
-3.991869e-06
-3.420991e-06
-0.001732988
0.001724494
-3.758114e-11
2.195001e-05
-3.309309e-06
-3.417313e-06
-3.308413e-06
-2.755129e-06
-0.001716681
0.001709934
-2.969355e-11
1.756191e-05
-2.646155e-06
-2.76149e-06
-2.652398e-06
-2.171546e-06
-0.001703828
0.001698788
-2.436394e-11
1.35469e-05
-2.083867e-06
-2.169301e-06
-2.081761e-06
-1.67145e-06
-0.001694382
0.001690993
-2.389349e-11
9.915857e-06
-1.593582e-06
-1.669195e-06
-1.592402e-06
-1.232035e-06
-0.001688192
0.001686333
-2.526125e-11
6.65045e-06
-1.164089e-06
-1.231257e-06
-1.163972e-06
-8.560029e-07
-0.001685021
0.001684555
-2.405306e-11
3.777981e-06
-8.000989e-07
-8.559956e-07
-8.001891e-07
-5.516134e-07
-0.0016846
0.001685378
-1.831109e-11
1.343668e-06
-5.095719e-07
-5.515229e-07
-5.092539e-07
-3.310307e-07
-0.001686656
0.001688532
-8.186189e-12
-6.026832e-07
-3.061255e-07
-3.305338e-07
-3.050523e-07
-2.046299e-07
-0.001690839
0.001693639
2.278157e-12
-2.001681e-06
-1.962502e-07
-2.033311e-07
-1.949502e-07
-1.841533e-07
-0.001696781
0.001700281
1.036104e-11
-2.749726e-06
-1.933938e-07
-1.811707e-07
-1.912434e-07
-2.849793e-07
-0.00170403
0.001707974
1.785369e-11
-2.754637e-06
-3.143594e-07
-2.794289e-07
-3.106645e-07
-5.073303e-07
0.001716148
2.537159e-11
-1.973572e-06
-5.548548e-07
-4.981248e-07
-5.486636e-07
-0.001712066
-8.918878e-07
-0.001720241
0.001724113
3.479576e-11
-1.656159e-07
-9.770606e-07
-8.74554e-07
-9.631628e-07
-1.567976e-06
-0.001727888
0.001731302
4.511402e-11
3.077859e-06
-1.716025e-06
-1.527402e-06
-1.680476e-06
-2.566827e-06
-0.0017345
0.001737107
5.816337e-11
7.90355e-06
-2.772272e-06
-2.482596e-06
-2.689418e-06
-3.921631e-06
-0.001739358
0.001740864
7.336805e-11
1.436904e-05
-4.203509e-06
-3.741337e-06
-4.008553e-06
-5.711763e-06
-0.001741935
0.001742187
8.99008e-11
2.266047e-05
-6.107095e-06
-5.377193e-06
-5.715897e-06
-7.921105e-06
-0.001742054
0.001741093
9.918576e-11
3.255544e-05
-8.395123e-06
-7.435645e-06
-7.842475e-06
-9.983735e-06
-0.001739754
0.001737255
9.338323e-11
4.227109e-05
-1.02351e-05
-9.602042e-06
-9.950457e-06
-1.04216e-05
-0.00173372
0.001727922
6.89171e-11
4.767173e-05
-1.01835e-05
-1.065898e-05
-1.060974e-05
-9.026523e-06
-0.001719672
0.001708335
4.518358e-11
4.777092e-05
-8.616186e-06
-9.616436e-06
-9.174615e-06
-7.318833e-06
-0.001694358
0.001677868
2.644776e-11
4.578749e-05
-7.009764e-06
-7.682478e-06
-7.286857e-06
-6.037489e-06
-0.001659572
0.001639741
6.36356e-12
4.379386e-05
-5.842148e-06
-6.155306e-06
-5.928011e-06
-5.068133e-06
-0.001619046
0.001597786
-1.376784e-11
4.135047e-05
-4.927237e-06
-5.120827e-06
-4.973823e-06
-4.283571e-06
-0.001576532
0.001555583
-3.027197e-11
3.797009e-05
-4.191382e-06
-4.319183e-06
-4.226694e-06
-3.651412e-06
-0.001535358
0.001516102
-4.120536e-11
3.377852e-05
-3.583716e-06
-3.679748e-06
-3.60804e-06
-3.098128e-06
-0.001498049
0.001481373
-5.317761e-11
2.897053e-05
-3.037235e-06
-3.110637e-06
-3.048943e-06
-2.580993e-06
-0.001466111
0.001452358
-6.668988e-11
2.396181e-05
-2.518635e-06
-2.586219e-06
-2.523063e-06
-2.092636e-06
-0.00143997
0.001429044
-8.019987e-11
1.917727e-05
-2.033514e-06
-2.092083e-06
-2.032864e-06
-1.670949e-06
-0.001419337
0.001410993
-8.997346e-11
1.491768e-05
-1.618573e-06
-1.668013e-06
-1.61604e-06
-1.330709e-06
-0.001403674
0.00139752
-9.492905e-11
1.139498e-05
-1.293906e-06
-1.327038e-06
-1.289301e-06
-1.103725e-06
-0.001392188
0.001387769
-9.499675e-11
8.786461e-06
-1.08389e-06
-1.099735e-06
-1.080126e-06
-9.97612e-07
-0.001383972
0.00138084
-8.766637e-11
7.110763e-06
-9.949517e-07
-9.94597e-07
-9.916645e-07
-1.017783e-06
-0.001378149
0.001375824
-7.651651e-11
6.426108e-06
-1.037304e-06
-1.01359e-06
-1.032742e-06
-1.158369e-06
-0.001373774
0.001371761
-7.014892e-11
6.698409e-06
-1.19488e-06
-1.147739e-06
-1.184199e-06
-1.330576e-06
-0.001369482
0.001366691
-6.861109e-11
8.040645e-06
-1.345968e-06
-1.285852e-06
-1.286709e-06
-1.702282e-06
-0.001364092
0.001360126
-7.071742e-11
1.096316e-05
-1.768626e-06
-1.744318e-06
-1.781811e-06
-3.063994e-06
-0.001356811
0.001352487
-1.082301e-10
1.699776e-05
-3.29379e-06
-3.042274e-06
-3.274299e-06
-4.383477e-06
-0.001346384
0.001338637
-1.565683e-10
2.526982e-05
-4.499015e-06
-4.233603e-06
-4.406816e-06
-6.316797e-06
-0.001329978
0.001319405
-3.974732e-10
3.58719e-05
-6.803854e-06
-5.865079e-06
-6.31315e-06
-1.046388e-05
-0.00130664
0.00129297
-5.319211e-10
5.453155e-05
-1.15063e-05
-9.147784e-06
-9.743293e-06
-2.025648e-05
-0.001279779
0.001267377
-1.410515e-09
9.32043e-05
-2.344183e-05
-1.739798e-05
-1.970436e-05
-2.921599e-05
-0.001258473
0.001249895
2.154844e-10
0.0001238944
-2.869399e-05
-2.817004e-05
-2.923686e-05
-1.883472e-05
-0.001229918
0.001192096
5.234802e-10
0.0001131786
-1.600017e-05
-2.173621e-05
-1.878569e-05
-5.390419e-06
-0.001137187
0.001065916
-1.464064e-09
9.122393e-05
-3.543983e-06
-6.689611e-06
-4.32742e-06
-5.40709e-07
-0.0009805746
0.00089761
-1.389842e-09
8.621525e-05
-9.348031e-07
-6.556218e-07
-1.118193e-06
-3.2328e-06
-0.0008290703
0.0007769544
-5.703634e-10
6.756938e-05
-4.142136e-06
-3.59497e-06
-4.483062e-06
-6.659147e-06
-0.0007364995
0.0007017797
1.0408e-09
6.165963e-05
-6.674263e-06
-6.811769e-06
-6.795673e-06
-4.887974e-06
-0.0006742579
0.000652927
2.087571e-09
4.010697e-05
-4.474112e-06
-4.919633e-06
-4.496397e-06
-3.120696e-06
-0.000637204
0.0006234501
1.869866e-09
2.622151e-05
-3.109389e-06
-3.126129e-06
-3.113224e-06
-3.537569e-06
-0.0006093401
0.0005947556
1.119729e-09
2.892203e-05
-3.632218e-06
-3.537383e-06
-3.631485e-06
-4.302894e-06
-0.0005789075
0.0005618495
5.062917e-10
3.446043e-05
-4.400491e-06
-4.301112e-06
-4.398491e-06
-4.997505e-06
-0.0005437382
0.0005240919
1.724031e-10
3.976801e-05
-5.065434e-06
-4.995558e-06
-5.063393e-06
-5.362904e-06
-0.0005037178
0.0004826594
2.397756e-11
4.249637e-05
-5.357763e-06
-5.361353e-06
-5.355991e-06
-5.259939e-06
-0.0004616598
0.0004410664
-2.291421e-11
4.151037e-05
-5.199842e-06
-5.258749e-06
-5.198365e-06
-4.842462e-06
-0.0004210649
0.0004021024
-3.254511e-11
3.814587e-05
-4.75022e-06
-4.841572e-06
-4.749038e-06
-4.218281e-06
-0.0003840414
0.0003675197
-2.62089e-11
3.317125e-05
-4.107257e-06
-4.217655e-06
-4.106372e-06
-3.480533e-06
-0.0003521133
0.0003384975
-1.177432e-11
2.730596e-05
-3.365047e-06
-3.480149e-06
-3.364438e-06
-2.710697e-06
-0.0003260685
0.0003154958
4.069036e-12
2.119057e-05
-2.598514e-06
-2.710521e-06
-2.598152e-06
-1.950022e-06
-0.0003061181
0.0002985842
1.617204e-11
1.512532e-05
-1.845814e-06
-1.950012e-06
-1.845651e-06
-1.229327e-06
-0.0002922127
0.0002876056
2.476172e-11
9.341157e-06
-1.137701e-06
-1.229418e-06
-1.137607e-06
-5.782939e-07
0.0002821696
3.057173e-11
4.073758e-06
-0.0002840799
-5.032805e-07
-5.785857e-07
-5.033012e-07
-1.88586e-08
-0.0002812113
0.000281677
3.454151e-11
-4.994473e-07
3.612957e-08
-1.889825e-08
3.53972e-08
4.310866e-07
-0.0002829148
0.0002853428
3.723353e-11
-4.256556e-06
4.840828e-07
4.303271e-07
4.829787e-07
7.953196e-07
-0.0002884077
0.000292469
3.710005e-11
-7.322703e-06
8.360151e-07
7.946779e-07
8.353039e-07
1.075527e-06
-0.0002970599
0.0003024613
3.537666e-11
-9.763553e-06
1.106295e-06
1.074782e-06
1.105491e-06
1.287198e-06
-0.0003082872
0.0003147619
3.289991e-11
-1.166572e-05
1.309109e-06
1.286387e-06
1.308271e-06
1.439828e-06
-0.0003215734
0.0003288964
2.982143e-11
-1.310979e-05
1.454417e-06
1.438961e-06
1.453551e-06
1.543602e-06
-0.0003364824
0.0003444649
2.634081e-11
-1.417259e-05
1.552292e-06
1.542726e-06
1.551434e-06
1.607839e-06
-0.0003526497
0.0003611361
2.273598e-11
-1.492408e-05
1.61187e-06
1.606978e-06
1.611026e-06
1.640438e-06
-0.0003697753
0.000378638
1.936244e-11
-1.542352e-05
1.640805e-06
1.639593e-06
1.639966e-06
1.647698e-06
-0.000387613
0.0003967459
1.644411e-11
-1.571691e-05
1.645121e-06
1.646882e-06
1.644309e-06
1.634026e-06
-0.0004059577
0.000415272
1.399277e-11
-1.583916e-05
1.629164e-06
1.633253e-06
1.628383e-06
1.603056e-06
-0.0004246369
0.0004340574
1.183981e-11
-1.581843e-05
1.596632e-06
1.602301e-06
1.595903e-06
1.555496e-06
-0.0004435064
0.0004529791
9.795197e-12
-1.567596e-05
1.546774e-06
1.554857e-06
1.546171e-06
1.496726e-06
-0.0004624645
0.0004719384
8.037206e-12
-1.544224e-05
1.487888e-06
1.496238e-06
1.487451e-06
1.431441e-06
-0.0004814076
0.0004908414
6.473556e-12
-1.51394e-05
1.42161e-06
1.430933e-06
1.421544e-06
1.35986e-06
-0.0005002582
0.0005096215
5.386665e-12
-1.478017e-05
1.348834e-06
1.358984e-06
1.349103e-06
1.281749e-06
-0.0005189591
0.0005282247
5.003077e-12
-1.437439e-05
1.273121e-06
1.281479e-06
1.272439e-06
1.19836e-06
-0.0005374599
0.0005466189
4.802667e-12
-1.393035e-05
1.187562e-06
1.198865e-06
1.186554e-06
1.110895e-06
-0.0005557484
0.0005647971
4.375325e-12
-1.347005e-05
1.099944e-06
1.110904e-06
1.099644e-06
1.034669e-06
-0.0005738067
0.0005827078
4.505665e-12
-1.30265e-05
1.02816e-06
1.034553e-06
1.028013e-06
9.626349e-07
-0.0005915541
0.0006002892
4.960679e-12
-1.256856e-05
9.542342e-07
9.625154e-07
9.54094e-07
8.846603e-07
-0.0006089719
0.0006175631
5.598144e-12
-1.211726e-05
8.785141e-07
8.845744e-07
8.783374e-07
8.077747e-07
-0.0006260999
0.0006344712
6.219661e-12
-1.162325e-05
8.182916e-07
8.078628e-07
8.180666e-07
8.527101e-07
-0.0006424969
0.0006499758
6.664716e-12
-1.106866e-05
9.39993e-07
8.539591e-07
9.430857e-07
1.291137e-06
-0.0001628933
0.0001631655
4.122316e-11
-1.563456e-06
7.229206e-07
-0.0001653404
0.0001661973
5.831155e-11
-1.579833e-06
5.748427e-07
-0.0001688749
0.0001698233
6.906923e-11
-1.523361e-06
4.918442e-07
-0.0001726218
0.0001735463
6.389416e-11
-1.416467e-06
3.981186e-07
-0.0001763024
0.0001772049
8.610038e-11
-1.300725e-06
3.241405e-07
-0.0001798826
0.0001807616
1.178959e-10
-1.203191e-06
2.576267e-07
-0.00018337
0.0001842286
1.434716e-10
-1.116365e-06
1.993362e-07
-0.0001867798
0.0001876197
1.577055e-10
-1.039393e-06
1.449743e-07
-0.0001901187
0.0001909433
1.651306e-10
-9.697805e-07
9.330967e-08
-0.0001933938
0.0001942063
1.600952e-10
-9.059327e-07
4.803501e-08
-0.0001966227
0.0001974181
1.152383e-10
-8.435378e-07
6.875637e-10
-0.0001997988
0.0002005828
2.47743e-10
-7.848779e-07
-5.699945e-08
-0.0002029273
0.0002037076
1.435093e-10
-7.233959e-07
-9.967472e-08
-0.0002060347
0.0002068049
1.932684e-10
-6.707001e-07
-1.397813e-07
-0.0002091049
0.0002098674
1.77866e-10
-6.228341e-07
-1.803399e-07
-0.0002121465
0.0002129024
1.525008e-10
-5.757647e-07
-2.209338e-07
-0.0002151628
0.0002159126
1.536569e-10
-5.290907e-07
-2.61615e-07
-0.0002181547
0.0002188984
1.660898e-10
-4.822266e-07
-3.02858e-07
-0.0002211213
0.0002218582
1.711915e-10
-4.342419e-07
-3.450932e-07
-0.0002240596
0.0002247887
1.765511e-10
-3.842001e-07
-3.887011e-07
-0.0002269646
0.0002276843
1.783614e-10
-3.311626e-07
-4.340729e-07
-0.0002298293
0.0002305375
1.755271e-10
-2.743713e-07
-4.811659e-07
-0.0002326447
0.0002333391
1.76341e-10
-2.133671e-07
-5.300102e-07
-0.0002354007
0.0002360783
1.788079e-10
-1.478187e-07
-5.800774e-07
-0.0002380852
0.0002387431
1.836436e-10
-7.8e-08
-6.310987e-07
-0.0002406871
0.0002413232
1.761774e-10
-5.146218e-09
-6.828934e-07
-0.000243191
0.000243798
1.503153e-10
7.571219e-08
-7.341851e-07
-0.0002455803
0.000246158
1.36984e-10
1.563451e-07
-7.847822e-07
-0.0002478495
0.000248396
1.295717e-10
2.381555e-07
-8.331816e-07
-0.0002499923
0.0002505068
1.201794e-10
3.184994e-07
-8.772554e-07
-0.0002520069
0.0002524902
1.057665e-10
3.938593e-07
-9.140451e-07
-0.0002538993
0.0002543555
8.18714e-11
4.577354e-07
-9.38777e-07
-0.0002556905
0.0002561284
7.760598e-11
5.007734e-07
-9.374259e-07
-0.0002574214
0.0002578636
8.797485e-11
4.950673e-07
-8.561292e-07
-0.0002592259
0.0002597496
8.122855e-11
3.323392e-07
4.98514e-07
-0.0002614062
0.0002614317
1.132848e-10
-5.241442e-07
1.15845e-06
-0.0002618273
0.0002620284
7.173828e-11
-1.359627e-06
1.277984e-06
-0.0002624985
0.0002626862
8.174023e-11
-1.465709e-06
1.342297e-06
-0.0002632477
0.0002634307
7.91146e-11
-1.525334e-06
1.373721e-06
-0.0002639813
0.0002641666
7.441128e-11
-1.559161e-06
1.40624e-06
-0.0002647151
0.0002648956
6.769759e-11
-1.586868e-06
1.434221e-06
-0.0002654417
0.0002656259
6.50354e-11
-1.618554e-06
1.465789e-06
-0.0002661847
0.0002663744
6.53643e-11
-1.655555e-06
1.498557e-06
-0.0002669568
0.0002671571
6.345472e-11
-1.699007e-06
1.534067e-06
-0.000267778
0.000267994
5.036084e-11
-1.750195e-06
1.571151e-06
-0.0002686697
0.0002689068
4.700876e-11
-1.808342e-06
1.610214e-06
-0.0002696514
0.0002699138
5.249607e-11
-1.8727e-06
1.650074e-06
-0.0002707384
0.000271029
6.818136e-11
-1.940729e-06
1.688414e-06
-0.00027194
0.0002722599
8.698813e-11
-2.00847e-06
1.721609e-06
-0.0002732582
0.0002736058
9.446843e-11
-2.069319e-06
1.741375e-06
-0.0002746811
0.0002750515
1.750415e-10
-2.11192e-06
1.737455e-06
-0.0002761834
0.0002765663
2.784205e-10
-2.120614e-06
1.684917e-06
-0.0002777033
0.0002780696
7.185631e-10
-2.051943e-06
1.464911e-06
-0.0002791102
0.0002794433
1.579048e-09
-1.799623e-06
1.170685e-06
-0.0002804232
0.0002807014
1.790074e-09
-1.450602e-06
8.451202e-07
-0.0002813968
0.0002815666
1.981303e-09
-1.016902e-06
4.346522e-07
-0.0002818713
0.0002818838
-2.096446e-12
-4.471053e-07
2.327093e-08
-0.0002816978
0.0002815948
-4.703558e-09
8.447973e-08
1.288891e-07
-0.0002812463
0.0002810497
-1.860718e-09
6.951474e-08
2.68712e-07
-0.0002802415
0.0002799106
2.340405e-09
5.982686e-08
1.474361e-07
-0.0002786286
0.0002780653
3.409926e-09
4.124905e-07
-1.336009e-07
-0.0002759975
0.0002751529
3.108104e-09
9.751111e-07
-4.888404e-07
-0.0002722331
0.000271118
-1.609046e-10
1.604159e-06
-5.912984e-07
-0.0002674623
0.0002661293
-2.873898e-09
1.927165e-06
-3.672975e-07
-0.0002618428
0.0002603235
-2.324651e-09
1.888955e-06
-2.073312e-07
-0.0002556427
0.0002540627
-1.90881e-09
1.78922e-06
-1.504525e-07
-0.0002493726
0.0002478414
-1.338799e-09
1.683009e-06
-7.023614e-08
-0.0002434142
0.0002420134
-7.261333e-10
1.471813e-06
7.17078e-08
-0.0002380991
0.0002368865
-3.863274e-10
1.141354e-06
2.705186e-07
-0.0002335354
0.0002324091
-1.534269e-10
8.559471e-07
-1.725261e-07
-0.0002275094
0.0009354745
-2.759587e-10
7.198369e-06
-6.681997e-07
-1.704915e-07
-6.573819e-07
-0.0002275178
-0.0002429848
-0.0002429919
-5.455262e-08
-0.0009311727
0.0009252253
-2.175117e-10
5.411854e-06
3.390735e-07
-7.014572e-08
3.213795e-07
2.042796e-07
-0.0009202625
0.0009158611
-1.330232e-10
3.416323e-06
3.007164e-07
1.921599e-07
2.879967e-07
3.503726e-07
-0.0009117709
0.0009076892
-7.041123e-11
2.607881e-06
3.971689e-07
3.395007e-07
3.868765e-07
3.509307e-07
-0.0009036166
0.0008992809
-2.138581e-11
2.899081e-06
3.760517e-07
3.420365e-07
3.676171e-07
2.709414e-07
-0.0008946909
0.0008897666
-1.455993e-12
3.859942e-06
2.680954e-07
2.639059e-07
2.613571e-07
1.306205e-07
-0.0008846011
0.0008789933
4.102393e-12
5.111581e-06
1.232225e-07
1.248071e-07
1.175509e-07
7.099991e-09
-0.0008730574
0.0008666354
1.522976e-12
6.409218e-06
3.496173e-09
2.830593e-09
-6.486954e-10
-7.762293e-08
-0.0008598634
0.0008526221
-4.775355e-12
7.565081e-06
-8.068815e-08
-8.133273e-08
-8.407459e-08
-1.542564e-07
-0.0008450881
0.0008371679
-1.079746e-11
8.551237e-06
-1.58642e-07
-1.569766e-07
-1.61111e-07
-2.306844e-07
-0.0008290371
0.000820647
-1.490355e-11
9.329722e-06
-2.375244e-07
-2.323755e-07
-2.390183e-07
-3.033647e-07
-0.0008121519
0.0008035478
-1.745676e-11
9.83455e-06
-3.109007e-07
-3.043911e-07
-3.117685e-07
-3.593806e-07
-0.0007949499
0.0007864011
-1.746688e-11
9.99921e-06
-3.65353e-07
-3.598871e-07
-3.657201e-07
-3.836063e-07
-0.0007779628
0.0007697255
-1.596793e-11
9.7761e-06
-3.856189e-07
-3.837699e-07
-3.857074e-07
-3.630227e-07
-0.0007616892
0.0007539938
-1.427357e-11
9.140624e-06
-3.596026e-07
-3.630297e-07
-3.595693e-07
-2.899021e-07
-0.0007465781
0.000739634
-1.225188e-11
8.08473e-06
-2.804549e-07
-2.898497e-07
-2.803955e-07
-1.616735e-07
-0.0007330444
0.0007270552
-9.701899e-12
6.605859e-06
-1.466934e-07
-1.616329e-07
-1.466665e-07
1.820965e-08
-0.0007215086
0.0007166806
-6.514202e-12
4.706209e-06
4.269827e-08
1.818441e-08
4.270479e-08
2.703438e-07
-0.0007123421
0.0007088271
-2.927726e-12
2.368793e-06
3.02744e-07
2.703591e-07
3.027671e-07
5.753477e-07
-0.0007058969
0.0007038819
1.509792e-12
-3.720148e-07
6.182603e-07
5.752682e-07
6.181798e-07
9.375889e-07
-0.0007024356
0.0007020852
5.614664e-12
-3.495954e-06
9.858335e-07
9.372988e-07
9.855807e-07
1.345999e-06
-0.0007023514
0.0007037906
1.124131e-11
-6.928603e-06
1.399108e-06
1.345531e-06
1.398705e-06
1.792618e-06
-0.0007058608
0.0007091777
1.594839e-11
-1.060374e-05
1.851431e-06
1.791956e-06
1.850858e-06
2.272776e-06
-0.0007131409
0.0007183958
1.948293e-11
-1.446992e-05
2.335569e-06
2.271878e-06
2.334776e-06
2.774577e-06
-0.0007243028
0.0007315116
2.260588e-11
-1.843396e-05
2.839082e-06
2.773435e-06
2.838004e-06
3.282679e-06
-0.0007393631
0.0007484833
2.545923e-11
-2.237513e-05
3.346122e-06
3.281327e-06
3.344796e-06
3.778044e-06
-0.0007582157
0.0007691324
2.749061e-11
-2.614385e-05
3.83704e-06
3.77651e-06
3.835486e-06
4.239881e-06
-0.0007806052
0.0007931303
2.889714e-11
-2.958343e-05
4.291118e-06
4.238015e-06
4.289267e-06
4.651892e-06
-0.0008061344
0.000820032
2.957622e-11
-3.25882e-05
4.695639e-06
4.649582e-06
4.693476e-06
5.01421e-06
-0.0008343243
0.0008493727
2.936183e-11
-3.517718e-05
5.052501e-06
5.0118e-06
5.050223e-06
5.35501e-06
-0.0008647535
0.0008808581
2.821069e-11
-3.759545e-05
5.392799e-06
5.352561e-06
5.390451e-06
5.709017e-06
-0.0008972988
0.0009144977
2.613157e-11
-4.010913e-05
5.748575e-06
5.706487e-06
5.746118e-06
6.073732e-06
-0.0009320716
0.0009504103
2.351732e-11
-4.270358e-05
6.111387e-06
6.071066e-06
6.108759e-06
6.398714e-06
-0.0009691409
0.0009885002
2.050868e-11
-4.50014e-05
6.425147e-06
6.395897e-06
6.422344e-06
6.637027e-06
-0.001008176
0.001028255
1.704843e-11
-4.665196e-05
6.652413e-06
6.634107e-06
6.649497e-06
6.806369e-06
-0.001048545
0.001069054
1.335691e-11
-4.774528e-05
6.814547e-06
6.803374e-06
6.811531e-06
6.910425e-06
-0.001089666
0.001110297
9.758859e-12
-4.826678e-05
6.910592e-06
6.907388e-06
6.907516e-06
6.942446e-06
-0.001130912
0.001151347
5.745166e-12
-4.818447e-05
6.935435e-06
6.939447e-06
6.932405e-06
6.905341e-06
-0.001171668
0.001191633
1.601579e-12
-4.75538e-05
6.891919e-06
6.902458e-06
6.888998e-06
6.77646e-06
-0.001211417
0.001230644
-2.740638e-12
-4.627223e-05
6.749266e-06
6.773664e-06
6.746396e-06
6.478028e-06
-0.001249607
0.001267688
-6.453996e-12
-4.387962e-05
6.423957e-06
6.47544e-06
6.421228e-06
5.944595e-06
-0.001285354
0.001301769
-9.239868e-12
-4.0014e-05
5.857051e-06
5.94231e-06
5.854571e-06
5.130591e-06
-0.001317573
0.001331737
-1.060802e-11
-3.441518e-05
4.997289e-06
5.128359e-06
4.994857e-06
3.985209e-06
-0.001345119
0.001356639
-1.127547e-11
-2.709138e-05
3.802047e-06
3.983812e-06
3.800703e-06
2.578554e-06
-0.001367302
0.001376003
-1.15377e-11
-1.865593e-05
2.400181e-06
2.577707e-06
2.39937e-06
1.291056e-06
-0.001383647
0.001389316
-1.165943e-11
-1.030828e-05
1.029437e-06
1.290541e-06
1.02878e-06
1.278796e-07
-0.001393909
0.001396608
-1.163241e-11
-3.046239e-06
4.588368e-08
1.277286e-07
4.579514e-08
-5.854143e-07
-0.001398055
0.00139819
-1.050351e-11
2.411342e-06
-6.875129e-07
-5.857682e-07
-6.879048e-07
-1.125993e-06
-0.001397561
0.001396096
-8.757061e-12
6.075008e-06
-1.178246e-06
-1.126394e-06
-1.178595e-06
-1.398976e-06
-0.001394138
0.001391706
-5.027334e-12
8.041857e-06
-1.405997e-06
-1.399302e-06
-1.406234e-06
-1.481753e-06
-0.001388946
0.001385953
1.172997e-12
8.863933e-06
-1.453777e-06
-1.481787e-06
-1.453799e-06
-1.492772e-06
-0.001382712
0.001379467
6.17551e-12
9.089642e-06
-1.429721e-06
-1.492687e-06
-1.429731e-06
-1.461692e-06
-0.001376084
0.001372386
9.563171e-12
9.225371e-06
-1.302332e-06
-1.461027e-06
-1.30155e-06
-1.622911e-06
-0.001368172
0.001365634
1.105222e-11
8.337784e-06
-1.27756e-06
-1.622065e-06
-1.277473e-06
-1.128491e-06
-0.001364101
0.001358275
8.539701e-12
1.01085e-05
-1.011384e-06
-1.13142e-06
-1.011705e-06
-1.249689e-06
-0.001352855
0.001348417
3.066065e-12
9.770256e-06
-1.41836e-06
-1.247603e-06
-1.416905e-06
-1.193163e-06
-0.001344043
0.001339456
-8.554838e-12
9.43059e-06
-1.230565e-06
-1.191406e-06
-1.228455e-06
-1.054139e-06
-0.001334579
0.00132957
-1.186167e-11
9.253587e-06
-1.06889e-06
-1.05319e-06
-1.068062e-06
-9.147922e-07
-0.001324403
0.001319175
-1.107878e-11
8.880252e-06
-9.154389e-07
-9.104906e-07
-9.109069e-07
-7.882936e-07
-0.001313849
0.001308523
-2.775354e-11
8.472462e-06
-7.883536e-07
-7.846095e-07
-7.850351e-07
-6.720118e-07
-0.001303178
0.001297894
-2.537947e-11
7.951845e-06
-6.641822e-07
-6.695265e-07
-6.618426e-07
-5.448089e-07
-0.001292644
0.00128751
-3.406562e-11
7.288175e-06
-5.340146e-07
-5.429184e-07
-5.322624e-07
-4.161249e-07
-0.00128246
0.001277575
-3.897695e-11
6.520071e-06
-4.028488e-07
-4.147169e-07
-4.01535e-07
-2.848095e-07
-0.001272801
0.001268231
-3.8867e-11
5.678287e-06
-2.702233e-07
-2.836815e-07
-2.691134e-07
-1.528387e-07
-0.00126379
0.001259584
-4.478506e-11
4.785179e-06
-1.376288e-07
-1.517456e-07
-1.365632e-07
-2.345752e-08
-0.001255522
0.001251713
-4.46279e-11
3.873534e-06
-9.633473e-09
-2.262973e-08
-8.871178e-09
1.053294e-07
-0.001248035
0.001244606
-3.111058e-11
2.970311e-06
1.223572e-07
1.069162e-07
1.23772e-07