/*--------------------------------*- C++ -*----------------------------------*\
| =========                 |                                                 |
| \\      /  F ield         | foam-extend: Open Source CFD                    |
|  \\    /   O peration     | Version:     3.1                                |
|   \\  /    A nd           | Web:         http://www.extend-project.de       |
|    \\/     M anipulation  |                                                 |
\*---------------------------------------------------------------------------*/
FoamFile
{
    version     2.0;
    format      ascii;
    class       regIOobject;
    location    "12/uniform";
    object      profilingInfo;
}
// * * * * * * * * * * * * * * * * * * * * * * * * * * * * * * * * * * * * * //

profilingInfo
(

    {
        id              10;
        parentId        8;
        description     "Foam::Time::writeObject - outputTime";
        calls           6;
        totalTime       0.298553;
        childTime       0;
        onStack         1;
    }

    {
        id              8;
        parentId        1;
        description     "Foam::Time::writeObject";
        calls           19091;
        totalTime       0.345971;
        childTime       0.298553;
        onStack         1;
    }

    {
        id              1;
        description     "application::main";
        calls           1;
        totalTime       44.7501;
        childTime       11.1612;
        onStack         1;
    }

    {
        id              3;
        parentId        2;
        description     "functionObjectList::read";
        calls           1;
        totalTime       6e-06;
        childTime       0;
        onStack         0;
    }

    {
        id              9;
        parentId        1;
        description     "functionObjects_.execute()";
        calls           19090;
        totalTime       0.062946;
        childTime       0;
        onStack         0;
    }

    {
        id              2;
        parentId        1;
        description     "functionObjects_.start()";
        calls           1;
        totalTime       2.5e-05;
        childTime       6e-06;
        onStack         0;
    }

    {
        id              4;
        parentId        1;
        description     "fvMatrix::solve_H";
        calls           19091;
        totalTime       5.02516;
        childTime       3.86407;
        onStack         0;
    }

    {
        id              6;
        parentId        1;
        description     "fvMatrix::solve_HU";
        calls           19091;
        totalTime       5.72712;
        childTime       3.82106;
        onStack         0;
    }

    {
        id              5;
        parentId        4;
        description     "lduMatrix::solver_H";
        calls           19091;
        totalTime       3.86407;
        childTime       0;
        onStack         0;
    }

    {
        id              7;
        parentId        6;
        description     "lduMatrix::solver_HUx";
        calls           19091;
        totalTime       3.82106;
        childTime       0;
        onStack         0;
    }
);


// ************************************************************************* //
