/*--------------------------------*- C++ -*----------------------------------*\
| =========                 |                                                 |
| \\      /  F ield         | foam-extend: Open Source CFD                    |
|  \\    /   O peration     | Version:     3.1                                |
|   \\  /    A nd           | Web:         http://www.extend-project.de       |
|    \\/     M anipulation  |                                                 |
\*---------------------------------------------------------------------------*/
FoamFile
{
    version     2.0;
    format      ascii;
    class       volScalarField;
    location    "6.5";
    object      k;
}
// * * * * * * * * * * * * * * * * * * * * * * * * * * * * * * * * * * * * * //

dimensions      [0 2 -2 0 0 0 0];

internalField   nonuniform List<scalar> 
119952
(
0.006389249
0.005256676
0.005984767
0.00701731
0.007565731
0.007612932
0.007702297
0.007792279
0.007878273
0.007948843
0.008006568
0.008055301
0.008097638
0.008135215
0.008169231
0.008200842
0.008231613
0.00826477
0.008310745
0.008436945
0.009610187
0.009389709
0.0094512
0.01056037
0.01034678
0.01027748
0.01021848
0.01008636
0.009677067
0.01303025
0.007085346
0.005425256
0.006208793
0.007255947
0.008019223
0.008538242
0.008930592
0.009261144
0.009560327
0.01001907
0.01261508
0.01534684
0.01729674
0.01860556
0.01951837
0.02021252
0.02078823
0.02129852
0.02175233
0.02604705
0.02663166
0.02723317
0.02787383
0.02850426
0.02909454
0.02964015
0.03014775
0.03062721
0.03112514
0.03148618
0.03190027
0.03240706
0.03298461
0.03359916
0.03422491
0.03484675
0.03545971
0.03614007
0.03687818
0.03718698
0.03762262
0.03825687
0.0389476
0.03955007
0.04008833
0.04059116
0.04106488
0.04151472
0.04194389
0.04235456
0.04274844
0.04312697
0.04349142
0.04384287
0.04418195
0.04450829
0.04481973
0.04512234
0.04549286
0.04585183
0.04615519
0.0466486
0.04724095
0.04766339
0.04800999
0.0483051
0.04828094
0.04756244
0.04730991
0.04722227
0.04716928
0.04713033
0.04710285
0.04708365
0.04706724
0.04704761
0.04701952
0.04697887
0.04692283
0.04684924
0.0467568
0.04664455
0.04651176
0.04635753
0.04618099
0.04598152
0.04575864
0.04551191
0.04524097
0.04494549
0.04462514
0.04427972
0.043909
0.04351289
0.04309142
0.04264479
0.04217328
0.0416773
0.04115728
0.04061373
0.04004722
0.03945833
0.03884706
0.03821368
0.03755932
0.03688529
0.03619303
0.03548408
0.03475963
0.0340188
0.03326147
0.03249257
0.03171424
0.03092869
0.03013925
0.02935054
0.02857253
0.02782592
0.02712312
0.02642469
0.02572717
0.02503665
0.0243594
0.02369906
0.02305901
0.02244217
0.02185064
0.02128567
0.02074778
0.02023682
0.01975238
0.01929384
0.01885982
0.01844928
0.0180614
0.01769516
0.01734924
0.01702283
0.01671544
0.01642606
0.01615352
0.01589694
0.01565558
0.01542877
0.01521587
0.01501616
0.0148289
0.01465348
0.0144891
0.01433512
0.01419096
0.01405583
0.01392936
0.0138107
0.01369963
0.01359533
0.01349795
0.01340687
0.01332161
0.01324183
0.013167
0.01309653
0.01302981
0.01296661
0.01290619
0.01284707
0.01279311
0.01281286
0.01285324
0.01282318
0.01276901
0.0127056
0.01263912
0.01256264
0.01248081
0.01239907
0.01232071
0.01224758
0.01218063
0.01212033
0.01206696
0.01202064
0.01198142
0.01194936
0.01192456
0.01190671
0.01189595
0.01189185
0.01189462
0.01190429
0.01192095
0.01194461
0.01197534
0.01201319
0.01205824
0.01211059
0.01217042
0.01223792
0.01231324
0.01239271
0.0124739
0.01255697
0.01260538
0.01270501
0.01282186
0.01294104
0.01305547
0.01316385
0.01326549
0.01335981
0.01344657
0.01352582
0.01359772
0.0136624
0.01372021
0.0137715
0.01381665
0.01385604
0.01389004
0.01391902
0.01394331
0.01396325
0.01397916
0.01399135
0.01400009
0.01400567
0.01400831
0.01400829
0.01400582
0.01400109
0.01399432
0.01398571
0.01397543
0.01396366
0.01395081
0.01393745
0.0139235
0.01348953
0.01356101
0.01359089
0.01358055
0.01355469
0.01351093
0.01345665
0.01340073
0.0133483
0.01330202
0.01326275
0.01323102
0.0132067
0.0131892
0.01317773
0.0131714
0.01316927
0.01317048
0.01317434
0.01318016
0.01318732
0.01319529
0.01320369
0.01321217
0.01322053
0.01322858
0.01323619
0.01324326
0.01324974
0.0132556
0.01326086
0.01326555
0.0132697
0.01327336
0.01327658
0.01327944
0.01328199
0.0132843
0.01328643
0.01328846
0.01329048
0.0132926
0.01329504
0.01329839
0.01330443
0.01331347
0.01331937
0.01332262
0.01332675
0.01333138
0.01333605
0.01334159
0.01334731
0.01336561
0.01342794
0.01340501
0.01338302
0.01335725
0.01332652
0.01329112
0.01325172
0.01320983
0.01316732
0.01312586
0.01308681
0.01305121
0.01301972
0.01299261
0.01296991
0.01295152
0.01293716
0.0129265
0.0129191
0.01291455
0.01291242
0.0129123
0.01291378
0.01291653
0.01292022
0.01292458
0.01292938
0.01293445
0.01293962
0.01294479
0.01294986
0.01295479
0.01295952
0.01296403
0.01296828
0.01297226
0.01297594
0.01297932
0.01298237
0.01298509
0.01298748
0.01298953
0.01299126
0.01299269
0.01299383
0.01299471
0.01299535
0.0129958
0.01299609
0.01299625
0.01299632
0.01299635
0.01299636
0.01299639
0.01299646
0.0129966
0.01299681
0.01299711
0.0129975
0.01299799
0.01299857
0.01299925
0.01300002
0.01300088
0.01300183
0.01300286
0.01300395
0.01300511
0.01300632
0.01300759
0.0130089
0.01301024
0.01301161
0.01301301
0.01301442
0.01301587
0.0130172
0.01301834
0.01301876
0.01301785
0.01301276
0.0129971
0.01295182
0.01287907
0.0130821
0.05170359
0.04704698
0.04374822
0.04141781
0.03980689
0.03868778
0.03786212
0.03716319
0.03648063
0.03585073
0.03698936
0.03879498
0.04066038
0.04233908
0.04379929
0.04514601
0.04624848
0.04695226
0.05398198
0.05432553
0.05422188
0.05364013
0.05288479
0.0521405
0.05145787
0.05081722
0.05017825
0.04959272
0.04894601
0.04802815
0.0472332
0.04659294
0.04607701
0.04564778
0.04528
0.04496393
0.04471153
0.04457299
0.0442918
0.04416704
0.04417647
0.04428545
0.04445469
0.04463794
0.04480835
0.04496122
0.04510611
0.04520931
0.0452944
0.04539219
0.04551569
0.04565597
0.0457997
0.04593841
0.04607143
0.04620762
0.05058903
0.05064425
0.05070597
0.05078023
0.05087249
0.05098437
0.05111618
0.0512678
0.0514421
0.05163666
0.05184376
0.05207027
0.0523249
0.05261416
0.05294031
0.05330354
0.05370569
0.05416215
0.05469248
0.05521211
0.05566537
0.05615195
0.05667993
0.05721595
0.05773568
0.058242
0.05873872
0.05922772
0.05971021
0.06018647
0.06065592
0.06111743
0.0615696
0.06201092
0.06243965
0.06285368
0.06325106
0.06363277
0.06401056
0.06439213
0.06476433
0.06516252
0.06563167
0.06612256
0.0665948
0.06704268
0.06741964
0.06759563
0.06758689
0.06758121
0.06760021
0.06762935
0.0676571
0.06767472
0.0676771
0.06766137
0.06762564
0.06756838
0.06748815
0.06738363
0.06725359
0.06709698
0.06691293
0.0667006
0.06645914
0.06618776
0.06588585
0.06555291
0.06518848
0.06479215
0.06436355
0.0639024
0.06340858
0.06288198
0.06232265
0.06173087
0.06110711
0.06045201
0.05976638
0.05905114
0.05830731
0.057536
0.05673843
0.05591583
0.05506946
0.05420063
0.05331069
0.05240109
0.05147339
0.05052926
0.04957048
0.04859895
0.04761659
0.04662507
0.04562596
0.04462093
0.04361245
0.04260455
0.04160105
0.04060294
0.03961024
0.03862407
0.03764455
0.03667603
0.03572256
0.03478836
0.03387919
0.03299769
0.03214417
0.03131964
0.0305249
0.02976036
0.02902621
0.02832242
0.02764881
0.02700513
0.02639093
0.02580571
0.02524887
0.0247196
0.02421705
0.0237403
0.02328841
0.02286042
0.02245532
0.02207207
0.02170963
0.02136692
0.02104286
0.02073638
0.02044637
0.02017178
0.01991157
0.01966475
0.01943029
0.01920737
0.01899498
0.01879243
0.01859872
0.01841333
0.01823518
0.01806404
0.01789864
0.01773909
0.01758358
0.01743307
0.01728584
0.01714983
0.01686558
0.01649651
0.01620797
0.01597336
0.01577558
0.01560364
0.01545081
0.01531277
0.01518661
0.01507032
0.01496251
0.0148622
0.01476868
0.01468145
0.01460013
0.01452446
0.01445423
0.01438928
0.01432949
0.01427471
0.01422483
0.0141797
0.01413916
0.01410302
0.0140711
0.01404318
0.01401901
0.01399831
0.01398081
0.01396619
0.01395423
0.0139445
0.0139363
0.01392924
0.01392301
0.01391674
0.01391917
0.01393223
0.01394984
0.01396939
0.01398984
0.01401042
0.01403057
0.0140499
0.01406814
0.01408508
0.01410059
0.01411454
0.01412685
0.01413744
0.01414628
0.01415334
0.01415861
0.0141621
0.01416387
0.01416398
0.01416249
0.01415951
0.01415514
0.01414951
0.01414275
0.014135
0.01412641
0.01411712
0.01410731
0.01409711
0.01408673
0.01407628
0.01406585
0.01405512
0.01466264
0.01464722
0.01464533
0.01464765
0.01465025
0.01465224
0.01465372
0.0146547
0.0146551
0.01465497
0.01465448
0.01465377
0.01465294
0.01465213
0.01465144
0.01465098
0.01465085
0.01465112
0.01465185
0.01465307
0.01465482
0.01465715
0.01466008
0.01466366
0.0146679
0.01467282
0.01467842
0.01468469
0.01469162
0.01469919
0.01470737
0.01471615
0.0147255
0.0147354
0.01474581
0.01475672
0.0147681
0.01477993
0.01479221
0.01480491
0.01481806
0.01483169
0.0148459
0.01486074
0.01487607
0.01489127
0.01490545
0.0149185
0.01493129
0.01494402
0.01495686
0.01496951
0.01498407
0.01500489
0.01502559
0.01503658
0.01504374
0.01505132
0.01505996
0.01506951
0.01507975
0.01509042
0.01510124
0.01511195
0.01512234
0.0151323
0.01514174
0.01515062
0.01515891
0.01516662
0.01517378
0.01518043
0.01518659
0.01519233
0.01519769
0.01520272
0.01520745
0.01521193
0.01521619
0.01522024
0.01522412
0.01522784
0.01523143
0.01523493
0.01523834
0.0152417
0.01524504
0.01524838
0.01525176
0.0152552
0.01525872
0.01526235
0.0152661
0.01527
0.01527406
0.0152783
0.01528272
0.01528735
0.0152922
0.01529727
0.01530259
0.01530815
0.01531397
0.01532004
0.01532638
0.01533298
0.01533985
0.01534697
0.01535434
0.01536196
0.01536981
0.01537788
0.01538616
0.01539462
0.01540325
0.01541205
0.01542099
0.01543007
0.01543928
0.01544862
0.01545808
0.01546765
0.01547737
0.0154872
0.01549719
0.01550731
0.01551764
0.01552809
0.01553884
0.01554964
0.01556079
0.0155717
0.01558271
0.01559228
0.01560047
0.01560566
0.01561721
0.01565439
0.01571516
0.07916057
0.08484468
0.09119321
0.09860867
0.1056283
0.1118052
0.117286
0.1220172
0.1265113
0.1366155
0.2040271
0.2162689
0.2195466
0.2207774
0.2208404
0.220043
0.2185973
0.2166527
0.2140876
0.234004
0.2296091
0.2247861
0.2199142
0.2150241
0.2100415
0.2049399
0.1997382
0.1944773
0.1891787
0.1839158
0.1784911
0.1730788
0.1678131
0.1627731
0.1580023
0.1535277
0.1493983
0.1457542
0.1429785
0.1401369
0.1373988
0.1347848
0.1322875
0.1298812
0.1275235
0.1251612
0.1227403
0.1201669
0.1173296
0.1143429
0.1111332
0.1076877
0.1040774
0.1004396
0.09696524
0.09389062
0.09852792
0.09633727
0.09451238
0.09296966
0.09155862
0.09018196
0.08878445
0.08733997
0.08583826
0.08429056
0.08268996
0.0810526
0.07942822
0.07786097
0.07637784
0.07499582
0.0737265
0.07257738
0.07155586
0.07063826
0.06982173
0.06912338
0.0685385
0.06804624
0.06762025
0.06725486
0.06694609
0.06669999
0.06650787
0.06633723
0.06618057
0.06603796
0.06590773
0.06578701
0.06567265
0.06556102
0.06545846
0.0653562
0.06520672
0.06507342
0.06495109
0.06484064
0.06474601
0.06466975
0.06461365
0.06457968
0.06457085
0.06458744
0.06462721
0.06469359
0.06479194
0.06492655
0.0651003
0.06531588
0.06557742
0.06589236
0.06626497
0.0666602
0.06704707
0.06745488
0.06789643
0.06835599
0.06881621
0.06927393
0.06973117
0.07018887
0.07064712
0.07110569
0.07156354
0.07201877
0.07246902
0.07291183
0.07334473
0.07376533
0.07417187
0.07456503
0.07495085
0.07533525
0.07571843
0.07611807
0.07655663
0.07701617
0.07746649
0.07788702
0.07824306
0.07847135
0.07856814
0.07862174
0.07867039
0.07871493
0.07874873
0.07876601
0.07876266
0.07873571
0.07868301
0.0786029
0.07849401
0.07835508
0.07818496
0.0779827
0.07774753
0.07747872
0.07717556
0.07683743
0.07646387
0.07605452
0.07560903
0.07512708
0.07460847
0.07405311
0.07346114
0.07283281
0.07216858
0.07146914
0.0707354
0.0699685
0.06916967
0.06834028
0.06748176
0.06659559
0.06568331
0.0647465
0.06378673
0.06280556
0.06180445
0.06078491
0.05974853
0.05869704
0.05763221
0.05655586
0.05546974
0.05437545
0.05327448
0.0521685
0.05105959
0.04995052
0.04884404
0.04774183
0.04664483
0.04555462
0.0444731
0.04340232
0.04234441
0.04130099
0.04027208
0.03926015
0.03827069
0.03730924
0.03637693
0.03547475
0.03460352
0.03376377
0.03295583
0.03217994
0.0314361
0.03072408
0.03004353
0.02939408
0.02877515
0.02818605
0.02762597
0.02709402
0.02658923
0.02611059
0.02565701
0.02522739
0.02482057
0.02443539
0.02407068
0.02372524
0.02339796
0.02308765
0.02279327
0.02251366
0.02224793
0.02199493
0.02175397
0.02152389
0.02130424
0.02109373
0.02089197
0.02069679
0.02050891
0.02032565
0.02014953
0.01997481
0.01979658
0.01962779
0.01946599
0.01930974
0.01915864
0.01901242
0.01887102
0.01873446
0.01860283
0.0184763
0.01835505
0.01823929
0.01812922
0.01802507
0.01792699
0.01783517
0.01774972
0.01767074
0.01759829
0.01753238
0.01747299
0.01742005
0.01737345
0.01733304
0.01729865
0.01727003
0.01724694
0.01722907
0.01721609
0.01720748
0.01720239
0.01720031
0.01720058
0.01720256
0.01720618
0.01721283
0.01722455
0.01724098
0.01726037
0.01728169
0.01730415
0.01732699
0.01734959
0.01737144
0.01739212
0.01741129
0.01742868
0.01744403
0.01745717
0.01746794
0.01747625
0.01748202
0.0174852
0.01748579
0.0174838
0.01747927
0.01747227
0.01746289
0.01745126
0.01743751
0.01742178
0.01740426
0.01738512
0.01736457
0.01734277
0.01732003
0.01729645
0.01727245
0.01724801
0.01722524
0.01720748
0.01718891
0.01716679
0.01714192
0.01711678
0.01709302
0.01707108
0.0170509
0.01703227
0.01701512
0.01699942
0.01698518
0.01697234
0.01696085
0.01695067
0.0169418
0.01693418
0.01692777
0.01692249
0.01691829
0.01691514
0.016913
0.01691185
0.01691166
0.01691239
0.01691401
0.01691648
0.01691977
0.01692385
0.01692868
0.01693422
0.01694044
0.01694731
0.01695479
0.01696285
0.01697147
0.01698061
0.01699026
0.01700039
0.01701098
0.01702203
0.01703352
0.01704543
0.0170577
0.01707019
0.01708264
0.01709476
0.01710644
0.01711787
0.01712916
0.01714044
0.01715151
0.01716227
0.01717243
0.01718228
0.0171929
0.01720469
0.0172173
0.01722996
0.01724225
0.01725408
0.01726557
0.01727682
0.01728784
0.01729865
0.01730923
0.01731958
0.01732967
0.01733949
0.01734903
0.01735827
0.01736719
0.0173758
0.01738406
0.01739199
0.01739959
0.01740685
0.0174138
0.01742047
0.0174269
0.01743307
0.01743896
0.01744461
0.01745001
0.01745522
0.01746026
0.01746516
0.01746996
0.01747468
0.01747935
0.01748401
0.01748869
0.01749342
0.01749822
0.01750313
0.01750816
0.01751335
0.01751872
0.01752429
0.01753008
0.0175361
0.01754237
0.0175489
0.0175557
0.01756277
0.01757012
0.01757774
0.01758562
0.01759377
0.01760216
0.0176108
0.01761967
0.01762874
0.01763801
0.01764746
0.01765708
0.01766685
0.01767676
0.01768681
0.01769699
0.0177073
0.01771776
0.01772835
0.01773912
0.01775005
0.01776122
0.01777258
0.01778427
0.01779619
0.01780856
0.01782115
0.01783428
0.01784748
0.01786135
0.01787531
0.01789121
0.01791021
0.01793732
0.01797123
0.08119754
0.08780397
0.09404075
0.1372001
0.178944
0.2274372
0.2571053
0.2842039
0.3068887
0.3268201
0.3442182
0.3580338
0.369424
0.3787456
0.3859979
0.3915706
0.395312
0.3970902
0.3970352
0.3950677
0.391405
0.3874077
0.383496
0.3787016
0.3733168
0.3674503
0.3612239
0.3547144
0.3479961
0.3409225
0.3332008
0.3289995
0.3213448
0.3132293
0.3048972
0.2965217
0.2882233
0.2800832
0.272159
0.2644919
0.2570848
0.249946
0.2431084
0.2365707
0.2303325
0.2244124
0.218901
0.2137975
0.2089961
0.2044899
0.2002479
0.1962749
0.1925491
0.1890115
0.1856123
0.1822969
0.1790025
0.1756623
0.1722158
0.1686048
0.1647574
0.1606368
0.1562269
0.1515591
0.1466711
0.1416827
0.1366503
0.1317343
0.1270177
0.1227308
0.118958
0.1157148
0.1129456
0.110543
0.1083917
0.1063946
0.104478
0.1025944
0.1007093
0.09881747
0.09694003
0.09510247
0.09332793
0.09163704
0.09004785
0.08857404
0.08722652
0.0860033
0.08490724
0.0839451
0.08311091
0.0823929
0.0817808
0.0812631
0.08082312
0.08043493
0.08007982
0.0797556
0.07946758
0.07921611
0.0789902
0.07878141
0.07858259
0.07838675
0.07819532
0.07799333
0.07778426
0.07756992
0.07735392
0.07714027
0.07693299
0.07673544
0.07655072
0.0763821
0.07623326
0.0761068
0.07600412
0.07592837
0.07588385
0.07587461
0.0759042
0.07597611
0.07609417
0.07626238
0.07648214
0.07673865
0.07701483
0.07731709
0.0776518
0.07801101
0.07838306
0.07876377
0.079153
0.07955011
0.07995431
0.08036507
0.08078113
0.08120007
0.08161882
0.08203427
0.08244357
0.08284427
0.08323461
0.0836146
0.08398741
0.08435733
0.0847272
0.08510585
0.08550352
0.085912
0.08631078
0.08668006
0.08699541
0.0872235
0.0873582
0.08743869
0.08749451
0.08753277
0.08755182
0.08754885
0.08752115
0.08746615
0.08738176
0.08726627
0.08711822
0.08693627
0.08671915
0.08646577
0.08617534
0.08584712
0.08548049
0.08507502
0.08463043
0.08414651
0.083623
0.08305972
0.08245667
0.08181411
0.08113251
0.08041257
0.07965523
0.07886173
0.07803354
0.07717227
0.0762796
0.07535729
0.0744071
0.07343079
0.07243011
0.07140684
0.07036274
0.06929951
0.06821868
0.06712173
0.06601024
0.0648859
0.06375043
0.06260551
0.0614527
0.06029347
0.05912921
0.0579614
0.05679173
0.05562219
0.05445482
0.05329123
0.05213255
0.05098011
0.04983561
0.04870082
0.0475775
0.04646722
0.04537155
0.04429229
0.04323093
0.04218798
0.04116802
0.04017565
0.03921209
0.03827838
0.03737533
0.03650364
0.03566384
0.03485623
0.03408088
0.03333771
0.0326265
0.03194689
0.03129838
0.03068034
0.03009201
0.02953255
0.02900101
0.02849638
0.0280176
0.02756353
0.02713302
0.02672488
0.02633795
0.02597103
0.02562299
0.02529268
0.02497906
0.0246811
0.02439795
0.02412851
0.02387124
0.02362432
0.02338696
0.02315811
0.02293759
0.02272433
0.02251865
0.02231958
0.02212715
0.02194039
0.02175857
0.02158166
0.0214099
0.02124344
0.02108231
0.02092661
0.02077643
0.02063195
0.02049332
0.02036076
0.02023446
0.02011461
0.02000142
0.01989506
0.01979569
0.01970343
0.01961838
0.01954062
0.01947016
0.01940699
0.01935105
0.01930224
0.01926042
0.01922538
0.01919687
0.01917461
0.01915825
0.01914741
0.01914159
0.01914022
0.01914272
0.01914866
0.01915789
0.01917075
0.0191879
0.01920941
0.01923451
0.01926229
0.01929191
0.01932267
0.01935396
0.01938521
0.01941593
0.0194457
0.01947415
0.01950094
0.01952579
0.01954847
0.01956877
0.01958652
0.0196016
0.01961392
0.01962341
0.01963
0.01963373
0.01963463
0.01963274
0.01962816
0.01962099
0.01961136
0.01959943
0.01958535
0.01956934
0.01955155
0.01953233
0.01951169
0.01949021
0.01946765
0.01944482
0.01942154
0.01939841
0.01937566
0.01935329
0.01933133
0.01930983
0.01928893
0.01926875
0.01924942
0.01923106
0.01921379
0.01919768
0.01918278
0.01916912
0.01915674
0.01914562
0.01913576
0.01912715
0.01911975
0.01911356
0.01910853
0.01910464
0.01910184
0.01910009
0.01909936
0.0190996
0.01910077
0.01910283
0.01910574
0.01910946
0.01911394
0.01911915
0.01912504
0.01913158
0.01913874
0.01914646
0.01915474
0.01916353
0.01917281
0.01918254
0.0191927
0.01920322
0.01921404
0.01922507
0.01923617
0.0192472
0.01925809
0.01926889
0.01927968
0.01929057
0.01930183
0.01931365
0.01932609
0.0193387
0.01935059
0.01936132
0.01937118
0.01938078
0.01939047
0.01940033
0.01941035
0.0194205
0.01943074
0.01944102
0.01945131
0.01946155
0.01947169
0.01948169
0.01949153
0.01950116
0.01951056
0.0195197
0.01952857
0.01953713
0.01954537
0.01955328
0.01956084
0.01956802
0.01957484
0.01958134
0.01958755
0.01959349
0.01959917
0.01960463
0.01960991
0.0196151
0.01962031
0.01962557
0.01963083
0.01963611
0.01964143
0.01964681
0.01965226
0.0196578
0.01966345
0.01966924
0.01967518
0.0196813
0.0196876
0.01969411
0.01970085
0.01970782
0.01971503
0.01972249
0.0197302
0.01973816
0.01974636
0.01975481
0.01976349
0.0197724
0.01978151
0.01979083
0.01980033
0.01981
0.01981983
0.01982981
0.01983992
0.01985017
0.01986056
0.01987107
0.01988173
0.01989255
0.01990354
0.01991473
0.01992615
0.01993784
0.01994986
0.01996224
0.01997506
0.01998836
0.02000228
0.02001684
0.02003231
0.02004896
0.02006728
0.02008832
0.02011249
0.02013949
0.04730498
0.05055437
0.05382155
0.06662986
0.08588873
0.1172647
0.1406423
0.1649788
0.1900634
0.2142839
0.2378203
0.2615349
0.2851631
0.3072219
0.327966
0.3492533
0.3791707
0.3866765
0.3920725
0.3951488
0.3973055
0.399159
0.4001295
0.4001778
0.3994618
0.3977759
0.3951304
0.392033
0.3877714
0.383828
0.3799248
0.3762392
0.3728261
0.369562
0.3663353
0.3630958
0.3598117
0.3564043
0.3528273
0.3489721
0.3448247
0.3401968
0.3341702
0.3277192
0.3210362
0.3141904
0.3072783
0.3003837
0.2935633
0.286852
0.2802736
0.2738443
0.2675813
0.2615024
0.2556202
0.2499546
0.2445559
0.2394008
0.2344594
0.2297378
0.2252437
0.2209672
0.2168967
0.2130235
0.20933
0.2057859
0.2023483
0.1989661
0.1955808
0.1921339
0.1885599
0.1847935
0.1807869
0.1765055
0.1719422
0.1671104
0.1620744
0.1569057
0.1517323
0.1467124
0.1419138
0.1374316
0.1333749
0.1297948
0.1266683
0.1239258
0.1214801
0.1192427
0.1171352
0.1150964
0.1130898
0.1111036
0.1091427
0.1072213
0.1053575
0.1035705
0.1018778
0.1002945
0.09883012
0.09749134
0.09628296
0.09520566
0.09425626
0.09342906
0.09271516
0.09210286
0.09157803
0.09112647
0.0907337
0.09037889
0.09005082
0.0897499
0.08948082
0.08923509
0.08900179
0.08877372
0.08854283
0.08830566
0.08806003
0.08780784
0.08755201
0.0872953
0.0870404
0.08679013
0.08654766
0.08631662
0.08610047
0.08590222
0.08572537
0.08557396
0.0854521
0.08536369
0.08531252
0.08530233
0.08533636
0.08541601
0.08553595
0.08568854
0.08587388
0.08609317
0.08634145
0.08661021
0.08689603
0.08719696
0.08751154
0.08784008
0.08818121
0.08853273
0.08889169
0.08925463
0.089618
0.08997858
0.09033356
0.09068126
0.09102128
0.09135513
0.09168537
0.09201439
0.09234633
0.09268475
0.09302439
0.09335199
0.0936523
0.09390827
0.09410132
0.09422646
0.09430038
0.09434029
0.09435321
0.09433998
0.09429938
0.09422988
0.09412971
0.09399727
0.09383115
0.09363005
0.09339268
0.0931177
0.092804
0.09245073
0.09205704
0.09162235
0.09114651
0.09062944
0.09007104
0.08947122
0.08883011
0.0881481
0.08742595
0.08666465
0.08586527
0.08502913
0.08415807
0.08325403
0.08231899
0.08135497
0.08036397
0.07934798
0.07830891
0.07724862
0.0761689
0.07507155
0.07395822
0.07283039
0.07168953
0.07053715
0.06937484
0.0682042
0.06702669
0.06584367
0.06465638
0.06346604
0.06227384
0.06108105
0.05988904
0.05869925
0.05751289
0.05633099
0.05515463
0.05398509
0.0528238
0.05167218
0.05053166
0.04940372
0.04828982
0.04719131
0.04610973
0.04504637
0.04400307
0.04298452
0.04199224
0.04102755
0.0400916
0.0391854
0.03830974
0.0374652
0.03665213
0.03587071
0.03512097
0.03440278
0.03371583
0.03305968
0.03243374
0.03183733
0.03126962
0.03072971
0.03021661
0.02972929
0.02926662
0.02882747
0.02841069
0.02801513
0.02763964
0.02728313
0.02694455
0.02662277
0.02631579
0.02602248
0.02574179
0.02547285
0.02521467
0.02496655
0.02472767
0.02449761
0.0242757
0.02406146
0.02385445
0.02365418
0.02346021
0.02327229
0.02309028
0.0229141
0.02274377
0.02257935
0.02242097
0.02226878
0.02212294
0.02198367
0.02185116
0.02172562
0.02160726
0.02149625
0.02139278
0.02129698
0.02120898
0.02112885
0.02105663
0.02099233
0.02093591
0.02088727
0.02084625
0.02081269
0.02078633
0.02076688
0.02075399
0.02074725
0.02074623
0.02075047
0.02075962
0.02077342
0.02079183
0.02081495
0.02084275
0.02087475
0.02091017
0.02094824
0.02098828
0.02102966
0.02107181
0.02111415
0.02115622
0.02119756
0.02123776
0.02127648
0.02131337
0.02134815
0.02138057
0.02141041
0.02143748
0.02146166
0.02148281
0.02150089
0.02151586
0.0215277
0.02153643
0.02154211
0.02154482
0.02154465
0.02154174
0.02153625
0.02152832
0.02151819
0.02150602
0.02149205
0.0214764
0.02145941
0.02144137
0.02142256
0.02140314
0.02138331
0.02136334
0.0213435
0.021324
0.02130498
0.02128655
0.02126884
0.02125193
0.02123593
0.0212209
0.0212069
0.02119396
0.02118212
0.0211714
0.02116183
0.0211534
0.02114611
0.02113994
0.02113488
0.0211309
0.02112797
0.02112606
0.02112514
0.02112518
0.02112615
0.021128
0.02113069
0.02113419
0.02113846
0.02114346
0.02114915
0.0211555
0.02116246
0.02117
0.0211781
0.0211867
0.02119579
0.02120532
0.02121524
0.02122549
0.02123601
0.02124674
0.0212576
0.02126856
0.0212798
0.02129126
0.02130279
0.02131415
0.02132529
0.02133621
0.02134695
0.02135761
0.02136828
0.02137895
0.02138953
0.02139996
0.02141026
0.02142044
0.02143057
0.02144067
0.02145074
0.02146078
0.02147079
0.02148074
0.0214906
0.02150036
0.02150997
0.02151944
0.02152872
0.0215378
0.02154666
0.02155528
0.02156364
0.02157175
0.02157959
0.02158716
0.02159446
0.0216015
0.02160828
0.02161481
0.02162109
0.02162712
0.02163289
0.02163835
0.0216436
0.02164877
0.021654
0.02165944
0.02166511
0.02167095
0.02167694
0.02168309
0.02168939
0.02169585
0.02170247
0.02170928
0.02171627
0.02172346
0.02173086
0.02173848
0.02174632
0.02175439
0.02176269
0.02177121
0.02177996
0.02178892
0.02179808
0.02180745
0.021817
0.02182672
0.02183661
0.02184666
0.02185684
0.02186717
0.02187762
0.02188821
0.02189894
0.02190981
0.02192085
0.02193207
0.0219435
0.02195518
0.02196714
0.02197945
0.02199217
0.02200537
0.02201913
0.02203358
0.02204886
0.02206516
0.02208276
0.02210196
0.02212335
0.02214661
0.02217067
0.01810127
0.02097368
0.02302777
0.03207524
0.0427288
0.05646391
0.06845617
0.08230268
0.09754097
0.1140515
0.1323532
0.1540352
0.1776559
0.2036324
0.2338831
0.2765198
0.2979781
0.3190665
0.338868
0.3570434
0.3732105
0.3867908
0.3976544
0.4057156
0.4107156
0.4121637
0.4099354
0.4062075
0.4006742
0.3948363
0.3894256
0.3847351
0.3803794
0.3759731
0.3713805
0.3664347
0.360456
0.3551118
0.3501148
0.3458071
0.3423554
0.3397566
0.337908
0.336673
0.3358579
0.3352606
0.3346912
0.3339801
0.3329803
0.3315849
0.3295945
0.3267948
0.3233352
0.3194485
0.3152721
0.3108268
0.3061413
0.3012637
0.2962411
0.2911116
0.2859103
0.2806715
0.2754272
0.2702075
0.2650457
0.259986
0.2550977
0.2503531
0.2457609
0.2413271
0.2370548
0.2329362
0.2289677
0.2251475
0.2214685
0.2179144
0.2144604
0.2110727
0.2077112
0.204331
0.2008814
0.1973092
0.1935638
0.1896008
0.1853916
0.1809265
0.1762262
0.171336
0.1663312
0.1613031
0.1563406
0.1515539
0.147064
0.1429636
0.1392931
0.1360446
0.1331742
0.1306147
0.1282886
0.1261208
0.1240498
0.1220352
0.120057
0.1181107
0.1162027
0.1143458
0.1125554
0.1108471
0.1092342
0.1077273
0.1063341
0.1050599
0.1039066
0.1028732
0.101956
0.1011489
0.1004441
0.09983259
0.09930431
0.09884793
0.09845199
0.09810554
0.09779144
0.09750461
0.09723841
0.09698677
0.09674051
0.09649697
0.09625328
0.09600773
0.09576013
0.09551076
0.09526009
0.09500905
0.09475928
0.09451312
0.09427331
0.09404267
0.09382432
0.09362181
0.09343891
0.0932794
0.09314711
0.09304576
0.09297874
0.09294845
0.09295459
0.09299503
0.0930689
0.09317574
0.09331278
0.09347374
0.09365625
0.09385862
0.09407915
0.09431717
0.09457138
0.09483898
0.0951168
0.09540149
0.09568947
0.09597716
0.09626083
0.09653911
0.09681161
0.09707885
0.09734193
0.09760192
0.09786018
0.09811711
0.09836865
0.09860609
0.09881876
0.0989953
0.09912485
0.09920324
0.09923672
0.09923386
0.09919929
0.09913409
0.09903722
0.09890797
0.09874557
0.09854907
0.0983175
0.09804985
0.09774497
0.09740163
0.09701879
0.0965958
0.09613187
0.09562639
0.09507924
0.09449031
0.09385983
0.09318818
0.09247604
0.09172448
0.09093479
0.09010853
0.08924724
0.08835239
0.08742604
0.08647031
0.08548734
0.08447924
0.08344811
0.082396
0.08132487
0.0802366
0.07913297
0.07801576
0.07688651
0.07574635
0.07459666
0.0734389
0.07227447
0.07110468
0.06993066
0.06875354
0.06757438
0.06639417
0.06521382
0.06403416
0.06285601
0.06168024
0.06050763
0.05933891
0.0581748
0.0570162
0.05586407
0.05471946
0.05358349
0.05245733
0.05134222
0.05023944
0.04915033
0.04807624
0.04701839
0.04597857
0.0449602
0.04396495
0.04299438
0.04204993
0.04113285
0.04024417
0.0393847
0.03855509
0.03775576
0.03698698
0.03624884
0.03554125
0.03486395
0.03421656
0.03359853
0.03300921
0.03244782
0.0319135
0.03140529
0.03092218
0.03046309
0.0300269
0.0296125
0.02921874
0.02884448
0.02848829
0.02814887
0.02782512
0.02751597
0.02722038
0.02693737
0.02666605
0.02640558
0.02615523
0.02591433
0.02568228
0.02545854
0.02524259
0.0250339
0.02483212
0.02463699
0.02444837
0.02426616
0.02409033
0.02392094
0.02375806
0.02360183
0.02345242
0.02331
0.02317479
0.02304699
0.02292681
0.02281445
0.02271008
0.02261388
0.02252597
0.02244645
0.02237538
0.02231276
0.02225857
0.02221272
0.0221751
0.0221455
0.02212371
0.02210942
0.02210233
0.02210206
0.02210826
0.02212058
0.02213876
0.02216259
0.02219193
0.02222657
0.02226605
0.02230971
0.02235685
0.0224068
0.02245892
0.02251258
0.02256723
0.0226223
0.02267729
0.02273174
0.02278521
0.02283729
0.02288762
0.02293586
0.02298169
0.02302486
0.02306514
0.02310236
0.0231364
0.02316716
0.02319457
0.02321859
0.02323921
0.02325645
0.02327036
0.02328102
0.02328853
0.02329304
0.0232947
0.02329369
0.02329019
0.02328441
0.0232766
0.02326696
0.02325569
0.02324303
0.0232293
0.0232148
0.02319982
0.02318458
0.02316928
0.02315408
0.02313913
0.02312458
0.02311056
0.02309716
0.02308448
0.02307259
0.02306156
0.02305144
0.02304226
0.02303406
0.02302684
0.02302063
0.02301541
0.02301119
0.02300794
0.02300567
0.02300435
0.02300395
0.02300445
0.02300582
0.02300804
0.02301107
0.02301487
0.02301942
0.02302468
0.02303062
0.02303721
0.02304441
0.0230522
0.02306055
0.02306942
0.02307879
0.02308862
0.02309888
0.02310953
0.02312062
0.0231321
0.02314373
0.02315519
0.02316653
0.0231778
0.02318901
0.02320015
0.02321124
0.02322227
0.0232332
0.02324397
0.02325459
0.02326509
0.02327553
0.02328592
0.02329631
0.02330668
0.02331705
0.02332739
0.02333771
0.02334799
0.0233582
0.02336834
0.02337838
0.0233883
0.0233981
0.02340774
0.02341721
0.02342649
0.02343557
0.02344443
0.02345307
0.02346147
0.02346964
0.02347756
0.02348526
0.02349272
0.02349996
0.02350697
0.02351377
0.02352037
0.02352678
0.02353302
0.0235391
0.02354502
0.02355073
0.0235564
0.02356226
0.02356847
0.02357495
0.02358167
0.0235886
0.02359572
0.02360302
0.02361051
0.02361818
0.02362606
0.02363413
0.02364241
0.02365089
0.02365959
0.02366849
0.0236776
0.02368692
0.02369643
0.02370612
0.023716
0.02372604
0.02373625
0.02374661
0.02375711
0.02376775
0.02377853
0.02378945
0.02380051
0.02381173
0.02382311
0.02383468
0.02384647
0.02385852
0.02387086
0.02388356
0.02389668
0.0239103
0.02392451
0.02393943
0.0239552
0.02397199
0.02399005
0.02400959
0.02403095
0.02405373
0.02407604
0.003603684
0.01424263
0.02062911
0.02834527
0.03771124
0.04899453
0.06227656
0.07727912
0.09414783
0.1144087
0.143969
0.1614033
0.1800048