/*--------------------------------*- C++ -*----------------------------------*\
| =========                 |                                                 |
| \\      /  F ield         | foam-extend: Open Source CFD                    |
|  \\    /   O peration     | Version:     3.1                                |
|   \\  /    A nd           | Web:         http://www.extend-project.de       |
|    \\/     M anipulation  |                                                 |
\*---------------------------------------------------------------------------*/
FoamFile
{
    version     2.0;
    format      ascii;
    class       volScalarField;
    location    "6.5";
    object      nut;
}
// * * * * * * * * * * * * * * * * * * * * * * * * * * * * * * * * * * * * * //

dimensions      [0 2 -1 0 0 0 0];

internalField   nonuniform List<scalar> 
119952
(
3.589505e-05
2.065338e-05
2.409413e-05
3.146055e-05
3.657652e-05
3.531924e-05
3.427736e-05
3.33557e-05
3.250716e-05
3.165007e-05
3.078339e-05
2.991456e-05
2.904749e-05
2.818351e-05
2.732286e-05
2.646551e-05
2.561115e-05
2.475882e-05
2.390499e-05
2.314902e-05
3.190519e-05
3.004316e-05
2.928389e-05
4.080961e-05
3.955843e-05
3.880136e-05
3.818663e-05
3.767288e-05
3.653357e-05
2.366106e-05
2.086229e-05
1.874027e-05
2.502771e-05
3.306656e-05
4.06165e-05
4.752468e-05
5.416881e-05
6.071652e-05
6.727545e-05
7.785576e-05
0.000194746
0.0002872257
0.0003535602
0.0004001526
0.0004373413
0.0004707285
0.0005027235
0.0005343562
0.0005658115
0.0008659091
0.000954839
0.001038687
0.001113454
0.001178764
0.001236418
0.001288542
0.001336814
0.001382512
0.001427595
0.001478829
0.001542735
0.001612942
0.001682997
0.001749451
0.001811512
0.001869856
0.001926183
0.001985087
0.001995358
0.002019354
0.002072192
0.002138791
0.002204866
0.002262628
0.002313177
0.002357312
0.002395473
0.002428375
0.002456837
0.002481653
0.00250353
0.002523061
0.002540744
0.002557005
0.002572239
0.002586907
0.002601798
0.002618889
0.002640613
0.002662393
0.002687953
0.002724315
0.002757258
0.002779196
0.002792843
0.002784293
0.002678541
0.002492285
0.002455629
0.00244731
0.002446339
0.002449135
0.002453787
0.002458785
0.002463088
0.00246618
0.002467846
0.002468025
0.002466739
0.002464043
0.002460008
0.002454702
0.002448159
0.002440364
0.002431279
0.002420883
0.002409173
0.002396147
0.002381806
0.002366145
0.002349156
0.002330826
0.002311145
0.002290099
0.002267682
0.002243895
0.002218736
0.002192204
0.002164296
0.002135006
0.002104324
0.002072194
0.002038378
0.002002772
0.001965432
0.001926438
0.001885873
0.001843808
0.001800222
0.001754557
0.001706515
0.001656852
0.001605783
0.00155353
0.001500609
0.001447964
0.001397309
0.001343295
0.001289234
0.001236943
0.001186904
0.00113946
0.001094792
0.001052772
0.001013283
0.0009762277
0.0009415411
0.0009091087
0.0008788268
0.0008505801
0.0008242712
0.0007997864
0.0007769619
0.0007556774
0.0007358404
0.0007173242
0.0006999864
0.0006837552
0.0006685694
0.0006543185
0.0006408915
0.0006282037
0.0006161836
0.0006047671
0.000593897
0.0005835172
0.0005735678
0.0005640017
0.0005547737
0.0005458348
0.0005371597
0.0005286942
0.0005204305
0.000512308
0.0005043562
0.0004964827
0.000488739
0.0004810883
0.0004735155
0.0004660077
0.000458582
0.000451228
0.0004439354
0.0004367096
0.0004295555
0.0004225448
0.000416784
0.0003234829
0.000318457
0.0003103841
0.0003043645
0.000299592
0.0002940054
0.0002847131
0.0002767397
0.0002697357
0.0002634628
0.0002577577
0.0002525018
0.0002476075
0.0002430131
0.0002386725
0.0002345509
0.0002306204
0.0002268697
0.0002232671
0.000219815
0.0002164889
0.000213278
0.0002101776
0.0002071802
0.0002042781
0.0002014676
0.0001987429
0.0001961017
0.0001935426
0.0001910652
0.0001886707
0.0001863651
0.0001834334
0.0001805913
0.0001783303
0.0001805454
0.0001754236
0.0001771571
0.0001793818
0.0001821362
0.0001850241
0.0001880506
0.0001911675
0.0001943548
0.0001975663
0.0002007764
0.0002040104
0.0002072211
0.0002104087
0.0002135657
0.0002166869
0.0002197703
0.0002228148
0.0002258212
0.0002287914
0.0002317269
0.000234631
0.0002375069
0.0002403583
0.0002431891
0.0002460006
0.0002487874
0.0002515919
0.0002543808
0.0002571703
0.0002599663
0.000262774
0.00026549
0.0002681545
0.0002714147
0.0003603987
0.0003320042
0.0003519323
0.0003674391
0.0003792027
0.0003837862
0.0003881908
0.00039247
0.0003966517
0.0004007559
0.0004047926
0.0004087824
0.0004127395
0.0004166763
0.0004206025
0.0004245255
0.0004284485
0.0004323756
0.0004363117
0.0004402571
0.000444209
0.0004481668
0.0004521307
0.0004561009
0.0004600782
0.0004640628
0.0004680545
0.0004720519
0.0004760535
0.0004800581
0.0004840644
0.0004880717
0.0004920794
0.0004960868
0.000500093
0.0005040979
0.000508101
0.0005121014
0.000516098
0.000520089
0.0005240721
0.0005280424
0.0005319918
0.0005359059
0.0005397773
0.0005435422
0.0005469646
0.0005501696
0.0005533293
0.0005564371
0.0005594766
0.0005624567
0.0005653828
0.0005687163
0.0005721208
0.0005738369
0.0005755945
0.0005774157
0.0005793479
0.0005813829
0.0005835085
0.0005857209
0.0005880199
0.0005904059
0.0005928781
0.0005954323
0.0005980609
0.0006007526
0.0006034965
0.0006062839
0.0006091046
0.0006119479
0.0006148041
0.0006176659
0.0006205281
0.0006233874
0.0006262408
0.000629086
0.000631921
0.0006347443
0.000637555
0.0006403526
0.0006431372
0.0006459103
0.0006486741
0.0006514323
0.0006541889
0.0006569481
0.0006597137
0.0006624891
0.0006652769
0.000668079
0.000670897
0.0006737321
0.0006765851
0.0006794564
0.0006823463
0.0006852552
0.000688183
0.0006911296
0.0006940949
0.0006970782
0.0007000789
0.0007030966
0.0007061308
0.0007091814
0.0007122484
0.0007153317
0.0007184312
0.0007215468
0.0007246783
0.0007278255
0.0007309882
0.0007341667
0.0007373618
0.000740575
0.0007438084
0.0007470646
0.0007503465
0.0007536578
0.0007570026
0.000760386
0.0007638135
0.0007672922
0.0007708295
0.000774436
0.0007781236
0.0007819094
0.0007858125
0.0007898629
0.0007940928
0.0007985602
0.0008033388
0.0008085759
0.0008144937
0.0008215732
0.0008305837
0.0008440226
0.0006929369
2.733325e-05
3.017804e-05
3.324893e-05
3.662366e-05
4.037357e-05
4.453024e-05
4.90436e-05
5.380303e-05
5.920913e-05
0.0002184467
0.0002607012
0.0003049909
0.0003473648
0.000386172
0.0004216274
0.0004565174
0.0004869382
0.0005216924
0.000735491
0.0007643103
0.0008288497
0.0008759452
0.0009240659
0.0009737139
0.001024266
0.001074577
0.001123517
0.001171168
0.001215604
0.001257598
0.001302689
0.001350661
0.001399763
0.001448383
0.001495741
0.001541852
0.001587444
0.001625503
0.001662174
0.001712711
0.001771564
0.001834872
0.001900066
0.001964807
0.002027935
0.002089286
0.002149071
0.002207799
0.0022692
0.002334163
0.002401254
0.002468339
0.002533811
0.002596854
0.002657277
0.002714531
0.003169393
0.003229756
0.003289608
0.003349702
0.003410001
0.003470164
0.003529872
0.003588916
0.003647291
0.00370488
0.003762204
0.003820463
0.003880514
0.003942655
0.004006737
0.004072441
0.004139536
0.004208161
0.004277379
0.004341343
0.004400766
0.004461336
0.004523611
0.004586187
0.00464825
0.00470988
0.004770959
0.004831221
0.004890381
0.004948177
0.005004391
0.005058873
0.005111546
0.005162402
0.005211495
0.005258937
0.005304953
0.005350024
0.005395027
0.005440182
0.005485264
0.005532082
0.005580661
0.005626799
0.005668071
0.005703065
0.005727021
0.005729861
0.005719511
0.005711033
0.005706648
0.005706009
0.005708401
0.00571299
0.005719001
0.005725757
0.005732678
0.005739285
0.005745188
0.005750077
0.005753712
0.005755907
0.005756519
0.005755425
0.005752515
0.005747694
0.005740877
0.005731985
0.005720943
0.005707672
0.005692097
0.005674142
0.005653737
0.005630815
0.005605317
0.005577193
0.005546406
0.005512925
0.005476724
0.005437779
0.005396062
0.005351547
0.005304192
0.005253947
0.005200766
0.00514461
0.005085461
0.005023313
0.00495817
0.004890034
0.004818904
0.004744823
0.004667876
0.00458818
0.004505897
0.004421234
0.004334454
0.004245862
0.004155575
0.00406353
0.003969828
0.003874482
0.003777114
0.00367885
0.00358084
0.003484185
0.003390253
0.003299676
0.003212512
0.00312893
0.003049067
0.002973017
0.002900828
0.002832527
0.002768112
0.002707538
0.002650711
0.002597535
0.002547923
0.002501736
0.002458795
0.002418926
0.002381951
0.002347686
0.002315946
0.002286548
0.002259304
0.002234031
0.002210548
0.002188681
0.00216826
0.002149122
0.002131118
0.002114101
0.002097939
0.002082514
0.002067704
0.002053422
0.002039563
0.002026064
0.002012822
0.001999808
0.001986912
0.001974165
0.001961468
0.00194904
0.001936939
0.001928519
0.001842047
0.001741732
0.001670497
0.001618175
0.001578321
0.001546912
0.001521375
0.001500005
0.001481655
0.001465543
0.001451133
0.001438056
0.001426054
0.001414949
0.001404614
0.001394961
0.001385928
0.001377467
0.001369542
0.001362121
0.001355174
0.001348672
0.001342587
0.001336891
0.001331552
0.00132654
0.001321822
0.001317371
0.001313169
0.001309206
0.001305504
0.001302128
0.00129924
0.001297416
0.001297664
0.001299373
0.001302803
0.001307434
0.001312571
0.001317938
0.001323366
0.001328729
0.001333936
0.001338921
0.001343637
0.001348053
0.001352146
0.001355902
0.001359314
0.00136238
0.001365104
0.001367495
0.001369566
0.001371335
0.001372821
0.001374048
0.001375043
0.001375834
0.001376449
0.00137692
0.001377276
0.001377548
0.001377768
0.001377963
0.001378163
0.001378392
0.001378676
0.001379029
0.001379447
0.001379716
0.001671157
0.001676637
0.001682049
0.00168704
0.001691598
0.001695812
0.001699769
0.001703535
0.001707173
0.001710748
0.001714316
0.001717917
0.00172158
0.001725325
0.001729167
0.001733115
0.001737182
0.001741376
0.001745697
0.001750136
0.001754687
0.001759347
0.001764115
0.001768985
0.001773956
0.001779023
0.001784181
0.001789425
0.001794748
0.001800146
0.00180561
0.001811134
0.001816713
0.001822339
0.001828008
0.001833714
0.001839451
0.001845214
0.001850997
0.001856789
0.00186258
0.001868355
0.001874097
0.001879773
0.001885342
0.001890726
0.001895862
0.001900792
0.001905631
0.001910382
0.001915099
0.001919783
0.001924644
0.001929764
0.00193446
0.001938438
0.001942302
0.001946258
0.001950314
0.001954468
0.001958723
0.001963072
0.001967496
0.001971981
0.001976517
0.001981097
0.001985716
0.001990369
0.001995052
0.001999762
0.002004495
0.002009245
0.002014006
0.002018771
0.002023535
0.002028292
0.002033037
0.002037768
0.00204248
0.002047169
0.002051833
0.002056469
0.002061075
0.002065652
0.002070198
0.002074718
0.002079215
0.002083693
0.002088157
0.002092614
0.002097068
0.002101525
0.00210599
0.002110467
0.002114962
0.002119477
0.002124018
0.002128587
0.002133189
0.002137826
0.002142501
0.002147215
0.002151971
0.002156767
0.002161607
0.002166489
0.002171415
0.002176384
0.002181396
0.002186452
0.002191549
0.002196688
0.002201869
0.002207091
0.002212355
0.002217664
0.002223021
0.00222843
0.002233899
0.002239434
0.002245049
0.002250755
0.00225657
0.002262509
0.002268601
0.002274867
0.002281353
0.002288088
0.002295147
0.002302575
0.002310504
0.002319009
0.002328346
0.002338621
0.002350259
0.002363385
0.00237947
0.002399875
0.0024216
4.467725e-05
5.896614e-05
8.305354e-05
0.0001197892
0.0001765947
0.0002502059
0.0002819365
0.000313718
0.0003460656
0.0003957395
0.001228907
0.001386208
0.001471212
0.00155371
0.001630029
0.001700362
0.001765712
0.001827086
0.001884818
0.002659563
0.0027991
0.002919491
0.003018733
0.00309548
0.003150505
0.003186142
0.00320517
0.003210225
0.003202368
0.003184311
0.003159791
0.003130934
0.00309835
0.003062215
0.003022641
0.002980353
0.0029376
0.002900874
0.00284944
0.002809276
0.002777965
0.002750734
0.002729921
0.002716296
0.002709193
0.002706928
0.002706962
0.002706171
0.002698863
0.002683989
0.00265694
0.002615034
0.002558133
0.002489596
0.002415983
0.002345344
0.002661195
0.002623177
0.002600251
0.002592885
0.00260019
0.002620737
0.002652476
0.002692965
0.002739623
0.002790052
0.002841615
0.002893132
0.002943967
0.00299393
0.003042898
0.003090871
0.003138033
0.00318472
0.0032314
0.003277677
0.00332447
0.003372741
0.003423029
0.003475029
0.003528183
0.00358316
0.003640317
0.003700391
0.003763152
0.00382708
0.003891755
0.003957117
0.004023032
0.004089262
0.004155514
0.004221466
0.004287159
0.004353004
0.004408375
0.004464889
0.004522065
0.00457976
0.00463795
0.004696581
0.004755594
0.004814961
0.004874706
0.004934787
0.004995236
0.005056382
0.005118639
0.005182352
0.005247752
0.005314994
0.005384212
0.005455519
0.00552854
0.00560133
0.005672983
0.005744796
0.00581721
0.00588963
0.005961554
0.006033005
0.006104095
0.006174815
0.006245073
0.006314728
0.006383589
0.006451441
0.006518073
0.006583307
0.00664701
0.006709096
0.00676957
0.006828595
0.00688654
0.006943651
0.007000031
0.007056387
0.00711295
0.007168149
0.00722022
0.007267777
0.00730869
0.007340041
0.007363135
0.007382712
0.007400901
0.007418198
0.007434704
0.007450426
0.007465314
0.007479279
0.007492206
0.007503963
0.007514416
0.007523426
0.007530864
0.007536613
0.007540568
0.007542629
0.007542699
0.00754069
0.00753652
0.007530109
0.007521372
0.007510217
0.007496557
0.007480302
0.007461368
0.007439678
0.007415159
0.007387754
0.007357415
0.007324102
0.007287779
0.007248414
0.007205971
0.007160418
0.007111718
0.007059833
0.007004726
0.006946359
0.006884698
0.006819721
0.006751419
0.0066798
0.006604883
0.006526706
0.006445318
0.006360791
0.006273218
0.006182728
0.006089486
0.0059937
0.005895561
0.005795203
0.005692754
0.005588388
0.005482336
0.00537496
0.005266647
0.005157626
0.005047623
0.004937238
0.004828058
0.004721675
0.00461851
0.004518863
0.004422997
0.004331138
0.004243475
0.004160152
0.004081264
0.004006843
0.003936878
0.00387134
0.003810155
0.003753212
0.003700373
0.003651476
0.003606339
0.003564765
0.003526545
0.00349146
0.003459287
0.003429798
0.003402768
0.003377975
0.003355206
0.003334253
0.003314924
0.003297035
0.003280425
0.003264939
0.003250454
0.00323684
0.003224021
0.003211938
0.003200425
0.003189238
0.003178324
0.003167557
0.003157077
0.003146231
0.003127264
0.003112768
0.003101041
0.003091043
0.003082099
0.003073797
0.003065905
0.00305831
0.003050973
0.003043906
0.003037153
0.003030777
0.003024849
0.003019444
0.003014635
0.003010488
0.003007065
0.003004419
0.00300259
0.003001611
0.003001501
0.003002271
0.00300392
0.00300644
0.003009812
0.00301401
0.003019007
0.003024777
0.003031299
0.003038536
0.003046193
0.003054216
0.003062655
0.003071564
0.003081046
0.003091334
0.003102555
0.003114444
0.003126616
0.003138841
0.003150932
0.003162719
0.003174066
0.003184859
0.003195012
0.003204451
0.003213125
0.003220991
0.003228024
0.003234206
0.003239531
0.003244005
0.00324764
0.003250455
0.003252482
0.003253752
0.003254307
0.003254195
0.003253465
0.003252174
0.003250379
0.00324814
0.003245518
0.003242579
0.003239379
0.003235988
0.003232449
0.00322884
0.00322521
0.003223044
0.003209481
0.003197363
0.003186267
0.003176195
0.003167269
0.003159492
0.003152775
0.003147004
0.003142079
0.003137932
0.003134513
0.003131776
0.003129675
0.003128161
0.003127194
0.003126744
0.003126782
0.003127278
0.003128197
0.003129507
0.00313118
0.003133194
0.003135526
0.003138155
0.003141062
0.003144229
0.003147637
0.00315127
0.003155112
0.003159147
0.003163359
0.003167735
0.00317226
0.00317692
0.003181702
0.003186595
0.003191587
0.003196666
0.003201818
0.003207028
0.00321228
0.003217553
0.003222821
0.00322805
0.003233202
0.003238229
0.003243104
0.00324784
0.003252493
0.003257084
0.003261639
0.003266133
0.003270578
0.003274969
0.00327935
0.003283797
0.003288357
0.003293023
0.003297712
0.003302378
0.003307011
0.003311622
0.003316219
0.003320806
0.003325387
0.003329962
0.003334535
0.003339106
0.003343678
0.00334825
0.003352822
0.003357392
0.003361959
0.003366519
0.003371069
0.003375607
0.003380134
0.003384653
0.003389175
0.003393701
0.003398214
0.003402703
0.003407167
0.003411606
0.003416024
0.003420426
0.003424817
0.003429201
0.003433584
0.003437969
0.003442362
0.003446767
0.003451191
0.003455638
0.003460114
0.003464625
0.003469177
0.003473775
0.003478423
0.003483127
0.003487891
0.003492719
0.003497613
0.003502576
0.00350761
0.003512716
0.003517894
0.003523146
0.003528471
0.003533869
0.003539339
0.003544881
0.003550493
0.003556175
0.003561929
0.003567755
0.003573658
0.003579643
0.003585717
0.003591893
0.003598182
0.003604604
0.003611178
0.003617932
0.003624896
0.003632112
0.003639623
0.003647492
0.003655784
0.003664598
0.003674035
0.003684255
0.003695415
0.003707757
0.003721515
0.003737038
0.003754833
0.003775109
0.003796476
4.798395e-05
7.621146e-05
0.0001875589
0.0006437092
0.001117106
0.002033235
0.002743881
0.003570075
0.004410286
0.005005373
0.005337779
0.005542543
0.005693282
0.005731754
0.005350212
0.005038641
0.004808087
0.004645448
0.004574588
0.004575127
0.004662926
0.004760095
0.004873993
0.005086884
0.005322826
0.005589784
0.005887544
0.006220923
0.006584461
0.006932067
0.006973902
0.007511418
0.007529658
0.007526404
0.007507282
0.007475151
0.007431623
0.007377776
0.007314474
0.007242417
0.007161799
0.007072923
0.006976665
0.006873472
0.006764001
0.006649773
0.006538051
0.006428797
0.00631544
0.006200096
0.006083435
0.005969331
0.005860171
0.005757074
0.005661417
0.005573959
0.005494568
0.005422163
0.005354821
0.005289537
0.005222558
0.005149907
0.00506755
0.004972453
0.004862364
0.004737922
0.004600632
0.00445702
0.004284554
0.004126648
0.003993402
0.003887284
0.003808943
0.003757425
0.003730367
0.003724472
0.003735987
0.003761073
0.003795809
0.003836968
0.003882079
0.003929158
0.003976712
0.00402377
0.004069852
0.004114874
0.004159106
0.004202763
0.004246524
0.004291217
0.004337357
0.004385254
0.004435194
0.004487352
0.004541568
0.004596872
0.004652679
0.00470955
0.004768253
0.004828959
0.004891045
0.004954086
0.005017718
0.005081595
0.005145569
0.005209102
0.005271321
0.005332519
0.005392974
0.005452929
0.005512606
0.005572189
0.005631851
0.005691763
0.005752104
0.005813014
0.005874616
0.005937117
0.006000774
0.006065839
0.006132541
0.006201082
0.006271643
0.006344347
0.006419087
0.006495123
0.006571795
0.006649293
0.006727711
0.00680662
0.006885524
0.006964247
0.007042753
0.007120977
0.007198844
0.007276251
0.007353044
0.007429018
0.007503947
0.007577614
0.007649827
0.007720431
0.007789333
0.007856549
0.007922231
0.00798655
0.008049638
0.008111825
0.008173282
0.008233337
0.00829089
0.008344897
0.008394141
0.008437318
0.008474663
0.008508121
0.008539046
0.008567865
0.008594671
0.008619509
0.008642409
0.008663386
0.008682451
0.008699607
0.008714848
0.008728153
0.00873949
0.008748825
0.00875612
0.008761329
0.008764407
0.00876531
0.008763994
0.008760401
0.00875446
0.008746093
0.008735219
0.008721757
0.008705631
0.008686761
0.008665082
0.008640544
0.008613104
0.008582725
0.008549371
0.008513006
0.008473595
0.008431098
0.008385477
0.008336692
0.008284704
0.008229471
0.008170951
0.008109112
0.008043938
0.007975431
0.007903605
0.007828481
0.007750092
0.007668479
0.007583702
0.007495842
0.007405009
0.007311345
0.007215001
0.007116118
0.007014835
0.006911328
0.006805822
0.006698576
0.006589855
0.006479907
0.006368967
0.006257347
0.006145293
0.006032842
0.005921363
0.005812194
0.005705778
0.005602509
0.005502742
0.005406793
0.005314929
0.005227354
0.005144215
0.005065613
0.004991606
0.004922205
0.004857376
0.004797047
0.004741109
0.004689423
0.004641823
0.004598119
0.004558105
0.004521561
0.00448826
0.004457969
0.004430455
0.004405492
0.004382862
0.00436236
0.004343804
0.004327034
0.00431193
0.004298326
0.004285802
0.004273919
0.004262543
0.004251625
0.004241158
0.004231061
0.004221362
0.004211935
0.004202333
0.004192793
0.004183464
0.004174483
0.004165961
0.004157967
0.004150551
0.004143757
0.004137633
0.004132238
0.004127629
0.004123868
0.004121018
0.004119142
0.004118302
0.004118554
0.004119953
0.004122543
0.004126361
0.004131436
0.004137785
0.004145415
0.00415432
0.004164486
0.004175885
0.004188474
0.004202205
0.004217024
0.004232867
0.004249666
0.004267328
0.004285752
0.004304879
0.004324664
0.004345099
0.004366211
0.004387999
0.004410311
0.004432887
0.00445548
0.004477876
0.004499887
0.004521351
0.004542119
0.004562059
0.004581069
0.004599057
0.004615947
0.004631679
0.004646206
0.004659495
0.004671525
0.004682287
0.004691787
0.004700039
0.00470706
0.004712891
0.004717574
0.004721161
0.00472371
0.004725285
0.004725955
0.004725797
0.004724884
0.004723305
0.004721132
0.004718459
0.004715353
0.004711925
0.004708281
0.004703701
0.004698368
0.004692618
0.004686679
0.004680701
0.004674797
0.004669055
0.004663546
0.004658332
0.004653464
0.004648987
0.004644932
0.004641317
0.004638148
0.004635428
0.004633155
0.004631324
0.004629926
0.004628944
0.004628364
0.004628169
0.004628342
0.004628867
0.004629725
0.004630901
0.004632376
0.004634136
0.004636164
0.004638445
0.004640963
0.004643704
0.004646652
0.004649792
0.00465311
0.004656592
0.004660225
0.004663994
0.004667886
0.004671886
0.004675977
0.004680142
0.004684357
0.004688599
0.004692838
0.004697046
0.004701194
0.004705266
0.00470927
0.00471324
0.004717208
0.004721212
0.004725374
0.004729712
0.004734178
0.004738688
0.004743126
0.004747372
0.004751361
0.004755246
0.004759119
0.004763025
0.004766986
0.004771003
0.004775072
0.004779182
0.004783323
0.004787482
0.004791646
0.004795803
0.004799943
0.004804057
0.004808137
0.004812174
0.004816159
0.004820084
0.004823941
0.00482772
0.004831409
0.004834988
0.004838454
0.004841846
0.004845177
0.004848459
0.004851699
0.004854915
0.004858127
0.004861373
0.004864711
0.004868129
0.004871592
0.004875093
0.004878631
0.004882209
0.004885828
0.004889491
0.0048932
0.004896962
0.004900782
0.004904666
0.00490862
0.004912649
0.00491676
0.004920956
0.004925241
0.00492962
0.004934094
0.004938665
0.004943336
0.004948106
0.004952976
0.004957947
0.004963017
0.004968188
0.004973458
0.004978831
0.004984307
0.004989893
0.004995595
0.005001422
0.005007388
0.005013509
0.005019806
0.005026305
0.005033038
0.005040042
0.005047362
0.005055054
0.005063183
0.005071828
0.005081086
0.005091071
0.005101922
0.005113805
0.005126902
0.005141451
0.005157622
0.005175776
0.005195648
0.005216318
2.904704e-05
4.485332e-05
6.538801e-05
0.0003091181
0.00049916
0.0008191259
0.0011774
0.001515878
0.001942238
0.00235785
0.002799693
0.003346229
0.003953871
0.004580068
0.005202495
0.00588477
0.006712749
0.006765221
0.006782974
0.006930472
0.006794691
0.006420179
0.006030919
0.005642834
0.005245015
0.00490504
0.00461824
0.004407014
0.00429301
0.004267382
0.004320189
0.004429514
0.004587283
0.004806979
0.005083765
0.005409744
0.005772689
0.006185851
0.006632516
0.007161513
0.00771326
0.008407473
0.008820375
0.008881072
0.008919634
0.008938109
0.008939017
0.008924475
0.00889608
0.008855054
0.008802368
0.008738781
0.008665013
0.008581763
0.008489646
0.008389694
0.008286396
0.00817703
0.008058557
0.007932736
0.007801636
0.007667153
0.007531837
0.00739836
0.007268952
0.007145532
0.007029435
0.006921266
0.006820713
0.006726663
0.006636963
0.006548575
0.006458094
0.006361722
0.006255979
0.006137704
0.006005665
0.005859307
0.005701157
0.005532112
0.005359041
0.005191576
0.00503881
0.004907398
0.004801259
0.004721827
0.004668439
0.004638836
0.004629717
0.00463721
0.004657459
0.00468693
0.004722536
0.004761716
0.004802499
0.004843518
0.004883949
0.004923467
0.004962066
0.005000079
0.005038035
0.005076513
0.00511606
0.005157175
0.005200229
0.00524542
0.005292725
0.005342053
0.005393245
0.005445606
0.005498846
0.005553334
0.005609651
0.005667446
0.005726204
0.005785493
0.005844873
0.005904074
0.005962955
0.006021529
0.006079857
0.006138018
0.006196119
0.006254299
0.006312719
0.006371565
0.006431023
0.006491275
0.006552531
0.006615017
0.006678962
0.006744581
0.00681207
0.006881601
0.006953292
0.007027146
0.007102902
0.007180243
0.007259089
0.007339329
0.007420598
0.007502393
0.007584486
0.007666719
0.007748939
0.007831048
0.007912879
0.007994225
0.008074849
0.008154497
0.008232922
0.008309888
0.008385191
0.0084587
0.008530371
0.008600251
0.008668437
0.008735027
0.008800176
0.008863957
0.008926034
0.008985756
0.009042401
0.009095197
0.009143434
0.009187106
0.009227086
0.009264199
0.00929883
0.009331104
0.009361064
0.009388747
0.009414188
0.009437422
0.009458484
0.009477401
0.00949419
0.009508856
0.009521398
0.00953181
0.009540056
0.00954613
0.00955004
0.009551772
0.009551288
0.009548532
0.009543441
0.009535951
0.009525995
0.009513502
0.009498385
0.009480571
0.009460034
0.009436748
0.009410688
0.009381822
0.00935012
0.009315548
0.009278068
0.009237641
0.009194223
0.009147769
0.009098226
0.009045538
0.008989669
0.008930606
0.008868346
0.008802897
0.008734269
0.00866248
0.008587557
0.008509539
0.008428482
0.008344457
0.008257558
0.008167893
0.008075574
0.007980717
0.007883464
0.007783989
0.007682491
0.007579188
0.007474308
0.007368095
0.007260807
0.00715269
0.007044004
0.006934953
0.006826017
0.006718527
0.006612993
0.006509876
0.006409596
0.006312537
0.006219031
0.006129357
0.006043743
0.005962371
0.005885371
0.005812826
0.005744771
0.005681197
0.005622052
0.00556725
0.005516667
0.005470156
0.005427541
0.005388632
0.00535322
0.005321091
0.005292023
0.005265799
0.005242205
0.005221043
0.005202129
0.005185239
0.005169864
0.005155827
0.00514298
0.005131199
0.005120366
0.005110392
0.005101188
0.005092704
0.005084871
0.005077613
0.005070887
0.005064671
0.005058968
0.005053807
0.005049236
0.005045312
0.005042103
0.005039682
0.005038131
0.005037535
0.005037983
0.00503956
0.005042354
0.005046447
0.00505192
0.005058845
0.005067287
0.005077302
0.005088939
0.00510223
0.005117192
0.005133832
0.005152155
0.005172137
0.005193731
0.005216903
0.005241593
0.005267727
0.005295224
0.005323989
0.005353925
0.005384936
0.005416932
0.005449835
0.005483576
0.005518074
0.005553189
0.005588701
0.005624364
0.005659941
0.005695215
0.005729987
0.005764076
0.005797303
0.005829519
0.00586059
0.005890393
0.005918826
0.005945798
0.005971234
0.005995075
0.006017275
0.006037804
0.006056645
0.0060738
0.006089282
0.006103117
0.006115342
0.006126002
0.006135154
0.006142864
0.006149204
0.006154255
0.006158105
0.006160844
0.006162572
0.006163384
0.006163384
0.006162664
0.006161269
0.006159267
0.006156768
0.006153867
0.006150664
0.00614726
0.006143745
0.006140195
0.006136673
0.006133237
0.006129937
0.006126819
0.006123919
0.006121264
0.006118875
0.006116767
0.006114952
0.00611344
0.006112232
0.006111326
0.00611072
0.006110406
0.006110379
0.00611063
0.006111149
0.006111926
0.006112953
0.006114219
0.006115713
0.006117424
0.006119341
0.006121451
0.006123745
0.006126209
0.006128832
0.006131603
0.00613451
0.006137542
0.006140684
0.006143924
0.006147245
0.006150631
0.006154063
0.006157523
0.006160996
0.006164477
0.006167968
0.006171509
0.006175256
0.006179147
0.00618309
0.006186874
0.006190495
0.006193974
0.006197311
0.006200537
0.00620371
0.006206863
0.006210005
0.006213145
0.006216297
0.006219477
0.006222699
0.006225967
0.00622928
0.00623263
0.006236013
0.006239416
0.006242826
0.006246233
0.006249623
0.006252987
0.006256315
0.006259595
0.00626282
0.006265982
0.006269076
0.006272096
0.00627504
0.006277908
0.0062807
0.006283418
0.006286058
0.006288615
0.006291082
0.006293445
0.006295678
0.006297727
0.006299659
0.00630158
0.006303573
0.006305741
0.006308061
0.006310485
0.006312992
0.006315573
0.00631822
0.006320934
0.006323717
0.006326573
0.006329508
0.006332526
0.006335635
0.006338838
0.006342141
0.006345548
0.006349062
0.006352687
0.006356425
0.006360278
0.006364247
0.006368334
0.006372541
0.00637687
0.006381325
0.00638591
0.006390632
0.006395501
0.006400528
0.006405729
0.006411123
0.006416735
0.006422592
0.006428731
0.006435192
0.006442025
0.006449286
0.006457045
0.00646538
0.006474385
0.00648417
0.006494858
0.006506595
0.00651953
0.00653385
0.00654967
0.006567229
0.006586191
0.006605445
2.647276e-05
3.958393e-05
8.40284e-05
0.0002358884
0.0003626829
0.0005466664
0.000695048
0.0008661311
0.00107292
0.001282446
0.001537307
0.001875138
0.002270073
0.002746802
0.003361399
0.004411437
0.004918357
0.005426188
0.005915278
0.00637029
0.006783013
0.006875209
0.006825778
0.006710391
0.006489359
0.006245042
0.006524605
0.006452519
0.006446215
0.006414668
0.006314575
0.006083673
0.0057669
0.005386827
0.004967222
0.004572623
0.004266622
0.004073453
0.003998456
0.004020336
0.004120991
0.004298619
0.004549687
0.004869432
0.005259978
0.005725152
0.006270749
0.006916179
0.007692124
0.008579118
0.009419631
0.009577336
0.009701288
0.00979797
0.009870764
0.009921336
0.00995148
0.009963139
0.009958065
0.009937745
0.009903516
0.009856602
0.009798091
0.009728962
0.009650244
0.009563638
0.009472377
0.009371332
0.009261043
0.009142322
0.009016242
0.008883855
0.008747065
0.008608181
0.008469554
0.008333378
0.008201505
0.008075246
0.007955219
0.007841271
0.007732365
0.007626606
0.00752145
0.007413805
0.007300447
0.007178197
0.007044701
0.006898343
0.00673933
0.006568901
0.006390342
0.006209706
0.00603468
0.005872761
0.005730088
0.005610913
0.005517326
0.005449369
0.005405354
0.005382392
0.00537694
0.005385314
0.005403997
0.005429838
0.005460171
0.005492914
0.005526545
0.005560089
0.00559307
0.005625341
0.005656998
0.005688409
0.005720036
0.005752376
0.005785906
0.005821033
0.005858072
0.005897235
0.005938624
0.005982189
0.006027817
0.006075353
0.006124135
0.006174169
0.006225372
0.006271431
0.006300029
0.006331072
0.006366723
0.006406463
0.006448315
0.006491825
0.006537504
0.006585759
0.006636499
0.00668928
0.006744018
0.006801208
0.00686096
0.006922884
0.006986691
0.007052425
0.007120264
0.007190282
0.007262584
0.007337256
0.007417748
0.007507654
0.007603228
0.007701287
0.007803224
0.007890944
0.007972466
0.008054688
0.008137417
0.008220463
0.008303596
0.008386537
0.008468993
0.008550669
0.008631265
0.008710469
0.00878796
0.008863603
0.008937334
0.00900915
0.00907908
0.009147166
0.009213465
0.009277976
0.009340506
0.009400665
0.009457989
0.009511998
0.009562292
0.009608816
0.009651968
0.009692229
0.009729894
0.009765086
0.009797814
0.009828158
0.009856215
0.009882059
0.009905749
0.00992733
0.009946832
0.009964272
0.00997966
0.009993003
0.01
0.01
0.01
0.01
0.01
0.01
0.01
0.01
0.01
0.01
0.009998365
0.009984858
0.009968803
0.009950186
0.009928991
0.009905198
0.009878786
0.00984973
0.009818
0.009783564
0.00974638
0.009706396
0.009663537
0.009617682
0.009568819
0.009516957
0.009462103
0.009404257