/*--------------------------------*- C++ -*----------------------------------*\
| =========                 |                                                 |
| \\      /  F ield         | foam-extend: Open Source CFD                    |
|  \\    /   O peration     | Version:     3.1                                |
|   \\  /    A nd           | Web:         http://www.extend-project.de       |
|    \\/     M anipulation  |                                                 |
\*---------------------------------------------------------------------------*/
FoamFile
{
    version     2.0;
    format      ascii;
    class       volScalarField;
    location    "6.5";
    object      p;
}
// * * * * * * * * * * * * * * * * * * * * * * * * * * * * * * * * * * * * * //

dimensions      [1 -1 -2 0 0 0 0];

internalField   nonuniform List<scalar> 
119952
(
8388.752
8371.303
8369.084
8379.633
8391.281
8392.068
8394.56
8397.13
8399.778
8402.517
8405.324
8408.193
8411.127
8414.13
8417.2
8420.333
8423.502
8426.627
8429.396
8429.913
8450.814
8447.23
8448.939
8474.773
8476.193
8482.626
8489.137
8499.048
8522.379
9082.413
7801.456
7811.462
7823.363
7835.794
7848.542
7861.488
7874.59
7887.82
7901.153
7912.146
7908.35
7918.642
7928.622
7938.576
7948.392
7958.017
7967.422
7976.602
7985.756
7966.216
7973.141
7981.12
7989.023
7996.768
8004.312
8011.642
8018.761
8025.701
8032.534
8038.77
8045.17
8051.31
8057.348
8063.272
8069.073
8074.75
8080.397
8086.821
8095.617
8096.885
8101.277
8106.919
8111.97
8115.671
8119.035
8122.411
8125.776
8129.174
8132.617
8136.11
8139.661
8143.273
8146.949
8150.687
8154.477
8158.3
8162.147
8166.197
8171.408
8176.167
8180.812
8188.814
8197.852
8204.199
8210.912
8217.559
8221.507
8215.992
8219.114
8225.523
8231.808
8238.047
8244.231
8250.383
8256.524
8262.649
8268.751
8274.819
8280.842
8286.805
8292.696
8298.502
8304.211
8309.807
8315.273
8320.602
8325.783
8330.804
8335.657
8340.334
8344.826
8349.127
8353.232
8357.136
8360.835
8364.328
8367.613
8370.69
8373.559
8376.223
8378.684
8380.948
8383.015
8384.888
8386.576
8388.082
8389.413
8390.574
8391.571
8392.411
8393.093
8393.632
8394.029
8394.274
8394.344
8394.288
8394.547
8395.135
8395.526
8395.231
8394.855
8394.504
8394.096
8393.694
8393.25
8392.78
8392.288
8391.786
8391.273
8390.759
8390.253
8389.762
8389.291
8388.843
8388.42
8388.028
8387.668
8387.343
8387.054
8386.805
8386.597
8386.432
8386.308
8386.227
8386.188
8386.192
8386.238
8386.326
8386.452
8386.614
8386.814
8387.044
8387.305
8387.592
8387.907
8388.231
8388.571
8388.931
8389.296
8389.655
8390.004
8390.336
8390.633
8390.866
8390.984
8390.959
8391.133
8424.229
8425.107
8425.208
8425.384
8425.588
8425.778
8425.943
8426.085
8426.196
8426.275
8426.325
8426.344
8426.334
8426.292
8426.222
8426.121
8425.975
8425.819
8425.609
8425.387
8425.137
8424.856
8424.538
8424.181
8423.778
8423.324
8422.811
8422.219
8421.532
8420.717
8419.723
8418.466
8416.815
8414.583
8410.734
8406.001
8411.849
8415.565
8418.378
8420.634
8422.615
8424.383
8426.014
8427.546
8429.008
8430.414
8431.778
8433.11
8434.417
8435.705
8436.979
8438.243
8439.501
8440.754
8442.006
8443.259
8444.516
8445.777
8447.046
8448.324
8449.614
8450.916
8452.233
8453.567
8454.921
8456.3
8457.715
8459.197
8460.643
8461.93
8445.183
8440.952
8434.907
8436.808
8438.574
8439.437
8440.613
8442.076
8443.559
8445.036
8446.546
8448.116
8449.72
8451.348
8453.001
8454.676
8456.367
8458.071
8459.786
8461.513
8463.251
8464.996
8466.749
8468.511
8470.279
8472.053
8473.832
8475.617
8477.407
8479.203
8481.004
8482.81
8484.623
8486.442
8488.269
8490.105
8491.953
8493.815
8495.696
8497.603
8499.545
8501.539
8503.613
8505.799
8508.043
8510.036
8511.372
8512.352
8513.498
8514.814
8516.215
8517.68
8519.054
8518.894
8515.8
8520.845
8523.249
8524.442
8525.993
8527.508
8528.939
8530.404
8531.907
8533.439
8534.998
8536.58
8538.182
8539.807
8541.446
8543.108
8544.793
8546.497
8548.221
8549.965
8551.73
8553.515
8555.322
8557.152
8559.004
8560.877
8562.773
8564.693
8566.637
8568.606
8570.601
8572.621
8574.666
8576.736
8578.83
8580.947
8583.087
8585.247
8587.427
8589.624
8591.837
8594.063
8596.299
8598.542
8600.79
8603.038
8605.284
8607.523
8609.752
8611.964
8614.156
8616.323
8618.459
8620.559
8622.617
8624.627
8626.584
8628.48
8630.309
8632.063
8633.736
8635.32
8636.806
8638.186
8639.45
8640.589
8641.59
8642.443
8643.134
8643.647
8643.964
8644.065
8643.924
8643.512
8642.788
8641.701
8640.178
8638.121
8635.398
8631.778
8626.885
8620.371
8613.764
8617.426
8651.091
6136.067
6198.44
6267.473
6341.831
6417.165
6493.45
6570.073
6646.168
6720.816
6766.412
6843.549
6909.41
6972.765
7032.358
7087.983
7139.434
7186.635
7230.489
7259.254
7286.826
7313.473
7342.89
7368.397
7391.269
7411.338
7428.684
7443.677
7456.603
7466.734
7476.918
7485.806
7494.009
7501.894
7509.583
7517.217
7524.916
7532.742
7540.5
7548.539
7557.514
7566.548
7575.8
7585.282
7594.995
7604.864
7614.841
7624.923
7635
7644.78
7654.566
7664.312
7673.952
7683.434
7692.733
7701.871
7711.087
7660.337
7668.699
7676.77
7684.586
7692.216
7699.656
7706.895
7713.942
7720.814
7727.534
7733.985
7740.23
7746.349
7752.358
7758.253
7764.048
7769.785
7775.549
7781.369
7786.88
7791.391
7795.82
7800.533
7805.022
7808.973
7812.559
7816.018
7819.442
7822.861
7826.299
7829.774
7833.301
7836.889
7840.547
7844.284
7848.113
7852.059
7856.18
7860.596
7865.439
7870.6
7876.215
7882.688
7889.469
7895.659
7901.189
7905.79
7908.868
7910.748
7914.246
7919.41
7925.168
7931.054
7936.993
7942.975
7948.98
7954.987
7960.979
7966.943
7972.864
7978.729
7984.524
7990.236
7995.85
8001.352
8006.729
8011.97
8017.064
8022.001
8026.772
8031.369
8035.786
8040.017
8044.057
8047.902
8051.548
8054.994
8058.239
8061.283
8064.126
8066.772
8069.222
8071.48
8073.551
8075.439
8077.148
8078.683
8080.05
8081.254
8082.3
8083.195
8083.947
8084.563
8085.049
8085.415
8085.686
8085.908
8086.146
8086.42
8086.622
8086.635
8086.502
8086.277
8086.035
8085.749
8085.428
8085.072
8084.704
8084.31
8083.89
8083.462
8083.038
8082.626
8082.227
8081.844
8081.478
8081.137
8080.813
8080.525
8080.277
8080.053
8079.868
8079.721
8079.613
8079.544
8079.515
8079.526
8079.577
8079.667
8079.793
8079.956
8080.152
8080.38
8080.637
8080.92
8081.226
8081.547
8081.885
8082.234
8082.592
8082.945
8083.294
8083.625
8083.951
8084.255
8084.586
8084.939
8085.337
8148.163
8148.73
8148.853
8149.102
8149.344
8149.542
8149.711
8149.851
8149.959
8150.035
8150.082
8150.099
8150.087
8150.045
8149.973
8149.87
8149.737
8149.575
8149.383
8149.164
8148.913
8148.627
8148.305
8147.944
8147.539
8147.085
8146.573
8145.989
8145.314
8144.52
8143.568
8142.427
8141.032
8139.402
8137.742
8136.966
8138.371
8141.037
8143.234
8145.176
8146.988
8148.66
8150.227
8151.716
8153.147
8154.531
8155.879
8157.198
8158.496
8159.778
8161.048
8162.31
8163.567
8164.822
8166.077
8167.334
8168.595
8169.862
8171.137
8172.422
8173.718
8175.028
8176.352
8177.694
8179.056
8180.442
8181.857
8183.304
8184.833
8187.026
8128.949
8131.703
8132.228
8131.888
8132.091
8133.062
8134.438
8135.91
8137.375
8138.846
8140.36
8141.925
8143.532
8145.167
8146.825
8148.503
8150.197
8151.904
8153.622
8155.351
8157.091
8158.841
8160.6
8162.366
8164.138
8165.917
8167.701
8169.491
8171.286
8173.086
8174.891
8176.701
8178.517
8180.339
8182.169
8184.007
8185.855
8187.716
8189.594
8191.491
8193.414
8195.362
8197.329
8199.286
8201.177
8202.922
8204.445
8205.789
8207.102
8208.461
8209.839
8211.123
8212.074
8212.413
8212.48
8213.651
8215.739
8217.979
8219.903
8221.514
8222.986
8224.454
8225.959
8227.494
8229.05
8230.624
8232.218
8233.831
8235.465
8237.12
8238.796
8240.494
8242.212
8243.953
8245.714
8247.498
8249.305
8251.136
8252.993
8254.865
8256.762
8258.685
8260.633
8262.606
8264.605
8266.629
8268.679
8270.755
8272.854
8274.976
8277.12
8279.285
8281.469
8283.671
8285.887
8288.116
8290.355
8292.601
8294.851
8297.101
8299.348
8301.588
8303.815
8306.027
8308.217
8310.381
8312.513
8314.608
8316.661
8318.665
8320.613
8322.501
8324.32
8326.063
8327.725
8329.295
8330.768
8332.133
8333.382
8334.504
8335.489
8336.326
8337.001
8337.5
8337.806
8337.899
8337.76
8337.357
8336.664
8335.633
8334.231
8332.387
8330.1
8327.371
8324.535
8322.205
8321.644
8323.35
8327.912
5331.515
5773.798
6236.088
6685.766
7105.524
7481.875
7793.663
8032.027
8193.315
8270.158
8261.043
8214.573
8122.691
7995.017
7841.404
7670.154
7488.562
7301.981
7118.019
6868.747
6698.062
6531.85
6376.008
6233.489
6105.584
5993.386
5897.349
5817.562
5756.931
5704.761
5669.47
5653.123
5649.553
5660.209
5682.996
5717.236
5762.262
5816.465
5872.446
5932.494
6005.042
6078.913
6152.402
6226.668
6300.754
6373.948
6445.56
6515.647
6584.157
6648.802
6709.726
6767.431
6821.963
6872.95
6920.357
6964.855
6954.278
6992.189
7021.056
7047.942
7073.349
7096.029
7115.414
7131.836
7145.877
7157.985
7168.362
7177.268
7185.392
7193.078
7200.49
7207.772
7215.073
7222.514
7230.179
7238.071
7246.164
7254.73
7263.723
7273.035
7282.496
7292.178
7302.038
7312.009
7322.015
7331.981
7341.868
7351.678
7361.395
7370.974
7380.372
7389.565
7398.501
7407.33
7415.926
7424.169
7432.171
7439.97
7447.573
7454.973
7462.168
7469.17
7475.986
7482.625
7489.061
7495.317
7501.434
7507.426
7513.3
7519.063
7524.735
7530.325
7535.811
7541.075
7545.781
7550.245
7554.733
7559.052
7563.008
7566.672
7570.198
7573.663
7577.099
7580.535
7583.994
7587.496
7591.056
7594.689
7598.411
7602.244
7606.219
7610.386
7614.811
7619.577
7624.661
7630.07
7635.918
7641.931
7647.574
7652.685
7657.19
7660.963
7664.157
7668.049
7672.984
7678.457
7684.114
7689.873
7695.71
7701.597
7707.503
7713.406
7719.29
7725.138
7730.936
7736.668
7742.321
7747.88
7753.331
7758.661
7763.858
7768.911
7773.81
7778.546
7783.113
7787.503
7791.712
7795.735
7799.568
7803.207
7806.651
7809.899
7812.951
7815.809
7818.475
7820.951
7823.24
7825.347
7827.276
7829.033
7830.622
7832.048
7833.317
7834.434
7835.408
7836.244
7836.954
7837.545
7838.032
7838.432
7838.77
7839.072
7839.346
7839.558
7839.655
7839.64
7839.543
7839.398
7839.212
7838.984
7838.726
7838.427
7838.126
7837.794
7837.461
7837.125
7836.796
7836.471
7836.153
7835.846
7835.553
7835.278
7835.029
7834.81
7834.616
7834.454
7834.325
7834.23
7834.171
7834.148
7834.162
7834.212
7834.299
7834.42
7834.576
7834.764
7834.983
7835.23
7835.503
7835.798
7836.111
7836.441
7836.782
7837.129
7837.482
7837.827
7838.19
7838.549
7838.919
7839.311
7839.784
7840.384
7841.188
7841.753
7842.057
7842.247
7842.443
7842.649
7842.832
7842.979
7843.09
7843.17
7843.218
7843.236
7843.224
7843.181
7843.107
7843.003
7842.87
7842.706
7842.514
7842.291
7842.038
7841.751
7841.43
7841.071
7840.671
7840.225
7839.728
7839.169
7838.539
7837.833
7837.046
7836.188
7835.282
7834.445
7833.907
7833.976
7834.84
7836.325
7838.001
7839.632
7841.174
7842.648
7844.077
7845.468
7846.824
7848.151
7849.453
7850.737
7852.008
7853.269
7854.523
7855.773
7857.022
7858.272
7859.524
7860.781
7862.044
7863.315
7864.595
7865.887
7867.19
7868.508
7869.84
7871.19
7872.556
7873.947
7875.353
7876.792
7878.229
7879.691
7880.753
7881.192
7881.956
7883.289
7884.938
7886.659
7888.352
7890.003
7891.626
7893.236
7894.852
7896.484
7898.136
7899.804
7901.484
7903.178
7904.884
7906.601
7908.329
7910.067
7911.815
7913.572
7915.336
7917.107
7918.884
7920.668
7922.456
7924.25
7926.049
7927.853
7929.661
7931.474
7933.292
7935.116
7936.946
7938.782
7940.627
7942.481
7944.345
7946.221
7948.107
7949.999
7951.884
7953.743
7955.547
7957.262
7958.853
7960.315
7961.699
7963.086
7964.505
7966.023
7967.757
7969.839
7972.023
7973.626
7974.52
7975.23
7976.109
7977.209
7978.45
7979.778
7981.173
7982.626
7984.125
7985.66
7987.226
7988.819
7990.436
7992.077
7993.74
7995.425
7997.132
7998.861
8000.613
8002.389
8004.189
8006.016
8007.888
8009.741
8011.626
8013.541
8015.482
8017.449
8019.443
8021.462
8023.508
8025.582
8027.679
8029.799
8031.942
8034.107
8036.291
8038.492
8040.709
8042.938
8045.178
8047.426
8049.678
8051.931
8054.181
8056.425
8058.657
8060.873
8063.069
8065.239
8067.378
8069.48
8071.541
8073.553
8075.511
8077.409
8079.239
8080.995
8082.669
8084.254
8085.742
8087.124
8088.393
8089.538
8090.549
8091.415
8092.125
8092.666
8093.023
8093.18
8093.12
8092.822
8092.265
8091.428
8090.292
8088.862
8087.173
8085.344
8083.578
8082.178
8081.436
8081.828
8083.589
2387.668
2462.763
2555.269
2661.797
2802.97
2955.991
3162.087
3406.882
3693.758
3974.224
4264.094
4609.216
4997.182
5421.321
5864.741
6303.671
6715.258
7079.551
7379.199
7604.923
7754.96
7835.937
7851.303
7804.816
7712.541
7585.726
7433.855
7265.437
7087.601
6907.567
6733.338
6421.781
6262.353
6113.664
5968.223
5833.344
5713.598
5609.879
5521.932
5449.494
5392.136
5350.511
5324.118
5311.923
5313.526
5328.475
5356.041
5395.277
5443.191
5499.5
5562.713
5629.701
5700.251
5774.191
5849.988
5926.109
6001.565
6075.712
6148.076
6218.099
6285.051
6348.931
6409.704
6467.265
6521.338
6572.056
6619.167
6664.172
6708.803
6747.016
6777.877
6805.461
6831.172
6854.209
6873.932
6890.539
6904.586
6916.546
6926.817
6935.75
6943.729
6951.129
6958.226
6965.216
6972.253
6979.458
6986.919
6994.707
7002.832
7011.322
7020.184
7029.38
7038.859
7048.576
7058.462
7068.448
7078.482
7088.486
7098.412
7108.206
7117.888
7127.424
7136.775
7145.925
7154.843
7163.579
7172.096
7180.286
7188.236
7195.982
7203.521
7210.853
7217.982
7224.918
7231.668
7238.241
7244.633
7250.855
7256.929
7262.871
7268.686
7274.379
7279.952
7285.4
7290.697
7295.771
7300.484
7304.96
7309.326
7313.524
7317.464
7321.176
7324.748
7328.235
7331.678
7335.114
7338.565
7342.053
7345.597
7349.215
7352.931
7356.765
7360.747
7364.915
7369.313
7373.985
7378.922
7384.112
7389.555
7395.071
7400.38
7405.35
7409.93
7414.099
7418.011
7422.285
7427.163
7432.453
7437.958
7443.597
7449.334
7455.133
7460.964
7466.802
7472.629
7478.427
7484.179
7489.87
7495.485
7501.01
7506.428
7511.726
7516.893
7521.916
7526.786
7531.495
7536.037
7540.404
7544.594
7548.6
7552.419
7556.045
7559.478
7562.719
7565.767
7568.624
7571.291
7573.772
7576.071
7578.19
7580.136
7581.914
7583.528
7584.982
7586.282
7587.436
7588.45
7589.334
7590.095
7590.744
7591.292
7591.753
7592.142
7592.475
7592.758
7592.978
7593.111
7593.153
7593.122
7593.038
7592.909
7592.74
7592.54
7592.309
7592.045
7591.771
7591.457
7591.185
7590.931
7590.665
7590.4
7590.143
7589.897
7589.668
7589.459
7589.274
7589.114
7588.981
7588.878
7588.805
7588.765
7588.758
7588.785
7588.846
7588.94
7589.069
7589.229
7589.421
7589.642
7589.89
7590.163
7590.459
7590.774
7591.106
7591.45
7591.804
7592.163
7592.537
7592.897
7593.268
7593.651
7594.063
7594.504
7594.988
7595.414
7595.815
7596.197
7596.531
7596.818
7597.064
7597.269
7597.433
7597.558
7597.648
7597.705
7597.73
7597.724
7597.686
7597.617
7597.518
7597.389
7597.231
7597.043
7596.826
7596.58
7596.302
7595.992
7595.649
7595.27
7594.853
7594.395
7593.894
7593.348
7592.761
7592.137
7591.499
7590.898
7590.421
7590.193
7590.337
7590.969
7592.064
7593.416
7594.809
7596.171
7597.508
7598.83
7600.138
7601.429
7602.703
7603.964
7605.215
7606.458
7607.697
7608.934
7610.17
7611.409
7612.651
7613.899
7615.153
7616.415
7617.687
7618.97
7620.264
7621.572
7622.894
7624.23
7625.583
7626.952
7628.339
7629.74
7631.149
7632.546
7633.892
7635.223
7636.669
7638.175
7639.588
7640.909
7642.241
7643.643
7645.112
7646.623
7648.161
7649.724
7651.316
7652.936
7654.581
7656.246
7657.927
7659.624
7661.338
7663.066
7664.805
7666.554
7668.311
7670.077
7671.85
7673.63
7675.416
7677.208
7679.004
7680.806
7682.612
7684.422
7686.237
7688.056
7689.879
7691.707
7693.539
7695.376
7697.219
7699.067
7700.918
7702.77
7704.617
7706.45
7708.255
7710.013
7711.704
7713.307
7714.82
7716.279
7717.725
7719.166
7720.582
7721.908
7723.094
7724.178
7725.323
7726.69
7728.232
7729.82
7731.366
7732.871
7734.362
7735.861
7737.379
7738.915
7740.472
7742.049
7743.648
7745.266
7746.905
7748.564
7750.244
7751.945
7753.668
7755.414
7757.182
7758.972
7760.782
7762.595
7764.478
7766.379
7768.301
7770.248
7772.22
7774.219
7776.243
7778.293
7780.375
7782.468
7784.586
7786.729
7788.897
7791.085
7793.291
7795.512
7797.747
7799.992
7802.247
7804.506
7806.766
7809.025
7811.277
7813.519
7815.746
7817.953
7820.135
7822.288
7824.405
7826.48
7828.509
7830.484
7832.399
7834.249
7836.025
7837.721
7839.33
7840.843
7842.254
7843.553
7844.732
7845.781
7846.691
7847.452
7848.051
7848.479
7848.721
7848.765
7848.599
7848.211
7847.596
7846.755
7845.712
7844.517
7843.258
7842.068
7841.085
7840.519
7840.494
7841.15
2694.269
2602.407
2515.135
2408.617
2314.714
2201.27
2138.998
2091.848
2065.875
2061.323
2076.185
2110.682
2169.636
2249.596
2349.098
2480.501
2600.494
2794.573
3010.682
3256.33
3535.691
3853.915
4216.604
4621.564
5057.692
5506.235
5947.913
6355.55
6715.582
7000.321
7210.515
7344.743
7407.971
7408.22
7354.253
7256.926
7127.633
6975.669
6809.22
6634.23
6455.696
6276.373
6095.855
5930.832
5782.286
5643.044
5514.45
5399.745
5300.242
5215.92
5146.637
5092.542
5053.469
5028.886
5018.697
5022.484
5039.558
5068.786
5109.06
5158.9
5217.224
5282.431
5352.645
5426.847
5504.119
5582.917
5661.809
5739.797
5816.181
5890.326
5961.796
6030.286
6095.509
6157.307
6215.633
6270.561
6322.188
6370.966
6416.652
6458.662
6496.007
6528.596
6557.701
6584.13
6607.689
6628.043
6645.298
6659.886
6672.272
6682.868
6692.028
6700.133
6707.571
6714.652
6721.603
6728.596
6735.768
6743.217
6751.012
6759.162
6767.689
6776.603
6785.871
6795.428
6805.212
6815.154
6825.189
6835.255
6845.296
6855.263
6865.15
6874.869
6884.391
6893.712
6902.832
6911.737
6920.418
6928.828
6936.951
6944.83
6952.491
6959.937
6967.174
6974.211
6981.059
6987.724
6994.215
7000.534
7006.69
7012.697
7018.566
7024.302
7029.906
7035.372
7040.691
7045.837
7050.767
7055.429
7059.868
7064.145
7068.261
7072.183
7075.921
7079.53
7083.017
7086.437
7089.862
7093.305
7096.779
7100.309
7103.916
7107.626
7111.458
7115.431
7119.576
7123.924
7128.497
7133.291
7138.283
7143.436
7148.639
7153.733
7158.62
7163.266
7167.696
7172.032
7176.569
7181.472
7186.689
7192.117
7197.687
7203.353
7209.083
7214.851
7220.634
7226.41
7232.162
7237.872
7243.524
7249.107
7254.603
7259.994
7265.264
7270.402
7275.394
7280.232
7284.909
7289.418
7293.754
7297.914
7301.897
7305.693
7309.298
7312.711
7315.933
7318.965
7321.809
7324.466
7326.939
7329.233
7331.352
7333.303
7335.091
7336.719
7338.186
7339.502
7340.674
7341.712
7342.623
7343.416
7344.1
7344.685
7345.183
7345.605
7345.961
7346.255
7346.484
7346.639
7346.718
7346.731
7346.69
7346.604
7346.481
7346.325
7346.14
7345.931
7345.716
7345.497
7345.17
7345.019
7344.81
7344.593
7344.381
7344.181
7343.995
7343.827
7343.681
7343.558
7343.459
7343.387
7343.344
7343.33
7343.346
7343.394
7343.473
7343.583
7343.725
7343.896
7344.097
7344.326
7344.58
7344.858
7345.157
7345.475
7345.809
7346.154
7346.51
7346.873
7347.246
7347.623
7348.008
7348.402
7348.81
7349.229
7349.656
7350.078
7350.496
7350.883
7351.21
7351.484
7351.716
7351.912
7352.074
7352.201
7352.295
7352.355
7352.384
7352.381
7352.347
7352.283
7352.189
7352.065
7351.913
7351.732
7351.523
7351.285
7351.02
7350.726
7350.402
7350.049
7349.667
7349.255
7348.814
7348.349
7347.866
7347.38
7346.918
7346.523
7346.253
7346.185
7346.395
7346.942
7347.817
7348.908
7350.089
7351.294
7352.508
7353.73
7354.955
7356.178
7357.398
7358.613
7359.826
7361.038
7362.251
7363.465
7364.683
7365.906
7367.136
7368.373
7369.619
7370.875
7372.142
7373.42
7374.712
7376.017
7377.337
7378.672
7380.023
7381.389
7382.768
7384.159
7385.555
7386.952
7388.351
7389.783
7391.222
7392.569
7393.861
7395.186
7396.591
7398.072
7399.602
7401.159
7402.736
7404.331
7405.947
7407.584
7409.242
7410.917
7412.607
7414.313
7416.033
7417.767
7419.511
7421.264
7423.026
7424.797
7426.574
7428.359
7430.149
7431.945
7433.746
7435.552
7437.361
7439.174
7440.99
7442.81
7444.632
7446.457
7448.285
7450.115
7451.947
7453.779
7455.61
7457.435
7459.25
7461.046
7462.815
7464.542
7466.217
7467.83
7469.378
7470.878
7472.348
7473.809
7475.267
7476.735
7478.243
7479.783
7481.288
7482.698
7484.027
7485.334
7486.664
7488.033
7489.442
7490.887
7492.367
7493.877
7495.413
7496.971
7498.55
7500.153
7501.778
7503.425
7505.095
7506.787
7508.501
7510.239
7512
7513.784
7515.591
7517.42
7519.283
7521.172
7523.086
7525.025
7526.992
7528.985
7531.005
7533.053
7535.118
7537.225
7539.354
7541.503
7543.68
7545.869
7548.081
7550.307
7552.549
7554.803
7557.067
7559.337
7561.609
7563.88
7566.146
7568.403
7570.645
7572.869
7575.07
7577.241
7579.378
7581.475
7583.526
7585.524
7587.465
7589.34
7591.144
7592.87
7594.51
7596.057
7597.504
7598.843
7600.065
7601.163
7602.128
7602.95
7603.621
7604.131
7604.472
7604.635
7604.613
7604.403
7604.009
7603.44
7602.724
7601.904
7601.049
7600.243
7599.587
7599.193
7599.099
7599.371
3656.264
3536.053
3414.855
3279.384
3164.185
3002.335
2889.856
2775.656
2659.824
2546.205
2434.845
2328.246
2223.673
2125.434
2032.476
1877.647
1815.768
1770.126
1742.666
1735.378
1749.324
1784.238
1839.618
1915.003
2009.816
2126.543
2264.755
2436.332
2636.558
2868.011
3134.71
3444.682
3799.654
4196.916
4628.32
5074.468
5524.014
5931.278
6286.516
6570.723
6778.819
6911.198
6973.761
6975.383
6925.592
6834.301
6711.796
6566.895
6407.783
6240.548
6068.816
5897.297
5730.469
5574.012
5430.849
5298.785
5177.457
5068.568
4973.525
4892.867
4826.786
4775.409
4738.615
4716.264
4708.181
4713.803
4732.4
4763.413
4805.581
4857.725
4918.65
4986.937
5060.9
5139.059
5220.052
5302.442
5384.889
5466.316
5545.877
5622.883
5696.898
5767.594
5834.711
5898.153
5957.925
6014.145
6066.859
6116.205
6161.818
6203.729
6241.927
6276.234
6306.912
6334.397
6358.804
6380.058
6398.251
6413.704
6426.827
6438.022
6447.672
6456.167
6463.887
6471.157
6478.233
6485.311
6492.548
6500.053
6507.899
6516.12
6524.731
6533.727
6543.071
6552.704
6562.56
6572.573
6582.673
6592.796
6602.879
6612.868
6622.719
6632.404
6641.919
6651.219
6660.293
6669.116
6677.688
6685.985
6694.01
6701.792
6709.347
6716.682
6723.808
6730.737
6737.48
6744.046
6750.441
6756.671
6762.742
6768.666
6774.449
6780.093
6785.597
6790.954
6796.156
6801.184
6806.012
6810.616
6815.006
6819.215
6823.251
6827.107
6830.793
6834.388
6837.891
6841.312
6844.731
6848.168
6851.629
6855.141
6858.731
6862.432
6866.259
6870.215
6874.324
6878.613
6883.093
6887.759
6892.586
6897.533
6902.525
6907.468
6912.295
6916.992
6921.589
6926.171
6930.891
6935.855
6941.058
6946.454
6951.99
6957.615
6963.296
6969.017
6974.754
6980.489
6986.201
6991.872
6997.488
7003.036
7008.499
7013.863
7019.115
7024.235
7029.202
7034.011
7038.656
7043.133
7047.434
7051.557
7055.497
7059.251
7062.818
7066.197
7069.387
7072.39
7075.206
7077.837
7080.288
7082.561
7084.663
7086.599
7088.384
7090.018
7091.493
7092.817
7094.001
7095.059
7095.994
7096.811
7097.52
7098.132
7098.656
7099.102
7099.477
7099.785
7100.027
7100.201
7100.308
7100.355
7100.351
7100.304
7100.22
7100.106
7099.967
7099.812
7099.651
7099.496
7099.388
7099.12
7098.92
7098.739
7098.57
7098.413
7098.271
7098.146
7098.04
7097.956
7097.895
7097.859
7097.849
7097.866
7097.911
7097.986
7098.089
7098.221
7098.382
7098.571
7098.787
7099.029
7099.295
7099.583
7099.892
7100.217
7100.556
7100.91
7101.275
7101.649
7102.03
7102.417
7102.809
7103.207
7103.611
7104.019
7104.431
7104.839
7105.231
7105.588
7105.901
7106.171
7106.404
7106.604
7106.77
7106.902
7106.999
7107.064
7107.096
7107.097
7107.067
7107.007
7106.917
7106.799
7106.653
7106.479
7106.279
7106.052
7105.8
7105.523
7105.222
7104.897
7104.551
7104.185
7103.804
7103.414
7103.026
7102.656
7102.328
7102.077
7101.945
7101.981
7102.233
7102.728
7103.459
7104.369
7105.386
7106.459
7107.564
7108.693
7109.839
7110.995
7112.158
7113.326
7114.498
7115.675
7116.857
7118.045
7119.241
7120.445
7121.658
7122.882
7124.115
7125.361
7126.618
7127.89
7129.175
7130.475
7131.79
7133.121
7134.467
7135.828
7137.202
7138.587
7139.982
7141.385
7142.796
7144.209
7145.601
7146.959
7148.327
7149.739
7151.201
7152.705
7154.239
7155.799
7157.379
7158.98
7160.602
7162.244
7163.907
7165.586
7167.282
7168.994
7170.719
7172.456
7174.205
7175.963
7177.73
7179.506
7181.289
7183.079
7184.874
7186.675
7188.48
7190.289
7192.102
7193.917
7195.735
7197.555
7199.377
7201.2
7203.023
7204.846
7206.667
7208.486
7210.299
7212.104
7213.893
7215.663
7217.407
7219.115
7220.779
7222.39
7223.96
7225.492
7226.999
7228.488
7229.968
7231.439
7232.896
7234.325
7235.725
7237.106
7238.492
7239.897
7241.32
7242.761
7244.219
7245.695
7247.19
7248.706
7250.242
7251.798
7253.374
7254.971
7256.59
7258.231
7259.893
7261.578
7263.285
7265.015
7266.769
7268.547
7270.349
7272.176
7274.033
7275.917
7277.827
7279.766
7281.731
7283.725
7285.746
7287.795
7289.869
7291.97
7294.098
7296.252
7298.425
7300.63
7302.861
7305.089
7307.34
7309.607
7311.884
7314.168
7316.456
7318.744
7321.029
7323.305
7325.568
7327.814
7330.038
7332.234
7334.396
7336.52
7338.6
7340.628
7342.6
7344.508
7346.347
7348.109
7349.788
7351.377
7352.868
7354.255
7355.53
7356.685
7357.713
7358.606
7359.358
7359.961
7360.409
7360.698
7360.825
7360.791
7360.603
7360.276
7359.836
7359.318
7358.776
7358.268
7357.867
7357.626
7357.569
7357.746
3920.273
3857.862
3764.733
3634.956
3495.656
3361.135
3231.027
3108.133
2991.084
2872.853
2673.873
2558.544
2445.145
2331.589
2218.114
2106.254
1997.352
1892.106
1792.455
1701.247
1621.29
1555.548
1504.754
1472.113
1458.762
1465.562
1493.325
1541.798
1610.45
1700.178
1810.897
1941.161
2096.461
2279.04
2493.953
2745.889
3041.607
3384.419
3772.8
4200.911
4644.714
5083.751
5485.35
5830.428
6105.33
6305.218
6431.953
6492.39
6495.455
6450.77
6367.465
6254.836
6121.398
5973.606
5816.748
5656.137
5496.697
5342.623
5196.663
5061.051
4936.015
4821.493
4718.406
4627.941
4550.944
4487.948
4439.27
4405.001
4385.08
4379.228
4387.001
4407.864
4441.14
4485.862
4541.009
4605.383
4677.623
4756.123
4839.172
4925.146
5012.475
5099.733
5185.728
5269.445
5350.119
5427.299
5500.697
5570.149
5635.638
5697.16
5754.815
5808.669
5858.826
5905.253
5948.061
5987.29
6022.823
6054.725
6083.268
6108.645
6130.911
6150.167
6166.661
6180.741
6192.785
6203.176
6212.295
6220.514
6228.166
6235.53
6242.827
6250.23
6257.867
6265.822
6274.141
6282.839
6291.908
6301.313
6310.998
6320.9
6330.949
6341.075
6351.21
6361.292
6371.264
6381.085
6390.719
6400.133
6409.294
6418.196
6426.871
6435.319
6443.506
6451.409
6459.069
6466.495
6473.691
6480.682
6487.484
6494.104
6500.55
6506.828
6512.946
6518.914
6524.736
6530.417
6535.958
6541.357
6546.607
6551.704
6556.637
6561.392
6565.948
6570.302
6574.469
6578.455
6582.268
6585.941
6589.53
6593.051
6596.493
6599.906
6603.328
6606.774
6610.268
6613.83
6617.486
6621.256
6625.163
6629.224
6633.451
6637.849
6642.409
6647.107
6651.908
6656.757
6661.594
6666.38
6671.109
6675.81
6680.542
6685.392
6690.421
6695.635
6701.003
6706.493
6712.076
6717.726
6723.419
6729.132
6734.844
6740.532
6746.178
6751.767
6757.284
6762.712
6768.049
6773.291
6778.4
6783.345
6788.126
6792.741
6797.185
6801.452
6805.537
6809.433
6813.14
6816.663
6819.999
6823.148
6826.11
6828.886
6831.479
6833.893
6836.131
6838.198
6840.1
6841.844
6843.435
6844.879
6846.186
6847.362
6848.423
6849.375
6850.212
6850.941
6851.576
6852.121
6852.585
6852.975
6853.297
6853.552
6853.744
6853.875
6853.951
6853.979
6853.967
6853.92
6853.846
6853.749
6853.637
6853.517
6853.395
6853.273
6853.113
6852.964
6852.828
6852.704
6852.592
6852.496
6852.416
6852.354
6852.313
6852.294
6852.298
6852.326
6852.379
6852.458
6852.564
6852.697
6852.857
6853.043
6853.254
6853.491
6853.752
6854.035
6854.338
6854.66
6854.998
6855.35
6855.714
6856.09
6856.473
6856.863
6857.257
6857.655
6858.055
6858.458
6858.86
6859.259
6859.648
6860.017
6860.357
6860.663
6860.933
6861.168
6861.369
6861.537
6861.67
6861.77
6861.837
6861.872
6861.876
6861.849
6861.793
6861.707
6861.594
6861.454
6861.287
6861.096
6860.882
6860.644
6860.385
6860.107
6859.811
6859.501
6859.18
6858.854
6858.532
6858.223
6857.945
6857.718
6857.569
6857.529
6857.63
6857.902
6858.359
6858.995
6859.781
6860.673
6861.636
6862.646
6863.69
6864.762
6865.853
6866.96
6868.079
6869.209
6870.349
6871.499
6872.658
6873.829
6875.012
6876.207
6877.414
6878.633
6879.864
6881.11
6882.371
6883.647
6884.939
6886.247
6887.572
6888.912
6890.267
6891.636
6893.018
6894.411
6895.813
6897.221
6898.629
6900.036
6901.445
6902.871
6904.322
6905.803
6907.312
6908.849
6910.412
6911.998
6913.606
6915.235
6916.885
6918.553
6920.239
6921.941
6923.658
6925.388
6927.131
6928.886
6930.65
6932.423
6934.205
6935.994
6937.789
6939.59
6941.396
6943.206
6945.019
6946.835
6948.654
6950.474
6952.295
6954.116
6955.936
6957.756
6959.573
6961.386
6963.193
6964.992
6966.78
6968.552
6970.302
6972.026
6973.719
6975.376
6977.001
6978.587
6980.136
6981.659
6983.161
6984.648
6986.12
6987.575
6989.013
6990.438
6991.86
6993.284
6994.714
6996.151
6997.597
6999.055
7000.528
7002.02
7003.53
7005.06
7006.609
7008.178
7009.768
7011.378
7013.011
7014.664
7016.34
7018.039
7019.762
7021.509
7023.28
7025.077
7026.9
7028.751
7030.63
7032.537
7034.473
7036.437
7038.43
7040.452
7042.502
7044.58
7046.686
7048.82
7050.981
7053.163
7055.369
7057.588
7059.848
7062.119
7064.401
7066.694
7068.997
7071.305
7073.615
7075.922
7078.222
7080.512
7082.785
7085.038
7087.264
7089.458
7091.616
7093.73
7095.795
7097.804
7099.752
7101.633
7103.439
7105.164
7106.801
7108.345
7109.787
7111.122
7112.342
7113.441
7114.414
7115.254
7115.956
7116.516
7116.933
7117.207
7117.342
7117.345
7117.234
7117.029
7116.762
7116.473
7116.205
7116.004
7115.906
7115.921
7116.122
3646.31
3549.264
3334.886
3215.925
3094.788
2977.263
2862.406
2749.862
2638.642
2528.263
2419.644
2309.002
2197.032
2084.256
1971.416
1858.981
1748.087
1640.077
1537.062
1442.13
1359.797
1290.689
1236.966
1202.086
1186.728
1191.346
1215.719
1259.452
1322.049
1403.263
1503.485
1622.872
1764.515
1931.846
2130.164
2366.083
2647.029
2977.982
3358.406
3778.033
4213.552
4638.235
5024.127
5351.815
5610.945
5798.643
5918.02
5976.421
5982.08
5944.031
5870.922
5769.872
5648.283
5512.942
5368.74
5221.699
5075.845
4934.245
4799.161
4672.477
4555.185
4447.75
4350.869
4265.45
4192.426
4132.617
4086.571
4054.674
4037.085
4033.592
4043.793
4067.152
4102.988
4150.658
4209.381
4278.042
4355.306
4439.562
4528.924
4621.456
4715.281
4808.701
4900.342
4989.126
5074.272
5155.293
5231.944
5304.158
5371.961
5435.373
5494.541
5549.635
5600.863
5648.316
5692.076
5732.213