/*--------------------------------*- C++ -*----------------------------------*\
| =========                 |                                                 |
| \\      /  F ield         | foam-extend: Open Source CFD                    |
|  \\    /   O peration     | Version:     3.1                                |
|   \\  /    A nd           | Web:         http://www.extend-project.de       |
|    \\/     M anipulation  |                                                 |
\*---------------------------------------------------------------------------*/
FoamFile
{
    version     2.0;
    format      ascii;
    class       surfaceScalarField;
    location    "6.5";
    object      phi;
}
// * * * * * * * * * * * * * * * * * * * * * * * * * * * * * * * * * * * * * //

dimensions      [0 3 -1 0 0 0 0];

internalField   nonuniform List<scalar> 
275122
(
-4.600878e-05
4.632546e-05
8.735794e-09
-3.254138e-07
-4.287214e-05
4.106836e-05
1.425269e-07
1.661257e-06
-4.361583e-05
4.515273e-05
-1.034949e-08
-1.526553e-06
-5.016433e-05
5.17919e-05
-9.425763e-09
-1.618145e-06
-5.609504e-05
5.684956e-05
-6.851991e-09
-7.47668e-07
-5.772825e-05
5.790453e-05
-3.984629e-09
-1.722947e-07
-5.825279e-05
5.829957e-05
-2.424019e-09
-4.435161e-08
-5.834193e-05
5.831642e-05
-1.530561e-09
2.704102e-08
-5.815859e-05
5.80847e-05
-9.174397e-10
7.480431e-08
-5.781498e-05
5.770953e-05
-6.101897e-10
1.060623e-07
-5.73558e-05
5.722584e-05
-4.118906e-10
1.303763e-07
-5.680658e-05
5.665732e-05
-2.832875e-10
1.495447e-07
-5.618619e-05
5.60216e-05
-2.037097e-10
1.648034e-07
-5.550913e-05
5.533234e-05
-1.688301e-10
1.769609e-07
-5.478721e-05
5.460098e-05
-2.032798e-10
1.864364e-07
-5.403137e-05
5.383867e-05
-4.376254e-10
1.931353e-07
-5.325484e-05
5.306034e-05
-1.383339e-09
1.958847e-07
-5.248211e-05
5.229762e-05
-5.03896e-09
1.895368e-07
-5.178767e-05
5.165902e-05
-1.974529e-08
1.483972e-07
-5.151892e-05
5.171761e-05
-8.324196e-08
-1.154489e-07
-5.774395e-05
5.978305e-05
-1.672472e-07
-1.871844e-06
-6.109091e-05
6.14628e-05
-7.945958e-08
-2.924269e-07
-6.251055e-05
6.304801e-05
-4.100741e-08
-4.964472e-07
-7.020621e-05
7.251772e-05
8.648202e-08
-2.397993e-06
-7.394026e-05
7.439831e-05
1.176998e-07
-5.757447e-07
-7.572115e-05
7.59977e-05
7.138558e-08
-3.479298e-07
-7.667757e-05
7.680205e-05
4.098439e-08
-1.654671e-07
-7.675215e-05
7.63957e-05
3.094761e-08
3.254992e-07
-7.260148e-05
6.823149e-05
2.687725e-08
4.34312e-06
-0.0001490001
0.0001529468
4.278193e-09
-3.950987e-06
-2.91989e-05
3.003608e-05
-7.38508e-09
-8.297941e-07
-3.267246e-05
3.367462e-05
1.310709e-09
-1.003469e-06
-3.713522e-05
3.842308e-05
1.049807e-09
-1.28891e-06
-4.252357e-05
4.395759e-05
8.237662e-10
-1.434835e-06
-4.835303e-05
4.983681e-05
6.303009e-10
-1.484416e-06
-5.430993e-05
5.580848e-05
5.695626e-10
-1.499119e-06
-6.031853e-05
6.183037e-05
4.877098e-10
-1.512328e-06
-6.638924e-05
6.792189e-05
4.940752e-10
-1.53315e-06
-7.255677e-05
7.412209e-05
4.672702e-10
-1.56578e-06
-7.899151e-05
8.108732e-05
2.28992e-08
-2.118707e-06
1.06497e-06
-5.631579e-05
5.678079e-05
-2.27538e-10
-1.529747e-06
1.292741e-06
-5.805055e-05
5.841178e-05
-3.090887e-10
-1.653663e-06
1.49399e-06
-5.928839e-05
5.954241e-05
-1.917326e-10
-1.747812e-06
1.587336e-06
-6.02449e-05
6.046905e-05
-6.234172e-11
-1.811429e-06
1.636789e-06
-6.112455e-05
6.134033e-05
-1.341047e-11
-1.85255e-06
1.672542e-06
-6.198015e-05
6.219206e-05
1.567989e-11
-1.884474e-06
1.707335e-06
-6.282366e-05
6.303243e-05
4.639561e-11
-1.916157e-06
1.755814e-06
-6.36567e-05
6.385852e-05
1.003575e-10
-1.957735e-06
2.035648e-06
-6.440181e-05
6.439534e-05
4.00821e-10
-2.029574e-06
1.241388e-06
-0.0002716956
0.0002745163
9.874139e-12
-8.541662e-06
1.627935e-06
1.232828e-06
1.618838e-06
1.773416e-06
-0.000276286
0.0002778022
1.194187e-11
-8.742504e-06
1.845771e-06
1.766989e-06
1.840133e-06
1.914448e-06
-0.000279244
0.0002806381
1.111969e-11
-9.097294e-06
1.940817e-06
1.910487e-06
1.937447e-06
1.982405e-06
-0.0002820396
0.000283473
1.005763e-11
-9.375725e-06
1.990809e-06
1.980245e-06
1.988868e-06
2.017244e-06
-0.0002849328
0.0002864198
9.448098e-12
-9.564062e-06
2.022535e-06
2.015902e-06
2.021346e-06
2.044671e-06
-0.0002879157
0.0002894246
8.971718e-12
-9.696519e-06
2.049966e-06
2.043839e-06
2.049164e-06
2.070914e-06
-0.0002909302
0.0002924385
8.494262e-12
-9.800846e-06
2.076062e-06
2.070215e-06
2.075441e-06
2.098664e-06
-0.0002939358
0.0002954246
7.987659e-12
-9.892804e-06
2.103712e-06
2.098194e-06
2.103379e-06
2.13889e-06
-0.0002968801
0.0002982758
7.46978e-12
-9.962792e-06
2.145642e-06
2.138445e-06
2.144043e-06
2.025573e-06
-0.0002996298
0.0003013371
7.038823e-12
-9.904469e-06
2.072026e-06
2.026809e-06
2.072757e-06
2.152441e-06
-0.0003026219
0.0003039351
6.544442e-12
-9.849844e-06
2.114845e-06
2.153589e-06
2.115771e-06
2.160816e-06
-0.0003052911
0.0003066046
6.266187e-12
-9.964734e-06
2.164611e-06
2.161156e-06
2.164736e-06
2.211795e-06
-0.0003078778
0.0003091219
6.025594e-12
-1.010621e-05
2.219513e-06
2.211561e-06
2.21925e-06
2.246666e-06
-0.000310342
0.000311543
5.812801e-12
-1.019636e-05
2.251538e-06
2.246185e-06
2.251008e-06
2.2658e-06
-0.0003127302
0.0003139038
5.595546e-12
-1.023908e-05
2.268436e-06
2.26443e-06
2.26683e-06
2.279508e-06
-0.0003150671
0.0003162152
5.364004e-12
-1.026225e-05
2.282648e-06
2.274855e-06
2.277062e-06
2.310408e-06
-0.0003173487
0.0003184478
5.121501e-12
-1.032362e-05
2.321298e-06
2.292825e-06
2.30004e-06
2.431408e-06
-0.0003194853
0.0003203484
4.923557e-12
-1.054346e-05
2.481422e-06
2.366727e-06
2.400719e-06
2.823244e-06
-0.000320835
0.000320436
4.931459e-12
-1.072599e-05
2.942924e-06
2.650322e-06
2.708496e-06
4.89419e-06
-0.0003197967
0.0003226572
5.129691e-12
-7.754658e-06
5.434017e-06
-0.0003252187
0.0003266379
5.423542e-12
-6.853235e-06
7.408978e-06
-0.0003273381
0.0003277528
5.611791e-12
-7.823688e-06
6.88648e-06
-0.0003281686
0.0003286137
5.732372e-12
-7.33153e-06
4.958128e-06
-0.0003292328
0.0003302809
5.760648e-12
-6.006268e-06
3.541568e-06
-0.0003315739
0.0003328811
5.728275e-12
-4.848755e-06
2.917622e-06
-0.0003341914
0.000335512
5.701203e-12
-4.238238e-06
2.491944e-06
-0.0003368441
0.0003381762
5.718001e-12
-3.824048e-06
2.201437e-06
-0.0003395159
0.0003408534
5.741833e-12
-3.538962e-06
1.996683e-06
-0.0003421957
0.0003435396
5.805276e-12
-3.340545e-06
1.847417e-06
-0.000344889
0.000346244
5.80932e-12
-3.202464e-06
1.741002e-06
-0.0003476059
0.0003489778
5.923143e-12
-3.112916e-06
1.670719e-06
-0.0003503585
0.000351754
5.954925e-12
-3.066202e-06
1.633645e-06
-0.0003531608
0.0003545879
6.009728e-12
-3.060725e-06
1.630263e-06
-0.0003560296
0.0003574982
6.104574e-12
-3.098909e-06
1.66598e-06
-0.0003589861
0.000360509
6.193418e-12
-3.188876e-06
1.756391e-06
-0.000362057
0.0003636501
6.284121e-12
-3.349506e-06
1.945933e-06
-0.000365275
0.0003669542
6.383415e-12
-3.625149e-06
2.368811e-06
-0.0003686624
0.0003704091
6.521128e-12
-4.115541e-06
3.430996e-06
-0.0003721003
0.0003736511
6.804892e-12
-4.98183e-06
4.294741e-06
-0.0003748044
0.0003762756
6.691438e-12
-5.765948e-06
4.315664e-06
-0.000378131
0.00038
6.712475e-12
-6.184617e-06
6.449538e-06
-0.0003817068
0.0003829854
6.985652e-12
-7.728122e-06
8.872355e-06
-0.0003829266
0.0003829898
6.938976e-12
-8.935632e-06
5.831386e-06
-0.0003837615
0.0003852301
6.651012e-12
-7.299915e-06
4.003847e-06
-0.0003868487
0.000388472
6.699851e-12
-5.627132e-06
2.105694e-06
-0.0003901261
0.0003918145
7.159905e-12
-3.794039e-06
-1.543238e-06
-0.0003936668
0.0003960023
7.369993e-12
-7.922828e-07
-1.060069e-05
-0.0003993822
0.0004060524
7.122883e-12
3.930495e-06
-1.764062e-06
-0.0004131886
0.0004169822
8.001452e-12
1.869617e-06
-1.037015e-06
-1.78876e-06
-1.073364e-06
-2.211177e-08
-0.0004192905
0.0004214096
7.635453e-12
-2.141928e-06
6.254146e-08
-5.795431e-08
4.037474e-08
3.82059e-07
-0.0004235148
0.0004257364
6.176837e-12
-3.789122e-06
4.174717e-07
3.659135e-07
4.020824e-07
5.424861e-07
-0.0004280751
0.0004305605
6.221135e-12
-4.671808e-06
5.604693e-07
5.325221e-07
5.509531e-07
6.343873e-07
-0.0004331296
0.0004358077
6.460217e-12
-5.225863e-06
6.461936e-07
6.275579e-07
6.396398e-07
6.966529e-07
-0.000438549
0.0004413778
3.765421e-12
-5.625483e-06
7.059644e-07
6.922328e-07
7.018722e-07
7.471125e-07
-0.0004442538
0.0004472051
4.974436e-12
-5.948956e-06
7.54427e-07
7.443239e-07
7.518091e-07
7.878631e-07
-0.0004501995
0.0004532631
5.561862e-12
-6.222527e-06
7.936961e-07
7.857104e-07
7.916225e-07
8.209447e-07
-0.0004563674
0.0004595368
4.94206e-12
-6.458753e-06
8.255063e-07
8.191274e-07
8.237739e-07
8.479622e-07
-0.0004627445
0.0004660142
6.224458e-12
-6.664719e-06
8.511785e-07
8.461395e-07
8.497225e-07
8.69907e-07
-0.0004693209
0.0004726841
4.615173e-12
-6.846058e-06
8.730972e-07
8.683347e-07
8.714818e-07
8.87249e-07
-0.0004760828
0.0004795366
5.680893e-12
-7.004477e-06
8.895932e-07
8.859368e-07
8.879189e-07
9.01624e-07
-0.000483023
0.0004865605
4.906392e-12
-7.144387e-06
9.032329e-07
9.002363e-07
9.018727e-07
9.127738e-07
-0.0004901291
0.0004937453
6.112393e-12
-7.267175e-06
9.139288e-07
9.11523e-07
9.127197e-07
9.213886e-07
-0.0004973906
0.0005010801
6.940218e-12
-7.374148e-06
9.22175e-07
9.201308e-07
9.209504e-07
9.267246e-07
-0.0005047979
0.0005085568
5.456189e-12
-7.463874e-06
9.268762e-07
9.255798e-07
9.257482e-07
9.288407e-07
-0.0005123421
0.0005161663
5.330955e-12
-7.536311e-06
9.283028e-07
9.277355e-07
9.272248e-07
9.27976e-07
-0.0005200157
0.0005238999
5.025985e-12
-7.59226e-06
9.271868e-07
9.268513e-07
9.260725e-07
9.248855e-07
-0.0005278067
0.0005317447
4.633744e-12
-7.632894e-06
9.236709e-07
9.237834e-07
9.225787e-07
9.191533e-07
-0.0005357033
0.0005396895
4.446608e-12
-7.657331e-06
9.175122e-07
9.18079e-07
9.164426e-07
9.107237e-07
-0.0005436944
0.000547723
4.644494e-12
-7.665174e-06
9.086513e-07
9.096511e-07
9.075866e-07
8.995598e-07
-0.0005517683
0.0005558333
4.662557e-12
-7.656132e-06
8.970428e-07
8.984943e-07
8.959869e-07
8.856042e-07
-0.0005599131
0.0005640086
4.108626e-12
-7.629856e-06
8.826374e-07
8.845564e-07
8.816008e-07
8.68826e-07
-0.0005681167
0.0005722363
3.387741e-12
-7.585959e-06
8.653663e-07
8.677973e-07
8.643463e-07
8.491279e-07
-0.0005763664
0.0005805037
3.173455e-12
-7.523939e-06
8.451882e-07
8.481246e-07
8.442061e-07
8.264401e-07
0.0005887973
3.085141e-12
-7.443159e-06
8.220525e-07
8.254675e-07
8.210691e-07
-0.0005846492
8.007929e-07
-0.0005929513
0.0005971031
3.030673e-12
-7.343102e-06
7.958713e-07
7.997589e-07
7.948376e-07
7.72124e-07
-0.0006012583
0.0006054062
3.24762e-12
-7.223636e-06
7.667625e-07
7.710705e-07
7.657449e-07
7.40428e-07
-0.0006095549
0.0006136914
3.310875e-12
-7.084626e-06
7.345705e-07
7.394464e-07
7.336085e-07
7.057398e-07
-0.0006178262
0.0006219438
3.206468e-12
-6.926032e-06
6.993988e-07
7.047825e-07
6.98457e-07
6.680755e-07
-0.0006260571
0.0006301483
3.439413e-12
-6.747911e-06
6.612352e-07
6.671282e-07
6.603055e-07
6.274229e-07
-0.0006342326
0.0006382897
3.240245e-12
-6.550217e-06
6.200612e-07
6.264877e-07
6.191455e-07
5.837722e-07
-0.0006423373
0.0006463528
3.512835e-12
-6.332853e-06
5.758559e-07
5.828407e-07
5.749437e-07
5.371517e-07
-0.0006503562
0.000654322
3.604197e-12
-6.095623e-06
5.286799e-07
5.362062e-07
5.277545e-07
4.877752e-07
-0.0006582725
0.0006621814
3.434177e-12
-5.839186e-06
4.783731e-07
4.8667e-07
4.774061e-07
4.335144e-07
-0.0006660755
0.000669922
3.371829e-12
-5.560374e-06
4.242995e-07
4.325691e-07
4.234473e-07
3.772626e-07
-0.0006737492
0.000677524
3.439806e-12
-5.261903e-06
3.671979e-07
3.762569e-07
3.663638e-07
3.177491e-07
-0.0006812772
0.0006849728
3.685517e-12
-4.943562e-06
3.071266e-07
3.168383e-07
3.061682e-07
2.551348e-07
-0.0006886442
0.0006922528
3.532361e-12
-4.605701e-06
2.443416e-07
2.542613e-07
2.433413e-07
1.897244e-07
-0.0006958341
0.0006993475
3.410008e-12
-4.249012e-06
1.789189e-07
1.8893e-07
1.780453e-07
1.219108e-07
-0.0007028303
0.00070624
3.383792e-12
-3.874769e-06
1.112523e-07
1.212719e-07
1.106019e-07
5.219588e-08
-0.0007096152
0.0007129134
3.334944e-12
-3.485646e-06
4.189176e-08
5.1812e-08
4.15132e-08
-1.848897e-08
-0.0007161767
0.0007193559
3.34033e-12
-3.085374e-06
-2.814905e-08
-1.87518e-08
-2.849028e-08
-8.780652e-08
-0.0007224934
0.0007255438
3.469616e-12
-2.678592e-06
-9.764666e-08
-8.825768e-08
-9.811769e-08
-1.55652e-07
-0.0007285473
0.0007314583
3.515504e-12
-2.267805e-06
-1.655255e-07
-1.560892e-07
-1.659827e-07
-2.272067e-07
-0.0007343231
0.0007370971
3.644687e-12
-1.841292e-06
-2.38673e-07
-2.276523e-07
-2.39131e-07
-3.007282e-07
-0.000739826
0.0007424674
2.741205e-12
-1.414993e-06
-3.121222e-07
-3.010731e-07
-3.12466e-07
-3.680124e-07
-0.0007450635
0.0007475738
3.539725e-12
-1.018834e-06
-3.773462e-07
-3.683788e-07
-3.776801e-07
-4.06568e-07
-0.0007500226
0.000752345
4.241748e-12
-7.062572e-07
-4.012029e-07
-4.068544e-07
-4.015098e-07
-3.572321e-07
-0.0007544476
0.0007563788
4.988519e-12
-5.462816e-07
-3.353396e-07
-3.571131e-07
-3.352585e-07
-3.390273e-07
-0.0007585511
0.0007601445
4.428543e-12
-1.729163e-07
-3.701967e-07
-3.464495e-07
-3.648392e-07
-5.42864e-07
-0.0007619443
0.0007636704
4.652367e-12
4.482701e-07
-5.460789e-07
-5.413468e-07
-5.441121e-07
-6.131763e-07
-0.0007652904
0.0007667894
4.673727e-12
9.549432e-07
-6.158199e-07
-6.110934e-07
-6.138196e-07
-6.786622e-07
-0.0007682285
0.000769566
4.512959e-12
1.383951e-06
-6.839049e-07
-6.767749e-07
-6.821215e-07
-7.398157e-07
-0.000770853
0.0007720322
4.686078e-12
1.784894e-06
-7.440927e-07
-7.379522e-07
-7.422798e-07
-7.894409e-07
-0.0007731461
0.00077415
4.892169e-12
2.1626e-06
-7.953187e-07
-7.878796e-07
-7.938573e-07
-8.40534e-07
-0.0007751064
0.0007759566
4.897962e-12
2.522887e-06
-8.473074e-07
-8.392329e-07
-8.460295e-07
-8.849243e-07
-0.0007767567
0.0007774569
5.503112e-12
2.850009e-06
-8.91382e-07
-8.83693e-07
-8.901646e-07
-9.2457e-07
-0.0007781104
0.000778667
6.353294e-12
3.150402e-06
-9.301039e-07
-9.233844e-07
-9.289404e-07
-9.56356e-07
-0.0007791788
0.0007795981
6.998491e-12
3.413448e-06
-9.610932e-07
-9.552545e-07
-9.600466e-07
-9.844626e-07
-0.0007799755
0.0007802699
7.622711e-12
3.646554e-06
-9.869598e-07
-9.835389e-07
-9.860769e-07
-1.005687e-06
-0.0007805233
0.0007807023
8.171057e-12
3.845215e-06
-1.007269e-06
-1.00486e-06
-1.006457e-06
-1.022026e-06
-0.0007808439
0.0007809196
8.545081e-12
4.012484e-06
-1.022859e-06
-1.021231e-06
-1.022065e-06
-1.033321e-06
-0.0007809606
0.0007809458
8.691802e-12
4.147023e-06
-1.03355e-06
-1.032578e-06
-1.03281e-06
-1.039353e-06
-0.0007808994
0.000780803
9.069278e-12
4.251751e-06
-1.039056e-06
-1.038663e-06
-1.038366e-06
-1.04289e-06
-0.00078068
0.0007805174
9.577711e-12
4.33189e-06
-1.042351e-06
-1.04227e-06
-1.041742e-06
-1.043546e-06
-0.0007803318
0.0007801144
9.90655e-12
4.388825e-06
-1.042757e-06
-1.042989e-06
-1.042198e-06
-1.040902e-06
-0.0007798796
0.0007796213
1.023772e-11
4.418139e-06
-1.039567e-06
-1.040394e-06
-1.039054e-06
-1.035181e-06
-0.0007793523
0.0007790666
1.051765e-11
4.422815e-06
-1.033836e-06
-1.034723e-06
-1.033382e-06
-1.029535e-06
-0.0007787719
0.0007784664
1.106242e-11
4.420256e-06
-1.028238e-06
-1.029131e-06
-1.027832e-06
-1.022236e-06
-0.0007781552
0.0007778409
1.136763e-11
4.399173e-06
-1.020608e-06
-1.021861e-06
-1.020226e-06
-1.012004e-06
-0.0007775263
0.0007772161
1.163483e-11
4.353686e-06
-1.010069e-06
-1.011663e-06
-1.009728e-06
-1.000973e-06
-0.0007769097
0.0007766114
1.132927e-11
4.297848e-06
-9.991174e-07
-1.000676e-06
-9.988182e-07
-9.899246e-07
-0.00077632
0.000776041
1.095092e-11
4.234723e-06
-9.882503e-07
-9.896358e-07
-9.87947e-07
-9.785456e-07
-0.0007757713
0.0007755185
1.077315e-11
4.162962e-06
-9.768713e-07
-9.782429e-07
-9.765447e-07
-9.671235e-07
0.0007750558
1.101641e-11
4.085124e-06
-0.000775277
-9.651408e-07
-9.668297e-07
-9.648442e-07
-9.55878e-07
-0.0007748479
0.0007746629
1.192715e-11
4.004066e-06
-9.538642e-07
-9.556772e-07
-9.536848e-07
-9.443312e-07
-0.0007744927
0.0007743478
1.271653e-11
3.918759e-06
-9.427771e-07
-9.44202e-07
-9.426408e-07
-9.324482e-07
-0.0007742185
0.0007741173
1.315817e-11
3.828132e-06
-9.311621e-07
-9.322929e-07
-9.309855e-07
-9.217107e-07
-0.0007740334
0.0007739758
1.334003e-11
3.739973e-06
-9.19641e-07
-9.215415e-07
-9.194554e-07
-9.115489e-07
-0.0007739384
0.0007739297
1.329037e-11
3.650796e-06
-9.096788e-07
-9.113819e-07
-9.095004e-07
-9.007759e-07
-0.0007739391
0.000773978
1.328575e-11
3.560672e-06
-8.991807e-07
-9.006202e-07
-8.990282e-07
-8.923242e-07
-0.0007740378
0.0007741267
1.339573e-11
3.475682e-06
-8.90115e-07
-8.921975e-07
-8.899681e-07
-8.824906e-07
-0.0007742321
0.0007743674
1.337027e-11
3.390344e-06
-8.805044e-07
-8.823586e-07
-8.80353e-07
-8.746119e-07
-0.0007745246
0.0007747116
1.316242e-11
3.309078e-06
-8.735732e-07
-8.744792e-07
-8.734333e-07
-8.671311e-07
-0.0007749111
0.0007751423
1.280243e-11
3.234328e-06
-8.657743e-07
-8.670124e-07
-8.656438e-07
-8.619188e-07
-0.0007753876
0.0007756787
1.294883e-11
3.158745e-06
-8.631214e-07
-8.617947e-07
-8.629835e-07
-8.557804e-07
-0.0007759617
0.0007762832
1.260808e-11
3.090824e-06
-8.504619e-07
-8.556192e-07
-8.504596e-07
-8.515402e-07
-0.0007766017
0.0007769883
1.258484e-11
3.030212e-06
-8.569811e-07
-8.515532e-07
-8.568088e-07
-8.453489e-07
-0.0007773334
0.000777756
1.207839e-11
2.970913e-06
-8.515452e-07
-8.452608e-07
-8.514098e-07
-8.399674e-07
-0.0007781497
0.0007785992
1.241653e-11
2.915362e-06
-8.426181e-07
-8.398452e-07
-8.424544e-07
-8.352864e-07
-0.0007790413
0.000779516
1.279251e-11
2.864255e-06
-8.343371e-07
-8.351196e-07
-8.341689e-07
-8.309293e-07
-0.0007799964
0.000780503
1.288561e-11
2.815757e-06
-8.303158e-07
-8.3087e-07
-8.302734e-07
-8.280365e-07
-0.0007810131
0.0007815541
1.250855e-11
2.771869e-06
-8.284112e-07
-8.280287e-07
-8.283846e-07
-8.253906e-07
-0.0007820972
0.000782675
1.207577e-11
2.725231e-06
-8.261919e-07
-8.253316e-07
-8.260797e-07
-8.226863e-07
-0.0007832455
0.0007838619
1.171768e-11
2.676314e-06
-8.237771e-07
-8.22603e-07
-8.236238e-07
-8.179302e-07
-0.0007844646
0.0007851307
1.091826e-11
2.608187e-06
-8.1937e-07
-8.178491e-07
-8.191573e-07
-8.09933e-07
-0.0007857757
0.0007865227
1.032157e-11
2.496209e-06
-8.116871e-07
-8.100515e-07
-8.115312e-07
-7.862307e-07
-0.0007872648
0.0007881451
1.019984e-11
2.254904e-06
-7.812893e-07
-7.864549e-07
-7.81211e-07
-6.179625e-07
-0.0007889381
0.0007892939
1.249677e-11
1.753528e-06
-4.348582e-07
-6.189528e-07
-4.376085e-07
-4.326664e-08
-0.0001967269
0.0001960526
-5.119522e-12
7.175891e-07
-5.777924e-07
-0.000195159
0.0001949118
-1.628844e-11
8.250463e-07
-6.534553e-07
-0.0001943804
0.0001942543
1.318839e-12
7.796115e-07
-6.940632e-07
-0.0001939888
0.0001939306
1.212665e-11
7.522294e-07
-7.218611e-07
-0.0001938287
0.0001938139
1.81107e-11
7.366153e-07
-7.456008e-07
-0.0001938153
0.000193829
1.873779e-11
7.31945e-07
-7.678915e-07
-0.0001939029
0.0001939363
1.782209e-11
7.345001e-07
-7.860534e-07
-0.0001940566
0.0001941019
1.813093e-11
7.4071e-07
-8.011662e-07
-0.0001942501
0.0001943026
1.916978e-11
7.486754e-07
-8.135098e-07
-0.000194467
0.0001945234
1.85221e-11
7.570635e-07
-8.237497e-07
-0.0001946969
0.0001947556
9.37258e-12
7.649492e-07
-8.325614e-07
-0.0001949338
0.0001949936
3.172525e-12
7.727809e-07
-8.403943e-07
-0.0001951735
0.0001952335
6.89276e-12
7.803932e-07
-8.475015e-07
-0.0001954134
0.0001954732
8.449976e-12
7.877008e-07
-8.539178e-07
-0.0001956519
0.0001957111
9.395838e-12
7.946403e-07
-8.598143e-07
-0.0001958879
0.0001959465
7.279561e-12
8.012923e-07
-8.654854e-07
-0.0001961214
0.0001961792
-2.441388e-12
8.076525e-07
-8.682586e-07
-0.0001963527
0.0001964088
1.406593e-11
8.1217e-07
-8.754322e-07
-0.0001965798
0.0001966378
1.182581e-11
8.174062e-07
-8.789329e-07
-0.0001968038
0.0001968612
1.404234e-11
8.215167e-07
-8.816526e-07
-0.000197026
0.0001970816
9.671314e-12
8.259648e-07
-8.856302e-07
-0.0001972452
0.0001973007
1.450849e-11
8.300604e-07
-8.880254e-07
-0.0001974633
0.0001975182
1.068134e-11
8.331634e-07
-8.896202e-07
-0.000197681
0.0001977351
1.603395e-11
8.35597e-07
-8.909375e-07
-0.0001978992
0.0001979527
1.701158e-11
8.374649e-07
-8.926283e-07
-0.0001981183
0.0001981723
1.979507e-11
8.385507e-07
-8.949207e-07
-0.0001983395
0.0001983956
1.048561e-11
8.388514e-07
-8.959564e-07
-0.0001985657
0.000198624
9.358623e-12
8.376209e-07
-8.950293e-07
-0.0001987997
0.0001988604
1.735204e-11
8.343336e-07
-8.92602e-07
-0.0001990453
0.0001991094
2.18191e-11
8.284113e-07
-8.887896e-07
-0.0001993082
0.0001993785
2.332021e-11
8.18458e-07
-8.826853e-07
-0.0001995987
0.0001996799
2.479496e-11
8.014362e-07
-8.605386e-07
-0.0001999384
0.0002000307
2.98292e-11
7.682157e-07
-8.470172e-07
-0.0002003375
0.0002004758
2.572468e-11
7.087031e-07
-7.594236e-07
-0.0002009476
0.0002011717
1.660832e-11
5.353311e-07
2.49622e-07
-0.0002019277
0.0002018569
3.755406e-11
-1.788785e-07
8.092273e-07
-0.0002018647
0.0002019078
2.012376e-11
-8.523023e-07
8.508672e-07
-0.0002020852
0.0002021786
2.148103e-11
-9.442267e-07
9.050666e-07
-0.0002024617
0.0002025699
2.714999e-11
-1.013372e-06
9.355995e-07
-0.0002028974
0.0002030105
3.039215e-11
-1.048707e-06
9.569364e-07
-0.0002033568
0.0002034749
2.669501e-11
-1.075087e-06
9.744242e-07
-0.0002038331
0.0002039537
3.009082e-11
-1.094993e-06
9.887145e-07
-0.000204317
0.0002044386
3.252995e-11
-1.110298e-06
1.001e-06
-0.0002048027
0.000204924
3.5109e-11
-1.122335e-06
1.011042e-06
-0.0002052868
0.0002054074
2.469091e-11
-1.131693e-06
1.020167e-06
-0.0002057674
0.0002058868
1.819028e-11
-1.139607e-06
1.027895e-06
-0.0002062423
0.00020636
2.097161e-11
-1.145637e-06
1.03451e-06
-0.00020671
0.0002068258
2.068995e-11
-1.150354e-06
1.040316e-06
-0.0002071698
0.0002072835
2.004724e-11
-1.154045e-06
1.045275e-06
-0.0002076207
0.0002077321
1.638118e-11
-1.156688e-06
1.049505e-06
-0.0002080621
0.000208171
1.493335e-11
-1.158459e-06
1.053171e-06
-0.0002084933
0.0002085997
1.526024e-11
-1.159523e-06
1.056316e-06
-0.000208914
0.0002090176
1.300986e-11
-1.159972e-06
1.059054e-06
-0.0002093236
0.0002094244
1.053965e-11
-1.15992e-06
1.06137e-06
-0.0002097218
0.0002098198
1.087032e-11
-1.159377e-06
1.063329e-06
-0.0002101084
0.0002102035
9.895957e-12
-1.158429e-06
1.065023e-06
-0.0002104831
0.0002105753
7.420757e-12
-1.157169e-06
1.066443e-06
-0.0002108459
0.000210935
8.541e-12
-1.155619e-06
1.067631e-06
-0.0002111965
0.0002112827
1.142797e-11
-1.153825e-06
1.068677e-06
-0.000211535
0.0002116181
1.211312e-11
-1.151852e-06
1.069521e-06
-0.0002118611
0.0002119413
5.099225e-12
-1.149706e-06
1.070127e-06
-0.0002121751
0.0002122523
-6.124175e-13
-1.147337e-06
1.070535e-06
-0.000212477
0.0002125512
1.036419e-12
-1.144803e-06
1.070804e-06
-0.0002127667
0.0002128381
3.090314e-12
-1.142144e-06
1.070965e-06
-0.0002130443
0.0002131128
4.058457e-12
-1.139405e-06
1.071096e-06
-0.0002133097
0.0002133753
3.846081e-12
-1.136647e-06
1.071774e-06
-0.0002135622
0.0002136244
5.338791e-12
-1.134014e-06
1.06971e-06
-0.0002137968
0.0002138569
9.848697e-12
-1.129814e-06
1.060206e-06
-0.0002140261
0.0002140907
4.210934e-11
-1.124859e-06
1.051036e-06
-0.0002143004
0.0002143142
1.463779e-10
-1.064962e-06
1.370178e-06
-0.0002124871
0.0008749996
3.081745e-12
-4.769121e-06
7.346851e-08
1.374092e-06
5.951842e-08
-0.0002124922
-0.0002240632
-0.0002240652
6.589693e-07
-0.0008783416
0.000878908
4.691897e-12
-3.870502e-06
1.011101e-06
6.405436e-07
9.934868e-07
8.213985e-07
-0.0008791349
0.000879591
3.966738e-12
-3.812543e-06
8.710678e-07
8.067659e-07
8.571913e-07
8.656767e-07
-0.000880522
0.0008813918
3.190643e-12
-4.395699e-06
9.101154e-07
8.527244e-07
8.974088e-07
9.28797e-07
-0.0008821723
0.0008827129
3.328988e-12
-4.319496e-06
9.725107e-07
9.169448e-07
9.606432e-07
9.579196e-07
-0.0008831664
0.0008835561
3.102737e-12
-4.240908e-06
9.786933e-07
9.468173e-07
9.677913e-07
9.566578e-07
-0.000883985
0.0008844152
3.630634e-12
-4.257394e-06
9.68121e-07
9.453301e-07
9.571422e-07
9.671005e-07
-0.0008848697
0.0008852973
4.677203e-12
-4.29456e-06
9.766962e-07
9.563367e-07
9.668282e-07
9.819114e-07
-0.0008857293
0.0008861342
4.729221e-12
-4.32848e-06
9.895209e-07
9.721569e-07
9.799876e-07
9.905454e-07
-0.0008865487
0.000886944
4.021727e-12
-4.36058e-06
1.001332e-06
9.822861e-07
9.911137e-07
1.006081e-06
-0.000887334
0.0008876982
3.641862e-12
-4.379324e-06
1.009734e-06
9.978444e-07
1.001514e-06
1.014921e-06
-0.0008880625
0.0008884124
3.835513e-12
-4.39966e-06
1.017544e-06
1.007356e-06
1.010027e-06
1.02382e-06
-0.0008887553
0.0008890805
3.949744e-12
-4.411833e-06
1.026306e-06
1.016976e-06
1.019534e-06
1.032296e-06
-0.0008893984
0.0008897012
3.873434e-12
-4.422959e-06
1.034252e-06
1.025784e-06
1.027826e-06
1.039519e-06
-0.0008899966
0.0008902781
4.022417e-12
-4.431016e-06
1.040937e-06
1.033702e-06
1.035308e-06
1.045642e-06
-0.0008905524
0.0008908144
4.271364e-12
-4.436957e-06
1.046688e-06
1.040694e-06
1.041864e-06
1.050923e-06
-0.0008910692
0.0008913121
4.124782e-12
-4.439348e-06
1.051701e-06
1.04647e-06
1.0473e-06
1.055288e-06
-0.0008915473
0.0008917713
3.473512e-12
-4.438093e-06
1.055782e-06
1.051214e-06
1.051767e-06
1.058842e-06
-0.0008919881
0.0008921952
2.842198e-12
-4.435904e-06
1.059164e-06
1.055185e-06
1.055579e-06
1.06166e-06
-0.0008923957
0.0008925873
2.591831e-12
-4.432042e-06
1.061818e-06
1.058374e-06
1.058593e-06
1.063747e-06
-0.0008927721
0.000892948
2.571799e-12
-4.425126e-06
1.063819e-06
1.060773e-06
1.060882e-06
1.065252e-06
-0.0008931172
0.0008932781
2.494102e-12
-4.416567e-06
1.065228e-06
1.062566e-06
1.062594e-06
1.06622e-06
-0.0008934327
0.000893579
2.220695e-12
-4.406276e-06
1.066129e-06
1.063818e-06
1.063787e-06
1.066876e-06
-0.000893719
0.0008938509
1.722052e-12
-4.394855e-06
1.066734e-06
1.064709e-06
1.064626e-06
1.067163e-06
-0.0008939767
0.0008940946
1.025064e-12
-4.382046e-06
1.066937e-06
1.065137e-06
1.064904e-06
1.066904e-06
-0.0008942067
0.0008943112
2.520916e-13
-4.367771e-06
1.066673e-06
1.06498e-06
1.064745e-06
1.066348e-06
-0.00089441
0.0008945014
-4.143201e-13
-4.352655e-06
1.066043e-06
1.064588e-06
1.06433e-06
1.065446e-06
-0.0008945873
0.0008946656
-1.024669e-12
-4.336294e-06
1.065108e-06
1.063868e-06
1.063563e-06
1.064254e-06
-0.0008947386
0.0008948038
-1.512251e-12
-4.31872e-06
1.063889e-06
1.062816e-06
1.062476e-06
1.062734e-06
-0.0008948639
0.0008949161
-1.857971e-12
-4.299723e-06
1.062336e-06
1.061407e-06
1.061024e-06
1.0609e-06
-0.0008949631
0.0008950021
-2.115705e-12
-4.279238e-06
1.060456e-06
1.05967e-06
1.059242e-06
1.058739e-06
-0.0008950358
0.0008950612
-2.384423e-12
-4.257172e-06
1.058262e-06
1.057613e-06
1.057155e-06
1.056274e-06
-0.0008950815
0.0008950931
-2.708073e-12
-4.233531e-06
1.055764e-06
1.05523e-06
1.054728e-06
1.053468e-06
-0.0008950995
0.0008950968
-3.054493e-12
-4.208102e-06
1.052936e-06
1.052488e-06
1.05196e-06
1.050297e-06
-0.0008950888
0.0008950711
-3.373227e-12
-4.180565e-06
1.04974e-06
1.049393e-06
1.048852e-06
1.046763e-06
-0.0008950482
0.0008950149
-3.626169e-12
-4.150857e-06
1.046187e-06
1.045926e-06
1.045361e-06
1.042809e-06
-0.0008949765
0.0008949267
-3.859235e-12
-4.118632e-06
1.042218e-06
1.042022e-06
1.041429e-06
1.038354e-06
-0.000894872
0.0008948046
-4.090915e-12
-4.083281e-06
1.037734e-06
1.037627e-06
1.03702e-06
1.033295e-06
-0.0008947324
0.0008946459
-4.349081e-12
-4.044062e-06
1.032635e-06
1.032651e-06
1.032013e-06
1.027415e-06
-0.0008945549
0.0008944473
-4.693396e-12
-3.999469e-06
1.026717e-06
1.026834e-06
1.026154e-06
1.020281e-06
-0.0008943352
0.0008942037
-5.101654e-12
-3.946958e-06
1.01955e-06
1.019695e-06
1.018931e-06
1.011221e-06
-0.0008940671
0.0008939064
-5.474116e-12
-3.880987e-06
1.010256e-06
1.010612e-06
1.009619e-06
9.989892e-07
-0.0008937361
0.0008935343
-5.742336e-12
-3.789476e-06
9.972445e-07
9.984234e-07
9.966986e-07
9.74098e-07
-0.0008933172
0.00089307
-5.834858e-12
-3.641124e-06
9.705351e-07
9.736394e-07
9.699795e-07
9.203216e-07
-0.0008928025
0.0008925468
-5.747348e-12
-3.397164e-06
9.065879e-07
9.198583e-07
9.061416e-07
8.018257e-07
-0.0008923495
0.0008922355
-5.605317e-12
-3.013189e-06
7.622487e-07
8.01397e-07
7.617802e-07
6.595116e-07
-0.0008921692
0.000892108
-5.327019e-12
-2.545197e-06
6.440786e-07
6.591258e-07
6.43696e-07
6.326462e-07
-0.0008920125
0.0008918592
-5.10981e-12
-2.381699e-06
6.351492e-07
6.323573e-07
6.348651e-07
6.12811e-07
-0.0008917388
0.0008915723
-4.619323e-12
-2.307437e-06
6.245653e-07
6.12359e-07
6.242465e-07
6.025288e-07
-0.0008914077
0.0008912095
-3.576414e-12
-2.214755e-06
6.042558e-07
6.022046e-07
6.039681e-07
5.89243e-07
-0.0008910187
0.0008907743
1.995092e-12
-2.115937e-06
5.912169e-07
5.888811e-07
5.90973e-07
5.715533e-07
-0.0008905466
0.0008902384
1.983694e-11
-1.975325e-06
5.704898e-07
5.712423e-07
5.701714e-07
5.23045e-07
-0.0008899777
0.0008898131
5.539541e-11
-1.90789e-06
5.134995e-07
5.226908e-07
5.13177e-07
3.077108e-07
-0.0008901527
0.0008909645
3.958457e-11
-2.261781e-06
4.168865e-07
3.076914e-07
4.176153e-07
6.435504e-07
-0.0008912257
0.0008896844
-8.98328e-11
-8.236987e-07
5.360337e-07
6.462302e-07
5.392396e-07
5.080961e-07
-0.0008888349
0.0008885615
-4.908956e-11
-1.637667e-06
4.429247e-07
5.128307e-07
4.473511e-07
4.920467e-07
-0.0008881449
0.0008877451
-2.560098e-11
-1.50462e-06
4.565265e-07
4.959085e-07
4.599836e-07
4.550634e-07
-0.0008873103
0.0008870315
-1.061651e-11
-1.48867e-06
4.25627e-07
4.582259e-07
4.286078e-07
4.41371e-07
-0.0008867583
0.0008865501
-3.648268e-12
-1.532041e-06
4.26097e-07
4.441063e-07
4.286851e-07
4.463454e-07
-0.0008863196
0.000886102
-2.694598e-12
-1.55913e-06
4.396043e-07
4.488308e-07
4.420218e-07
4.550609e-07
-0.0008858632
0.0008856354
-6.134301e-12
-1.588463e-06
4.509201e-07
4.572364e-07
4.529577e-07
4.610404e-07
-0.0008853999
0.000885171
-7.445474e-12
-1.61475e-06
4.590188e-07
4.628588e-07
4.607592e-07
4.67724e-07
-0.0008849338
0.0008846988
-5.439251e-12
-1.638075e-06
4.672546e-07
4.693078e-07
4.687856e-07
4.747803e-07
-0.000884457
0.0008842165
-1.928273e-12
-1.66222e-06
4.751751e-07
4.762176e-07
4.765684e-07
4.816204e-07
-0.0008839714
0.0008837273
-1.313796e-12
-1.686915e-06
4.825668e-07
4.829437e-07
4.838432e-07
4.877733e-07
-0.0008834793
0.0008832315
-3.103074e-12
-1.708368e-06
4.891009e-07
4.889915e-07
4.902608e-07
4.922696e-07
-0.0008829815
0.0008827301
-4.134535e-12
-1.72718e-06
4.958678e-07
4.934196e-07