/*--------------------------------*- C++ -*----------------------------------*\
| =========                 |                                                 |
| \\      /  F ield         | foam-extend: Open Source CFD                    |
|  \\    /   O peration     | Version:     3.1                                |
|   \\  /    A nd           | Web:         http://www.extend-project.de       |
|    \\/     M anipulation  |                                                 |
\*---------------------------------------------------------------------------*/
FoamFile
{
    version     2.0;
    format      ascii;
    class       volScalarField;
    location    "14.5";
    object      alpha1;
}
// * * * * * * * * * * * * * * * * * * * * * * * * * * * * * * * * * * * * * //

dimensions      [0 0 0 0 0 0 0];

internalField   nonuniform List<scalar> 
119952
(
1
1
1
1
1
1
1
1
1
1
1
1
1
1
1
1
1
1
1
1
1
1
1
1
1
1
1
1
1
0.9999997
1
1
1
1
1
1
1
1
1
1
1
1
1
0.9999999
1
0.9999999
0.9999999
1
0.9999998
1
1
0.9999999
1
1
1
0.9999999
0.9999999
0.9999999
1
1
1
0.9999999
0.9999999
1
1
1
1
1
1
0.9999999
0.9999999
1
1
1
1
1
1
1
1
1
1
1
1
1
1
1
1
1
1
1
1
1
1
1
1
1
1
1
1
1
1
1
1
1
1
1
1
1
1
1
1
1
1
1
1
1
1
1
1
1
1
1
1
1
1
1
1
1
1
1
1
1
1
1
1
1
1
1
1
1
1
1
0.9999999
1
1
1
0.9999998
0.9999999
1
1
1
1
0.9999996
0.9999999
1
1
1
1
0.9999995
0.9999996
1
1
0.9999999
0.9999999
1
1
1
1
1
1
1
1
1
1
1
1
1
1
1
1
1
1
1
1
1
1
1
1
1
1
1
1
1
1
1
1
1
1
1
1
1
1
1
1
1
1
1
1
1
1
1
1
1
1
1
1
1
1
1
1
1
1
1
1
1
1
1
1
1
1
1
1
1
1
1
1
1
1
1
1
1
1
1
1
1
1
1
1
1
1
1
1
1
1
1
1
1
1
1
1
1
1
1
1
1
1
1
1
1
1
1
0.9999999
0.9999999
1
0.9999995
1
0.9999999
0.9999997
1
1
0.999999
0.9999996
0.9999999
0.9999995
0.9999998
1
0.9999999
0.9999992
0.9999998
1
1
1
1
0.9999992
0.9999996
1
1
1
0.9999998
0.9999997
1
1
1
1
1
0.9999999
0.9999992
1
1
0.9999994
0.9999998
1
1
0.9999999
1
1
1
1
1
0.9999999
1
0.9999988
0.9999996
1
1
1
0.9999991
0.9999985
1
1
0.9999998
0.9999999
1
1
1
1
1
1
1
1
1
1
0.9999985
0.9999976
0.9999999
0.9999999
0.9999997
0.9999997
0.9999979
0.9999999
1
1
1
1
1
1
1
0.9999995
0.9999966
0.9999987
1
1
1
0.9999969
0.9999922
0.9999987
1
1
1
0.9999919
0.9999514
0.9999897
1
1
1
0.9999867
0.9997318
0.9998251
0.9999947
0.9999997
1
1
1
1
0.9999997
0.9999998
1
1
0.9999998
1
1
1
1
1
1
1
1
1
1
1
1
1
1
0.9999977
0.9999959
0.9999996
1
1
1
1
1
0.9999999
1
1
1
0.9999999
1
1
0.9999999
1
1
1
1
1
1
1
1
1
1
1
1
1
1
1
1
1
1
1
1
1
1
0.9999999
0.9999999
1
1
1
1
1
1
0.9999999
1
1
1
1
1
0.9999999
1
1
1
1
1
0.9999999
1
1
1
1
1
1
1
1
0.9999999
0.9999999
1
1
1
1
1
1
1
1
1
1
0.9999999
0.9999999
1
1
1
1
1
1
1
1
1
1
1
1
1
1
1
1
1
1
1
1
1
1
1
1
1
1
1
1
1
1
1
1
1
1
0.9999999
0.9999996
0.9999988
0.9999973
0.9999924
0.9999892
0.9999914
0.9999974
0.9999998
1
1
1
1
1
1
1
1
1
1
1
1
1
1
1
1
1
1
1
1
1
1
1
1
1
1
1
1
1
0.9999999
1
1
1
1
1
1
1
1
1
1
1
1
1
1
0.9999999
0.9999999
1
1
1
1
1
1
0.9999999
0.9999999
1
1
1
1
1
1
1
1
1
1
1
1
1
1
1
1
1
1
1
1
1
1
1
1
1
1
1
1
1
1
1
1
1
1
1
1
1
1
1
0.9999999
0.9999999
1
1
1
1
1
1
1
1
1
1
1
1
1
1
1
1
1
1
1
0.9999829
0.9996822
0.999965
1
1
1
1
1
1
1
1
1
1
1
1
1
1
1
1
1
1
1
1
1
1
1
1
1
1
1
1
1
1
1
1
1
1
1
1
1
1
1
1
1
1
1
1
1
1
1
1
1
1
1
1
1
1
1
1
1
1
1
1
1
1
1
1
1
1
0.9999998
0.9999998
0.9999998
1
1
1
0.9999999
0.9999994
0.9999994
0.9999997
0.9999999
1
1
1
1
0.9999998
0.9999984
0.9999981
0.9999982
0.9999993
0.9999999
0.9999999
0.9999993
0.9999968
0.9999966
0.9999966
0.9999976
0.9999994
0.9999999
1
1
0.9999995
0.999998
0.9999982
0.9999993
0.9999999
1
1
1
1
1
1
1
1
1
1
1
1
0.9999997
0.9999993
0.9999994
0.9999998
1
1
1
1
1
1
1
1
0.9999999
0.9999998
0.9999998
0.9999999
1
1
1
1
1
1
1
1
1
1
1
1
0.9999997
0.9999953
0.9999311
0.9991829
0.9980777
0.9980777
0.998567
0.9994776
0.9998215
0.9999288
0.9999798
0.9999949
0.999998
0.999999
0.9999996
0.9999999
1
1
1
1
1
1
1
1
1
1
1
1
1
1
1
0.9999999
1
1
1
1
1
1
1
1
1
0.9999999
1
1
1
1
1
1
1
1
1
1
1
1
1
1
1
1
1
1
1
1
1
1
1
1
1
1
1
1
1
0.9999999
1
1
1
1
1
1
1
1
1
1
0.9999999
1
1
1
1
1
1
1
1
1
1
1
1
1
1
1
1
1
1
1
1
1
1
1
0.9999999
0.9999998
0.9999999
1
1
1
1
0.9999999
0.9999999
0.9999999
0.9999999
0.9999999
0.9999999
1
1
1
1
1
1
1
1
1
1
1
1
1
1
1
1
1
1
1
1
1
1
1
1
1
1
1
1
1
1
1
1
1
1
1
1
1
1
1
1
1
1
1
1
1
1
1
1
1
1
1
1
1
1
1
1
1
1
1
1
1
0.9999999
0.9999992
0.9999947
0.9999744
0.9999052
0.9997032
0.9997156
0.9998951
0.9999868
0.9999994
1
1
1
1
1
1
1
1
1
1
1
1
1
1
1
1
1
1
1
1
1
1
1
1
0.9999999
0.9999996
0.9999995
0.9999996
0.9999999
1
1
1
1
1
1
1
1
1
1
1
1
1
1
1
1
1
1
1
1
1
1
1
1
1
1
1
1
1
1
1
1
1
1
1
1
1
1
1
1
1
1
1
1
1
1
1
1
1
1
1
1
1
1
1
1
1
1
1
1
1
1
1
0.9999999
0.999999
0.9999988
0.9999995
0.9999999
1
1
1
1
1
1
1
1
0.9999999
0.9999994
0.9999958
0.9999743
0.9998641
0.9993045
0.9972194
0.995948
0.9975654
0.9995252
0.9999702
0.9999794
0.999932
0.9999187
0.9999526
0.9999922
0.9999997
1
1
1
1
1
1
1
1
1
0.9999999
0.9999996
0.9999984
0.9999958
0.9999957
0.9999983
0.9999998
1
1
1
1
1
1
0.9999999
0.9999997
0.999999
0.999999
0.9999997
1
1
1
1
1
1
1
1
1
1
1
0.9999999
0.9999998
0.9999998
0.9999999
1
1
1
1
1
1
1
1
1
1
1
1
1
1
1
1
1
1
1
1
1
1
0.9999998
0.9999998
0.9999999
1
1
1
1
1
1
0.9999996
0.999999
0.999999
0.9999994
0.9999999
0.9999999
0.9999998
0.9999995
0.9999995
0.9999998
1
1
1
0.9999999
0.999999
0.9999967
0.9999966
0.9999966
0.9999986
0.9999999
0.9999999
0.9999992
0.9999968
0.9999967
0.9999972
0.9999992
0.9999999
1
1
1
1
1
1
1
1
1
1
1
1
1
1
1
1
1
1
1
1
1
1
1
1
1
1
0.9999999
0.9999998
0.9999998
0.9999999
1
1
1
1
1
1
1
1
1
0.9999999
0.9999992
0.9999947
0.9999755
0.9998363
0.9987923
0.9978261
0.9978261
0.9978261
0.9980874
0.9991165
0.9996219
0.9997835
0.9999132
0.9999869
0.9999996
1
1
1
1
1
1
1
1
1
1
1
1
1
1
1
1
1
1
1
1
1
1
1
1
1
1
1
1
1
1
1
1
1
1
1
1
1
1
1
1
1
1
1
1
1
1
1
1
1
1
1
1
1
1
1
1
1
1
1
1
1
1
1
1
1
1
1
1
1
1
1
1
1
1
1
1
1
1
1
0.9999999
1
1
1
1
1
1
1
1
1
1
1
1
1
1
1
1
1
1
1
1
1
1
0.9999999
0.9999998
0.9999999
1
1
1
1
1
1
1
0.9999999
0.9999999
0.9999999
0.9999999
0.9999999
1
1
1
1
1
1
1
1
1
1
1
1
1
1
1
1
1
1
1
1
1
1
1
1
1
1
1
1
1
1
1
1
1
1
1
1
1
1
1
1
1
1
1
1
1
1
1
1
1
1
1
1
1
1
1
1
1
1
0.9999994
0.9999931
0.9999371
0.999638
0.9984157
0.9982001
0.9989695
0.9998252
0.9999906
0.9999998
1
1
1
1
1
1
1
1
1
1
1
1
1
1
0.9999999
0.9999999
1
1
1
1
1
1
1
0.9999999
0.9999994
0.9999972
0.9999947
0.9999963
0.9999991
1
1
1
1
1
1
1
1
1
1
1
1
1
1
1
1
1
1
1
1
1
1
1
1
1
1
1
1
1
1
1
1
1
1
1
1
1
1
1
1
1
1
1
1
1
1
1
1
1
1
1
1
1
1
1
1
1
1
1
1
1
1
1
1
0.9999995
0.9999987
0.9999988
0.9999996
0.9999999
1
1
0.9999999
0.9999998
0.9999993
0.9999984
0.9999965
0.9999936
0.9999899
0.9999824
0.9999373
0.9994764
0.9945079
0.9748838
0.9761533
0.9899009
0.9985176
0.9999444
0.9999992
0.9999995
0.9999987
0.9999968
0.9999962
0.9999977
0.9999995
0.9999999
1
1
0.9999999
0.9999999
0.9999997
0.9999991
0.9999972
0.9999903
0.9999671
0.9999186
0.9999127
0.9999628
0.9999956
0.9999999
1
1
1
1
1
0.9999999
0.9999991
0.9999952
0.9999931
0.9999963
0.9999993
1
1
1
1
1
1
1
1
0.9999999
0.9999996
0.9999983
0.9999935
0.9999909
0.9999953
0.9999993
1
1
1
1
1
1
1
1
1
1
1
1
1
1
1
1
1
1
1
1
1
1
1
1
1
0.9999999
0.9999999
1
1
1
1
0.9999999
0.9999992
0.999999
0.9999994
0.9999999
0.9999999
0.9999992
0.9999986
0.999999
0.9999997
1
1
1
1
1
1
1
1
1
1
1
1
1
0.9999996
0.9999979
0.9999979
0.9999992
0.9999999
1
1
1
1
1
1
1
1
1
1
1
1
1
1
1
1
1
1
1
1
1
1
1
1
1
1
1
1
0.9999999
0.9999999
1
1
1
1
1
1
1
1
0.9999996
0.9999968
0.9999862
0.9999568
0.9999545
0.9999696
0.9999749
0.9999736
0.9999456
0.9996293
0.9979144
0.9974998
0.9974998
0.9977854
0.9993134
0.999946
0.9999993
1
1
1
1
1
1
1
1
1
1
1
1
1
1
1
1
1
1
1
1
1
1
1
1
1
1
1
1
1
1
1
1
1
1
1
1
1
1
1
1
1
1
1
1
1
1
1
1
1
1
1
1
1
1
1
1
1
1
1
1
1
1
1
1
1
1
1
1
1
1
1
1
1
1
1
1
1
1
1
1
1
1
1
1
1
1
1
1
1
1
1
1
1
1
1
1
1
1
1
1
1
1
1
1
1
1
1
1
1
1
1
1
1
1
1
1
1
1
1
1
1
1
1
1
1
0.9999999
0.9999999
1
1
1
1
1
1
1
1
1
1
1
1
1
1
1
1
1
1
1
1
0.9999995
0.9999971
0.9999948
0.9999965
0.9999991
0.9999999
1
1
1
1
1
1
1
1
1
1
1
1
0.9999999
0.9999999
1
1
1
1
1
1
1
1
1
1
1
1
1
1
1
1
0.9999999
0.9999995
0.999997
0.9999806
0.9998449
0.9984968
0.9942959
0.99549
0.9985411
0.9998379
0.9999957
0.9999999
0.9999999
0.9999999
0.9999999
0.9999999
1
1
1
1
0.9999999
0.9999998
0.9999989
0.9999938
0.9999731
0.9999655
0.9999814
0.9999973
0.9999999
1
1
1
1
1
0.9999999
0.9999996
0.9999973
0.9999856
0.9999692
0.9999796
0.9999957
0.9999998
1
1
1
1
1
1
1
1
1
1
1
1
1
1
1
1
1
1
1
1
1
1
1
1
1
1
1
1
1
1
1
1
1
1
1
1
1
1
1
1
1
1
1
1
1
1
1
1
1
1
1
1
1
1
1
1
1
1
1
1
1
1
1
1
0.9999999
0.9999999
0.9999997
0.9999994
0.999999
0.9999984
0.9999969
0.9999935
0.999985
0.999958
0.9998676
0.9996683
0.9994201
0.9991768
0.9988358
0.9975892
0.9894831
0.9621719
0.958741
0.958741
0.9599304
0.9855779
0.9986002
0.9999767
0.9999999
0.9999999
0.9999999
0.9999991
0.9999972
0.9999929
0.9999844
0.9999771
0.9999772
0.9999841
0.9999879
0.9999562
0.999748
0.998771
0.9970254
0.9970797
0.9987082
0.9998368
0.9999953
1
1
1
1
1
0.9999997
0.999998
0.9999862
0.9999616
0.9999711
0.9999915
0.9999991
1
1
1
1
1
1
1
0.9999999
0.9999993
0.999995
0.999966
0.9999024
0.9999283
0.9999815
0.9999985
1
1
1
1
0.9999999
0.9999999
1
1
1
1
1
1
1
1
1
1
1
1
1
1
1
1
1
1
1
1
1
1
1
1
1
1
1
0.9999998
0.9999993
0.9999995
0.9999999
1
0.9999997
0.9999988
0.9999986
0.9999991
0.9999998
1
1
1
1
1
1
1
1
1
1
1
1
1
1
1
1
1
1
1
1
1
1
1
1
1
1
1
1
1
1
1
1
1
1
1
1
1
1
1
1
1
1
1
1
1
1
1
1
1
1
1
1
1
1
1
0.9999994
0.9999878
0.9998908
0.9998589
0.9998837
0.9999671
0.9999976
0.9999992
0.9999978
0.9999828
0.9997964
0.998379
0.9979221
0.9989803
0.9998297
0.9999923
0.9999999
1
1
1
1
1
1
1
1
1
1
1
1
1
1
1
1
1
1
1
1
1
1
1
1
1
1
1
1
1
1
1
1
1
1
1
1
1
1
1
1
1
1
1
1
1
1
1
1
1
1
1
1
1
1
1
1
1
1
1
1
1
1
1
1
1
1
1
1
1
1
1
1
1
1
1
1
1
1
1
1
1
1
1
1
1
1
1
1
1
1
1
1
1
1
1
1
1
1
1
1
1
1
1
1
1
1
1
1
1
1
1
1
1
1
1
1
1
1
1
1
1
1
1
1
1
1
1
1
1
1
1
1
1
1
1
1
1
1
1
1
1
1
1
1
1
1
1
1
1
0.9999999
0.9999993
0.9999955
0.9999888
0.999989
0.999992
0.9999898
0.9999444
0.9997583
0.9993944
0.9995286
0.9998109
0.9999611
0.9999889
0.999991
0.9999912
0.9999905
0.9999878
0.9999819
0.9999694
0.9999543
0.9999371
0.9998758
0.9998137
0.9998897
0.9999776
0.999999
1
1
1
1
1
1
1
1
1
0.9999999
0.9999999
1
1
1
1
1
0.9999997
0.9999972
0.9999702
0.99979
0.999277
0.9962754
0.9942312
0.9942312
0.9962587
0.9992324
0.9999622
0.999999
0.9999984
0.9999959
0.9999929
0.9999927
0.9999935
0.999996
0.9999977
0.9999974
0.9999931
0.9999616
0.9997589
0.9990794
0.9991007
0.9996827
0.9999637
0.9999979
0.9999999
1
1
1
1
1
0.9999997
0.9999976
0.9999815
0.9998977
0.9998303
0.9999103
0.9999849
0.9999994
1
1
1
1
1
1
1
1
1
1
1
1
1
1
1
1
1
1
1
1
1
1
1
1
1
1
0.9999999
0.9999998
0.9999998
0.9999999
1
1
1
1
1
1
1
1
1
1
1
1
1
1
1
1
1
1
1
1
1
1
1
1
1
1
1
1
1
1
1
0.9999995
0.9999979
0.9999967
0.9999967
0.9999971
0.9999971
0.9999963
0.9999906
0.9999733
0.9999382
0.9998288
0.9995244
0.9991103
0.9987499
0.9982236
0.9955616
0.9743932
0.9185662
0.9151771
0.9151771
0.9151771
0.9579382
0.9927975
0.9950699
0.9946245
0.9962937
0.9991786
0.9999468
0.9999992
0.9999998
0.9999995
0.9999914
0.9999015
0.999234
0.9959443
0.9917958
0.99374
0.9983247
0.9999041
0.9997699
0.9964324
0.9843033
0.9838338
0.9924954
0.9989709
0.9999652
0.9999998
0.9999999
0.9999996
0.9999986
0.9999972
0.9999935
0.9999697
0.9998574
0.9998403
0.999919
0.9999883
0.9999994
1
1
1
1
1
1
0.9999999
0.9999996
0.9999974
0.9999816
0.9998741
0.9996683
0.9997872
0.9999515
0.9999964
0.9999999
1
1
0.9999999
0.9999997
0.9999998
0.9999999
1
1
1
1
1
1
1
1
1
1
1
1
1
1
1
1
1
1
1
1
1
1
1
1
1
1
1
1
0.9999999
0.9999999
0.9999999
1
1
0.9999999
0.9999993
0.9999992
0.9999997
1
1
1
1
1
1
1
1
1
1
1
1
1
1
1
1
1
1
1
1
1
1
1
1
1
1
1
1
1
1
1
1
1
1
1
1
1
1
1
1
1
1
1
1
1
1
1
1
1
1
1
1
1
1
1
0.9999999
0.9999975
0.9999649
0.9998637
0.9998789
0.9999566
0.9999948
0.9999996
0.9999996
0.9999983
0.9999939
0.9999814
0.9999436
0.9998723
0.9998748
0.9999522
0.9999944
0.9999998
1
1
1
1
1
1
1
1
1
1
1
1
1
1
1
1
1
1
1
1
1
0.9999999
1
1
0.9999999
1
1
1
1
1
1
1
1
1
1
1
1
1
1
1
1
1
1
1
1
1
1
1
1
1
1
1
1
1
1
1
1
1
1
1
1
1
1
1
1
1
1
1
1
1
1
1
1
1
1
1
1
1
1
1
1
1
1
1
1
1
1
1
1
1
1
1
1
1
1
1
1
1
1
1
1
1
1
1
1
1
1
1
1
1
1
1
1
1
1
1
1
1
1
1
1
1
1
1
1
1
1
1
1
1
1
1
1
1
1
1
1
1
1
1
1
1
1
1
1
1
1
1
0.9999999
0.9999999
0.9999999
0.9999997
0.9999967
0.9999652
0.9997865
0.999378
0.9993475
0.9994965
0.9994753
0.9985165
0.9932883
0.9903302
0.9928894
0.9977156
0.9993823
0.999272
0.9990199
0.9982508
0.9967156
0.9950851
0.9940857
0.9903958
0.9810655
0.9808597
0.9844793
0.9955159
0.9996166
0.9999862
0.999999
1
1
1
1
1
1
0.9999997
0.9999987
0.9999985
0.9999992
0.9999999
1
1
1
1
1
0.9999994
0.9999899
0.9999068
0.9994776
0.9960298
0.9930583
0.9931475
0.9965311
0.9992624
0.9999372
0.9999696
0.9999678
0.9999503
0.9998798
0.9997369
0.9996857
0.9997189
0.9998371
0.9999349
0.9999328
0.9997993
0.9985003
0.9927439
0.9924856
0.9967928
0.9994984
0.9999585
0.9999979
0.9999998
0.9999999
0.9999999
0.9999999
1
1
0.9999998
0.9999968
0.9999409
0.9994446
0.9993383
0.9996699
0.9999534
0.9999982
1
1
1
0.9999999
0.9999998
0.9999999
1
1
1
1
1
1
0.9999999
0.9999998
0.9999998
0.9999999
1
1
1
1
1
1
1
1
1
0.9999999
0.9999991
0.9999975
0.9999979
0.9999991
0.9999998
1
1
1
1
1
1
1
1
1
1
1
1
1
0.9999999
1
1
1
1
1
1
1
1
1
1
1
1
1
1
1
0.9999999
0.9999998
0.9999974
0.9999703
0.9998808
0.9998226
0.9998272
0.9998616
0.9998814
0.9997845
0.9989851
0.9971676
0.9964565
0.9950807
0.9770771
0.8869974
0.8682738
0.8682738
0.8682738
0.9214675
0.9854944
0.9919349
0.9913725
0.9934229
0.9979026
0.9983195
0.9979491
0.9951962
0.9913956
0.9943148
0.9985055
0.9998899
0.9999939
0.9999344
0.998892
0.9907232
0.9693122
0.9722839
0.991203
0.9992736
0.9999308
0.9995612
0.9914496
0.9832861
0.9867715
0.9961743
0.9997231
0.9999965
0.9999999
0.9999996
0.9999982
0.9999916
0.9999535
0.9997163
0.999243
0.9994645
0.9998596
0.9999877
0.9999997
1
1
1
1
1
1
0.9999998
0.9999977
0.9999834
0.9999062
0.9995212
0.9989702
0.9993572
0.9998608
0.9999913
0.9999999
1
0.9999999
0.9999997
0.9999992
0.9999994
0.9999998
1
1
1
1
0.9999999
0.9999998
0.9999998
0.9999999
1
1
1
1
1
1
1
1
1
1
1
1
1
1
1
1
1
1
1
1
1
1
1
1
1
1
1
1
0.9999999
0.9999999
1
1
1
1
1
1
1
1
1
1
1
1
1
1
1
1
1
1
1
1
1
1
1
1
1
1
1
1
1
1
1
1
1
1
1
1
1
1
1
1
1
1
1
1
1
1
1
1
1
1
1
1
1
1
1
1
0.9999998
0.9999992
0.9999963
0.9999858
0.9999783
0.9999879
0.9999977
0.9999999
0.9999999
0.9999999
0.9999999
0.9999997
0.9999991
0.9999966
0.9999907
0.9999916
0.9999973
0.9999997
1
1
1
1
1
1
1
1
1
1
1
1
1
1
1
1
1
1
1
0.9999999
1
1
1
1
1
1
1
1
1
1
1
1
1
1
1
1
1
1
1
1
1
1
1
1
1
1
1
1
1
1
1
1
1
1
1
1
1
1
1
1
1
1
1
1
1
1
1
1
1
1
1
1
1
1
1
1
1
1
1
1
1
1
1
1
1
1
1
1
1
1
1
1
1
1
1
1
1
1
1
1
1
1
1
0.9999999
0.9999998
0.9999998
0.9999998
0.9999998
0.9999995
0.999999
0.9999989
0.9999991
0.9999994
0.9999997
0.9999997
0.9999996
0.9999995
0.9999994
0.9999995
0.9999996
0.9999998
0.9999999
0.9999999
0.9999999
0.9999999
0.9999999
1
1
1
1
1
1
1
1
1
1
1
1
1
1
1
0.9999999
0.9999998
0.9999992
0.9999972
0.9999911
0.9999885
0.9999919
0.9999957
0.9999955
0.9999745
0.9996133
0.9965895
0.9895757
0.9888163
0.9922195
0.9924178
0.9817067
0.9462119
0.9284855
0.9628445
0.9922993
0.9983429
0.9959469
0.982036
0.9676757
0.9496701
0.7491562
0.6237854
0.7772799
0.9575611
0.9959153
0.996204
0.9948859
0.996713
0.9993123
0.9999669
0.9999997
1
1
0.9999998
0.9999981
0.9999851
0.9999816
0.9999896
0.9999981
0.9999998
1
1
1
1
0.9999999
0.9999996
0.9999994
0.9999965
0.9999091
0.9981262
0.9935396
0.9941222
0.9970801
0.9993143
0.9998826
0.9998849
0.9998605
0.9997715
0.9994881
0.998629
0.9966319
0.9952273
0.9956094
0.9973279
0.9988553
0.9987842
0.9942302
0.9726146
0.9718159
0.9879084
0.9972804
0.9995672
0.9999675
0.9999991
0.9999996
0.9999992
0.9999993
0.9999998
1
0.9999999
0.9999995
0.9999942
0.9999059
0.9993037
0.9990516
0.9993412
0.9998416
0.9999896
0.9999998
0.9999999
0.9999996
0.9999991
0.9999993
0.9999998
1
1
1
1
0.9999999
0.9999996
0.9999994
0.9999995
0.9999998
1
1
1
1
1
1
1
1
0.9999999
0.9999997
0.9999991
0.9999976
0.9999959
0.9999953
0.9999952
0.999995
0.9999946
0.9999967
0.9999993
1
1
1
1
1
1
0.9999999
0.9999998
0.9999994
0.999999
0.9999994
0.9999999
1
1
1
1
1
1
1
1
0.9999999
0.9999995
0.9999989
0.9999989
0.9999988
0.9999973
0.9999861
0.9999527
0.9999406
0.9999561
0.9998608
0.9988628
0.9965433
0.9965072
0.9979595
0.9985403
0.9978136
0.9948882
0.9661939
0.853765
0.845191
0.845191
0.8629652
0.9510497
0.9745927
0.9689429
0.9740332
0.9911649
0.998894
0.999173
0.9987595
0.9755946
0.8525017
0.8521211
0.9420633
0.9873174
0.9976534
0.9996671
0.9999745
0.9999819
0.9997839
0.9949588
0.9227696
0.8961957
0.9588326
0.9953851
0.9998054
0.9997194
0.9980668
0.9905876
0.9929101
0.9976674
0.9997408
0.9999932
0.9999997
0.9999988
0.9999893
0.9999243
0.9994888
0.9973973
0.9965317
0.9983149
0.9997344
0.9999892
0.9999999
1
1
1
1
1
1
1
0.9999993
0.9999848
0.9997201
0.9968494
0.995128
0.9975857
0.9996091
0.9999833
0.9999997
0.9999998
0.9999986
0.999994
0.9999943
0.9999977
0.9999997
1
1
0.9999999
0.9999996
0.9999982
0.9999975
0.9999987
0.9999998
1
1
1
1
1
1
0.9999999
0.9999999
0.9999999
1
1
1
1
1
1
1
1
1
1
1
1
1
1
1
1
1
1
1
1
1
1
1
1
1
1
1
1
1
1
1
1
1
1
1
1
1
1
1
1
1
1
1
1
1
1
1
1
1
1
1
1
1
1
1
1
1
1
1
1
1
1
1
1
1
1
1
1
1
1
1
1
1
1
1
1
1
1
1
1
1
0.9999999
0.9999997
0.999999
0.9999985
0.9999992
0.9999999
1
1
1
1
0.9999999
0.9999997
0.9999984
0.9999977
0.9999988
0.9999997
1
1
1
1
0.9999999
0.9999999
0.9999999
1
1
1
0.9999999
0.9999999
1
1
1
1
1
1
0.9999999
0.9999999
1
1
0.9999999
1
1
1
1
1
1
1
1
1
1
0.9999999
1
1
1
1
1
1
1
1
1
1
1
1
1
1
1
1
1
1
1
1
1
1
1
1
1
1
1
1
1
1
1
1
1
1
1
1
1
1
1
1
1
1
1
1
1
1
1
1
1
1
1
1
1
1
1
1
1
1
1
1
1
1
1
1
1
1
1
1
1
1
1
0.9999999
0.9999999
0.9999998
0.9999997
0.9999995
0.9999988
0.9999967
0.9999922
0.9999871
0.9999853
0.9999862
0.9999864
0.9999806
0.9999455
0.9998795
0.999874
0.9998957
0.9998981
0.9998188
0.9995055
0.999279
0.9994196
0.9996739
0.999836
0.9998439
0.9997842
0.9996288
0.9995706
0.9995887
0.9996923
0.9998443
0.9999212
0.9999386
0.9999447
0.9999493
0.9999548
0.9999638
0.9999763
0.9999879
0.9999934
0.9999942
0.9999942
0.9999944
0.9999954
0.999997
0.9999976
0.9999976
0.9999973
0.9999969
0.9999963
0.9999955
0.9999935
0.9999858
0.9999458
0.9997968
0.9996149
0.9996247
0.9997815
0.9999186
0.9999103
0.9998494
0.999011
0.988822
0.937164
0.9184352
0.9473025
0.9507096
0.9093589
0.7285991
0.7258509
0.9016469
0.9882469
0.9967763
0.9916967
0.9647579
0.8297794
0.5396271
0.5320941
0.5320941
0.5965101
0.8806916
0.990873
0.999809
0.9998675
0.9996962
0.9995659
0.9997683
0.9999404
0.9999823
0.999944
0.9996727
0.9996989
0.9998834
0.9999804
0.9999966
0.9999985
0.9999995
1
1
1
1
0.9999994
0.9999873
0.999911
0.9998956
0.999899
0.9995286
0.9952824
0.994674
0.9980446
0.9989406
0.9981358
0.996107
0.9950798
0.9948981
0.9918989
0.9805572
0.9526327
0.9376364
0.9460172
0.9725264
0.9753947
0.9548766
0.8946243
0.9190496
0.9765373
0.9946289
0.9983805
0.9997568
0.999988
0.9999996
0.9999997
0.9999997
0.9999996
0.9999998
0.9999998
0.9999997
0.9999981
0.9999744
0.999657
0.9986771
0.9988048
0.9994754
0.9998792
0.9999886
0.9999988
0.999998
0.9999961
0.9999971
0.9999991
0.9999999
1
1
1
0.9999998
0.9999989
0.9999985
0.9999989
0.9999997
1
1
1
1
1
0.9999999
0.9999998
0.9999996
0.9999995
0.9999994
0.9999985
0.9999943
0.9999822
0.9999438
0.9998131
0.9994998
0.9994526
0.9997611
0.9999694
0.9999991
1
1
1
0.9999999
0.9999998
0.9999996
0.9999988
0.9999948
0.9999927
0.9999934
0.9999976
0.9999997
1
1
1
1
1
1
1
0.9999997
0.9999954
0.9999692
0.9999253
0.9999429
0.9999611
0.9999375
0.9997038
0.9986152
0.9974311
0.9979226
0.9995392
0.9995578
0.9971927
0.9804185
0.9794915
0.992597
0.9969361
0.9867623
0.8911367
0.8674131
0.8907482
0.9624134
0.9924346
0.994857
0.9926133
0.9895331
0.9925314
0.9955646
0.9950032
0.9756253
0.868037
0.8495775
0.9138787
0.9834004
0.9875145
0.9599037
0.7798501
0.7585858
0.8763486
0.9833963
0.9995006
0.9985137
0.961079
0.879534
0.8838824
0.9571866
0.9951986
0.9974572
0.9928093
0.9894546
0.9946491
0.9989006
0.9999349
0.9999989
0.9999997
0.9999994
0.9999926
0.9998599
0.9975184
0.9843167
0.9860989
0.9955686
0.999582
0.9999905
0.9999999
0.9999999
0.999999
0.9999874
0.999866
0.9993466
0.9993631
0.9997712
0.9999796
0.9999894
0.999881
0.9974387
0.9938503
0.9938503
0.9969228
0.9995403
0.9999837
0.9999998
0.9999991
0.9999899
0.9999856
0.9999895
0.9999976
0.9999995
0.9999993
0.9999976
0.9999879
0.9999766
0.9999859
0.9999969
0.9999997
1
1
1
1
1
0.9999999
0.9999995
0.9999992
0.9999996
0.9999999
1
1
1
1
1
1
1
1
1
1
1
1
1
1
1
1
1
1
1
1
1
1
1
1
1
1
1
1
1
1
1
1
1
1
1
1
1
1
1
1
1
1
1
1
1
1
1
1
1
1
1
1
1
1
1
1
1
1
1
1
1
1
1
1
1
1
1
1
1
1
1
1
1
1
1
1
1
1
1
1
1
1
1
1
1
1
1
1
1
1
1
1
1
1
0.9999998
0.9999993
0.9999994
0.9999998
1
1
1
0.9999997
0.9999989
0.999999
0.9999995
0.9999999
0.9999999
0.9999996
0.9999988
0.9999988
0.9999992
1
1
1
1
1
0.9999999
1
1
1
0.9999999
0.9999999
1
1
1
1
1
0.9999999
1
1
0.9999999
0.9999999
1
1
1
1
1
0.9999999
1
1
1
1
1
0.9999999
0.9999999
1
1
1
1
1
1
1
1
1
1
1
1
1
1
1
1
1
1
1
1
1
1
1
1
1
1
1
1
1
1
1
1
1
1
1
1
1
1
1
1
1
1
1
1
1
1
1
1
1
1
1
1
1
1
1
1
1
1
1
1
1
1
1
1
1
0.9999999
0.9999997
0.9999986
0.9999939
0.9999791
0.9999432
0.9998816
0.999825
0.9997971
0.9997567
0.9996048
0.9990448
0.9978854
0.9973291
0.9975218
0.9980385
0.9979881
0.9963316
0.9911873
0.9896216
0.9917172
0.9933418
0.9904101
0.9731023
0.9531921
0.9611053
0.9799886
0.9913133
0.9913553
0.9884279
0.9758397
0.9611742
0.9722011
0.9923186
0.9965403
0.9961863
0.9942507
0.9882526
0.9875228
0.9940466
0.9988593
0.9994498
0.9993792
0.9988814
0.9983866
0.998975
0.9997316
0.9999298
0.9999321
0.999919
0.9998647
0.999784
0.9997575
0.9997718
0.9998493
0.999918
0.9998727
0.9996012
0.9980963
0.9942831
0.9951617
0.9984039
0.9997742
0.9996916
0.9983296
0.9918745
0.9746702
0.89597
0.7944736
0.8076655
0.8034883
0.5808371
0.4086061
0.4592472
0.8147082
0.9795655
0.9950483
0.9944098
0.9549348
0.6160594
0.5204818
0.5204818
0.6956641
0.9314749
0.9851595
0.9971621
0.9996089
0.9998114
0.9998256
0.9998247
0.9997463
0.9974373
0.9958796
0.9972322
0.9993208
0.9998692
0.9999116
0.9999453
0.9999867
0.9999992
1
1
1
1
1
0.9999996
0.9999894
0.9998418
0.9990179
0.9988379
0.9988307
0.9981229
0.9933757
0.9878872
0.9921606
0.9944117
0.9758604
0.9092723
0.9060477
0.9563712
0.9575168
0.5884247
0.2929738
0.4013677
0.8473436
0.8908268
0.6473732
0.5196397
0.7324489
0.9563727
0.9977703
0.9999109
0.9999804
0.9999963
0.9999995
0.9999997
0.9999997
0.9999997
0.9999997
0.9999996
0.9999992
0.9999954
0.9999423
0.9991497
0.9981973
0.9984133
0.9993752
0.9999136
0.9999876
0.9999898
0.9999842
0.9999898
0.9999971
0.9999995
0.9999999
0.9999999
0.9999999
0.9999997
0.9999976
0.9999968
0.9999978
0.9999995
0.9999999
1
1
0.9999999
0.9999995
0.9999978
0.9999918
0.9999749
0.9999459
0.9999333
0.9999412
0.9999836
0.9999868
0.9999351
0.9988052
0.9933352
0.9925837
0.9953641
0.999146
0.9999575
0.9999993
0.9999999
0.9999998
0.9999996
0.9999988
0.9999903
0.9999429
0.9999317
0.999949
0.9999876
0.9999992
1
1
1
1
1
1
1
0.9999999
0.9999997
0.9999971
0.9999625
0.9996681
0.9990247
0.9991013
0.9996885
0.9997546
0.999069
0.9930209
0.9779684
0.9800839
0.9927992
0.9993776
0.9995611
0.9965703
0.9696741
0.9632776
0.97781
0.996179
0.9989142
0.9982037
0.9961606
0.9960655
0.9976103
0.998686
0.9981653
0.9980694
0.9987649
0.9988752
0.996654
0.9316675
0.8106479
0.8182108
0.9147919
0.987023
0.9971711
0.9817902
0.801261
0.7434764
0.7651912
0.9231574
0.9936975
0.9996188
0.9980538
0.9754084
0.9375483
0.9572169
0.9646939
0.9434706
0.9277026
0.9482808
0.9862499
0.998997
0.9999839
0.9999997
0.9999997
0.9999992
0.9999898
0.999867
0.998051
0.9851406
0.9805752
0.9827864
0.9943918
0.9995198
0.9999925
0.9999999
0.9999995
0.9999888
0.9997598
0.9984505
0.9987068
0.9995966
0.9999545
0.9999937
0.9999931
0.9999583
0.9992844
0.9950627
0.9955278
0.9983912
0.9998201
0.9999954
0.9999998
0.9999991
0.9999956
0.999995
0.9999955
0.9999955
0.9999902
0.9999411
0.9998352
0.9998754
0.9999636
0.9999958
0.9999998
1
1
1
1
0.9999999
0.9999992
0.9999967
0.9999967
0.9999987
0.9999998
1
1
1
1
1
1
1
1
1
1
1
1
1
1
1
1
1
1
1
1
1
1
1
1
1
1
1
1
1
1
1
1
1
1
1
1
1
1
1
1
1
1
1
1
1
1
1
1
1
1
1
1
1
1
1
1
1
1
1
1
1
1
1
1
1
1
1
1
1
1
1
1
1
1
1
1
1
1
1
1
1
1
1
1
1
1
1
1
1
1
1
1
1
1
1
1
1
1
0.9999999
1
1
1
0.9999999
0.9999989
0.9999954
0.9999963
0.9999986
0.9999998
0.9999997
0.9999965
0.9999794
0.9999722
1
1
1
1
1
1
0.9999999
1
1
1
1
0.9999999
1
1
1
1
0.9999999
1
1
1
1
1
1
1
1
1
1
1
1
1
1
0.9999999
1
1
1
1
1
0.9999999
0.9999999
1
0.9999999
1
1
1
1
1
1
1
1
1
1
1
1
1
1
1
1
1
1
1
1
1
1
1
1
1
1
1
1
1
1
1
1
1
1
1
1
1
1
1
1
1
1
1
1
1
1
1
1
1
1
1
1
1
1
1
1
1
1
1
1
1
1
1
1
1
1
1
0.9999999
0.9999993
0.999996
0.9999837
0.9999481
0.9998457
0.9995371
0.9986574
0.9964664
0.9921933
0.9872154
0.9842089
0.9836539
0.9831487
0.9779349
0.9524631
0.9134265
0.9129227
0.9367886
0.9525594
0.9379458
0.8583944
0.8106032
0.8558342
0.9064071
0.8908419
0.7851843
0.5448719
0.598374
0.8431086
0.9292036
0.9296827
0.8414757
0.5185353
0.5750544
0.8656581
0.9768072
0.9777452
0.9341864
0.7131825
0.6994151
0.8780815
0.9834787
0.9901449
0.9880549
0.9707358
0.9554405
0.9761061
0.9957247
0.9986419
0.9980986
0.9964485
0.9968547
0.9985958
0.9989516
0.9979235
0.9975213
0.9976686
0.9984515
0.9995617
0.9993578
0.9920466
0.9842158
0.9858366
0.9950179
0.9977227
0.9973877
0.9973247
0.9877146
0.8051782
0.6259271
0.7649092
0.8151063
0.5618708
0.1523078
0.1463086
0.4439475
0.8955118
0.9869209
0.9683873
0.8758648
0.8921215
0.8591721
0.5843071
0.6063711
0.8220926
0.966374
0.9898243
0.989921
0.9905571
0.9929599
0.9942072
0.9911524
0.9916881
0.9957329
0.9982888
0.9983288
0.9987651
0.9996235
0.9999644
0.9999937
0.9999934
0.9999961
0.9999989
0.9999998
0.9999998
0.9999997
0.9999996
0.9999995
0.9999895
0.9997021
0.9977164
0.9970819
0.9984277
0.9978526
0.9869718
0.9102184
0.8578041
0.9217039
0.9853872
0.9621356
0.5196876
0.2654898
0.3834932
0.7638391
0.8574801
0.8574801
0.8574801
0.7951689
0.3340278
0.08705404
0.1272513
0.629688
0.9620117
0.9992007
0.9999972
0.9999996
0.9999996
0.9999997
0.9999996
0.9999995
0.9999986
0.9999941
0.9999667
0.9997714
0.9987673
0.9984906
0.9989246
0.9993441
0.9996011
0.9998682
0.9999576
0.9999573
0.9999738
0.9999913
0.9999981
0.9999998
0.9999999
0.9999998
0.9999993
0.9999946
0.9999931
0.9999957
0.9999989
0.9999998
1
1
0.9999999
0.9999997
0.999998
0.9999832
0.9997286
0.9949116
0.9891415
0.9902082
0.9963378
0.9995882
0.9999864
0.9999879
0.9999226
0.9987704
0.9949655
0.9958867
0.9986095
0.9998631
0.9999956
0.9999978
0.9999822
0.9997447
0.9995626
0.9996352
0.9998848
0.999989
0.9999995
0.9999999
0.9999999
0.9999999
0.9999999
0.9999998
0.9999998
0.9999998
0.9999999
0.9999998
0.9999992
0.999993
0.9999442
0.9996167
0.9984501
0.9954958
0.9959886
0.9985614
0.9994294
0.9985604
0.9913601
0.9543162
0.9459432
0.9657049
0.9937164
0.9994514
0.9994457
0.9986362
0.9977543
0.996819
0.9967441
0.9977611
0.9994497
0.9995999
0.9995999
0.9995903
0.9994841
0.9991084
0.9987249
0.9988572
0.9990274
0.9985833
0.9833215
0.8599142
0.8660124
0.9471918
0.9931787
0.9991991
0.9977341
0.9732219
0.8662432
0.8668862
0.9369188
0.9895664
0.9991517
0.9988406
0.9958444
0.9909436
0.9875362
0.9621595
0.8092493
0.7787139
0.7787139
0.8965121
0.9872122
0.9996348
0.9999983
0.9999997
0.9999996
0.9999947
0.9998726
0.997131
0.9834499
0.9814816
0.986696
0.9962524
0.9995493
0.9999746
0.9999915
0.9999825
0.9999503
0.9997917
0.9988792
0.9979328
0.9989696
0.9998023
0.9999781
0.9999679
0.9998503
0.9989014
0.9967773
0.9980365
0.9992016
0.9998424
0.9999899
0.9999998
0.9999998
0.9999998
0.9999996
0.9999986
0.9999942
0.9999513
0.99967
0.9995357
0.9996962
0.9999302
0.999994
0.9999999
1
1
1
0.9999997
0.9999971
0.9999867
0.9999866
0.9999944
0.9999989
0.9999999
1
1
1
1
1
1
1
1
1
1
1
1
1
1
1
1
1
1
1
1
1
1
1
1
1
1
1
1
1
1
1
1
1
1
1
1
1
1
1
1
1
1
1
1
1
1
1
1
1
1
1
1
1
1
1
1
1
1
1
1
1
1
1
1
1
1
1
1
1
1
1
1
1
1
1
1
1
1
1
1
1
1
1
1
1
1
1
1
1
1
1
1
1
1
1
1
1
0.9999999
0.9999997
0.9999993
0.9999992
0.9999994
0.9999999
0.9999999
0.9999997
0.9999965
0.9999872
0.9999902
0.9999968
0.9999993
0.9999971
0.9999528
0.9996977
1
0.9999999
1
1
1
1
0.9999998
1
1
1
1
1
0.9999998
0.9999999
1
1
1
1
1
1
1
1
1
1
1
1
1
1
1
1
1
1
1
1
1
1
1
1
1
1
1
1
1
1
1
1
1
1
0.9999999
1
1
1
1
1
1
1
1
1
1
1
1
1
1
1
1
1
1
1
1
1
1
1
1
1
1
1
1
1
1
1
1
1
1
1
1
1
1
1
1
1
1
1
1
1
1
1
1
1
1
1
1
1
1
1
1
1
1
1
1
1
1
1
1
1
1
1
1
1
0.9999994
0.9999925
0.9999448
0.9997025
0.9988509
0.9968341
0.9931165
0.9856151
0.9709736
0.9430614
0.8903106
0.8190129
0.7766183
0.7622201
0.7504095
0.7545342
0.718084
0.5147335
0.3602519
0.4281902
0.6471476
0.6525417
0.3801107
0.1376167
0.25478
0.6093796
0.539322
0.1843458
0.1218721
0.1574622
0.7161969
0.6959892
0.2845177
0.0556195
0.04222108
0.1301712
0.6318023
0.677027
0.3745145
0.09766347
0.07936447
0.204503
0.7559086
0.906727
0.8077783
0.3927799
0.3174665
0.5973276
0.9178662
0.9807723
0.9799785
0.9634336
0.9662437
0.9886402
0.9942094
0.9945173
0.9967611
0.9970834
0.9763696
0.9445008
0.9546748
0.9854361
0.997984
0.9981145
0.9920202
0.9900382
0.9916298
0.975374
0.6496137
0.6424534
0.8890894
0.6085975
0.2144194
0.2144194
0.5714362
0.9181895
0.8869645
0.8775105
0.9285333
0.9860416
0.9836104
0.9357097
0.5923019
0.5758345
0.8406718
0.9748557
0.9970407
0.998029
0.9973587
0.9631685
0.8247118
0.8155413
0.8782264
0.9579586
0.9921099
0.9981845
0.9990504
0.9996036
0.9998106
0.999892
0.9999633
0.9999915
0.9999917
0.999991
0.9999759
0.9997424
0.9984587
0.9986388
0.9995477
0.9999225
0.9999244
0.9998566
0.9987169
0.9913826
0.9822704
0.9879265
0.9890393
0.8781627
0.620861
0.6513915
0.844423
0.9153971
0.9410216
0.9439387
0.6762836
0.1518178
0.1061153
0.1587855
0.1833588
0.1576371
0.08806696
0.06210082
0.08486583
0.4171393
0.884518
0.9942975
0.9999474
0.9999996
0.9999996
0.9999996
0.9999996
0.999999
0.9999938
0.999926
0.9990185
0.9967566
0.9970628
0.9987583
0.9996392
0.9998896
0.9999173
0.9998198
0.9997545
0.9998406
0.9999593
0.9999941
0.9999993
0.9999995
0.9999995
0.9999973
0.9999865
0.9999861
0.9999935
0.9999982
0.9999996
0.9999999
0.9999999
0.9999999
0.9999999
0.9999989
0.9999797
0.9996654
0.9959907
0.9904167
0.9948968
0.9985879
0.999571
0.9998987
0.9999062
0.9992854
0.9984566
0.9986855
0.9992839
0.9995511
0.9995603
0.9987896
0.9982302
0.9985399
0.9995443
0.9999505
0.9999753
0.999964
0.9999657
0.9999801
0.9999958
0.9999998
0.9999999
0.9999997
0.9999978
0.9999938
0.9999934
0.9999952
0.9999968
0.9999954
0.9999822
0.999886
0.9992055
0.9971873
0.9907339
0.9880419