/*--------------------------------*- C++ -*----------------------------------*\
| =========                 |                                                 |
| \\      /  F ield         | foam-extend: Open Source CFD                    |
|  \\    /   O peration     | Version:     3.1                                |
|   \\  /    A nd           | Web:         http://www.extend-project.de       |
|    \\/     M anipulation  |                                                 |
\*---------------------------------------------------------------------------*/
FoamFile
{
    version     2.0;
    format      ascii;
    class       volScalarField;
    location    "14.5";
    object      nut;
}
// * * * * * * * * * * * * * * * * * * * * * * * * * * * * * * * * * * * * * //

dimensions      [0 2 -1 0 0 0 0];

internalField   nonuniform List<scalar> 
119952
(
4.928687e-05
3.312755e-05
3.387627e-05
3.708761e-05
3.885403e-05
3.633043e-05
3.450818e-05
3.305842e-05
3.189956e-05
3.094488e-05
3.017592e-05
2.955639e-05
2.903965e-05
2.857847e-05
2.81361e-05
2.768601e-05
2.720532e-05
2.667983e-05
2.60647e-05
2.539629e-05
3.230025e-05
3.070374e-05
3.030699e-05
3.942737e-05
3.8504e-05
3.830691e-05
3.818785e-05
3.835087e-05
3.858249e-05
2.353821e-05
2.912972e-05
3.058107e-05
3.422542e-05
3.843132e-05
4.323206e-05
4.858053e-05
5.443033e-05
6.059538e-05
6.698386e-05
7.74636e-05
0.0003199218
0.0003956801
0.0004791268
0.0005658639
0.0006531271
0.0007398525
0.0008254339
0.0009099856
0.0009937555
0.001460032
0.001568457
0.001681482
0.001797809
0.001916355
0.002035556
0.002153418
0.002267843
0.002377085
0.002477515
0.00256952
0.002652092
0.00272484
0.002786653
0.002835118
0.002867671
0.00288236
0.002878421
0.00286115
0.002801042
0.002653654
0.002527361
0.002413401
0.00227987
0.00211821
0.001966939
0.001836431
0.001731265
0.001651961
0.001597379
0.00156509
0.001552108
0.001555446
0.001572374
0.001600598
0.001638834
0.001686642
0.001744369
0.001812509
0.001888393
0.001973056
0.002066126
0.002175719
0.002294954
0.002404544
0.002505513
0.002588944
0.002514612
0.002442531
0.002437431
0.002457116
0.002479407
0.002497357
0.002506826
0.002505161
0.002490255
0.002458685
0.002408691
0.002347763
0.00227812
0.002199044
0.002109939
0.002010574
0.001901414
0.001784217
0.001662193
0.001539439
0.001419952
0.001307003
0.001202876
0.0011089
0.001024956
0.000946182
0.000871668
0.0008160056
0.0007984106
0.0007666232
0.0007838843
0.0008356773
0.0009041511
0.0009757169
0.001040241
0.001093259
0.001126781
0.001161477
0.001199092
0.001239628
0.001281353
0.001321333
0.001356093
0.001383541
0.001403612
0.001417771
0.001427209
0.00143266
0.001434955
0.001434946
0.001433446
0.001427815
0.001419118
0.001409286
0.001398875
0.00138766
0.001374792
0.001358995
0.001337971
0.001310294
0.001276415
0.001236875
0.001193076
0.001146516
0.00109743
0.001047903
0.001000182
0.0009560222
0.0009166247
0.0008826758
0.0008544173
0.0008317292
0.0008142369
0.0008014061
0.0007926338
0.0007873311
0.0007848934
0.0007846306
0.0007858674
0.0007881899
0.0007915419
0.0007958827
0.0008011499
0.000807436
0.0008150881
0.0008245874
0.000835268
0.0008464844
0.0008578435
0.0008691099
0.0008801505
0.0008909056
0.0009013657
0.0009115781
0.0009216418
0.0009317329
0.0009420289
0.0009526942
0.000963789
0.0009753242
0.0009861646
0.0008381435
0.0007932799
0.000735179
0.0007025581
0.0006826105
0.00066729
0.0006530026
0.0006379443
0.0006209645
0.0006015061
0.00057977
0.0005569416
0.0005333221
0.0005097937
0.0004873525
0.0004671757
0.0004485172
0.0004320548
0.0004179674
0.0004059503
0.0003954228
0.0003856309
0.0003758052
0.0003654333
0.0003544691
0.0003432478
0.000332158
0.0003214212
0.0003112022
0.0003018488
0.0002937492
0.0002868769
0.0002805398
0.0002736614
0.0002654636
0.000257992
0.000244236
0.0002308568
0.0002187066
0.0002214642
0.0002386275
0.0002588059
0.0002763896
0.0002903611
0.0003007075
0.0003081641
0.000313737
0.0003181945
0.0003220853
0.0003257267
0.00032928
0.0003328034
0.0003362509
0.0003394567
0.0003421757
0.0003440698
0.0003448091
0.0003437418
0.0003411663
0.0003358412
0.0003244533
0.0002886459
0.0002266738
0.0002048509
0.0002279454
0.0002607106
0.0002882979
0.0003055564
0.0003233001
0.0003522522
0.0004333248
0.0004355349
0.0004609585
0.0004913909
0.0005138906
0.0005307338
0.0005492342
0.0005696558
0.0005902911
0.0006085146
0.0006236
0.0006359834
0.0006461354
0.000654471
0.0006602494
0.0006634339
0.0006644912
0.0006639946
0.0006625112
0.0006604894
0.0006582745
0.000656205
0.0006546045
0.0006536509
0.0006534465
0.0006540673
0.0006556111
0.0006582497
0.000662163
0.000667503
0.0006743977
0.0006829535
0.0006932418
0.0007052899
0.0007190875
0.0007345997
0.0007517752
0.0007705337
0.0007907239
0.0008121837
0.0008348734
0.000858705
0.0008832539
0.0009083136
0.0009337717
0.0009594213
0.0009847757
0.001009833
0.00103488
0.001059961
0.001084869
0.001109644
0.001134472
0.001160119
0.001185147
0.001211813
0.001244142
0.001281242
0.001322034
0.001364891
0.001408049
0.001449922
0.001489293
0.001525374
0.001557759
0.001586313
0.001611063
0.001632124
0.001649648
0.001663807
0.001674787
0.00168279
0.001688035
0.001690762
0.001691232
0.001689724
0.001686538
0.001681977
0.001676344
0.001669932
0.001663006
0.001655795
0.001648493
0.001641261
0.001634237
0.001627544
0.001621295
0.001615592
0.001610524
0.001606169
0.00160259
0.001599837
0.001597938
0.001596903
0.001596723
0.00159737
0.001598799
0.001600946
0.001603723
0.001607011
0.001610673
0.001614549
0.001618461
0.001622244
0.001625667
0.001628405
0.001630087
0.001630331
0.001628926
0.001626278
0.001623354
0.00162025
0.001616598
0.001611967
0.001606027
0.001598776
0.001590317
0.001580627
0.001569491
0.001556525
0.001541334
0.001523688
0.00150356
0.001481062
0.001456382
0.001429756
0.001401454
0.001371777
0.001341057
0.001309655
0.001277957
0.001246386
0.001215382
0.001185455
0.001157246
0.001131711
0.001110414
0.001097128
0.0009447214
4.811002e-05
5.163095e-05
6.006812e-05
7.048686e-05
8.129427e-05
9.186144e-05
0.0001020165
0.0001117675
0.0001223665
0.0004154273
0.0005639898
0.0007194939
0.0008690214
0.001004579
0.001124827
0.001231308
0.001326501
0.001412938
0.002030963
0.002128272
0.002227272
0.002322516
0.002413286
0.00249912
0.002579194
0.002652898
0.002719839
0.002779424
0.00283428
0.002880129
0.002920441
0.002958043
0.00299425
0.003030108
0.003066628
0.003104759
0.003145406
0.003177649
0.003199689
0.003232951
0.003278694
0.003336681
0.003406312
0.003487019
0.003577765
0.003677354
0.003784713
0.003898204
0.004016417
0.004139202
0.004265882
0.004395969
0.004529225
0.004665518
0.004804826
0.004946593
0.005881343
0.006028552
0.006174194
0.00631777
0.006457949
0.006592827
0.00672036
0.006838623
0.006946026
0.007040826
0.007121728
0.007187167
0.007234393
0.007259593
0.007259295
0.007230014
0.007170636
0.007080824
0.006964499
0.006813589
0.006630125
0.006432033
0.006210032
0.005964637
0.005702179
0.005435752
0.005176399
0.004933215
0.004713939
0.004524298
0.004367807
0.004245926
0.004158488
0.004104227
0.004081408
0.004088258
0.004123175
0.004184814
0.004271728
0.004378824
0.004499394
0.004641749
0.004807334
0.004987404
0.005174235
0.005365664
0.005556917
0.005732616
0.005890049
0.006034378
0.006164457
0.006275608
0.006365473
0.006432042
0.00647416
0.006491596
0.006484083
0.006449913
0.006383993
0.006289243
0.006167422
0.006016879
0.005836192
0.005625135
0.005385703
0.005122157
0.004840331
0.004547091
0.004249079
0.003951874
0.003660744
0.00337907
0.003110149
0.002866624
0.002665623
0.002511451
0.0023972
0.002314836
0.002257761
0.002220251
0.002197222
0.002185374
0.002183466
0.002191926
0.002211768
0.002243348
0.002285649
0.002336411
0.002392821
0.002452131
0.002512256
0.002571782
0.00262958
0.002686543
0.002745375
0.002807788
0.002873336
0.002941661
0.003012247
0.00308426
0.003156871
0.003229206
0.003299999
0.003367505
0.003429607
0.003483986
0.003528237
0.003559856
0.003576313
0.003575149
0.003554121
0.003511116
0.003448615
0.003373208
0.003289068
0.003199753
0.003108888
0.003019853
0.002935555
0.002858292
0.002789715
0.002730855
0.002682177
0.002643663
0.002614962
0.002595577
0.002584986
0.002582686
0.002588246
0.002601431
0.002622175
0.002649088
0.002681822
0.002720197
0.002764132
0.002813637
0.002868799
0.002929793
0.002996835
0.003070204
0.003150129
0.003236868
0.003330457
0.003430946
0.003537909
0.003651062
0.003769524
0.003895194
0.003784007
0.003719881
0.003721962
0.003760038
0.003815034
0.00387426
0.003928867
0.003972441
0.004000186
0.004008696
0.003996084
0.003962158
0.003908201
0.003837105
0.003751392
0.003658996
0.00357013
0.003488706
0.003416508
0.003353392
0.003297386
0.003244724
0.003190547
0.003130569
0.003062795
0.002988014
0.002908453
0.00282579
0.002740625
0.002653664
0.002566537
0.002480648
0.002395311
0.002307118
0.002211171
0.002104065
0.00198578
0.001859893
0.001744645
0.001655296
0.001591135
0.001544756
0.001510026
0.001482316
0.001458682
0.001437648
0.001418751
0.001402112
0.001388137
0.001377318
0.001370022
0.001366368
0.001366252
0.001369372
0.001375153
0.00138266
0.001390588
0.001396856
0.001398666
0.001390535
0.001363513
0.001302777
0.001219144
0.001147493
0.001098711
0.001056591
0.001008585
0.000954973
0.000906624
0.0008432597
0.0009440685
0.0009005207
0.0008742296
0.0008553382
0.0008552468
0.0008787015
0.0009253572
0.0009883347
0.001061309
0.001143566
0.001236625
0.001339756
0.001446991
0.001548376
0.001610341
0.001658886
0.001701082
0.001737884
0.001770018
0.001798075
0.001822983
0.001845673
0.001866619
0.001886257
0.001904949
0.001923048
0.001941
0.001959343
0.001978659
0.001999538
0.002022592
0.002048456
0.002077735
0.002110954
0.002148533
0.002190823
0.002237481
0.002287653
0.00234096
0.002397735
0.002458045
0.00252177
0.002588667
0.00265835
0.002730283
0.002803799
0.00287857
0.002954452
0.00303119
0.003108487
0.003186069
0.003263572
0.00334077
0.003417228
0.003492126
0.003564977
0.003636302
0.003708039
0.003780332
0.003852238
0.003923052
0.003992098
0.004058679
0.004122093
0.004181671
0.004236817
0.004287038
0.004331951
0.004371296
0.004404926
0.004432806
0.004455007
0.004471702
0.00448315
0.004489697
0.004491758
0.004489811
0.004484384
0.004476031
0.004465315
0.004452779
0.004438927
0.004424213
0.004409045
0.004393792
0.004378789
0.004364347
0.004350746
0.004338236
0.004327035
0.00431732
0.00430923
0.004302863
0.004298274
0.004295475
0.004294435
0.004295078
0.004297278
0.004300864
0.004305615
0.004311264
0.004317503
0.004323983
0.004330312
0.004336051
0.004340721
0.004343835
0.004344972
0.004343911
0.004340773
0.004335836
0.004329181
0.004320643
0.004309813
0.004296397
0.004280369
0.004261737
0.004240351
0.004215797
0.004187411
0.004154552
0.004116817
0.004074052
0.004026279
0.003973644
0.003916385
0.003854819
0.003789341
0.003720418
0.003648583
0.003574462
0.003498719
0.003422171
0.003345573
0.003269974
0.003196089
0.003126085
0.003061703
0.003004134
2.993169e-05
3.681122e-05
4.720768e-05
5.965531e-05
7.464977e-05
9.286222e-05
0.0001155642
0.0001445715
0.0001833024
0.0002527611
0.0009773587
0.001142673
0.001319555
0.001497979
0.001649689
0.001778389
0.001914951
0.002053204
0.00228141
0.004289945
0.004537468
0.004676676
0.004798793
0.004909548
0.005010245
0.005102207
0.005186605
0.005265496
0.005356441
0.005519453
0.005709781
0.005877383
0.00601093
0.006115678
0.006199663
0.006268809
0.006326297
0.006378233
0.006295853
0.006288685
0.006316891
0.006360991
0.006410198
0.006458666
0.006503581
0.006543871
0.006579406
0.00661066
0.006638373
0.006665475
0.006693347
0.006721753
0.006750151
0.006777929
0.006804067
0.006825368
0.007695575
0.007703953
0.007702071
0.007694003
0.007681536
0.007665442
0.007645939
0.00762307
0.007597088
0.007567537
0.007533889
0.007496554
0.007455274
0.007410716
0.007364325
0.007317791
0.007272838
0.007231548
0.007194886
0.007163757
0.007140275
0.007126722
0.007124122
0.007133555
0.0071558
0.007190952
0.007238682
0.007298313
0.007368905
0.007449558
0.007539267
0.007636875
0.007741304
0.007851512
0.007966823
0.008086834
0.008211826
0.008343745
0.008460989
0.008585407
0.008715052
0.008847247
0.008979398
0.009108823
0.009232905
0.009349269
0.009455826
0.009551246
0.009634157
0.009702187
0.009751358
0.009776634
0.00977318
0.009737425
0.009668266
0.009566367
0.009433601
0.009269858
0.00907814
0.008857998
0.008612934
0.008344008
0.008054949
0.007753625
0.00745073
0.007155529
0.006876629
0.006621697
0.006397011
0.006207308
0.006055736
0.005943929
0.005872321
0.005840473
0.00584733
0.005891551
0.00597143
0.006083847
0.006222622
0.006380407
0.006563445
0.006767052
0.006985252
0.007212714
0.007443791
0.007671104
0.007886533
0.008087049
0.008269735
0.00843001
0.008564983
0.008672546
0.008752011
0.00880403
0.008829321
0.008827473
0.008796145
0.00873081
0.008631609
0.008496192
0.008322257
0.008108326
0.00785534
0.007567381
0.007250092
0.00691041
0.006554908
0.006189734
0.005822026
0.005456825
0.005099527
0.004763486
0.004463864
0.00420511
0.003984236
0.003796864
0.003638531
0.003504615
0.003390629
0.003292961
0.00320967
0.003140874
0.003088235
0.003053717
0.003038357
0.003041663
0.003061793
0.003096178
0.003142192
0.003197615
0.003260853
0.003330697
0.003405439
0.003484848
0.003572081
0.003668971
0.003774756
0.003888347
0.004008442
0.004133438
0.004261249
0.004389234
0.004514301
0.004633181
0.004742503
0.004838775
0.004918596
0.004978936
0.005017271
0.005031716
0.005021139
0.004985182
0.004929116
0.004856844
0.004772544
0.004680582
0.004585227
0.004490384
0.004399414
0.004315022
0.004239239
0.004173461
0.004118556
0.004074995
0.004042959
0.004022416
0.004013229
0.00401526
0.004027783
0.00404958
0.004080696
0.004121221
0.004171317
0.004231231
0.004301288
0.004381876
0.004473403
0.004576249
0.004690686
0.004816824
0.004954544
0.005103458
0.005262857
0.005431648
0.005608262
0.005789756
0.00595819
0.006139229
0.006324366
0.006506034
0.006677725
0.006833929
0.006970083
0.00708242
0.007167984
0.007225233
0.00725476
0.007259517
0.007244216
0.007214206
0.007174391
0.007128368
0.007081286
0.007036079
0.006993171
0.006951627
0.006908907
0.006861038
0.006803725
0.00673386
0.006650667
0.006555736
0.006451416
0.006339243
0.006219966
0.006094499
0.005963934
0.005828454
0.005686482
0.005535114
0.00537154
0.005195316
0.005009811
0.004822805
0.004644085
0.004478934
0.004327206
0.004186704
0.004055175
0.003931123
0.003813862
0.003703186
0.003599048
0.003501505
0.003410815
0.003327434
0.003251915
0.003184811
0.00312648
0.003076885
0.003035518
0.003001444
0.00297293
0.00294771
0.002922703
0.002893535
0.002854468
0.002803386
0.002744861
0.002682224
0.002609959
0.002519518
0.002403268
0.002262179
0.00210344
0.001938922
0.001761843
0.00161439
0.001506185
0.001434141
0.001327017
0.001212268
0.001149695
0.001127866
0.001134759
0.001165177
0.001218254
0.001293132
0.001387272
0.001495349
0.001610857
0.001730093
0.001849441
0.001965084
0.002073854
0.002170096
0.002227556
0.002281377
0.00233261
0.00238202
0.002430111
0.002477446
0.002524602
0.002572069
0.002620308
0.002669726
0.002720755
0.002773882
0.00282963
0.002888517
0.002950903
0.003016421
0.003085387
0.003158602
0.003236503
0.003319268
0.003406871
0.003499116
0.003595653
0.003695989
0.003799508
0.00390548
0.004013262
0.004122317
0.004232098
0.004342046
0.004451621
0.004560258
0.004667571
0.004772683
0.00487487
0.004974221
0.005070259
0.005162278
0.00525168
0.005338626
0.005422786
0.005503861
0.005581547
0.005655525
0.005725456
0.005790999
0.005851822
0.005907622
0.005958141
0.006003181
0.006042611
0.006076385
0.006104536
0.006127187
0.006144539
0.006156877
0.006164558
0.006168008
0.00616771
0.006164186
0.006157969
0.006149574
0.006139491
0.00612817
0.006116039
0.006103501
0.006090943
0.006078727
0.006067188
0.006056626
0.006047296
0.006039407
0.006033121
0.006028549
0.006025754
0.00602475
0.006025496
0.006027898
0.006031811
0.006037032
0.006043307
0.006050331
0.006057754
0.006065185
0.006072194
0.006078329
0.006083138
0.006086225
0.006087288
0.006086162
0.006082798
0.006077152
0.006069092
0.006058306
0.006044475
0.006027505
0.006007429
0.005984159
0.005957303
0.005926128
0.005889875
0.005848042
0.005800363
0.005746736
0.005687177
0.005621804
0.005550821
0.005474527
0.005393304
0.005307631
0.005218057
0.005125248
0.005029904
0.004932886
0.004835018
0.004737403
0.004641146
0.004548396
0.004465671
3.732922e-05
6.074853e-05
0.0001344858
0.000460465
0.0007978241
0.001449109
0.001945156
0.00254876
0.003237286
0.003805621
0.004223706
0.004559968
0.004889838
0.005215582
0.005551151
0.005891281
0.006228784
0.00654928
0.006859338
0.007168062
0.00747182
0.00776049
0.007997097
0.008189489
0.008359494
0.008503177
0.008618004
0.008711032
0.008784939
0.008846541
0.008923575
0.008926797
0.008642718
0.00849691
0.008368922
0.008282999
0.008240062
0.008240747
0.008285376
0.008367723
0.008471126
0.008608226
0.008780702
0.008981265
0.009214273
0.009478845
0.009802284
0.01
0.01
0.01
0.01
0.01
0.01
0.01
0.01
0.01
0.01
0.01
0.01
0.01
0.01
0.01
0.01
0.01
0.01
0.01
0.01
0.01
0.01
0.01
0.01
0.01
0.01
0.01
0.01
0.01
0.01
0.01
0.009947792
0.009886841
0.009823058
0.009758712
0.009695014
0.009631545
0.009568443
0.009505726
0.009444782
0.009386831
0.009332671
0.009283869
0.009243262
0.009214678
0.009201696
0.009203711
0.009220054
0.009249908
0.00929231
0.009346262
0.009410784
0.009484855
0.009567333
0.009657063
0.009753335
0.009856041
0.009965789
0.01
0.01
0.01
0.01
0.01
0.01
0.01
0.01
0.01
0.01
0.01
0.01
0.01
0.01
0.01
0.01
0.01
0.01
0.01
0.01
0.01
0.01
0.01
0.01
0.01
0.01
0.00970729
0.009401082
0.009095183
0.008797449
0.008515463
0.008255614
0.008025008
0.007829867
0.007674749
0.00756256
0.007494713
0.007471356
0.0074917
0.007554024
0.007655518
0.007791734
0.007955861
0.008144315
0.008357245
0.008587804
0.008828984
0.009074361
0.009316389
0.009547286
0.009761211
0.009953962
0.01
0.01
0.01
0.01000001
0.01000006
0.01000026
0.0100003
0.01000017
0.01000003
0.01
0.01
0.01
0.009956329
0.009736833
0.009484
0.0092005
0.008890137
0.008556669
0.008203538
0.007837038
0.007462668
0.007086627
0.006719403
0.006372445
0.006052295
0.005761032
0.005498661
0.005263768
0.00505361
0.004864493
0.004692541
0.004534747
0.004389941
0.00425912
0.004144908
0.00405047
0.003978427
0.003930151
0.003905604
0.003903617
0.00392239
0.003960002
0.0040147
0.00408495
0.004169328
0.004265647
0.004373584
0.004496572
0.004634629
0.004785839
0.004947801
0.005117509
0.00529128
0.005464932
0.005634176
0.005794776
0.00594245
0.006073211
0.006183698
0.006271249
0.006334008
0.006370967
0.006381896
0.00636797
0.006332075
0.006277656
0.006208683
0.006129367
0.006043882
0.005956137
0.005869613
0.005787267
0.005711515
0.005644255
0.005586924
0.00554057
0.005505942
0.005483615
0.005474209
0.005476638
0.00549034
0.005515633
0.005552841
0.00560235
0.005664601
0.00574007
0.005829221
0.00593245
0.006050012
0.006181937
0.006328013
0.006487734
0.006660262
0.006844382
0.007038501
0.007240585
0.007448036
0.007656989
0.007865069
0.008068762
0.008263572
0.008444832
0.00860816
0.008749813
0.0088676
0.008959585
0.009025256
0.009066488
0.009087675
0.009094672
0.00909317
0.009087527
0.009080356
0.00907219
0.009062976
0.009051972
0.009037768
0.009017636
0.008987561
0.008943642
0.008883066
0.008805119
0.008712189
0.008607769
0.008494109
0.00837222
0.008242528
0.008105955
0.007961545
0.007806903
0.007639114
0.007456305
0.007260118
0.00705637
0.006852622
0.006655164
0.006466609
0.006286382
0.006112825
0.00594475
0.00578212
0.005625572
0.005475529
0.005331885
0.005194415
0.005063168
0.004938601
0.004821535
0.004712992
0.00461381
0.00452456
0.004445321
0.004375617
0.004313999
0.004258989
0.004208179
0.004158225
0.004105077
0.004048386
0.003988254
0.003923655
0.003846984
0.003750714
0.003625289
0.003468679
0.003278674
0.003061044
0.002825221
0.002584669
0.002358313
0.002161887
0.002003127
0.001883993
0.001804585
0.001761321
0.001748406
0.001636331
0.001534895
0.001489671
0.001489058
0.001522959
0.001582566
0.001661045
0.001754237
0.001857603
0.001965135
0.00207384
0.002183892
0.002297257
0.00241542
0.002538359
0.002664773
0.002744736
0.00281428
0.002885554
0.002959211
0.003035474
0.003114686
0.003197219
0.003283218
0.003372574
0.003465109
0.003561176
0.003661126
0.003765253
0.003873745
0.003986662
0.004103937
0.004225374
0.004350627
0.004479202
0.004610468
0.004743686
0.00487808
0.005012895
0.00514739
0.005280827
0.005412493
0.005541704
0.005667868
0.005790338
0.005908477
0.006021867
0.006130147
0.006232981
0.00633053
0.006424026
0.006513553
0.006599196
0.00668102
0.006759049
0.006833264
0.006903597
0.00696994
0.007032156
0.007090088
0.007143578
0.007192483
0.007236689
0.00727613
0.007310791
0.007340714
0.007366001
0.007386819
0.0074034
0.007416043
0.007425109
0.007430994
0.007434109
0.007434851
0.007433609
0.00743076
0.007426685
0.007421766
0.007416383
0.007410901
0.007405658
0.007400956
0.007397053
0.007394162
0.007392449
0.007392036
0.007392996
0.007395354
0.007399083
0.007404104
0.007410289
0.007417455
0.007425371
0.007433757
0.007442294
0.007450631
0.007458391
0.007465187
0.007470652
0.007474457
0.007476336
0.007476091
0.007473558
0.007468553
0.007460827
0.007450061
0.007436037
0.007418714
0.007398049
0.007373702
0.007345007
0.007311243
0.007271851
0.00722645
0.007174797
0.007116757
0.007052293
0.00698146
0.006904408
0.006821382
0.006732723
0.006638862
0.006540336
0.006437753
0.006331863
0.006223455
0.00611354
0.006003146
0.005894799
0.005798782
2.136948e-05
3.454827e-05
5.213888e-05
0.0002277943
0.0003749433
0.0006429288
0.0009085048
0.001152356
0.00145915
0.001757827
0.002080415
0.002497986
0.002991834
0.003550434
0.004177761
0.00497918
0.006523087
0.007139571
0.0077351
0.008266821
0.008732812
0.009131835
0.00948081
0.009794349
0.01
0.01
0.01
0.01
0.01
0.01
0.01
0.01
0.01
0.01
0.01
0.01
0.01
0.009852933
0.009404836
0.008956586
0.008446718
0.008004057
0.007859735
0.007690246
0.007513745
0.007385289
0.007309026
0.007276642
0.007292326
0.00734899
0.007452359
0.007589457
0.007768981
0.007998502
0.008284547
0.008642974
0.009066942
0.009545544
0.01
0.01
0.01
0.01
0.01
0.01
0.01
0.01
0.01
0.01
0.01
0.01
0.01
0.01
0.01
0.01
0.01
0.01
0.01
0.01
0.01
0.01
0.01
0.01
0.01
0.01
0.01
0.01
0.01
0.01
0.01
0.01
0.01
0.01
0.01
0.01
0.01
0.01
0.01
0.01
0.01
0.01
0.01
0.01
0.01
0.01
0.01
0.01
0.01
0.01
0.01
0.01
0.01
0.01
0.01
0.01
0.01
0.01
0.01
0.01
0.01
0.01
0.01
0.01
0.01
0.01
0.01
0.01
0.01
0.01
0.01
0.01
0.01
0.01
0.01
0.01
0.01
0.01
0.01
0.01
0.01
0.01
0.01
0.01
0.01
0.01
0.01
0.01
0.01
0.009838307
0.009593211
0.00937946
0.009203118
0.009068697
0.008979046
0.008935426
0.008937736
0.008984607
0.009073467
0.009200397
0.009359962
0.00954592
0.009757014
0.009986619
0.01
0.01
0.01
0.01
0.01
0.01
0.01
0.01
0.01000003
0.01000025
0.01000095
0.01000075
0.01000024
0.01000003
0.01
0.01
0.01
0.01
0.01
0.01
0.01
0.01
0.01
0.01
0.009727931
0.009417357
0.009091887
0.008755855
0.008415275
0.008078843
0.00775356
0.007444214
0.007153981
0.006884416
0.006635161
0.00640406
0.006187781
0.005982885
0.005787043
0.005599947
0.005423556
0.005261641
0.005118832
0.004999556
0.004907185
0.004843621
0.004809314
0.004803636
0.004825334
0.004872903
0.004944779
0.005039261
0.0051543
0.005286733
0.005437725
0.005608343
0.005795178
0.005993995
0.006199846
0.006407347
0.006611116
0.006806119
0.006987621
0.007151412
0.007294152
0.007413445
0.007507869
0.00757697
0.007621252
0.007640534
0.007636413
0.007611696
0.007569687
0.007514012
0.007448411
0.007376554
0.007301889
0.007227552
0.007156305
0.007090526
0.007032208
0.006983002
0.006944294
0.006917313
0.006903183
0.006900452
0.006909506
0.006930861
0.006965069
0.007012696
0.007074293
0.007150351
0.00724125
0.007347191
0.007468114
0.00760361
0.007753049
0.007915552
0.008089916
0.008274637
0.008467948
0.008667803
0.008871349
0.009076055
0.009279021
0.009476074
0.009662453
0.009833858
0.009987162
0.01
0.01
0.01
0.01
0.01
0.01
0.01
0.01
0.01
0.01
0.01000001
0.01000002
0.01000005
0.0100001
0.01000014
0.01000019
0.0100004
0.01000176
0.01000651
0.01000713
0.01000713
0.01000691
0.01000242
0.009900496
0.009771948
0.009634238
0.00948378
0.009317971
0.009136286
0.008942549
0.008743971
0.008546103
0.008352374
0.008163566
0.00797881
0.007796624
0.00761635
0.007438895
0.007265841
0.007097976
0.006935184
0.006777161
0.006623936
0.006476093
0.006334733
0.006201244
0.006076893
0.005962688
0.005859129
0.005766048
0.005682583
0.005607603
0.005539225
0.005475063
0.005412528
0.005350458
0.005287224
0.005220074
0.005142783
0.005048355
0.00492874
0.004778093
0.004591491
0.004368033
0.00411118
0.003828362
0.003532151
0.003239395
0.002966176
0.002724646
0.002522896
0.00236468
0.002249467
0.002173685
0.002132403
0.002120597
0.002132097
0.002032382
0.001939386
0.001901787
0.001906461
0.001942302
0.001998402
0.002066834
0.00214403
0.002228457
0.002318787
0.002413894
0.002515714
0.002629193
0.002759609
0.002907524
0.003068414
0.003207384
0.003300904
0.003400272
0.003505926
0.003617735
0.003735476
0.003859053
0.003988224
0.004122619
0.004261794
0.004405281
0.004552585
0.004703178
0.004856472
0.005011798
0.005168405
0.005325475
0.005482155
0.005637589
0.005790938
0.005941386
0.006088158
0.006230543
0.006367923
0.006499744
0.006625518
0.006744909
0.006857725
0.006963848
0.007063181
0.007156866
0.007245617
0.007329984
0.007410431
0.00748734
0.007561009
0.007631646
0.007699373
0.007764233
0.007826197
0.007885181
0.007941062
0.007993697
0.008042946
0.008088684
0.008130809
0.008169249
0.008203968
0.008234982
0.008262365
0.008286264
0.008306881
0.008324453
0.008339225
0.008351451
0.008361394
0.008369345
0.008375622
0.008380562
0.00838451
0.0083878
0.00839074
0.008393608
0.008396641
0.008400046
0.008403993
0.008408618
0.008414016
0.008420238
0.008427294
0.008435152
0.008443738
0.008452928
0.008462552
0.008472405
0.008482244
0.0084918
0.008500772
0.008508851
0.008515735
0.008521151
0.008524859
0.008526638
0.008526277
0.008523537
0.00851812
0.008509723
0.008498154
0.008483288
0.008464852
0.008442359
0.008415201
0.008382792
0.008344649
0.008300394
0.008249747
0.008192518
0.008128605
0.008057997
0.007980781
0.007897142
0.007807359
0.007711816
0.007610992
0.007505506
0.00739605
0.007283541
0.007168976
0.007055369
0.00695545
1.936786e-05
2.981689e-05
5.854279e-05
0.0001768613
0.0002857881
0.0004564159
0.0005896555
0.000742102
0.0009230288
0.001100988
0.001309548
0.001579491
0.001887605
0.002254046
0.002729374
0.003648249
0.004079008
0.004540647
0.005024327
0.005528438
0.006057903
0.006604165
0.007151811
0.007687806
0.008197573
0.008670481
0.009126834
0.009619628
0.01
0.01
0.01
0.01
0.01
0.01
0.01
0.01
0.01
0.01
0.01
0.01
0.01
0.01
0.01
0.01
0.01
0.009651041
0.009170726
0.008699498
0.0082455
0.007834222
0.007476112
0.007140613
0.006898578
0.006690879
0.00654414
0.0064621
0.006439126
0.00646726
0.006552472
0.006689039
0.00689105
0.007151524
0.007506747
0.007954765
0.008496283
0.009122084
0.009839819
0.01
0.01
0.01
0.01
0.01
0.01
0.01
0.01
0.01
0.01
0.01
0.01
0.01
0.01
0.01
0.01
0.01
0.01
0.01
0.01
0.01
0.01
0.01
0.01
0.01
0.01
0.01
0.01
0.01
0.01
0.01
0.01
0.01
0.01
0.01
0.01
0.01
0.01
0.01
0.01
0.01
0.01
0.01
0.01
0.01
0.01
0.01
0.01
0.01
0.01
0.01
0.01
0.01
0.01
0.01
0.01
0.01
0.01
0.01
0.01
0.01
0.01
0.01
0.01
0.01
0.01
0.01
0.01
0.01
0.01
0.01
0.01
0.01000001
0.01000004
0.0100001
0.01000008
0.01000003
0.01000001
0.01
0.01
0.01
0.01
0.01
0.01
0.01000001
0.01000001
0.01000001
0.01000002
0.01000003
0.01000002
0.01
0.01
0.01
0.01
0.01
0.01
0.01
0.01
0.01
0.01
0.01
0.01
0.01
0.01
0.01
0.01
0.01
0.01
0.01
0.01
0.01
0.01000003
0.01000012
0.01000062
0.01000096
0.01000096
0.01000062
0.01000013
0.01000001
0.01
0.01
0.01
0.01
0.01
0.01
0.01
0.01
0.01
0.01
0.01000001
0.01000004
0.01000015
0.009998404
0.009715933
0.009428037
0.009140258
0.008856945
0.008581756
0.00831807
0.008067309
0.007828769
0.007600032
0.007377954
0.00715981
0.006944407
0.006732799
0.006528404
0.006336551
0.006163529
0.006015453
0.005897331
0.005812535
0.005762751
0.00574828
0.005768457
0.005822015
0.005907248
0.006021989
0.006163357
0.006327103
0.00651067
0.006714256
0.006932299
0.007158485
0.007386288
0.00760947
0.007822372
0.008020054
0.008198585
0.008355195
0.008488228
0.008597107
0.008682215
0.008744304
0.008782231
0.008797901
0.008793723
0.008772455
0.008737112
0.00869084
0.008636787
0.008578008
0.00851739
0.0084576
0.008401054
0.008349907
0.008306067
0.008271242
0.008247028
0.008234189
0.008231802
0.008240603
0.008261292
0.00829453
0.008340929
0.008400998
0.008475091
0.008563354
0.008665684
0.008781639
0.00891003
0.00904995
0.009200571
0.009360672
0.009528813
0.009703551
0.009883573
0.01
0.01
0.01
0.01
0.01
0.01
0.01
0.01
0.01
0.01
0.01
0.01
0.01
0.01000001
0.01000003
0.01000008
0.01000015
0.01000021
0.01000029
0.01000074
0.01000435
0.01001468
0.01001535
0.01001535
0.01001535
0.01000727
0.0100012
0.01000082
0.01000089
0.01000062
0.01000014
0.01000001
0.01
0.01
0.01
0.01
0.01000002
0.01000013
0.009860457
0.0096839
0.009510364
0.009338519
0.009166391
0.008993067
0.008819426
0.008647914
0.008479992
0.008315624
0.008154463
0.007996629
0.00784279
0.007694227
0.007552662
0.007419752
0.007296702
0.007184104
0.007081951
0.006989692
0.006906378
0.006830497
0.006760156
0.006693308
0.006628279
0.006562929
0.00649422
0.006417336
0.006326487
0.00621518
0.006077238
0.005907109
0.005700761
0.005456552
0.005175939
0.004864417
0.004532378
0.004193788
0.0038634
0.003554908
0.003279826
0.003045763
0.002855684
0.002709215
0.002603907
0.002535717
0.00249966
0.002490398
0.002502808
0.002531384
0.002478171
0.002413062
0.002388605
0.002393095
0.002417163
0.002452793
0.002494462
0.002541109
0.002596518
0.002664929
0.002749574
0.002852577
0.002979219
0.003134711
0.003317864
0.003520669
0.003722636
0.003849745
0.003986061
0.004131369
0.004284869
0.004445483
0.004612196
0.004783879
0.004959323
0.005137298
0.005316599
0.005496051
0.005674509
0.005850876
0.006024112
0.006193248
0.006357391
0.00651574
0.006667602
0.006812407
0.006949717
0.007079215
0.007200742
0.007314284
0.007419937
0.00751786
0.00760874
0.007693829
0.007774082
0.007850359
0.007923403
0.007993829
0.008062124
0.00812864
0.008193609
0.008257143
0.008319252
0.008379859
0.008438822
0.008495961
0.008551073
0.008603939
0.008654341