/*--------------------------------*- C++ -*----------------------------------*\
| =========                 |                                                 |
| \\      /  F ield         | foam-extend: Open Source CFD                    |
|  \\    /   O peration     | Version:     3.1                                |
|   \\  /    A nd           | Web:         http://www.extend-project.de       |
|    \\/     M anipulation  |                                                 |
\*---------------------------------------------------------------------------*/
FoamFile
{
    version     2.0;
    format      ascii;
    class       volScalarField;
    location    "14.5";
    object      omega;
}
// * * * * * * * * * * * * * * * * * * * * * * * * * * * * * * * * * * * * * //

dimensions      [0 0 -1 0 0 0 0];

internalField   nonuniform List<scalar> 
119952
(
361.1491
456.1537
427.5407
366.0418
321.7126
317.257
315.1016
313.8353
313.7093
314.9289
317.717
322.1326
328.1044
335.4796
344.0896
353.7113
364.1849
375.4447
387.553
401.553
339.2335
340.1781
346.9504
294.649
292.532
293.4747
294.8081
295.8305
293.9939
160.2618
647.7298
528.9148
443.0436
384.286
342.0934
310.3983
285.4805
265.1731
248.0872
228.7195
188.3186
160.8699
142.3848
129.0686
118.8619
110.7018
103.9488
98.20609
93.21091
72.78403
69.33039
65.98585
62.85602
60.02175
57.49906
55.26799
53.29848
51.5605
50.03206
48.69605
47.45101
46.28285
45.20746
44.24237
43.4017
42.69035
42.0968
41.61331
42.23048
43.25815
43.89792
44.61755
45.83282
47.68256
49.5818
51.36755
52.87353
53.97175
54.56494
54.60797
54.10986
53.12652
51.75101
50.08895
48.23638
46.27066
44.24487
42.20114
40.31299
38.57407
36.91104
35.38926
34.19876
33.24497
32.49433
32.10859
32.90439
34.93431
35.06119
34.97128
34.85575
34.75258
34.69298
34.69869
34.78931
35.00738
35.3873
35.87795
36.48197
37.23133
38.16517
39.32648
40.75827
42.49265
44.54317
46.90505
49.56227
52.50041
55.71351
59.20602
63.06303
67.47299
72.23753
76.26946
78.43071
79.18301
78.77475
77.23734
74.81421
71.89852
68.79778
65.63796
62.41556
59.10433
55.73098
52.378
49.14586
46.12341
43.37841
40.9458
38.83093
37.01289
35.46494
34.15798
33.06176
32.14583
31.38697
30.86185
30.50007
30.24681
30.07941
29.99029
29.977
30.04478
30.22298
30.53592
30.97555
31.53626
32.20152
32.96273
33.8364
34.7923
35.79373
36.80095
37.77221
38.66651
39.44706
40.08488
40.56109
40.8677
41.00654
40.98707
40.82704
40.55403
40.19995
39.78846
39.33315
38.84742
38.34448
37.83359
37.31651
36.78513
36.26402
35.77589
35.33406
34.94683
34.61973
34.3566
34.16021
34.0322
33.97274
33.97998
34.05103
34.18264
34.37183
34.61174
34.917
38.61294
44.66219
48.84351
51.82914
54.11083
56.1182
58.05787
60.03303
62.11864
64.36099
66.75532
69.21934
71.75332
74.30663
76.80301
79.08605
81.29032
83.34731
85.2173
86.92722
88.54796
90.18847
91.97307
93.99121
96.25108
98.68637
101.2239
103.8446
106.5527
109.2797
111.8825
114.278
116.5978
119.1917
122.3866
125.1299
126.9299
131.6561
136.3509
136.8075
133.3028
127.746
121.6855
116.2172
111.5432
107.4851
103.8243
100.4152
97.19072
94.13135
91.23749
88.51545
85.97686
83.64241
81.54046
79.7036
78.17668
77.01571
76.16063
75.84248
77.54475
83.91715
95.85009
104.502
106.7828
103.9927
98.90183
93.9687
88.54362
81.65142
68.82711
63.53104
58.30568
53.33456
48.85598
45.00885
41.73249
38.91599
36.51841
34.53035
32.86434
31.4161
30.11613
28.92606
27.84208
26.85761
25.96335
25.15062
24.41319
23.74768
23.15118
22.61953
22.14841
21.73491
21.37656
21.06978
20.80974
20.59097
20.40827
20.2567
20.13135
20.02751
19.94086
19.86757
19.80416
19.74745
19.69483
19.64445
19.59482
19.54464
19.49202
19.43676
19.38269
19.33107
19.28309
19.24
19.20118
19.16816
19.13664
19.10692
19.08205
19.06142
19.04253
19.03325
19.02528
18.93217
18.77114
18.55862
18.3219
18.08735
17.87404
17.69193
17.54316
17.42483
17.33182
17.25864
17.20037
17.15299
17.11344
17.07941
17.0492
17.02156
16.99552
16.97032
16.94532
16.91992
16.89359
16.8658
16.83606
16.80391
16.769
16.73103
16.68982
16.64522
16.59714
16.5455
16.49025
16.43135
16.3688
16.30266
16.23302
16.15997
16.0837
16.00442
15.92239
15.83791
15.75128
15.66282
15.57291
15.48203
15.39065
15.29933
15.20863
15.11896
15.03114
14.9465
14.86673
14.79374
14.72834
14.6674
14.60599
14.54407
14.483
14.42448
14.36941
14.31746
14.26842
14.22287
14.1822
14.14838
14.12315
14.10749
14.10181
14.10622
14.12071
14.14516
14.1793
14.22268
14.27458
14.33388
14.39901
14.46775
14.53706
14.60217
14.65451
14.67679
14.63391
14.4842
14.57216
722.4522
590.8416
522.1459
475.8287
438.4724
406.157
377.6299
352.3469
328.8411
274.0198
217.2935
183.8334
162.7764
148.562
138.2681
130.3178
123.836
118.3286
94.00959
89.66679
85.53856
81.7062
78.25722
75.20178
72.51215
70.14531
68.04767
66.16981
64.56203
63.0239
61.50252
60.00858
58.54723
57.12186
55.73266
54.37654
53.04612
52.02183
51.16298
50.10616
48.93044
47.68021
46.38857
45.08494
43.79465
42.53683
41.32772
40.17581
39.07746
38.03602
37.04606
36.10348
35.20703
34.35521
33.54749
32.78774
29.58865
29.03948
28.53914
28.08112
27.65982
27.2711
26.91163
26.57861
26.26982
25.98275
25.71615
25.46944
25.24224
25.03412
24.84544
24.67809
24.53634
24.42938
24.37299
24.37346
24.40784
24.49359
24.67132
24.93911
25.28442
25.68293
26.11308
26.54582
26.94601
27.27697
27.50445
27.60049
27.54668
27.33606
26.97331
26.47369
25.8611
25.16439
24.41718
23.66471
22.9467
22.25994
21.62346
21.05695
20.56091
20.14136
19.80916
19.55724
19.3434
19.15895
19.01263
18.90328
18.82704
18.77969
18.75769
18.75923
18.78513
18.84086
18.94205
19.09528
19.30475
19.58091
19.9366
20.3846
20.93494
21.59399
22.36445
23.24545
24.23571
25.33357
26.53486
27.8425
29.24366
30.6414
31.89323
32.95206
33.83145
34.55693
35.15444
35.64301
36.03615
36.33712
36.5325
36.58734
36.45213
36.07994
35.44186
34.53489
33.38294
32.03484
30.55618
29.0183
27.48642
26.00521
24.60143
23.29548
22.10357
21.03075
20.07555
19.23082
18.48779
17.83844
17.2751
16.79034
16.37737
16.03038
15.7449
15.51764
15.34663
15.23187
15.17541
15.18206
15.24644
15.35299
15.49214
15.65537
15.83301
16.01469
16.18999
16.34905
16.48313
16.58512
16.64988
16.67455
16.65825
16.60155
16.50619
16.3751
16.21214
16.02162
15.80875
15.58328
15.34921
15.10997
14.86875
14.62862
14.39246
14.16293
13.94245
13.73315
13.53692
13.35533
13.18971
13.04102
12.91008
12.79727
12.70286
12.61261
12.93452
13.29156
13.53122
13.70113
13.83235
13.9451
14.05243
14.1628
14.28189
14.41397
14.56313
14.734
14.93236
15.16291
15.43281
15.732
16.03655
16.33497
16.61933
16.88636
17.13863
17.38568
17.64254
17.92408
18.23811
18.58213
18.94728
19.32664
19.71818
20.11878
20.51881
20.90826
21.28996
21.68768
22.14261
22.69632
23.37366
24.16789
24.92461
25.48218
25.82738
26.02235
26.119
26.15075
26.1322
26.06733
25.95772
25.80544
25.61149
25.37493
25.09445
24.76993
24.40352
24.00122
23.57376
23.13765
22.71656
22.34413
22.06453
21.96649
22.17507
22.86752
23.82117
24.62241
25.34141
26.37601
27.9794
30.18885
32.82192
35.74007
33.95114
35.82545
37.19523
38.0117
38.21636
37.71693
36.50843
34.72257
32.58176
30.2965
28.02764
25.88514
23.93232
22.19053
20.6503
19.28955
18.08404
17.01227
16.05682
15.20414
14.44485
13.77133
13.17665
12.65519
12.20177
11.81131
11.47882
11.19963
10.9691
10.78245
10.63475
10.52099
10.43619
10.37544
10.33385
10.30682
10.29118
10.28486
10.28485
10.2868
10.28764
10.28527
10.27841
10.26657
10.24979
10.22821
10.20153
10.17017
10.13485
10.09637
10.05565
10.01375
9.972793
9.934379
9.895117
9.85616
9.820721
9.785568
9.748962
9.711426
9.673682
9.63651
9.60065
9.566687
9.534972
9.505614
9.4785
9.45335
9.42978
9.407346
9.385595
9.36409
9.34243
9.320258
9.297261
9.273166
9.247734
9.22076
9.192075
9.161542
9.129056
9.094535
9.057912
9.019125
8.978114
8.934832
8.889245
8.841342
8.791136
8.738672
8.684022
8.627291
8.568616
8.508164
8.446133
8.382748
8.318266
8.252965
8.187148
8.121132
8.055244
7.989815
7.925181
7.861706
7.79979
7.739859
7.682322
7.627432
7.575033
7.524558
7.475551
7.4279
7.381649
7.336914
7.293608
7.251597
7.210951
7.171955
7.135049
7.100668
7.069086
7.040422
7.014723
6.992005
6.972263
6.955472
6.941581
6.930504
6.9221
6.916156
6.912348
6.91019
6.908936
6.907449
6.904133
6.897291
6.886329
6.875903
6.872986
568.0011
502.9928
449.9026
410.8843
381.3135
358.636
341.2627
328.7396
321.0684
310.6976
169.0968
157.9418
148.2259
140.1586
135.0195
131.8893
128.7682
126.2988
122.4196
79.83255
77.97092
77.31988
76.72024
76.093
75.42901
74.7281
73.98604
73.17975
72.12481
70.03896
67.83312
66.0501
64.68615
63.60138
62.68045
61.85022
61.06851
60.30279
60.46378
59.88372
58.96188
57.90401
56.82202
55.76845
54.76423
53.81412
52.9167
52.07012
51.25327
50.44735
49.64681
48.85197
48.06861
47.30491
46.56953
45.87827
42.59576
42.02527
41.48755
40.974
40.47847
39.99801
39.5311
39.07652
38.63416
38.20261
37.78303
37.37743
36.98022
36.58463
36.1848
35.77587
35.35394
34.91508
34.45709
33.97764
33.47672
32.95635
32.41789
31.86436
31.3
30.72977
30.15875
29.59193
29.03359
28.48784
27.95778
27.44564
26.95328
26.48155
26.03061
25.60059
25.19256
24.8045
24.48569
24.18689
23.91126
23.65918
23.42985
23.22193
23.03348
22.86201
22.70471
22.55961
22.42448
22.29677
22.17253
22.0473
21.91748
21.7827
21.64606
21.5144
21.39524
21.29396
21.21543
21.17988
21.19087
21.25135
21.35931
21.50811
21.68708
21.88358
22.08113
22.25988
22.3982
22.47507
22.47237
22.37732
22.18419
21.89524
21.52038
21.07549
20.5807
20.05943
19.5391
19.04859
18.59172
18.17912
17.82017
17.51844
17.27378
17.084
16.93378
16.81579
16.72901
16.67073
16.63629
16.6203
16.6183
16.62755
16.64663
16.67567
16.71846
16.78585
16.88347
17.01631
17.19181
17.41786
17.70065
18.0438
18.44864
18.91449
19.43964
20.0215
20.6565
21.34269
22.071
22.81097
23.5177
24.16264
24.73462
25.23084
25.65461
26.01427
26.32222
26.59135
26.82894
27.03029
27.17694
27.24047
27.18935
26.99538
26.63907
26.11341
25.42601
24.5991
23.66679
22.6702
21.65333
20.64986
19.67612
18.7483
17.88241
17.08665
16.36421
15.71493
15.13637
14.62462
14.17488
13.7822
13.44201
13.15039
12.90385
12.69957
12.53548
12.41017
12.32304
12.27448
12.25773
12.26721
12.29715
12.34132
12.39329
12.44671
12.49559
12.53466
12.55954
12.56693
12.55459
12.52128
12.46678
12.39184
12.29818
12.18851
12.06765
11.93949
11.80521
11.66619
11.52398
11.38023
11.23666
11.09497
10.9569
10.82407
10.69808
10.58032
10.47216
10.37459
10.28868
10.21478
10.15364
10.10464
10.08213
10.0609
10.04498
10.0362
10.03499
10.04092
10.05307
10.07038
10.09207
10.11817
10.14988
10.18942
10.23932
10.30172
10.37808
10.46933
10.57272
10.68383
10.79963
10.91818
11.03898
11.16343
11.29462
11.43584
11.58914
11.75444
11.93024
12.11497
12.30692
12.50239
12.6954
12.88084
13.0585
13.23416
13.41806
13.61981
13.84138
14.07231
14.29222
14.4833
14.63791
14.75652
14.84303
14.90068
14.93075
14.93412
14.91305
14.87086
14.81057
14.73412
14.64222
14.53475
14.41162
14.27345
14.12211
13.96141
13.79746
13.63784
13.49328
13.3781
13.30463
13.27393
13.27707
13.32074
13.43971
13.68193
14.09653
14.72475
15.58874
16.68788
18.39464
20.31359
22.24877
24.07966
25.73023
27.11866
28.15236
28.78374
29.01515
28.85599
28.30278
27.3785
26.15563
24.74344
23.25323
21.77194
20.35655
19.03749
17.82573
16.71977
15.71189
14.79544
13.9661
13.21963
12.55186
11.95918
11.43654
10.97891
10.5817
10.24038
9.950457
9.707497
9.507066
9.344618
9.215437
9.114899
9.037778
8.978542
8.932413
8.895237
8.863532
8.834529
8.806143
8.776902
8.745858
8.71247
8.676466
8.63795
8.59737
8.555352
8.512608
8.469945
8.428021
8.387922
8.350625
8.316684
8.286506
8.260348
8.237001
8.215876
8.196699
8.179194
8.163094
8.148132
8.134022
8.120449
8.107064
8.093497
8.079367
8.0643
8.047946
8.029997
8.010193
7.988328
7.964248
7.937845
7.909055
7.877853
7.844253
7.808303
7.770075
7.72965
7.687099
7.642477
7.595826
7.547181
7.496584
7.444086
7.389752
7.333667
7.275935
7.216676
7.156034
7.094174
7.031286
6.967579
6.903287
6.838659
6.773959
6.709458
6.645428
6.582137
6.519851
6.458835
6.399354
6.341652
6.285923
6.232253
6.180539
6.130542
6.082088
6.035113
5.989624
5.945619
5.90293
5.861371
5.820948
5.781847
5.744332
5.708614
5.674766
5.64279
5.612677
5.58442
5.558002
5.533405
5.510594
5.48953
5.470138
5.452337
5.43595
5.420805
5.406513
5.39277
5.378914
5.364792
5.349978
5.3358
5.324124
335.4008
243.8189
344.4876
155.0034
120.8131
87.88199
75.9497
65.93169
57.77702
53.80684
52.16719
51.28679
50.52625
49.94986
49.38047
48.87885
48.47597
48.22165
48.04959
47.89824
47.77136
47.71153
47.92757
48.35039
48.82905
49.3689
49.9725
50.61297
51.29062
51.95577
52.44963
51.36451
51.84942
52.21003
52.47838
52.64631
52.71458
52.68716
52.5706
52.37497
52.11509
51.78716
51.3958
50.95375
50.4713
49.95597
49.40937
48.83396
48.24225
47.64151
47.04022
46.44188
45.84407
45.2474
44.65367
44.06493
43.48338
42.91018
42.34518
41.78959
41.2472
40.72134
40.21264
39.7192
39.2398
38.77522
38.32864
37.89143
37.51377
37.13341
36.74903
36.3622
35.97726
35.59811
35.22617
34.86106
34.5023
34.15042
33.80663
33.4701
33.13647
32.79838
32.45091
32.09265
31.72303
31.34211
30.94774
30.53831
30.11429
29.67704
29.228
28.76849
28.30046
27.8292
27.35945
26.89542
26.44064
25.99797
25.56992
25.15891
24.76673
24.39409
24.04128
23.70888
23.39852
23.11238
22.8564
22.6332
22.44351
22.28592
22.1576
22.05508
21.97388
21.90843
21.85429
21.80921
21.77038
21.73106
21.68019
21.60538
21.49687
21.35152
21.17394
20.97388
20.76245
20.55082
20.35567
20.19258
20.064
19.97205
19.91677
19.89576
19.9052
19.93879
19.98735
20.03892
20.07965
20.09414
20.06736
19.98681
19.8443
19.63718
19.36882
19.0481
18.68824
18.3055
17.91811
17.54624
17.20702
16.90802
16.65725
16.45913
16.31417
16.22002
16.17032
16.1583
16.17836
16.22389
16.28692
16.35905
16.43424
16.50917
16.58091
16.64634
16.70476
16.76201
16.82264
16.88721
16.96052
17.04972
17.16117
17.29944
17.46737
17.66674
17.89796
18.16065
18.45435
18.77801
19.12843
19.49635
19.86619
20.22164
20.54937
20.8398
21.08798
21.29437
21.46483
21.60886
21.73609
21.85199
21.9547
22.03405
22.07309
22.05104
21.94667
21.74186
21.42501
20.99383
20.45636
19.83013
19.13941
18.41176
17.67655
16.9548
16.25559
15.5908
14.97024
14.39949
13.88092
13.41438
12.99783
12.6281
12.30179
12.01548
11.76584
11.54976
11.36458
11.20815
11.07891
10.97606
10.89855
10.84317
10.80638
10.78431
10.77289
10.76796
10.76548
10.76174
10.75345
10.73789
10.713
10.67736
10.63029
10.57183
10.50277
10.42468
10.34107
10.25349
10.1627
10.0696
9.975239
9.880711
9.787194
9.695905
9.608076
9.524917
9.4476
9.377216
9.31479
9.261171
9.217095
9.183035
9.159424
9.146317
9.144242
9.151855
9.16756
9.189268
9.214812
9.242248
9.269879
9.296082
9.31984
9.341355
9.362673
9.387366
9.419357
9.461658
9.515882
9.582423
9.660403
9.746407
9.837575
9.932114
10.02876
10.12733
10.22915
10.33595
10.4492
10.57015
10.6998
10.83779
10.98192
11.12757
11.26764
11.39643
11.51282
11.62118
11.72987
11.84799
11.97904
12.11725
12.25088
12.36883
12.46506
12.53837
12.59001
12.62091
12.6305
12.6182
12.58543
12.53546
12.47183
12.39711
12.31267
12.21884
12.1155
12.00242
11.87997
11.74953
11.61395
11.47677
11.34288
11.21803
11.10831
11.01573
10.94239
10.89406
10.88702
10.93974
11.07735
11.31857
11.69299
12.22081
12.93899
13.86169
14.95831
16.16704
17.42434
18.67473
19.85292
20.91535
21.82495
22.55655
23.08391
23.37726
23.41771
23.20651
22.75896
22.10902
21.30387
20.3965
19.43617
18.46141
17.49887
16.56599
15.67441
14.83175
14.04212
13.30637
12.62679
12.00569
11.4437
10.93974
10.49228
10.09932
9.758041
9.46494
9.216085
9.007101
8.833139
8.689197
8.5703
8.471679
8.388987
8.318433
8.25682
8.201544
8.150571
8.102393
8.055977
8.010748
7.966528
7.923404
7.881635
7.841603
7.8038
7.768829
7.737025
7.708594
7.683939
7.663555
7.647532
7.634782
7.624575
7.616315
7.609452
7.603456
7.597805
7.591984
7.585487
7.577821
7.568524
7.557167
7.543378
7.526847
7.507338
7.484689
7.458802
7.429643
7.397229
7.36163
7.322965
7.2814
7.237134
7.190371
7.141294
7.090058
7.036792
6.981612
6.92463
6.865963
6.805734
6.744073
6.681118
6.617009
6.551899
6.485952
6.419349
6.352289
6.284987
6.21767
6.150574
6.083939
6.018006
5.953006
5.88916
5.826681
5.765764
5.706575
5.649222
5.593722
5.539997
5.487915
5.437379
5.388352
5.340844
5.294846
5.250215
5.206745
5.164374
5.123221
5.083475
5.045271
5.008628
4.973505
4.939863
4.907667
4.876885
4.847486
4.819438
4.792707
4.767248
4.743012
4.719916
4.697864
4.676696
4.656273
4.636375
4.616959
4.597907
4.579705
4.563492
307.8795
207.023
156.2603
137.9805
111.5563
92.33692
78.76104
73.23667
67.22577
63.65384
60.60423
56.68
52.83343
49.25398
46.03546
42.55775
37.14493
35.90917
34.99872
34.50005
34.36798
34.4896
34.73056
35.03828
35.41182
35.87606
36.40468
36.9832
37.60866
38.28181
39.00428
39.77909
40.61032
41.50095
42.44718
43.43744
44.46848
45.52679
46.58556
47.70135
48.75843
49.64585
50.18327
50.5609
50.83488
50.98737
51.01844
50.94521
50.78102
50.54371
50.24393
49.89786
49.51053
49.08337
48.61796
48.11568
47.58312
47.03321
46.46853
45.90166
45.3382
44.77777
44.22144
43.67059
43.12714
42.59237
42.06728
41.55276
41.04736
40.54777
40.05425
39.57252
39.10831
38.66212
38.22962
37.80791
37.3977
37.00337
36.62289
36.25078
35.87626
35.49249
35.10136
34.71062
34.32665
33.95094
33.58174
33.21805
32.86114
32.51301
32.17316
31.83697
31.49961
31.15588
30.80193
30.43657
30.05913
29.66815
29.26197
28.84032
28.40525
27.96072
27.51257
27.06674
26.62529
26.1913
25.76852
25.36002
24.96824
24.59563
24.24469
23.91716
23.61364
23.3347
23.08207
22.85917
22.67101
22.52303
22.41799
22.35531
22.33193
22.34267
22.381
22.43891
22.50845
22.58657
22.6741
22.76707
22.84942
22.8956
22.87929
22.78137
22.59739
22.33919
22.02611
21.67601
21.30772
20.95284
20.62477
20.32696
20.06323
19.83662
19.64787
19.4955
19.37578
19.28269
19.20796
19.14113
19.07086
18.98553
18.87459
18.72998
18.54744
18.32726
18.07437
17.79758
17.50858
17.22087
16.94953
16.71143
16.51882
16.37924
16.29793
16.27695
16.31511
16.40914
16.55369
16.73981
16.95382
17.17831
17.39759
17.60385
17.79504
17.96693
18.11239
18.22712
18.31351
18.36617
18.3779
18.35309
18.30635
18.2516
18.19698
18.14867
18.11284
18.0945
18.09679
18.12243
18.17271
18.24756
18.34481
18.45856
18.57936
18.69689
18.80198
18.88798
18.95186
18.99491
19.02217
19.04072
19.05711
19.07475
19.0919
19.10103
19.08942
19.04095
18.93862
18.76735
18.51675
18.18315
17.77057
17.29023
16.75885
16.19621
15.62264
15.05799
14.51277
13.99422
13.51004
13.06475
12.66015
12.29582
11.96976
11.67938
11.42181
11.19389
10.99261
10.81538
10.66008
10.52512
10.40952
10.31285
10.23325
10.16842
10.11593
10.07314
10.03738
10.00596
9.976317
9.946141
9.913422
9.876541
9.834325
9.786098
9.731724
9.671683
9.60729
9.54069
9.472432
9.403147
9.33358
9.264582
9.197082
9.13206
9.070519
9.013459
8.96185
8.916621
8.878642
8.848699
8.827416
8.815297
8.812727
8.820129
8.837713
8.865471
8.902348
8.946043
8.993465
9.041571
9.087915
9.130535
9.167667
9.197912
9.221786
9.242696
9.266346
9.29858
9.343187
9.40149
9.473161
9.555539
9.643754
9.734574
9.826303
9.916858
10.00535
10.09317
10.18121
10.26955
10.36078
10.45863
10.56446
10.67623
10.78813
10.89112
10.97714
11.04433
11.09749
11.14625
11.2028
11.27434
11.35638
11.43723
11.50697
11.5604
11.59568
11.6131
11.61338
11.59578
11.55946
11.50576
11.43822
11.36062
11.27574
11.18518
11.0894
10.98795
10.88003
10.76512
10.64354
10.51655
10.38619
10.25508
10.12636
10.00364
9.889834
9.787844
9.70153
9.637902
9.606047
9.617775
9.685615
9.824919
10.0508
10.3787
10.8228
11.38993
12.07277
12.85252
13.70325
14.59081
15.47621
16.32295
17.10235
17.79652
18.38681
18.85601
19.19066
19.3792
19.41431
19.29846
19.04616
18.67746
18.21597
17.6847
17.1039
16.49031
15.85649
15.21123
14.56157
13.91485
13.28023
12.66734
12.08418
11.53667
11.02991
10.56751
10.1509
9.780161
9.454435
9.171569
8.928345
8.720817
8.544646
8.39541
8.268874
8.161121
8.068637
7.988381
7.917842
7.855037
7.798498
7.747201
7.700473
7.657909
7.619304
7.58461
7.553851
7.527015
7.504123
7.485269
7.470509
7.459808
7.452592
7.447958
7.445119
7.443364
7.442038
7.440524
7.438233
7.43461
7.429131
7.421311
7.410714
7.396964
7.379757
7.358872
7.334172
7.305592
7.273127
7.236832
7.196811
7.153231
7.106318
7.056346
7.0036
6.948337
6.890781
6.831122
6.769536
6.706194
6.641272
6.574945
6.507389
6.438771
6.369253
6.298994
6.228158
6.156917
6.085459
6.013982
5.942692
5.871803
5.801533
5.732101
5.663713
5.596561
5.530821
5.46665
5.40417
5.343448
5.284483
5.227222
5.171594
5.11754
5.065034
5.014077
4.964656
4.916665
4.869931
4.824347
4.779963
4.736942
4.695416
4.655404
4.616845
4.579671
4.54382
4.50924
4.475885
4.443714
4.412689
4.382775
4.353935
4.326126
4.2993
4.273387
4.24833
4.224044
4.200551
4.177766
4.156074
4.136651
153.7129
114.2484
176.5507
87.39217
74.9419
64.16106
60.80405
58.34021
55.62366
54.40064
52.868
50.74189
48.7471
46.65209
44.24564
39.68608
38.55011
37.49429
36.49638
35.55734
34.63594
33.7704
33.0086
32.37397
31.883
31.53503
31.25751
30.99235
30.88898
30.97385
31.23526
31.63027
32.10652
32.64751
33.25796
33.9142
34.61306
35.35475
36.14
36.97192
37.85326
38.78511
39.77062
40.82523
41.94402
43.08452
44.26052
45.40645
46.38194
47.22168
47.89844
48.4204
48.72024
48.85221
48.83072
48.67227
48.40599
48.06683
47.68005
47.26891
46.84395
46.41482
45.98009
45.54509
45.11785
44.71001
44.32281
43.96076
43.62067
43.29141
42.96735
42.64193
42.3102
41.97243
41.62993
41.28327
40.93429
40.58517
40.23279
39.87091
39.50075
39.13384
38.78033
38.43849
38.09897
37.75769
37.41914
37.08919
36.7648
36.43016
36.06847
35.67631
35.26439
34.84764
34.43533
34.02854
33.6241
33.22114
32.82323
32.43873
32.06972
31.71097
31.3525
30.98545
30.6062
30.21567
29.81546
29.4051
28.98297
28.54875
28.10472
27.65484
27.20378
26.75693
26.32082
25.90219
25.5062
25.13509
24.79062
24.47508
24.19091
23.93945
23.72095
23.5366
23.39
23.28759
23.23738
23.24458
23.30835
23.42456
23.5873
23.78714
24.01258
24.252
24.49732
24.75229
25.02577
25.30711
25.55643
25.72282
25.76404
25.6532
25.39041
25.00522
24.53404
23.99949
23.42308
22.85172
22.30511
21.78741
21.30393
20.8615
20.46415
20.11266
19.80571
19.54013
19.3106
19.10968
18.92836
18.75707
18.58674
18.40981
18.22133
18.01983
17.80764
17.59052
17.37694
17.1774
17.00438
16.87389
16.80507
16.80958
16.89614
17.06674
17.31773
17.64539
18.04239
18.48905
18.95394
19.40254
19.81092
20.17823
20.51377
20.81255
21.06035
21.25122
21.38132
21.42096
21.35078
21.18122
20.94787
20.68045
20.391
20.08756
19.78243
19.48859
19.21612
18.97119
18.7577
18.57768
18.43067
18.31348
18.21974
18.14144
18.07081
18.00137
17.92874
17.85149
17.77122
17.69175
17.61778
17.55305
17.49854
17.45126
17.40381
17.34488
17.26065
17.13677
16.96076
16.7243
16.42477
16.06582
15.65687
15.21153
14.74564
14.27529
13.81549
13.37687
12.96502
12.58484
12.23851
11.92605
11.64595
11.39574
11.17241
10.97285
10.79422
10.6341
10.49067
10.36271
10.2496
10.15041
10.0637
9.987935
9.92155
9.862894
9.810257
9.761912
9.716178
9.671492
9.626472
9.579983
9.531189
9.479623
9.425253
9.368598
9.310914
9.252974
9.195118
9.137871
9.081911
9.028033
8.977107
8.930033
8.887703
8.850978
8.820692
8.797618
8.782485
8.775901
8.778282
8.789968
8.811371
8.843174
8.886024
8.939938
9.003343
9.072867
9.144197
9.213377
9.277758
9.335647
9.385064
9.424339
9.45465
9.481726
9.514476
9.56122
9.626037
9.708385
9.805589
9.910304
10.01485
10.11643
10.21485
10.3082
10.39543
10.47911
10.55807
10.62815
10.69112
10.75434
10.82375
10.90088
10.9801
11.04813
11.09218
11.10949
11.10679
11.09634
11.0959
11.11747
11.15467
11.19283
11.22218
11.23798
11.23713
11.21884
11.18431
11.13405
11.0682
10.98878
10.89949
10.80395
10.7048
10.6036
10.50085
10.39586
10.28731
10.17407
10.0558
9.93302
9.806894
9.678953
9.551179
9.426015
9.305931
9.193193
9.090311
9.00078
8.92937
8.882267
8.866894
8.891857
8.966569
9.100979
9.305097
9.587514
9.952536
10.39861
10.91858
11.49915
12.12009
12.75801
13.39158
14.00185
14.57097
15.08276
15.52283
15.883
16.1563
16.33816
16.42772
16.4275
16.34372
16.18625
15.96769
15.70153
15.39813
15.06403
14.70166
14.31107
13.89205
13.44556
12.97514
12.488
11.99508
11.50906
11.04135
10.60042
10.19243
9.821424
9.48895
9.194659
8.937174
8.714008
8.521961
8.35749
8.217003
8.097047
7.994477
7.906556
7.830987
7.765901
7.709805
7.661526
7.620154
7.584991
7.555481
7.53115
7.511591
7.496445
7.485352
7.477948
7.473833
7.472078
7.471731
7.471963
7.472042
7.47131
7.469169
7.465081
7.458556
7.449155
7.436495
7.420247
7.400152
7.376034
7.347796
7.315409
7.278897
7.23833
7.193819
7.145528
7.093695
7.038623
6.980639
6.920042
6.857086
6.791989
6.724954
6.656188
6.5859
6.5143
6.441591
6.367963
6.293584
6.218612
6.143205
6.067525
5.991748
5.916058
5.840642
5.765692
5.691409
5.618
5.545657
5.474551
5.404837
5.336649
5.270087
5.205206
5.142011
5.080478
5.020575
4.962283
4.905591
4.850495
4.796967
4.744916
4.694205
4.644738
4.596548
4.549781
4.504557
4.460887
4.418705
4.377928
4.338478
4.300287
4.263292
4.22744
4.192683
4.158983
4.12631
4.094637
4.063945
4.034204
4.005398
3.977494
3.95053
3.924447
3.899626
3.87749
60.7541
45.45813
45.68894
43.80492
42.99942
41.85439
40.8906
40.00206
39.2049
37.97903
35.14334
34.83438
34.5248
34.22102
33.8934
33.53429
33.18279
32.8697
32.60703
32.38386
32.07654
31.56741
31.07732
30.61564
30.18686
29.79501
29.45793
29.18921
28.99156
28.86615
28.8067
28.80538
28.8772
29.04621
29.32479
29.7101
30.18009
30.71913
31.33051
31.99459
32.7071
33.47092
34.28683
35.15127
36.07141
37.05813
38.10839
39.20908
40.39466
41.65024
42.77828
43.79394
44.65797
45.32054
45.77966
46.02455
46.06608
45.91389
45.60524
45.17822
44.67425
44.13851
43.61172
43.12534
42.69887
42.34616
42.06617
41.87393
41.76441
41.72803
41.75978
41.84838
41.9676
42.0926
42.20578
42.29404
42.34379
42.34825
42.31097
42.2368
42.13075
42.00069
41.85215
41.67817
41.47025
41.23772
41.00661
40.78724
40.56672
40.32808
40.06898
39.80061
39.5277
39.23158
38.87531
38.443
37.95137
37.4336
36.91511
36.40272
35.89074
35.37343
34.85587
34.35351
33.86579
33.39478
32.93754
32.48463
32.02662
31.5606
31.08986
30.61843
30.14724
29.67489
29.20078
28.72678
28.25674
27.79488
27.34591
26.91528
26.50903
26.13705
25.80874
25.52457
25.28564
25.09205
24.94192
24.83379
24.77
24.758
24.81094
24.94216
25.15228
25.43113
25.77375
26.17468
26.61414
27.06778
27.52066
27.97103
28.43706
28.93524
29.42658
29.82883
30.07342
30.11673
29.93649
29.54367
28.99464
28.34592
27.61309
26.79645
25.95266
25.13096
24.33942
23.58793
22.88718
22.24182
21.65302
21.12083
20.64493
20.22349
19.85256
19.52641
19.23811
18.98048
18.74682
18.53182
18.33267
18.14973
17.98652
17.84947
17.74748
17.69261
17.70335
17.81071
18.04148
18.40573
18.88816
19.46012
20.11412
20.83685
21.58812
22.31108
22.95604
23.50228
23.97631
24.41687
24.81557
25.14072
25.38712
25.53506
25.52561
25.32441
24.96225
24.51665
24.0336
23.51084
22.94475
22.35201
21.75858
21.18531
20.64672
20.15192
19.70582
19.30985
18.9612
18.65441
18.38262
18.13853
17.9154
17.70768
17.51183
17.32665
17.15305
16.99316
16.84935
16.72276
16.61215
16.51305
16.41756
16.31479
16.19221
16.03758
15.84102
15.59684
15.30463
14.9694
14.60066
14.21087
13.81355
13.42163
13.04622
12.69517
12.3723
12.0794
11.81615
11.58072
11.37029
11.1815
11.0111
10.85643
10.71548
10.58698
10.47048
10.36473
10.26863
10.18115
10.10123
10.02786
9.960071
9.896864
9.837214
9.7801
9.724556
9.669728
9.614928
9.559692
9.503848
9.447609
9.391751
9.336998
9.283449
9.231397
9.181339
9.133942
9.089991
9.050311
9.015696
8.986885
8.96459
8.949588
8.942702
8.944639
8.955802
8.976342
9.00647
9.046831
9.09878
9.163942
9.242499
9.331795
9.42666
9.521033
9.60983
9.690292
9.761448
9.821823
9.870032
9.909088
9.948665
10.00182
10.07847
10.18039
10.30265
10.43713
10.57419
10.70406
10.82476
10.93731
11.04151
11.13805
11.23064
11.31375
11.37253
11.40196
11.41374
11.42508
11.44974
11.48668
11.51564
11.51335
11.47483
11.41131
11.33841
11.27912
11.25081
11.24477
11.243
11.23621
11.21843
11.18335
11.12905
11.05824
10.97366
10.87698
10.77075
10.65862
10.54392
10.42907
10.3156
10.20404
10.09354
9.982222
9.86848
9.751751
9.632232
9.510429
9.387054
9.263141
9.140182
9.019977
8.904364
8.795202
8.694526
8.60481
8.529299
8.472263
8.438919
8.43518
8.467524
8.542902
8.66823
8.849266
9.089362
9.388664
9.743377
10.1453
10.58263
11.04119
11.50544
11.96004
12.3927
12.79395
13.15572
13.47134
13.73486
13.94074
14.08796
14.17711
14.21033
14.19282
14.13232
14.03719
13.91521
13.77206
13.61071
13.43156
13.23104
13.00253
12.73947
12.43823
12.09989
11.73067
11.3413
10.94505
10.55525
10.18305
9.836024
9.518648
9.233271
8.980248
8.758402
8.56572
8.399751
8.257705
8.136751
8.03421
7.947662
7.87498
7.814329
7.764137
7.723058
7.689928
7.663711
7.643473
7.62836
7.617575
7.610352
7.606017
7.603689
7.602275
7.600843
7.598604
7.594892
7.589142
7.580876
7.569692
7.555251
7.537269
7.515517
7.489834
7.46013
7.426378
7.388605
7.346876
7.30128
7.25193
7.198969
7.142607
7.083122
7.020844
6.956096
6.889135
6.820167
6.74938
6.676971
6.603137
6.528082
6.452003
6.375076
6.297454
6.21927
6.14066
6.061771
5.982765
5.903815
5.825092
5.746764
5.669019
5.592064
5.516086
5.441248
5.367694
5.29555
5.224914
5.155846
5.088374
5.022505
4.958245
4.895605
4.834593
4.775208
4.717423
4.661168
4.606346
4.552897
4.500859
4.450346
4.40144
4.354143
4.308395
4.264113
4.221213
4.179615
4.139241
4.100024
4.061903
4.024832
3.988782
3.953735
3.919694
3.886665
3.854639
3.823598
3.793584
3.764554
3.736918
3.712376
84.68583
35.83858
30.8623
29.80017
29.16691
28.83728
28.76067
28.81894
28.97736
29.20729
29.37053
29.32864
29.27592
29.20296
29.1142
29.007
28.89233
28.77403
28.64417
28.48695
28.28455
28.05046
27.83179
27.63608
27.46839
27.33201
27.23459
27.18029
27.16641
27.19219
27.25708
27.3655
27.5258
27.74604
28.03591
28.39819
28.84225
29.3836
30.00279
30.69334
31.45631
32.29668
33.21781
34.18737
35.21896
36.3546
37.56782
38.77492
39.95392
41.04396
41.96962
42.69263
43.18451
43.42856
43.42976
43.20186
42.78103
42.21489
41.5436
40.83496
40.15657
39.56951
39.12547
38.86046
38.79901
38.95807
39.31219
39.83328
40.48775
41.24025
42.06273
42.91866
43.7621
44.55299
45.26599
45.88316
46.38881
46.77982
47.07156
47.28331
47.43496
47.54827
47.62426
47.63187
47.55541
47.43846
47.34039
47.25669
47.14127
46.96348
46.73897
46.49786
46.22901
45.87044
45.34227
44.65294
43.87929
43.09782
42.34298
41.6054
40.8644
40.11887
39.39147