/*--------------------------------*- C++ -*----------------------------------*\
| =========                 |                                                 |
| \\      /  F ield         | foam-extend: Open Source CFD                    |
|  \\    /   O peration     | Version:     3.1                                |
|   \\  /    A nd           | Web:         http://www.extend-project.de       |
|    \\/     M anipulation  |                                                 |
\*---------------------------------------------------------------------------*/
FoamFile
{
    version     2.0;
    format      ascii;
    class       regIOobject;
    location    "26/uniform";
    object      profilingInfo;
}
// * * * * * * * * * * * * * * * * * * * * * * * * * * * * * * * * * * * * * //

profilingInfo
(

    {
        id              10;
        parentId        8;
        description     "Foam::Time::writeObject - outputTime";
        calls           13;
        totalTime       0.681996;
        childTime       0;
        onStack         1;
    }

    {
        id              8;
        parentId        1;
        description     "Foam::Time::writeObject";
        calls           42785;
        totalTime       0.798376;
        childTime       0.681996;
        onStack         1;
    }

    {
        id              1;
        description     "application::main";
        calls           1;
        totalTime       109.948;
        childTime       27.4228;
        onStack         1;
    }

    {
        id              3;
        parentId        2;
        description     "functionObjectList::read";
        calls           1;
        totalTime       6e-06;
        childTime       0;
        onStack         0;
    }

    {
        id              9;
        parentId        1;
        description     "functionObjects_.execute()";
        calls           42784;
        totalTime       0.15809;
        childTime       0;
        onStack         0;
    }

    {
        id              2;
        parentId        1;
        description     "functionObjects_.start()";
        calls           1;
        totalTime       2.5e-05;
        childTime       6e-06;
        onStack         0;
    }

    {
        id              4;
        parentId        1;
        description     "fvMatrix::solve_H";
        calls           42785;
        totalTime       12.2819;
        childTime       9.44515;
        onStack         0;
    }

    {
        id              6;
        parentId        1;
        description     "fvMatrix::solve_HU";
        calls           42785;
        totalTime       14.1844;
        childTime       9.31319;
        onStack         0;
    }

    {
        id              5;
        parentId        4;
        description     "lduMatrix::solver_H";
        calls           42785;
        totalTime       9.44515;
        childTime       0;
        onStack         0;
    }

    {
        id              7;
        parentId        6;
        description     "lduMatrix::solver_HUx";
        calls           42785;
        totalTime       9.31319;
        childTime       0;
        onStack         0;
    }
);


// ************************************************************************* //
