/*--------------------------------*- C++ -*----------------------------------*\
| =========                 |                                                 |
| \\      /  F ield         | foam-extend: Open Source CFD                    |
|  \\    /   O peration     | Version:     3.1                                |
|   \\  /    A nd           | Web:         http://www.extend-project.de       |
|    \\/     M anipulation  |                                                 |
\*---------------------------------------------------------------------------*/
FoamFile
{
    version     2.0;
    format      ascii;
    class       volScalarField;
    location    "7";
    object      p;
}
// * * * * * * * * * * * * * * * * * * * * * * * * * * * * * * * * * * * * * //

dimensions      [1 -1 -2 0 0 0 0];

internalField   nonuniform List<scalar> 
119952
(
8597.309
8402.219
8398.51
8473.788
8547.474
8556.958
8580.833
8606.603
8633.271
8659.77
8686.232
8712.606
8738.897
8765.162
8791.153
8816.578
8841.243
8864.543
8884.908
8896.475
8972.642
8965.645
8978.17
9067.356
9078.269
9106.594
9128.252
9160.928
9224.729
9967.433
5819.672
5814.913
5846.581
5877.922
5910.273
5945.396
5982.033
6022.691
6067.248
6092.95
6122.994
6179.187
6230.153
6285.641
6345.494
6409.994
6478.46
6550.899
6627.315
6717.392
6782.168
6851.486
6934.532
7017.92
7100.298
7183.026
7264.144
7343.756
7419.512
7487.728
7561.076
7631.132
7696.93
7760.968
7823.418
7884.36
7945.48
8015.071
8098.271
8116.092
8151.338
8205.642
8249.375
8281.766
8308.731
8336.74
8364.658
8392.229
8419.62
8446.82
8473.807
8500.539
8526.889
8552.66
8577.68
8601.817
8625.208
8648.792
8676.321
8702.274
8725.645
8763.061
8803.683
8826.969
8848.127
8866.584
8870.75
8844.056
8852.479
8872.364
8888.275
8903.736
8918.163
8931.614
8944.322
8956.401
8967.941
8978.999
8989.617
8999.83
9009.67
9019.166
9028.34
9037.212
9045.793
9054.094
9062.121
9069.875
9077.361
9084.581
9091.539
9098.237
9104.675
9110.852
9116.766
9122.415
9127.799
9132.918
9137.775
9142.374
9146.722
9150.827
9154.701
9158.354
9161.798
9165.046
9168.108
9170.994
9173.713
9176.276
9178.69
9180.963
9183.101
9185.103
9186.963
9188.712
9190.719
9193.235
9195.645
9197.111
9198.539
9200.01
9201.428
9202.805
9204.156
9205.477
9206.767
9208.026
9209.259
9210.464
9211.647
9212.798
9213.925
9215.028
9216.107
9217.163
9218.195
9219.204
9220.19
9221.154
9222.096
9223.016
9223.916
9224.795
9225.656
9226.49
9227.317
9228.144
9228.955
9229.743
9230.511
9231.266
9232.012
9232.75
9233.483
9234.211
9234.936
9235.657
9236.375
9237.087
9237.792
9238.485
9239.155
9239.777
9240.299
9240.687
9241.402
9274.667
9275.987
9276.675
9277.489
9278.342
9279.142
9279.926
9280.706
9281.48
9282.242
9282.994
9283.73
9284.454
9285.16
9285.847
9286.512
9287.152
9287.765
9288.348
9288.897
9289.409
9289.879
9290.301
9290.671
9290.98
9291.216
9291.367
9291.392
9291.289
9291.084
9290.62
9290.002
9288.747
9286.641
9282.859
9277.832
9285.389
9290.372
9294.393
9297.765
9300.798
9303.587
9306.197
9308.682
9311.074
9313.392
9315.653
9317.867
9320.044
9322.192
9324.318
9326.427
9328.525
9330.615
9332.703
9334.791
9336.884
9338.984
9341.095
9343.22
9345.362
9347.523
9349.707
9351.916
9354.154
9356.427
9358.756
9361.16
9363.497
9365.744
9351.475
9347.664
9341.733
9344.487
9347.05
9348.793
9350.919
9353.335
9355.778
9358.232
9360.725
9363.291
9365.893
9368.52
9371.175
9373.851
9376.543
9379.247
9381.96
9384.681
9387.406
9390.135
9392.866
9395.597
9398.328
9401.056
9403.782
9406.503
9409.219
9411.93
9414.636
9417.334
9420.027
9422.713
9425.393
9428.069
9430.742
9433.415
9436.093
9438.782
9441.494
9444.246
9447.069
9450.004
9452.996
9455.631
9457.421
9458.769
9460.301
9462.008
9463.768
9465.58
9467.272
9467.812
9464.097
9469.291
9471.995
9473.297
9474.846
9476.367
9477.777
9479.161
9480.534
9481.893
9483.229
9484.539
9485.815
9487.055
9488.258
9489.422
9490.544
9491.622
9492.655
9493.64
9494.578
9495.467
9496.307
9497.099
9497.842
9498.535
9499.18
9499.776
9500.323
9500.821
9501.27
9501.671
9502.023
9502.326
9502.581
9502.786
9502.942
9503.048
9503.104
9503.11
9503.065
9502.968
9502.82
9502.618
9502.363
9502.054
9501.69
9501.269
9500.792
9500.256
9499.66
9499.003
9498.284
9497.502
9496.654
9495.739
9494.755
9493.699
9492.57
9491.365
9490.08
9488.712
9487.257
9485.709
9484.064
9482.314
9480.45
9478.464
9476.343
9474.073
9471.635
9469.008
9466.165
9463.067
9459.661
9455.87
9451.621
9446.793
9441.165
9434.433
9426.097
9415.735
9405.852
9411.753
9460.846
8344.907
8309.788
8252.583
8179.477
8093.004
7995.145
7887.778
7772.32
7648.994
7493.792
7363.034
7226.912
7089.536
6953.243
6818.21
6685.494
6555.893
6429.2
6258.022
6156.812
6048.175
5947.002
5857.155
5776.823
5706.531
5646.265
5595.459
5555.567
5525.986
5493.179
5477.877
5470.01
5467.719
5471.872
5480.864
5494.649
5513.422
5540.792
5550.328
5574.096
5603.64
5634.158
5666.179
5700.516
5736.994
5775.961
5816.21
5858.931
5908.692
5961.2
6016.577
6076.363
6140.641
6209.272
6281.662
6358.924
6401.1
6486.113
6563.745
6642.759
6723.906
6807.571
6891.329
6973.111
7052.478
7129.728
7204.064
7274.781
7342.988
7409.494
7474.558
7538.022
7600.178
7661.206
7720.73
7775.961
7821.534
7861.637
7902.565
7942.066
7977.32
8008.56
8037.755
8066.261
8094.472
8122.373
8149.906
8177.07
8203.861
8230.226
8256.093
8281.446
8306.382
8331.187
8356.316
8382.167
8408.827
8436.27
8464.901
8493.067
8516.977
8535.316
8548.02
8553.97
8555.899
8563.232
8575.627
8589.85
8604.118
8617.631
8630.349
8642.459
8654.091
8665.295
8676.084
8686.472
8696.487
8706.162
8715.523
8724.591
8733.38
8741.9
8750.157
8758.153
8765.889
8773.365
8780.58
8787.533
8794.223
8800.65
8806.808
8812.695
8818.308
8823.646
8828.711
8833.505
8838.034
8842.305
8846.33
8850.12
8853.686
8857.042
8860.201
8863.173
8865.971
8868.605
8871.086
8873.425
8875.631
8877.718
8879.703
8881.617
8883.513
8885.434
8887.388
8889.271
8890.98
8892.533
8893.986
8895.384
8896.751
8898.09
8899.395
8900.661
8901.894
8903.1
8904.28
8905.431
8906.561
8907.662
8908.739
8909.793
8910.824
8911.831
8912.815
8913.777
8914.717
8915.634
8916.531
8917.407
8918.263
8919.1
8919.919
8920.723
8921.512
8922.287
8923.046
8923.796
8924.537
8925.269
8925.989
8926.707
8927.419
8928.127
8928.831
8929.534
8930.23
8930.928
8931.612
8932.308
8932.987
8933.722
8934.458
8935.275
8999.487
8999.758
9000.029
9000.935
9001.745
9002.532
9003.308
9004.076
9004.835
9005.588
9006.33
9007.062
9007.78
9008.482
9009.165
9009.827
9010.466
9011.077
9011.66
9012.209
9012.721
9013.192
9013.616
9013.989
9014.301
9014.543
9014.704
9014.766
9014.713
9014.518
9014.135
9013.506
9012.562
9011.296
9009.956
9009.732
9012.18
9016.004
9019.291
9022.337
9025.197
9027.881
9030.43
9032.879
9035.247
9037.549
9039.797
9042.004
9044.177
9046.323
9048.449
9050.559
9052.66
9054.754
9056.846
9058.939
9061.038
9063.144
9065.261
9067.392
9069.539
9071.707
9073.896
9076.11
9078.353
9080.631
9082.949
9085.315
9087.815
9091.501
9033.865
9037.689
9039.113
9039.568
9040.611
9042.487
9044.814
9047.259
9049.707
9052.169
9054.675
9057.233
9059.839
9062.476
9065.137
9067.817
9070.511
9073.218
9075.934
9078.658
9081.387
9084.119
9086.853
9089.588
9092.321
9095.053
9097.78
9100.504
9103.222
9105.934
9108.639
9111.338
9114.03
9116.714
9119.391
9122.063
9124.73
9127.396
9130.061
9132.732
9135.411
9138.101
9140.79
9143.442
9145.979
9148.307
9150.334
9152.107
9153.803
9155.531
9157.271
9158.983
9160.567
9161.803
9162.342
9163.074
9164.742
9166.817
9168.736
9170.353
9171.773
9173.127
9174.474
9175.813
9177.131
9178.414
9179.66
9180.869
9182.042
9183.177
9184.271
9185.323
9186.331
9187.292
9188.208
9189.076
9189.897
9190.67
9191.395
9192.071
9192.699
9193.278
9193.809
9194.291
9194.725
9195.11
9195.446
9195.733
9195.972
9196.161
9196.302
9196.392
9196.432
9196.423
9196.362
9196.25
9196.085
9195.869
9195.598
9195.274
9194.895
9194.459
9193.967
9193.417
9192.807
9192.137
9191.405
9190.609
9189.749
9188.822
9187.827
9186.761
9185.622
9184.407
9183.113
9181.737
9180.275
9178.721
9177.071
9175.317
9173.454
9171.469
9169.354
9167.093
9164.674
9162.069
9159.266
9156.217
9152.901
9149.245
9145.225
9140.74
9135.821
9130.503
9125.338
9121.255
9119.938
9121.95
9128.075
3574.577
3582.657
3610.445
3649.607
3701.394
3762.559
3835.588
3919.454
4013.861
4117.864
4216.776
4341.6
4473.982
4615.369
4766.022
4925.045
5092.413
5266.425
5443.851
5625.764
5819.861
6016.891
6217.02
6417.587
6615.989
6809.615
6996.49
7174.725
7343.986
7494.299
7628.607
7746.247
7844.338
7921.79
7977.909
8012.341
8025.255
8017.48
7984.945
7941.17
7878.229
7800.612
7710.32
7609.298
7499.305
7382.114
7259.745
7133.443
7002.915
6871.429
6737.982
6604.94
6472.884
6343.208
6218.069
6102.739
5875.152
5768.53
5673.005
5581.102
5495.881
5420.099
5354.492
5298.801
5252.684
5215.389
5186.897
5167.257
5154.922
5149.225
5150.019
5156.764
5168.783
5185.123
5204.799
5226.842
5250.894
5275.886
5303.188
5332.577
5363.801
5396.919
5432.049
5469.528
5509.962
5553.953
5601.277
5652.563
5708.424
5769.025
5834.113
5903.718
5977.936
6056.895
6139.585
6220.44
6300.68
6382.667
6466.943
6552.366
6637.102
6719.942
6800.506
6878.609
6954.035
7026.814
7097.229
7165.541
7231.725
7295.746
7357.395
7416.733
7473.085
7526.421
7574.523
7616.542
7656.394
7695.214
7731.376
7764.122
7794.505
7823.807
7852.574
7880.871
7908.677
7936.011
7962.911
7989.389
8015.443
8041.101
8066.453
8091.642
8116.874
8142.404
8168.31
8194.159
8219.844
8244.719
8266.925
8284.768
8298.386
8308.227
8316.094
8324.837
8336.12
8349.297
8362.774
8375.698
8387.949
8399.665
8410.965
8421.887
8432.435
8442.613
8452.444
8461.96
8471.186
8480.143
8488.843
8497.295
8505.505
8513.474
8521.201
8528.683
8535.916
8542.897
8549.622
8556.088
8562.287
8568.217
8573.872
8579.25
8584.353
8589.182
8593.742
8598.042
8602.089
8605.896
8609.474
8612.837
8615.997
8618.966
8621.756
8624.38
8626.849
8629.176
8631.374
8633.46
8635.453
8637.375
8639.245
8641.086
8642.918
8644.715
8646.393
8647.919
8649.35
8650.733
8652.084
8653.402
8654.683
8655.927
8657.137
8658.319
8659.472
8660.599
8661.701
8662.777
8663.829
8664.857
8665.862
8666.845
8667.804
8668.742
8669.657
8670.551
8671.424
8672.276
8673.108
8673.921
8674.715
8675.493
8676.257
8677.008
8677.738
8678.468
8679.185
8679.892
8680.596
8681.29
8681.981
8682.669
8683.355
8684.042
8684.728
8685.417
8686.11
8686.811
8687.535
8688.293
8689.161
8690.191
8691.592
8692.762
8693.498
8694.087
8694.763
8695.523
8696.302
8697.068
8697.822
8698.566
8699.3
8700.022
8700.73
8701.42
8702.092
8702.743
8703.369
8703.97
8704.542
8705.082
8705.587
8706.052
8706.474
8706.846
8707.164
8707.419
8707.602
8707.705
8707.714
8707.618
8707.407
8707.088
8706.707
8706.405
8706.462
8707.266
8709.047
8711.561
8714.289
8716.962
8719.526
8722
8724.407
8726.757
8729.053
8731.302
8733.512
8735.689
8737.84
8739.971
8742.087
8744.191
8746.287
8748.38
8750.473
8752.569
8754.671
8756.783
8758.906
8761.044
8763.198
8765.373
8767.567
8769.788
8772.03
8774.307
8776.598
8778.93
8781.251
8783.729
8785.865
8787.184
8788.739
8790.893
8793.429
8796.084
8798.735
8801.352
8803.94
8806.52
8809.112
8811.729
8814.372
8817.036
8819.716
8822.409
8825.114
8827.83
8830.554
8833.284
8836.019
8838.756
8841.496
8844.235
8846.973
8849.709
8852.441
8855.168
8857.889
8860.604
8863.312
8866.012
8868.704
8871.387
8874.062
8876.73
8879.389
8882.042
8884.69
8887.333
8889.967
8892.584
8895.167
8897.688
8900.115
8902.408
8904.521
8906.444
8908.24
8909.998
8911.746
8913.46
8915.126
8916.852
8918.847
8920.735
8922.216
8923.433
8924.598
8925.793
8927.019
8928.266
8929.529
8930.8
8932.063
8933.307
8934.524
8935.71
8936.863
8937.981
8939.06
8940.098
8941.093
8942.044
8942.949
8943.809
8944.622
8945.388
8946.107
8946.777
8947.399
8947.973
8948.498
8948.975
8949.403
8949.783
8950.114
8950.396
8950.63
8950.814
8950.948
8951.033
8951.068
8951.053
8950.987
8950.87
8950.701
8950.479
8950.204
8949.876
8949.493
8949.055
8948.56
8948.008
8947.397
8946.727
8945.996
8945.202
8944.345
8943.422
8942.432
8941.373
8940.243
8939.038
8937.757
8936.396
8934.951
8933.419
8931.793
8930.07
8928.24
8926.298
8924.232
8922.033
8919.687
8917.18
8914.49
8911.602
8908.486
8905.127
8901.503
8897.648
8893.625
8889.644
8885.998
8883.123
8881.368
8881.406
8883.537
3610.218
3566.413
3521.19
3466.703
3427.055
3368.877
3354.902
3361.11
3381.649
3372.972
3337.327
3312.064
3306.517
3316.738
3340.556
3376.609
3423.687
3481.486
3549.734
3628.389
3717.835
3817.392
3926.441
4045.839
4175.069
4314.065
4462.081
4618.25
4781.842
4951.331
5129.571
5295.488
5488.595
5686.109
5883.736
6080.843
6276.404
6468.12
6653.481
6830.389
6994.881
7143.601
7276.294
7390.799
7485.638
7559.669
7611.993
7642.499
7651.707
7640.847
7611.115
7563.266
7498.378
7418.543
7326.14
7223.305
7111.949
6993.78
6870.373
6743.046
6612.816
6480.892
6348.729
6216.716
6085.68
5957.048
5831.784
5709.781
5589.687
5481.392
5384.836
5294.454
5211.024
5136.883
5072.934
5019.033
4974.731
4939.853
4914.134
4896.531
4886.486
4883.71
4887.527
4897.074
4911.45
4929.718
4951.046
4974.786
4999.84
5025.634
5052.885
5081.77
5112.095
5143.763
5177.029
5212.592
5250.989
5292.647
5338.293
5388.549
5443.7
5503.834
5568.974
5638.907
5713.072
5790.563
5871.028
5953.443
6037.055
6121.836
6207.533
6293.413
6378.667
6462.44
6544.102
6623.42
6700.319
6774.744
6846.65
6916.086
6983.014
7047.397
7109.095
7168.089
7224.041
7276.763
7325.208
7369.068
7409.979
7448.928
7485.505
7519.365
7551.026
7581.313
7610.743
7639.498
7667.636
7695.213
7722.293
7748.92
7775.121
7800.935
7826.42
7851.663
7876.779
7901.853
7926.851
7951.527
7975.595
7998.53
8019.354
8037.166
8051.936
8064.221
8074.827
8085.135
8096.492
8108.943
8121.68
8134.072
8145.938
8157.333
8168.337
8178.984
8189.278
8199.229
8208.857
8218.187
8227.246
8236.052
8244.618
8252.952
8261.06
8268.943
8276.599
8284.027
8291.22
8298.175
8304.887
8311.349
8317.554
8323.498
8329.175
8334.582
8339.717
8344.582
8349.18
8353.517
8357.602
8361.444
8365.055
8368.446
8371.63
8374.619
8377.426
8380.064
8382.545
8384.883
8387.093
8389.189
8391.19
8393.109
8394.966
8396.775
8398.546
8400.264
8401.891
8403.412
8404.849
8406.231
8407.572
8408.875
8410.141
8411.37
8412.564
8413.729
8414.865
8415.974
8417.057
8418.115
8419.148
8420.157
8421.142
8422.105
8423.044
8423.96
8424.854
8425.726
8426.577
8427.407
8428.217
8429.009
8429.783
8430.54
8431.283
8432.01
8432.728
8433.425
8434.115
8434.797
8435.473
8436.145
8436.813
8437.479
8438.145
8438.813
8439.483
8440.161
8440.846
8441.55
8442.277
8443.057
8443.889
8444.817
8445.676
8446.47
8447.277
8448.091
8448.909
8449.723
8450.521
8451.296
8452.05
8452.79
8453.517
8454.231
8454.928
8455.609
8456.272
8456.914
8457.534
8458.129
8458.697
8459.236
8459.741
8460.212
8460.643
8461.03
8461.371
8461.659
8461.889
8462.058
8462.162
8462.202
8462.188
8462.151
8462.153
8462.304
8462.749
8463.658
8465.173
8467.249
8469.62
8472.035
8474.408
8476.74
8479.042
8481.314
8483.553
8485.759
8487.938
8490.092
8492.227
8494.346
8496.453
8498.553
8500.647
8502.739
8504.833
8506.931
8509.036
8511.15
8513.277
8515.418
8517.576
8519.752
8521.949
8524.168
8526.408
8528.673
8530.956
8533.259
8535.57
8537.812
8539.987
8542.278
8544.668
8547.011
8549.284
8551.571
8553.932
8556.367
8558.851
8561.368
8563.916
8566.498
8569.113
8571.756
8574.421
8577.105
8579.803
8582.515
8585.236
8587.966
8590.702
8593.442
8596.184
8598.926
8601.668
8604.408
8607.144
8609.875
8612.6
8615.318
8618.028
8620.73
8623.423
8626.106
8628.778
8631.44
8634.091
8636.731
8639.358
8641.97
8644.56
8647.121
8649.636
8652.092
8654.466
8656.733
8658.865
8660.854
8662.731
8664.548
8666.338
8668.106
8669.866
8671.626
8673.313
8674.774
8676.074
8677.379
8678.756
8680.168
8681.566
8682.931
8684.267
8685.579
8686.868
8688.128
8689.355
8690.547
8691.702
8692.821
8693.9
8694.937
8695.931
8696.88
8697.783
8698.64
8699.45
8700.213
8700.928
8701.595
8702.213
8702.783
8703.305
8703.778
8704.202
8704.578
8704.905
8705.182
8705.411
8705.59
8705.72
8705.801
8705.831
8705.811
8705.74
8705.618
8705.444
8705.218
8704.94
8704.607
8704.221
8703.78
8703.282
8702.728
8702.116
8701.446
8700.715
8699.923
8699.068
8698.15
8697.165
8696.113
8694.992
8693.799
8692.532
8691.187
8689.763
8688.255
8686.658
8684.969
8683.182
8681.29
8679.285
8677.161
8674.907
8672.514
8669.97
8667.267
8664.396
8661.359
8658.172
8654.884
8651.583
8648.409
8645.555
8643.197
8641.636
8641.059
8641.643
4123.619
4068.751
4014.096
3934.26
3862.497
3755.527
3683.057
3611.608
3541.223
3472.497
3406.094
3345.45
3287.52
3234.055
3187.665
3147.334
3048.637
3027.748
3015.961
3006.73
2993.254
2980.361
2974.47
2978.973
2994.77
3021.794
3059.81
3108.57
3167.945
3236.955
3315.748
3405.194
3505.468
3616.007
3736.57
3866.834
4006.416
4154.852
4311.785
4476.374
4648.165
4827.78
5005.775
5194.08
5387.314
5582.543
5777.558
5970.795
6160.607
6344.794
6520.966
6685.09
6834.772
6967.901
7082.585
7177.226
7250.751
7302.455
7332.291
7340.729
7328.701
7297.607
7248.931
7184.032
7104.61
7012.834
6910.771
6800.383
6683.334
6560.925
6434.63
6305.765
6175.196
6043.174
5910.498
5779.219
5650.705
5525.336
5404.316
5289.063
5182.702
5085.642
4996.338
4914.889
4842.581
4780.279
4728.127
4685.928
4653.458
4630.263
4615.691
4609.236
4610.273
4617.918
4631.141
4648.904
4670.294
4694.39
4720.287
4747.096
4774.327
4802.026
4830.305
4859.161
4888.642
4919.168
4951.609
4986.718
5025.243
5068.107
5115.961
5169.124
5227.815
5292.032
5361.432
5435.482
5513.411
5594.902
5679.208
5765.24
5852.247
5939.741
6027.21
6114.022
6199.476
6282.981
6364.201
6442.971
6519.147
6592.677
6663.591
6731.743
6797.024
6859.374
6918.741
6974.918
7027.71
7076.753
7121.986
7164.05
7203.61
7240.82
7275.668
7308.441
7339.659
7369.765
7399.002
7427.496
7455.335
7482.598
7509.348
7535.63
7561.486
7586.962
7612.109
7636.975
7661.564
7685.812
7709.53
7732.43
7754.119
7774.087
7791.876
7807.401
7820.974
7833.122
7844.668
7856.413
7868.576
7880.85
7892.859
7904.429
7915.561
7926.302
7936.687
7946.73
7956.445
7965.852
7974.977
7983.842
7992.467
8000.865
8009.046
8017.014
8024.772
8032.319
8039.651
8046.765
8053.653
8060.311
8066.731
8072.906
8078.83
8084.497
8089.903
8095.046
8099.925
8104.544
8108.908
8113.022
8116.896
8120.539
8123.962
8127.178
8130.197
8133.032
8135.696
8138.202
8140.564
8142.796
8144.912
8146.926
8148.854
8150.709
8152.503
8154.238
8155.912
8157.511
8159.028
8160.469
8161.851
8163.184
8164.476
8165.73
8166.948
8168.131
8169.283
8170.405
8171.5
8172.568
8173.61
8174.627
8175.619
8176.587
8177.532
8178.453
8179.351
8180.225
8181.078
8181.908
8182.718
8183.506
8184.275
8185.025
8185.757
8186.472
8187.172
8187.861
8188.538
8189.204
8189.859
8190.51
8191.157
8191.801
8192.445
8193.09
8193.738
8194.391
8195.054
8195.729
8196.423
8197.142
8197.895
8198.677
8199.489
8200.288
8201.113
8201.953
8202.771
8203.56
8204.334
8205.098
8205.849
8206.588
8207.315
8208.031
8208.734
8209.422
8210.095
8210.751
8211.387
8212.002
8212.594
8213.161
8213.701
8214.212
8214.691
8215.136
8215.544
8215.912
8216.24
8216.524
8216.767
8216.97
8217.143
8217.304
8217.486
8217.744
8218.151
8218.802
8219.797
8221.214
8223.031
8225.105
8227.282
8229.479
8231.678
8233.873
8236.06
8238.232
8240.386
8242.522
8244.643
8246.752
8248.85
8250.94
8253.026
8255.109
8257.193
8259.28
8261.373
8263.474
8265.585
8267.709
8269.848
8272.003
8274.177
8276.37
8278.584
8280.819
8283.074
8285.346
8287.63
8289.917
8292.192
8294.512
8296.871
8299.162
8301.382
8303.62
8305.943
8308.36
8310.843
8313.368
8315.919
8318.495
8321.098
8323.729
8326.383
8329.058
8331.75
8334.457
8337.176
8339.905
8342.642
8345.385
8348.131
8350.88
8353.63
8356.379
8359.125
8361.867
8364.604
8367.335
8370.058
8372.773
8375.478
8378.172
8380.855
8383.526
8386.183
8388.826
8391.453
8394.061
8396.646
8399.203
8401.724
8404.198
8406.612
8408.952
8411.199
8413.339
8415.37
8417.308
8419.18
8421.011
8422.81
8424.573
8426.273
8427.878
8429.394
8430.876
8432.343
8433.795
8435.22
8436.609
8437.963
8439.289
8440.591
8441.869
8443.119
8444.338
8445.523
8446.672
8447.783
8448.856
8449.886
8450.873
8451.816
8452.714
8453.565
8454.37
8455.128
8455.838
8456.5
8457.115
8457.68
8458.198
8458.666
8459.086
8459.457
8459.779
8460.053
8460.277
8460.451
8460.576
8460.652
8460.677
8460.652
8460.576
8460.449
8460.271
8460.041
8459.757
8459.421
8459.031
8458.586
8458.086
8457.53
8456.916
8456.245
8455.514
8454.724
8453.872
8452.958
8451.979
8450.935
8449.823
8448.643
8447.39
8446.065
8444.663
8443.182
8441.619
8439.969
8438.23
8436.395
8434.46
8432.42
8430.269
8428.003
8425.617
8423.111
8420.488
8417.764
8414.963
8412.141
8409.366
8406.75
8404.406
8402.489
8401.148
8400.48
8400.526
4535.749
4476.785
4413.513
4337.159
4274.64
4176.602
4115.991
4054.504
3990.953
3926.794
3862.422
3796.691
3729.573
3661.357
3589.342
3444.42
3371.962
3300.804
3230.293
3161.181
3094.337
3030.886
2971.136
2915.877
2866.367
2823.594
2787.863
2760.034
2738.83
2721.775
2707.797
2699.128
2697.842
2705.456
2722.766
2749.996
2787.22
2834.622
2892.219
2960.409
3038.786
3127.218
3225.837
3334.694
3453.619
3582.303
3720.316
3867.144
4022.28
4185.213
4355.613
4532.194
4712.256
4899.023
5089.331
5281.063
5473.206
5664.147
5851.735
6034.306
6208.8
6371.463
6519.487
6650.516
6762.765
6854.772
6925.53
6974.46
7001.637
7007.571
6993.343
6960.357
6910.259
6844.656
6765.267
6674.198
6573.23
6464.371
6349.454
6229.52
6105.67
5978.734
5849.545
5718.793
5587.33
5457.159
5329.535
5205.264
5085.748
4972.294
4866.294
4768.814
4680.046
4600.136
4529.73
4469.5
4419.749
4380.437
4351.33
4332.04
4322.034
4320.635
4326.966
4339.989
4358.552
4381.449
4407.621
4435.823
4465.086
4494.531
4523.478
4551.604
4578.882
4605.452
4631.632
4658.206
4686.361
4716.82
4750.642
4789.254
4833.508
4883.888
4940.616
5003.711
5072.747
5147.16
5226.276
5309.419
5395.693
5484.045
5573.592
5663.7
5753.764
5843.06
5930.991
6017.052
6100.825
6182.049
6260.516
6336.082
6408.724
6478.394
6545.006
6608.457
6668.69
6725.646
6779.189
6829.137
6875.539
6918.747
6959.234
6997.313
7033.12
7066.878
7098.964
7129.747
7159.487
7188.35
7216.453
7243.887
7270.726
7297.031
7322.848
7348.216
7373.162
7397.697
7421.797
7445.385
7468.305
7490.331
7511.195
7530.604
7548.306
7564.233
7578.567
7591.682
7604.075
7616.217
7628.333
7640.349
7652.079
7663.4
7674.296
7684.798
7694.936
7704.736
7714.215
7723.396
7732.303
7740.961
7749.388
7757.598
7765.603
7773.408
7781.015
7788.423
7795.63
7802.631
7809.419
7815.989
7822.332
7828.442
7834.312
7839.936
7845.309
7850.43
7855.298
7859.914
7864.283
7868.409
7872.301
7875.967
7879.417
7882.66
7885.709
7888.575
7891.271
7893.808
7896.2
7898.461
7900.603
7902.639
7904.584
7906.447
7908.237
7909.96
7911.617
7913.204
7914.718
7916.161
7917.544
7918.876
7920.165
7921.413
7922.624
7923.8
7924.943
7926.055
7927.139
7928.195
7929.224
7930.228
7931.206
7932.159
7933.088
7933.993
7934.874
7935.732
7936.566
7937.377
7938.167
7938.935
7939.682
7940.409
7941.118
7941.81
7942.487
7943.15
7943.802
7944.44
7945.074
7945.7
7946.319
7946.938
7947.557
7948.18
7948.807
7949.442
7950.086
7950.745
7951.422
7952.12
7952.842
7953.588
7954.357
7955.144
7955.946
7956.746
7957.527
7958.289
7959.041
7959.788
7960.527
7961.256
7961.973
7962.679
7963.373
7964.052
7964.717
7965.365
7965.995
7966.605
7967.194
7967.761
7968.302
7968.818
7969.306
7969.766
7970.195
7970.594
7970.962
7971.301
7971.614
7971.909
7972.199
7972.503
7972.852
7973.289
7973.87
7974.656
7975.709
7977.065
7978.711
7980.574
7982.563
7984.61
7986.687
7988.781
7990.882
7992.984
7995.08
7997.169
7999.251
8001.327
8003.398
8005.466
8007.533
8009.601
8011.672
8013.748
8015.831
8017.924
8020.029
8022.147
8024.28
8026.431
8028.6
8030.788
8032.997
8035.225
8037.473
8039.738
8042.016
8044.306
8046.611
8048.932
8051.244
8053.521
8055.794
8058.114
8060.503
8062.954
8065.451
8067.981
8070.539
8073.123
8075.734
8078.37
8081.03
8083.711
8086.409
8089.122
8091.848
8094.584
8097.328
8100.079
8102.834
8105.591
8108.349
8111.105
8113.859
8116.609
8119.354
8122.091
8124.821
8127.54
8130.25
8132.947
8135.631
8138.3
8140.954
8143.591
8146.207
8148.8
8151.365
8153.898
8156.391
8158.837
8161.224
8163.541
8165.778
8167.928
8169.988
8171.968
8173.881
8175.743
8177.558
8179.32
8181.022
8182.664
8184.259
8185.811
8187.318
8188.782
8190.208
8191.603
8192.968
8194.305
8195.615
8196.898
8198.15
8199.37
8200.554
8201.701
8202.81
8203.878
8204.904
8205.888
8206.826
8207.72
8208.568
8209.369
8210.123
8210.829
8211.488
8212.099
8212.661
8213.174
8213.639
8214.056
8214.423
8214.741
8215.01
8215.23
8215.401
8215.521
8215.592
8215.613
8215.584
8215.504
8215.373
8215.19
8214.955
8214.668
8214.328
8213.935
8213.487
8212.985
8212.426
8211.812
8211.14
8210.41
8209.621
8208.773
8207.863
8206.891
8205.855
8204.754
8203.587
8202.351
8201.046
8199.669
8198.217
8196.69
8195.083
8193.395
8191.622
8189.761
8187.81
8185.767
8183.632
8181.405
8179.093
8176.705
8174.263
8171.794
8169.349
8166.983
8164.788
8162.841
8161.265
8160.12
8159.498
8159.381
4507.648
4472.781
4445.714
4390.298
4321.943
4252.7
4183.978
4118.712
4056.909
3994.792
3861.802
3801.061
3740.668
3679.005
3615.726
3550.98
3484.773
3416.832
3347.342
3277.173
3207.831
3136.264
3064.586
2993.111
2922.701
2854.03
2787.729
2724.195
2664.507
2609.734
2561.073
2520.211
2486.769
2459.908
2439.223
2424.887
2417.839
2418.86
2428.663
2447.685
2476.133
2514
2561.469
2618.643
2685.717
2762.801
2849.92
2947.115
3054.414
3171.679
3298.631
3434.851
3579.817
3732.964
3893.682
4061.44
4235.148
4413.607
4596.319
4781.941
4969.437
5158.359
5346.832
5531.997
5711.471
5882.326
6041.301
6185.403
6312.257
6420.018
6507.325
6573.324
6617.636
6640.532
6642.66
6625.307
6589.854
6538.219
6472.013
6393.072
6303.642
6205.413
6099.744
5987.842
5871.16
5750.916
5627.276
5500.852
5372.982
5244.458
5116.412
4990.017
4866.494
4747.338
4634.055
4528.124
4430.869
4342.959
4264.71
4196.57
4139.068
4092.554
4057.108
4032.592
4018.672
4014.786
4020.098
4033.543
4053.894
4079.856
4109.788
4142.647
4176.436
4210.379
4243.334
4274.358
4302.876
4328.796
4352.383
4373.811
4394.287
4416.665
4441.197
4468.47
4501.179
4540.631
4587.353
4641.713
4703.623
4772.568
4847.856
4928.668
5014.07
5103.033
5194.492
5287.46
5381.082
5474.561
5567.155
5658.255
5747.3
5833.859
5917.664
5998.546
6076.356
6151.04
6222.627
6291.058
6356.185
6417.879
6476.084
6530.793
6581.976
6629.695
6674.201
6715.871
6755.026
6791.839
6826.53
6859.429
6890.864
6921.095
6950.312
6978.66
7006.232
7033.116
7059.385
7085.093
7110.274
7134.947
7159.108
7182.725
7205.722
7227.977
7249.326
7269.586
7288.574
7306.147
7322.27
7337.06
7350.765
7363.694
7376.142
7388.292
7400.166
7411.691
7422.804
7433.491
7443.775
7453.687
7463.256
7472.504
7481.458
7490.142
7498.582
7506.797
7514.804
7522.614
7530.234
7537.666
7544.912
7551.968
7558.83
7565.491
7571.944
7578.184
7584.201
7589.989
7595.544
7600.859
7605.933
7610.765
7615.357
7619.71
7623.83
7627.724
7631.398
7634.862
7638.125
7641.198
7644.091
7646.815
7649.383
7651.807
7654.098
7656.269
7658.331
7660.297
7662.175
7663.975
7665.7
7667.356
7668.941
7670.457
7671.907
7673.296
7674.632
7675.922
7677.17
7678.379
7679.551
7680.689
7681.794
7682.87
7683.917
7684.936
7685.928
7686.894
7687.835
7688.751
7689.642
7690.508
7691.35
7692.169
7692.963
7693.735
7694.484
7695.212
7695.92
7696.607
7697.277
7697.931
7698.57
7699.196
7699.81
7700.417
7701.016
7701.614
7702.209
7702.802
7703.4
7704.005
7704.617
7705.241
7705.878
7706.533
7707.206
7707.901
7708.617
7709.354
7710.108
7710.869
7711.628
7712.379
7713.122
7713.858
7714.59
7715.315
7716.031
7716.736
7717.43
7718.113
7718.782
7719.438
7720.077
7720.7
7721.305
7721.891
7722.456
7722.999
7723.521
7724.019
7724.493
7724.944
7725.373
7725.78
7726.17
7726.549
7726.925
7727.313
7727.731
7728.207
7728.774
7729.472
7730.344
7731.426
7732.738
7734.271
7735.987
7737.829
7739.749
7741.716
7743.714
7745.733
7747.764
7749.8
7751.839
7753.879
7755.918
7757.959
7760.001
7762.045
7764.094
7766.148
7768.21
7770.281
7772.364
7774.46
7776.57
7778.697
7780.841
7783.004
7785.187
7787.39
7789.614
7791.857
7794.118
7796.396
7798.69
7800.997
7803.31
7805.625
7807.945
7810.286
7812.662
7815.081
7817.544
7820.044
7822.579
7825.143
7827.736
7830.355
7833
7835.668
7838.356
7841.063
7843.784
7846.519
7849.264
7852.017
7854.777
7857.542
7860.309
7863.076
7865.843
7868.606
7871.365
7874.119
7876.864
7879.601
7882.327
7885.042
7887.743
7890.43
7893.1
7895.752
7898.384
7900.992
7903.574
7906.126
7908.642
7911.117
7913.544
7915.914
7918.22
7920.455
7922.613
7924.695
7926.705
7928.649
7930.536
7932.37
7934.151
7935.879
7937.558
7939.187
7940.764
7942.29
7943.773
7945.22
7946.635
7948.02
7949.374
7950.696
7951.986
7953.243
7954.465
7955.65
7956.797
7957.905
7958.971
7959.995
7960.976
7961.912
7962.803
7963.648
7964.446
7965.197
7965.901
7966.557
7967.164
7967.723
7968.234
7968.696
7969.109
7969.473
7969.788
7970.054
7970.271
7970.437
7970.555
7970.622
7970.639
7970.606
7970.523
7970.388
7970.202
7969.964
7969.673
7969.33
7968.934
7968.484
7967.979
7967.42
7966.804
7966.132
7965.404
7964.617
7963.772
7962.868
7961.902
7960.875
7959.786
7958.632
7957.414
7956.13
7954.778
7953.358
7951.868
7950.307
7948.672
7946.963
7945.179
7943.318
7941.382
7939.376
7937.302
7935.172
7932.998
7930.803
7928.616
7926.481
7924.446
7922.581
7920.945
7919.625
7918.653
7918.103
7917.964
4269.814
4215.111
4089.239
4030.531
3968.836
3907.407
3847.245
3788.501
3730.836
3673.98
3618.061
3560.398
3501.444
3440.891
3378.641
3314.403
3248.203
3179.962
3109.708
3038.324
2967.562
2895.917
2823.457
2750.542
2677.531
2605.18
2534.819
2467.429
2403.991
2345.479
2293.465
2249.148
2212.53
2183.347
2161.571
2147.397
2141.261
2143.528
2154.535
2174.477
2203.341
2241.413
2288.721
2345.368
2411.526
2487.4
2573.166
2668.924
2774.686
2890.31
3015.514
3149.868
3292.844
3443.894
3602.225
3767.132
3937.186
4111.077
4288.513
4469.506
4653.843
4839.504
5024.185
5205.198
5379.81
5545.098
5698.075
5835.833
5956.064
6056.945
6137.309
6196.513
6234.504
6251.741
6249.178
6228.3
6190.518
6138.113
6072.812
5996.191
5909.503
5814.458
5712.883
5605.384
5493.257
5377.824
5259.268
5137.629
5013.551
4887.782
4761.222
4635.122
4511.069
4390.982
4276.943
4170.815
4073.934
3986.906
3910.226
3844.413
3789.945
3747.178
3716.304
3697.336