/*--------------------------------*- C++ -*----------------------------------*\
| =========                 |                                                 |
| \\      /  F ield         | foam-extend: Open Source CFD                    |
|  \\    /   O peration     | Version:     3.1                                |
|   \\  /    A nd           | Web:         http://www.extend-project.de       |
|    \\/     M anipulation  |                                                 |
\*---------------------------------------------------------------------------*/
FoamFile
{
    version     2.0;
    format      ascii;
    class       surfaceScalarField;
    location    "11.5";
    object      phi;
}
// * * * * * * * * * * * * * * * * * * * * * * * * * * * * * * * * * * * * * //

dimensions      [0 3 -1 0 0 0 0];

internalField   nonuniform List<scalar> 
275122
(
9.635353e-05
-0.0001045088
4.441191e-07
7.711206e-06
9.85811e-05
-9.152575e-05
-6.751268e-07
-6.380226e-06
8.434449e-05
-8.103593e-05
3.95572e-07
-3.704132e-06
7.964603e-05
-7.904456e-05
2.477652e-07
-8.491106e-07
7.558759e-05
-7.211845e-05
4.266958e-07
-3.895802e-06
6.475262e-05
-6.316184e-05
2.404535e-07
-1.83124e-06
5.821414e-05
-5.67894e-05
2.312311e-07
-1.655662e-06
5.367771e-05
-5.284703e-05
1.774574e-07
-1.008123e-06
5.073541e-05
-5.026744e-05
6.394824e-08
-5.319226e-07
4.858654e-05
-4.791092e-05
-1.488627e-08
-6.604692e-07
4.547685e-05
-4.448507e-05
2.629548e-08
-1.018078e-06
4.02389e-05
-3.858834e-05
4.484655e-08
-1.695322e-06
3.275321e-05
-3.039066e-05
5.438768e-08
-2.41684e-06
2.307096e-05
-2.045616e-05
5.491773e-08
-2.669724e-06
1.161713e-05
-9.058423e-06
4.227446e-08
-2.600944e-06
2.340998e-06
-9.633862e-08
1.634971e-07
-2.408147e-06
-4.462277e-06
5.83751e-06
7.924115e-08
-1.454325e-06
-1.071705e-05
1.297188e-05
8.927249e-08
-2.343752e-06
-1.586014e-05
1.70833e-05
-2.007475e-08
-1.202889e-06
-2.012924e-05
2.315372e-05
9.542203e-08
-3.119736e-06
-2.54137e-05
2.657793e-05
-7.095581e-08
-1.093304e-06
-2.876507e-05
2.917836e-05
-1.42265e-08
-3.99043e-07
-3.147493e-05
3.237592e-05
8.033516e-08
-9.813354e-07
-3.53273e-05
3.601294e-05
-1.394607e-07
-5.461737e-07
-3.544732e-05
3.505251e-05
-2.033263e-07
5.981761e-07
-3.355209e-05
3.236054e-05
-1.741055e-07
1.36594e-06
-2.907884e-05
2.788931e-05
4.130455e-08
1.148221e-06
-2.127161e-05
1.864133e-05
9.150797e-08
2.538776e-06
-9.646945e-06
7.063323e-06
9.894793e-08
2.484674e-06
-6.464122e-06
7.074257e-06
-8.318924e-08
-5.269458e-07
3.428851e-05
-4.12411e-05
-5.419028e-07
7.494511e-06
4.972415e-05
-5.371983e-05
-4.132749e-07
4.408954e-06
5.129338e-05
-4.696726e-05
1.319669e-08
-4.339316e-06
4.630145e-05
-4.577389e-05
-1.032137e-08
-5.171014e-07
4.32057e-05
-4.16086e-05
3.042001e-07
-1.901269e-06
4.033463e-05
-4.068047e-05
1.722026e-07
1.736755e-07
4.267225e-05
-4.362093e-05
2.438769e-07
7.04811e-07
4.679435e-05
-4.759993e-05
3.97622e-07
4.079666e-07
4.83414e-05
-4.942948e-05
2.556063e-07
8.325166e-07
6.262517e-05
-7.407424e-05
3.057352e-07
1.114333e-05
-6.072532e-06
6.417516e-05
-6.890269e-05
6.256325e-07
1.017443e-05
-3.52667e-06
8.14591e-05
-8.556546e-05
3.400516e-07
7.292985e-06
-5.953136e-06
9.517347e-05
-0.0001003749
1.032087e-07
1.105133e-05
-7.260056e-06
0.0001142385
-0.0001188493
-7.119158e-08
1.194209e-05
-9.476898e-06
0.000133637
-0.0001375846
-1.58229e-07
1.358273e-05
-8.970866e-06
0.0001521985
-0.0001583217
4.827555e-08
1.504572e-05
-8.055694e-06
0.0001738184
-0.0001776985
5.26976e-07
1.140878e-05
-8.00017e-06
0.0001890979
-0.0001976749
6.290521e-07
1.594815e-05
-1.818318e-05
0.0002116232
-0.0002163078
-1.651774e-07
2.303293e-05
-9.282529e-06
0.0008742176
-0.0009195331
-1.783363e-07
8.299251e-05
-8.011185e-06
-1.22601e-05
-7.94479e-06
-8.620888e-06
0.0009538102
-0.0009778483
6.160466e-07
5.66886e-05
-9.023306e-06
-7.771148e-06
-7.851195e-06
-1.013852e-05
0.0009971148
-0.001005834
1.045159e-06
5.003227e-05
-9.991278e-06
-1.121285e-05
-1.101597e-05
-8.716223e-06
0.001015581
-0.001026463
1.154588e-06
4.576869e-05
-8.762882e-06
-9.221977e-06
-9.340226e-06
-8.142081e-06
0.001036578
-0.001046669
1.06408e-06
4.181519e-05
-7.808483e-06
-8.617273e-06
-8.219749e-06
-4.724843e-06
0.001064537
-0.001083302
1.148593e-06
3.777049e-05
-4.705575e-06
-5.070613e-06
-5.653167e-06
-4.55833e-06
0.001103135
-0.00113256
3.221052e-07
4.236189e-05
-2.128475e-06
-4.239175e-06
-2.333072e-06
-5.97819e-06
0.001156745
-0.001166932
5.097557e-07
3.369281e-05
-6.512837e-06
-5.601432e-06
-5.923061e-06
-1.340688e-05
0.001160917
-0.001143879
1.910349e-07
4.073637e-05
-1.580836e-05
-1.32824e-05
-1.546816e-05
1.268211e-05
0.001138772
-0.001158304
-5.88902e-07
8.464994e-06
-3.680865e-06
1.222681e-05
-9.572009e-06
-4.181195e-06
0.00112907
-0.001106226
-8.143382e-07
-5.514693e-06
-4.23641e-06
-4.050825e-06
-4.04653e-06
-3.331883e-06
0.001084913
-0.001061076
-1.10216e-06
-1.079839e-05
-2.777354e-06
-2.516533e-06
-3.310474e-06
-3.176456e-07
0.001044129
-0.001023273
-1.386745e-06
-2.148096e-05
2.301183e-06
-1.793887e-07
2.075677e-07
4.522931e-06
0.001006709
-0.000984713
-1.332285e-06
-3.995373e-05
4.256419e-06
5.206633e-06
5.303923e-06
7.185692e-06
0.0009660909
-0.0009379247
-1.198953e-06
-5.527816e-05
6.278859e-06
7.817811e-06
7.028563e-06
1.027689e-05
0.0009106963
-0.0008768207
-1.145093e-06
-7.30605e-05
9.352739e-06
1.084672e-05
9.853648e-06
1.263659e-05
0.0008483806
-0.0008036532
-6.604701e-07
-9.42261e-05
1.687738e-05
9.047955e-06
1.159725e-05
8.734882e-06
0.0007718229
-0.0007154308
3.019855e-07
-8.702126e-05
3.907618e-06
1.004968e-05
7.634954e-06
1.362061e-06
0.0006420261
-0.0005901271
9.153704e-07
-8.880718e-05
1.190392e-05
7.318456e-06
1.540834e-05
2.351567e-05
0.0005382094
-0.0004500539
2.556951e-06
-0.0001142281
8.339934e-05
0.0004215505
-0.0003880609
3.152888e-06
-0.0001200418
5.28812e-05
0.0003457418
-0.0002960229
3.186035e-06
-0.0001057862
5.757472e-05
0.0002682383
-0.0002435173
2.480854e-06
-8.477658e-05
3.16412e-05
0.0002069723
-0.0001795697
8.743511e-07
-5.991819e-05
3.285897e-05
0.0001528173
-0.0001351141
2.953358e-07
-5.08575e-05
2.265847e-05
0.0001217712
-0.0001176406
6.653315e-07
-2.745437e-05
8.664005e-06
0.0001129911
-0.0001134527
1.716193e-07
-8.37407e-06
3.913985e-06
0.0001136389
-0.0001173322
2.477277e-07
-4.684213e-07
7.426241e-06
0.0001161686
-0.0001143758
-1.86223e-07
-9.032817e-06
1.761657e-05
0.0001142916
-0.0001055715
-5.972995e-07
-2.573939e-05
3.247908e-05
9.952824e-05
-8.423729e-05
-1.007635e-06
-4.676239e-05
3.982471e-05
7.061147e-05
-5.099926e-05
-6.905457e-07
-5.874637e-05
4.472573e-05
3.226391e-05
-6.381649e-06
-1.088735e-06
-6.951926e-05
5.365911e-05
-1.482091e-05
3.271019e-05
-6.895177e-07
-7.085887e-05
2.070072e-05
-5.630529e-05
9.365281e-05
1.322922e-07
-5.818053e-05
4.289498e-05
-0.0001172189
0.0001334678
-3.30968e-07
-5.881296e-05
1.902721e-05
-0.0001448666
0.0001678811
-2.665261e-07
-4.177515e-05
2.64922e-05
-0.0001806514
0.0001949839
6.943218e-08
-4.089415e-05
2.1047e-05
-0.000202057
0.0002083046
1.898731e-08
-2.731357e-05
1.188712e-05
-0.0002192853
0.0002264579
-3.605302e-08
-1.902374e-05
1.007324e-05
-0.0002313406
0.0002314293
-4.16412e-07
-9.745591e-06
1.072877e-05
-0.0002300387
0.0002230244
-4.351404e-07
-3.279361e-06
-5.688877e-06
-0.0002232393
0.0002260214
-2.501432e-07
3.156941e-06
-3.840601e-06
-0.0002243598
0.0002138648
-3.503999e-07
1.468605e-05
-9.452445e-06
-0.0002059736
0.0001920229
-8.233733e-08
2.348555e-05
-1.801372e-05
-0.0001753549
0.0001617758
9.280515e-07
3.066472e-05
-3.276359e-05
-0.0001495916
0.0001420531
2.06952e-06
3.823256e-05
-5.459739e-05
-0.0001361887
0.0001321328
7.133178e-07
5.793995e-05
-1.371913e-05
-0.0001149478
8.249486e-05
1.816419e-06
7.686921e-05
-1.408072e-05
-6.126437e-06
-1.230642e-05
-4.541768e-06
-4.176686e-05
-5.91441e-06
-7.356335e-07
6.56345e-05
-3.922031e-06
-4.148187e-06
-4.60561e-06
-6.205374e-06
3.391935e-05
-5.38702e-05
4.5721e-07
4.231349e-05
-4.916249e-06
-6.022607e-06
-5.675615e-06
-2.42921e-06
6.887654e-05
-8.126927e-05
-5.269206e-07
2.356437e-05
-1.815036e-06
-2.854979e-06
-3.545492e-06
-1.82264e-06
8.921312e-05
-8.86118e-05
1.288221e-06
1.177176e-05
-4.237449e-06
-3.35492e-06
-4.246287e-06
-1.940077e-06
9.232706e-05
-9.82517e-05
1.455858e-06
1.775433e-05
-3.961358e-06
-4.19271e-06
-3.191405e-06
-3.436305e-06
0.0001057689
-0.0001133235
-8.307963e-07
2.171798e-05
-3.310463e-06
-3.584224e-06
-3.001556e-06
-2.453974e-06
0.0001204206
-0.0001255442
-1.23599e-06
1.647602e-05
-1.935979e-06
-3.008466e-06
-2.717929e-06
-1.958694e-06
0.0001322937
-0.0001332622
-1.100021e-06
1.494921e-05
-3.806304e-06
-3.758549e-06
-3.357134e-06
-3.758739e-06
0.0001301922
-0.0001208332
-9.352625e-07
4.539117e-06
-3.895305e-06
-2.239638e-06
-3.069212e-06
-2.265652e-06
0.0001114491
-0.0001024894
-3.611668e-07
-1.052845e-06
-2.052126e-06
-1.677505e-06
-1.550435e-06
-1.401125e-06
0.0001006574
-0.0001104074
1.580095e-07
1.6357e-05
-1.80914e-06
-2.042581e-06
-1.512237e-06
-5.454699e-06
0.0001207546
-0.000152659
1.162003e-09
5.220566e-05
-3.725561e-06
-5.577632e-06
-5.544492e-06
-6.044672e-06
0.0001882
-0.0002311963
2.032429e-07
8.109479e-05
-7.86451e-06
-1.387422e-05
-1.051833e-05
-1.225591e-05
0.0002869127
-0.0003362394
-1.33826e-07
0.0001009863
-1.45387e-05
-1.159821e-05
-1.313304e-05
-2.754114e-05
0.0003944152
-0.0004501648
1.83102e-07
0.0001522122
-2.822676e-05
-1.985447e-05
-2.102327e-05
-2.381085e-05
0.0005092289
-0.0005851104
8.37934e-08
0.0001803878
-2.74424e-05
-2.793896e-05
-2.539795e-05
-2.138642e-05
0.0006420554
-0.0007058978
-1.840659e-07
0.0001483534
-2.112658e-05
-1.849872e-05
-2.331522e-05
-1.331341e-05
0.000751081
-0.0008066431
-2.868718e-07
0.0001150993
-1.717158e-05
-1.309324e-05
-1.567213e-05
-1.46626e-05
0.0008374804
-0.0008758973
-4.285725e-08
9.385465e-05
-1.33571e-05
-1.189391e-05
-1.548125e-05
-7.974474e-06
0.0009047116
-0.0009376368
3.011649e-07
7.075141e-05
-8.932843e-06
-9.661427e-06
-1.15587e-05
-5.307849e-06
0.0009557163
-0.0009787463
2.925717e-07
4.485825e-05
-4.418833e-06
-6.496315e-06
-5.897779e-06
-5.734643e-06
0.0009922169
-0.001007424
2.699585e-07
3.429003e-05
-3.816611e-06
-5.087401e-06
-4.713871e-06
-4.153181e-06
0.001013674
-0.001021022
5.528528e-07
1.9902e-05
-3.287208e-06
-2.739336e-06
-2.927299e-06
-1.033688e-06
0.001025111
-0.001027484
3.979827e-07
2.982496e-06
-1.609511e-07
-2.737174e-09
1.897576e-07
1.94569e-06
-0.001024221
3.360191e-07
-1.208481e-05
2.262116e-06
2.496503e-06
2.715641e-06
0.00102655
3.253142e-06
0.001018046
-0.001011868
4.118386e-07
-2.100374e-05
3.430193e-06
3.86449e-06
3.865559e-06
4.431886e-06
0.001003798
-0.0009947232
3.774712e-07
-2.829877e-05
4.496085e-06
5.003083e-06
4.915867e-06
4.65307e-06
0.0009849711
-0.0009750689
2.732752e-07
-3.033742e-05
5.22198e-06
5.357523e-06
4.929286e-06
3.926275e-06
0.0009629669
-0.0009487787
3.492381e-07
-3.156482e-05
4.441114e-06
4.16956e-06
4.490446e-06
3.997486e-06
0.0009332757
-0.0009256202
4.665685e-07
-2.947397e-05
4.488375e-06
6.349105e-06
6.516975e-06
3.516595e-06
0.000916419
-0.0009056368
4.203217e-07
-3.102566e-05
3.519035e-06
6.912737e-06
5.874717e-06
4.404809e-06
0.0008930134
-0.0008826172
4.043519e-07
-3.087981e-05
3.531697e-06
6.135958e-06
6.006884e-06
4.645154e-06
0.0008689226
-0.0008550337
3.176398e-07
-3.485004e-05
3.739554e-06
6.360519e-06
5.898285e-06
4.322721e-06
0.0008398867
-0.0008269576
2.713265e-07
-3.389199e-05
4.718457e-06
6.051146e-06
5.599214e-06
5.489256e-06
0.0008148555
-0.0008010136
1.823049e-07
-4.090635e-05
5.511204e-06
7.912844e-06
7.968877e-06
5.070896e-06
0.0007888941
-0.0007727712
1.897656e-07
-4.261071e-05
4.930419e-06
8.540568e-06
7.756086e-06
5.152034e-06
0.0007565966
-0.0007402953
1.72408e-07
-3.924049e-05
3.831402e-06
7.328951e-06
6.454366e-06
6.136864e-06
0.0007253396
-0.0007065697
2.016403e-07
-4.749309e-05
4.643652e-06
8.655699e-06
9.085364e-06
3.608939e-06
0.0006896352
-0.0006685697
3.028029e-07
-4.720639e-05
3.880458e-06
9.002574e-06
9.346136e-06
7.459128e-06
0.0006524228
-0.0006283326
4.816412e-07
-6.036712e-05
7.223378e-06
1.008563e-05
1.10272e-05
2.8267e-06
0.0006069119
-0.0005748039
6.006175e-07
-5.657095e-05
3.422588e-06
9.347824e-06
8.265278e-06
8.899459e-06
0.0005546253
-0.0005311531
4.534266e-07
-6.408415e-05
1.113855e-05
7.302019e-06
1.281851e-05
6.786789e-06
0.0005121473
-0.0004818702
5.946062e-07
-6.389185e-05
6.357793e-06
9.81901e-06
1.005646e-05
4.482194e-06
0.0004575286
-0.0004201095
1.139805e-07
-6.678307e-05
6.209908e-06
9.09989e-06
9.458023e-06
8.231391e-06
0.0003951123
-0.0003575855
-2.820452e-07
-7.354327e-05
8.880082e-06
7.608329e-06
1.157873e-05
7.618524e-06
0.0003320198
-0.0002944949
1.432155e-07
-7.71098e-05
1.437345e-05
8.369828e-06
9.079941e-06
1.25834e-05
0.0002711118
-0.0002333566
-3.157731e-07
-8.13178e-05
1.199316e-05
9.198603e-06
1.010327e-05
1.425165e-05
0.0001993599
-0.0001481183
-3.32967e-07
-8.899628e-05
1.406634e-05
5.108891e-06
4.660798e-06
1.351133e-05
0.0001185307
-9.851278e-05
-4.641996e-07
-7.706344e-05
1.349305e-05
1.498634e-05
1.551901e-05
6.821061e-06
5.827269e-05
-1.384823e-05
-3.27064e-07
-7.061568e-05
6.068805e-06
7.296817e-06
6.331602e-06
5.857941e-06
7.747923e-06
1.90405e-05
-3.040025e-07
-5.0989e-05
6.101837e-06
6.078336e-06
6.466464e-06
6.933254e-06
-5.859946e-05
8.484049e-05
-5.468858e-07
-5.477933e-05
7.254743e-06
7.419689e-06
7.477503e-06
8.165748e-06
-0.000116752
0.0001513904
-7.180604e-07
-6.702536e-05
8.301535e-06
8.378107e-06
8.25962e-06
8.171548e-06
-0.0001728655
0.0001946405
-4.871769e-07
-5.021718e-05
7.491396e-06
6.705942e-06
6.560432e-06
6.236514e-06
-0.000220631
0.0002466505
-5.663816e-07
-5.030475e-05
6.149942e-06
6.293241e-06
6.171934e-06
5.930871e-06
-0.0002727768
0.0002929296
-2.033649e-07
-4.312598e-05
5.878424e-06
5.668036e-06
5.699234e-06
5.413807e-06
-0.0003177259
0.0003316972
-9.637304e-09
-3.540046e-05
5.382612e-06
5.347054e-06
5.295337e-06
4.914612e-06
-0.0003482116
0.0003607772
-9.491964e-08
-3.044814e-05
4.715032e-06
5.116151e-06
3.231678e-06
3.151228e-06
-0.0003671043
0.0003727897
7.792149e-08
-1.705178e-05
2.659182e-06
3.055085e-06
2.423005e-06
1.2186e-06
-0.0003793218
0.0003834126
-6.176013e-08
-7.413786e-06
8.537399e-07
7.169607e-07
5.954592e-07
7.339345e-08
-0.0003854493
0.0003859624
4.694322e-08
-1.513873e-07
-2.510615e-07
-9.401439e-08
-1.370434e-07
-8.534583e-07
-0.0003854666
0.000383324
2.244759e-08
4.852037e-06
-8.165938e-07
-4.324915e-07
-6.293894e-07
-1.191667e-06
-0.000381861
0.0003787513
-3.327547e-08
7.783905e-06
-1.115226e-06
-1.051901e-06
-1.282139e-06
-1.12326e-06
-0.0003766435
0.0003734664
-4.322322e-08
7.988588e-06
-1.098996e-06
-1.31728e-06
-1.228782e-06
-1.10326e-06
-0.0003705244
0.0003679204
-6.508436e-08
7.141583e-06
-1.060437e-06
-1.078645e-06
-1.230127e-06
-1.045411e-06
-0.0003657002
0.0003641174
-7.557375e-08
5.738401e-06
-9.923793e-07
-1.033104e-06
-1.009078e-06
-1.27735e-06
-0.0003630188
0.0003625817
-6.299982e-08
5.832447e-06
-1.389198e-06
-1.275833e-06
-1.39e-06
-2.103971e-06
-0.0003642493
0.0003677709
-2.049501e-07
5.576331e-06
-2.421795e-06
-2.03653e-06
-2.330691e-06
-3.475543e-06
-0.0003691227
0.0003627201
1.12238e-07
1.988784e-05
-3.40161e-06
-3.036004e-06
-3.68427e-06
-4.298603e-06
-0.0003528131
0.0003324722
-2.829061e-07
3.826846e-05
-4.36413e-06
-4.527906e-06
-4.45407e-06
-4.953364e-06
-0.0003097935
0.0002875421
-9.314639e-07
4.298972e-05
-5.111003e-06
-4.838563e-06
-4.903916e-06
-5.695353e-06
-0.0002628212
0.0002335095
1.946106e-07
5.232222e-05
-5.983571e-06
-5.664192e-06
-5.861938e-06
-6.219399e-06
-0.0001875329
0.0001554707
-7.323469e-07
5.894764e-05
-6.493496e-06
-6.82981e-06
-6.610382e-06
-5.918997e-06
-0.0001169235
0.0001008258
-5.451569e-07
4.380434e-05
-7.303763e-06
-7.086316e-06
-6.852473e-06
-5.413308e-06
5.748166e-05
2.24643e-07
3.959263e-05
-7.607136e-05
-5.086751e-06
-5.519794e-06
-5.207719e-06
-4.100024e-06
-4.371916e-05
3.117317e-05
1.153188e-07
2.836729e-05
-3.77763e-06
-4.222008e-06
-3.836958e-06
-2.988183e-06
-1.785716e-05
6.312467e-06
3.357035e-07
2.276998e-05
-2.781887e-06
-3.002459e-06
-2.788456e-06
-2.439523e-06
4.429548e-06
-1.396163e-05
1.618484e-07
1.8864e-05
-2.327115e-06
-2.420024e-06
-2.307101e-06
-1.721847e-06
2.221042e-05
-2.347516e-05
9.10058e-08
7.780897e-06
-1.592428e-06
-1.739391e-06
-1.553489e-06
-8.141877e-07
2.094376e-05
-1.839915e-05
-3.033682e-07
2.493465e-06
-1.601234e-06
-7.469171e-07
-1.572368e-06
-6.658459e-07
1.808502e-05
-1.680325e-05
-3.129559e-07
1.373393e-06
-5.048047e-07
-6.674828e-07
-5.040678e-07
-1.237967e-07
1.97941e-05
-2.287002e-05
-4.078689e-07
3.876135e-06
-7.261718e-08
-1.229783e-07
-7.295704e-08
-2.70488e-07
2.802089e-05
-3.690182e-05
4.589465e-07
9.861578e-06
-4.844496e-07
-2.718014e-07
-4.128514e-07
-1.336108e-06
4.474344e-05
-5.738377e-05
8.294948e-07
1.753376e-05
-1.558731e-06
-1.309758e-06
-1.518331e-06
-1.987542e-06
6.674939e-05
-7.723815e-05
1.315267e-07
1.886212e-05
-2.043225e-06
-2.044231e-06
-2.42989e-06
-2.867676e-06
8.523128e-05
-0.000102323
-1.050958e-06
2.951638e-05
-2.899625e-06
-2.83977e-06
-2.766589e-06
-2.155598e-06
0.0001190609
-0.0001284078
-6.335816e-07
1.985352e-05
-2.712452e-06
-2.56602e-06
-2.438988e-06
-4.791496e-06
0.0001357026
-0.0001411865
2.884421e-07
2.321982e-05
-4.789758e-06
-4.197912e-06
-4.2452e-06
-2.77199e-06
0.0001549154
-0.0001734105
2.887346e-06
2.664621e-05
-3.535144e-06
-2.487325e-06
-2.244059e-06
-2.952209e-07
0.0001831742
-0.0001884353
1.481847e-06
4.168432e-06
3.258652e-08
-2.919181e-07
1.653182e-07
2.13289e-06
0.0001850923
-0.0001612974
6.313111e-07
-3.459038e-05
2.91602e-06
2.355833e-06
2.75944e-06
4.110702e-06
0.0001433077
-0.0001180248
6.478213e-07
-4.41868e-05
4.577228e-06
4.512617e-06
5.055606e-06
5.044405e-06
9.466718e-05
-7.36767e-05
1.437302e-06
-4.396364e-05
5.316287e-06
5.128798e-06
6.04637e-06
1.9775e-06
5.71784e-05
-5.19836e-05
1.262089e-06
-1.352673e-05
1.554264e-06
1.934591e-06
1.603496e-06
3.466902e-06
2.85192e-05
-5.035234e-06
3.025951e-07
-3.655067e-05
3.097679e-06
2.869687e-06
3.329842e-06
3.033671e-06
-1.888593e-05
3.679439e-05
-2.242082e-08
-3.03374e-05
3.161038e-06
3.154755e-06
3.101903e-06
2.795891e-06
-4.835726e-05
6.345003e-05
3.849975e-08
-2.655399e-05
3.048896e-06
2.786359e-06
2.791577e-06
2.421174e-06
-8.503232e-05
0.0001009176
-6.439583e-08
-2.5247e-05
2.56453e-06
2.293172e-06
2.14727e-06
-1.056696e-06
-0.0001062916
9.91564e-05
1.21814e-06
1.108075e-05
-1.423266e-06
-1.12928e-06
-1.554395e-06
-3.568714e-06
-1.646977e-05
1.651416e-05
3.730724e-08
3.487021e-06
1.916295e-06
-1.311843e-05
1.169502e-05
-3.732117e-08
-4.555611e-07
1.031578e-06
-1.518715e-05
1.523088e-05
4.215403e-08
-1.117465e-06
1.018405e-06
-1.614209e-05
1.617815e-05
-2.162221e-08
-1.032843e-06
1.417229e-06
-2.083277e-05
2.260542e-05
-7.545924e-08
-3.114427e-06
-1.093693e-07
-2.389851e-05
2.394935e-05
-2.201809e-07
2.787069e-07
-1.742951e-06
-2.393161e-05
2.264056e-05
-8.094984e-08
3.114952e-06
-3.759693e-06
-1.54735e-05
1.586911e-05
-1.113945e-07
3.475475e-06
-3.4263e-06
-6.304209e-06
3.209438e-06
-1.210758e-08
6.533179e-06
-2.671488e-06
3.676866e-06
-6.839721e-06
2.019066e-08
5.814153e-06
-1.655723e-06
9.615562e-06
-9.931719e-06
2.108102e-08
1.950799e-06
-7.55844e-07
1.425249e-05
-1.497087e-05
4.867777e-08
1.425547e-06
-1.024088e-07
1.615891e-05
-1.642215e-05
3.912543e-08
3.265219e-07
-4.27259e-08
1.666531e-05
-1.663046e-05
2.409475e-08
-1.622105e-08
9.019436e-09
1.698231e-05
-1.713548e-05
-3.708457e-09
1.478615e-07
2.707427e-07
1.709273e-05
-1.688639e-05
7.509783e-09
-4.845959e-07
6.948701e-07
1.656247e-05
-1.629673e-05
4.492994e-08
-1.005545e-06
4.958069e-07
1.497301e-05
-1.44716e-05
4.969711e-08
-1.046912e-06
7.932356e-08
1.384092e-05
-1.339958e-05
9.472143e-08
-6.153793e-07
1.752432e-07
1.386227e-05
-1.408682e-05
1.851155e-07
-1.358091e-07
-6.584821e-08
1.44654e-05
-1.466875e-05
1.215202e-07
1.4768e-07
2.269133e-08
1.536816e-05
-1.540142e-05
3.690749e-08
-2.634163e-08
-1.795736e-07
1.563871e-05
-1.588499e-05
-2.684594e-08
4.526998e-07
-3.306849e-07
1.677329e-05
-1.678003e-05
-6.876063e-08
4.061839e-07
-1.344375e-07
1.770204e-05
-1.774283e-05
-1.749726e-07
3.50197e-07
-2.705981e-08
1.753667e-05
-1.736622e-05
-1.787201e-07
3.532867e-08
2.249528e-07
1.699156e-05
-1.654883e-05
-9.926337e-08
-5.684134e-07
5.384562e-07
1.532306e-05
-1.498495e-05
-9.952084e-08
-7.770532e-07
6.246271e-07
1.320097e-05
-1.267259e-05
6.312588e-08
-1.216125e-06
5.42737e-07
1.1172e-05
-1.050454e-05
1.029538e-07
-1.313154e-06
1.384362e-07
9.997921e-06
-9.677695e-06
9.392584e-08
-5.525881e-07
-3.333621e-08
9.698099e-06
-9.881706e-06
9.058373e-08
1.263596e-07
-2.944874e-07
1.100551e-05
-1.115936e-05
7.955104e-08
3.687873e-07
-2.515489e-07
1.261831e-05
-1.38157e-05
7.649362e-08
1.372446e-06
-3.684416e-07
1.506536e-05
-1.665593e-05
4.7984e-08
1.911022e-06
-6.023175e-07
1.875601e-05
-1.906461e-05
7.560355e-09
9.033517e-07
4.625343e-07
1.933182e-05
-1.873929e-05
4.828043e-08
-1.103349e-06
8.368712e-07
1.598309e-05
-1.485908e-05
6.946479e-08
-2.030341e-06
3.496253e-07
1.296155e-05
-1.298499e-05
4.61098e-08
-3.722905e-07
-1.515101e-07
1.183022e-05
-1.213462e-05
7.389823e-08
3.820123e-07
-5.79316e-07
1.321979e-05
-1.325499e-05
1.063496e-08
6.03873e-07
-6.741499e-07
1.524272e-05
-1.522801e-05
-2.694864e-08
6.86386e-07
-4.85187e-07
1.672668e-05
-1.672838e-05
-2.123338e-08
5.081217e-07
-1.494171e-07
1.752822e-05
-1.760469e-05
-1.583294e-08
2.417117e-07
3.460209e-08
1.757544e-05
-1.73225e-05
-4.350433e-08
-2.440398e-07
2.861956e-07
1.621643e-05
-1.570147e-05
-7.246685e-08
-7.286961e-07
2.066114e-07
1.466867e-05
-1.449329e-05
-8.408368e-08
-2.979035e-07
-2.375336e-08
1.383114e-05
-1.378802e-05
-2.87921e-08
9.42588e-09
-4.918553e-08
1.362739e-05
-1.362186e-05
-6.314433e-09
4.997538e-08
2.150787e-09
1.355931e-05
-1.35431e-05
3.781965e-08
-5.618761e-08
-9.294064e-08
1.35443e-05
-1.342865e-05
6.463339e-08
-8.734286e-08
-4.622646e-07
1.459871e-05
-1.495427e-05
1.264038e-08
8.051858e-07
-9.318522e-07
1.549486e-05
-1.616737e-05
6.80543e-08
1.536308e-06
-1.105665e-06
2.050928e-05
-2.100124e-05
2.529593e-08
1.572328e-06
-9.322759e-07
2.335004e-05
-2.386006e-05
3.797418e-09
1.438502e-06
-6.384917e-07
2.558577e-05
-2.605509e-05
1.482304e-08
1.092997e-06
-2.210441e-07
2.65752e-05
-2.678293e-05
2.103304e-09
4.266637e-07
-1.940944e-07
2.688955e-05
-2.689582e-05
-2.99139e-09
2.033565e-07
-1.901461e-07
2.709945e-05
-2.709615e-05
2.399077e-09
1.844461e-07
-1.596146e-07
2.715661e-05
-2.723295e-05
-3.640246e-08
2.723596e-07
-3.845162e-07
2.742389e-05
-2.749329e-05
-3.137927e-08
4.853028e-07
-2.835638e-07
2.770282e-05
-2.773222e-05
-2.817635e-08
3.411473e-07
-3.217025e-07
2.807373e-05
-2.816215e-05
-3.894263e-08
4.490633e-07
-4.891576e-07
2.840578e-05
-2.853906e-05
4.448564e-09
6.179871e-07
6.208328e-08
2.913816e-05
-2.899547e-05
2.710061e-08
-2.318713e-07
4.374221e-07
2.801437e-05
-2.744657e-05
1.096358e-08
-1.016178e-06
6.248283e-07
2.559747e-05
-2.485954e-05
-7.41041e-08
-1.288649e-06
9.499497e-07
2.246539e-05
-2.155947e-05
-1.804788e-07
-1.675385e-06
1.507422e-06
2.029439e-05
-1.862396e-05
-2.402192e-07
-2.937633e-06
1.671112e-06
1.349244e-05
-1.299151e-05
-7.969799e-08
-2.092346e-06
-7.209464e-06
1.658202e-05
-9.051632e-05
-1.584933e-07
3.942965e-05
-3.726023e-06
-7.479952e-06
-3.536864e-06
1.512141e-05
2.238529e-05
1.910873e-05
-5.825983e-06
0.0001199152
-0.0001249774
-9.21777e-07
2.667192e-05
-4.999326e-06
-5.573144e-06
-4.289514e-06
7.375416e-07
0.0001028115
-7.809614e-05
-1.270057e-06
-2.758999e-05
1.189764e-06
9.70298e-07
1.247058e-06
1.419043e-06
6.081266e-05
-4.817233e-05
-3.886416e-07
-1.909055e-05
1.56268e-06
1.680555e-06
2.17658e-06
1.343742e-06
4.267047e-05
-4.107959e-05
2.589087e-07
-8.177731e-06
1.399687e-06
1.568034e-06
2.016474e-06
1.171895e-06
4.149838e-05
-4.622703e-05
9.410707e-07
-1.320011e-06
1.12468e-06
1.306341e-06
1.504679e-06
6.438434e-07
5.023893e-05
-5.754537e-05
7.065773e-07
3.974916e-06
4.972549e-07
7.404824e-07
7.433658e-07
-4.374168e-07
6.336589e-05
-6.268658e-05
-1.9703e-06
2.786624e-06
-5.311304e-07
-3.236568e-07
-2.034222e-07
3.209485e-07
5.243299e-05
-4.041985e-05
-2.009778e-06
-1.163977e-05
3.14805e-07
3.778213e-07
6.228416e-07
1.463663e-06
3.227566e-05
-2.416754e-05
2.032891e-06
-1.633027e-05
1.593714e-06
1.441356e-06
1.69052e-06
7.33411e-07
2.732072e-05
-3.59081e-05
2.228777e-06
4.618837e-06
2.180819e-07
4.538518e-07
3.344213e-07
-3.151452e-07
4.009582e-05
-4.393494e-05
1.922548e-06
3.628972e-06
-5.567977e-07
-4.044005e-07
-4.360531e-07
-2.969686e-07
4.77015e-05
-4.86227e-05
1.356743e-06
9.063416e-07
-3.93203e-07
-3.88748e-07
-2.629634e-07
-8.49782e-08
4.943101e-05
-4.88027e-05
9.689178e-07
-1.294794e-06
-8.227807e-08
-8.409157e-08
-5.108549e-08
1.872188e-07
4.723322e-05
-4.470662e-05
3.822111e-08
-3.418598e-06
2.250663e-07
2.028419e-07
2.386489e-07
5.768338e-07
4.176504e-05
-3.904607e-05
6.27847e-07
-5.81804e-06
6.529654e-07
5.822974e-07
6.591317e-07
1.201684e-06
3.42451e-05
-3.047266e-05
6.457856e-07
-9.236122e-06
1.178384e-06
1.229761e-06
1.208071e-06
8.477577e-07
2.857505e-05
-2.444348e-05
-3.113105e-07
-7.887837e-06
9.329741e-07
1.22483e-06
1.062016e-06
1.541151e-06
1.427854e-05
-6.096355e-06
-1.063953e-06
-1.312448e-05
1.313337e-06
1.667009e-06
1.484747e-06
1.430379e-06
3.416065e-06
-1.770392e-07
-1.583181e-06
-6.988506e-06
1.227981e-06
1.305346e-06
1.368955e-06
2.843039e-07
-8.882495e-07
2.904972e-06
-1.103178e-06
-2.02588e-06
1.937357e-07
3.700792e-07
2.642161e-07
2.765121e-07
-5.381931e-06
6.735739e-06
-7.614952e-07
-1.581462e-06
2.515414e-07
2.496626e-07
2.114328e-07
1.318756e-07
-6.28605e-06
6.300258e-06
-9.317822e-08
-3.475516e-07
1.298144e-07
8.27206e-08
8.211123e-08
2.075172e-07
-6.754938e-06
1.063552e-05
-4.297778e-07
-4.388517e-06
2.9352e-07
1.865168e-07
2.50164e-07
4.74375e-07
-1.68215e-05
2.073591e-05
-8.144177e-08
-5.596956e-06
4.873646e-07
3.669927e-07
4.352587e-07
4.221608e-07
-2.766641e-05
3.20461e-05
1.818465e-07
-6.592599e-06
6.917845e-07
4.894763e-07
4.276484e-07
5.178325e-07
-3.993738e-05
5.20991e-05
-4.700487e-07
-1.381851e-05
5.253785e-07
5.357156e-07
5.47912e-07
4.769121e-07
-6.564959e-05
7.764395e-05
-6.681312e-07
-1.307615e-05
3.830098e-07
4.947795e-07
3.95214e-07
-3.222417e-07
-8.362575e-05
7.80122e-05
-5.46607e-07
7.751026e-06
-4.62862e-07
-3.296171e-07
-4.761415e-07
-1.64598e-06
-6.491246e-05
4.451508e-05
-1.711281e-07
2.763978e-05
-1.846879e-06
-1.677165e-06
-1.901248e-06
-2.574651e-06
-2.360048e-05
2.57573e-07
1.806165e-06
3.197126e-05
-2.602216e-06
-2.599341e-06
-2.658307e-06
-2.795094e-06
2.16901e-05
-4.135035e-05
2.68892e-09
3.092269e-05
-2.782354e-06
-2.854881e-06
-2.832797e-06
-2.911356e-06
5.481913e-05
-6.011074e-05
-2.899936e-07
1.645872e-05
-2.582046e-06
-2.802895e-06
-2.580821e-06
-1.540446e-06
5.946901e-05
-6.136983e-05
7.00875e-09
7.346489e-06
-1.184184e-06
-1.599947e-06
-1.128097e-06
4.949144e-08
5.728851e-05
-6.050154e-05
-6.455688e-09
2.948671e-06
1.32343e-07
-9.7687e-09
9.874597e-08
1.302335e-06
6.644918e-05
-5.372284e-05
-1.751276e-06
-1.639807e-05
1.389073e-06
1.313267e-06
1.418326e-06
2.28545e-06
4.557143e-05
-2.584335e-05
-1.352971e-06
-2.837678e-05
2.652569e-06
2.350135e-06
2.713515e-06
3.539977e-06
7.077096e-06
1.274301e-05
-8.419846e-07
-3.359301e-05
3.749515e-06
3.551697e-06
3.773702e-06
4.119864e-06
-3.105434e-05
4.778904e-05
-9.636257e-07
-3.24841e-05
4.181887e-06
4.140328e-06
4.270951e-06
3.175987e-06
-6.380639e-05
6.785229e-05
-3.030965e-07
-1.816015e-05
4.185126e-06
3.851753e-06
3.204478e-06
2.534983e-06
-7.923605e-05
9.172329e-05
-5.970734e-07
-2.215477e-05
2.455419e-06
2.591389e-06
2.682818e-06
2.109024e-06
-0.0001019128
0.000109722
-3.705094e-07
-1.580751e-05
2.053328e-06
2.145965e-06
2.0605e-06
1.869396e-06
-0.0001157854
0.0001207224
-3.142784e-07
-1.195582e-05
1.825292e-06
1.835364e-06
1.802975e-06
1.981366e-06
-0.0001238999
0.0001261808
-2.538103e-07
-9.791887e-06
1.989162e-06
1.906411e-06
1.887866e-06
2.015243e-06
-0.0001258948
0.0001256451
-4.528901e-07
-5.327959e-06
1.354007e-06
1.344471e-06
1.316818e-06
1.01221e-06
-0.0001267273
0.0001254466
-7.964463e-08
-2.906929e-06
1.13499e-06
1.007357e-06
1.112648e-06
3.925956e-07
-0.0001260364
0.0001290364
-1.810278e-07
-4.430549e-06
3.830154e-07
4.447102e-07
3.9122e-07
3.203139e-07
-0.0001321082
0.000134703
-1.977294e-07
-3.639875e-06
3.120428e-07
3.078565e-07
3.025765e-07
2.559856e-07
-0.0001370163
0.0001388477
-1.666714e-07
-2.653503e-06
2.500694e-07
2.447302e-07
2.379809e-07
1.980328e-07
-0.0001404844
0.0001411162
-1.94733e-07
-1.148583e-06
1.78569e-07
1.743953e-07
1.606069e-07
-5.490416e-07
-0.0001404504
0.0001401029
-8.974455e-08
1.810003e-06
-3.644044e-07
-1.05996e-07
-3.533811e-07
-2.03718e-06
-0.0001403075
0.0001424501
-1.358962e-07
6.898936e-06
-2.648028e-06
-1.840354e-06
-2.380032e-06
-4.898235e-06
-0.0001447157
0.0001466424
-2.518637e-07
1.860057e-05
-5.368506e-06
-4.709348e-06
-5.299377e-06
-2.794648e-06
-0.0001411981
0.0001244219
-1.310733e-07
2.525656e-05
-5.461766e-07
-3.282001e-06
-1.726428e-06
-2.092802e-06
-0.0001361532
0.0001278383
-1.376411e-06
1.197265e-05
2.752879e-07
5.21598e-07
-9.854684e-07
-2.963808e-07
-0.0001228541
0.0001199081
-5.248106e-07
9.607036e-06
-9.302748e-07
-2.06993e-06
-2.839659e-06
-1.088134e-06
-0.0001182173
0.0001151535
-3.262569e-07
6.0973e-06
-4.761329e-07
-7.806758e-07
-3.622455e-07
3.686511e-06
-0.0001064158
9.313272e-05
-4.155744e-07
4.731888e-06
2.609491e-06
3.015765e-06
-3.449799e-07
8.754597e-07
-8.931814e-05
7.823575e-05
1.660408e-06
6.62257e-06
2.049804e-06
-5.509517e-07
4.251059e-07
1.577726e-06
-7.237961e-05
6.562944e-05
1.330415e-06
-6.877709e-07
5.882231e-07
2.530664e-06
1.410918e-06
-1.687066e-06
-6.401702e-05
5.961208e-05
4.637826e-06
1.172653e-05
-2.171053e-06
-4.80602e-06
-3.295277e-06
-6.144141e-06
-4.825991e-05
3.763755e-05
2.419867e-06
3.140731e-05
-7.231854e-06
-6.059934e-06
-3.768894e-06
-1.51951e-06
-2.129419e-05
5.826516e-06
6.407075e-07
3.387367e-05
-8.085843e-06
-2.34121e-06
-7.100141e-06
-1.992574e-06
-1.981957e-07
2.583091e-06
-9.939095e-07
1.761432e-05
-4.648967e-06
-6.665371e-06
-5.698395e-06
9.51175e-07
-7.845882e-06
1.267701e-05
-9.148031e-07
-9.918777e-06
1.739793e-06
8.441841e-07
2.4673e-06
1.063936e-06
-1.22805e-05
2.244524e-05
-3.947064e-07
-1.5259e-05