/*--------------------------------*- C++ -*----------------------------------*\
| =========                 |                                                 |
| \\      /  F ield         | foam-extend: Open Source CFD                    |
|  \\    /   O peration     | Version:     3.1                                |
|   \\  /    A nd           | Web:         http://www.extend-project.de       |
|    \\/     M anipulation  |                                                 |
\*---------------------------------------------------------------------------*/
FoamFile
{
    version     2.0;
    format      ascii;
    class       volScalarField;
    location    "7";
    object      k;
}
// * * * * * * * * * * * * * * * * * * * * * * * * * * * * * * * * * * * * * //

dimensions      [0 2 -2 0 0 0 0];

internalField   nonuniform List<scalar> 
119952
(
0.005987056
0.005027631
0.005894513
0.006851927
0.007261469
0.007215659
0.007228662
0.007241772
0.007247158
0.007243935
0.00723218
0.007217421
0.007199999
0.00718023
0.007159572
0.007139493
0.007121573
0.00710853
0.007108712
0.007177051
0.008103512
0.007887422
0.007897666
0.008763163
0.008540533
0.008430218
0.008340271
0.008232013
0.007913732
0.01252925
0.01100116
0.008023479
0.007902575
0.008623981
0.009318812
0.009730851
0.00991698
0.009979098
0.00999036
0.01015875
0.01199359
0.01433242
0.01624634
0.0176232
0.01858844
0.01930566
0.01989907
0.02044403
0.02096119
0.0253636
0.0261426
0.02704417
0.02800672
0.02893495
0.02978971
0.03056959
0.03128313
0.03194261
0.03258718
0.03306501
0.03360509
0.03421136
0.03482321
0.03539351
0.03590156
0.03634238
0.03672043
0.03711811
0.03751752
0.03749766
0.03756608
0.03778772
0.03802824
0.03815685
0.03820476
0.03821174
0.0381916
0.03815427
0.03810591
0.03805148
0.03799679
0.03794526
0.03789946
0.03786156
0.03783307
0.03781417
0.03780288
0.03780424
0.03789062
0.03799039
0.0380614
0.03833293
0.03872901
0.0389813
0.03917831
0.03933318
0.03923641
0.03854255
0.03825553
0.03813616
0.03807586
0.03806034
0.03808557
0.03814766
0.03824103
0.03835846
0.0384923
0.03863728
0.03878914
0.03894413
0.03909944
0.03925307
0.03940365
0.03955021
0.03969195
0.0398281
0.03995769
0.04007967
0.04019294
0.04029646
0.0403893
0.04047049
0.04053931
0.04059512
0.04063732
0.04066534
0.04067856
0.04067634
0.040658
0.04062285
0.04057022
0.04049951
0.04041015
0.04030169
0.04017379
0.04002621
0.03985881
0.0396716
0.03946461
0.039238
0.03899193
0.03872643
0.03844171
0.03813814
0.03781605
0.03747503
0.03712317
0.03678762
0.03642976
0.03602294
0.035572
0.03508878
0.03458327
0.03406276
0.03353203
0.03299335
0.03244484
0.03188678
0.03132122
0.03074935
0.03017197
0.02958968
0.02900302
0.02841272
0.02781976
0.0272254
0.02663167
0.02604299
0.02546188
0.02488641
0.0243166
0.02375389
0.02319956
0.02265817
0.0221328
0.02162489
0.02113491
0.02066311
0.02021012
0.01977654
0.01936223
0.01896677
0.01858978
0.01823122
0.01788951
0.01756328
0.0172524
0.01695619
0.01667394
0.01640498
0.01614871
0.01590474
0.01567262
0.01545163
0.01524048
0.01503704
0.01484759
0.01472893
0.01452154
0.01427496
0.01403463
0.01379433
0.01356165
0.01334309
0.01313982
0.01295264
0.01278145
0.01262572
0.01248456
0.01235725
0.01224308
0.01214129
0.0120512
0.01197208
0.01190319
0.0118439
0.01179373
0.01175207
0.01171851
0.01169266
0.01167419
0.01166282
0.01165838
0.01166064
0.01166958
0.01168511
0.01170729
0.01173621
0.01177198
0.01181285
0.0118543
0.01189639
0.01191101
0.01198302
0.01206829
0.01215407
0.01223376
0.01230651
0.01237205
0.01243027
0.01248136
0.01252577
0.01256403
0.01259668
0.01262436
0.0126477
0.01266735
0.0126839
0.01269793
0.01270995
0.01272045
0.01272986
0.01273855
0.01274685
0.01275505
0.01276337
0.01277202
0.01278117
0.0127909
0.01280128
0.01281238
0.01282419
0.01283671
0.01284987
0.01286364
0.01287874
0.01289452
0.01264378
0.01274022
0.01279692
0.01281163
0.01280003
0.01277535
0.01274703
0.01272173
0.01270294
0.01269207
0.01268898
0.01269353
0.01270476
0.01272154
0.01274269
0.01276701
0.01279339
0.01282085
0.01284853
0.01287573
0.01290188
0.01292654
0.01294937
0.01297015
0.01298876
0.01300513
0.01301926
0.01303121
0.01304105
0.01304889
0.01305486
0.01305911
0.01306177
0.013063
0.01306294
0.01306175
0.01305956
0.01305651
0.01305274
0.0130484
0.01304365
0.01303861
0.01303362
0.01302935
0.01302739
0.01302844
0.01302656
0.01302212
0.01301838
0.01301501
0.01301176
0.01300936
0.01300797
0.01301959
0.01307177
0.01304248
0.01301606
0.01298725
0.01295405
0.01291681
0.01287587
0.01283261
0.01278868
0.01274557
0.0127045
0.01266637
0.01263172
0.01260085
0.01257387
0.01255067
0.01253103
0.0125147
0.01250136
0.01249067
0.01248231
0.01247594
0.01247126
0.012468
0.01246591
0.01246475
0.01246432
0.01246447
0.01246503
0.01246589
0.01246693
0.01246807
0.01246924
0.01247039
0.01247146
0.01247244
0.01247328
0.01247398
0.01247453
0.01247492
0.01247514
0.01247522
0.01247514
0.01247493
0.0124746
0.01247416
0.01247363
0.01247303
0.01247238
0.0124717
0.01247101
0.01247033
0.01246966
0.01246903
0.01246843
0.0124679
0.01246743
0.01246705
0.01246675
0.01246655
0.01246647
0.01246651
0.01246669
0.01246701
0.01246749
0.01246814
0.01246897
0.01247
0.01247124
0.01247272
0.01247443
0.0124764
0.01247864
0.01248115
0.01248392
0.01248694
0.01249008
0.01249324
0.01249591
0.01249724
0.0124942
0.01248016
0.0124358
0.01236143
0.01255112
0.08918482
0.08571972
0.08363113
0.082428
0.0816917
0.08107082
0.08043864
0.07965311
0.0786684
0.07440816
0.07027649
0.0687428
0.06844325
0.06862447
0.06891018
0.0691288
0.06921114
0.0691273
0.07608638
0.07525182
0.07452314
0.07375027
0.07299077
0.07231418
0.07177336
0.07123994
0.07076151
0.07026757
0.06983064
0.06959801
0.07026819
0.07172441
0.07292285
0.07303989
0.07194686
0.06999666
0.06762144
0.06519717
0.06265981
0.06022432
0.05809986
0.05621453
0.05450292
0.05291352
0.05143354
0.05008935
0.04891694
0.04788358
0.04704237
0.04638747
0.04592255
0.0456294
0.04547474
0.04542638
0.04546496
0.0455923
0.05018106
0.05039171
0.05063681
0.05093267
0.05129824
0.05172078
0.05217595
0.05264504
0.05311675
0.05357476
0.05400204
0.05440088
0.05477451
0.05512211
0.05543909
0.05572093
0.05596736
0.05619363
0.0564243
0.05658537
0.05662624
0.0566503
0.05667365
0.05666952
0.05661806
0.05652843
0.05641231
0.05627962
0.05613847
0.05599499
0.05585425
0.0557204
0.05559636
0.05548399
0.05538428
0.05529749
0.05522384
0.05516596
0.05513624
0.0551421
0.05517094
0.05525702
0.05544259
0.05567434
0.05590924
0.05613696
0.05629105
0.05626864
0.05616192
0.05612831
0.05615547
0.05621898
0.0563079
0.0564142
0.05653329
0.05666274
0.0568011
0.0569471
0.05709929
0.0572561
0.0574158
0.05757665
0.05773693
0.05789508
0.05804966
0.05819937
0.05834289
0.05847882
0.05860575
0.05872229
0.05882712
0.05891893
0.05899649
0.05905875
0.05910477
0.05913368
0.05914468
0.05913693
0.05910958
0.05906177
0.05899262
0.05890129
0.05878697
0.05864895
0.05848659
0.05829938
0.05808692
0.05784892
0.05758524
0.05729584
0.05698077
0.05664019
0.05627429
0.0558833
0.05546741
0.05502694
0.05456264
0.05407834
0.05357677
0.05305653
0.0525167
0.05195705
0.0513774
0.05077802
0.05015965
0.04952331
0.04887014
0.0482012
0.0475176
0.04682052
0.04611111
0.04539053
0.04465995
0.04392048
0.04317316
0.04241896
0.04165875
0.04089329
0.04012352
0.03935059
0.03857539
0.03779865
0.03702028
0.03623943
0.03545683
0.03467604
0.03389976
0.0331307
0.03237197
0.03162788
0.03090041
0.0301896
0.02949631
0.02882157
0.02816606
0.02753027
0.02691451
0.02631899
0.02574388
0.02518926
0.02465497
0.02414121
0.02364726
0.02317361
0.02271851
0.02228306
0.02186514
0.02147858
0.02094979
0.02023545
0.01966812
0.01919694
0.01879183
0.01843444
0.01811346
0.01782128
0.01755263
0.01730373
0.01707186
0.01685484
0.01665095
0.01645873
0.01627699
0.01610473
0.01594107
0.01578523
0.0156365
0.01549422
0.01535779
0.01522663
0.01510024
0.01497816
0.01485998
0.01474535
0.01463395
0.01452553
0.01441985
0.01431671
0.01421589
0.01411711
0.01401996
0.01392368
0.01382863
0.01373576
0.01365402
0.01358564
0.01352437
0.01346796
0.0134158
0.01336758
0.01332312
0.01328237
0.01324536
0.01321215
0.01318282
0.01315742
0.01313601
0.01311858
0.01310514
0.01309564
0.01309004
0.01308822
0.01309009
0.0130955
0.01310427
0.01311623
0.01313115
0.01314881
0.01316897
0.01319137
0.01321573
0.01324178
0.01326924
0.01329782
0.01332728
0.01335735
0.0133877
0.01341743
0.01397734
0.01400648
0.01404684
0.01408917
0.01412941
0.01416634
0.01419988
0.01423008
0.01425688
0.01428035
0.01430066
0.01431799
0.01433248
0.0143443
0.01435361
0.01436058
0.01436538
0.01436816
0.01436908
0.0143683
0.01436597
0.01436222
0.01435722
0.0143511
0.01434401
0.01433607
0.01432743
0.01431821
0.01430854
0.01429853
0.0142883
0.01427797
0.01426762
0.01425737
0.01424729
0.01423748
0.01422801
0.01421896
0.0142104
0.0142024
0.01419505
0.01418846
0.0141828
0.0141782
0.01417459
0.0141714
0.01416773
0.01416357
0.01415965
0.01415631
0.01415358
0.0141515
0.01415174
0.01415818
0.01416591
0.01416491
0.01415986
0.01415538
0.01415241
0.01415091
0.01415072
0.01415156
0.01415313
0.01415519
0.01415754
0.01416005
0.01416263
0.01416523
0.01416781
0.01417036
0.01417289
0.0141754
0.01417793
0.01418049
0.01418311
0.01418582
0.01418865
0.01419161
0.01419473
0.01419802
0.01420149
0.01420516
0.01420902
0.01421309
0.01421735
0.01422181
0.01422647
0.01423131
0.01423633
0.01424152
0.01424687
0.01425236
0.01425799
0.01426373
0.01426958
0.01427553
0.01428155
0.01428764
0.01429379
0.0143
0.01430624
0.01431253
0.01431885
0.01432522
0.01433163
0.01433809
0.01434461
0.01435119
0.01435786
0.01436463
0.0143715
0.01437851
0.01438567
0.014393
0.01440053
0.01440827
0.01441625
0.0144245
0.01443303
0.01444187
0.01445105
0.01446057
0.01447049
0.01448078
0.01449152
0.01450266
0.01451431
0.01452634
0.01453895
0.01455183
0.01456529
0.01457863
0.01459219
0.01460424
0.01461485
0.01462239
0.01463634
0.01467628
0.01473925
0.07382693
0.0782767
0.08365187
0.08957665
0.09579949
0.1024226
0.1102364
0.1184905
0.1289207
0.1469159
0.2226432
0.2294574
0.2342623
0.2373254
0.2389038
0.2394279
0.2391453
0.2384455
0.2368212
0.2612151
0.2585602
0.2558015
0.2533826
0.2510473
0.2484901
0.2455791
0.242343
0.2388596
0.2352532
0.2313344
0.2273411
0.2233922
0.2195928
0.2159722
0.2125164
0.2091898
0.2059455
0.2027757
0.1992292
0.1956633
0.1919881
0.188237
0.1844419
0.1805857
0.1766991
0.1727934
0.1688738
0.1649698
0.1610329
0.1572128
0.153564
0.149994
0.1463766
0.1427207
0.1390553
0.1354019
0.1409616
0.1375461
0.1341793
0.1309081
0.1276714
0.1244279
0.1211304
0.1177168
0.1141275
0.1103027
0.1062632
0.1023405
0.09902302
0.0966306
0.09521208
0.09458448
0.09436325
0.09411874
0.09362518
0.09271597
0.0913511
0.08961254
0.08760715
0.08543515
0.08317254
0.08087203
0.07858926
0.07640889
0.07438668
0.07254714
0.0709174
0.06951089
0.06832438
0.06734522
0.06655501
0.06593352
0.06545907
0.06512027
0.06487114
0.06473147
0.06469227
0.06474024
0.06484825
0.06501513
0.06525718
0.06556993
0.06592518
0.06629764
0.06666623
0.06702022
0.06735311
0.06765912
0.06793296
0.06817093
0.0683726
0.06854314
0.06868946
0.06878228
0.06879556
0.06876595
0.06871413
0.06863221
0.0685094
0.06834935
0.06816194
0.06795675
0.06774177
0.06752356
0.06730767
0.06709862
0.06689976
0.0667133
0.0665406
0.06638262
0.06624082
0.06611846
0.06602304
0.06596128
0.06593383
0.06595659
0.06605002
0.06619539
0.06636031
0.06652262
0.06664854
0.06668594
0.066647
0.06661612
0.06662592
0.06667135
0.06674205
0.06683084
0.06693304
0.06704535
0.06716543
0.06729147
0.0674219
0.06755518
0.06768978
0.06782415
0.06795675
0.06808609
0.06821081
0.06832967
0.06844137
0.06854448
0.06863756
0.0687192
0.0687881
0.06884302
0.06888272
0.0689061
0.06891219
0.06890013
0.06886908
0.0688182
0.06874659
0.06865335
0.06853754
0.06839827
0.06823468
0.068046
0.06783152
0.06759067
0.06732299
0.06702814
0.0667059
0.06635619
0.06597904
0.06557457
0.06514298
0.06468454
0.06419958
0.06368867
0.06315276
0.06259378
0.06201356
0.06141207
0.06078956
0.06014669
0.05948417
0.05880272
0.05810315
0.05738642
0.05665351
0.05590537
0.05514293
0.05436717
0.05357915
0.05277996
0.05197076
0.05115265
0.0503267
0.04949389
0.04865513
0.0478114
0.04696366
0.04611288
0.04526
0.04440591
0.04355135
0.04269692
0.04184333
0.04099166
0.04014325
0.0392993
0.03846058
0.03762669
0.03679897
0.03598126
0.03517776
0.03439154
0.03362309
0.03287328
0.03214291
0.03143256
0.03074286
0.03007416
0.02942702
0.02880145
0.02819795
0.02761604
0.02705654
0.02651826
0.0260038
0.02550765
0.02502515
0.02456694
0.02413166
0.02371783
0.02332406
0.02294921
0.02259236
0.02225276
0.02192969
0.02162248
0.02133046
0.02105295
0.02078924
0.02053859
0.02030026
0.02007351
0.01985758
0.01965173
0.01945525
0.01926743
0.01908757
0.01891501
0.01874912
0.01858931
0.01843502
0.01828577
0.01814113
0.01800084
0.01786467
0.01773204
0.01760253
0.01747568
0.01735053
0.01722667
0.0171047
0.01698698
0.0168765
0.01677336
0.01667607
0.01658403
0.01649697
0.01641469
0.01633708
0.01626411
0.01619581
0.01613226
0.01607353
0.0160197
0.01597083
0.01592697
0.01588816
0.0158544
0.01582566
0.01580191
0.01578306
0.01576899
0.01575958
0.01575464
0.015754
0.01575742
0.01576465
0.01577544
0.01578948
0.01580649
0.01582614
0.01584813
0.0158721
0.01589782
0.01592492
0.0159542
0.01598895
0.01602292
0.01605321
0.0160799
0.01610495
0.01612964
0.01615416
0.01617814
0.01620114
0.01622285
0.01624302
0.01626149
0.01627813
0.01629281
0.01630547
0.01631605
0.01632453
0.01633093
0.01633526
0.01633757
0.01633794
0.01633646
0.01633322
0.01632835
0.01632195
0.01631418
0.01630517
0.01629505
0.01628399
0.01627212
0.01625959
0.01624656
0.01623316
0.01621952
0.01620579
0.01619209
0.01617853
0.01616522
0.01615228
0.01613979
0.01612786
0.01611658
0.01610602
0.01609622
0.01608709
0.01607847
0.01607008
0.01606187
0.01605396
0.0160466
0.01603976
0.01603346
0.01602729
0.01602111
0.01601512
0.01601098
0.01600845
0.01600705
0.0160061
0.0160053
0.01600471
0.01600449
0.01600471
0.01600542
0.01600662
0.01600828
0.01601039
0.01601292
0.01601585
0.01601916
0.01602281
0.01602679
0.01603107
0.01603562
0.01604044
0.01604549
0.01605076
0.01605624
0.0160619
0.01606773
0.01607372
0.01607984
0.01608609
0.01609246
0.01609893
0.0161055
0.01611215
0.01611887
0.01612567
0.01613253
0.01613945
0.01614642
0.01615344
0.0161605
0.01616759
0.01617471
0.01618185
0.01618902
0.0161962
0.0162034
0.01621061
0.01621783
0.01622507
0.01623233
0.01623962
0.01624694
0.01625431
0.01626174
0.01626924
0.01627685
0.01628456
0.01629242
0.01630045
0.01630866
0.01631711
0.01632581
0.01633481
0.01634413
0.01635382
0.0163639
0.01637442
0.01638541
0.01639689
0.01640893
0.01642152
0.01643473
0.01644855
0.01646308
0.01647823
0.01649418
0.01651068
0.01652802
0.0165457
0.0165643
0.01658328
0.01660463
0.01662937
0.01666263
0.01670138
0.07100613
0.07568806
0.08009968
0.1141839
0.1483954
0.1886012
0.2141649
0.2381552
0.258739
0.2768939
0.2925719
0.3051191
0.3158598
0.3251273
0.3335596
0.3414138
0.3487612
0.3556498
0.3616985
0.3668247
0.3711463
0.3744262
0.3755506
0.3747226
0.3726514
0.3697287
0.3660881
0.3618599
0.3571952
0.3520754
0.3463258
0.3405409
0.3359515
0.3312097
0.326297
0.3208957
0.3150683
0.3090502
0.3030162
0.2971
0.2913737
0.2858641
0.2806127
0.2756192
0.2708839
0.2663978
0.2621397
0.2580784
0.2541786
0.2503834
0.2466256
0.2428762
0.239116
0.2353268
0.231504
0.2276582
0.223806
0.2199949
0.2162999
0.2126454
0.2089685
0.2052484
0.2014702
0.1976296
0.1937138
0.1897214
0.185632
0.1814692
0.1769088
0.1722829
0.1676877
0.1631338
0.1586047
0.1540757
0.1495013
0.1448343
0.1400255
0.1350156
0.1298317
0.1246527
0.1197163
0.115232
0.1113629
0.1082161
0.1058137
0.1040756
0.1028331
0.1018539
0.1009079
0.09981553
0.09851363
0.0970132
0.09534665
0.09355991
0.09170679
0.08983832
0.08800952
0.08626571
0.08464074
0.08315779
0.0818299
0.08066209
0.079654
0.07879944
0.07809581
0.07752244
0.0770756
0.07673962
0.07651363
0.07639043
0.07635492
0.07639259
0.07648652
0.07663593
0.07686314
0.0771458
0.07745579
0.07777311
0.07808296
0.07837356
0.07863585
0.07886322
0.07905127
0.0791984
0.07930544
0.07936122
0.07935368
0.07929584
0.07920199
0.07907263
0.07890388
0.07869827
0.07846336
0.07820752
0.07793834
0.07766253
0.07738598
0.07711371
0.07684968
0.0765968
0.07635714
0.0761324
0.07592471
0.07573721
0.07557521
0.07544482
0.07534997
0.07529917
0.07530201
0.07535018
0.07542243
0.07549886
0.07555702
0.07556946
0.07553851
0.07550342
0.07548931
0.07549968
0.07553051
0.07557777
0.07563809
0.07570849
0.07578645
0.07586989
0.0759569
0.07604571
0.07613469
0.07622224
0.07630676
0.07638672
0.07646078
0.07652778
0.07658651
0.07663557
0.07667346
0.07669885
0.07671061
0.07670769
0.07668903
0.07665366
0.07660074
0.07652953
0.07643929
0.07632923
0.0761985
0.07604619
0.07587139
0.0756732
0.07545077
0.07520331
0.07493014
0.07463066
0.0743044
0.07395099
0.0735702
0.07316194
0.07272619
0.07226308
0.07177281
0.0712557
0.07071217
0.07014284
0.0695486
0.06893072
0.06829061
0.06762886
0.06694595
0.06624262
0.06551973
0.06477818
0.06401891
0.06324296
0.06245139
0.0616452
0.06082536
0.05999285
0.05914875
0.05829415
0.05743021
0.05655807
0.05567879
0.05479334
0.0539026
0.0530075
0.05210902
0.05120811
0.05030571
0.04940268
0.04849977
0.04759768
0.04669717
0.04579906
0.04490426
0.0440136
0.04312785
0.04224784
0.0413747
0.04050952
0.03965268
0.038805
0.03797053
0.03715271
0.03635241
0.0355705
0.03480777
0.03406489
0.03334261
0.03264135
0.03196184
0.0313041
0.03066893
0.03005587
0.02946644
0.02889896
0.02835478
0.02783338
0.02733344
0.02685425
0.02639555
0.0259571
0.02553854
0.02513937
0.02475898
0.02439676
0.02405202
0.02372407
0.02341215
0.02311551
0.02283335
0.02256489
0.02230931
0.02206582
0.02183365
0.02161201
0.02140018
0.02119744
0.02100312
0.02081664
0.02063743
0.02046478
0.0202977
0.0201353
0.0199769
0.01982228
0.01967117
0.0195233
0.01937842
0.01923646
0.01909777
0.0189634
0.01883475
0.01871249
0.01859633
0.01848584
0.01838073
0.01828084
0.01818615
0.01809665
0.01801241
0.01793349
0.01785999
0.01779199
0.01772959
0.01767284
0.0176218
0.01757652
0.01753698
0.01750317
0.01747504
0.01745251
0.01743545
0.01742373
0.01741717
0.01741556
0.01741869
0.01742627
0.01743806
0.0174537
0.01747295
0.01749538
0.01752081
0.01754867
0.01757901
0.01761087
0.0176444
0.0176787
0.01771386
0.01774972
0.01778581
0.0178216
0.01785671
0.01789083
0.01792372
0.01795517
0.01798504
0.01801318
0.01803948
0.0180638
0.01808607
0.01810619
0.01812411
0.01813978
0.01815319
0.01816434
0.01817324
0.01817994
0.01818451
0.01818702
0.01818758
0.01818628
0.01818326
0.01817864
0.01817257
0.01816519
0.01815665
0.0181471
0.0181367
0.01812561
0.01811397
0.01810193
0.01808964
0.01807722
0.01806481
0.01805252
0.01804045
0.01802872
0.01801737
0.01800645
0.01799596
0.01798587
0.01797609
0.01796658
0.01795737
0.01794859
0.0179403
0.0179326
0.01792563
0.01791964
0.01791442
0.01790949
0.01790445
0.01789958
0.01789523
0.01789153
0.01788856
0.01788632
0.01788481
0.017884
0.01788386
0.01788435
0.01788544
0.01788709
0.01788929
0.01789199
0.01789518
0.01789882
0.01790288
0.01790732
0.01791213
0.01791728
0.01792272
0.01792845
0.01793442
0.01794062
0.01794701
0.01795359
0.01796031
0.01796718
0.01797416
0.01798124
0.01798842
0.01799567
0.018003
0.01801038
0.01801782
0.0180253
0.01803282
0.01804038
0.01804796
0.01805557
0.0180632
0.01807085
0.01807851
0.01808618
0.01809388
0.01810158
0.0181093
0.01811705
0.01812482
0.01813262
0.01814048
0.01814839
0.01815638
0.01816446
0.01817266
0.018181
0.0181895
0.01819821
0.01820714
0.01821635
0.01822586
0.01823573
0.01824599
0.01825669
0.01826788
0.01827959
0.01829189
0.01830481
0.0183184
0.01833271
0.01834777
0.01836366
0.01838039
0.01839806
0.01841666
0.01843635
0.01845715
0.01847934
0.01850322
0.01852927
0.0185585
0.01859103
0.01862564
0.05100815
0.05307029
0.05521459
0.06719102
0.08486461
0.1133353
0.1327807
0.1523909
0.172299
0.1913897
0.2101906
0.2296563
0.2495912
0.2689166
0.2881552
0.30919
0.3405636
0.3502232
0.3583976
0.3650108
0.3706646
0.3741841
0.3753275
0.3748296
0.3731342
0.3705348
0.3673423
0.3638778
0.3604852
0.3573868
0.3545701
0.3521544
0.3496209
0.3472671
0.3452942
0.3435617
0.3419215
0.3402843
0.3386036
0.3368273
0.3349986
0.3329554
0.3302397
0.3274786
0.324549
0.3212946
0.317552
0.3132217
0.3086541
0.3040485
0.2995279
0.2951684
0.2909976
0.2870465
0.2833278
0.2798447
0.2765863
0.2735273
0.2706301
0.2678374
0.2650759
0.2622694
0.2593697
0.2563516
0.2532147
0.2499789
0.2466796
0.2433858
0.2401631
0.2369099
0.2336141
0.2302574
0.2268284
0.2233129
0.2197015
0.215973
0.2121201
0.2081146
0.2039921
0.199716
0.1952633
0.1906735
0.1859936
0.1812402
0.1764068
0.1714694
0.1664001
0.1611706
0.155752
0.1501551
0.1444654
0.1388157
0.1333408
0.1281697
0.1234341
0.1192574
0.1157286
0.1128717
0.1106247
0.1088534
0.1073863
0.1060623
0.1047605
0.1034108
0.1019915
0.1005167
0.09901966
0.09753696
0.09609849
0.0947262
0.09343514
0.09223482
0.0911308
0.09012732
0.08922683
0.08843443
0.08774893
0.08716782
0.0866881
0.0863131
0.08604266
0.0858709
0.08578933
0.08578659
0.08584881
0.08596028
0.08614133
0.08638053
0.0866531
0.08693863
0.08721984
0.08748259
0.08771533
0.08790907
0.08805608
0.08815504
0.08820242
0.08819409
0.08813518
0.0880335
0.08789187
0.08771047
0.08749189
0.08724173
0.08696675
0.08667368
0.08636889
0.0860583
0.0857472
0.08544016
0.08514088
0.0848523
0.08457693
0.08431727
0.08407573
0.08385521
0.08366164
0.0835001
0.08337603
0.08329372
0.08324861
0.08322806
0.08321775
0.08320257
0.08316716
0.08311045
0.0830493
0.08299901
0.08296457
0.08294529
0.08293923
0.08294409
0.08295746
0.08297705
0.08300077
0.08302663
0.08305276
0.08307753
0.08309935
0.0831166
0.08312765
0.08313115
0.08312605
0.0831113
0.08308561
0.0830476
0.08299608
0.0829302
0.08284913
0.08275214
0.08263865
0.08250812
0.08236004
0.08219385
0.08200886
0.0818043
0.08157935
0.08133317
0.08106495
0.08077391
0.08045935
0.08012065
0.07975727
0.07936878
0.07895486
0.07851528
0.07804995
0.07755888
0.07704215
0.07649998
0.07593267
0.07534064
0.0747245
0.07408499
0.07342311
0.07273989
0.07203608
0.0713123
0.07056927
0.06980783
0.06902883
0.06823314
0.06742173
0.06659559
0.06575571
0.06490313
0.06403892
0.06316414
0.06227988
0.06138724
0.06048732
0.05958116
0.05866966
0.05775365
0.05683403
0.05591172
0.05498764
0.05406263
0.05313748
0.05221288
0.05128953
0.05036808
0.04944923
0.04853365
0.04762207
0.04671517
0.0458137
0.04491843
0.04403006
0.04314933
0.04227724
0.04141449
0.04056209
0.03972393
0.03890154
0.03809589
0.03730786
0.03653835
0.03578816
0.03505808
0.03434868
0.0336607
0.03299445
0.03235065
0.03172939
0.03113104
0.0305556
0.03000257
0.02947147
0.02896198
0.02847385
0.02800671
0.02756012
0.02713354
0.02672642
0.02633815
0.02596808
0.02561553
0.02527977
0.02496004
0.02465555
0.02436552
0.02408914
0.02382561
0.02357414
0.02333395
0.02310431
0.02288454
0.022674
0.02247155
0.02227604
0.02208692
0.0219037
0.02172586
0.02155299
0.02138468
0.02122059
0.0210605
0.02090434
0.0207523
0.02060488
0.02046284
0.02032677
0.02019675
0.02007254
0.01995394
0.01984084
0.01973326
0.01963123
0.01953483
0.01944414
0.01935929
0.01928037
0.0192075
0.01914078
0.0190803
0.01902613
0.01897829
0.01893682
0.01890169
0.01887285
0.01885023
0.01883372
0.01882317
0.0188184
0.01881921
0.01882535
0.01883657
0.01885255
0.01887301
0.01889757
0.01892593
0.01895765
0.01899237
0.01902955
0.01906883
0.01910988
0.01915236
0.01919585
0.01923994
0.01928431
0.01932869
0.01937278
0.01941629
0.0194589
0.01950034
0.01954037
0.01957876
0.01961532
0.01964987
0.01968228
0.01971241
0.01974017
0.01976547
0.01978828
0.01980857
0.01982635
0.01984165
0.01985451
0.01986501
0.01987323
0.01987927
0.01988325
0.01988529
0.01988553
0.01988411
0.01988119
0.01987692
0.01987146
0.01986497
0.01985761
0.01984954
0.0198409
0.01983184
0.01982249
0.01981297
0.01980339
0.01979384
0.01978439
0.01977508
0.01976594
0.01975695
0.01974813
0.01973953
0.01973122
0.0197233
0.01971583
0.01970884
0.0197023
0.01969614
0.01969042
0.01968523
0.01968066
0.01967669
0.01967327
0.01967036
0.019668
0.0196662
0.019665
0.0196644
0.01966439
0.01966498
0.01966614
0.01966786
0.01967012
0.01967289
0.01967615
0.01967987
0.01968401
0.01968855
0.01969345
0.01969869
0.01970423
0.01971005
0.01971612
0.01972241
0.01972891
0.01973558
0.01974242
0.01974941
0.01975652
0.01976375
0.01977109
0.01977853
0.01978605
0.01979366
0.01980133
0.01980907
0.01981688
0.01982473
0.01983264
0.0198406
0.0198486
0.01985665
0.01986473
0.01987286
0.01988102
0.01988923
0.01989748
0.01990579
0.01991415
0.01992258
0.01993108
0.01993968
0.01994839
0.01995722
0.01996621
0.01997537
0.01998473
0.01999434
0.02000422
0.02001442
0.02002498
0.02003595
0.02004738
0.02005933
0.02007184
0.02008498
0.0200988
0.02011335
0.0201287
0.0201449
0.02016201
0.02018011
0.02019927
0.02021959
0.02024118
0.02026422
0.02028889
0.0203155
0.02034425
0.02037574
0.02040919
0.02044253
0.02544636
0.0287267
0.03092385
0.04260776
0.05601433
0.07314555
0.08703646
0.1022977
0.1183248
0.1346981
0.151871
0.171282
0.1913941
0.2128019
0.2375184
0.2738861
0.289471
0.304742
0.3191491
0.3326726
0.3452942
0.3569456
0.3672249
0.3757635
0.3826269
0.3876619
0.3908163
0.3931317
0.3938016
0.3927442
0.3900644
0.3859996
0.3805804
0.3740625
0.3667801
0.3590831
0.3512834
0.3436596
0.3367262
0.3308787
0.3256852
0.3215655
0.3183599
0.31598
0.3144846
0.3137527
0.3135939
0.3138214
0.3142472
0.3147279
0.315076
0.3151994
0.3148981
0.3141921
0.3130691
0.3114617
0.3092009
0.306547
0.3037198
0.3008649
0.2980658
0.2953747
0.2928197
0.2904276
0.2882249
0.2862242
0.284417
0.2827765
0.2812527
0.2797561
0.2781653
0.2763562
0.2742501
0.2718351
0.2691396
0.266222
0.2631792
0.2601846
0.257169
0.2541154
0.2510041
0.2478194
0.2445483
0.2411763
0.2376877
0.2340603
0.2302732
0.2263085
0.2221755
0.2178679
0.2133786
0.2087324
0.203961
0.1990745
0.1940775
0.1889605
0.183709
0.1783065
0.1727344
0.1669945
0.1611289
0.1552067
0.1493013
0.1434928
0.1378842
0.1326036
0.1277858
0.1235436
0.1199392
0.1169663
0.114548
0.1125606
0.1108671
0.1093475
0.1079191
0.1065403
0.1052035
0.10392
0.1027046
0.1015677
0.1005124
0.0995351
0.09862859
0.09778583
0.09700203
0.09627711
0.09561323
0.09501333
0.09448321
0.09403096
0.09366374
0.09338512
0.0931952
0.09309057
0.09306426
0.09310476
0.09319622
0.09335105
0.0935615
0.09380675
0.09406738
0.09432536
0.09456301
0.09476681
0.09492548
0.095037
0.09510025
0.09511381
0.09507925
0.09500024
0.09487966
0.09471918
0.09452109
0.09428936
0.0940291
0.09374588
0.09344527
0.09313269
0.09281332
0.09249188
0.09217256
0.09185893
0.09155404
0.09126087
0.09098224
0.09071975
0.09047855
0.09026324
0.09007759
0.0899237
0.08979924
0.08969733
0.08960918
0.08952555
0.08943752
0.08934198
0.08924247
0.08914758
0.08906199
0.08898663
0.08892069
0.0888625
0.08880997
0.08876081
0.088713
0.08866469
0.08861425
0.08856021
0.08850118
0.08843555
0.08836166
0.08827813
0.08818404
0.08807846
0.08796039
0.08782893
0.0876834
0.08752332
0.08734814
0.08715714
0.08695037
0.08672777
0.08648911
0.08623398
0.08596186
0.08567212
0.08536411
0.08503714
0.08469059
0.08432385
0.08393639
0.08352772
0.08309745
0.08264524
0.08217086
0.08167414
0.08115503
0.08061352
0.0800497
0.07946375
0.07885591
0.07822657
0.07757619
0.07690538
0.07621487
0.07550543
0.07477773
0.07403239
0.07327006
0.07249147
0.07169737
0.07088849
0.07006566
0.06922972
0.06838138
0.06752172
0.06665183
0.06577276
0.06488547
0.06399094
0.06309013
0.06218393
0.06127319
0.06035868
0.05944124
0.05852175
0.05760103
0.05667981
0.05575876
0.05483852
0.05391968
0.0530028
0.05208842
0.05117708
0.05026933
0.0493657
0.04846675
0.04757306
0.04668522
0.04580386
0.04492963
0.04406323
0.04320538
0.04235669
0.04152007
0.04069701
0.03988857
0.03909584
0.03831982
0.03756148
0.03682169
0.0361013
0.03540101
0.03472152
0.03406336
0.03342693
0.03281247
0.03222003
0.03164947
0.03110067
0.03057349
0.03006769
0.02958295
0.02911889
0.02867505
0.02825093
0.02784596
0.02745953
0.02709097
0.02673958
0.02640461
0.0260853
0.02578086
0.02549048
0.02521337
0.02494872
0.02469577
0.02445375
0.02422172
0.02399863
0.02378386
0.02357678
0.02337678
0.02318329
0.02299579
0.02281382
0.02263701
0.02246508
0.02229791
0.02213554
0.02197822
0.02182637
0.02168032
0.02154021
0.02140596
0.02127744
0.02115463
0.02103754
0.02092623
0.0208208
0.02072135
0.02062801
0.02054092
0.02046021
0.02038601
0.02031844
0.02025761
0.02020359
0.02015645
0.0201162
0.02008283
0.02005632
0.02003659
0.02002353
0.020017
0.02001681
0.02002275
0.02003458
0.02005201
0.02007475
0.02010244
0.02013473
0.02017121
0.02021148
0.02025509
0.02030165
0.0203507
0.02040174
0.02045431
0.02050805
0.02056263
0.02061773
0.02067301
0.02072812
0.02078272
0.02083648
0.0208891
0.02094033
0.02098991
0.02103761
0.02108323
0.02112657
0.02116747
0.02120579
0.02124142
0.02127429
0.02130439
0.02133171
0.02135627
0.02137811
0.0213973
0.0214139
0.02142801
0.02143973
0.02144918
0.02145651
0.02146184
0.02146535
0.02146717
0.02146749
0.02146646
0.02146424
0.02146101
0.0214569
0.02145208
0.02144667
0.0214408
0.02143458
0.02142811
0.02142145
0.02141468
0.02140783
0.02140097
0.02139414
0.02138743
0.02138092
0.02137466
0.02136869
0.02136305
0.02135779
0.02135292
0.02134848
0.02134446
0.02134089
0.02133781
0.02133524
0.0213332
0.02133172
0.0213308
0.02133045
0.02133067
0.02133143
0.02133274
0.02133458
0.02133692
0.02133975
0.02134304
0.02134675
0.02135088
0.02135537
0.02136022
0.02136538
0.02137085
0.02137658
0.02138256
0.02138876
0.02139518
0.02140179
0.02140857
0.02141552
0.02142262
0.02142986
0.02143724
0.02144474
0.02145235
0.02146008
0.02146791
0.02147584
0.02148387
0.02149198
0.02150019
0.02150847
0.02151684
0.02152529
0.02153381
0.02154241
0.02155109
0.02155985
0.02156869
0.02157762
0.02158664
0.02159576
0.02160499
0.02161434
0.02162383
0.02163347
0.02164328
0.02165329
0.02166353
0.02167402
0.0216848
0.02169591
0.0217074
0.02171932
0.02173172
0.02174465
0.02175818
0.02177237
0.02178728
0.02180297
0.02181952
0.02183699
0.02185544
0.02187495
0.02189561
0.02191751
0.0219408
0.02196565
0.02199221
0.02202074
0.02205135
0.02208432
0.02211873
0.02215149
0.005370508
0.02367716
0.03441884
0.04679169
0.06045298
0.07568828
0.09255533
0.1105129
0.1299559
0.15271
0.1861268
0.2030706
0.2204244
0.2375463
0.254456
0.2710145
0.2871069