/*--------------------------------*- C++ -*----------------------------------*\
| =========                 |                                                 |
| \\      /  F ield         | foam-extend: Open Source CFD                    |
|  \\    /   O peration     | Version:     3.1                                |
|   \\  /    A nd           | Web:         http://www.extend-project.de       |
|    \\/     M anipulation  |                                                 |
\*---------------------------------------------------------------------------*/
FoamFile
{
    version     2.0;
    format      ascii;
    class       volScalarField;
    location    "7";
    object      omega;
}
// * * * * * * * * * * * * * * * * * * * * * * * * * * * * * * * * * * * * * //

dimensions      [0 0 -1 0 0 0 0];

internalField   nonuniform List<scalar> 
119952
(
110.4677
132.7436
137.38
130.5066
122.1408
124.1353
126.8561
129.6942
132.5867
135.529
138.5259
141.6346
144.8663
148.2335
151.7619
155.4801
159.4208
163.6334
168.239
173.9319
152.0283
151.5966
153.3075
133.6711
131.9698
131.1191
130.4215
129.5769
126.9217
159.5658
275.5795
200.3559
170.2414
155.4568
143.5451
131.9796
121.0773
111.3165
102.8024
94.19941
69.96957
57.98958
52.12569
48.84301
46.53302
44.59265
42.84083
41.23098
39.72349
31.56695
29.23886
27.42358
26.14616
25.23248
24.52482
23.93332
23.4115
22.93364
22.48257
21.78913
20.99693
20.29021
19.72128
19.2668
18.88989
18.56087
18.25598
17.97085
18.13848
17.9409
17.59214
17.26596
17.00409
16.78701
16.60477
16.45777
16.3413
16.25127
16.18485
16.13871
16.10947
16.09398
16.08952
16.0937
16.10418
16.11788
16.12902
16.12733
16.12642
16.12523
16.08319
16.04849
16.07709
16.11273
16.1733
16.37321
17.0264
18.0357
18.27933
18.36494
18.3948
18.38961
18.36508
18.33384
18.30488
18.28416
18.27505
18.27702
18.28804
18.30648
18.33076
18.35938
18.39112
18.42498
18.46026
18.49645
18.53328
18.57054
18.60807
18.64575
18.68351
18.72138
18.75933
18.79733
18.83539
18.87351
18.91171
18.95001
18.98848
19.02716
19.06613
19.10545
19.14522
19.18553
19.22648
19.26819
19.31079
19.35443
19.39927
19.44548
19.49358
19.5443
19.59815
19.65536
19.71572
19.77757
19.84083
20.09311
20.4281
20.73062
20.983
21.1886
21.35633
21.49534
21.61346
21.71747
21.81876
21.92632
22.03911
22.15755
22.28268
22.41596
22.55895
22.71302
22.8793
23.05859
23.25102
23.45405
23.66413
23.88417
24.11466
24.3684
24.64224
24.93157
25.23354
25.54726
25.87202
26.20659
26.54989
26.89946
27.25358
27.61019
27.96764
28.32427
28.67714
29.02685
29.3717
29.71087
30.04411
30.37165
30.69394
31.01186
31.32588
31.63528
31.93925
32.2268
32.44308
34.19779
37.47606
39.97215
41.83649
43.22961
44.29815
45.13973
45.83766
46.44602
47.00131
47.52628
48.03868
48.55237
49.07601
49.61564
50.17567
50.75936
51.36931
52.00836
52.67793
53.37955
54.11442
54.88382
55.6887
56.52995
57.40843
58.32495
59.27995
60.2738
61.30627
62.37656
63.48245
64.61459
65.73625
66.7973
66.87138
65.93057
65.06789
64.2486
63.45379
62.67533
61.90764
61.14673
60.39038
59.63784
58.8892
58.14499
57.4061
56.67363
55.94885
55.23299
54.52725
53.83276
53.15054
52.48151
51.82647
51.18611
50.561
49.95156
49.35813
48.78088
48.22002
47.67561
47.14751
46.63556
46.13948
45.65878
45.19316
44.7454
44.31511
34.8244
34.54404
34.18324
33.71644
33.23486
32.76087
32.30211
31.87274
31.47959
31.12414
30.80459
30.51811
30.26092
30.02857
29.81677
29.62151
29.43918
29.26665
29.10125
28.94078
28.78342
28.62771
28.47254
28.31704
28.1606
28.00279
27.84333
27.68206
27.51894
27.35399
27.1873
27.01901
26.84927
26.6783
26.50631
26.33356
26.1603
25.9868
25.81334
25.64027
25.46788
25.29682
25.12792
24.96297
24.80556
24.65921
24.52297
24.39181
24.26438
24.14057
24.02018
23.90405
23.79248
23.68872
23.65832
23.54782
23.44249
23.33016
23.20591
23.071
22.92707
22.77689
22.62355
22.4698
22.31795
22.16978
22.02651
21.88886
21.75718
21.63153
21.51174
21.39748
21.28831
21.18371
21.08314
20.98608
20.89202
20.80048
20.71104
20.62331
20.53695
20.45168
20.36725
20.28345
20.20011
20.11709
20.03429
19.95163
19.86906
19.78653
19.70403
19.62155
19.53909
19.45666
19.37429
19.29198
19.20977
19.12768
19.04573
18.96394
18.88233
18.8009
18.71965
18.63856
18.55763
18.47683
18.39613
18.3155
18.23491
18.15434
18.07374
17.9931
17.91237
17.83152
17.75053
17.66937
17.588
17.50641
17.42456
17.34243
17.25998
17.17718
17.09398
17.0103
16.92606
16.84113
16.75532
16.66841
16.58003
16.48972
16.39672
16.29994
16.19747
16.08581
15.95744
15.79591
15.56526
15.22649
15.12515
725.2974
602.1725
515.4074
451.4372
402.0547
362.3425
329.5075
301.6392
276.593
239.3107
203.8709
179.7879
162.533
149.5052
139.1905
130.6878
123.4397
117.0582
92.99051
89.53332
86.22965
83.04349
80.0485
77.31555
74.96576
73.40385
72.83146
73.37282
75.22563
77.48145
78.98862
78.7042
76.38629
72.30902
67.07362
61.40995
55.91009
51.10909
46.87359
43.03555
39.64142
36.64935
34.03141
31.75275
29.77601
28.06172
26.57392
25.27753
24.12486
23.08273
22.141
21.29673
20.54582
19.88136
19.29436
18.78019
17.48533
17.06174
16.67035
16.30521
15.96563
15.65262
15.36596
15.10365
14.86374
14.64262
14.43256
14.22962
14.03342
13.8453
13.6664
13.49718
13.33778
13.19019
13.06088
12.94664
12.83091
12.72058
12.61728
12.51831
12.42062
12.32454
12.23104
12.14101
12.05511
11.97381
11.89737
11.82592
11.75937
11.69747
11.63979
11.58575
11.53461
11.4857
11.43952
11.39699
11.35604
11.31951
11.29526
11.28171
11.27579
11.27965
11.30045
11.33517
11.35804
11.37391
11.38747
11.39865
11.40615
11.40936
11.40838
11.4038
11.39642
11.38702
11.37623
11.36458
11.35241
11.33995
11.32733
11.3146
11.30174
11.28876
11.27564
11.26233
11.24882
11.23507
11.22105
11.20672
11.19203
11.17693
11.16137
11.14531
11.1287
11.1115
11.09369
11.07522
11.05606
11.03618
11.01555
10.99414
10.97193
10.9489
10.92503
10.90031
10.87474
10.84832
10.82105
10.79297
10.76408
10.73442
10.704
10.67279
10.64081
10.6086
10.57789
10.54947
10.5232
10.49852
10.4747
10.45113
10.42734
10.40304
10.37819
10.35289
10.32733
10.30171
10.27624
10.25113
10.22659
10.20286
10.18015
10.15873
10.13888
10.12099
10.10562
10.09319
10.08395
10.07831
10.07693
10.08128
10.09242
10.109
10.13004
10.15461
10.18165
10.20941
10.23707
10.26468
10.292
10.31865
10.34431
10.36856
10.39087
10.41076
10.42773
10.44139
10.45131
10.45723
10.45879
10.45584
10.44796
10.43483
10.41528
10.37709
10.67951
11.02532
11.25667
11.40678
11.49994
11.55305
11.57814
11.58387
11.57636
11.5599
11.5375
11.51139
11.48324
11.45429
11.42546
11.39745
11.3708
11.34588
11.32302
11.30244
11.28429
11.26869
11.25569
11.24531
11.2375
11.2322
11.22928
11.22854
11.22971
11.23237
11.23587
11.23915
11.24022
11.23495
11.21267
11.17437
11.1288
11.08162
11.03324
10.98366
10.93325
10.88234
10.83113
10.77976
10.72837
10.67707
10.62597
10.57514
10.52468
10.47467
10.42518
10.37628
10.32805
10.28058
10.23393
10.18818
10.14342
10.09973
10.05718
10.01586
9.975839
9.937201
9.900017
9.864356
9.830285
9.797871
9.767188
9.738321
9.711408
9.687783
8.368852
8.325139
8.291655
8.264607
8.241681
8.221787
8.204446
8.189277
8.17588
8.163925
8.153171
8.143444
8.1346
8.126515
8.119093
8.112245
8.105893
8.099965
8.094388
8.089092
8.084006
8.079061
8.074184
8.069305
8.064356
8.059269
8.05398
8.04843
8.042562
8.036327
8.029682
8.022588
8.015017
8.006948
7.998369
7.989276
7.979678
7.969592
7.959053
7.94811
7.936844
7.925372
7.91385
7.902468
7.891365
7.880559
7.869883
7.859123
7.84832
7.837548
7.826867
7.816143
7.805769
7.797247
7.790137
7.780683
7.769675
7.758454
7.747506
7.736759
7.726119
7.715503
7.704839
7.694057
7.683106
7.671951
7.660569
7.648946
7.637082
7.624985
7.612667
7.600146
7.587437
7.57456
7.561532
7.548371
7.535094
7.521717
7.508255
7.494724
7.481136
7.467502
7.453833
7.440137
7.426421
7.412689
7.398944
7.38519
7.371427
7.357654
7.34387
7.330073
7.316258
7.302421
7.288558
7.274663
7.260729
7.246752
7.232726
7.218643
7.204498
7.190283
7.175992
7.161614
7.147143
7.13257
7.117884
7.103078
7.08814
7.073061
7.057832
7.042441
7.026877
7.011129
6.995185
6.979032
6.962657
6.946045
6.929183
6.912053
6.894639
6.876917
6.858866
6.84045
6.821636
6.802366
6.782584
6.762183
6.741063
6.719016
6.695828
6.671058
6.644184
6.614264
6.580241
6.541181
6.497347
6.453468
6.415548
711.7101
623.7477
552.62
500.3375
459.8973
428.0174
403.6032
383.5211
369.2351
358.1757
165.8774
158.5881
151.6722
145.0607
138.967
133.2273
127.8476
122.325
116.9137
88.64883
81.48417
76.18753
72.26894
69.25775
66.81765
64.74285
62.90971
61.24224
59.72064
58.21954
56.6389
55.03636
53.46678
51.97426
50.58277
49.30257
48.13574
47.05594
46.71794
46.23435
45.6714
45.08194
44.50402
43.95555
43.45068
42.9986
42.60214
42.25855
41.94543
41.63466
41.31071
40.99312
40.73209
40.5077
40.2955
40.08884
36.50441
36.21141
35.95129
35.73951
35.58469
35.49688
35.49866
35.62254
35.91479
36.40575
37.09541
37.93734
38.86464
39.80862
40.67725
41.34866
41.69071
41.59926
41.01898
39.95238
38.46855
36.70084
34.7815
32.82545
30.91989
29.1196
27.45082
25.92269
24.53393
23.27593
22.14082
21.11982
20.20297
19.38049
18.64308
17.98224
17.3896
16.85616
16.40353
15.99178
15.61872
15.28233
14.97951
14.70567
14.45659
14.22927
14.02107
13.82911
13.65025
13.48224
13.32346
13.17266
13.02884
12.89132
12.75971
12.6343
12.51616
12.40269
12.28971
12.17973
12.07429
11.97206
11.8712
11.77132
11.67278
11.57608
11.48161
11.38969
11.30061
11.21457
11.13169
11.05196
10.9753
10.90158
10.83069
10.76264
10.69789
10.63698
10.57977
10.52762
10.4832
10.44594
10.41364
10.3852
10.35945
10.33247
10.30169
10.27221
10.24643
10.22376
10.20301
10.18332
10.1641
10.14498
10.12576
10.10636
10.08675
10.06697
10.04703
10.02696
10.00676
9.986442
9.965995
9.945418
9.924702
9.903826
9.882759
9.861465
9.839908
9.818047
9.795826
9.773189
9.750081
9.72645
9.702249
9.677429
9.651942
9.625741
9.59878
9.571011
9.542395
9.512892
9.482468
9.451092
9.418742
9.385399
9.351053
9.315698
9.279338
9.241982
9.203641
9.164332
9.124071
9.082887
9.040843
8.998108
8.954978
8.911601
8.868086
8.824511
8.78091
8.737282
8.693615
8.649914
8.606205
8.562531
8.518953
8.475544
8.43239
8.389583
8.347227
8.305433
8.264316
8.223995
8.184599
8.146275
8.109192
8.073514
8.039417
8.007102
7.976789
7.948698
7.922936
7.899493
7.878359
7.859589
7.843429
7.830587
7.820975
7.813519
7.80701
7.800486
7.793796
7.786729
7.779023
7.770383
7.760499
7.749066
7.735774
7.720332
7.702531
7.682067
7.658921
7.632594
7.603548
7.57117
7.549412
7.515031
7.472256
7.424098
7.372594
7.319049
7.264343
7.209096
7.153759
7.098672
7.044107
6.990291
6.937413
6.885637
6.835097
6.785907
6.738154
6.691908
6.647217
6.60411
6.562599
6.522679
6.484322
6.447488
6.41212
6.378149
6.345459
6.313815
6.282979
6.25288
6.223292
6.193817
6.164545
6.135354
6.105869
6.076095
6.046495
6.01731
5.988468
5.959915
5.931624
5.903564
5.875706
5.848028
5.820513
5.793152
5.765941
5.738879
5.711975
5.68524
5.658692
5.632355
5.606255
5.580426
5.554903
5.529727
5.504938
5.480583
5.456707
5.433357
5.41058
5.388427
5.366939
5.34617
5.326155
5.306953
5.288591
5.27115
5.254589
5.237237
5.240298
5.242103
5.242509
5.241683
5.24015
5.238353
5.236534
5.2348
5.233202
5.231771
5.230532
5.229506
5.228701
5.228118
5.227753
5.227593
5.227624
5.22783
5.228187
5.228674
5.229263
5.229927
5.230636
5.231359
5.232067
5.232728
5.233313
5.233792
5.234138
5.234326
5.234331
5.234135
5.233719
5.233069
5.232177
5.231036
5.229646
5.228012
5.226146
5.224068
5.221806
5.219399
5.216892
5.214331
5.21175
5.209162
5.206541
5.203847
5.201059
5.198198
5.19526
5.192263
5.18919
5.186037
5.182816
5.179758
5.176881
5.174091
5.17133
5.168496
5.165573
5.162576
5.159521
5.156421
5.15328
5.1501
5.146881
5.143621
5.140319
5.136972
5.133576
5.130127
5.126622
5.123056
5.119425
5.115724
5.11195
5.108101
5.104173
5.100165
5.096076
5.091905
5.08765
5.083312
5.07889
5.074384
5.069793
5.065117
5.060357
5.05551
5.050578
5.045558
5.040451
5.035255
5.029969
5.024592
5.019124
5.013563
5.007907
5.002157
4.996311
4.990367
4.984324
4.978182
4.971937
4.965589
4.959134
4.952571
4.945896
4.939107
4.932199
4.92517
4.918013
4.910725
4.9033
4.895731
4.888012
4.880136
4.872094
4.863878
4.855476
4.846878
4.838067
4.829027
4.819732
4.81016
4.80026
4.790002
4.779294
4.768081
4.756188
4.743523
4.729769
4.714827
4.698269
4.680252
4.660455
4.640145
4.620413
463.7895
327.4036
472.7791
203.2252
155.4758
111.893
94.67463
80.68417
69.85391
64.6517
62.64125
61.49934
60.57778
60.25767
60.09502
60.14532
60.31765
60.56376
60.81964
60.99153
60.94534
60.47229
59.60655
58.69212
57.59572
56.40471
55.10354
53.72951
52.33244
50.92202
49.46028
45.28511
44.06399
42.87711
41.71475
40.5857
39.51362
38.50316
37.55514
36.66895
35.84219
35.06977
34.34854
33.67421
33.04352
32.45426
31.90479
31.39408
30.92167
30.48707
30.09065
29.73277
29.41352
29.13203
28.88729
28.67852
28.50396
28.35447
28.21594
28.10542
28.03099
27.98717
27.96845
27.96846
27.98028
27.99649
28.00925
28.00658
28.118
28.211
28.26926
28.30479
28.33178
28.36341
28.41491
28.50446
28.6543
28.88644
29.21519
29.64311
30.16644
30.77501
31.44396
32.12508
32.74579
33.22351
33.48072
33.45145
33.10147
32.4491
31.542
30.44779
29.23931
27.98253
26.72911
25.51413
24.35734
23.26779
22.24869
21.30022
20.42117
19.60989
18.86457
18.18295
17.56319
17.00086
16.49632
16.04309
15.6375
15.27562
14.95278
14.66433
14.40641
14.17557
13.96857
13.78138
13.61019
13.45207
13.3047
13.16619
13.03504
12.91005
12.79021
12.67476
12.56326
12.45416
12.34555
12.23785
12.13182
12.02706
11.9227
11.81846
11.71456
11.61137
11.50924
11.40851
11.30949
11.21244
11.11757
11.02503
10.9349
10.84726
10.76221
10.67998
10.60095
10.52557
10.45408
10.38713
10.32573
10.26956
10.21728
10.1676
10.11917
10.06988
10.01932
9.970049
9.923843
9.880879
9.840732
9.802968
9.767206
9.733104
9.700373
9.668779
9.638129
9.608259
9.579033
9.550332
9.522045
9.494073
9.466336
9.438774
9.411331
9.383939
9.356525
9.329019
9.301365
9.273505
9.245373
9.216897
9.188012
9.158657
9.128775
9.098306
9.067194
9.03538
9.002808
8.969424
8.935181
8.900036
8.863951
8.826894
8.788842
8.749776
8.709686
8.66857
8.62643
8.583277
8.539128
8.494002
8.447927
8.400943
8.353108
8.304511
8.255274
8.205469
8.155152
8.104393
8.053263
8.001832
7.950164
7.898331
7.846413
7.794486
7.742623
7.690898
7.639387
7.588171
7.537336
7.486971
7.437163
7.387994
7.339546
7.291903
7.245159
7.19941
7.154756
7.111294
7.069112
7.028288
6.98888
6.950935
6.914497
6.879621
6.846375
6.814848
6.785078
6.757082
6.731009
6.706812
6.683635
6.66076
6.637996
6.615143
6.591985
6.568292
6.543838
6.518396
6.491778
6.463768
6.434246
6.403025
6.370124
6.33543
6.29973
6.262567
6.223634
6.182819
6.140225
6.096066
6.050595
6.004087
5.956763
5.908888
5.860718
5.812488
5.764414
5.716691
5.669496
5.622982
5.577281
5.532503
5.488734
5.44604
5.404465
5.364029
5.324732
5.286548
5.249403
5.213273
5.178276
5.144535
5.112083
5.08068
5.050124
5.020184
4.990698
4.961524
4.932577
4.903874
4.875553
4.847735
4.820418
4.79355
4.767073
4.740942
4.715121
4.68959
4.664304
4.639248
4.614412
4.589785
4.565364
4.541147
4.517139
4.49335
4.469792
4.446483
4.423452
4.400708
4.378282
4.356208
4.334518
4.313245
4.292423
4.272084
4.252268
4.233009
4.214338
4.196278
4.178893
4.162174
4.146204
4.130873
4.116966
4.104297
4.092793
4.082345
4.072834
4.064159
4.056245
4.049038
4.042493
4.036573
4.031243
4.026472
4.022231
4.01849
4.01522
4.012392
4.009974
4.007938
4.006253
4.004888
4.003813
4.002995
4.002404
4.002009
4.001779
4.001686
4.0017
4.001795
4.001945
4.002125
4.002312
4.002487
4.00263
4.002725
4.00276
4.002723
4.002607
4.002409
4.002128
4.001768
4.001336
4.000843
4.000303
3.99973
3.999134
3.99852
3.997882
3.997208
3.996486
3.995722
3.994925
3.994111
3.993305
3.992532
3.991793
3.991033
3.990189
3.989268
3.988316
3.987358
3.986403
3.985452
3.984509
3.983574
3.982647
3.981726
3.980809
3.979892
3.978975
3.978052
3.977122
3.976179
3.975221
3.974244
3.973243
3.972217
3.971161
3.970072
3.968947
3.967784
3.96658
3.965332
3.964037
3.962692
3.961296
3.959844
3.958334
3.956763
3.955129
3.953427
3.951655
3.94981
3.94789
3.945891
3.943812
3.941651
3.939404
3.937071
3.934651
3.932141
3.929542
3.926853
3.924073
3.921201
3.918238
3.915183
3.912036
3.908796
3.905463
3.902035
3.898512
3.894891
3.891171
3.88735
3.883423
3.879389
3.875241
3.870977
3.866591
3.862077
3.857427
3.852636
3.847691
3.842584
3.837298
3.831817
3.826117
3.820172
3.813939
3.807379
3.800421
3.793007
3.785033
3.776442
3.767126
3.757096
3.74629
3.735037
3.723911
500.3233
325.4698
239.1265
210.6696
165.3757
135.3393
112.3809
102.5923
92.82533
86.88882
81.82929
75.84594
70.3734
65.54029
61.3727
57.21231
52.02331
50.67338
49.7515
49.29731
49.28125
49.51623
49.79748
50.01006
50.15923
50.26851
50.37008
50.49552
50.65743
50.84277
50.98748
50.97148
50.59783
49.90404
49.0246
47.97855
46.79051
45.50569
44.17416
42.83228
41.52613
40.24796
39.02167
37.85721
36.75656
35.71499
34.73951
33.83225
32.99363
32.2203
31.50757
30.85077
30.24423
29.68402
29.16648
28.68858
28.24765
27.8412
27.46698
27.12257
26.80551
26.51328
26.24443
25.99844
25.77543
25.57597
25.40027
25.24497
25.10785
25.00334
24.92739
24.87649
24.84745
24.83633
24.83845
24.84843
24.86118
24.87103
24.87566
24.88154
24.88367
24.87829
24.86609
24.85068
24.83698
24.83147
24.8426
24.88159
24.96144
25.09445
25.29182
25.56407
25.91766
26.34966
26.84322
27.36539
27.8695
28.29952
28.59388
28.70151
28.59773
28.27911
27.76597
27.0959
26.31519
25.46987
24.59883
23.7305
22.88259
22.06425
21.27936
20.52925
19.8146
19.13654
18.49669
17.89738
17.34018
16.8263
16.35577
15.9285
15.54336
15.19807
14.88973
14.61499
14.3701
14.15149
13.95661
13.78185
13.62357
13.47876
13.34493
13.22011
13.10269
12.99127
12.8845
12.78119
12.67996
12.57943
12.47913
12.37901
12.27872
12.1777
12.07569
11.97273
11.86908
11.76507
11.66104
11.55738
11.45442
11.35251
11.25193
11.15293
11.05576
10.96071
10.86812
10.77832
10.69172
10.60863
10.5294
10.45443
10.38351
10.31587
10.25063
10.18686
10.1235
10.06038
9.99863
9.939316
9.882779
9.828952
9.777661
9.728703
9.681855
9.636904
9.593648
9.551892
9.51145
9.472157
9.433855
9.39639
9.359614
9.323402
9.287664
9.252313
9.21725
9.182368
9.147572
9.11279
9.077953
9.042986
9.007814
8.97236
8.936553
8.900324
8.863604
8.826324
8.788418
8.749826
8.710491
8.670365
8.629406
8.587578
8.544855
8.501216
8.456647
8.411143
8.364704
8.317338
8.269058
8.219883
8.169838
8.118953
8.067269
8.014838
7.961723
7.908001
7.853727
7.798951
7.743727
7.688115
7.632178
7.57598
7.519595
7.463105
7.406596
7.350149
7.29384
7.237741
7.181926
7.12647
7.071453
7.016952
6.963034
6.909761
6.857199
6.805415
6.754477
6.704449
6.655387
6.607342
6.560357
6.514468
6.469704
6.426093
6.383659
6.342427
6.302419
6.263653
6.22614
6.1899
6.154953
6.121336
6.088938
6.057139
6.02569
5.994431
5.96319
5.931796
5.900077
5.867876
5.835036
5.801433
5.766943
5.731499
5.695051
5.657623
5.619232
5.579865
5.53951
5.498201
5.456013
5.41305
5.369432
5.32529
5.28077
5.236025
5.191208
5.146473
5.101966
5.057824
5.014172
4.971123
4.928775
4.887209
4.846492
4.806685
4.767791
4.729831
4.692804
4.656832
4.621967
4.588117
4.555212
4.523173
4.491906
4.461313
4.431295
4.401759
4.372632
4.343866
4.31546
4.28746
4.259917
4.232836
4.206177
4.179896
4.153956
4.128328
4.102986
4.077909
4.053079
4.028483
4.00411
3.979955
3.956017
3.932299
3.908807
3.88555
3.862541
3.839797
3.817336
3.795179
3.773351
3.751876
3.730781
3.710095
3.689843
3.670056
3.650761
3.631987
3.613759
3.596105
3.579042
3.562593
3.546758
3.53159
3.517127
3.503389
3.490372
3.478066
3.466469
3.455578
3.445384
3.435872
3.427021
3.418809
3.411213
3.404208
3.39777
3.391875
3.386496
3.381608
3.377184
3.373198
3.369623
3.36643
3.363591
3.361078
3.358864
3.356922
3.355225
3.353747
3.352464
3.351352
3.350387
3.349549
3.348818
3.348175
3.347603
3.347088
3.346616
3.346176
3.345761
3.345363
3.344979
3.344607
3.344246
3.3439
3.343569
3.343255
3.342957
3.34267
3.342389
3.34211
3.341833
3.341562
3.341301
3.341053
3.340813
3.34058
3.340357
3.340148
3.339957
3.339782
3.339616
3.339454
3.339297
3.339145
3.339001
3.338866
3.33874
3.338624
3.338516
3.338415
3.33832
3.338228
3.338139
3.338051
3.337961
3.337868
3.33777
3.337666
3.337553
3.33743
3.337295
3.337146
3.33698
3.336793
3.336584
3.336349
3.336084
3.335785
3.335449
3.335073
3.334651
3.33418
3.333657
3.333077
3.332438
3.331736
3.330968
3.330132
3.329225
3.328245
3.327191
3.326061
3.324855
3.323572
3.322211
3.320772
3.319256
3.317662
3.315991
3.314244
3.312419
3.310517
3.308539
3.306483
3.304348
3.302133
3.299836
3.297454
3.294985
3.292425
3.28977
3.287014
3.284153
3.28118
3.278086
3.274863
3.271499
3.26798
3.264289
3.260404
3.256301
3.251948
3.247314
3.242357
3.237048
3.23135
3.225262
3.218764
3.211987
3.205318
277.0596
201.3426
315.058
151.9537
128.648
108.6778
101.0367
95.09842
88.91727
85.3199
81.20707
76.39344
72.10555
67.93922
63.64573
57.33596
55.54675
54.03724
52.7502
51.6684
50.73516
49.97474
49.38866
48.95938
48.64091
48.33828
47.87963
47.54753
47.25971
47.07884
47.05559
47.09397
47.076
46.97855
46.81418
46.6136
46.4191
46.26936
46.17897
46.16352
46.11794
45.88473
45.41089
44.70621
43.82023
42.78573
41.64134
40.4352
39.20845
37.99866
36.81915
35.68916
34.60688
33.58908
32.65759
31.81364
31.04795
30.34684
29.70547
29.11865
28.58093
28.08743
27.63365
27.2162
26.83278
26.48135
26.15969
25.8654
25.59566
25.34646
25.11269
24.88928
24.67314
24.46429
24.26439
24.07612
23.90258
23.74705
23.61856
23.51508
23.434
23.37279
23.3289
23.29928
23.28001
23.26629
23.25325
23.23627
23.21189
23.17778
23.13261
23.07697
23.01297
22.94391
22.87325
22.80523
22.74522
22.70022
22.67863
22.69009
22.74556
22.85631
23.03144
23.27511
23.58415
23.94572
24.336
24.7206
25.05606
25.29855
25.41493
25.38288
25.19648
24.86638
24.41656
23.87862
23.28537
22.66549
22.04029
21.42291
20.81979
20.2328
19.66168
19.10593
18.56598
18.04373
17.54217
17.06462
16.61414
16.19384
15.80591
15.4513
15.12988
14.84055
14.58143
14.34992
14.14302
13.95848
13.79347
13.64497
13.51037
13.38746
13.27437
13.16952
13.07135
12.97803
12.88783
12.79916
12.71095
12.62259
12.53347
12.44291
12.35041
12.25577
12.15909
12.06057
11.96052
11.8593
11.7573
11.65492
11.55256
11.45059
11.3494
11.24944
11.15127
11.05536
10.96196
10.87131
10.78366
10.69919
10.6178
10.53908
10.46252
10.38757
10.31371
10.24082
10.16937
10.09998
10.03295
9.968366
9.90616
9.846213
9.788372
9.732473
9.678359
9.625878
9.574878
9.525215
9.47675
9.429328
9.382791
9.337006
9.291876
9.247314
9.203223
9.159501
9.116061
9.072835
9.029758
8.986751
8.943721
8.900578
8.857238
8.813617
8.769636
8.725223
8.68031
8.634839
8.588759
8.542027
8.494612
8.446486
8.397632
8.348037
8.297697
8.246613
8.194792
8.142245
8.088989
8.035043
7.980434
7.925191
7.86935
7.812955
7.756054
7.698701
7.640942
7.58282
7.524381
7.465675
7.406753
7.347669
7.288491
7.229308
7.170221
7.111288
7.05257
6.994123
6.936007
6.878281
6.821013
6.76427
6.708115
6.652599
6.597773
6.543692
6.490407
6.437962
6.386392
6.33573
6.286001
6.237224
6.189412
6.142575
6.096718
6.05184
6.007941
5.965018
5.923064
5.882074
5.842045
5.802975
5.764859
5.727672
5.691049
5.654818
5.618854
5.58303
5.547221
5.511304
5.475164
5.438697
5.40181
5.364431
5.326506
5.287999
5.248894
5.209186
5.168878
5.127992
5.086572
5.044685
5.002406
4.959827
4.917047
4.874174
4.831319
4.788596
4.746115
4.703982
4.662298
4.621154
4.58063
4.540798
4.501715
4.46343
4.425986
4.389379
4.353659
4.318862
4.284943
4.251851
4.219529
4.187917
4.156955
4.12658
4.09673
4.067349
4.03839
4.009823
3.981638
3.953845
3.926458
3.899469
3.872853
3.846574
3.820602
3.794911
3.769482
3.744294
3.719332
3.694586
3.670048
3.645713
3.621582
3.597657
3.573946
3.550457
3.527203
3.504199
3.481462
3.459013
3.436872
3.415063
3.39361
3.372538
3.351871
3.331635
3.311856
3.292558
3.273762
3.255492
3.237765
3.220598
3.204003
3.187997
3.172591
3.157785
3.14358
3.129981
3.116995
3.104628
3.092878
3.081741
3.071208
3.061268
3.051911
3.043122
3.034886
3.027186
3.020006
3.013326
3.007127
3.001391
2.996094
2.991215
2.98673
2.982615
2.978846
2.975402
2.972258
2.969393
2.966786
2.964415
2.962261
2.960304
2.958527
2.956911
2.955441
2.954102
2.952881
2.951766
2.950746
2.949811
2.948956
2.948173
2.947457
2.946806
2.946216
2.945682
2.945202
2.94477
2.944383
2.944036
2.943727
2.943455
2.94322
2.943022
2.942858
2.942731
2.94264
2.94258
2.942549
2.942544
2.942565
2.942612
2.942682
2.942776
2.942893
2.94303
2.943186
2.943361
2.943551
2.943757
2.943976
2.944207
2.944451
2.944705
2.94497
2.945244
2.945526
2.945816
2.946112
2.946413
2.946717
2.947022
2.947324
2.947622
2.947911
2.948189
2.948452
2.948696
2.948917
2.949111
2.949274
2.949402
2.949492
2.94954
2.949542
2.949495
2.949395
2.949241
2.94903
2.948759
2.948427
2.948032
2.947573
2.94705
2.946461
2.945807
2.945088
2.944303
2.943454
2.942541
2.941564
2.940525
2.939424
2.938261
2.937037
2.935751
2.934403
2.932992
2.931516
2.929972
2.928358
2.926671
2.924906
2.923058
2.921123
2.919093
2.916962
2.91472
2.912358
2.909864
2.907224
2.904422
2.901441
2.898262
2.894869
2.891247
2.887394
2.883301
2.879037
2.874886
105.4908
90.93131
87.89314
82.21579
79.40563
76.05607
73.00289
70.05335
67.23749
63.68518
57.74192
56.26402
54.86623
53.59258
52.41574
51.34805
50.44977
49.74131
49.20392
48.77457
48.24293
47.65322
47.17816
46.8173
46.55043
46.35179
46.1983
46.05816
45.89789
45.67844
45.35637
44.9303
44.56694
44.18635
43.92034
43.74397
43.64192
43.55727
43.46828
43.35849
43.23599
43.11137
42.98673
42.82891
42.62797
42.34631
41.89185
41.24851
40.43518
39.49731
38.47432
37.40731
36.33333
35.28466
34.27926
33.32642
32.42806
31.59724
30.83908
30.15979
29.55306
29.00343
28.50163
28.04181
27.61926
27.23034
26.87228
26.5428
26.2411
25.96746
25.72169
25.50254
25.30789
25.13376
24.97207
24.8109
24.6387
24.44944
24.24378
24.02648
23.80489
23.59174
23.40086
23.23322
23.08726
22.96052
22.8507
22.75605
22.67468
22.60385
22.53958
22.47714
22.41189
22.34004
22.25893
22.16721
22.06503
21.95386
21.83602
21.71444
21.59247
21.47404
21.36414
21.26936
21.19724
21.15676
21.1573
21.20723
21.31256
21.47527
21.69145
21.94964
22.2301
22.50482
22.74187
22.91211
22.9905
22.96114
22.81974
22.5738
22.24051
21.8427
21.40426
20.94616
20.48388
20.0268
19.57894
19.14059
18.71017
18.28587
17.86686
17.45402
17.04967
16.65548
16.27542
15.91332
15.57248
15.25535
14.9634
14.69715
14.45617
14.23915
14.04419
13.86931
13.71248
13.5716
13.4449
13.33088
13.22771
13.13334
13.04586
12.9635
12.88453
12.80751
12.73137
12.65522
12.57822
12.49959
12.4188
12.33564
12.25008
12.16219
12.07216
11.98021
11.88667
11.79187
11.69617
11.59993
11.50361
11.40771
11.31274
11.21906
11.12696
11.03669
10.94841
10.8621
10.77755
10.69447
10.61256
10.53152
10.45139
10.37269
10.29574
10.22068
10.14759
10.07648
10.00728
9.939911
9.874262
9.810233
9.747719
9.686615
9.626807
9.568183
9.510618
9.453971
9.398128
9.343015
9.288588
9.234773
9.181482
9.128634
9.076169
9.024038
8.972155
8.920388
8.868633
8.816802
8.764818
8.71261
8.660118
8.607289
8.554082
8.500463
8.44641
8.391906
8.336944
8.281521
8.22564
8.169309
8.112539
8.055347
7.997749
7.939764
7.881415
7.822723
7.763718
7.704426
7.644881
7.585117
7.52517
7.465074
7.404861
7.344565
7.284221
7.223868
7.163544
7.103296
7.043199
6.983316
6.923682
6.864342
6.805345
6.746738
6.688575
6.630922
6.573864
6.517459
6.461733
6.406717
6.352451
6.298971
6.246308
6.194486
6.143523
6.093433
6.044219
5.995882
5.948416
5.901808
5.856045
5.811107
5.766974
5.723624
5.681033
5.639179
5.598042
5.557601
5.517839
5.478694
5.43995
5.401515
5.363302
5.325222
5.287188
5.249117
5.210932
5.172564
5.133956
5.095059
5.055839
5.016274
4.976352
4.936072
4.895447
4.854505
4.813292
4.771865
4.730289
4.688639
4.646998
4.605451
4.564086
4.522992
4.482254
4.441953
4.402165
4.362957
4.32439
4.286514
4.249369
4.213002
4.177407
4.142613
4.108605
4.075356
4.04283
4.010986
3.97978
3.949167
3.919102
3.889538
3.860434
3.831754
3.80347
3.775567
3.748036
3.720871
3.69406
3.667576
3.641394
3.615485
3.589825
3.564396
3.539178
3.514159
3.489328
3.464679
3.440207
3.415913
3.391802
3.367879
3.344155
3.320642
3.297354
3.27431
3.251528
3.229029
3.206836
3.184971
3.163459
3.142324
3.121589
3.101278
3.081413
3.062017
3.043108
3.024704
3.006822
2.989474
2.972672
2.956422
2.940728
2.925593
2.911024
2.897024
2.883596
2.870738
2.85845
2.846726
2.83556
2.824945
2.814872
2.805329
2.796304
2.787786
2.779761
2.772216
2.765139
2.758514
2.752322
2.746542
2.741153
2.736132
2.731461
2.727119
2.723089
2.719352
2.71589
2.712686
2.709723
2.706986
2.704459
2.702126
2.699974
2.697991
2.696163
2.69448
2.692933
2.691511
2.690206
2.689013
2.687924
2.686932
2.686033
2.685221
2.68449
2.683835
2.683252
2.682736
2.682284
2.681895
2.681565
2.681293
2.681077
2.680913
2.680797
2.680727
2.680701
2.680717
2.680774
2.680867
2.680996
2.681157
2.68135
2.681571
2.681819
2.682093
2.682391
2.682712
2.683056
2.683421
2.683806
2.684213
2.684638
2.685083
2.685544
2.686021
2.686513
2.687015
2.687527
2.688046
2.688567
2.689089
2.689607
2.690118
2.690618
2.691103
2.69157
2.692015
2.692435
2.692825
2.693183
2.693504
2.693787
2.694029
2.694225
2.694375
2.694476
2.694527
2.694525
2.69447
2.694361
2.694197
2.693977
2.693702
2.693372
2.692988
2.692549
2.692058
2.691514
2.690919
2.690274
2.68958
2.688837
2.688046
2.687206
2.686318
2.685379
2.684389
2.683345
2.682245
2.681084
2.67986
2.678567
2.677202
2.675758
2.674231
2.672614
2.670903
2.669096
2.667179
2.665137
2.662961
2.660642
2.658179
2.655567
2.652848
2.650224
149.7841
71.55583
59.14741
55.94098
53.73701
52.07921
50.92037
50.05086
49.43199
49.0123
48.5172
47.71431
46.99471
46.33769
45.76806
45.27524
44.87187
44.54468
44.26615
44.00702
43.75277
43.54629
43.36861
43.21948
43.06736
42.89077
42.66661
42.37047
41.97324
41.50046
41.042
40.68797
40.38243
40.1073
39.94245
39.91316
40.00988
40.18241
40.38169
40.55008
40.67396
40.7208
40.67206
40.46709
40.07315
39.509
38.77925
37.90459
36.94247
35.95191
34.97195
34.03092
33.15144
32.34903
31.62722
30.98564
30.41677
29.91531
29.47175
29.07093
28.70279
28.35886
28.03458
27.72813
27.439
27.16836
26.9174
26.68763
26.48302
26.30822
26.16633
26.05818
25.98233
25.93247
25.88985
25.82465
25.70996
25.53457
25.30212
25.02387
24.71701
24.4162
24.13321
23.87139
23.63052
23.40778
23.20041
23.00741
22.82857
22.66283
22.50752
22.35863
22.21179
22.0632
21.91013
21.75111