/*--------------------------------*- C++ -*----------------------------------*\
| =========                 |                                                 |
| \\      /  F ield         | foam-extend: Open Source CFD                    |
|  \\    /   O peration     | Version:     3.1                                |
|   \\  /    A nd           | Web:         http://www.extend-project.de       |
|    \\/     M anipulation  |                                                 |
\*---------------------------------------------------------------------------*/
FoamFile
{
    version     2.0;
    format      ascii;
    class       volScalarField;
    location    "16.5";
    object      alpha1;
}
// * * * * * * * * * * * * * * * * * * * * * * * * * * * * * * * * * * * * * //

dimensions      [0 0 0 0 0 0 0];

internalField   nonuniform List<scalar> 
119952
(
1
1
1
1
1
1
1
1
1
1
1
1
1
1
1
1
1
1
1
1
1
0.9999999
1
0.9999999
1
0.9999996
1
0.9999997
1
0.9999999
1
1
0.9999999
1
1
0.9999998
1
0.9999997
1
0.9999999
0.9999999
1
0.9999999
0.9999999
1
0.9999999
1
1
0.9999999
0.9999999
1
1
0.9999998
1
1
0.9999998
0.9999998
1
1
1
1
0.9999998
1
1
1
1
1
0.9999997
1
1
1
0.9999999
1
1
1
0.9999999
0.9999999
0.9999999
1
1
1
1
1
1
0.9999999
1
1
1
1
1
0.9999999
0.9999999
1
0.9999998
1
1
1
0.9999996
1
1
1
1
0.9999997
0.9999999
1
1
1
0.9999997
1
1
1
1
1
1
1
1
1
1
0.9999998
0.9999996
1
1
1
1
1
1
1
1
1
1
1
1
1
1
1
1
1
1
1
1
1
1
1
1
1
1
1
1
1
1
1
1
1
1
1
1
1
1
1
1
1
1
1
1
1
1
1
1
1
1
1
1
1
1
1
1
1
1
1
1
1
1
1
1
1
1
1
1
1
1
1
1
1
1
1
1
1
1
1
1
1
1
1
1
1
1
1
1
1
1
1
1
1
1
1
1
1
1
1
1
1
1
1
1
1
1
1
1
1
1
1
1
1
1
1
1
1
1
1
1
1
1
1
1
1
1
1
1
1
1
1
1
1
1
1
1
1
1
1
1
1
1
1
1
1
1
1
1
1
1
1
1
1
1
1
1
1
1
1
1
1
1
1
1
1
1
1
1
1
0.9999999
0.9999809
0.9999898
0.9999999
1
0.9999993
0.999951
0.9999604
0.9999915
0.9999967
1
1
1
1
1
0.999994
0.9999282
0.9999708
0.9999982
0.9999998
0.9999897
0.9999761
0.9999919
0.9999999
1
1
1
1
1
1
1
1
1
1
1
1
1
1
1
1
1
1
1
1
1
1
1
1
1
1
1
1
1
1
1
1
1
1
1
1
0.9999998
0.9999335
0.9999185
0.9999982
1
1
0.9999999
0.9999617
0.9999206
0.9999973
0.9999998
0.999985
0.9999223
0.9999963
1
0.9999992
0.9999921
0.9999925
0.9999992
1
1
1
1
1
1
0.9999999
0.9999658
0.9999387
0.9999968
0.9999997
0.9999418
0.9999381
0.9999989
1
0.9999985
0.9999164
0.9999758
0.9999999
0.9999997
0.9999916
0.9999601
0.9999918
0.9999989
0.9999982
0.999999
0.9999998
0.9999562
0.9987395
0.9998769
1
1
1
1
0.9999982
0.9999331
0.9980589
0.9980596
1
1
1
0.9999998
1
1
1
1
1
1
1
1
1
1
1
1
1
1
1
1
1
0.9999999
1
1
1
1
1
1
0.9999999
1
1
1
1
1
1
1
1
1
1
1
1
1
1
1
1
1
1
0.9999999
1
1
0.9999998
1
1
0.9999999
1
1
1
1
1
1
1
1
1
1
1
1
1
1
1
1
1
1
1
1
1
1
1
1
1
1
1
1
1
1
1
0.9999999
0.9999998
0.999999
0.9999961
0.9999946
0.9999964
0.9999992
1
1
1
1
1
1
1
1
1
1
1
0.9999999
1
1
1
1
1
1
1
1
1
1
1
1
1
0.9999999
0.9999996
0.999998
0.9999894
0.999924
0.9998685
0.999885
0.9999605
0.9999961
0.9999999
1
1
1
1
1
1
0.9999998
0.9999985
0.9999872
0.9999807
0.9999849
0.9999959
0.9999997
1
1
1
1
1
0.9999999
0.9999997
0.9999993
0.9999993
0.9999997
1
1
1
1
1
1
1
1
1
1
0.9999999
1
1
1
1
0.9999999
0.9999994
0.9999918
0.9999853
0.999987
0.9999955
0.9999996
1
1
1
1
1
1
1
1
1
1
1
1
1
1
1
1
1
1
1
1
0.9999999
0.9999993
0.9999952
0.999988
0.9999883
0.999995
0.9999993
1
1
1
0.9999999
1
1
0.9999993
0.9999909
0.9999909
0.999992
0.9999998
1
1
1
1
1
1
1
1
1
1
1
1
1
1
1
1
1
1
1
1
1
1
1
1
1
0.9999993
0.9999997
1
1
1
1
1
1
1
1
0.9999997
0.9999854
0.9999931
0.9999998
1
1
1
1
1
1
1
1
1
1
1
1
1
1
1
1
1
1
1
1
1
1
1
0.9999995
0.9999986
1
1
1
1
1
1
1
1
1
1
1
1
1
1
1
1
1
0.9999998
0.9999986
0.9999949
0.9999917
0.9999937
0.9999983
0.9999998
0.9999998
0.9999996
0.9999995
0.9999996
0.999999
0.999989
0.9999662
0.9999804
0.9999958
0.9999997
1
1
0.9999999
0.9999982
0.9999957
0.9999955
0.9999966
0.9999977
0.9999958
0.9999751
0.9998895
0.9998769
0.9998983
0.9999707
0.9999979
1
1
1
1
1
1
1
0.9999999
0.9999994
0.9999992
0.9999993
0.9999997
1
1
1
1
1
1
1
1
1
1
1
1
1
1
1
1
1
1
1
1
0.9999999
0.9999993
0.9999966
0.9999902
0.9999905
0.9999967
0.9999997
1
1
1
1
1
1
1
0.9999999
0.9999978
0.9999629
0.9998092
0.9997937
0.9998082
0.999932
0.9999935
0.9999999
1
1
1
1
1
1
1
1
1
1
1
1
1
1
1
1
0.9999995
0.9999968
0.9999701
0.9998445
0.9998273
0.9998273
0.9998278
0.9999109
0.9999826
0.999999
1
1
1
1
0.9999992
0.9999864
0.9997608
0.9989167
0.999139
0.9999999
1
1
1
1
1
1
0.9999999
1
1
1
1
1
0.9999999
1
0.9999999
1
1
1
1
1
0.9999998
0.9999999
1
1
1
0.9999999
0.9999999
1
1
1
1
0.9999999
0.9999999
1
1
1
1
1
1
1
1
1
1
1
1
1
0.9999999
1
1
1
1
1
1
1
1
1
1
1
1
1
1
1
1
1
1
1
1
1
1
1
1
1
1
1
1
0.9999998
0.9999979
0.9999873
0.9999429
0.9997968
0.999581
0.9996135
0.9998617
0.9999869
0.9999998
1
1
1
1
1
1
1
1
1
1
1
1
1
1
1
1
1
1
1
1
1
1
1
1
1
0.9999997
0.9999984
0.9999952
0.9999922
0.999994
0.999997
0.9999993
0.9999999
0.9999999
0.9999998
0.999999
0.999994
0.9999649
0.9998917
0.9998916
0.999956
0.9999936
0.9999997
1
1
1
1
1
1
1
1
1
1
1
1
1
1
1
1
1
1
1
1
1
1
0.9999999
0.9999997
0.999998
0.9999877
0.9999091
0.9994104
0.9991301
0.9993417
0.9998274
0.9999853
0.9999973
0.999999
0.9999998
1
1
1
0.9999998
0.9999984
0.9999804
0.9999104
0.9999074
0.999954
0.9999919
0.9999989
0.9999994
0.9999997
0.9999999
0.9999999
0.9999999
0.9999994
0.999996
0.9999909
0.9999918
0.9999967
0.9999996
1
1
1
1
1
0.9999999
0.9999994
0.9999991
0.9999993
0.9999998
0.9999999
0.9999999
0.9999998
0.9999992
0.9999951
0.9999634
0.9999377
0.9999456
0.999981
0.9999979
0.9999997
0.9999997
0.9999998
0.9999999
1
1
1
1
1
1
1
1
0.9999999
0.9999993
0.9999958
0.9999766
0.9999387
0.9999432
0.9999781
0.9999971
0.9999998
0.9999998
0.9999992
0.9999946
0.9999698
0.9999576
0.9999674
0.9999911
0.9999992
0.9999999
0.9999999
0.9999998
0.9999994
0.9999943
0.9999726
0.9999686
0.9999783
0.9999954
0.9999997
1
1
1
1
1
1
1
1
1
1
1
1
1
1
0.9999999
0.9999997
0.9999987
0.9999942
0.9999909
0.9999924
0.9999976
0.9999998
1
1
1
1
1
0.9999998
0.999999
0.9999908
0.9999729
0.9999734
0.9999887
0.9999984
0.9999999
1
1
0.9999994
0.9999865
0.9999827
0.9999904
0.9999979
0.9999999
1
1
1
1
1
1
1
1
1
1
1
1
0.9999997
0.9999944
0.999988
0.9999892
0.9999949
0.9999989
0.9999999
1
1
1
1
0.9999999
0.9999988
0.9999978
0.999998
0.9999986
0.9999994
0.9999998
0.9999999
0.9999995
0.9999882
0.9999143
0.9998994
0.9999346
0.9999871
0.9999993
1
1
0.9999998
0.9999966
0.999962
0.9999301
0.9999613
0.9999925
0.9999996
0.9999999
0.9999999
0.9999998
0.9999998
0.9999999
0.9999999
0.9999997
0.999998
0.9999919
0.9999903
0.999993
0.9999983
0.9999999
0.9999999
0.9999999
0.9999999
0.9999998
0.9999998
0.9999998
0.9999997
0.9999991
0.9999949
0.9999714
0.9999509
0.9999711
0.9999943
0.9999997
1
1
1
1
1
1
1
0.9999999
0.9999994
0.9999995
0.9999998
1
1
0.9999999
0.9999999
0.9999999
0.9999999
1
1
1
1
1
1
1
1
1
1
1
1
1
1
1
1
1
1
1
1
1
1
1
1
1
1
1
1
1
0.9999993
0.9999902
0.9999271
0.9998781
0.9999218
0.9999801
0.9999986
1
1
1
1
1
1
1
1
1
1
1
1
1
1
1
1
1
1
0.9999999
0.9999996
0.9999986
0.9999902
0.9999138
0.9998273
0.9998273
0.9998902
0.9999798
0.9999991
1
1
1
0.9999998
0.9999995
0.9999987
0.9999965
0.9999909
1
1
1
1
1
1
0.9999999
0.9999999
1
1
1
1
1
1
1
1
1
1
1
1
1
1
1
1
1
1
1
1
1
1
1
1
1
1
1
1
1
1
1
1
1
1
1
1
1
1
1
1
1
1
1
1
1
1
1
1
1
1
1
1
1
1
1
1
1
1
1
1
1
1
1
1
1
1
1
1
1
1
1
1
0.9999998
0.9999976
0.9999855
0.9999594
0.9999459
0.9999646
0.9999926
0.9999961
0.9999884
0.999922
0.9993684
0.9958873
0.9937267
0.9966773
0.9994373
0.9999794
0.9999998
1
1
1
1
1
1
1
1
1
1
1
1
1
1
1
1
1
1
1
1
1
1
0.9999999
0.9999992
0.9999942
0.9999628
0.9997363
0.9989098
0.998657
0.9988341
0.9994952
0.9999243
0.9999852
0.9999841
0.9999708
0.9998643
0.9991689
0.9987156
0.9989738
0.9996965
0.9999728
0.9999989
1
1
1
1
1
1
1
1
1
1
1
1
1
1
1
1
1
1
1
1
1
1
0.9999999
0.9999993
0.9999957
0.9999712
0.9997322
0.9979401
0.9968945
0.9974807
0.9992382
0.9999282
0.9999976
0.9999999
0.9999999
0.9999999
0.9999997
0.9999989
0.9999941
0.9999335
0.9997321
0.9997222
0.999864
0.9999733
0.9999944
0.9999977
0.9999994
0.9999997
0.9999997
0.9999994
0.9999974
0.9999855
0.9999514
0.9999464
0.9999679
0.9999938
0.9999994
0.9999999
1
1
1
0.9999999
0.9999989
0.9999955
0.9999953
0.9999977
0.9999994
0.9999994
0.9999992
0.9999979
0.9999874
0.9998861
0.9997391
0.9997589
0.9999
0.999985
0.9999988
0.9999998
1
1
1
1
1
1
1
1
0.9999999
0.9999999
0.9999996
0.999998
0.9999878
0.9999169
0.9995337
0.9993247
0.9994928
0.9998676
0.99999
0.9999978
0.9999976
0.9999956
0.9999722
0.999855
0.9998289
0.9998864
0.9999753
0.9999981
0.9999998
0.9999998
0.9999996
0.9999978
0.9999751
0.9999414
0.9999441
0.9999746
0.9999954
0.9999997
1
1
1
1
1
0.9999999
0.9999996
0.9999994
0.9999995
0.9999996
0.9999998
1
1
0.9999999
0.9999996
0.9999981
0.9999892
0.9999494
0.9999203
0.9999562
0.999992
0.9999995
1
1
1
0.9999999
0.9999996
0.9999978
0.9999845
0.9999397
0.9999314
0.9999567
0.9999909
0.9999989
0.9999998
1
1
1
1
0.9999991
0.9999951
0.9999939
0.9999962
0.9999992
1
1
1
1
1
1
0.9999999
0.9999995
0.999995
0.9999533
0.9999316
0.9999454
0.9999848
0.9999981
0.9999982
0.9999978
0.9999961
0.9999807
0.9999618
0.9999646
0.9999857
0.9999981
0.9999999
0.9999998
0.9999996
0.9999986
0.9999932
0.9999418
0.9995377
0.999364
0.9994968
0.9998624
0.9999892
0.9999982
0.9999949
0.9999831
0.9999776
0.9999868
0.9999974
0.9999999
0.9999999
0.9999993
0.999986
0.9999215
0.9999127
0.9999287
0.9999805
0.9999986
0.9999999
0.9999999
0.9999999
0.9999999
1
1
1
1
0.9999997
0.9999987
0.9999961
0.9999958
0.9999968
0.9999991
0.9999999
1
0.9999999
0.9999995
0.9999988
0.9999992
0.9999997
0.9999997
0.9999994
0.9999977
0.9999937
0.9999942
0.999998
0.9999998
1
1
1
1
1
1
1
1
1
1
1
1
0.9999999
0.9999992
0.9999983
0.9999989
0.9999996
1
1
1
1
1
1
1
1
1
1
1
1
1
1
1
1
1
1
1
1
1
1
1
1
1
1
1
1
1
0.9999999
0.9999996
0.9999989
0.9999972
0.9999961
0.9999974
0.9999994
1
1
1
1
1
1
1
1
1
1
1
1
1
1
1
1
1
1
1
0.9999999
0.9999993
0.9999973
0.9999914
0.9999812
0.9999791
0.9999862
0.9999969
0.9999998
1
1
1
1
1
1
1
1
1
1
1
1
1
0.9999999
1
1
1
1
1
1
1
1
1
1
1
1
1
1
1
1
1
1
1
0.9999999
0.9999999
0.9999999
0.9999999
0.9999999
0.9999999
0.9999999
1
1
1
1
1
1
1
1
1
1
1
1
1
1
1
1
1
1
1
1
1
1
1
1
1
1
1
1
1
1
1
0.9999999
0.9999989
0.999998
0.9999984
0.9999994
0.9999999
0.9999999
1
1
1
1
1
1
1
1
1
1
1
1
1
1
1
0.9999999
0.9999999
0.9999999
0.9999997
0.9999952
0.9998919
0.9989698
0.9968405
0.9956226
0.99686
0.9990087
0.9998929
0.9998991
0.9995344
0.9949724
0.9738706
0.975454
0.9917542
0.9990915
0.9999737
0.9999978
0.9999978
0.9999976
0.9999977
0.9999983
0.9999992
0.9999996
0.9999996
0.9999992
0.9999983
0.9999986
0.9999995
0.9999999
0.9999999
0.9999999
0.9999999
0.9999999
1
1
1
1
0.9999999
0.9999996
0.9999976
0.999986
0.9998883
0.998898
0.993374
0.9790151
0.9684248
0.9822139
0.9964012
0.9995988
0.9995724
0.999128
0.9958525
0.9918593
0.992856
0.9973004
0.9996255
0.9999593
0.9999925
0.9999994
1
1
1
1
1
0.9999999
0.9999997
0.9999985
0.9999962
0.9999961
0.9999982
0.9999997
1
1
1
1
1
1
1
1
1
0.9999999
0.9999989
0.9999905
0.9999198
0.9991987
0.9950466
0.993518
0.9952095
0.9987273
0.9998628
0.999991
0.9999974
0.9999971
0.9999946
0.9999766
0.9998064
0.9985259
0.9979711
0.9985275
0.9996395
0.9999629
0.9999813
0.9999864
0.9999951
0.9999982
0.9999982
0.9999976
0.9999914
0.9999005
0.9992669
0.9991261
0.999434
0.9998878
0.9999927
0.9999993
0.9999999
1
1
0.9999999
0.9999996
0.9999958
0.9999856
0.9999866
0.9999947
0.9999972
0.9999971
0.9999949
0.9999748
0.9997453
0.999038
0.9990012
0.9995055
0.9999118
0.9999909
0.9999986
0.9999999
1
1
1
0.9999998
0.9999978
0.9999887
0.9999873
0.9999924
0.9999981
0.9999984
0.9999971
0.9999874
0.9999221
0.9994009
0.9972218
0.9967861
0.9980478
0.9996162
0.9999663
0.999984
0.9999842
0.9999512
0.9995664
0.9993574
0.9994978
0.9998579
0.9999827
0.9999968
0.9999991
0.9999991
0.9999987
0.9999881
0.9999172
0.9999
0.9999238
0.9999792
0.9999976
0.9999998
1
1
1
0.9999999
0.9999991
0.9999952
0.9999824
0.9999508
0.9998235
0.9996204
0.9996711
0.9998748
0.9999834
0.9999995
1
0.9999994
0.9999904
0.9999072
0.9996361
0.9996275
0.999838
0.9999797
0.9999994
1
1
1
0.9999999
0.9999989
0.9999828
0.9998212
0.9997393
0.9998772
0.9999812
0.9999989
1
1
1
1
1
1
0.9999999
0.9999996
0.9999995
0.9999995
0.9999997
0.9999999
1
1
0.9999999
0.9999995
0.9999971
0.999975
0.9998635
0.9998364
0.9998841
0.999974
0.999994
0.9999939
0.9999929
0.9999817
0.9998751
0.9997591
0.9997852
0.9999195
0.9999902
0.9999978
0.9999978
0.9999973
0.9999948
0.999976
0.9997332
0.9983634
0.9980907
0.9986955
0.9997105
0.9999646
0.999985
0.9999926
0.9999979
0.9999996
0.9999997
0.9999994
0.9999987
0.9999984
0.9999989
0.9999998
0.9999997
0.9999974
0.9999599
0.9999127
0.9999315
0.9999778
0.9999976
0.9999999
0.9999999
0.9999999
0.9999999
1
1
1
1
1
1
1
0.9999998
0.9999989
0.9999975
0.9999984
0.9999996
0.9999999
1
0.9999999
0.9999987
0.9999972
0.9999979
0.9999994
0.9999999
0.9999999
0.9999998
0.9999997
0.9999997
0.9999997
0.9999997
0.9999997
0.9999998
0.9999999
1
1
1
1
0.9999999
0.9999999
0.9999999
1
0.9999999
0.9999994
0.9999975
0.9999973
0.9999977
0.9999992
0.9999998
1
1
1
1
1
1
1
1
1
1
1
1
1
1
1
1
1
1
1
1
1
1
1
1
1
1
1
1
1
1
1
1
1
1
1
1
1
1
1
1
1
1
1
1
1
1
1
1
1
1
1
1
1
1
1
1
1
1
0.9999999
0.9999998
0.9999997
0.9999997
0.9999999
1
1
1
1
1
1
1
1
1
1
1
1
1
1
1
0.9999999
1
1
1
1
1
1
1
1
1
1
1
1
1
1
1
1
1
1
1
1
1
1
1
1
1
1
1
1
0.9999999
0.9999999
1
1
1
1
1
1
1
1
1
1
1
1
1
1
1
1
1
1
1
1
1
1
1
1
1
1
0.9999999
0.9999998
0.9999992
0.9999985
0.9999984
0.9999985
0.9999972
0.9999755
0.9998092
0.9993243
0.999169
0.9995389
0.9998655
0.9999571
0.9999742
0.9999821
0.9999892
0.9999945
0.9999957
0.9999955
0.9999939
0.9999895
0.9999796
0.9999672
0.9999681
0.9999882
0.999999
0.9999997
0.9999989
0.9999968
0.9999966
0.9999976
0.9999973
0.9999764
0.9996189
0.9935874
0.9650482
0.9452248
0.9623917
0.9896532
0.9989521
0.9993801
0.9981097
0.9818021
0.9216656
0.9438323
0.9864985
0.9990327
0.9999009
0.9999024
0.9998931
0.9999021
0.9999355
0.9999614
0.9999588
0.9999029
0.9997511
0.999801
0.9999354
0.9999934
0.9999997
0.9999997
0.9999996
0.9999993
0.9999994
0.9999997
0.9999998
0.9999998
0.9999998
0.9999991
0.9999942
0.9999739
0.9999191
0.9996814
0.9984059
0.9932467
0.9740822
0.8341507
0.8281235
0.9390103
0.9941308
0.997573
0.99255
0.9475107
0.9274363
0.9638086
0.9943156
0.9995956
0.999938
0.999995
0.9999997
0.9999997
0.9999997
0.9999995
0.9999982
0.9999908
0.9999472
0.9997075
0.9995184
0.9995948
0.9998653
0.9999866
0.9999996
1
1
1
1
1
1
1
0.9999999
0.9999999
0.9999997
0.9999996
0.9999975
0.9999716
0.999564
0.9939612
0.9842639
0.9904817
0.9975786
0.9997527
0.9999785
0.9999791
0.9999678
0.9998652
0.9985002
0.9907716
0.9896067
0.9938328
0.9987857
0.9998043
0.9999016
0.9999624
0.9999877
0.9999921
0.9999929
0.9999898
0.999846
0.9978302
0.9962725
0.9969346
0.9990508
0.9998604
0.9998494
0.9998084
0.9998885
0.9999797
0.9999991
0.9999999
0.9999998
0.9999995
0.9999975
0.9999835
0.9999749
0.999986
0.99999
0.9999893
0.9999765
0.9998177
0.998402
0.9975662
0.9980403
0.9993967
0.999916
0.9999877
0.999999
1
1
1
1
0.9999999
0.9999981
0.999981
0.9999755
0.9999844
0.9999911
0.9999907
0.9999845
0.9999342
0.9994614
0.9941996
0.9862568
0.9880727
0.9955845
0.9993898
0.9998667
0.9998666
0.9996552
0.998357
0.9981525
0.9988601
0.9997542
0.999939
0.9999607
0.9999831
0.9999941
0.9999929
0.9999678
0.9998646
0.9998518
0.9999112
0.9999804
0.999995
0.999998
0.9999995
0.9999999
1
1
0.9999999
0.9999996
0.9999977
0.99998
0.9997095
0.9978336
0.9972533
0.9979006
0.9993375
0.9999041
0.999993
0.9999992
0.9999995
0.9999995
0.9999964
0.9999463
0.9994921
0.9988368
0.9992121
0.999802
0.9999878
0.9999835
0.9998686
0.9998195
0.9999104
0.9999887
0.9999803
0.999825
0.9997091
0.9997091
0.9998303
0.9999726
0.999999
1
1
1
1
1
1
0.9999999
0.9999998
0.9999998
0.9999998
0.9999998
0.9999997
0.9999988
0.9999927
0.9999392
0.9996228
0.9994946
0.9996113
0.9998957
0.9999895
0.9999932
0.9999909
0.9999714
0.9998062
0.9992493
0.9991846
0.9995457
0.9999208
0.9999888
0.9999893
0.9999893
0.9999877
0.9999605
0.9993481
0.9962442
0.9958264
0.9974111
0.9994782
0.9999012
0.9999474
0.9999768
0.999995
0.9999996
0.9999998
0.9999998
0.9999997
0.9999977
0.9999823
0.9999518
0.9999635
0.9999899
0.9999992
0.9999996
0.9999964
0.9999861
0.9999843
0.9999891
0.9999934
0.999992
0.9999921
0.9999962
0.9999993
1
1
1
1
0.9999999
0.9999997
0.9999996
0.9999997
0.9999999
0.9999999
0.9999997
0.9999995
0.9999997
0.9999999
1
1
0.9999996
0.9999976
0.9999972
0.999998
0.9999996
1
1
1
1
1
0.9999998
0.9999986
0.999998
0.9999985
0.9999996
1
1
1
0.9999997
0.9999982
0.9999977
0.9999987
0.9999996
0.9999998
0.9999995
0.9999976
0.9999973
0.9999973
0.9999977
0.9999993
1
1
1
1
1
1
1
1
1
1
1
1
1
1
1
1
1
1
1
1
1
1
1
1
1
1
1
1
1
1
1
1
1
1
1
1
1
1
1
1
1
1
1
1
1
1
1
1
1
1
1
1
1
1
1
1
1
1
1
1
1
1
1
1
1
1
1
1
1
0.9999999
1
1
1
1
1
1
1
1
1
1
1
1
1
1
1
1
1
1
1
1
1
1
1
1
1
1
1
1
1
1
1
1
1
1
1
1
1
1
1
1
1
1
1
1
1
1
1
1
1
1
1
1
1
1
1
0.9999999
0.9999997
0.9999993
0.999999
0.999999
0.9999987
0.999997
0.9999892
0.9999706
0.9999541
0.9999513
0.9999546
0.9999712
0.9999787
0.9999685
0.9998847
0.9996718
0.9996385
0.9997178
0.9997092
0.9991301
0.9941705
0.9776827
0.9760008
0.9854832
0.9962553
0.9980136
0.9979066
0.9979759
0.9982928
0.9989015
0.9995134
0.9996729
0.9995938
0.9986978
0.9959595
0.996609
0.9990507
0.9999345
0.999997
0.9999958
0.9999737
0.9999361
0.9999407
0.9999525
0.9999482
0.999851
0.9991047
0.9876382
0.9219151
0.837723
0.8674781
0.9557808
0.9948736
0.9968735
0.9914944
0.948917
0.8249186
0.8554766
0.9650527
0.9972351
0.9983206
0.9979779
0.9981442
0.9988705
0.9992132
0.9987927
0.994927
0.9942131
0.9971488
0.999548
0.9999609
0.9999743
0.9999672
0.9999664
0.9999781
0.9999952
0.9999993
0.9999991
0.9999987
0.9999965
0.9999855
0.9999653
0.9999161
0.9995522
0.99717
0.9906605
0.9850505
0.9652555
0.8259857
0.7718142
0.7718142
0.8006648
0.9449937
0.9930432
0.9771619
0.8901379
0.8827178
0.8861378
0.9586487
0.9959225
0.9999268
0.9999969
0.9999961
0.9999888
0.9999469
0.9997042
0.9980784
0.9914168
0.9895505
0.9928791
0.9984439
0.9998895
0.9999846
0.9999885
0.9999939
0.9999989
0.9999999
0.9999999
0.9999998
0.9999997
0.9999997
0.9999995
0.9999928
0.9999468
0.9998825
0.9998875
0.9999461
0.9999219
0.9988516
0.9857777
0.9774434
0.9822041
0.994887
0.9995756
0.999766
0.9994921
0.9942848
0.9722
0.9702234
0.984721
0.997011
0.9992649
0.9996424
0.9999044
0.9999752
0.9999671
0.9998474
0.998398
0.9953505
0.9960836
0.9986282
0.9996867
0.998388
0.9970583
0.9982948
0.9996345
0.9999727
0.9999817
0.9999769
0.9999801
0.9999893
0.9999919
0.9999892
0.9999708
0.9999416
0.9999493
0.9999696
0.999971
0.9999642
0.9998816
0.9989734
0.9959324
0.9956816
0.9976022
0.9994437
0.9998993
0.9999886
0.9999995
0.9999999
0.9999999
0.9999999
0.9999999
0.9999996
0.9999987
0.9999961
0.9999932
0.9999931
0.999991
0.9999826
0.9999464
0.9997172
0.9976626
0.9815697
0.9696238
0.9759199
0.9925206
0.9987297
0.9989088
0.9986216
0.9958306
0.9951707
0.9968034
0.999221
0.9998134
0.9999235
0.9999841
0.999991
0.999991
0.9999854
0.9998492
0.999681
0.9997077
0.9998892
0.9999825
0.9999979
0.9999997
0.9999997
0.9999997
0.9999996
0.9999993
0.9999989
0.9999982
0.9999966
0.9999836
0.9997971
0.9989522
0.9981357
0.9983009
0.9990172
0.9990616
0.9957924
0.9925408
0.9925408
0.9950617
0.9990147
0.9999215
0.9999178
0.9996463
0.998148
0.9977399
0.9983493
0.9996151
0.9999761
0.9999664
0.9997749
0.9997417
0.9998354
0.9999744
0.999983
0.9999282
0.9998281
0.9998931
0.9999708
0.9999973
0.9999999
1
1
1
1
0.9999998
0.9999992
0.9999955
0.9999853
0.9999846
0.9999922
0.9999916
0.999976
0.9998381
0.9990478
0.9987598
0.9993869
0.9998932
0.9999908
0.9999981
0.9999982
0.9999916
0.9998104
0.9982814
0.9977682
0.9984554
0.9996391
0.9999307
0.9999612
0.9999537
0.9996309
0.99552
0.9931125
0.9944201
0.9983476
0.9995748
0.9993947
0.9993051
0.9995752
0.9999128
0.9999955
0.9999998
0.9999998
0.9999998
0.9999998
0.9999998
0.9999977
0.9999548
0.9998917
0.9998989
0.9999589
0.9999946
0.9999998
0.9999999
0.9999997
0.9999996
0.9999997
0.9999997
0.9999992
0.9999956
0.9999952
0.9999981
0.9999995
0.9999995
0.9999991
0.999996
0.9999902
0.9999917
0.999997
0.9999996
1
1
1
1
0.9999999
0.9999999
0.9999996
0.9999983
0.9999977
0.9999983
0.9999993
0.9999995
0.9999998
0.9999999
0.9999994
0.9999991
0.9999991
0.9999996
0.9999999
0.9999999
0.9999997
0.9999987
0.9999988
0.9999996
1
1
1
0.9999993
0.9999967
0.9999963
0.9999963
0.9999963
0.9999981
0.999999
0.9999976
0.9999973
0.9999973
0.9999981
0.9999996
1
1
1
1
1
1
0.9999998
0.9999996
0.9999996
0.9999998
1
1
1
1
1
1
1
1
1
1
1
1
1
1
1
1
1
1
1
1
1
1
1
1
1
1
1
1
1
1
1
1
1
1
1
1
1
1
1
1
1
1
0.9999999
0.9999999
0.9999999
1
1
1
1
1
1
1
1
1
1
1
1
1
1
1
0.9999999
1
1
1
1
1
1
1
1
1
1
1
1
1
1
1
1
1
1
1
1
1
1
1
1
1
1
1
1
1
1
1
1
1
1
1
1
1
1
1
1
1
1
1
1
1
1
1
1
1
1
1
0.9999998
0.9999981
0.9999862
0.9999327
0.9997882
0.9995819
0.9993971
0.9994107
0.9994553
0.9993714
0.9986961
0.9965337
0.9936348
0.9928427
0.9939906
0.9971785
0.9983499
0.9972911
0.9898168
0.9832082
0.986087
0.9915477
0.9879012
0.9505194
0.8302355
0.8021327
0.9116322
0.9862869
0.9892468
0.9794086
0.964753
0.9634396
0.9707485
0.9850484
0.9911285
0.9893663
0.9710227
0.9666863
0.9856456
0.9982419
0.9999161
0.9999537
0.9998726
0.9992007
0.998822
0.9993746
0.9997015
0.9991224
0.997877
0.9944058
0.9818864
0.9158709
0.8083946
0.8361742
0.9400482
0.9874057
0.9772873
0.9521972
0.7530863
0.3334707
0.4353953
0.8247748
0.9694243
0.9700308
0.9692124
0.9795169
0.9873263
0.9641902
0.9408358
0.9588537
0.9893324
0.9985115
0.9995427
0.9993062
0.9993162
0.9996712
0.99994
0.9999963
0.999998
0.999998
0.9999882
0.9998348
0.9996247
0.9994496
0.9985596
0.9957331
0.9926829
0.9908594
0.9745356
0.7869554
0.7296748
0.7296748
0.7771533
0.9376444
0.9542773
0.923054
0.8998438
0.8998438
0.9316584
0.9783136
0.9866886
0.9904593
0.9959736
0.9994358
0.9999612
0.9999193
0.9995439
0.9955878
0.9576546
0.9289574
0.9418816
0.9825876
0.998264
0.999821
0.9999686
0.9999971
0.9999987
0.9999987
0.9999983
0.9999975
0.9999941
0.9999806
0.9999416
0.999906
0.9999129
0.9999616
0.9999653
0.9997672
0.9972584
0.9963226
0.9978923
0.9991859
0.9972473
0.9793984
0.9815485
0.9942828
0.9968196
0.9932846
0.9586981
0.9460655
0.9629504
0.9914949
0.9977516
0.9961342
0.9943264
0.9954038
0.9984672
0.9998653
0.9998757
0.9988471
0.9923326
0.9917149
0.9961219
0.9992712
0.9998888
0.9998866
0.9997142
0.9996068
0.9997292
0.9999079
0.999975
0.9999817
0.9999816
0.9999631
0.999725
0.9987449
0.9986993
0.9994347
0.9999184
0.999939
0.9998737
0.9992475
0.994502
0.9896749
0.9913558
0.9969775
0.9994984
0.9999269
0.9999942
0.9999988
0.9999987
0.9999983
0.9999951
0.9999765
0.9996523
0.9904577
0.9592288
0.9593237
0.9833753
0.9977186
0.999925
0.999967
0.9997611
0.9967498
0.959405
0.9138368
0.9437465
0.9854217
0.9978557
0.9981978
0.9958943
0.9849237
0.9864414
0.9950736
0.9991113
0.9998524
0.9999705
0.9999563
0.9997327
0.9996859
0.9998646
0.999987
0.99998
0.9998354
0.9997065
0.9998412
0.999971
0.9999963
0.9999973
0.9999968
0.9999934
0.9999502
0.9991047
0.9916244
0.9886106
0.9908188
0.9961932
0.9992578
0.9993201
0.9937377
0.9788965
0.9787037
0.9850434
0.9968667
0.9997999
0.9998674
0.9998277
0.9997356
0.9993916
0.9965498
0.9947279
0.9948278
0.9977577
0.999601
0.9999465
0.9999898
0.9999924
0.9999827
0.999914
0.9998889
0.9999457
0.9999761
0.9999645
0.9998397
0.9998433
0.9999327
0.9999855
0.9999987
1
1
1
0.9999998
0.999999
0.9999947
0.9999752
0.9999309
0.9999278
0.9999688
0.9999844
0.9999465
0.9994575
0.996641
0.9963572
0.99856
0.9998337
0.9999953
0.9999982
0.9999982
0.999995
0.999929
0.9996077
0.9992225
0.9992779
0.9993527
0.999019
0.9917453
0.9875143
0.9895271
0.9967013
0.9992608
0.9987956
0.9983612
0.9989044
0.9997345
0.9999709
0.9999736
0.9999713
0.9999807
0.9999947
0.9999966
0.9999867
0.9999024
0.9998729
0.9999031
0.9999745
0.9999921
0.9999857
0.9999828
0.9999899
0.9999954
0.9999989
0.9999998
0.9999999
0.9999999
1
0.9999999
0.9999997
0.999999
0.9999981
0.9999962
0.9999856
0.999934
0.9999116
0.9999414
0.9999869
0.9999987
0.9999998
1
1
1
0.9999999
0.9999994
0.9999953
0.9999847
0.9999861
0.9999944
0.999999
0.9999999
1
1
1
1
0.9999998
0.9999998
0.9999999
0.9999999
0.9999993
0.9999991
0.9999991
0.9999996
0.9999999
1
1
1
0.9999999
0.9999999
0.9999999
0.9999999
0.9999999
0.9999991
0.9999965
0.9999963
0.9999963
0.9999983
0.9999997
0.9999998
0.9999998
0.9999999
1
1
1
1
1
0.9999995
0.9999978
0.9999984
0.9999996
1
1
1
1
1
1
1
1
1
1
1
1
1
1
1
1
1
1
1
1
1
1
1
1
1
1
1
1
1
1
1
1
1
1
1
1
1
1
1
1
1
1
0.9999999
0.9999993
0.9999989
0.9999993
0.9999998
1
1
1
1
1
0.9999999
1
1
1
1
1
1
1
1
1
1
1
1
1
1
1
1
1
1
1
1
1
1
1
0.9999999
0.9999999
0.9999999
0.9999999
1
1
1
1
1
1
1
1
1
1
1
1
1
1
1
1
1
1
1
1
1
1
1
1
1
1
1
1
1
1
1
1
1
1
1
1
1
1
1
1
1
1
1
1
1
1
1
0.9999996
0.9999942
0.9999541
0.9997043
0.9984014
0.993455
0.9813161
0.9679905
0.9601786
0.9613797
0.9664944
0.9682801
0.9572796
0.9083989
0.8350188
0.8376755
0.9107483
0.9725852
0.9725716
0.9392464
0.8548947
0.859543
0.885122
0.8870855
0.8271772
0.4714299
0.4528194
0.7474009
0.968008
0.9620997
0.8924223
0.6534137
0.5747444
0.6960677
0.8512625
0.7877388
0.5940919
0.6637575
0.8673189
0.9761486
0.9978774
0.9998142
0.9997365
0.9972
0.9925447
0.9946008
0.9986712
0.9997216
0.9990063
0.9775006
0.9638291
0.9669712
0.88444
0.9158342
0.9700585
0.9800839
0.9711983
0.9039032
0.6337962
0.2023961
0.06088225
0.05369337
0.1454059
0.422892
0.5654825
0.6839295
0.7789176
0.7266006
0.7656058
0.9140183
0.9787568
0.9928671
0.9983037
0.9998563
0.9998076
0.9992455
0.9992231
0.9996231
0.9999485
0.9999938
0.9999889
0.9999647
0.9998542
0.9960955
0.9778814
0.9766557
0.9827822
0.9318753
0.5137566
0.4401967
0.6501223
0.9464149
0.9784479
0.9749295
0.9019666
0.8648808
0.8964925
0.9693046
0.994235
0.9987833
0.9996892
0.9998762
0.9999381
0.9999713
0.9999831
0.9999651
0.9995091
0.9903489
0.913546
0.8881117
0.8975637
0.9622063
0.9945479
0.9996294
0.9999914
0.9999981
0.999998
0.9999974
0.9999946
0.9999842
0.9999442
0.9997737
0.9989342
0.996098
0.9959532
0.9974581
0.9986905
0.9993486
0.9997717
0.9997831
0.9993484
0.9940342
0.9755866
0.9794918
0.9896207
0.9951325
0.9950319
0.9701897
0.8900426
0.8890499
0.951349
0.9857963
0.9893903
0.9940215
0.997937
0.9978712
0.997527
0.9980087
0.9992752
0.9997766
0.9992725
0.9929611
0.9903842
0.9930455
0.9983387
0.9998819
0.9999185
0.9998817
0.9997542
0.9994599
0.9987805
0.9984385
0.9991592
0.9998898
0.9998031
0.9982612
0.9972479
0.9976504
0.9992329
0.999838
0.9998126
0.9989945
0.9875572
0.9726786
0.9762315
0.9911854
0.998718
0.9999228
0.9999828
0.9999816
0.9999725
0.9998945
0.9983543
0.9721622
0.9509097
0.9596666
0.9875986
0.9961478
0.9895987
0.9855928
0.9911023
0.9981747
0.9998468
0.9993158
0.9885793
0.902828
0.8704015
0.9048126
0.9768252
0.9980424
0.998187
0.9890412
0.978278
0.9795977
0.9913564
0.9987019
0.9999529
0.9999983
0.9999901
0.9998294
0.9996157
0.9996385
0.9998554
0.9999792
0.9999921
0.9999832
0.9999828
0.9999784
0.9999301
0.9990716
0.9920513
0.9893328
0.9926134
0.9982299
0.9987557
0.9987501
0.9975776
0.9740111
0.9582906
0.9587766
0.9830526
0.9977825
0.9998802
0.9999237
0.9999237
0.9999237
0.9999218
0.9997345
0.9971182
0.9855654
0.9863907
0.9951273
0.9992648
0.9998408
0.9999489
0.9999888
0.9999929
0.9999929
0.9999921
0.9999873
0.9999806
0.999974
0.9998964
0.9993606
0.9992278
0.9994879
0.9998906
0.9999918
0.9999995
0.9999999
1
0.9999999
0.9999997
0.9999976
0.99998
0.9998683
0.9995375
0.9994663
0.9996886
0.9999591
0.9999546
0.9995466
0.9952638
0.9927756
0.9948017
0.9987786
0.9999277
0.999998
0.999998
0.9999959
0.9999817
0.999821
0.9965227
0.9873817
0.9870706
0.994062
0.9989207
0.9986634
0.9964418
0.9961973
0.9981275
0.9997141
0.9999418
0.9999181
0.9999018
0.9999269
0.9999802
0.9999871
0.9999847
0.9999662
0.9998794
0.9998247
0.9998558
0.9999505
0.9999893
0.9999956
0.9999964
0.9999958
0.9999927
0.9999785
0.9998993
0.9994422
0.9989284
0.9991965
0.9997532
0.9999782
0.9999992
0.9999989
0.9999964
0.9999844
0.999923
0.9996371
0.9994433
0.9996691
0.9999255
0.9999935
0.9999995
0.9999996
0.9999996
0.9999994
0.9999979
0.9999847
0.9999156
0.9998993
0.9999398
0.9999874
0.9999981
0.9999995
0.9999999
1
1
1
1
1
1
1
1
1
0.9999999
0.9999992
0.9999991
0.9999991
0.9999996
1
1
1
0.9999999
0.9999999
0.9999999
1
1
0.9999998
0.9999983
0.9999972
0.9999985
0.9999997
1
1
1
1
1
1
1
1
0.9999999
0.9999983
0.9999972
0.9999983
0.9999997
1
1
1
1
1
1
1
1
1
1
1
1
1
1
1
1
1
1
1
1
1
1
1
1
1
1
1
1
1
1
1
1
1
0.9999999
0.9999997
0.9999996
0.9999997
0.9999999
1
1
1
1
0.9999999
0.9999993
0.9999978
0.9999978
0.999998
0.999999
0.9999996
0.9999998
0.9999999
0.9999999
0.9999999
0.9999999
1
1
1
1
1
1
1
1
1
1
1
1
1
1
1
1
1
1
1
1
1
1
1
1
1
1
1
1
1
1
1
1
1
1
1
0.9999999
1
1
0.9999999
0.9999999
0.9999999
1
1
1
1
1
1
1
1
1
1
1
1
1
1
1
1
1
1
1
1
1
1
1
1
1
1
1
1
1
1
1
1
1
1
1
1
1
1
1
1
1
0.9999997
0.9999981
0.9999921
0.9999648
0.9998287
0.9990082
0.9954693
0.9836606
0.9463924
0.8553558
0.7045072
0.6043908
0.5863152
0.595487
0.6275594
0.6588843
0.5422782
0.2103838
0.1489655
0.4166379
0.8221943
0.765438
0.3587114
0.3131388
0.6456035
0.8247286
0.5495784
0.3655009
0.3655009
0.3655009
0.6878904
0.9231559
0.8741187
0.5709692
0.151067
0.05468109
0.05752266
0.07079759
0.140519
0.3799466
0.3746031
0.3649401
0.5861219
0.8961447
0.9894363
0.9955329
0.9887782
0.9914447
0.9964075
0.9988357
0.9988621
0.9983253
0.9913624
0.8747837
0.8659277
0.9456656
0.9861081
0.9882453
0.9755837
0.9302782
0.7453448
0.2627396
0.05393538
0.05382376
0.05377513
0.05373099
0.0660866
0.08133523
0.09431033
0.1050699
0.1206333
0.4613251
0.8860159
0.9866848
0.9989297
0.9998439
0.9999533
0.9999599
0.9998642
0.9996657
0.9997521
0.9999443
0.9999612
0.9997543
0.996533
0.980775
0.9817051
0.9860791
0.8977571
0.4265258
0.3994708
0.7062592
0.8724839
0.8808553
0.9480395
0.9476487
0.7311176
0.5101188
0.592593
0.8833361
0.9910797
0.9998011
0.9999818
0.9999819
0.9999831
0.9999814
0.9999718
0.999908
0.9995913
0.9991912
0.9960877
0.956123
0.9315333
0.9603509
0.9894362
0.9989624
0.999926
0.999935
0.9999067
0.9998501
0.9998435
0.9998505
0.9996133
0.9970817
0.9840404
0.9775901
0.9879418
0.9960142
0.9943374
0.9851596
0.9786224
0.982721
0.9935334
0.9992526
0.9994733
0.998492
0.9867294
0.912783
0.904967
0.9557574
0.9908744
0.9533305
0.9111256
0.9463366
0.9880961
0.9961528
0.9961542
0.9961542
0.9911699
0.9835071
0.9835071
0.9873699
0.9963794
0.9960062
0.9938141
0.9966873
0.9984827
0.9987265
0.9993521
0.9997598
0.9997081