/*--------------------------------*- C++ -*----------------------------------*\
| =========                 |                                                 |
| \\      /  F ield         | foam-extend: Open Source CFD                    |
|  \\    /   O peration     | Version:     3.1                                |
|   \\  /    A nd           | Web:         http://www.extend-project.de       |
|    \\/     M anipulation  |                                                 |
\*---------------------------------------------------------------------------*/
FoamFile
{
    version     2.0;
    format      ascii;
    class       volScalarField;
    location    "16.5";
    object      nut;
}
// * * * * * * * * * * * * * * * * * * * * * * * * * * * * * * * * * * * * * //

dimensions      [0 2 -1 0 0 0 0];

internalField   nonuniform List<scalar> 
119952
(
4.514012e-05
3.006323e-05
3.060976e-05
3.355276e-05
3.530432e-05
3.321878e-05
3.174961e-05
3.064807e-05
2.977605e-05
2.903007e-05
2.835505e-05
2.771701e-05
2.709707e-05
2.648351e-05
2.587152e-05
2.526006e-05
2.465094e-05
2.405456e-05
2.345232e-05
2.282861e-05
2.881078e-05
2.7313e-05
2.672339e-05
3.436979e-05
3.318512e-05
3.250288e-05
3.203437e-05
3.194489e-05
3.186905e-05
2.118441e-05
3.129314e-05
3.40121e-05
3.833895e-05
4.272212e-05
4.727085e-05
5.186592e-05
5.628493e-05
6.014262e-05
6.321993e-05
6.914269e-05
0.0002793029
0.000299559
0.0003283366
0.0003662323
0.0004118672
0.0004627834
0.0005170763
0.0005745509
0.0006353087
0.0009043528
0.0009931009
0.001092169
0.001201809
0.001322429
0.001452384
0.001588602
0.001727601
0.001866318
0.002001269
0.002131617
0.002255744
0.002374036
0.00248516
0.002586111
0.002673426
0.002744481
0.002798861
0.002840419
0.002816282
0.002724265
0.002633751
0.002543228
0.002445364
0.002330257
0.00222098
0.002127017
0.002049455
0.001986211
0.001934337
0.001890622
0.001852399
0.001817782
0.001785568
0.001755214
0.001726855
0.001701276
0.001680183
0.0016662
0.001664649
0.001660381
0.001660153
0.001669363
0.001681972
0.001686251
0.001683149
0.001668852
0.001612913
0.001502422
0.001478382
0.001475105
0.001487004
0.001506215
0.001529404
0.001554355
0.001579094
0.001602115
0.001622471
0.001639701
0.001653705
0.001664438
0.001671684
0.001675419
0.001675548
0.001671836
0.001664105
0.001652407
0.001637122
0.001618894
0.001598488
0.001576687
0.001554194
0.001531568
0.001509173
0.001487177
0.001465567
0.001444201
0.001422854
0.001401255
0.001379097
0.001356011
0.001331498
0.001304977
0.001275937
0.001244103
0.001209536
0.001172746
0.001134664
0.0010965
0.001059549
0.001024994
0.0009937759
0.000966582
0.0009438858
0.0009259668
0.0009129051
0.0009046764
0.0009017041
0.0009022018
0.0009045835
0.0009092695
0.0009157135
0.0009234707
0.000932305
0.0009419738
0.0009521889
0.0009626465
0.0009730637
0.0009831469
0.0009925159
0.001000642
0.001006729
0.001009712
0.001008666
0.001002247
0.0009889899
0.0009683571
0.0009406273
0.0009066559
0.0008675274
0.0008243172
0.0007782251
0.0007312639
0.0006872314
0.0006510953
0.0006257835
0.000610249
0.0006011473
0.0005953463
0.0005910074
0.0005874196
0.0005844665
0.0005822468
0.0005808424
0.0005802176
0.0005802528
0.00058079
0.0005816183
0.0005824745
0.0005830559
0.0005831668
0.0005826565
0.0005813579
0.0005794243
0.0005768878
0.0005738201
0.0005705171
0.0005684159
0.0004689487
0.0004740022
0.0004623228
0.0004373503
0.0004182336
0.0004027962
0.0003896928
0.0003780245
0.0003671983
0.000356897
0.0003469953
0.0003369451
0.0003268431
0.0003168396
0.0003070692
0.0002976706
0.0002887689
0.0002804541
0.00027279
0.0002658016
0.0002594633
0.0002537191
0.0002485085
0.0002437725
0.0002394523
0.0002354902
0.0002318305
0.0002284297
0.0002252414
0.0002222232
0.0002193392
0.0002165641
0.0002138891
0.0002113458
0.0002091663
0.0002093645
0.0002072744
0.0002100753
0.0002137567
0.0002179338
0.0002225987
0.0002275095
0.000232686
0.0002380745
0.0002436366
0.000249345
0.0002552158
0.000261187
0.0002672129
0.0002732365
0.0002788428
0.0002825932
0.0002861117
0.000289418
0.0002925656
0.0002955573
0.0002983978
0.0003010992
0.0003036708
0.0003061167
0.0003084426
0.0003106562
0.0003127697
0.0003147975
0.0003167557
0.0003186674
0.0003205472
0.0003224008
0.0003242328
0.0003260157
0.0004120799
0.0004159108
0.000419484
0.0004223424
0.0004243285
0.0004255603
0.000426404
0.0004263548
0.0004235901
0.0004158234
0.000401065
0.0003752322
0.0003501389
0.0003423445
0.000341393
0.0003474969
0.0003628542
0.0003793338
0.0003925646
0.0004026394
0.0004108087
0.0004185996
0.0004272791
0.0004377982
0.0004505112
0.0004646724
0.0004748607
0.0004837937
0.0004915637
0.0004986243
0.0005052617
0.0005115741
0.000517637
0.0005236531
0.0005297257
0.0005352921
0.0005400856
0.0005441984
0.0005478299
0.0005512116
0.0005545847
0.0005582245
0.0005624589
0.0005676337
0.0005740137
0.0005816427
0.0005903869
0.0006004557
0.0006118405
0.0006244767
0.0006382837
0.0006531413
0.0006688876
0.0006858805
0.0007026734
0.0007185553
0.0007354751
0.0007531401
0.0007713333
0.0007897504
0.0008078937
0.0008252328
0.0008412513
0.0008554978
0.0008676207
0.0008773886
0.00088469
0.0008895213
0.0008919696
0.0008921989
0.000890435
0.0008869483
0.0008820384
0.0008760221
0.0008692227
0.0008619597
0.0008545368
0.0008472326
0.0008402906
0.0008339128
0.0008282631
0.0008234674
0.0008196109
0.0008167983
0.0008151635
0.0008146963
0.0008153139
0.0008169596
0.0008195825
0.0008231567
0.0008276822
0.000833049
0.0008390923
0.0008457334
0.0008529794
0.000860736
0.0008688631
0.00087732
0.0008861693
0.0008954688
0.0009051135
0.0009149367
0.0009247952
0.0009346071
0.0009443404
0.0009539798
0.0009635164
0.0009729271
0.0009822041
0.0009913746
0.001000394
0.001009199
0.001017802
0.001026266
0.001034547
0.001042569
0.001050308
0.001057813
0.001065132
0.001072182
0.001078919
0.001085442
0.001091774
0.001097965
0.001104137
0.001110216
0.001116112
0.001121725
0.001126968
0.001132313
0.00113818
0.001144125
0.001149778
0.001155148
0.001160657
0.001167011
0.001176322
0.001195284
0.001129655
4.330865e-05
4.716297e-05
5.346275e-05
6.112448e-05
6.942049e-05
7.779568e-05
8.595436e-05
9.373353e-05
0.0001021445
0.0003868906
0.0004703099
0.0005557397
0.0006377673
0.0007132876
0.0007816351
0.0008437
0.0009014084
0.000957669
0.001372874
0.001441424
0.001528646
0.001636917
0.001767671
0.00192639
0.002116649
0.002338356
0.002588788
0.002861603
0.003142409
0.003420018
0.003681946
0.003913221
0.004099574
0.004227034
0.004287336
0.004283674
0.004233382
0.004134797
0.004025179
0.003957162
0.003928146
0.00392061
0.0039081
0.003863782
0.003772856
0.003640486
0.00347303
0.003272605
0.003078722
0.00292054
0.002810783
0.002749996
0.002722647
0.002724003
0.002769478
0.002860569
0.00363956
0.003826803
0.004045247
0.004288004
0.004546895
0.004813547
0.005080418
0.005341579
0.005593082
0.005832516
0.00605797
0.006266729
0.006454499
0.006616033
0.006746348
0.006841754
0.006901529
0.006925098
0.00691169
0.006853968
0.006756102
0.006633149
0.006496277
0.00634124
0.006175938
0.006012586
0.005857992
0.005715176
0.005584895
0.005466432
0.005358228
0.005258533
0.005165763
0.005078659
0.004996416
0.004918701
0.004845641
0.004777731
0.004715635
0.004659669
0.004608083
0.004564733
0.004528275
0.004488907
0.004446682
0.004406565
0.004366603
0.004328111
0.004307266
0.004316511
0.004343979
0.004386964
0.004441731
0.00450474
0.004572622
0.00464222
0.004710917
0.004776718
0.004838125
0.004893915
0.004942991
0.004984332
0.00501692
0.005039718
0.005051765
0.005052413
0.005041579
0.005019805
0.004988191
0.004948285
0.004901918
0.004850966
0.004797127
0.004741771
0.004685848
0.004629874
0.004573987
0.004518059
0.004461799
0.004404782
0.004346404
0.00428586
0.004222243
0.004154698
0.004082541
0.004005406
0.003923373
0.003837056
0.003747616
0.003656695
0.003566328
0.003478836
0.003396682
0.003322287
0.003257825
0.003205033
0.003165054
0.003138418
0.003124784
0.003123037
0.003132605
0.003152786
0.003182649
0.003221158
0.003267155
0.003319339
0.003376329
0.003436691
0.003498898
0.003561106
0.003620889
0.003675181
0.0037205
0.003753218
0.00376987
0.00376789
0.003745914
0.003703689
0.003641828
0.003561609
0.003464983
0.003355006
0.003236447
0.00311568
0.002998866
0.002889801
0.002789499
0.002697374
0.00261257
0.002534714
0.002464125
0.002401689
0.002348552
0.002305764
0.002274014
0.002253501
0.002243916
0.002244509
0.002254235
0.00227189
0.002296256
0.002326212
0.002360788
0.002399063
0.002440332
0.002484036
0.002529932
0.002579542
0.00249144
0.00241069
0.002368589
0.002350114
0.002345357
0.002347517
0.002351911
0.002355193
0.002354896
0.002349263
0.00233713
0.002317861
0.002291396
0.002258107
0.002218703
0.002174155
0.002125636
0.002074437
0.002021858
0.001969092
0.001917161
0.00186693
0.001819136
0.001774399
0.001733202
0.001695885
0.00166265
0.001633605
0.00160873
0.001587939
0.00157109
0.001558017
0.001548618
0.001543057
0.001542023
0.001546921
0.001558541
0.001572277
0.001587231
0.00160371
0.001621545
0.001640277
0.001659495
0.001678852
0.001698028
0.001716769
0.00173489
0.001752227
0.001768593
0.001783781
0.001797617
0.001809994
0.001820785
0.001829892
0.001837279
0.001842983
0.001847227
0.00185013
0.001851581
0.001851548
0.001850046
0.001847112
0.001842791
0.001836959
0.001829764
0.00182153
0.001812483
0.001802796
0.001792627
0.001782181
0.002123734
0.002114055
0.002103231
0.002089898
0.002072337
0.002049174
0.002018574
0.001978796
0.001927516
0.0018609
0.001776149
0.001679331
0.001584668
0.001501863
0.001432443
0.001371945
0.001313952
0.001254262
0.001192538
0.001131604
0.001075632
0.001028396
0.0009923704
0.0009683779
0.0009554163
0.0009174556
0.0008894157
0.0008802118
0.0008884183
0.0009117054
0.0009472269
0.0009928581
0.001046884
0.001107381
0.001172387
0.001223739
0.001262238
0.001299117
0.001334543
0.001368642
0.001401817
0.00143459
0.001467509
0.001501114
0.001535889
0.001572168
0.001610147
0.001649983
0.00169171
0.001735225
0.001780346
0.001826814
0.001874462
0.001923188
0.001972327
0.00202159
0.002071333
0.00212078
0.00216919
0.002215893
0.002260257
0.002301701
0.002339707
0.002373822
0.002403677
0.002428986
0.002449563
0.002465325
0.002476297
0.002482615
0.002484516
0.00248233
0.002476469
0.00246742
0.002455733
0.002441997
0.002426826
0.002410827
0.002394592
0.00237867
0.002363563
0.002349714
0.002337513
0.002327298
0.002319341
0.002313813
0.002310805
0.002310351
0.002312442
0.002317038
0.002324054
0.002333346
0.002344742
0.002358076
0.002373173
0.002389831
0.002407859
0.002427125
0.002447556
0.002469059
0.002491452
0.002514499
0.002537971
0.002561687
0.002585508
0.002609323
0.00263304
0.002656578
0.002679873
0.002702867
0.002725496
0.002747706
0.002769466
0.002790747
0.002811507
0.0028317
0.002851306
0.002870321
0.002888735
0.002906526
0.002923689
0.002940251
0.002956259
0.002971769
0.002986828
0.003001459
0.003015677
0.003029487
0.00304293
0.003056103
0.003069066
0.003081753
0.003094164
0.00310633
0.003118642
0.003131615
0.003147442
0.003168542
0.00319189
4.520181e-05
5.991779e-05
8.421315e-05
0.0001172015
0.0001635697
0.0002342557
0.0002805194
0.0003211045
0.0003659762
0.0004372549
0.001505321
0.001659101
0.001807486
0.001956189
0.002103283
0.002247047
0.002389696
0.00253411
0.002668616
0.004023655
0.004388347
0.004666763
0.004862307
0.004990747
0.005071588
0.005121066
0.005150262
0.005167095
0.00517684
0.005191804
0.005226571
0.005281635
0.005355881
0.005446931
0.005550298
0.005660137
0.005771669
0.005886732
0.005896942
0.005945607
0.006013645
0.006085028
0.006141953
0.006168517
0.006157063
0.006110301
0.006037697
0.005948053
0.005846494
0.005740487
0.005639582
0.005545051
0.00545265
0.005359094
0.005270666
0.005191832
0.005925738
0.005902102
0.005917205
0.005991789
0.006129737
0.006334678
0.006607776
0.006944723
0.007331447
0.007745597
0.008157202
0.008535877
0.008858285
0.00910745
0.009268999
0.009333492
0.009303849
0.009199636
0.00905373
0.008907338
0.008789835
0.008695436
0.008613464
0.008529545
0.008426877
0.0082868
0.00808849
0.007827664
0.00751732
0.007185657
0.006864976
0.006581708
0.006352196
0.006182706
0.006071921
0.006014345
0.006001639
0.006033928
0.006116066
0.006257915
0.006451202
0.006684316
0.006944268
0.007218911
0.007498025
0.007773674
0.008040033
0.008294293
0.008534674
0.008757006
0.008955134
0.00912226
0.009252616
0.009342936
0.009394001
0.009406401
0.009378871
0.009309943
0.009205438
0.009077533
0.008932154
0.008768856
0.008597106
0.008425956
0.00826114
0.008104735
0.007957182
0.00781909
0.007690173
0.007569617
0.007456337
0.007349221
0.007247348
0.007150005
0.007056671
0.006967039
0.006881121
0.006798938
0.006719623
0.006645249
0.006576373
0.006510785
0.006448144
0.006394404
0.006350595
0.006321959
0.006315194
0.006336646
0.006382091
0.00644612
0.006524948
0.006614456
0.006710495
0.006809196
0.006907278
0.007002127
0.0070916
0.007173766
0.00724679
0.007308906
0.007358421
0.007393751
0.007413565
0.007417122
0.007404523
0.007376682
0.007335218
0.007282365
0.007220711
0.007152855
0.007081138
0.007007473
0.006933203
0.006859052
0.006785224
0.006711589
0.006637862
0.006563576
0.006488003
0.006410211
0.006329194
0.006244038
0.006154011
0.006058663
0.00595798
0.005852471
0.005743178
0.00563168
0.005520103
0.005411077
0.005307583
0.0052127
0.005129296
0.005059741
0.005005771
0.004968355
0.004947631
0.004942926
0.004953483
0.004978438
0.005016541
0.005066297
0.005125952
0.005193552
0.005267158
0.005344976
0.005425116
0.005505098
0.005581552
0.005650374
0.005707177
0.005747827
0.005769076
0.005769035
0.005747071
0.005703296
0.005638244
0.005552942
0.005449231
0.005330121
0.005199905
0.005063674
0.004926109
0.004790401
0.004658132
0.004529916
0.004406193
0.004287782
0.004176115
0.004073188
0.003981297
0.003902636
0.003838955
0.003791331
0.003760084
0.003744835
0.003744694
0.003758432
0.003784666
0.003821926
0.003868756
0.003923751
0.003985726
0.004053532
0.004126276
0.004201932
0.004266264
0.00433816
0.00441374
0.004489295
0.004561709
0.00462825
0.004686446
0.004734285
0.004770701
0.004795215
0.004807289
0.004806734
0.004793675
0.004768546
0.004732114
0.004685489
0.00463008
0.004567501
0.004499438
0.004427577
0.004353576
0.004279049
0.004205525
0.004134384
0.00406681
0.004003777
0.003946026
0.003894117
0.003848435
0.00380919
0.003776454
0.003750238
0.003730564
0.00371754
0.003711333
0.00371196
0.003718615
0.003730044
0.003745371
0.003763798
0.003784541
0.003806861
0.00382998
0.003853363
0.003876681
0.003899596
0.003921752
0.003942785
0.003962337
0.003980062
0.003995591
0.004008562
0.004018854
0.00402637
0.004031028
0.004032759
0.00403151
0.004027283
0.004020152
0.004010272
0.003997856
0.003983136
0.003966364
0.003947818
0.003927762
0.003906414
0.003883947
0.003860504
0.003836128
0.003811782
0.003773605
0.003736539
0.003698983
0.003659839
0.003617644
0.003570125
0.003515259
0.003451703
0.003377124
0.003287866
0.003182822
0.003067476
0.002950599
0.002837095
0.00272662
0.002615217
0.002497656
0.002370357
0.002233122
0.002089137
0.001943879
0.001803935
0.001675909
0.001564994
0.001473984
0.001403376
0.001352135
0.001318752
0.001301465
0.001298078
0.001287005
0.001255991
0.001251067
0.001267608
0.00130259
0.00135454
0.001422465
0.001504437
0.001596618
0.001670462
0.001725386
0.001781158
0.001837769
0.001895314
0.001954049
0.002014219
0.002076059
0.002139782
0.002205515
0.002273276
0.002342965
0.002414324
0.002487016
0.002560344
0.002633463
0.002705834
0.002776731
0.002846273
0.002913933
0.002979098
0.003041197
0.003099717
0.00315421
0.003204282
0.003249599
0.003289891
0.00332496
0.003354687
0.003379043
0.003398092
0.003411994
0.003420995
0.003425427
0.003425707
0.003422337
0.003415888
0.003406985
0.003396282
0.003384445
0.00337213
0.003359967
0.003348544
0.003338399
0.003330011
0.003323795
0.003320081
0.003319109
0.003321037
0.003325957
0.003333895
0.003344824
0.00335865
0.003375232
0.003394397
0.003415955
0.003439691
0.003465384
0.003492834
0.003521876
0.003552353
0.003584063
0.003616759
0.003650185
0.00368411
0.003718336
0.003752691
0.003787027
0.003821215
0.003855139
0.003888702
0.003921813
0.003954389
0.003986364
0.004017684
0.004048297
0.004078153
0.004107213
0.004135455
0.004162863
0.00418942
0.00421512
0.004239972
0.004264003
0.004287256
0.004309772
0.004331593
0.004352763
0.004373314
0.004393268
0.004412662
0.004431539
0.004449913
0.0044678
0.004485304
0.004502676
0.004520446
0.004539532
0.004561125
0.004583939
4.379709e-05
7.442583e-05
0.0001590982
0.0005634496
0.0009869866
0.001850264
0.002482021
0.003247742
0.004101922
0.004810935
0.005348142
0.005767891
0.006110565
0.006373761
0.006612943
0.006827903
0.007019393
0.007202654
0.007385856
0.007578153
0.007792164
0.007656358
0.007588505
0.007614639
0.007697707
0.007867819
0.008126935
0.00848811
0.009000317
0.009787875
0.01
0.01
0.01
0.01
0.01
0.01
0.01
0.01
0.01
0.01
0.01
0.01
0.01
0.01
0.01
0.01
0.01
0.01
0.01
0.01
0.01
0.01
0.01
0.01
0.01
0.01
0.01
0.01
0.01
0.01
0.01
0.01
0.01
0.01
0.009838722
0.00963792
0.009448477
0.009283037
0.009118366
0.00900601
0.008941024
0.008937522
0.009018302
0.009188878
0.009447938
0.009783726
0.01
0.01
0.01
0.01
0.01
0.01
0.01
0.01000001
0.01000001
0.01000001
0.01
0.01
0.01
0.01000001
0.0100001
0.01000068
0.01000105
0.01000055
0.01000009
0.01
0.009712396
0.009366712
0.009030222
0.008726511
0.008471995
0.008275144
0.008139408
0.008065625
0.008051638
0.008093172
0.008182736
0.008329171
0.008524029
0.008754157
0.009006074
0.009268474
0.0095325
0.009792506
0.01
0.01
0.01
0.01
0.01
0.01
0.01
0.01
0.01000001
0.01000004
0.01000018
0.01000022
0.01000019
0.01000008
0.01000001
0.01
0.01
0.01
0.01000002
0.009988487
0.009837914
0.009695928
0.009562612
0.009437434
0.009319341
0.009207168
0.009099936
0.00899678
0.00889692
0.008799772
0.008705
0.008612585
0.008522573
0.008436297
0.008355558
0.008281782
0.008217042
0.008165761
0.008131082
0.008117188
0.008127053
0.008162203
0.008220219
0.008296723
0.008387159
0.008486681
0.008591251
0.008697292
0.008801873
0.008902631
0.008997392
0.00908395
0.009160096
0.009223718
0.009272908
0.00930602
0.009321799
0.009319796
0.009300567
0.009265484
0.009216588
0.009156543
0.009088279
0.009014539
0.008937661
0.008859497
0.008781243
0.008703363
0.008625756
0.008547864
0.008469193
0.008389442
0.008307855
0.008223435
0.008135221
0.008042491
0.007944776
0.00784187
0.007733962
0.007621676
0.007506014
0.007388423
0.007270926
0.007156203
0.007047368
0.006947641
0.006860012
0.006786953
0.006730218
0.006690746
0.006668741
0.006663807
0.006675163
0.006701692
0.006741955
0.006794181
0.00685621
0.006925698
0.007000596
0.007079275
0.00715987
0.007239398
0.007313663
0.007377968
0.007427951
0.007460248
0.007473067
0.007466108
0.007439692
0.007393895
0.007328609
0.007244279
0.007142498
0.007025998
0.006898239
0.006762883
0.006623141
0.00648135
0.00633903
0.006197301
0.006057355
0.005920813
0.005789867
0.005667216
0.005555785
0.005458337
0.005377136
0.005313706
0.005268742
0.005242184
0.005233419
0.005241457
0.005265018
0.005302579
0.005352478
0.005413108
0.005483048
0.005560964
0.005645499
0.00573484
0.005826078
0.005917455
0.00600719
0.006093551
0.006174757
0.006249005
0.006314255
0.006368434
0.006409799
0.006438165
0.006453774
0.006456433
0.006446076
0.006422878
0.006387374
0.006340514
0.006283636
0.006218326
0.006146265
0.00606919
0.005988912
0.005907273
0.005826061
0.005746907
0.005671218
0.00560015
0.005534618
0.005475338
0.005422809
0.005377332
0.005339045
0.005307985
0.005284127
0.005267439
0.005257805
0.005255021
0.005258461
0.005267125
0.005280082
0.00529651
0.005315545
0.005336329
0.005358102
0.005380255
0.00540234
0.005423956
0.005444635
0.005463842
0.005481068
0.005495923
0.005508149
0.005517564
0.005523979
0.005527211
0.005527114
0.005523593
0.005516557
0.00550597
0.00549196
0.005474829
0.005454936
0.00543262
0.005408247
0.005382221
0.00535484
0.005326271
0.005296635
0.005266077
0.005234576
0.005202225
0.005167818
0.005131008
0.005091465
0.005048712
0.005001776
0.00494921
0.004889612
0.004821777
0.004744101
0.004654816
0.004553888
0.004444263
0.004329841
0.0042122
0.004089923
0.003959631
0.003817203
0.003659344
0.003484779
0.003294683
0.003092715
0.002884855
0.002678631
0.002481622
0.002299963
0.002137811
0.001997776
0.001881547
0.001789845
0.001722174
0.001676988
0.001651982
0.001644467
0.0016515
0.001669829
0.001658029
0.001642589
0.001658505
0.001700914
0.001765681
0.001849231
0.001946772
0.002043876
0.002109728
0.002178755
0.002251071
0.002326745
0.002405739
0.002487912
0.002573008
0.002660652
0.002750348
0.002841497
0.002933386
0.003025112
0.003115703
0.00320424
0.003289984
0.003373039
0.003452991
0.003529461
0.003602139
0.003670753
0.003735058
0.003794825
0.003849847
0.003899946
0.00394498
0.003984861
0.004019571
0.004049169
0.004073786
0.004093624
0.004108965
0.004120181
0.004127735
0.004132161
0.004134047
0.004134019
0.004132721
0.004130795
0.004128868
0.004127535
0.004127347
0.004128807
0.004132345
0.004138313
0.004146981
0.004158541
0.004173114
0.004190752
0.004211436
0.004235086
0.004261577
0.004290746
0.004322397
0.004356313
0.004392272
0.004430074
0.004469525
0.004510414
0.004552496
0.004595511
0.004639204
0.004683345
0.004727726
0.004772159
0.004816477
0.004860531
0.004904188
0.00494733
0.00498985
0.005031656
0.005072672
0.00511283
0.005152069
0.005190338
0.005227603
0.005263838
0.005299022
0.005333145
0.005366206
0.00539822
0.005429213
0.005459222
0.005488287
0.005516449
0.005543747
0.005570211
0.005595878
0.005620784
0.005644965
0.005668462
0.005691388
0.005713924
0.005736441
0.005759434
0.005783574
0.005807908
2.404166e-05
3.947218e-05
6.070611e-05
0.0002682399
0.0004453881
0.0007832771
0.001113456
0.001416646
0.001794752
0.002158883
0.00254727
0.003039964
0.00361542
0.004250453
0.004934907
0.005769313
0.007360177
0.007945565
0.008477591
0.008915237
0.009232817
0.009420879
0.009537005
0.009595989
0.009612659
0.009212526
0.008619768
0.008083571
0.007631909
0.007294336
0.007051869
0.006900845
0.006841114
0.006916526
0.007095697
0.007394108
0.007809295
0.008401122
0.009156075
0.01
0.01
0.01
0.01
0.01
0.01
0.01
0.01
0.01
0.01
0.01
0.01
0.01
0.01
0.01
0.01
0.01
0.01
0.01
0.01
0.01
0.01
0.01
0.01
0.01
0.01
0.01
0.01
0.01
0.01
0.01
0.01
0.01
0.01
0.01
0.01
0.01
0.01
0.01
0.01
0.01
0.01
0.01
0.01
0.01
0.01
0.01
0.01
0.01
0.01
0.01
0.01
0.01000002
0.01000017
0.01000052
0.01000073
0.01000052
0.01000016
0.01000002
0.01000002
0.01000008
0.01000084
0.01000444
0.01000417
0.01000138
0.01000015
0.01
0.01
0.01
0.01
0.01
0.01
0.01
0.009961347
0.009828388
0.009758469
0.009752265
0.009807433
0.009917606
0.01
0.01
0.01
0.01
0.01
0.01
0.01
0.01
0.01
0.01
0.01
0.01
0.01
0.01000002
0.01000018
0.0100011
0.01000355
0.0100054
0.010003
0.0100006
0.01000007
0.01000007
0.01000014
0.01000069
0.01000136
0.01000119
0.01000045
0.01000006
0.01000001
0.01
0.01
0.01
0.01
0.01
0.01
0.01
0.01
0.01
0.01
0.009973524
0.009891431
0.009816474
0.009751094
0.009698295
0.009661776
0.009644495
0.009648448
0.009674275
0.009721229
0.009786806
0.009867372
0.009958844
0.01
0.01
0.01
0.01000001
0.01000013
0.01000082
0.01000108
0.0100008
0.01000021
0.01000002
0.01
0.01
0.01
0.01
0.01
0.01000003
0.01000024
0.01000034
0.01000024
0.01000006
0.01000001
0.01
0.01
0.01
0.00998223
0.009907902
0.009832016
0.009753536
0.009671287
0.0095844
0.009492518
0.009395659
0.009294152
0.009188648
0.009079948
0.008968984
0.008856914
0.00874516
0.008636454
0.008534053
0.008441067
0.008360206
0.008293563
0.008242451
0.008207419
0.008188471
0.008185274
0.008197085
0.008222669
0.008260491
0.008308721
0.008365013
0.00842684
0.008492456
0.008560992
0.008630959
0.008698777
0.008759255
0.008807343
0.008839362
0.008853525
0.008850217
0.00883108
0.008797111
0.008747583
0.008681158
0.008597674
0.00849879
0.008387341
0.008266344
0.008138412
0.008005479
0.007868967
0.00773005
0.007589973
0.007450342
0.007313253
0.007181266
0.007057331
0.006944516
0.006845614
0.006762848
0.006697695
0.006650861
0.006622401
0.006611942
0.006618795
0.006641896
0.006679741
0.006730541
0.006792582
0.006864417
0.006944691
0.007031892
0.007124119
0.007218937
0.007313584
0.007405515
0.007492728
0.007573706
0.007646921
0.007710485
0.007762558
0.007802076
0.007828909
0.007843675
0.007846237
0.007836307
0.007813819
0.007779148
0.007733155
0.007677144
0.007612674
0.007541382
0.007464979
0.007385302
0.007304244
0.007223618
0.007145028
0.007069807
0.006999029
0.006933541
0.006873993
0.006820853
0.006774402
0.006734758
0.006701944
0.006675927
0.006656634
0.006643912
0.006637504
0.006636921
0.006641429
0.006650197
0.006662349
0.00667697
0.006693181
0.00671027
0.00672776
0.006745321
0.006762537
0.00677877
0.006793281
0.006805487
0.006815097
0.006822042
0.006826279
0.006827606
0.006825691
0.006820256
0.006811107
0.006798059
0.006781039
0.006760325
0.006736521
0.006710222
0.006681843
0.006651797
0.006620572
0.006588439
0.006555385
0.006521414
0.006486672
0.006451163
0.006414718
0.006376947
0.006337393
0.006295487
0.006250453
0.0062013
0.006146888
0.006086158
0.00601822
0.005942222
0.005857562
0.00576456
0.00566462
0.005559039
0.005447533
0.00532809
0.005197631
0.005052768
0.004890633
0.00470953
0.004509305
0.004291618
0.004060044
0.003819814
0.003577128
0.003338175
0.003108645
0.002893816
0.002698446
0.002526241
0.002379349
0.00225835
0.002162738
0.00209122
0.002041825
0.002012174
0.001999815
0.002002282
0.002017227
0.002042437
0.002075844
0.002087968
0.002113036
0.002168397
0.002246796
0.002336927
0.002405774
0.002479706
0.002558706
0.002642612
0.002731081
0.002823591
0.002919455
0.003017851
0.003117857
0.003218476
0.003318724
0.003417668
0.003514352
0.003608016
0.003698536
0.003785688
0.00386931
0.003949272
0.004025455
0.004097733
0.00416596
0.004229978
0.004289623
0.00434475
0.004395251
0.004441081
0.00448226
0.004518863
0.004551024
0.004578974
0.004603044
0.004623651
0.004641281
0.004656472
0.004669802
0.004681868
0.00469327
0.004704596
0.004716411
0.004729243
0.004743568
0.004759797
0.004778267
0.004799247
0.004822929
0.004849438
0.004878825
0.004911078
0.004946128
0.004983857
0.005024107
0.005066688
0.005111394
0.00515802
0.005206367
0.005256221
0.005307349
0.005359498
0.005412415
0.005465858
0.005519601
0.005573436
0.005627172
0.005680637
0.005733676
0.005786145
0.00583792
0.005888889
0.005938958
0.005988042
0.006036069
0.006082978
0.006128723
0.00617327
0.006216591
0.006258668
0.006299495
0.006339077
0.00637743
0.006414582
0.006450563
0.006485412
0.006519168
0.00655187
0.006583559
0.006614276
0.006644068
0.006672987
0.006701135
0.006728646
0.006755784
0.00678288
0.006810353
0.00683712
2.240669e-05
3.468736e-05
6.974167e-05
0.0002140973
0.0003470644
0.0005599455
0.0007212952
0.0009050299
0.001121036
0.001330547
0.001574509
0.001889956
0.00224582
0.002662731
0.003195398
0.004234535
0.004711081
0.005213796
0.005732602
0.006263688
0.006810717
0.007363237
0.007903037
0.008414583
0.008883896
0.009300384
0.00967335
0.01
0.01
0.01
0.01
0.01
0.009938728
0.00931255
0.008663612
0.00804669
0.007478381
0.007004396
0.006623967
0.006360466
0.00621872
0.006191028
0.006299089
0.006558202
0.006987047
0.007605495
0.008426666
0.009413472
0.01
0.01
0.01
0.01
0.01
0.01
0.01
0.01
0.01
0.01
0.01
0.01
0.01
0.01
0.01
0.01
0.01
0.01
0.01
0.01
0.01
0.01
0.01
0.01
0.01
0.01
0.01000003
0.01000011
0.01000014
0.01000008
0.01000002
0.01000001
0.01
0.01
0.01
0.01
0.01
0.01
0.01
0.01
0.01
0.01000001
0.01000001
0.01
0.01
0.01
0.01
0.01
0.01
0.01
0.01
0.01
0.01000006
0.01000107
0.010006
0.0100096
0.01000647
0.01000173
0.01000017
0.0100001
0.01000031
0.01000307
0.01001407
0.01000985
0.01000227
0.01000016
0.01000002
0.01000002
0.01000002
0.01000002
0.01000001
0.01000001
0.01000001
0.01000002
0.01000004
0.01000003
0.01000001
0.01
0.01
0.01
0.01
0.01
0.01
0.01
0.01
0.01
0.01
0.01
0.01
0.01
0.01000001
0.01000005
0.01000026
0.01000113
0.01000441
0.01003292
0.01003436
0.01001076
0.01000098
0.0100004
0.01000124
0.01000917
0.01001296
0.01000622
0.01000095
0.01000007
0.01000001
0.01
0.01
0.01
0.01
0.01
0.01
0.01
0.01000001
0.01000005
0.01000008
0.01000007
0.01000002
0.01
0.01
0.01
0.01
0.01
0.01
0.01
0.01
0.01
0.01
0.01
0.01
0.01
0.01
0.01
0.01000007
0.01000101
0.01000265
0.01000159
0.0100004
0.01000004
0.01
0.01
0.01000001
0.01000002
0.01000025
0.01000154
0.01000174
0.01000103
0.0100002
0.01000003
0.01000002
0.01000001
0.01
0.01
0.01
0.01
0.01000003
0.01000036
0.01000062
0.01000051
0.01000016
0.01000002
0.01000002
0.01000003
0.01000002
0.01
0.01
0.01
0.01
0.009944894
0.009848411
0.009758999
0.009679117
0.009610747
0.009555309
0.009513455
0.009485117
0.009469982
0.009467855
0.009478222
0.009499805
0.009531
0.009570165
0.009615046
0.009663093
0.009713117
0.009765535
0.009819546
0.009870715
0.009912561
0.009939904
0.009950255
0.009943797
0.009923377
0.009892342
0.009851797
0.009799457
0.009732338
0.009650069
0.009555125
0.009450942
0.009340266
0.009224633
0.009104388
0.008979976
0.008852545
0.008723547
0.00859487
0.008468846
0.008348131
0.00823559
0.008134053
0.008045961
0.007973126
0.007916642
0.007876956
0.007854073
0.007847803
0.007857788
0.007883225
0.0079226
0.007973903
0.008035292
0.008105429
0.008183105
0.008266837
0.008354796
0.008444576
0.008533191
0.008617867
0.008696578
0.008768464
0.008832423
0.008886749
0.008929902
0.008961453
0.008981943
0.008991996
0.008991333
0.008979283
0.008955507
0.008920324
0.008874647
0.00881984
0.008757497
0.008689246
0.008616765
0.008541849
0.008466305
0.008391768
0.008319571
0.008250713
0.008185919
0.008125759
0.008070681
0.008021022
0.007976993
0.007938707
0.007906229
0.007879596
0.007858793
0.007843724
0.007834197
0.007829871
0.007830191
0.0078344
0.007841613
0.00785091
0.007861475
0.007872735
0.007884416
0.007896341
0.007908038
0.007918592
0.007927013
0.007932734
0.007935739
0.007936343
0.007934732
0.007930613
0.007923352
0.007912449
0.007897639
0.007878666
0.007855434
0.007828459
0.007798836
0.007767519
0.007734934
0.007701379
0.007667325
0.007632977
0.007598061
0.007562328
0.007525876
0.007488747
0.007450721
0.007411472
0.007370591
0.007327458
0.007281252
0.007231068
0.007175991
0.007115222
0.00704818
0.006974573
0.006894505
0.006808508
0.006717199
0.006620524
0.006517207
0.006404927
0.006280844
0.006142122
0.005986411
0.00581217
0.005618882
0.00540716