/*--------------------------------*- C++ -*----------------------------------*\
| =========                 |                                                 |
| \\      /  F ield         | foam-extend: Open Source CFD                    |
|  \\    /   O peration     | Version:     3.1                                |
|   \\  /    A nd           | Web:         http://www.extend-project.de       |
|    \\/     M anipulation  |                                                 |
\*---------------------------------------------------------------------------*/
FoamFile
{
    version     2.0;
    format      ascii;
    class       volScalarField;
    location    "16.5";
    object      omega;
}
// * * * * * * * * * * * * * * * * * * * * * * * * * * * * * * * * * * * * * //

dimensions      [0 0 -1 0 0 0 0];

internalField   nonuniform List<scalar> 
119952
(
313.6484
395.6282
371.6637
320.1012
283.5989
282.4398
283.5774
286.0745
289.6586
294.1016
299.2167
304.8513
310.9217
317.3865
324.2457
331.5243
339.2971
347.715
357.1128
368.4869
309.3797
307.6356
310.693
261.2177
255.4944
252.4928
250.0811
248.0202
243.6437
137.6537
767.7163
638.0083
534.8838
460.2378
404.2574
360.2901
323.6862
291.7597
262.9992
232.2924
201.4154
180.3579
165.0263
152.23
140.458
129.187
118.4661
108.3434
99.03468
76.08406
70.47895
65.31508
60.67093
56.63281
53.19411
50.29671
47.86444
45.81881
44.09807
42.65297
41.3528
40.16839
39.09513
38.13438
37.28627
36.54343
35.88404
35.29132
35.57959
36.03039
36.26201
36.45803
36.67241
37.07343
37.42822
37.64963
37.72684
37.68133
37.54588
37.35863
37.15108
36.94464
36.7519
36.57627
36.41075
36.23638
36.01418
35.68777
35.19827
34.80343
34.28943
33.74261
33.30735
32.95248
32.68831
32.70207
33.56561
35.21095
35.14625
34.78181
34.22546
33.63884
33.07041
32.54969
32.09425
31.71161
31.40181
31.15999
30.97898
30.85368
30.78123
30.75703
30.77837
30.84437
30.9537
31.10258
31.28393
31.48824
31.70482
31.92297
32.1329
32.32669
32.49899
32.64733
32.77199
32.87555
32.96217
33.0371
33.10669
33.17916
33.26612
33.38198
33.54141
33.75673
34.03579
34.37904
34.77761
35.21259
35.65751
36.08207
36.45563
36.74884
36.93525
36.99415
36.91351
36.68674
36.30036
35.8436
35.40651
34.94166
34.46384
33.98432
33.51291
33.06067
32.63898
32.25737
31.92228
31.63784
31.40975
31.24706
31.16098
31.16617
31.26948
31.493
31.86109
32.37976
33.0484
33.86277
34.82243
35.93728
37.22394
38.67686
40.2044
41.60807
42.70766
43.46863
43.96256
44.26592
44.41627
44.41714
44.25974
43.93873
43.46283
42.85854
42.16488
41.42564
40.6843
39.97837
39.33896
38.78539
38.32671
37.97083
37.71001
37.53884
37.45114
37.42418
37.37239
39.25267
43.02427
46.15738
48.60634
50.54972
52.16593
53.58157
54.88801
56.14977
57.39987
58.63684
59.93664
61.29807
62.70826
64.15529
65.62311
67.09242
68.54383
69.9571
71.3147
72.60602
73.82532
74.96841
76.033
77.02048
77.93634
78.78928
79.58907
80.34893
81.08317
81.80628
82.53088
83.26379
83.99121
84.58475
83.95459
82.08551
80.32381
78.62145
76.97824
75.38973
73.85547
72.37684
70.95412
69.58579
68.26885
67.00031
65.77944
64.60846
63.49105
62.42901
61.41346
60.44148
59.5078
58.6109
57.74676
56.91252
56.10734
55.33163
54.58635
53.8717
53.18666
52.52887
51.89468
51.27824
50.67321
50.07445
49.47774
48.87994
48.28703
38.16637
37.65481
37.05382
36.40082
35.79782
35.27429
34.8464
34.56956
34.58622
35.09507
36.35613
38.87585
41.96289
44.29385
45.54986
45.97876
45.95032
45.66358
45.27705
44.76486
44.01493
42.92934
41.46246
39.6409
37.56007
35.36616
33.21141
31.21017
29.39869
27.77052
26.32034
25.04143
23.92054
22.93619
22.06544
21.30271
20.63913
20.06194
19.55981
19.12373
18.74588
18.41827
18.13224
17.87909
17.65234
17.44808
17.2582
17.07724
16.90282
16.73283
16.56626
16.40368
16.24509
16.09789
15.98472
15.82195
15.6444
15.45485
15.25826
15.06318
14.87854
14.71142
14.5663
14.44522
14.34809
14.2733
14.21847
14.18107
14.15861
14.14875
14.14937
14.15846
14.17418
14.19478
14.21855
14.2439
14.2693
14.29333
14.31469
14.33231
14.34524
14.3529
14.35504
14.35097
14.33971
14.32167
14.29768
14.26846
14.2347
14.19663
14.1542
14.1084
14.06052
14.01104
13.95986
13.90785
13.85585
13.80372
13.75042
13.69534
13.63929
13.58335
13.5283
13.4744
13.4216
13.36978
13.31883
13.26878
13.21941
13.17033
13.12175
13.07393
13.02651
12.97898
12.9316
12.88471
12.8384
12.79224
12.746
12.70037
12.65534
12.61032
12.56549
12.51975
12.47247
12.4243
12.3756
12.32754
12.28107
12.23234
12.17916
12.12329
12.067
12.00881
11.94568
11.86899
11.75106
11.55246
11.5868
784.626
642.3934
556.7239
498.1361
453.2961
416.0464
383.5075
354.3873
327.2067
278.0081
228.8079
197.1798
175.531
159.7396
147.493
137.4604
128.8242
121.0427
95.6882
90.04865
84.42638
78.9378
73.74816
68.98629
64.74362
61.05288
57.91864
55.32551
53.27796
51.57046
50.10867
48.85364
47.7904
46.92119
46.25276
45.78291
45.47742
45.58088
45.83815
45.76812
45.41467
44.90099
44.39528
44.05184
43.95074
44.06658
44.38918
44.92621
45.37954
45.48544
45.0953
44.20059
42.99434
41.58236
39.914
38.07756
32.67005
31.16182
29.77787
28.53973
27.45317
26.51303
25.70768
25.02248
24.44228
23.9529
23.54209
23.19834
22.91089
22.66991
22.46688
22.29524
22.14915
22.02421
21.91832
21.84063
21.79263
21.76424
21.74539
21.75056
21.76738
21.77308
21.75291
21.70042
21.61498
21.50016
21.36188
21.20659
21.04008
20.86712
20.69099
20.51344
20.33466
20.15359
19.96848
19.77848
19.58877
19.39234
19.19423
19.01571
18.85406
18.70174
18.56586
18.44824
18.31444
18.13341
17.93746
17.73407
17.53306
17.34306
17.171
17.02193
16.89859
16.80172
16.73061
16.68382
16.65958
16.65593
16.67099
16.70307
16.75068
16.81225
16.88565
16.96813
17.05638
17.14667
17.23501
17.3174
17.39021
17.45049
17.49619
17.52624
17.54065
17.54022
17.52625
17.50039
17.46485
17.42252
17.37681
17.3313
17.28936
17.25373
17.22612
17.20684
17.19464
17.18673
17.17889
17.16567
17.1407
17.09732
17.02946
16.93258
16.80455
16.64595
16.46076
16.25576
16.03605
15.80706
15.57426
15.34265
15.11679
14.9008
14.69809
14.51123
14.34199
14.19201
14.06345
13.95934
13.88341
13.84001
13.83387
13.86857
13.94565
14.06457
14.22332
14.41924
14.64918
14.90804
15.18568
15.46515
15.72654
15.95486
16.14402
16.29466
16.40943
16.48972
16.53419
16.53907
16.49946
16.41133
16.27311
16.08664
15.85722
15.59306
15.30384
14.99967
14.6899
14.38256
14.08392
13.79903
13.53104
13.28181
13.05128
12.82871
13.02238
13.19505
13.29479
13.34828
13.37605
13.3935
13.41157
13.43801
13.47842
13.53672
13.61557
13.71644
13.83922
13.98265
14.14456
14.32194
14.51099
14.7072
14.90565
15.10154
15.29041
15.4682
15.6311
15.77559
15.89866
15.99803
16.07224
16.12056
16.14313
16.14074
16.11473
16.06674
15.99791
15.9073
15.79011
15.63778
15.44933
15.25894
15.07192
14.88645
14.70319
14.52413
14.35088
14.18465
14.0263
13.87621
13.73437
13.60068
13.47511
13.3577
13.2484
13.14695
13.05313
12.96655
12.88664
12.81259
12.74295
12.67677
12.61411
12.55482
12.49872
12.44562
12.39537
12.34872
12.30516
12.26334
12.22233
12.18146
12.14007
12.09694
10.86453
10.79748
10.73573
10.68354
10.64653
10.63017
10.64203
10.69091
10.79166
10.96897
11.24746
11.61345
12.00625
12.37655
12.71413
13.04965
13.43494
13.9133
14.50515
15.20589
15.98899
16.80998
17.6105
18.33013
18.91971
19.3472
19.5897
19.62563
19.44026
19.03738
18.44491
17.70718
16.87661
16.00454
15.13409
14.29714
13.51514
12.79995
12.15642
11.58494
11.08271
10.64471
10.26469
9.935865
9.651309
9.404056
9.18757
8.996566
8.826509
8.673384
8.534017
8.405778
8.287371
8.178425
8.075279
7.975162
7.879484
7.789679
7.705866
7.628032
7.556103
7.489921
7.429275
7.373906
7.323522
7.277802
7.236412
7.199025
7.165336
7.135075
7.108007
7.08393
7.062656
7.044002
7.027783
7.013805
7.001862
6.991724
6.983141
6.975841
6.969533
6.963903
6.958591
6.953224
6.94752
6.941268
6.934276
6.926387
6.917466
6.907424
6.896277
6.884097
6.870926
6.856817
6.841906
6.826341
6.810167
6.793309
6.775671
6.757282
6.738279
6.718827
6.699051
6.679028
6.658807
6.638422
6.61789
6.597209
6.57636
6.555351
6.534185
6.512826
6.49123
6.469404
6.44737
6.425122
6.402626
6.379864
6.356869
6.33366
6.310207
6.286481
6.262409
6.237915
6.212997
6.187646
6.161853
6.135576
6.108601
6.080766
6.052221
6.023018
5.992976
5.96155
5.927899
5.890578
5.84896
5.806909
5.773226
641.2321
577.6022
525.4049
486.1059
455.9325
433.4075
414.0832
398.2622
386.7643
381.62
185.9
181.366
177.0591
172.8578
168.7379
164.6864
160.4853
155.9652
151.3741
115.5809
106.5275
100.0597
95.53465
92.21252
89.57375
87.319
85.28362
83.37102
81.5413
79.57694
77.32285
74.92018
72.50437
70.17079
67.98052
65.96276
64.11771
62.40964
61.72215
60.67907
59.47246
58.24139
57.08097
56.0405
55.12804
54.32387
53.60586
52.95345
52.34024
51.74961
51.13675
50.47823
49.77446
49.02984
48.20987
47.29703
42.78683
41.66858
40.47441
39.20278
37.91026
36.66034
35.51543
34.5273
33.7305
33.1299
32.69657
32.37929
32.12812
31.89952
31.65696
31.38067
31.0793
30.78376
30.51996
30.2836
30.0533
29.82354
29.59753
29.39332
29.23862
29.16621
29.21342
29.38335
29.64044
29.91639
30.12552
30.18906
30.05456
29.70656
29.1649
28.4759
27.70149
26.88848
26.08358
25.28484
24.52574
23.83013
23.21055
22.67038
22.20764
21.81778
21.49532
21.23396
21.02599
20.86195
20.73081
20.62101
20.5224
20.42845
20.33539
20.23886
20.13528
20.027
19.92397
19.83338
19.75833
19.6943
19.6304
19.55675
19.46627
19.35596
19.22603
19.07869
18.91722
18.745
18.56511
18.38043
18.19353
18.0065
17.82081
17.63741
17.45663
17.27872
17.10498
16.93442
16.76552
16.5999
16.44008
16.28329
16.13077
15.98306
15.83642
15.68342
15.52577
15.36962
15.21993
15.08164
14.95903
14.85527
14.77222
14.71033
14.66896
14.64675
14.64197
14.65268
14.67684
14.71242
14.75743
14.80999
14.86814
14.92972
14.99255
15.05446
15.11312
15.16604
15.21076
15.24506
15.26702
15.27528
15.2693
15.24926
15.21583
15.16993
15.11283
15.04639
14.97301
14.89543
14.81628
14.73795
14.66241
14.59089
14.52374
14.46041
14.39949
14.33874
14.27513
14.20512
14.12521
14.03244
13.92491
13.80214
13.6653
13.51712
13.36077
13.19938
13.03623
12.87437
12.71656
12.56541
12.42327
12.2918
12.17176
12.06337
11.9671
11.88429
11.81734
11.76956
11.74464
11.74547
11.77287
11.82539
11.9001
11.99375
12.10309
12.22446
12.35297
12.4822
12.60499
12.71528
12.80935
12.88573
12.94404
12.98377
13.00361
13.00125
12.97373
12.91823
12.83297
12.71781
12.57455
12.40683
12.2195
12.01804
11.80787
11.59411
11.38125
11.17315
10.97267
10.78207
10.60234
10.4351
10.29322
10.15679
10.02903
9.912472
9.808679
9.718692
9.643136
9.582367
9.53646
9.505336
9.488891
9.486653
9.497833
9.521406
9.556149
9.600617
9.653106
9.71167
9.774253
9.838843
9.903511
9.966367
10.02552
10.07913
10.12554
10.16333
10.19143
10.20904
10.21573
10.21138
10.19622
10.17074
10.13554
10.09115
10.03792
9.975964
9.906147
9.830419
9.750412
9.667436
9.582718
9.497418
9.412741
9.329541
9.248265
9.169188
9.092476
9.018292
8.946872
8.878539
8.813691
8.752672
8.695418
8.641714
8.591267
8.543721
8.498727
8.45599
8.415307
8.37651
8.339422
8.303886
8.269766
8.23686
8.204877
8.173512
8.142509
8.111547
8.080329
8.047338
8.035389
8.019963
8.003133
7.986067
7.970513
7.959761
7.957575
7.967594
7.995346
8.048986
8.134323
8.246799
8.373201
8.504034
8.639547
8.790044
8.972796
9.205974
9.503603
9.873263
10.31544
10.82222
11.37616
11.95367
12.53149
13.09082
13.61571
14.08465
14.47139
14.75223
14.91113
14.93954
14.83543
14.60344
14.25495
13.808
13.28604
12.71706
12.12964
11.54805
10.99024
10.46849
9.989856
9.557266
9.170539
8.827243
8.523472
8.254637
8.016057
7.803309
7.61243
7.440099
7.283429
7.140658
7.010994
6.893673
6.78777
6.691274
6.603278
6.5231
6.450058
6.38346
6.322594
6.266739
6.215195
6.167307
6.122495
6.080268
6.040236
6.002118
5.965731
5.930965
5.897767
5.866114
5.836013
5.807487
5.780559
5.75524
5.731514
5.709335
5.688623
5.66925
5.65105
5.633837
5.617443
5.601709
5.586466
5.571546
5.556792
5.542079
5.527332
5.5125
5.49753
5.482395
5.467108
5.451687
5.436098
5.420274
5.404166
5.387795
5.371223
5.354505
5.337667
5.320717
5.303662
5.286505
5.269245
5.251869
5.234366
5.21673
5.198945
5.180985
5.162824
5.144456
5.125878
5.107071
5.088012
5.06869
5.049114
5.02928
5.00917
4.988759
4.968019
4.94693
4.925486
4.903667
4.881447
4.858782
4.835592
4.811862
4.787631
4.762903
4.737538
4.711348
4.683957
4.655076
4.624431
4.593268
4.56509
370.1818
273.0427
374.117
169.9049
132.2384
94.33442
81.58965
70.88761
62.45645
58.45344
56.9758
56.41666
56.36566
56.99203
57.72353
58.61757
59.67882
60.84871
62.08965
63.27981
64.4041
65.26833
65.47853
66.11169
66.69603
67.0776
67.21553
67.0967
66.71703
66.08248
65.25896
61.96964
61.03721
60.06579
59.06079
58.0361
57.00955
55.99301
54.98904
53.99962
53.02809
52.071
51.11526
50.14975
49.17971
48.22634
47.30871
46.43494
45.60974
44.83781
44.12261
43.46619
42.87248
42.33837
41.84601
41.37068
40.89651
40.42174
39.95362
39.49292
39.05572
38.66065
38.29366
37.93278
37.55361
37.13593
36.66056
36.10433
35.52626
34.8343
34.07836
33.29776
32.52311
31.81289
31.22822
30.81786
30.60392
30.57246
30.6669
30.81023
30.93298
30.97548
30.87936
30.60981
30.19369
29.71095
29.24772
28.8595
28.53109
28.2264
27.93109
27.65614
27.42874
27.27588
27.21105
27.22767
27.29804
27.37944
27.42066
27.37284
27.20089
26.89065
26.44883
25.89925
25.2765
24.62318
23.98416
23.38152
22.83315
22.35036
21.93727
21.59251
21.31249
21.0941
20.93507
20.83188
20.77645
20.75492
20.74981
20.74277
20.71759
20.66675
20.5916
20.48876
20.35113
20.18349
20.00612
19.8419
19.69464
19.55346
19.40768
19.25156
19.08333
18.90311
18.71221
18.51305
18.30806
18.09895
17.8868
17.673
17.45933
17.24749
17.03886
16.83458
16.63552
16.44243
16.25601
16.07634
15.90253
15.73393
15.57119
15.41496
15.26582
15.12454
14.99186
14.86643
14.74719
14.63558
14.5342
14.44558
14.37188
14.31476
14.27515
14.25297
14.24701
14.2554
14.27585
14.30592
14.34301
14.38436
14.42727
14.46967
14.51004
14.54715
14.58021
14.60885
14.63265
14.65067
14.66155
14.66374
14.65545
14.63504
14.6015
14.55479
14.49543
14.42396
14.34106
14.24802
14.14692
14.04035
13.93091
13.82101
13.71285
13.60808
13.5076
13.41169
13.32014
13.23219
13.14637
13.06057
12.97236
12.87941
12.78
12.67334
12.55978
12.44067
12.31801
12.19395
12.07061
11.94987
11.83329
11.72245
11.61916
11.52487
11.4397
11.36251
11.29206
11.22826
11.17267
11.12843
11.09968
11.08978
11.09929
11.12549
11.16399
11.21087
11.26357
11.32023
11.37885
11.43695
11.49162
11.54006
11.5802
11.61084
11.63126
11.6407
11.638
11.62152
11.58925
11.53912
11.46954
11.37986
11.27063
11.14369
11.0019
10.84868
10.68757
10.52202
10.35524
10.19021
10.02939
9.874678
9.727276
9.587977
9.457844
9.336836
9.225213
9.123166
9.030758
8.947873
8.874368
8.810425
8.756772
8.713976
8.68209
8.660802
8.649482
8.647374
8.653664
8.667468
8.687758
8.713333
8.74291
8.775261
8.809221
8.843583
8.877024
8.908136
8.935537
8.957989
8.974456
8.984121
8.986399
8.980958
8.967764
8.947055
8.91926
8.884854
8.844288
8.797887
8.746004
8.689302
8.62859
8.564629
8.498239
8.430338
8.361888
8.293762
8.226581
8.160642
8.09606
8.033001
7.971816
7.912986
7.856948
7.803917
7.753844
7.706493
7.661522
7.61851
7.577052
7.536921
7.498134
7.460798
7.424951
7.390577
7.35766
7.326075
7.295493
7.265556
7.235967
7.206426
7.176538
7.146076
7.115988
7.086093
7.056233
7.026586
6.997843
6.971279
6.948574
6.931526
6.922296
6.923638
6.937773
6.964267
7.000068
7.042518
7.091918
7.152173
7.2302
7.334438
7.473132
7.653144
7.878998
8.151697
8.467913
8.820654
9.201455
9.601955
10.01293
10.42186
10.81365
11.17351
11.48889
11.75078
11.95223
12.08723
12.15044
12.13666
12.04162
11.86498
11.61258
11.2964
10.93288
10.54006
10.13521
9.732463
9.342599
8.973184
8.628749
8.311381
8.021384
7.757838
7.519097
7.303166
7.108053
6.93197
6.773011
6.629425
6.500228
6.384747
6.281463
6.18872
6.105053
6.029156
5.959837
5.895994
5.836631
5.780864
5.727939
5.677238
5.628285
5.580752
5.53444
5.489254
5.445158
5.402162
5.360321
5.31973
5.280501
5.242743
5.206551
5.171993
5.1391
5.107863
5.078235
5.050143
5.023502
4.998212
4.974155
4.951198
4.929205
4.908053
4.887641
4.867872
4.84866
4.829931
4.811635
4.793712
4.776085
4.758672
4.741415
4.724308
4.707364
4.690584
4.673947
4.657423
4.640982
4.624595
4.608235
4.591872
4.57548
4.559031
4.542497
4.525847
4.509051
4.492089
4.474942
4.457587
4.44
4.422167
4.404082
4.385732
4.3671
4.348166
4.32891
4.30932
4.289385
4.269091
4.24842
4.227353
4.205866
4.183957
4.161635
4.138889
4.11565
4.091828
4.067242
4.041784
4.015332
3.988523
3.963838
345.6741
233.2724
176.7813
153.223
123.5902
100.6641
85.31976
78.88686
72.07734
68.08848
64.7922
60.70094
56.77154
53.2453
50.24361
47.11556
41.97845
41.11398
40.64306
40.66133
41.22578
42.26622
43.51499
44.90276
46.4185
48.03047
49.72505
51.44963
53.09405
54.79289
56.23844
57.51388
58.61311
59.45378
60.03565
60.3418
60.3808
60.15231
59.72481
59.17595
58.62073
58.03645
57.42272
56.79558
56.13492
55.4105
54.61265
53.75924
52.8713
51.95683
51.02577
50.09788
49.18337
48.26872
47.34139
46.41506
45.5242
44.69949
43.95063
43.2801
42.68511
42.15472
41.68466
41.27113
40.88363
40.46517
39.97023
39.39768
38.78027
38.16344
37.58615
37.06295
36.59454
36.16858
35.76116
35.34684
34.90844
34.43391
33.91596
33.351
32.73882
32.09983
31.48671
30.96213
30.58949
30.43095
30.52975
30.89132
31.45435
32.09599
32.69256
33.15097
33.39725
33.34547
32.94216
32.24529
31.42045
30.67096
30.07787
29.587
29.13281
28.68701
28.26329
27.88693
27.57723
27.34157
27.17301
27.05016
26.9409
26.80904
26.6214
26.35486
26.00085
25.56508
25.0651
24.52676
23.98284
23.46881
23.01298
22.62369
22.30228
22.04821
21.8585
21.72928
21.66224
21.6639
21.73396
21.85727
22.00743
22.15319
22.26397
22.31471
22.29551
22.21515
22.07409
21.86192
21.59106
21.29779
21.0172
20.7538
20.49705
20.23524
19.9649
19.68802
19.40892
19.13109
18.85699
18.58785
18.32302
18.06097
17.80164
17.54639
17.29652
17.05282
16.81582
16.58652
16.36675
16.15789
15.96023
15.77367
15.59851
15.43596
15.28747
15.15373
15.0348
14.93042
14.84
14.76289
14.69929
14.64985
14.61473
14.59381
14.5871
14.5948
14.61647
14.65047
14.69401
14.74345
14.79467
14.84382
14.88729
14.92166
14.94478
14.95616
14.95646
14.94735
14.93132
14.9103
14.88485
14.85443
14.81788
14.77333
14.71839
14.65132
14.57191
14.48071
14.37796
14.26376
14.13894
14.00549
13.86619
13.72398
13.58192
13.44279
13.30838
13.17965
13.05717
12.94138
12.83242
12.72969
12.63172
12.53651
12.44195
12.34626
12.24841
12.14846
12.04747
11.94685
11.848
11.75231
11.66084
11.57408
11.49266
11.41821
11.35256
11.29544
11.24383
11.19417
11.14495
11.09743
11.05548
11.0248
11.01
11.01109
11.02294
11.03891
11.05463
11.06887
11.08204
11.0946
11.10623
11.11584
11.12207
11.12374
11.12003
11.11036
11.09409
11.07033
11.03791
10.99532
10.94089
10.87317
10.79129
10.69527
10.58617
10.46604
10.33742
10.20289
10.0648
9.925379
9.786927
9.651589
9.520958
9.395958
9.27698
9.164073
9.057167
8.956543
8.862753
8.77617
8.696648
8.623782
8.557626
8.499036
8.449168
8.408438
8.376381
8.352148
8.334918
8.324016
8.318867
8.318893
8.323401
8.331639
8.342943
8.356701
8.372181
8.388414
8.404225
8.418369
8.429671
8.437093
8.439775
8.43705
8.428483
8.413921
8.393482
8.36747
8.336279
8.300315
8.259933
8.215392
8.16694
8.114903
8.059708
8.001926
7.942317
7.881801
7.821295
7.761441
7.702438
7.644205
7.586781
7.53057
7.476245
7.424431
7.375394
7.32894
7.284611
7.241908
7.200324
7.159391
7.118961
7.079355
7.041074
7.004378
6.969316
6.935954
6.904246
6.87376
6.843914
6.814334
6.784724
6.754674
6.723871
6.692219
6.659703
6.626417
6.592605
6.558636
6.525115
6.492976
6.463361
6.437567
6.417106
6.403316
6.396496
6.39565
6.39952
6.407967
6.422626
6.44688
6.485345
6.54305
6.624698
6.734054
6.873412
7.04325
7.242279
7.468037
7.717234
7.985127
8.264864
8.54804
8.826415
9.093343
9.343657
9.573181
9.778412
9.955579
10.09958
10.20509
10.26603
10.27702
10.23461
10.13763
9.987782
9.790726
9.555705
9.29378
9.015678
8.730866
8.447353
8.171416
7.907602
7.658906
7.42704
7.212741
7.016012
6.836328
6.672962
6.525075
6.391548
6.271223
6.162835
6.064821
5.975656
5.893916
5.818301
5.747655
5.680974
5.617414
5.556285
5.497056
5.439351
5.38295
5.327743
5.273677
5.220728
5.168922
5.118346
5.069115
5.021351
4.975171
4.930678
4.887947
4.847025
4.807932
4.77066
4.735184
4.701458
4.669413
4.638963
4.61001
4.582454
4.556198
4.531144
4.507194
4.484258
4.462248
4.441073
4.420632
4.40083
4.381591
4.362872
4.344643
4.326868
4.309498
4.292473
4.275738
4.259238
4.24292
4.226736
4.210639
4.194583
4.178526
4.162424
4.146238
4.129934
4.113482
4.09685
4.080012
4.062947
4.045636
4.028064
4.01021
3.992057
3.973588
3.954789
3.93565
3.916159
3.896307
3.876088
3.855499
3.834542
3.813219
3.791518
3.769399
3.74681
3.723653
3.699887
3.675475
3.650836
3.628336
185.1846
135.984
207.4952
100.6743
85.48113
72.01234
67.70974
64.44695
61.01597
59.34423
57.35243
54.75402
52.38343
49.99985
47.35824
42.33804
41.1818
40.16111
39.25176
38.45206
37.71912
37.08982
36.60702
36.29239
36.15535
36.17519
36.26716
36.49581
36.94051
37.70544
38.7795
40.10549
41.60528
43.24936
45.00602
46.73382
48.44391
50.12559
51.48194
52.65332
53.64426
54.48995
55.17096
55.68733
56.03269
56.2247
56.2761
56.23502
56.13834
56.0127
55.86587
55.69902
55.50886
55.29453
55.01941
54.61895
54.06
53.36607
52.57551
51.71585
50.82196
49.94094
49.09105
48.252
47.41205
46.60344
45.87955
45.26827
44.77305
44.39451
44.10905
43.8819
43.71216
43.57937
43.37932
42.97189
42.28693
41.39074
40.41422
39.49044
38.62884
37.84227
37.14395
36.52832
35.96451
35.41696
34.86698
34.31017
33.74987
33.19144
32.64579
32.13575
31.71101
31.47688
31.53218
31.93036
32.68643
33.74918
34.95871
36.10354
37.02998
37.67048
37.95973
37.79196
37.1065
35.99991
34.72503
33.61638
32.7905
32.12684
31.46988
30.81346
30.19814
29.64512
29.15792
28.73172
28.35865
28.0236
27.70254
27.37026
27.00756
26.60443
26.16194
25.69124
25.20935
24.73615
24.29711
23.92161
23.62918
23.41313
23.26056
23.16758
23.13302
23.15522
23.24804
23.4354
23.7135
24.04707
24.39276
24.70496
24.93298
25.03661
25.00334
24.85557
24.60312
24.24884
23.82152
23.36868
22.92674
22.50605
22.09816
21.68931
21.2779
20.87027
20.47309
20.09119
19.72622
19.37813
19.04456
18.72045
18.40379
18.09677
17.8011
17.51659
17.24281
16.98053
16.73268
16.50233
16.29028
16.09668
15.92307
15.77223
15.64651
15.54595
15.46832
15.41077
15.37129
15.3492
15.34468
15.35732
15.38461
15.42255
15.46858
15.52305
15.58743
15.66047
15.73743
15.8117
15.87602
15.92405
15.95137
15.95532
15.9355
15.89386
15.83421
15.76238
15.68512
15.60721
15.53003
15.45272
15.37364
15.29015
15.19832
15.09488
14.97923
14.85222
14.7138
14.56325
14.40091
14.22908
14.05166
13.87269
13.69603
13.52531
13.36253
13.20819
13.0627
12.92691
12.80159
12.68648
12.58015
12.48053
12.38547
12.29298
12.20171
12.11168
12.02419
11.9406
11.86165
11.78796
11.71996
11.65697
11.59837
11.54589
11.50276
11.46881
11.43829
11.4041
11.36307
11.31686
11.27118
11.23472
11.21379
11.20724
11.20589
11.19959
11.18431
11.16218
11.13714
11.11187
11.08706
11.06178
11.03483
11.00538
10.973
10.93737
10.89808
10.85449
10.80571
10.75056
10.68761
10.61547
10.53322
10.44071
10.33883
10.22943
10.11483
9.997055
9.877554
9.757544
9.638625
9.522633
9.410878
9.303906
9.201764
9.103985
9.009844
8.919229
8.832915
8.751774
8.675742
8.604199
8.537208
8.476043
8.422291
8.376563
8.338092
8.305578
8.277995
8.254778
8.235667
8.220519
8.209142
8.2013
8.196822
8.195528
8.197011
8.2005
8.204897
8.20895
8.211427
8.211227
8.207423
8.199296
8.186373
8.168471
8.145688
8.118309
8.086707
8.051268
8.012339
7.970162
7.924843
7.876442
7.825108
7.771221
7.715464
7.658794
7.602235
7.546459
7.491462
7.436795
7.382287
7.328458
7.276304
7.226751
7.180105
7.135863
7.093127
7.051143
7.009322
6.967153
6.924604
6.882464
6.841847
6.803309
6.766816
6.732351
6.699896
6.668915
6.638564
6.608326
6.577933
6.547017
6.515237
6.482435
6.448532
6.413483
6.377352
6.340353
6.302908
6.265691
6.229614
6.195795
6.165458
6.139541
6.118186
6.100607
6.085692
6.072943
6.063077
6.058123
6.061122
6.075586
6.104941
6.152013
6.218701
6.305908
6.413653
6.541261
6.687448
6.850095
7.025972
7.210901
7.400472
7.590588
7.777646
7.958914
8.132894
8.298533
8.454063
8.596785
8.722916
8.828015
8.907313
8.955792
8.969471
8.945835
8.884309
8.786385
8.655644
8.497409
8.317991
8.124014
7.92185
7.717198
7.514826
7.318476
7.130877
6.95385
6.788436
6.634988
6.493304
6.362816
6.242872
6.132617
6.030926
5.936643
5.848657
5.765941
5.687586
5.61281
5.540963
5.471524
5.404108
5.338478
5.274514
5.212142
5.15128
5.091875
5.033952
4.977568
4.922788
4.869687
4.818336
4.768794
4.721109
4.675313
4.631422
4.589441
4.549358
4.511146
4.47476
4.440145
4.407235
4.375959
4.346236
4.317984
4.291116
4.265538
4.241154
4.217859
4.195554
4.174152
4.153581
4.133782
4.114692
4.096239
4.078347
4.060941
4.043948
4.027295
4.010916
3.994746
3.978724
3.96279
3.946891
3.930975
3.914996
3.898911
3.882683
3.866277
3.849665
3.832821
3.815723
3.798351
3.780685
3.762709
3.74441
3.725776
3.706799
3.687476
3.667804
3.647787
3.627429
3.60673
3.585683
3.564262
3.542434
3.520148
3.497389
3.474169
3.450822
3.429723
79.17218
57.16126
53.56117
50.55299
49.1123
47.34455
45.81082
44.42521
43.1579
41.42533
37.85984
37.31321
36.79993
36.325
35.85723
35.39338
34.9774
34.63462
34.37665
34.18653
33.92343
33.51025
33.14043
32.83588
32.60314
32.44929
32.38772
32.42614
32.57306
32.82729
33.17533
33.62134
34.24644
35.07919
36.11614
37.38453
38.89303
40.5446
42.26048
44.09979
45.67966
47.04664
48.18295
49.08798
49.80639
50.38146
50.85998
51.25259
51.63658
52.09048
52.70133
53.41598
54.1675
54.84361
55.36475
55.74714
56.05163
56.3103
56.54488
56.69344
56.6304
56.30872
55.76735
55.0599
54.24201
53.41409
52.6739
52.01234
51.35881
50.7337
50.2397
49.93518
49.79206
49.78445
49.89874
50.03943
50.14159
50.27696
50.40871
50.28613
49.67595
48.51181
46.98117
45.3854
43.8918
42.49684
41.203
40.0376
39.02943
38.1628
37.3712
36.60708
35.87774
35.2108
34.62947
34.15603
33.82023
33.68003
33.84551
34.47685
35.57074
37.04963
38.74739
40.3575
41.61909
42.45521
42.92897
43.01871
42.62115
41.68723
40.29389
38.6738
37.28056
36.35836
35.58021
34.79653
34.04701
33.33411
32.63016
31.94787
31.28266
30.63112
29.99577
29.37438
28.76259
28.16051
27.57427
27.01717
26.50751
26.06079
25.68598
25.39765
25.21879
25.14842
25.14159
25.16601
25.22518
25.33069
25.47898
25.70719
26.09075
26.62128
27.18988
27.69867
28.09338
28.32742
28.35258
28.17114
27.84155
27.38793
26.82587
26.19927
25.56184
24.9449
24.36424
23.81067
23.26535
22.72546
22.19839
21.69304
21.21808
20.77451
20.35798
19.9614
19.57897
19.21123
18.86285
18.5359
18.22727
17.93354
17.6559
17.3999
17.17008
16.96675
16.78949
16.64145
16.52855
16.45486
16.41831
16.41117
16.42486
16.45392
16.49719
16.55655
16.63247
16.71891
16.80508
16.88431
16.96074
17.04496
17.13851
17.22888
17.30116
17.34552
17.35688
17.33269
17.27258
17.17903
17.05728
16.91546
16.76523
16.6188
16.483
16.35762
16.23897
16.12377
16.00814
15.88539
15.74959
15.59981
15.43793
15.26386
15.07568
14.87325
14.65983
14.4411
14.22348
14.01289
13.81361
13.62719
13.45277
13.28974
13.13936
13.00338
12.8816
12.77185
12.67135
12.57795
12.48973
12.40496
12.32355
12.24762
12.17893
12.11719
12.06172
12.01263
11.96855
11.92738
11.89112
11.86529
11.85
11.83554
11.8101
11.76891
11.71485
11.65682
11.608
11.57619
11.55682
11.53474
11.49769
11.44556
11.38564
11.32508
11.26743
11.21247
11.1582
11.10326
11.04731
10.99024
10.93197
10.87229
10.81079
10.7468
10.67939
10.60725
10.52899
10.4436
10.35093
10.25196
10.14875
10.04375
9.938773
9.834414
9.730758
9.628588
9.529361
9.433883
9.342199
9.254373
9.169836
9.087116
9.005475
8.925772
8.849371
8.77642
8.706387
8.63952
8.577451
8.522063
8.4739
8.431629
8.393197
8.357259
8.323553
8.292404
8.264261
8.239486
8.218346
8.201089
8.187875
8.178514
8.17229
8.168024
8.164301
8.159714
8.153014
8.143181
8.129465
8.111418
8.088924
8.062164
8.031501
7.997343
7.960076
7.920044
7.877489
7.832443
7.784776
7.734441
7.681716
7.627289
7.572198
7.517581
7.464104
7.41142
7.358552
7.305107
7.251835
7.200188
7.151543
7.106266
7.063304
7.020997
6.978264
6.934616
6.889666
6.84352
6.797443
6.753286
6.712077
6.673747
6.638037
6.60477
6.573239
6.542342
6.511348
6.479965
6.447921
6.414917
6.380767
6.345335
6.308498
6.270233
6.230696
6.190245
6.149467
6.109223
6.070705
6.035218
6.003528
5.975332
5.949433
5.924475
5.899776
5.875598
5.853376
5.835558
5.82506
5.824754
5.83688
5.862734
5.902863
5.957417
6.026327
6.109189
6.205002
6.312044
6.427961
6.550113
6.676055
6.803834
6.931956
7.059318
7.18493
7.307998
7.427694
7.542719
7.651211
7.750841
7.838647
7.911146
7.964905
7.996729
8.003967
7.985047
7.939784
7.869419
7.776462
7.664398
7.537313
7.399505
7.255148
7.108022
6.96133
6.817595
6.678633
6.54559
6.418996
6.298847
6.184949
6.077174
5.975194
5.878542
5.78669
5.69911
5.615312
5.534855
5.457352
5.382479
5.310006
5.239811
5.17183
5.105986
5.042142
4.980222
4.920178
4.86198
4.805615
4.75108
4.698375
4.6475
4.598457
4.551244
4.505863
4.462311
4.42058
4.380656
4.342518
4.306137
4.271475
4.238485
4.207114
4.177298
4.148964
4.122031
4.096409
4.072006
4.048736
4.02652
4.005282
3.984945
3.965427
3.946643
3.928508
3.910936
3.893846
3.877155
3.860789
3.844671
3.828733
3.812908
3.797133
3.781353
3.765515
3.749572
3.733484
3.717214
3.700731
3.684009
3.667023
3.649753
3.632183
3.614298
3.596089
3.577548
3.558673
3.539465
3.519928
3.500067
3.479883
3.459371
3.438515
3.417296
3.395688
3.373689
3.351333
3.328929
3.308851
103.6838
43.4524
35.29121
33.44819
32.35437
31.66738
31.27465
31.07176
31.01451
31.0674
31.07036
30.86794
30.67418
30.48796
30.31191
30.14647
30.00097
29.87772
29.76988
29.66102
29.5374
29.41553
29.33162
29.30422
29.33456
29.43075
29.59866
29.83907
30.1565
30.55687
31.05331
31.73384
32.61994
33.70209
34.97516
36.46488
38.22475
39.99239
41.64027
43.11651
44.33733
45.27589
45.93025
46.37824
46.68205
46.94314
47.25488
47.72067
48.53985
49.82308
51.5636
53.555
55.48207
57.08972
58.25123
59.08955
59.81915
60.65253
61.65167
62.59575
63.19887
63.34651
63.10851
62.56112
61.84607
61.25613
61.01737
60.90141
60.65733
60.45402
60.53621
60.84525
61.1343
61.39208
61.73512
61.92936
61.88451
61.80891
61.68727
61.09965
59.84179
57.94164
55.63913
53.27281
51.05899
49.0169
47.08484
45.26927
43.67149
42.30584
41.09579
39.99349
39.01179
38.19488
37.58097
37.2043
37.10303
37.35721
38.06665
39.33957