/*--------------------------------*- C++ -*----------------------------------*\
| =========                 |                                                 |
| \\      /  F ield         | foam-extend: Open Source CFD                    |
|  \\    /   O peration     | Version:     3.1                                |
|   \\  /    A nd           | Web:         http://www.extend-project.de       |
|    \\/     M anipulation  |                                                 |
\*---------------------------------------------------------------------------*/
FoamFile
{
    version     2.0;
    format      ascii;
    class       volScalarField;
    location    "16.5";
    object      pd;
}
// * * * * * * * * * * * * * * * * * * * * * * * * * * * * * * * * * * * * * //

dimensions      [1 -1 -2 0 0 0 0];

internalField   nonuniform List<scalar> 
119952
(
6025.3
5186.345
5062.694
5180.007
5303.7
5212.444
5193.624
5183.284
5181.118
5182.715
5186.283
5191.301
5197.143
5203.346
5209.596
5215.487
5220.487
5223.392
5218.743
5185.691
5343.295
5260.577
5236.158
5437.584
5419.436
5450.809
5471.331
5531.878
5706.677
5923.56
3897.388
3894.287
3921.944
3968.691
4024.762
4087.418
4154.317
4223.299
4290.738
4340.548
4407.411
4460.563
4504.159
4542.021
4575.953
4607.548
4636.302
4661.816
4686.363
4729.866
4739.592
4749.933
4767.575
4786.29
4805.828
4826.61
4848.606
4871.139
4895.735
4913.785
4931.455
4951.579
4969.604
4986.324
5002.296
5018.37
5039.148
5087.178
5189.886
5119.736
5113.073
5167.29
5194.624
5193.754
5183.389
5180.293
5181.054
5183.706
5187.925
5193.352
5199.408
5205.744
5212.115
5218.203
5223.688
5228.327
5232.72
5239.667
5258.991
5277.057
5287.388
5339.956
5412.066
5433.141
5449.101
5465.806
5447.164
5341.635
5332.133
5366.998
5385.323
5402.645
5418.809
5433.297
5446.873
5459.883
5472.416
5484.515
5496.207
5507.57
5518.662
5529.527
5540.313
5551.19
5562.331
5573.9
5586.035
5598.822
5612.284
5626.366
5640.937
5655.799
5670.717
5685.449
5699.768
5713.488
5726.478
5738.669
5750.045
5760.632
5770.483
5779.668
5788.278
5796.411
5804.128
5811.498
5818.566
5825.378
5831.958
5838.344
5844.57
5850.649
5856.57
5862.292
5867.754
5873.026
5878.94
5886.772
5894.036
5898.432
5902.56
5906.915
5911.151
5915.22
5919.14
5922.884
5926.455
5929.846
5933.041
5936.055
5938.911
5941.631
5944.304
5947.148
5950.144
5953.346
5956.79
5960.435
5964.204
5967.994
5971.69
5975.121
5978.082
5980.558
5982.911
5985.553
5988.556
5991.76
5994.996
5998.179
6001.279
6004.291
6007.216
6010.054
6012.801
6015.473
6018.072
6020.611
6023.085
6025.483
6027.795
6030.018
6031.999
6033.87
6035.431
6036.677
6038.221
6042.293
6044.553
6045.287
6046.062
6046.783
6047.384
6047.875
6048.291
6048.667
6049.011
6049.372
6049.894
6050.448
6051.075
6051.781
6052.571
6053.445
6054.399
6055.42
6056.492
6057.592
6058.685
6059.732
6060.689
6061.51
6062.145
6062.542
6062.652
6062.42
6061.781
6060.648
6058.895
6056.296
6052.376
6046.188
6038.514
6044.799
6048.348
6049.938
6050.433
6050.261
6049.55
6048.388
6046.857
6045.009
6042.889
6040.541
6037.997
6035.291
6032.451
6029.502
6026.46
6023.335
6020.189
6017.019
6013.847
6010.69
6007.564
6004.48
6001.449
5998.486
5995.594
5992.781
5990.048
5987.4
5984.836
5982.356
5979.95
5977.576
5975.472
5988.862
5976.859
5968.164
5967.266
5965.359
5962.911
5961.439
5960.059
5958.888
5957.872
5956.985
5955.34
5951.092
5946.602
5944.508
5944.16
5944.593
5945.251
5945.734
5945.93
5945.714
5945.042
5943.944
5942.469
5940.762
5939.086
5937.613
5936.336
5935.081
5933.8
5932.464
5931.169
5929.978
5928.977
5928.208
5927.699
5927.381
5927.19
5927.086
5927.08
5927.115
5927.148
5927.157
5927.131
5927.07
5926.803
5926.111
5925.141
5924.222
5923.259
5922.27
5921.295
5920.296
5918.517
5916
5916.344
5915.782
5915.077
5914.562
5914.165
5913.928
5913.844
5913.911
5914.102
5914.389
5914.742
5915.133
5915.533
5915.914
5916.252
5916.524
5916.709
5916.792
5916.76
5916.603
5916.316
5915.895
5915.339
5914.652
5913.835
5912.894
5911.833
5910.659
5909.36
5907.976
5906.536
5904.993
5903.377
5901.693
5899.939
5898.129
5896.313
5894.436
5892.519
5890.56
5888.62
5886.64
5884.641
5882.624
5880.605
5878.594
5876.59
5874.594
5872.605
5870.624
5868.653
5866.692
5864.745
5862.802
5860.876
5858.993
5857.112
5855.231
5853.38
5851.57
5849.761
5847.969
5846.169
5844.429
5842.696
5840.971
5839.247
5837.527
5835.841
5834.127
5832.422
5830.711
5828.981
5827.207
5825.031
5823.391
5821.35
5819.032
5816.376
5813.073
5808.942
5804.645
5805.825
5828.089
3972.036
3930.596
3883.859
3830.552
3779.56
3734.001
3698.825
3679.508
3676.023
3659.756
3713.796
3763.577
3828.514
3903.968
3986.524
4072.433
4158.447
4241.635
4355.405
4420.823
4462.991
4509.078
4543.686
4567.739
4576.874
4570.12
4546.54
4507.151
4448.954
4367.04
4280.659
4187.274
4094.158
4008.672
3938.207
3889.321
3867.996
3876.021
3885.198
3918.796
3970.615
4028.927
4092.206
4159.153
4228.152
4296.354
4362.154
4425.511
4480.633
4526.991
4566.384
4600.661
4631.244
4658.823
4681.57
4702.947
4726.349
4742.703
4757.537
4773.205
4789.574
4807.373
4827.103
4848.471
4870.804
4892.851
4914.489
4934.978
4953.568
4970.481
4986.775
5003.576
5022.783
5046.54
5074.956
5101.296
5113.353
5120.088
5136.267
5154.447
5165.759
5170.57
5173.742
5177.861
5183.217
5189.371
5195.932
5202.742
5209.66
5216.571
5223.468
5230.473
5237.998
5246.918
5258.464
5273.775
5293.429
5317.529
5347.143
5379.234
5403.296
5415.978
5417.38
5407.082
5386.739
5377.926
5386.047
5399.915
5414.445
5427.921
5440.536
5452.884
5465.13
5477.184
5488.941
5500.338
5511.371
5522.09
5532.58
5543.025
5553.636
5564.6
5576.152
5588.499
5601.722
5615.756
5630.51
5645.803
5661.358
5676.862
5692.02
5706.574
5720.324
5733.157
5745.041
5756
5766.094
5775.404
5784.054
5792.162
5799.855
5807.261
5814.444
5821.444
5828.286
5834.985
5841.553
5848.004
5854.34
5860.54
5866.589
5872.512
5878.399
5884.299
5890.128
5895.654
5900.644
5905.218
5909.506
5913.582
5917.48
5921.211
5924.775
5928.174
5931.404
5934.45
5937.259
5939.842
5942.289
5944.734
5947.351
5950.313
5953.639
5957.284
5961.123
5965.022
5968.868
5972.582
5976.108
5979.408
5982.463
5985.365
5988.281
5991.299
5994.4
5997.538
6000.672
6003.77
6006.807
6009.754
6012.584
6015.286
6017.86
6020.319
6022.678
6024.952
6027.149
6029.276
6031.305
6033.202
6034.996
6036.767
6038.438
6040.523
6042.292
6043.682
6044.627
6045.492
6046.166
6046.703
6047.133
6047.502
6047.846
6048.212
6048.646
6049.18
6049.806
6050.527
6051.346
6052.267
6053.287
6054.399
6055.585
6056.821
6058.076
6059.313
6060.49
6061.561
6062.473
6063.175
6063.615
6063.742
6063.523
6062.893
6061.785
6060.114
6057.783
6054.782
6051.551
6049.168
6049.358
6051.087
6051.788
6051.818
6051.359
6050.438
6049.128
6047.483
6045.533
6043.33
6040.913
6038.308
6035.545
6032.651
6029.658
6026.583
6023.459
6020.308
6017.14
6013.973
6010.816
6007.689
6004.605
6001.577
5998.62
5995.743
5992.948
5990.25
5987.634
5985.094
5982.635
5980.264
5978.016
5976.089
5977.048
5976.098
5971.916
5967.5
5964.374
5962.294
5960.599
5958.956
5957.325
5955.844
5954.155
5952.211
5949.658
5946.939
5945.264
5944.564
5944.341
5944.425
5944.549
5944.537
5944.334
5943.85
5943.029
5941.916
5940.718
5939.618
5938.68
5937.738
5936.558
5935.091
5933.478
5931.883
5930.446
5929.28
5928.436
5927.894
5927.571
5927.377
5927.305
5927.327
5927.365
5927.373
5927.341
5927.229
5926.952
5926.544
5925.95
5925.21
5924.332
5923.369
5922.354
5921.267
5920.037
5918.591
5917.183
5916.288
5915.616
5915.053
5914.493
5914.023
5913.712
5913.561
5913.558
5913.684
5913.913
5914.217
5914.568
5914.936
5915.294
5915.615
5915.878
5916.062
5916.149
5916.126
5915.983
5915.713
5915.312
5914.778
5914.113
5913.319
5912.4
5911.362
5910.208
5908.951
5907.589
5906.134
5904.603
5902.997
5901.319
5899.584
5897.792
5895.948
5894.065
5892.154
5890.208
5888.234
5886.245
5884.221
5882.116
5880.08
5878.061
5876.114
5874.137
5872.135
5870.139
5868.154
5866.181
5864.221
5862.278
5860.349
5858.434
5856.539
5854.665
5852.806
5850.961
5849.139
5847.336
5845.555
5843.781
5842.026
5840.291
5838.566
5836.838
5835.055
5833.338
5831.633
5829.922
5828.243
5826.537
5824.77
5822.878
5820.903
5818.834
5816.669
5814.546
5812.846
5812.327
5813.52
5817.645
4310.594
4482.222
4669.407
4868.512
5077.632
5284.497
5490.204
5687.298
5864.39
6009.726
6113.19
6188.518
6220.73
6208.876
6153.089
6056.661
5924.798
5765.859
5590.75
5357.057
5168.985
4984.454
4814.576
4662.345
4530.371
4419.54
4329.518
4259.962
4211.954
4170.419
4142.314
4124.18
4109.706
4096.41
4081.486
4062.25
4037.041
4006.211
3959.057
3904.961
3850.724
3796.917
3745.839
3701.614
3669.305
3653.729
3656.843
3675.838
3714.283
3771.837
3840.486
3919.284
4005.824
4096.33
4185.67
4271.762
4383.125
4452.826
4505.662
4549.187
4582.484
4599.785
4599.833
4581.674
4544.238
4487.004
4410.616
4318.327
4216.467
4111.594
4011.181
3922.692
3854.466
3814.83
3806.403
3825.2
3864.814
3916.677
3975.219
4037.871
4103.544
4170.812
4239.912
4308.129
4375.11
4438.408
4495.782
4546.676
4590.911
4628.65
4660.243
4686.382
4708.002
4725.489
4741.717
4753.723
4763.704
4774.749
4788.024
4804.094
4823.019
4844.341
4867.281
4890.934
4913.932
4934.83
4953.382
4969.68
4985.043
5000.671
5016.933
5035.666
5056.583
5078.231
5094.245
5106.064
5119.648
5136.361
5150.685
5160.381
5167.357
5174.051
5181.241
5188.789
5196.389
5204.028
5211.707
5219.35
5227.027
5235.03
5243.756
5253.718
5265.612
5280.298
5298.236
5318.427
5340.937
5364.57
5384.643
5396.769
5402.076
5400.244
5394.512
5392.036
5397.603
5408.682
5421.084
5433.045
5444.636
5456.245
5467.96
5479.661
5491.184
5502.371
5513.099
5523.391
5533.054
5542.812
5553.141
5564.166
5575.628
5587.899
5601.228
5615.611
5630.923
5646.915
5663.221
5679.44
5695.214
5710.218
5724.177
5737.069
5748.881
5759.639
5769.416
5778.336
5786.558
5794.276
5801.669
5808.857
5815.905
5822.86
5829.742
5836.548
5843.277
5849.934
5856.511
5862.981
5869.307
5875.452
5881.37
5887.055
5892.554
5897.854
5902.75
5907.167
5911.276
5915.2
5918.962
5922.562
5926.01
5929.287
5932.398
5935.324
5937.993
5940.347
5942.493
5944.67
5947.123
5950.042
5953.48
5957.339
5961.416
5965.505
5969.472
5973.284
5976.943
5980.415
5983.693
5986.826
5989.908
5992.983
5996.066
5999.21
6002.396
6005.548
6008.631
6011.618
6014.468
6017.149
6019.639
6021.986
6024.224
6026.379
6028.442
6030.428
6032.338
6034.173
6035.926
6037.626
6039.195
6040.735
6042.314
6043.758
6044.821
6045.51
6046.015
6046.4
6046.727
6047.008
6047.285
6047.603
6048.037
6048.605
6049.301
6050.11
6051.034
6052.077
6053.239
6054.511
6055.878
6057.306
6058.753
6060.182
6061.547
6062.796
6063.865
6064.702
6065.253
6065.49
6065.357
6064.829
6063.886
6062.526
6060.797
6058.86
6057.031
6055.706
6055.123
6055.013
6054.824
6054.269
6053.307
6051.97
6050.306
6048.375
6046.208
6043.828
6041.257
6038.515
6035.625
6032.621
6029.545
6026.39
6023.198
6020.001
6016.8
6013.605
6010.422
6007.269
6004.162
6001.117
5998.156
5995.304
5992.553
5989.888
5987.303
5984.8
5982.362
5979.996
5977.686
5975.341
5972.498
5969.21
5966.467
5964.417
5962.678
5961.046
5959.455
5957.806
5956.049
5954.298
5952.686
5950.993
5948.863
5946.694
5945.164
5944.214
5943.629
5943.299
5943.035
5942.752
5942.473
5942.118
5941.619
5940.929
5940.057
5939.13
5938.276
5937.362
5936.278
5935.006
5933.665
5932.375
5931.246
5930.317
5929.604
5929.076
5928.663
5928.338
5928.115
5927.983
5927.911
5927.864
5927.81
5927.681
5927.417
5926.986
5926.381
5925.635
5924.767
5923.799
5922.757
5921.668
5920.581
5919.632
5918.74
5917.618
5916.514
5915.518
5914.695
5914.085
5913.661
5913.408
5913.314
5913.36
5913.522
5913.772
5914.08
5914.419
5914.759
5915.074
5915.339
5915.534
5915.642
5915.647
5915.537
5915.304
5914.943
5914.453
5913.832
5913.082
5912.207
5911.212
5910.102
5908.883
5907.561
5906.141
5904.636
5903.052
5901.396
5899.676
5897.896
5896.065
5894.191
5892.28
5890.336
5888.365
5886.375
5884.365
5882.299
5880.227
5878.223
5876.23
5874.211
5872.188
5870.175
5868.172
5866.181
5864.204
5862.242
5860.295
5858.364
5856.451
5854.557
5852.68
5850.82
5848.981
5847.161
5845.359
5843.573
5841.805
5840.055
5838.322
5836.604
5834.899
5833.191
5831.43
5829.659
5827.952
5826.29
5824.635
5822.887
5821.109
5819.345
5817.656
5816.189
5815.149
5814.861
5815.574
5817.422
3435.208
3445.951
3469.702
3497.469
3537.18
3595.119
3662.028
3744.145
3842.806
3935.195
4029.398
4147.604
4287.65
4445.646
4620.808
4807.782
5000.529
5195.221
5386.798
5566.388
5729.289
5871.852
5979.875
6045.665
6069.983
6050.444
5987.329
5883.943
5747.234
5589.202
5419.597
5150.032
4984.889
4827.454
4672.762
4533.45
4415.877
4320.437
4245.409
4189.4
4150.735
4126.545
4111.768
4102.833
4096.233
4087.416
4076.653
4059.644
4032.714
3994.095
3943.511
3885.134
3823.88
3762.414
3703.043
3650.553
3612.397
3595.188
3601.272
3630.203
3679.434
3743.117
3821.615
3912.504
4011.671
4114.455
4216.047
4314.664
4409.069
4486.405
4546.477
4595.024
4629.637
4645.939
4641.632
4616.24
4569.336
4499.819
4408.409
4299.424
4180.232
4059.271
3944.984
3845.292
3769.805
3728.583
3726.394
3757.579
3810.803
3876.484
3946.723
4015.715
4086.03
4160.929
4235.141
4306.168
4375.39
4441.935
4503.831
4559.378
4607.577
4648.101
4681.212
4707.392
4727.581
4742.627
4754.857
4760.65
4766.667
4774.165
4784.749
4799.559
4818.443
4840.586
4865.353
4891.505
4916.462
4938.295
4956.958
4972.319
4985.068
4997.195
5009.735
5024.883
5042.019
5059.82
5074.62
5087.393
5103.195
5120.232
5136.534
5149.584
5159.718
5168.264
5176.824
5186.002
5195.506
5204.326
5212.803
5221.095
5229.35
5237.904
5247.109
5257.322
5269.117
5282.897
5298.71
5316.242
5335.063
5354.07
5371.044
5383.585
5391.73
5395.72
5397.481
5400.048
5405.901
5415.062
5425.703
5436.633
5447.667
5458.884
5470.286
5481.777
5493.186
5504.11
5512.809
5521.741
5531.883
5543.028
5553.184
5563.249
5574.11
5586.148
5599.545
5614.28
5630.244
5647.133
5664.39
5681.371
5697.992
5713.833
5728.391
5741.432
5753.082
5763.532
5772.918
5781.366
5789.069
5796.312
5803.345
5810.268
5817.148
5824.066
5830.999
5837.865
5844.666
5851.433
5858.161
5864.794
5871.25
5877.463
5883.383
5889.006
5894.35
5899.389
5904.072
5908.422
5912.521
5916.422
5920.041
5923.432
5926.845
5930.235
5933.401
5936.28
5938.815
5940.933
5942.741
5944.584
5946.789
5949.612
5953.143
5957.253
5961.619
5965.932
5970.028
5973.912
5977.647
5981.203
5984.563
5987.452
5990.417
5993.703
5997.186
6000.398
6003.505
6006.605
6009.672
6012.642
6015.381
6018.04
6020.6
6023.028
6025.249
6027.353
6029.381
6031.343
6033.237
6035.038
6036.742
6038.406
6040.002
6041.504
6042.899
6044.074
6044.948
6045.509
6045.866
6046.106
6046.298
6046.476
6046.67
6046.962
6047.405
6048.019
6048.79
6049.686
6050.704
6051.859
6053.146
6054.552
6056.053
6057.652
6059.353
6061.037
6062.626
6064.084
6065.356
6066.381
6067.108
6067.498
6067.523
6067.166
6066.414
6065.368
6064.09
6062.668
6061.223
6059.94
6058.975
6058.3
6057.631
6056.695
6055.415
6053.815
6051.945
6049.847
6047.537
6045.029
6042.34
6039.487
6036.488
6033.38
6030.204
6026.994
6023.774
6020.549
6017.278
6014.02
6010.808
6007.655
6004.524
6001.445
5998.466
5995.616
5992.869
5990.197
5987.623
5985.153
5982.725
5980.285
5977.847
5975.394
5973.01
5970.807
5968.535
5965.737
5963.138
5960.973
5959.215
5957.299
5955.319
5953.422
5951.61
5949.823
5947.969
5946.184
5944.691
5943.522
5942.624
5941.929
5941.32
5940.854
5940.424
5939.999
5939.498
5938.889
5938.202
5937.532
5936.953
5936.37
5935.669
5934.777
5933.772
5932.737
5931.778
5930.943
5930.277
5929.817
5929.529
5929.309
5929.111
5928.955
5928.831
5928.678
5928.479
5928.234
5927.92
5927.49
5926.897
5926.144
5925.267
5924.292
5923.237
5922.127
5920.986
5919.822
5918.617
5917.403
5916.406
5915.487
5914.746
5914.13
5913.676
5913.391
5913.265
5913.279
5913.413
5913.64
5913.933
5914.263
5914.599
5914.913
5915.182
5915.385
5915.505
5915.523
5915.428
5915.212
5914.869
5914.397
5913.796
5913.066
5912.212
5911.236
5910.145
5908.944
5907.639
5906.237
5904.747
5903.176
5901.531
5899.818
5898.046
5896.22
5894.348
5892.438
5890.493
5888.52
5886.527
5884.517
5882.495
5880.458
5878.407
5876.354
5874.309
5872.274
5870.248
5868.231
5866.227
5864.236
5862.26
5860.3
5858.356
5856.429
5854.521
5852.631
5850.759
5848.907
5847.074
5845.261
5843.465
5841.689
5839.932
5838.193
5836.473
5834.768
5833.077
5831.398
5829.725
5828.049
5826.388
5824.746
5823.127
5821.538
5820.024
5818.643
5817.502
5816.693
5816.427
5816.652
5817.687
3632.134
3600.394
3572.902
3546.412
3519.061
3493.854
3473.838
3457.268
3445.213
3437.485
3435.387
3437.324
3447.609
3465.351
3490.619
3526.309
3582.641
3644.901
3716.54
3797.102
3886.964
3993.161
4118.056
4260.307
4419.168
4592.605
4777.253
4969.537
5163.692
5355.391
5533.929
5691.364
5821.233
5915.87
5969.048
5977.812
5941.85
5862.646
5745.033
5593.656
5414.713
5220.594
5021.737
4847.427
4693.072
4550.607
4423.652
4317.245
4232.572
4168.408
4124.134
4098.749
4088.451
4086.226
4088.221
4093.002
4095.907
4091.937
4078.314
4051.176
4008.745
3950.074
3880.504
3807.015
3732.029
3657.186
3589.397
3539.27
3516.589
3521.841
3552.6
3605.383
3676.491
3764.296
3867.189
3981.131
4100.158
4218.571
4331.354
4434.446
4523.382
4596.828
4654.407
4695.533
4715.413
4711.096
4680.417
4623.165
4538.141
4425.194
4290.866
4145.401
3998.863
3861.224
3741.613
3652.498
3607.16
3611.736
3657.112
3728.446
3807.928
3871.376
3960.464
4063.061
4150.083
4225.884
4298.591
4370.037
4439.654
4505.494
4565.347
4617.701
4661.81
4697.438
4724.612
4743.728
4755.361
4760.226
4765.26
4767.682
4770.941
4778.268
4791.892
4811.206
4834.611
4861.916
4892.252
4921.326
4945.304
4964.025
4977.819
4987.175
4993.192
4993.019
4989.313
4994.19
5027.446
5057.111
5072.564
5086.619
5103.928
5119.451
5130.468
5143.701
5160.361
5173.754
5184.197
5193.995
5203.306
5212.607
5221.579
5230.297
5239.163
5248.48
5258.371
5269.767
5282.911
5297.336
5313.025
5329.576
5346.094
5361.492
5374.571
5384.921
5392.659
5398.528
5403.952
5410.507
5418.853
5428.561
5439.037
5449.907
5460.916
5471.989
5482.527
5488.963
5498.448
5511.12
5525.19
5535.274
5543.586
5552.008
5561.085
5571.061
5582.642
5595.912
5609.464
5625.518
5644.252
5664.329
5683.274
5701.131
5717.799
5732.89
5746.192
5757.762
5767.925
5776.923
5784.761
5791.014
5797.387
5804.318
5811.695
5818.616
5825.483
5832.445
5839.367
5846.196
5853.008
5859.829
5866.578
5873.122
5879.39
5885.317
5890.846
5895.995
5900.77
5905.248
5909.267
5912.461
5916.284
5920.612
5924.675
5928.171
5931.387
5934.419
5937.306
5939.841
5941.77
5943.164
5944.604
5946.451
5949.096
5952.72
5957.17
5961.98
5966.606
5970.754
5974.538
5977.762
5978.673
5981.642
5986.617
5991.865
5995.39
5998.419
6001.466
6004.526
6007.128
6009.913
6013.071
6016.381
6019.178
6021.617
6023.86
6025.973
6028.01
6029.991
6031.859
6033.754
6035.64
6037.47
6039.149
6040.711
6042.153
6043.435
6044.484
6045.245
6045.669
6045.836
6045.881
6045.935
6045.907
6045.796
6046.071
6046.749
6047.545
6048.42
6049.393
6050.479
6051.699
6052.97
6054.148
6055.847
6057.947
6059.988
6061.864
6063.661
6065.339
6066.827
6068.05
6068.956
6069.493
6069.476
6069.206
6068.889
6068.215
6067.172
6065.94
6064.646
6063.396
6062.272
6061.255
6060.195
6058.933
6057.399
6055.593
6053.542
6051.272
6048.8
6046.145
6043.327
6040.357
6037.238
6034.013
6030.713
6027.283
6023.968
6020.761
6017.602
6014.324
6011.026
6007.763
6004.546
6001.261
5998.083
5995.266
5992.747
5990.208
5987.649
5985.173
5982.736
5980.231
5977.774
5975.107
5970.973
5968.225
5966.52
5965.341
5963.195
5960.835
5958.563
5956.387
5954.29
5952.296
5950.433
5948.686
5946.977
5945.325
5943.832
5942.533
5941.403
5940.376
5939.485
5938.795
5938.259
5937.784
5937.351
5936.943
5936.567
5936.188
5935.753
5935.259
5934.676
5933.973
5933.244
5932.548
5931.923
5931.393
5930.935
5930.561
5930.314
5930.116
5929.944
5929.808
5929.686
5929.525
5929.285
5928.975
5928.593
5928.109
5927.495
5926.743
5925.862
5924.873
5923.794
5922.648
5921.453
5920.231
5919.02
5917.879
5916.849
5915.885
5915.06
5914.389
5913.896
5913.574
5913.413
5913.399
5913.509
5913.715
5913.994
5914.314
5914.644
5914.956
5915.223
5915.428
5915.553
5915.577
5915.488
5915.278
5914.944
5914.481
5913.889
5913.169
5912.324
5911.359
5910.278
5909.088
5907.793
5906.4
5904.918
5903.354
5901.714
5900.006
5898.236
5896.412
5894.54
5892.628
5890.68
5888.703
5886.704
5884.685
5882.653
5880.607
5878.552
5876.495
5874.44
5872.392
5870.353
5868.324
5866.307
5864.304
5862.315
5860.342
5858.385
5856.446
5854.525
5852.623
5850.739
5848.875
5847.031
5845.207
5843.403
5841.619
5839.856
5838.114
5836.392
5834.692
5833.011
5831.351
5829.711
5828.092
5826.497
5824.935
5823.422
5821.98
5820.646
5819.464
5818.511
5817.836
5817.574
5817.629
5818.308
4048.945
3993.736
3944.882
3896.859
3855.989
3810.636
3772.707
3736.451
3701.691
3667.941
3635.811
3604.881
3575.355
3547.501
3520.836
3494.767
3474.832
3458.229
3445.429
3437.076
3433.715
3435.896
3444.443
3460.083
3483.157
3515.224
3553.37
3606.139
3669.53
3744.822
3832.97
3936.433
4056.014
4191.744
4344.084
4511.574
4692.609
4883.213
5073.776
5258.859
5429.588
5577.315
5695.417
5777.221
5817.935
5814.686
5768.021
5678.72
5548.628
5383.921
5197.58
5006.077
4820.583
4653.861
4507.86
4378.274
4267.201
4178.524
4111.252
4062.564
4033.796
4027.949
4040.117
4057.775
4075.775
4096.674
4119.175
4129.834
4121.541
4092.145
4041.489
3969.001
3883.914
3795.179
3702.902
3603.079
3508.13
3433.827
3400.413
3404.822
3441.408
3502.454
3581.596
3678.142
3793.907
3926.645
4067.94
4207.605
4339.006
4459.173
4565.878
4656.782
4729.813
4780.482
4807.528
4804.595
4768.137
4698.351
4592.845
4450.638
4281.647
4092.917
3874.164
3683.483
3563.629
3489.551
3443.792
3457.861
3522.978
3598.117
3623.32
3774.749
3940.427
4051.057
4137.29
4215.929
4290.619
4363.932
4436.029
4504.946
4568.511
4624.981
4672.938
4711.868
4740.945
4759.722
4768.917
4770.82
4769.344
4766.021
4763.051
4765.537
4777.83
4799.089
4825.758
4857.18
4893.072
4927.341
4954.759
4975.483
4985.729
4983.327
4963.005
4751.688
4754.608
4942.961
5038.411
5049.712
5051.57
4996.554
4983.908
5062.594
5127.623
5147.655
5159.29
5169.961
5180.528
5191.015
5201.493
5211.636
5221.058
5229.997
5239.032
5248.268
5257.764
5268.25
5280.636
5294.247
5308.683
5323.852
5339.099
5353.894
5367.639
5379.813
5390.062
5398.396
5405.513
5412.569
5420.495
5429.623
5439.879
5450.775
5461.214
5464.122
5461.113
5483.344
5506.104
5519.621
5528.58
5535.902
5542.39
5549.552
5555.912
5553.13
5562.104
5581.673
5604.902
5624.238
5643.8
5664.074
5684.224
5703.565
5721.572
5737.6
5751.112
5759.51
5766.923
5776.456
5787.047
5794.681
5800.6
5806.359
5812.71
5819.549
5826.491
5833.588
5840.658
5847.604
5854.486
5861.359
5868.192
5874.837
5881.129
5887.004
5892.375
5897.138
5899.535
5902.568
5907.549
5913.825
5918.44
5922.102
5925.618
5929.059
5932.254
5935.265
5938.376
5941.161
5942.985
5943.745
5944.693
5946.032
5948.236
5951.859
5956.741
5962.088
5966.614
5963.172
5955.037
5961.691
5977.012
5986.348
5990.216
5993.252
5995.979
5996.979
5999.669
6003.811
6008.286
6011.6
6014.551
6017.335
6019.886
6022.193
6024.282
6026.134
6028.08
6030.139
6032.236
6034.24
6036.167
6037.964
6039.631
6041.232
6042.683
6043.946
6044.978
6045.715
6045.975
6045.528
6042.562
6041.722
6042.802
6045.073
6045.959
6046.435
6047.158
6048.149
6049.2
6050.333
6051.551
6052.31
6052.964
6055.419
6058.336
6060.67
6062.734
6064.589
6066.437
6068.301
6069.859
6070.942
6071.431
6071.609
6071.598
6071.42
6070.966
6070.083
6068.979
6067.769
6066.523
6065.282
6064.035
6062.708
6061.208
6059.472
6057.482
6055.252
6052.805
6050.155
6047.329
6044.365
6041.208
6037.484
6033.932
6030.706
6027.756
6024.544
6021.228
6017.879
6014.432
6010.797
6006.621
6003.262
6000.563
5998.032
5995.278
5992.624
5989.967
5987.409
5984.999
5981.766
5974.494
5971.415
5971.475
5972.321
5970.472
5967.931
5965.345
5962.805
5960.311
5957.879
5955.534
5953.301
5951.206
5949.262
5947.464
5945.843
5944.321
5942.858
5941.47
5940.186
5938.973
5937.931
5937.059
5936.361
5935.819
5935.401
5935.053
5934.715
5934.393
5934.159
5933.945
5933.691
5933.382
5932.93
5932.32
5931.827
5931.434
5931.062
5930.871
5930.807
5930.704
5930.61
5930.497
5930.339
5930.164
5929.949
5929.66
5929.26
5928.748
5928.123
5927.372
5926.496
5925.508
5924.424
5923.266
5922.055
5920.824
5919.612
5918.45
5917.361
5916.367
5915.509
5914.822
5914.297
5913.944
5913.756
5913.716
5913.804
5913.993
5914.253
5914.558
5914.876
5915.177
5915.437
5915.636
5915.758
5915.782
5915.687
5915.476
5915.142
5914.679
5914.089
5913.371
5912.53
5911.568
5910.491
5909.304
5908.012
5906.624
5905.145
5903.583
5901.944
5900.236
5898.466
5896.64
5894.767
5892.85
5890.898
5888.916
5886.909
5884.883
5882.841
5880.786
5878.724
5876.659
5874.595
5872.537
5870.487
5868.446
5866.417
5864.402
5862.4
5860.415
5858.446
5856.495
5854.562
5852.648
5850.753
5848.878
5847.023
5845.189
5843.376
5841.586
5839.817
5838.072
5836.351
5834.656
5832.986
5831.344
5829.732
5828.154
5826.617
5825.132
5823.715
5822.388
5821.184
5820.136
5819.301
5818.709
5818.447
5818.431
5818.929
4345.404
4311.577
4244.809
4170.65
4101.002
4041.23
3987.354
3938.725
3894.893
3852.335
3806.812
3769.524
3733.88
3699.515
3666.259
3634.237
3603.462
3573.888
3545.582
3519.909
3496.54
3475.915
3458.146
3443.762
3433.32
3427.326
3426.079
3430.409
3441.532
3460.47
3487.874
3524.028
3571.319
3629.943
3701.447
3785.744
3883.873
3996.96
4126.602
4275.822
4438.704
4614.489
4798.047
4980.906
5155.576
5312.678
5443.431
5541.073
5600.527
5619.503
5598.227
5534.647
5428.741
5284.779
5112.17
4925.751
4737.987
4557.516
4396.749
4261.987
4147.274
4053.302
3986.031
3944.737
3923.758
3920.802
3937.332
3976.182
4019.803
4060.51
4103.755
4147.777
4179.327
4185.452
4159.118
4095.455
3998.913
3894.656
3781.955
3643.15
3503.32
3382.129
3288.484
3246.164
3249.852
3295.754
3367.155
3454.741
3563.264
3697.046
3852.061
4018.9
4181.8
4339.501
4486.332
4615.432
4725.472
4814.368
4879.186
4916.004
4915.384
4872.938
4789.703
4660.168
4481.311
4254.572
3926.403
3575.962
3433.083
3398.725
3314.841
3243.888
3258.634
3265.104
3191.121
3415.543
3752.277
3924.416
4031.993
4126.196
4209.873
4286.426
4360.677
4434.516
4499.666
4564.812
4629.77
4685.603
4728.182
4758.944
4777.202
4783.048
4779.199
4770.132
4759.238
4747.398
4743.61
4755.662
4779.021
4810.301
4850.977
4896.566
4932.913
4947.848
4963.77
4949.296
4712.552
4629.957
4637.909
4688.121
4946.968
5035.822
5016.679
4871.312
4875.439
4898.125
5044.749
5125.796
5144.626
5155.675
5166.222
5177.13
5187.592
5198.652
5207.475
5206.015
5211.457
5226.001
5245.311
5257.436
5267.074
5277.688
5290.209
5303.964
5318.368
5332.945
5347.624
5362.203
5376.091
5388.406
5398.418
5406.257
5413.063
5420.411
5429.171
5439.476
5449.175
5437.376
5435.279
5456.783
5491.767
5511.794
5521.763
5529.684
5527.699
5493.697
5495.44
5527.851
5558.119
5571.892
5584.628
5600.437
5619.463
5640.835
5662.997
5682.717
5698.53
5719.392
5740.974
5756.968
5766.082
5773.072
5782.993
5791.63
5797.503
5802.542
5807.642
5813.331
5819.954
5827.067
5834.404
5841.638
5848.598
5855.47
5862.457
5869.438
5876.093
5882.256
5886.646
5886.643
5891.082
5898.856
5906.18
5911.059
5915.342
5919.1
5922.678
5926.381
5929.943
5932.814
5935.31
5939.056
5942.859
5944.86
5944.714
5944.733
5945.189
5946.306
5949.011
5951.151
5930.319
5915.794
5931.99
5965.849
5980.03
5982.942
5985.689
5984.054
5985.957
5991.838
5999.174
6003.154
6006.259
6009.319
6012.285
6015.148
6017.831
6020.024
6021.896
6023.926
6026.125
6028.155
6030.12
6032.188
6034.315
6036.389
6038.217
6039.781
6041.439
6042.999
6044.412
6045.575
6046.073
6044.712
6042.818
6043.124
6044.619
6044.935
6038.944
6032.862
6033.065
6038.174
6046.286
6048.987
6050.145
6051.043
6049.992
6051.111
6054.163
6058.553
6061.435
6063.734
6065.706
6067.857
6070.001
6071.898
6073.19
6073.979
6074.286
6074.494
6074.353
6073.801
6072.954
6071.907
6070.72
6069.441
6068.092
6066.678
6065.167
6063.492
6061.585
6059.44
6057.062
6054.438
6051.555
6048.285
6043.821
6040.188
6037.964
6035.331
6031.895
6028.33
6024.869
6021.511
6017.832
6011.592
6007.245
6005.132
6003.861
6000.79
5997.529
5994.745
5991.799
5981.916
5975.119
5975.104
5979.947
5979.898
5977.109
5974.329
5972.157
5970.137
5967.64
5964.983
5962.329
5959.705
5957.13
5954.637
5952.275
5950
5947.893
5946.149
5944.682
5943.268
5941.846
5940.424
5938.988
5937.604
5936.396
5935.364
5934.543
5933.958
5933.582
5933.33
5933.129
5932.975
5932.855
5932.72
5932.54
5932.328
5932.115
5931.877
5931.828
5931.645
5931.269
5931.131
5931.067
5930.865
5930.858
5930.885
5930.811
5930.698
5930.52
5930.237
5929.844
5929.351
5928.745
5928.017
5927.167
5926.203
5925.14
5923.997
5922.8
5921.575
5920.36
5919.185
5918.08
5917.079
5916.21
5915.494
5914.939
5914.555
5914.335
5914.264
5914.324
5914.486
5914.719
5914.998
5915.292
5915.572
5915.813
5915.999
5916.111
5916.123
5915.997
5915.775
5915.432
5914.961
5914.365
5913.644
5912.8
5911.837
5910.76
5909.572
5908.282
5906.894
5905.415
5903.852
5902.212
5900.503
5898.731
5896.903
5895.025
5893.105
5891.147
5889.159
5887.145
5885.11
5883.059
5880.997
5878.926
5876.853
5874.78
5872.712
5870.651
5868.599
5866.559
5864.531
5862.518
5860.521
5858.54
5856.577
5854.632
5852.706
5850.8
5848.914
5847.049
5845.205
5843.384
5841.586
5839.813
5838.065
5836.344
5834.653
5832.993
5831.368
5829.782
5828.241
5826.753
5825.329
5823.987
5822.746
5821.633
5820.676
5819.914
5819.368
5819.1
5819.04
5819.42
4313.299
4267.168
4180.822
4121.286
4064.83
4013.514
3966.553
3923.096
3882.302
3843.847
3807.552
3771.799
3737.02
3703.036
3669.967
3637.767
3606.535
3576.382
3547.453
3520.48
3496.353
3474.895
3456.029
3439.861
3426.622
3417.289
3412.749
3413.825
3421.561
3437.377
3462.189
3496.438
3541.155
3596.789
3663.618
3741.783
3834.04
3942.455
4067.793
4210.427
4366.79
4534.418
4707.75
4878.341
5037.334
5174.464
5281.567
5351.358
5381.666
5370.09
5320.315
5233.531
5110.304
4954.001
4773.448
4583.711
4399.695
4230.045
4081.133
3958.029
3860.925
3790.527
3746.692
3726.654
3731.716
3767.51
3819.388
3897.648
3963.023
4028.738
4111.48
4190.584
4229.795
4234.049
4222.24
4161.984
4018.623
3812.558
3469.927
3295.751
3321.941
3248.725
3091.85
3026.796
3000.696
3065.204
3165.647
3272.843
3384.006
3533.774
3696.101
3896.029
4133.375
4343.429
4514.774
4665.292
4795.783
4901.372
4982.379