/*--------------------------------*- C++ -*----------------------------------*\
| =========                 |                                                 |
| \\      /  F ield         | foam-extend: Open Source CFD                    |
|  \\    /   O peration     | Version:     3.1                                |
|   \\  /    A nd           | Web:         http://www.extend-project.de       |
|    \\/     M anipulation  |                                                 |
\*---------------------------------------------------------------------------*/
FoamFile
{
    version     2.0;
    format      ascii;
    class       volScalarField;
    location    "10.5";
    object      omega;
}
// * * * * * * * * * * * * * * * * * * * * * * * * * * * * * * * * * * * * * //

dimensions      [0 0 -1 0 0 0 0];

internalField   nonuniform List<scalar> 
119952
(
340.7269
427.3171
402.5724
351.0789
315.6223
317.5816
322.8669
330.0468
338.5861
348.1865
358.6712
369.9258
381.8655
394.4184
407.5196
421.1079
435.1275
449.5476
464.4744
480.686
404.4179
402.0421
404.1717
338.8847
328.9455
321.1688
313.6825
305.3248
293.0885
177.7766
765.0467
630.8328
530.8923
460.925
409.4744
370.0346
338.4693
312.4731
290.4886
265.9629
221.0902
190.275
169.2244
153.886
142.0037
132.3781
124.3164
117.3997
111.3608
87.59172
83.99711
80.53451
77.25907
74.24558
71.50558
69.04543
66.84293
64.85546
63.07894
61.53034
60.009
58.52456
57.07517
55.66014
54.27829
52.92297
51.56967
50.2217
49.91058
49.60655
48.97433
48.41579
47.94454
47.51362
47.05423
46.58352
46.11125
45.64577
45.18598
44.73717
44.30896
43.91308
43.5622
43.26891
43.04431
42.89561
42.82198
42.80787
42.8868
43.12349
43.34917
43.69149
44.47577
45.8786
47.78684
50.53257
54.58283
59.40678
61.9287
63.72671
64.94368
65.69352
65.9695
65.76264
65.0886
63.98046
62.49528
60.70955
58.70735
56.56742
54.35749
52.14239
49.97531
47.89061
45.91329
44.06634
42.35886
40.79294
39.37492
38.10369
36.97434
35.98174
35.12186
34.38778
33.77092
33.26299
32.85609
32.54286
32.31695
32.17388
32.10986
32.12115
32.20437
32.35723
32.57959
32.87463
33.25151
33.73708
34.37752
35.30501
36.64161
38.36878
40.55798
43.31063
46.74101
50.96596
55.90432
61.45351
67.5944
72.99419
77.45323
80.75299
82.82512
83.63483
83.17657
81.55616
78.99437
75.77697
72.19872
68.50385
64.89519
61.52709
58.45766
55.69987
53.24798
51.08228
49.17661
47.49733
46.03377
44.79505
43.76727
42.92809
42.25959
41.75578
41.42089
41.26789
41.31894
41.59924
42.10885
42.87108
43.96746
45.51726
47.81192
51.36418
57.66223
71.44989
93.22913
110.4529
115.785
105.9406
84.99135
66.53742
54.92064
48.16011
43.75102
40.45167
37.79228
40.61352
46.01045
48.03959
48.6093
48.7527
48.74669
48.8403
49.60818
50.89602
52.39928
53.95745
55.47359
56.93259
58.34133
59.67776
60.92374
62.0711
63.11727
64.00759
64.76501
65.41737
65.99903
66.55345
67.14893
67.91048
68.85897
69.70685
70.47243
71.15489
71.75494
72.27673
72.72708
73.11008
73.4296
73.69202
73.79647
72.9527
71.90217
70.76939
69.48506
68.14948
66.88419
65.68391
64.54514
63.46557
62.44481
61.48412
60.57906
59.72401
58.91241
58.13851
57.39848
56.68988
56.00967
55.35391
54.71873
54.10113
53.49906
52.91089
52.33534
51.77116
51.21754
50.67409
50.13965
49.61396
49.09685
48.58801
48.08612
47.59081
47.09572
37.91072
36.59183
35.3059
34.11609
33.08425
32.22019
31.51247
30.9393
30.47535
30.09634
29.78111
29.51231
29.27628
29.0625
28.86315
28.67252
28.48659
28.30265
28.11899
27.93469
27.7494
27.56322
27.37659
27.19019
27.00489
26.82163
26.64135
26.46498
26.29341
26.12745
25.9678
25.81506
25.66968
25.53197
25.40211
25.28017
25.16606
25.05962
24.96053
24.86842
24.78285
24.70337
24.62972
24.56243
24.50402
24.45747
24.41851
24.38141
24.34542
24.30957
24.27304
24.23611
24.19992
24.16997
24.19125
24.1313
24.05104
23.95278
23.83852
23.71303
23.58083
23.44679
23.31521
23.18949
23.07209
22.96455
22.86758
22.78126
22.7052
22.63859
22.58043
22.52952
22.48464
22.44452
22.40793
22.3737
22.34077
22.30818
22.27501
22.2405
22.20403
22.16511
22.12333
22.0784
22.03019
21.97865
21.92382
21.86585
21.80495
21.74138
21.67542
21.60738
21.53761
21.46645
21.39424
21.32129
21.24787
21.17426
21.10069
21.02736
20.95441
20.88195
20.81005
20.73878
20.66814
20.59812
20.52867
20.45972
20.39117
20.3229
20.25479
20.1867
20.1185
20.05005
19.9812
19.91181
19.84177
19.77097
19.69934
19.62678
19.55322
19.4786
19.40286
19.32596
19.24785
19.16846
19.08767
19.00535
18.9213
18.83517
18.74627
18.65372
18.55574
18.44887
18.32496
18.16659
17.93383
17.583
17.52485
662.2464
577.3073
535.9916
497.0458
460.0871
426.7114
397.1844
371.1635
347.2149
282.1153
215.64
180.3658
160.0845
147.3639
138.5406
131.7932
126.2079
121.3244
96.38591
91.72223
87.30583
83.26352
79.68182
76.56472
73.86255
71.51081
69.44595
67.59841
65.99964
64.4668
62.92205
61.38978
59.89484
58.46043
57.10086
55.82084
54.61745
53.81172
53.2632
52.55163
51.74102
50.87573
49.98158
49.07793
48.17752
47.28848
46.41903
45.57139
44.73841
43.92711
43.13307
42.35473
41.59513
40.85923
40.15254
39.49116
35.78954
35.29247
34.83493
34.41486
34.02621
33.66095
33.31532
32.98652
32.67138
32.36488
32.06699
31.77529
31.48421
31.19018
30.89165
30.58755
30.2799
29.97597
29.68938
29.41479
29.11413
28.81566
28.53729
28.26814
27.99989
27.73368
27.46978
27.20904
26.95335
26.70432
26.4645
26.23707
26.02541
25.83286
25.66244
25.51627
25.39607
25.30416
25.24639
25.23301
25.26849
25.36218
25.56303
25.91291
26.3981
27.01913
27.78575
28.66669
29.56642
30.48716
31.418
32.29363
33.06122
33.67686
34.10723
34.33181
34.34208
34.14175
33.7454
33.17572
32.46052
31.63042
30.71616
29.74604
28.74619
27.74192
26.75885
25.82105
24.92158
24.06492
23.26207
22.52097
21.84703
21.24323
20.71037
20.24732
19.85134
19.51844
19.24361
19.0208
18.84313
18.70335
18.59486
18.51243
18.45264
18.41372
18.39497
18.3966
18.42047
18.472
18.56309
18.71684
18.97397
19.3482
19.85776
20.52331
21.36275
22.38393
23.56306
24.90289
26.32891
27.80535
29.29801
30.76931
32.17593
33.46154
34.55851
35.39559
35.91309
36.07663
35.88164
35.35392
34.54319
33.51512
32.34137
31.09067
29.82261
28.58414
27.40879
26.3117
25.28872
24.34368
23.48256
22.70664
22.01405
21.40311
20.87236
20.41998
20.04904
19.77226
19.61129
19.58901
19.76161
20.22385
21.14558
22.87532
25.96239
30.49116
36.4929
43.83827
51.28747
56.8936
59.04976
55.80809
48.75771
41.25541
34.87588
29.97152
27.73763
24.86351
23.40239
22.88659
22.95718
23.31213
23.75606
24.20723
24.61918
24.95556
25.1976
25.34029
25.38401
25.33206
25.19172
24.97543
24.70075
24.38911
24.06299
23.74328
23.44782
23.18988
22.97855
22.81964
22.7163
22.67002
22.65744
22.66332
22.68097
22.70257
22.71979
22.72438
22.70889
22.66628
22.58861
22.46821
22.30696
22.11359
21.89214
21.64764
21.38585
21.11228
20.83299
20.55344
20.27644
20.00532
19.7423
19.48845
19.2443
19.00996
18.78532
18.5701
18.36357
18.16446
17.97149
17.78373
17.60065
17.42192
17.24732
17.07666
16.90975
16.74646
16.58672
16.43053
16.27796
16.12908
15.98396
15.84273
15.7056
15.57497
14.26856
14.11397
13.97657
13.84777
13.72316
13.60117
13.48132
13.36359
13.24811
13.13502
13.02442
12.91633
12.81067
12.70734
12.60616
12.50696
12.40955
12.31375
12.21942
12.12646
12.03483
11.94454
11.85567
11.76833
11.68272
11.59905
11.51756
11.43851
11.36217
11.28879
11.21862
11.15186
11.08866
11.02917
10.97344
10.92151
10.87337
10.82897
10.78821
10.75099
10.71716
10.68659
10.65917
10.63479
10.61328
10.59423
10.5769
10.56067
10.54526
10.53043
10.51589
10.5014
10.48688
10.47361
10.46128
10.44533
10.42706
10.40803
10.38866
10.36893
10.34881
10.32836
10.30767
10.28688
10.26616
10.2457
10.2257
10.20634
10.18778
10.17018
10.15362
10.13819
10.1239
10.11075
10.09869
10.08762
10.07741
10.06789
10.05889
10.05019
10.04157
10.03284
10.02377
10.01419
10.00392
9.992832
9.980812
9.96779
9.953728
9.938616
9.922477
9.905361
9.887338
9.868498
9.848943
9.828787
9.80815
9.787152
9.765911
9.744534
9.723121
9.701759
9.680522
9.659465
9.638626
9.618022
9.597656
9.577507
9.557538
9.537695
9.517911
9.498103
9.478181
9.458041
9.437581
9.416693
9.395274
9.373217
9.350429
9.326809
9.302283
9.276758
9.250188
9.222482
9.193621
9.163501
9.132124
9.099341
9.065146
9.029258
8.991576
8.951489
8.908534
8.86131
8.808637
8.749013
8.684595
8.625077
8.572493
555.6051
490.203
436.7602
397.5589
367.8586
344.9339
326.9173
312.8372
301.8772
286.4093
176.4394
164.9457
155.4913
147.4833
140.6275
134.5307
128.92
122.8347
109.8666
76.15967
74.52342
73.63289
73.02674
72.52917
72.05147
71.55918
71.01612
70.3473
66.7986
64.37384
63.7245
63.31786
62.94025
62.54927
62.13365
61.68447
61.19253
60.66594
60.86742
59.97458
58.8561
57.79058
56.838
55.98698
55.21216
54.4907
53.80723
53.15701
52.49709
51.81114
51.0959
50.36527
49.63559
48.9193
48.22349
47.55515
44.48795
43.91072
43.36131
42.82996
42.31067
41.79971
41.29609
40.79998
40.31292
39.83511
39.36564
38.90676
38.45931
38.02131
37.59184
37.17076
36.7579
36.35342
35.95734
35.5681
35.18587
34.8124
34.4461
34.0846
33.72604
33.36891
33.0122
32.65528
32.29777
31.94067
31.58457
31.22976
30.87764
30.53067
30.19132
29.86206
29.54389
29.22965
28.97681
28.73202
28.49758
28.2727
28.05526
27.84502
27.64237
27.44644
27.25563
27.06806
26.8819
26.69432
26.50274
26.30598
26.10374
25.89635
25.68486
25.47075
25.25642
25.03959
24.81649
24.58968
24.36373
24.14076
23.91718
23.69219
23.46771
23.2448
23.02549
22.81192
22.60668
22.4127
22.23284
22.0697
21.92526
21.80077
21.69673
21.61405
21.55488
21.52482
21.53183
21.58929
21.7126
21.91681
22.20278
22.56344
22.98985
23.47414
23.99658
24.53909
25.09262
25.63716
26.14043
26.57141
26.90404
27.11842
27.20168
27.14845
26.96071
26.64683
26.22013
25.69724
25.09637
24.43591
23.73391
23.00792
22.27558
21.55587
20.86926
20.21308
19.59416
19.0198
18.49593
18.02692
17.61537
17.26206
16.96593
16.7243
16.53289
16.38588
16.27627
16.19636
16.13894
16.09857
16.07215
16.05764
16.05282
16.05465
16.05991
16.06732
16.07973
16.10581
16.16236
16.27359
16.44974
16.70086
17.0348
17.45518
17.95883
18.5447
19.20279
19.92026
20.68808
21.49658
22.3293
23.16435
23.96967
24.70553
25.32898
25.7993
26.08367
26.16213
26.0303
25.69997
25.19734
24.55894
23.82613
23.04011
22.23802
21.45108
20.70362
19.99929
19.33918
18.73103
18.17864
17.6844
17.24893
16.87321
16.55953
16.31362
16.14705
16.07465
16.12865
16.35016
16.80793
17.65889
19.11014
21.3147
24.50115
28.99719
34.68986
40.78401
46.48202
50.58556
51.22802
47.46763
41.49761
35.50951
30.58839
26.71812
23.92388
22.07187
20.95212
20.35963
20.12122
20.09582
20.17379
20.27615
20.35143
20.37149
20.32638
20.21873
20.05922
19.86338
19.64936
19.43513
19.23675
19.06705
18.93529
18.84722
18.80627
18.81354
18.86776
18.96615
19.09354
19.23477
19.38069
19.52244
19.65066
19.75621
19.83124
19.86787
19.86037
19.80649
19.70546
19.55811
19.36843
19.14204
18.88474
18.60241
18.30073
17.98529
17.66183
17.33583
17.0106
16.68852
16.37215
16.06395
15.76593
15.47921
15.20401
14.9401
14.68711
14.44461
14.21218
13.98944
13.77591
13.57093
13.37382
13.18407
13.00132
12.82523
12.65554
12.49201
12.33443
12.18267
12.03675
11.89388
11.78307
11.67008
11.55686
11.44418
11.33264
11.22268
11.11447
11.00802
10.90327
10.80014
10.69856
10.59845
10.49972
10.40229
10.30606
10.21095
10.1169
10.02384
9.93176
9.84065
9.750559
9.661574
9.573826
9.487484
9.402748
9.31984
9.238995
9.160453
9.084451
9.011211
8.940928
8.873761
8.809835
8.749228
8.691979
8.638087
8.58751
8.540178
8.495989
8.454823
8.41654
8.380989
8.348006
8.317408
8.288975
8.262409
8.23733
8.213359
8.190247
8.167773
8.14576
8.123986
8.102274
8.080379
8.058485
8.036498
8.014571
7.992685
7.970691
7.948535
7.926293
7.904098
7.882094
7.860415
7.839193
7.818559
7.798634
7.779535
7.761359
7.74419
7.728091
7.713104
7.699248
7.686517
7.674879
7.664276
7.654624
7.645815
7.637721
7.630198
7.62309
7.616236
7.609476
7.602652
7.595622
7.588255
7.580441
7.572093
7.563142
7.553546
7.543284
7.532357
7.520784
7.508606
7.495876
7.482659
7.469035
7.455086
7.4409
7.426564
7.412165
7.397783
7.383491
7.369354
7.355421
7.34173
7.328304
7.315148
7.302252
7.289592
7.277126
7.264799
7.252543
7.240281
7.227922
7.215378
7.202546
7.189331
7.175625
7.161338
7.146361
7.130617
7.113999
7.096453
7.077866
7.058212
7.037355
7.015304
6.991852
6.967037
6.940486
6.91226
6.881682
6.848944
6.813159
6.775353
6.735019
6.695371
6.657948
315.2556
228.2803
327.9237
148.4469
116.8652
86.92608
75.62564
66.25928
58.41775
54.75563
53.28869
52.54376
51.79723
51.02561
50.26351
49.55738
48.88411
48.22599
47.58296
46.96004
46.38467
45.96992
45.87124
45.93804
46.0764
46.2764
46.49582
46.70945
46.88556
46.98718
46.94398
45.58689
46.10049
46.62122
47.13169
47.6409
48.13151
48.62935
49.03834
49.40339
49.66322
49.86874
50.04127
50.15928
50.20871
50.18396
50.08455
49.91325
49.67524
49.37965
49.0399
48.65638
48.22606
47.75629
47.25601
46.73333
46.19462
45.64482
45.08757
44.52636
43.96287
43.39893
42.83388
42.27049
41.71167
41.15836
40.61405
40.07066
39.57069
39.07424
38.58619
38.10688
37.63657
37.17608
36.72621
36.28748
35.85997
35.44362
35.03836
34.64437
34.26121
33.88818
33.52485
33.17107
32.82668
32.49127
32.16398
31.84358
31.52878
31.21855
30.91203
30.60841
30.30661
30.00553
29.70442
29.40306
29.10162
28.8005
28.50011
28.20122
27.90552
27.61518
27.33302
27.06089
26.80088
26.55237
26.3186
26.09963
25.8944
25.70097
25.51742
25.34256
25.17533
25.01436
24.85799
24.70396
24.54935
24.39131
24.22686
24.05484
23.8762
23.69185
23.50266
23.30995
23.11473
22.91804
22.71788
22.51344
22.30666
22.10018
21.89419
21.6889
21.48345
21.27946
21.07927
20.88547
20.7009
20.52845
20.37093
20.23078
20.10962
20.00778
19.92434
19.85814
19.80899
19.77954
19.77613
19.80986
19.88963
20.02223
20.20777
20.44047
20.71266
21.01723
21.34542
21.68946
22.04247
22.39256
22.72118
23.00785
23.23408
23.38473
23.44865
23.41923
23.29463
23.07761
22.77487
22.39599
21.9524
21.45644
20.9208
20.35836
19.78218
19.20598
18.64492
18.11033
17.6048
17.13616
16.7112
16.33542
16.01271
15.74512
15.53264
15.37321
15.26272
15.19515
15.16248
15.15538
15.16516
15.18587
15.21472
15.25021
15.28924
15.32528
15.34991
15.35684
15.34501
15.31933
15.29091
15.27773
15.29227
15.34127
15.43046
15.56393
15.74415
15.97299
16.24996
16.57342
16.94237
17.35615
17.81089
18.29958
18.80895
19.31735
19.79894
20.22346
20.56045
20.7832
20.8724
20.81882
20.62506
20.30496
19.88101
19.38105
18.83448
18.26933
17.70973
17.17475
16.67263
16.20569
15.78024
15.4008
15.06961
14.78818
14.55998
14.3889
14.28028
14.24349
14.29623
14.45499
14.74986
15.25651
16.07136
17.30394
19.16475
21.94247
25.77304
30.52972
35.8211
41.15737
45.86939
48.44255
47.17353
42.81918
37.57821
32.70739
28.70638
25.64246
23.42113
21.88672
20.88313
20.26367
19.90759
19.71686
19.6141
19.54288
19.46758
19.37068
19.249
19.10912
18.96322
18.8262
18.71201
18.63088
18.58747
18.58276
18.61618
18.68569
18.78847
18.92152
19.07678
19.24123
19.40813
19.57148
19.72402
19.85698
19.96297
20.0346
20.06211
20.03943
19.96631
19.84472
19.67825
19.47133
19.22874
18.95547
18.6564
18.3364
18.00025
17.6527
17.29768
16.9386
16.57883
16.22198
15.87153
15.53055
15.20009
14.8803
14.57164
14.27457
13.9893
13.71594
13.4544
13.20439
12.96532
12.73664
12.51797
12.30877
12.10856
11.91687
11.73327
11.55742
11.38897
11.22712
11.07332
10.92658
10.78609
10.65111
10.52109
10.39555
10.27407
10.15619
10.04152
9.929675
9.820341
9.713228
9.608082
9.504675
9.4028
9.302274
9.202941
9.104679
9.007406
8.911088
8.815748
8.721464
8.628368
8.536639
8.446491
8.358159
8.27189
8.187936
8.106547
8.027946
7.952326
7.879843
7.810611
7.744698
7.682126
7.622878
7.566893
7.514082
7.464327
7.417489
7.373409
7.331911
7.292805
7.255881
7.220913
7.187642
7.155783
7.125049
7.095205
7.066063
7.037458
7.009238
6.981279
6.953545
6.926082
6.898754
6.871436
6.844134
6.816925
6.789903
6.763156
6.736778
6.710861
6.685502
6.660794
6.636832
6.613709
6.591511
6.570316
6.550189
6.531181
6.513327
6.496647
6.48114
6.466788
6.453549
6.441362
6.430144
6.419797
6.410205
6.401245
6.392783
6.384686
6.376821
6.369062
6.361294
6.353412
6.345328
6.336969
6.328279
6.319218
6.309764
6.299911
6.289669
6.279059
6.268119
6.256896
6.245445
6.233828
6.222115
6.210373
6.198672
6.18708
6.175659
6.164461
6.153532
6.142906
6.132602
6.122628
6.112978
6.103631
6.094552
6.085695
6.077
6.068397
6.05981
6.051152
6.042333
6.033257
6.023827
6.013941
6.003506
5.992418
5.980594
5.967928
5.954351
5.939753
5.924075
5.90719
5.889042
5.869463
5.8484
5.825649
5.801228
5.775007
5.74724
5.718021
5.688197
5.659357
280.9215
188.8785
142.5224
127.4313
103.687
87.18543
75.16208
70.54004
65.35759
62.35561
59.75999
56.2731
52.75459
49.40428
46.31487
42.88014
37.52487
36.26845
35.31489
34.74797
34.52189
34.50778
34.57767
34.68614
34.82944
35.00837
35.22513
35.48226
35.78483
36.15007
36.58821
37.07772
37.60833
38.17355
38.76391
39.37355
39.99948
40.64181
41.30123
41.97952
42.67492
43.3378
43.91403
44.59574
45.28397
45.9925
46.69162
47.317
47.90322
48.42219
48.86946
49.23177
49.47362
49.59238
49.59526
49.49102
49.28878
48.99855
48.63144
48.1989
47.7114
47.17931
46.61421
46.02371
45.4132
44.78875
44.15508
43.51601
42.87473
42.23397
41.59436
40.95803
40.32698
39.70667
39.10173
38.5147
37.94567
37.39501
36.86079
36.34293
35.84359
35.36419
34.90284
34.45801
34.02914
33.61596
33.218
32.8345
32.46487
32.10862
31.7651
31.4336
31.11336
30.80357
30.50372
30.21352
29.93252
29.65971
29.39351
29.13197
28.87364
28.61777
28.36357
28.10966
27.85451
27.59722
27.3378
27.07671
26.81448
26.55174
26.28949
26.02963
25.77493
25.52879
25.29392
25.07207
24.86383
24.66943
24.48866
24.3206
24.16352
24.01523
23.87375
23.73776
23.60634
23.4781
23.35048
23.21893
23.07952
22.93223
22.77781
22.61657
22.44892
22.27518
22.09585
21.91179
21.72398
21.53284
21.33873
21.1425
20.94541
20.74859
20.55354
20.36188
20.17371
19.99122
19.81762
19.65648
19.51109
19.38441
19.27882
19.1951
19.13149
19.08387
19.0474
19.01892
18.99907
18.99345
19.01408
19.06986
19.16498
19.29842
19.46418
19.65403
19.86001
20.07575
20.29708
20.51996
20.73705
20.93717
21.10782
21.23694
21.31387
21.33024
21.28038
21.16164
20.97467
20.72302
20.4126
20.05094
19.64661
19.2088
18.74707
18.27129
17.79186
17.32017
16.86918
16.44482
16.05476
15.70648
15.40658
15.16021
14.97067
14.83898
14.76319
14.73842
14.75702
14.80889
14.8827
14.96817
15.05932
15.15522
15.25593
15.35639
15.44371
15.5014
15.51734
15.48876
15.42214
15.33026
15.23142
15.14031
15.06421
15.00878
14.97837
14.97663
15.00573
15.06721
15.16243
15.29336
15.4626
15.67142
15.91869
16.19983
16.50461
16.81753
17.11902
17.38618
17.59558
17.72627
17.76256
17.69679
17.53019
17.27256
16.94046
16.55459
16.13712
15.70925
15.28953
14.89301
14.52672
14.19497
13.90289
13.65418
13.45038
13.29495
13.19092
13.14141
13.15156
13.22894
13.38143
13.62363
13.99
14.52926
15.31292
16.48519
18.24868
20.78929
24.20517
28.40385
33.08751
37.91935
42.54652
45.99073
46.82669
44.51781
40.38079
35.96224
32.0227
28.7507
26.12346
24.08702
22.56784
21.47733
20.7258
20.2239
19.89113
19.66288
19.4919
19.34854
19.2199
19.1049
19.00921
18.9399
18.90212
18.89792
18.92665
18.9859
19.0712
19.17647
19.29631
19.42586
19.55818
19.68922
19.81616
19.93601
20.04223
20.12322
20.16933
20.17457
20.13681
20.05795
19.94161
19.79094
19.60865
19.39744
19.16009
18.89925
18.61726
18.31627
17.99848
17.66628
17.32214
16.96847
16.60812
16.24444
15.88119
15.52108
15.16606
14.8181
14.47963
14.15287
13.8386
13.53718
13.24883
12.9734
12.71074
12.46052
12.22206
11.99474
11.77792
11.57103
11.37345
11.18468
11.00417
10.83153
10.66648
10.50868
10.35767
10.21299
10.07415
9.940664
9.812025
9.687716
9.567245
9.450159
9.336053
9.224557
9.115332
9.008059
8.902442
8.798213
8.695145
8.593059
8.491843
8.391456
8.291936
8.193395
8.096009
8.000009
7.905652
7.813204
7.722955
7.635194
7.55018
7.468137
7.389247
7.313647
7.241423
7.172613
7.107205
7.045141
6.986329
6.930645
6.877939
6.82804
6.780757
6.735881
6.693187
6.652436
6.613373
6.575736
6.539272
6.503757
6.469005
6.43486
6.401199
6.367935
6.335019
6.302419
6.270057
6.237909
6.206016
6.174441
6.14324
6.112472
6.082204
6.052513
6.023478
5.995185
5.967714
5.941146
5.915553
5.891002
5.867548
5.845236
5.824099
5.804154
5.785405
5.767839
5.751425
5.736113
5.721837
5.708516
5.696051
5.684339
5.673266
5.662718
5.65258
5.642743
5.633106
5.623576
5.614072
5.604525
5.594878
5.585087
5.575121
5.56496
5.554598
5.544039
5.5333
5.522406
5.511393
5.500305
5.48919
5.478104
5.467102
5.456244
5.445583
5.435173
5.425058
5.415276
5.405855
5.396813
5.388155
5.379875
5.371956
5.364366
5.357064
5.349999
5.343108
5.336323
5.329566
5.322752
5.315794
5.308596
5.301067
5.293107
5.284621
5.275512
5.265688
5.255051
5.243514
5.23098
5.217365
5.202571
5.186528
5.169158
5.150438
5.130367
5.109016
5.086542
5.063197
5.040449
140.3355
104.315
160.1996
79.43174
68.10313
58.51084
55.69755
53.70683
51.5288
50.72135
49.6569
48.049
46.53294
44.9029
42.9468
38.96634
38.07429
37.23006
36.40594
35.60532
34.78744
33.99124
33.2679
32.64767
32.15199
31.78823
31.49078
31.17059
31.00011
31.00295
31.16069
31.42309
31.7403
32.09181
32.47245
32.8811
33.31823
33.78694
34.30409
34.85988
35.44636
36.05891
36.69545
37.35294
38.02854
38.71927
39.42234
40.13164
40.84929
41.58172
42.31912
43.02708
43.73739
44.56042
45.3236
46.05934
46.73658
47.31792
47.78457
48.12469
48.33546
48.40833
48.33616
48.12454
47.78736
47.34242
46.80669
46.19776
45.53197
44.82383
44.08774
43.33372
42.57297
41.81325
41.05918
40.31543
39.58417
38.86871
38.17182
37.49887
36.85592
36.24349
35.66
35.10726
34.58284
34.08432
33.61016
33.15872
32.72855
32.31826
31.92721
31.55477
31.19952
30.86001
30.53528
30.22461
29.92722
29.64219
29.36865
29.106
28.85376
28.61136
28.37793
28.15242
27.93415
27.72305
27.51905
27.32119
27.12751
26.93586
26.74493
26.5543
26.36335
26.17051
25.97388
25.77248
25.56659
25.35721
25.14527
24.93155
24.71711
24.50406
24.29589
24.0967
23.90965
23.73616
23.57643
23.43022
23.29686
23.17472
23.06101
22.95234
22.84602
22.7411
22.6378
22.53581
22.43209
22.32392
22.2088
22.08424
21.95015
21.80772
21.65792
21.50106
21.33743
21.168
20.99434
20.81786
20.63929
20.45921
20.2787
20.09924
19.92271
19.75201
19.59011
19.44032
19.30727
19.19567
19.10952
19.05217
19.0255
19.02689
19.04762
19.07503
19.09717
19.10711
19.10564
19.09953
19.10348
19.13047
19.18333
19.26051
19.35641
19.46386
19.57668
19.6907
19.80347
19.91277
20.01415
20.10067
20.16468
20.19867
20.19564
20.14971
20.05666
19.91443
19.72286
19.48388
19.20121
18.87992
18.52607
18.14643
17.74824
17.33923
16.92774
16.5231
16.13651
15.77817
15.45575
15.17787
14.95233
14.78543
14.68142
14.6416
14.6638
14.7417
14.86477
15.01919
15.18972
15.3641
15.53814
15.71566
15.89903
16.07835
16.22904
16.32195
16.33868
16.27898
16.15663
15.99167
15.80766
15.6204
15.4396
15.27227
15.12254
14.9935
14.88769
14.80697
14.75332
14.729
14.73608
14.77686
14.85254
14.96236
15.10287
15.26588
15.43879
15.60596
15.74924
15.85036
15.89328
15.86655
15.76521
15.59147
15.35413
15.06698
14.74667
14.4106
14.07523
13.75496
13.46111
13.19932
12.97462
12.79077
12.65026
12.55531
12.50799
12.50988
12.56384
12.67197
12.83655
13.06223
13.36349
13.76446
14.30737
15.0795
16.22322
17.91224
20.29295
23.41318
27.15369
31.28926
35.57003
39.73156
43.30946
45.34421
45.15451
42.93938
39.54796
35.9095
32.55176
29.61165
27.12217
25.0774
23.47086
22.26396
21.39136
20.7782
20.3515
20.05111
19.83674
19.68329
19.57664
19.50938
19.47701
19.47545
19.50016
19.54529
19.60388
19.66859
19.73273
19.79158
19.84194
19.88179
19.9095
19.92269
19.91774
19.89111
19.84024
19.76398
19.66247
19.538
19.39392
19.23274
19.05577
18.8639
18.65816
18.43946
18.20828
17.96464
17.70835
17.43927
17.15713
16.86159
16.55269
16.23153
15.90061
15.56277
15.22082
14.87763
14.53637
14.20044
13.87356
13.5585
13.2556
12.96508
12.68734
12.42214
12.16911
11.92776
11.69751
11.47779
11.26799
11.06762
10.87619
10.69323
10.51839
10.35134
10.19173
10.03917
9.893228
9.753432
9.619264
9.490176
9.36562
9.245082
9.128094
9.014227
8.903075
8.794234
8.687309
8.581919
8.477715
8.374399
8.271745
8.169616
8.067975
7.966881
7.866485
7.767022
7.668773
7.572027
7.477107
7.384361
7.294107
7.206622
7.122145
7.040864
6.962915
6.888379
6.817279
6.749587
6.685227
6.624089
6.566033
6.510888
6.458461
6.408537
6.360882
6.315246
6.271369
6.228991
6.18786
6.147748
6.10846
6.069837
6.031756
5.994131
5.956906
5.920051
5.88355
5.847413
5.811672
5.77637
5.741554
5.707276
5.673597
5.640581
5.6083
5.576826
5.546228
5.516576
5.487931
5.460351
5.433885
5.40857
5.384434
5.361495
5.339757
5.31921
5.299827
5.281568
5.264375
5.248176
5.232886
5.218411
5.204653
5.191508
5.178877
5.166664
5.154778
5.143141
5.131679
5.120332
5.109046
5.097779
5.086498
5.075178
5.063805
5.052372
5.040884
5.029352
5.017796
5.006247
4.994738
4.983312
4.972014
4.960892
4.949993
4.939365
4.929049
4.919085
4.909503
4.900325
4.891565
4.883227
4.875303
4.867777
4.860621
4.8538
4.847266
4.840966
4.834838
4.828812
4.822812
4.816756
4.81056
4.804132
4.797382
4.790216
4.782543
4.77427
4.765305
4.75556
4.74495
4.733397
4.720831
4.707205
4.69248
4.676669
4.659788
4.641959
4.623252
4.605005
54.34807
41.82972
42.17438
40.15235
39.21768
38.0984
37.23858
36.52381
35.94865
35.02684
32.69913
32.60581
32.52579
32.45747
32.36671
32.24238
32.11601
32.01573
31.95119
31.90959
31.76588
31.40067
31.03605
30.67383
30.3225
29.98422
29.67623
29.41713
29.21925
29.08385
29.00631
28.98223
29.02322
29.1601
29.40114
29.73326
30.1286
30.56013
31.01361
31.4825
31.96397
32.45934
32.98733
33.54153
34.12171
34.73013
35.36741
36.03196
36.71698
37.42157
38.14573
38.8937
39.63584
40.38158
41.15721
41.95202
42.70091
43.44434
44.20487
44.90096
45.48995
45.94528
46.24466
46.37105
46.32577
46.11657
45.75285
45.25016
44.62557
43.90041
43.09714
42.23735
41.34264
40.43002
39.51608
38.613
37.73008
36.87713
36.05791
35.27795
34.53858
33.84997
33.21328
32.6264
32.08674
31.59263
31.14126
30.72873
30.34728
29.99279
29.66224
29.35311
29.0631
28.79027
28.53297
28.28983
28.05973
27.84154
27.63417
27.43675
27.24862
27.06905
26.89713
26.73199
26.57315
26.42038
26.27329
26.13096
25.9923
25.85673
25.7245
25.59588
25.47001
25.34481
25.21826
25.0896
24.95906
24.82647
24.69045
24.54932
24.40256
24.25115
24.09664
23.94037
23.78345
23.62734
23.47471
23.32968
23.19641
23.07716
22.97184
22.87929
22.79803
22.72562
22.6579
22.58969
22.51638
22.43584
22.34896
22.25852
22.16843
22.07859
21.98463
21.88177
21.76755
21.64266
21.50967
21.37063
21.22618
21.07661
20.92308
20.76765
20.61233
20.45809
20.30544
20.15559
20.01054
19.87257
19.74488
19.63577
19.55586
19.51327
19.51438
19.56363
19.66415
19.8175
20.0098
20.20957
20.38286
20.50762
20.57759
20.6056
20.60276
20.57618
20.53906
20.4909
20.43567
20.37622
20.31257
20.24685
20.18302
20.12383
20.06982
20.01847
19.96457
19.90161
19.82306
19.72315
19.59692
19.44087
19.25297
19.03262
18.78065
18.49926
18.19178
17.86245
17.51625
17.15878
16.79623
16.4356
16.08506
15.75466
15.4566
15.20086
14.99723
14.85492
14.78191
14.78368
14.86157
15.01112
15.22181
15.47777
15.75881
16.04416
16.31991
16.58742
16.86012
17.14306
17.4161
17.6347
17.75075
17.74049
17.61432
17.40324
17.14111
16.85808
16.56847
16.28645
16.021
15.77309
15.54137
15.32849
15.13842
14.97305
14.83313
14.71964
14.63415
14.57844
14.55334
14.55841
14.59062
14.64313
14.70591
14.76596
14.8087
14.81982
14.7873
14.70345
14.56623
14.37939
14.15163
13.89508
13.62361
13.35131
13.09134
12.85511
12.65086
12.48363
12.35706
12.27368
12.23486
12.24115
12.29194
12.38752
12.52781
12.71124
12.93554
13.20323
13.52347
13.91822
14.44317
15.1981
16.31372
17.92882
20.14716
22.95675
26.23324
29.82748
33.54862
37.14815
40.32889
42.69025
43.79059
43.39237
41.65555
39.03998
36.02153
32.99984
30.22789
27.80745
25.78771
24.17624
22.9423
22.02967
21.3708
20.90481
20.58347
20.36918
20.23394
20.15701
20.12204
20.11504
20.12317
20.134
20.13578
20.11733
20.07007
19.99524
19.89485
19.77222
19.63145
19.47722
19.31445
19.1461
18.97202
18.7901
18.60001
18.40432
18.20589
18.00581
17.80425
17.60153
17.39799
17.19351
16.9872
16.77753
16.56264
16.34042
16.10878
15.86588
15.61079
15.34389
15.06649
14.78032
14.48749
14.19082
13.89323
13.59815
13.3081
13.02438
12.74846
12.48156
12.22429
11.97693
11.7395
11.51182
11.29361
11.08449
10.88412
10.69218
10.5084
10.33253
10.16434
10.00361
9.850077
9.703412
9.563226
9.429046
9.300343
9.176571
9.057203
8.941769
8.829838
8.72099
8.614788
8.51077
8.408458
8.307385
8.207121
8.107303
8.007667
7.908061
7.808456
7.708943
7.60972
7.511067
7.413288
7.316743
7.221821
7.128891
7.038294
6.95034
6.865288
6.783345
6.704656
6.629303
6.557312
6.488649
6.423238
6.360964
6.301676
6.245196
6.191317
6.139808
6.090418
6.042882
5.996933
5.952312
5.90878
5.866125
5.824174
5.782794
5.741894
5.701425
5.66137
5.621731
5.582527
5.543788
5.505554
5.467871
5.430789
5.394365
5.358659
5.323734
5.289658
5.256491
5.224293
5.19312
5.163023
5.134045
5.106219
5.079568
5.054107
5.029841
5.006761
4.984845
4.964055
4.944341
4.925636
4.907864
4.890939
4.874767
4.859257
4.844316
4.82986
4.815808
4.80209
4.788643
4.775414
4.762356
4.749431
4.736606
4.723856
4.711164
4.698516
4.685908
4.673343
4.660831
4.64839
4.636045
4.623827
4.611771
4.599916
4.588302
4.576971
4.56596
4.555305
4.545037
4.53518
4.525752
4.516761
4.508208
4.500086
4.492379
4.48506
4.478099
4.471455
4.465079
4.458918
4.452907
4.446981
4.441064
4.43508
4.428946
4.422578
4.415892
4.408801
4.40122
4.393068
4.384265
4.374742
4.364431
4.353289
4.341275
4.328392
4.314629
4.300069
4.284719
4.269764
80.60501
33.19415
28.51855
27.40891
26.77501
26.49759
26.48799
26.63533
26.89393
27.23028
27.51706
27.64278
27.76564
27.87406
27.9681
28.04226
28.10393
28.15492
28.18478
28.17399
28.0993
27.97179
27.84309
27.71987
27.60752
27.51114
27.4415
27.40505
27.40922
27.45472
27.54054
27.66993
27.85325
28.10061
28.41452
28.78465
29.1921
29.61874
30.05439
30.49475
30.94435
31.43444
31.95868
32.5166
33.11187
33.74855
34.42922
35.15355
35.89267
36.64822
37.42133
38.25041
39.03657
39.82108
40.61132
41.40457
42.16816
42.86651
43.46025
43.90766
44.17751
44.2552
44.13593
43.82377
43.33323
42.68435
41.89952
41.00591
40.03007
39.00088
37.94394
36.88486
35.84457
34.83972
33.88526
32.98901
32.15997
31.40114
30.72218
30.12107
29.59156
29.12796
28.72496
28.37582
28.07157
27.80336
27.56624
27.35589
27.16763
26.99766
26.843
26.70121
26.57021
26.4484
26.33456