/*--------------------------------*- C++ -*----------------------------------*\
| =========                 |                                                 |
| \\      /  F ield         | foam-extend: Open Source CFD                    |
|  \\    /   O peration     | Version:     3.1                                |
|   \\  /    A nd           | Web:         http://www.extend-project.de       |
|    \\/     M anipulation  |                                                 |
\*---------------------------------------------------------------------------*/
FoamFile
{
    version     2.0;
    format      ascii;
    class       volScalarField;
    location    "10.5";
    object      p;
}
// * * * * * * * * * * * * * * * * * * * * * * * * * * * * * * * * * * * * * //

dimensions      [1 -1 -2 0 0 0 0];

internalField   nonuniform List<scalar> 
119952
(
6610.993
5707.32
5606.259
5784.997
5970.051
5895.728
5899.23
5908.504
5923.825
5939.567
5953.611
5964.963
5972.949
5977.194
5977.521
5973.859
5966.029
5952.805
5926.328
5850.141
6104.771
5955.499
5887.979
6233.839
6207.146
6265.394
6297.999
6392.004
6619.222
8214.804
4258.702
4241.719
4267.378
4290.89
4314.851
4338.622
4363.123
4386.794
4413.344
4417.488
4417.806
4445.423
4459.613
4472.726
4484.665
4497.132
4508.173
4517.579
4529.132
4529.622
4534.26
4532.797
4545.933
4564.301
4583.981
4608.579
4638.222
4671.654
4711.367
4744.305
4791.982
4844.243
4898.387
4955.857
5016.25
5079.544
5150.2
5257.047
5417.451
5377.909
5403.688
5505.909
5574.266
5601.724
5614.096
5632.432
5650.848
5667.718
5682.25
5693.636
5701.329
5705.149
5705.072
5701.236
5693.837
5683.325
5671.407
5665.017
5682.499
5701.348
5699.077
5793.766
5914.224
5953.773
5980.535
6007.888
5976.824
5823.209
5846.903
5906.421
5955.182
6001.673
6045.631
6086.554
6125.242
6162.196
6197.772
6232.261
6265.886
6298.82
6331.2
6363.15
6394.647
6425.49
6455.681
6485.163
6514.048
6541.911
6568.896
6594.808
6619.454
6642.628
6663.997
6683.298
6700.11
6714.027
6724.659
6731.685
6734.798
6733.879
6728.89
6720.157
6708.332
6694.227
6678.824
6663.183
6648.391
6635.549
6625.57
6619.899
6619.251
6623.723
6634.175
6649.716
6669.195
6690.339
6713.156
6750.486
6780.632
6793.447
6812.771
6834.641
6858.026
6882.294
6906.087
6928.621
6949.651
6969.466
6988.516
7007.255
7026.058
7045.033
7063.936
7082.84
7101.871
7121.114
7140.718
7160.754
7181.464
7203.014
7225.499
7249.091
7273.99
7300.402
7328.621
7358.907
7391.644
7427.339
7466.508
7509.594
7557.935
7611.692
7672.211
7740.922
7818.737
7893.525
7915.22
7939.112
7998.741
8048.712
8061.234
8069.869
8074.718
8065.097
8040.041
8001.39
7951.351
7933.34
7868.746
7803.528
7738.556
7675.923
7616.746
7562.11
7513.08
7469.505
7430.663
7395.654
7363.528
7333.494
7304.768
7276.784
7249.198
7221.942
7195.258
7169.491
7145.605
7124.554
7107.427
7095.399
7089.615
7091.069
7100.713
7119.029
7146.324
7182.542
7227.199
7279.401
7337.895
7401.146
7467.425
7534.912
7601.751
7666.722
7728.356
7785.749
7838.261
7885.61
7927.512
7963.934
7994.991
8020.957
8042.214
8059.171
8072.259
8081.95
8088.74
8093.108
8095.481
8096.228
8095.675
8094.118
8091.833
8089.055
8085.976
8082.741
8079.463
8076.229
8073.106
8070.148
8067.392
8064.864
8062.577
8060.533
8058.732
8057.307
8055.818
8030.973
8026.184
8021.526
8020.397
8019.273
8018.249
8017.451
8016.738
8016.081
8015.467
8014.877
8014.299
8013.724
8013.145
8012.559
8011.965
8011.364
8010.754
8010.139
8009.52
8008.901
8008.285
8007.676
8007.079
8006.499
8005.937
8005.398
8004.884
8004.395
8003.931
8003.491
8003.069
8002.662
8002.261
8001.859
8001.447
8001.014
8000.553
8000.055
7999.515
7998.929
7998.303
7997.656
7997.02
7996.363
7995.295
7993.302
7990.816
7988.411
7986.002
7983.509
7980.957
7978.219
7974.47
7966.884
7966.591
7964.304
7960.863
7957.492
7953.991
7950.393
7946.752
7943.074
7939.364
7935.622
7931.842
7928.024
7924.182
7920.316
7916.427
7912.518
7908.59
7904.646
7900.69
7896.725
7892.755
7888.783
7884.814
7880.851
7876.9
7872.965
7869.051
7865.163
7861.306
7857.487
7853.711
7849.983
7846.31
7842.697
7839.149
7835.672
7832.269
7828.946
7825.706
7822.552
7819.486
7816.512
7813.63
7810.841
7808.146
7805.543
7803.032
7800.611
7798.278
7796.028
7793.86
7791.767
7789.746
7787.79
7785.895
7784.051
7782.254
7780.495
7778.765
7777.056
7775.359
7773.664
7771.96
7770.236
7768.48
7766.679
7764.818
7762.881
7760.851
7758.706
7756.423
7753.973
7751.325
7748.434
7745.226
7741.632
7737.557
7732.848
7727.193
7720.185
7711.491
7702.96
7707.313
7748.643
6484.172
6375.799
6245.77
6111.119
5972.258
5831.249
5689.95
5549.654
5411.06
5249.487
5119.264
4994.33
4873.338
4761.232
4656.651
4559.906
4470.975
4390.046
4271.053
4222.157
4156.237
4097.696
4052.185
4013.251
3980.824
3954.707
3933.778
3919.808
3912.569
3896.524
3894.712
3896.56
3900.845
3908.835
3919.383
3932.257
3948.98
3973.425
3977.469
3992.497
4015.225
4037.479
4059.372
4081.247
4102.591
4123.322
4142.69
4157.533
4175.379
4191.375
4203.705
4214.568
4224.794
4234.249
4243.846
4259.266
4193.678
4205.633
4221.157
4236.766
4253.477
4273.174
4298.329
4328.672
4363.164
4402.051
4446.924
4495.325
4546.479
4601.305
4660.591
4724.412
4793.615
4868.831
4947.925
5022.427
5079.663
5127.451
5180.199
5233.405
5275.266
5305.606
5329.36
5350.179
5369.015
5384.31
5394.969
5401.006
5402.737
5400.447
5394.679
5386.435
5377.557
5370.779
5369.797
5377.628
5395.754
5426.182
5471.734
5524.883
5566.819
5590.842
5598.579
5590.066
5576.185
5586.443
5619.631
5664.093
5711.11
5756.002
5798.004
5837.857
5876.055
5912.74
5947.985
5981.908
6014.702
6046.556
6077.601
6107.89
6137.42
6166.173
6194.128
6221.379
6247.73
6273.159
6297.476
6320.451
6341.855
6361.371
6378.649
6393.265
6404.782
6412.795
6416.974
6417.061
6412.969
6404.839
6393.125
6378.61
6362.26
6345.171
6328.519
6313.36
6300.72
6291.587
6287.098
6288.177
6294.966
6307.704
6325.535
6347.688
6373.492
6401.533
6430.279
6459.727
6486.179
6511.022
6535.749
6560.965
6586.472
6611.283
6634.779
6656.835
6677.531
6697.249
6716.276
6734.694
6752.679
6770.405
6788.017
6805.714
6823.678
6842.069
6861.135
6880.757
6901.444
6923.066
6945.9
6970.137
6995.947
7023.603
7053.527
7086.072
7121.429
7160.229
7203.361
7250.975
7304.155
7361.505
7422.746
7486.136
7541.159
7587.174
7629.471
7677.607
7739.255
7771.08
7791.929
7796.011
7773.385
7739.906
7694.801
7640.683
7652.693
7588.541
7518.901
7451.425
7387.578
7328.622
7275.368
7228.085
7186.385
7149.447
7116.27
7085.844
7057.261
7029.753
7002.72
6975.776
6948.822
6922.069
6896.046
6871.592
6849.745
6831.627
6818.426
6811.309
6811.356
6819.49
6836.202
6861.908
6896.547
6939.691
6990.507
7047.767
7109.941
7175.315
7242.075
7308.607
7373.41
7435.068
7492.677
7545.654
7593.557
7636.139
7673.374
7705.279
7732.126
7754.301
7772.179
7786.116
7796.574
7804.062
7809.058
7811.999
7813.252
7813.142
7811.973
7810.023
7807.536
7804.706
7801.686
7798.594
7795.527
7792.559
7789.749
7787.136
7784.75
7782.606
7780.717
7779.104
7777.86
7777.434
7712.791
7712.313
7711.819
7710.729
7709.68
7708.895
7708.291
7707.763
7707.271
7706.801
7706.343
7705.888
7705.429
7704.959
7704.477
7703.98
7703.469
7702.942
7702.403
7701.851
7701.291
7700.726
7700.159
7699.596
7699.042
7698.5
7697.974
7697.467
7696.981
7696.517
7696.073
7695.645
7695.23
7694.82
7694.408
7693.986
7693.544
7693.073
7692.564
7692.009
7691.4
7690.73
7689.981
7689.115
7688.054
7686.691
7684.926
7682.825
7680.558
7678.198
7675.727
7673.12
7670.316
7667.157
7663.298
7659.534
7656.398
7653.426
7650.205
7646.711
7643.078
7639.396
7635.687
7631.944
7628.162
7624.345
7620.498
7616.626
7612.732
7608.817
7604.884
7600.937
7596.976
7593.006
7589.03
7585.052
7581.074
7577.102
7573.139
7569.189
7565.257
7561.348
7557.466
7553.618
7549.808
7546.042
7542.326
7538.665
7535.065
7531.531
7528.068
7524.68
7521.373
7518.149
7515.012
7511.964
7509.008
7506.144
7503.374
7500.698
7498.115
7495.624
7493.223
7490.909
7488.681
7486.533
7484.462
7482.462
7480.528
7478.653
7476.831
7475.055
7473.316
7471.607
7469.918
7468.24
7466.564
7464.878
7463.173
7461.434
7459.65
7457.806
7455.889
7453.878
7451.758
7449.502
7447.091
7444.486
7441.664
7438.56
7435.152
7431.354
7427.184
7422.653
7418.206
7414.618
7413.374
7414.987
7420.128
3408.836
3420.169
3447.403
3485.627
3535.343
3597.171
3670.989
3756.715
3854.102
3962.792
4064.914
4193.838
4330.984
4476.395
4628.495
4786.002
4947.46
5111.071
5274.975
5428.16
5589.683
5747.066
5897.289
6038.978
6170.178
6288.21
6390.228
6474.323
6546.558
6591.492
6616.046
6620.362
6604.473
6568.912
6514.564
6442.588
6354.845
6253.596
6131.339
6010.754
5879.214
5741.94
5600.847
5458.143
5315.703
5175.244
5038.613
4906.274
4777.208
4656.157
4540.175
4431.522
4330.351
4236.837
4151.984
4080.306
3912.815
3850.276
3799.684
3753.267
3711.303
3675.364
3646.014
3622.805
3605.113
3591.968
3583.236
3579.35
3578.852
3581.259
3586.939
3595.955
3607.919
3622.387
3638.759
3656.358
3675.342
3695.04
3715.505
3736.962
3759.088
3781.291
3803.038
3823.842
3843.401
3861.707
3877.818
3891.695
3903.669
3913.982
3922.691
3930.091
3936.246
3942.211
3948.349
3957.209
3967.71
3979.28
3993.88
4013.16
4038.002
4068.062
4103.092
4143.029
4187.39
4235.99
4288.713
4345.585
4406.632
4471.898
4539.862
4610.381
4682.321
4754.598
4816.801
4870.376
4923.244
4975.485
5020.412
5056.675
5086.374
5111.196
5132.081
5148.34
5159.069
5164.252
5164.358
5159.979
5151.946
5141.638
5130.934
5122.223
5118.047
5121.304
5133.899
5154.499
5185.117
5222.418
5256.795
5281.776
5298.026
5310.459
5320.445
5337.204
5369.966
5415.382
5464.659
5512.422
5557.446
5600.141
5640.887
5679.726
5716.642
5751.716
5785.137
5817.141
5847.941
5877.669
5906.388
5934.148
5961.036
5987.194
6012.462
6036.651
6059.694
6081.399
6101.505
6119.677
6135.519
6148.574
6158.361
6164.444
6166.484
6164.206
6157.466
6146.501
6131.876
6114.507
6095.571
6076.283
6057.824
6041.271
6027.566
6017.71
6012.898
6014.173
6021.831
6035.888
6055.76
6080.47
6108.505
6138.584
6169.756
6201.859
6232.84
6261.579
6289.311
6316.907
6344.165
6370.428
6395.313
6418.752
6440.778
6461.488
6481.035
6499.607
6517.406
6534.626
6551.477
6568.189
6584.994
6602.113
6619.771
6638.117
6657.262
6677.497
6698.868
6721.639
6745.97
6772.07
6800.281
6831.556
6865.318
6902.073
6942.746
6987.492
7037.007
7090.034
7145.078
7201.827
7255.457
7299.991
7344.398
7399.372
7458.256
7503.432
7523.17
7543.536
7546.715
7501.894
7453.634
7393.81
7321.062
7247.968
7175.493
7105.941
7041.958
6985.091
6935.428
6892.417
6855.165
6822.452
6793.005
6765.703
6739.621
6714.032
6688.31
6661.958
6634.92
6607.487
6580.39
6554.736
6531.685
6512.394
6498.196
6490.423
6490.178
6498.24
6515.546
6542.237
6578.247
6623.134
6676.02
6735.443
6799.771
6867.273
6935.786
7003.63
7069.454
7132.053
7190.502
7243.981
7291.936
7334.139
7370.574
7401.487
7427.283
7448.373
7465.183
7478.182
7487.862
7494.717
7499.226
7501.876
7502.91
7502.554
7501.179
7499.113
7496.582
7493.737
7490.72
7487.652
7484.627
7481.725
7479.003
7476.498
7474.233
7472.22
7470.452
7468.923
7467.556
7466.357
7464.949
7463.85
7462.936
7462.125
7461.462
7460.954
7460.554
7460.207
7459.881
7459.562
7459.243
7458.918
7458.581
7458.227
7457.854
7457.46
7457.044
7456.607
7456.148
7455.669
7455.172
7454.66
7454.137
7453.609
7453.081
7452.556
7452.04
7451.536
7451.048
7450.578
7450.124
7449.686
7449.258
7448.836
7448.413
7447.981
7447.53
7447.05
7446.532
7445.963
7445.333
7444.623
7443.809
7442.858
7441.726
7440.361
7438.71
7436.773
7434.625
7432.333
7429.912
7427.33
7424.583
7421.712
7418.975
7416.033
7412.692
7409.106
7405.435
7401.733
7398.009
7394.268
7390.509
7386.725
7382.912
7379.068
7375.196
7371.3
7367.383
7363.447
7359.494
7355.527
7351.55
7347.564
7343.575
7339.585
7335.597
7331.617
7327.646
7323.691
7319.755
7315.842
7311.958
7308.107
7304.295
7300.527
7296.808
7293.145
7289.543
7286.006
7282.54
7279.149
7275.838
7272.611
7269.47
7266.419
7263.459
7260.592
7257.819
7255.141
7252.556
7250.064
7247.663
7245.351
7243.126
7240.982
7238.917
7236.924
7235
7233.137
7231.328
7229.568
7227.847
7226.159
7224.493
7222.841
7221.193
7219.539
7217.868
7216.168
7214.427
7212.633
7210.77
7208.823
7206.776
7204.61
7202.305
7199.838
7197.186
7194.326
7191.244
7187.951
7184.508
7181.076
7177.914
7175.395
7173.856
7173.867
7175.623
3382.701
3357.505
3328.991
3287.161
3259.224
3205.137
3191.487
3190.179
3200.296
3190.41
3164.248
3147.17
3145.254
3155.683
3178.274
3212.452
3257.762
3314.092
3382.09
3461.483
3552.236
3654.449
3766.59
3889.639
4022.756
4164.046
4312.225
4466.055
4624.099
4784.052
4946.645
5082.947
5247.367
5402.609
5549.454
5687.163
5814.119
5927.767
6026.401
6109.694
6175.41
6218.688
6240.268
6241.048
6221.375
6181.858
6123.544
6047.891
5956.741
5852.256
5736.535
5611.92
5479.747
5342.102
5201.196
5059.122
4917.751
4778.749
4643.489
4512.865
4387.548
4268.699
4157.081
4052.782
3955.588
3865.597
3782.844
3706.885
3635.49
3574.547
3524.203
3479.055
3438.752
3404.609
3376.975
3355.374
3339.059
3327.681
3320.994
3318.035
3318.465
3322.385
3329.613
3339.892
3352.882
3368.15
3385.39
3404.52
3424.676
3445.276
3467.01
3489.989
3513.611
3537.199
3560.217
3582.292
3603.02
3621.844
3638.409
3652.666
3664.459
3673.802
3680.865
3686.07
3689.921
3693.393
3697.02
3701.618
3708.009
3717.165
3730.409
3748.526
3772.061
3801.208
3835.912
3875.84
3920.657
3970.282
4024.319
4082.298
4143.82
4208.684
4276.939
4347.508
4418.533
4488.499
4553.648
4613.334
4669.765
4723.566
4772.292
4814.092
4849.291
4878.461
4901.939
4919.428
4930.301
4934.438
4932.329
4924.775
4912.848
4898.085
4882.487
4868.454
4858.501
4855.063
4859.696
4872.241
4892.402
4918.501
4946.106
4971.476
4994.18
5016.526
5039.744
5068.675
5107.947
5156.198
5208.147
5259.554
5308.75
5355.51
5399.936
5441.991
5481.625
5518.884
5553.952
5587.094
5618.569
5648.575
5677.27
5704.794
5731.274
5756.78
5781.211
5804.599
5826.732
5847.484
5866.582
5883.66
5898.278
5909.93
5918.052
5922.134
5921.815
5916.835
5907.03
5892.626
5874.31
5853.132
5830.525
5808.066
5787.032
5768.353
5752.786
5741.234
5735.093
5735.757
5743.749
5758.992
5780.648
5807.471
5838.136
5871.577
5906.679
5942.368
5977.112
6009.924
6040.985
6070.766
6099.36
6126.571
6152.375
6176.836
6200.003
6221.933
6242.706
6262.376
6280.99
6298.652
6315.539
6331.883
6347.949
6364.014
6380.34
6397.154
6414.644
6433.042
6452.511
6473.335
6495.611
6519.433
6545.696
6574.483
6605.431
6639.367
6676.659
6717.306
6762.186
6810.32
6859.903
6911.377
6961.748
7006.989
7052.961
7103.693
7152.679
7193.481
7228.146
7256.829
7260.429
7247.264
7203.836
7132.988
7057.197
6980.229
6905.817
6834.324
6769.172
6712.97
6665.5
6625.594
6591.959
6562.945
6536.961
6512.724
6489.247
6465.865
6441.686
6415.83
6388.465
6360.168
6331.724
6304.211
6278.91
6257.186
6240.506
6230.364
6227.811
6233.669
6249.061
6274.273
6309.331
6353.852
6407.12
6467.537
6533.102
6602.013
6672.412
6742.52
6810.8
6875.924
6936.662
6992.098
7041.698
7085.248
7122.77
7154.468
7180.711
7201.895
7218.526
7231.26
7240.662
7247.185
7251.313
7253.485
7254.069
7253.419
7251.864
7249.736
7247.288
7244.587
7241.665
7238.636
7235.63
7232.755
7230.071
7227.618
7225.415
7223.47
7221.766
7220.289
7218.968
7217.815
7216.769
7215.912
7215.265
7214.746
7214.296
7213.918
7213.607
7213.342
7213.1
7212.865
7212.629
7212.386
7212.129
7211.855
7211.559
7211.241
7210.898
7210.529
7210.134
7209.713
7209.268
7208.802
7208.319
7207.824
7207.323
7206.821
7206.321
7205.829
7205.35
7204.885
7204.435
7203.998
7203.57
7203.147
7202.722
7202.287
7201.831
7201.345
7200.817
7200.233
7199.578
7198.835
7197.979
7196.985
7195.82
7194.448
7192.839
7190.987
7188.93
7186.704
7184.331
7181.806
7179.148
7176.377
7173.493
7170.308
7166.877
7163.364
7159.833
7156.265
7152.637
7148.952
7145.219
7141.445
7137.634
7133.787
7129.909
7126.002
7122.07
7118.116
7114.143
7110.156
7106.158
7102.153
7098.144
7094.134
7090.129
7086.132
7082.146
7078.176
7074.227
7070.302
7066.406
7062.545
7058.724
7054.947
7051.221
7047.551
7043.942
7040.399
7036.929
7033.534
7030.219
7026.989
7023.846
7020.793
7017.833
7014.966
7012.194
7009.517
7006.936
7004.448
7002.053
6999.748
6997.531
6995.397
6993.344
6991.366
6989.457
6987.613
6985.826
6984.088
6982.394
6980.734
6979.1
6977.483
6975.874
6974.263
6972.639
6970.992
6969.309
6967.58
6965.791
6963.929
6961.98
6959.93
6957.764
6955.47
6953.036
6950.459
6947.748
6944.941
6942.111
6939.373
6936.901
6934.844
6933.476
6932.934
6933.31
3565.213
3541.117
3518.749
3470.573
3431.653
3357.962
3317.912
3276.995
3236.311
3195.989
3156.114
3118.332
3081.003
3045.619
3013.398
2983.567
2894.251
2875.118
2861.602
2850.359
2837.459
2826.039
2820.675
2824.125
2837.531
2861.42
2896.306
2942.267
2998.532
3065.902
3145.701
3237.153
3340.001
3453.874
3578.081
3711.768
3854.166
4003.971
4159.438
4318.7
4479.798
4641.34
4794.079
4952.806
5106.101
5251.788
5388.318
5513.93
5626.822
5725.55
5808.213
5872.633
5916.26
5938.22
5938.716
5918.29
5877.781
5818.379
5741.643
5649.457
5543.826
5426.82
5301.045
5168.546
5031.067
4890.592
4749.11
4608.455
4470.283
4335.812
4205.892
4081.466
3964.023
3854.057
3751.189
3655.562
3567.526
3486.77
3413.418
3347.584
3290.328
3241.133
3198.135
3160.709
3129.197
3103.728
3083.992
3069.496
3059.871
3054.651
3053.272
3055.499
3061.145
3069.885
3081.432
3095.531
3111.894
3130.259
3150.353
3171.72
3194.226
3218.043
3242.962
3268.405
3293.78
3318.611
3342.471
3364.834
3385.113
3402.804
3417.496
3428.913
3437.059
3442.139
3444.602
3445.095
3444.486
3443.569
3443.432
3445.509
3451.04
3460.996
3476.175
3497.386
3525.095
3559.215
3599.332
3645.008
3695.851
3751.369
3811.013
3874.217
3940.632
4009.886
4081.123
4152.947
4224.06
4292.793
4357.929
4419.435
4477.523
4531.165
4578.824
4619.811
4653.762
4680.483
4699.55
4710.394
4712.9
4707.595
4695.378
4677.43
4655.486
4631.894
4609.416
4590.793
4578.595
4574.412
4578.335
4589.662
4607.333
4629.445
4654.184
4680.919
4710.528
4744.252
4784.142
4831.565
4885.351
4942.361
4999.442
5054.551
5106.856
5156.211
5202.543
5245.853
5286.159
5323.646
5358.619
5391.388
5422.231
5451.386
5479.057
5505.411
5530.553
5554.514
5577.296
5598.774
5618.787
5637.059
5653.185
5666.65
5676.86
5683.195
5685.11
5682.177
5673.991
5660.374
5641.636
5618.524
5592.207
5564.597
5537.881
5513.394
5491.643
5472.876
5458.082
5449.23
5448.601
5457.249
5474.517
5498.841
5528.825
5563.185
5600.902
5640.855
5681.411
5720.86
5758.111
5792.725
5824.835
5854.784
5882.841
5909.355
5934.691
5958.998
5982.22
6004.326
6025.27
6044.97
6063.416
6080.697
6096.995
6112.551
6127.655
6142.612
6157.718
6173.26
6189.495
6206.615
6224.904
6244.542
6265.606
6289.125
6314.457
6341.54
6371.623
6404.795
6440.696
6479.369
6521.767
6566.699
6612.957
6659.811
6704.368
6747.053
6791.51
6836.782
6878.722
6913.726
6940.335
6954.117
6937.555
6910.931
6870.772
6785.899
6697.834
6619.484
6546.125
6482.494
6429.71
6386.143
6350.467
6321.479
6297.006
6275.118
6254.43
6233.862
6212.722
6189.948
6164.595
6137.082
6108.199
6078.801
6049.894
6022.832
5999.133
5980.276
5967.746
5962.931
5967.025
5981.04
6005.259
6039.826
6084.405
6138.149
6199.597
6266.886
6337.965
6410.989
6484.133
6555.316
6622.983
6685.914
6743.21
6794.337
6839.091
6877.527
6909.89
6936.571
6958.043
6974.848
6987.578
6996.799
7003.009
7006.679
7008.206
7008.115
7006.92
7004.892
7002.273
6999.32
6996.348
6993.408
6990.372
6987.328
6984.435
6981.761
6979.343
6977.196
6975.319
6973.696
6972.308
6971.12
6970.132
6969.292
6968.597
6968.057
6967.625
6967.264
6966.97
6966.739
6966.555
6966.395
6966.243
6966.088
6965.923
6965.745
6965.547
6965.328
6965.085
6964.813
6964.513
6964.182
6963.822
6963.432
6963.016
6962.578
6962.123
6961.656
6961.183
6960.707
6960.235
6959.774
6959.324
6958.885
6958.457
6958.037
6957.619
6957.198
6956.764
6956.307
6955.816
6955.279
6954.682
6954.009
6953.241
6952.359
6951.337
6950.151
6948.775
6947.191
6945.394
6943.398
6941.225
6938.892
6936.402
6933.763
6930.964
6927.993
6924.836
6921.537
6918.146
6914.679
6911.133
6907.512
6903.824
6900.083
6896.297
6892.47
6888.605
6884.705
6880.775
6876.817
6872.837
6868.837
6864.822
6860.795
6856.762
6852.725
6848.689
6844.657
6840.635
6836.626
6832.633
6828.662
6824.718
6820.804
6816.925
6813.088
6809.297
6805.558
6801.877
6798.258
6794.707
6791.229
6787.828
6784.51
6781.276
6778.131
6775.078
6772.118
6769.253
6766.484
6763.812
6761.236
6758.756
6756.37
6754.075
6751.871
6749.752
6747.715
6745.756
6743.869
6742.048
6740.287
6738.58
6736.918
6735.294
6733.7
6732.127
6730.566
6729.008
6727.442
6725.859
6724.248
6722.598
6720.899
6719.138
6717.306
6715.393
6713.388
6711.287
6709.086
6706.796
6704.432
6702.04
6699.675
6697.431
6695.406
6693.732
6692.535
6691.897
6691.772
3669.131
3641.924
3609.756
3565.432
3533.226
3466.956
3435.537
3403.763
3370.982
3337.683
3303.987
3269.851
3234.112
3197.533
3158.276
3051.762
3011.347
2971.028
2930.546
2890.189
2850.104
2810.919
2772.846
2736.135
2701.353
2670.074
2642.978
2619.309
2599.096
2581.606
2566.747
2556.486
2552.64
2556.646
2569.533
2591.929
2624.406
2667.409
2722.182
2788.402
2866.188
2955.682
3056.748
3169.019
3291.834
3424.244
3565.191
3713.423
3867.375
4025.466
4185.815
4346.059
4502.836
4659.041
4809.91
4954.017
5089.466
5213.613
5324.729
5421.528
5501.701
5563.059
5603.789
5622.786
5620.011
5596.136
5552.213
5489.599
5409.975
5315.249
5207.548
5089.075
4962.188
4829.083
4691.626
4551.89
4411.648
4272.538
4136.246
4004.328
3877.548
3756.556
3642.053
3534.11
3433.195
3340.189
3255.434
3178.588
3109.573
3048.196
2994.201
2947.333
2907.018
2872.691
2844.167
2821.369
2804.076
2791.929
2784.553
2781.557
2782.543
2787.104
2794.823
2805.356
2818.495
2834.082
2851.886
2871.624
2893.103
2916.276
2941.136
2967.504
2994.922
3022.806
3050.671
3078.108
3104.626
3129.578
3152.175
3171.539
3186.913
3197.939
3204.603
3207.044
3205.697
3201.399
3195.251
3188.394
3182.201
3178.295
3178.14
3183.028
3194.198
3212.699
3238.992
3272.836
3313.615
3360.644
3413.314
3470.976
3532.913
3598.451
3667.068
3738.268
3811.52
3885.972
3960.551
4033.968
4104.945
4172.748
4237.056
4297.053
4351.38
4398.801
4438.33
4469.082
4490.066
4500.427
4500.251
4490.301
4471.641
4445.441
4413.502
4378.479
4344.089
4313.879
4291.111
4277.538
4272.788
4275.804
4285.969
4302.738
4325.75
4354.939
4390.735
4433.52
4483.566
4540.543
4602.783
4667.632
4732.388
4795.046
4854.451
4910.105
4961.892
5009.818
5053.907
5094.418
5131.745
5166.281
5198.386
5228.381
5256.544
5283.107
5308.237
5332.027
5354.503
5375.576
5395.071
5412.732
5428.148
5440.734
5449.719
5454.364
5454.034
5448.151
5436.081
5417.523
5392.826
5362.932
5329.47
5295.315
5263.594
5235.106
5209.179
5185.421
5165.55
5152.981
5150.783
5160.389
5181.16
5210.186
5244.951
5283.965
5326.862
5372.924
5419.582
5464.774
5507.275
5545.914
5580.509
5611.9
5640.764
5667.881
5693.776
5718.554
5742.527
5765.718
5787.908
5808.803
5828.256
5846.231
5862.802
5878.135
5892.489
5906.187
5919.572
5932.985
5946.746
5961.121
5976.392
5992.75
6010.271
6030.044
6051.829
6074.178
6099.294
6127.777
6158.638
6191.541
6227.224
6265.812
6306.656
6348.727
6389.218
6427.793
6468.935
6512.791
6552.985
6586.227
6611.653
6622.366
6616.546
6597.869
6549.696
6483.291
6412.254
6327.981
6247.495
6184.023
6135.419
6097.603
6068.504
6046.185
6027.475
6010.354
5993.654
5976.226
5957.219
5935.888
5911.653
5884.748
5855.842
5825.863
5795.987
5767.633
5742.307
5721.499
5706.693
5699.607
5701.748
5714.048
5736.939
5770.668
5814.939
5868.761
5930.907
5999.955
6073.667
6149.524
6225.312
6298.983
6368.92
6433.863
6492.876
6545.404
6591.256
6630.519
6663.481
6690.568
6712.301
6729.252
6742.023
6751.193
6757.297
6760.827
6762.265
6762.09
6760.724
6758.478
6755.539
6752.106
6748.666
6745.372
6742.093
6738.942
6736.016
6733.361
6730.998
6728.931
6727.152
6725.642
6724.376
6723.327
6722.475
6721.764
6721.179
6720.736
6720.401
6720.148
6719.963
6719.834
6719.745
6719.675
6719.61
6719.537
6719.453
6719.353
6719.235
6719.095
6718.929
6718.734
6718.508
6718.248
6717.954
6717.626
6717.268
6716.884
6716.478
6716.056
6715.624
6715.176
6714.729
6714.301
6713.878
6713.461
6713.052
6712.647
6712.242
6711.831
6711.405
6710.952
6710.461
6709.919
6709.313
6708.627
6707.842
6706.941
6705.901
6704.702
6703.326
6701.758
6699.993
6698.036
6695.898
6693.59
6691.116
6688.48
6685.681
6682.727
6679.628
6676.393
6673.04
6669.585
6666.042
6662.422
6658.735
6654.991
6651.195
6647.353
6643.47
6639.548
6635.593
6631.609
6627.599
6623.569
6619.521
6615.462
6611.395
6607.324
6603.254
6599.19
6595.135
6591.094
6587.071
6583.072
6579.099
6575.159
6571.257
6567.397
6563.585
6559.828
6556.13
6552.497
6548.934
6545.446
6542.037
6538.712
6535.475
6532.328
6529.275
6526.316
6523.455
6520.691
6518.025
6515.458
6512.988
6510.614
6508.334
6506.146
6504.046
6502.03
6500.095
6498.234
6496.442
6494.714
6493.042
6491.419
6489.838
6488.291
6486.77
6485.265
6483.768
6482.27
6480.761
6479.233
6477.674
6476.077
6474.432
6472.73
6470.966
6469.133
6467.233
6465.266
6463.249
6461.198
6459.156
6457.165
6455.304
6453.632
6452.261
6451.229
6450.624
6450.347
3571.819
3536.341
3511.397
3473.209
3431.567
3392.207
3354.796
3320.114
3287.591
3255
3157.136
3125.852
3094.7
3062.893
3030.2
2996.608
2962.03
2926.15
2888.982
2851.057
2813.223
2773.534
2733.314
2692.673
2651.973
2611.367
2571.058
2531.382
2492.629
2454.809
2418.885
2386.74
2358.281
2333.419
2312.22
2295.487
2284.811
2281.189
2285.444
2298.356
2320.547
2352.358
2394.75
2448.077
2512.7
2588.837
2676.634
2776.004
2886.599
3007.8
3138.661
3278.076
3424.707
3576.931
3733.115
3891.133
4048.457
4203.466
4355.919
4503.514
4644.736
4777.616
4899.205
5007.025
5099.276
5174.024
5229.474
5264.203
5277.338
5268.833
5239.422
5190.289
5122.981
5039.312
4941.25
4831.005
4710.767
4582.954
4449.613
4312.668
4174.485
4036.825
3901.012
3768.452
3640.204
3517.287
3400.779
3290.762
3187.255
3091.337
3003.737
2924.472
2853.139
2789.376
2732.819
2683.153
2640.2
2603.668
2573.132
2548.286
2528.94
2514.883
2505.824
2501.461
2501.494
2505.517
2512.966
2523.248
2535.986
2551.091
2568.512
2588.046
2609.438
2632.67
2658.002
2685.587
2715.071
2745.736
2776.858
2808.032
2838.99
2869.238
2897.907
2923.831
2945.641
2962.168
2972.904
2977.764
2976.682
2970.11
2959.288
2945.821
2931.209
2917.041
2905.168
2897.368
2895.481
2901.502
2916.956
2942.141
2976.278
3018.257
3067.195
3122.367
3182.976
3248.041
3316.699
3388.323
3462.53
3539.176
3617.842
3697.498
3776.811
3854.591
3930.026
4002.296
4070.208
4132.295
4187.2
4233.585
4269.552
4293.063
4302.693
4298.819
4282.691
4255.571
4218.39
4172.774
4122.187
4071.512
4026.339
3991.43
3968.407
3955.586
3950.565
3952.864
3963.018
3982.554
4012.711
4053.998
4105.771
4166.627
4234.729
4307.674
4382.718
4457.254
4529.288
4597.432
4660.859
4719.308
4772.837
4821.581
4865.864
4906.177
4943.018
4976.849
5008.087
5037.098
5064.197
5089.618
5113.524
5135.991
5156.954
5176.254
5193.624
5208.632
5220.603
5228.49
5231.675
5229.113
5219.822
5203.091
5178.45
5146.203
5107.673
5064.944
5022.541
4985.889
4953.148
4921.69
4890.861
4863.375
4845.049
4841.16
4853.363
4879.908
4915.858
4956.778
5000.338
5048.74
5104.225
5161.745
5215.12
5261.829
5302.652
5338.532
5370.392
5399.034
5426.271
5453.397
5478.827
5503.266
5527.268
5550.551
5572.65
5593.211
5612.061
5629.152
5644.506
5658.294
5670.831
5682.497
5693.678
5704.74
5716.002
5727.749
5740.397
5754.074
5769.315
5786.533
5804.164
5823.857
5846.788
5871.857
5898.891
5927.956
5959.344
5993.284
6029.302
6065.486
6100.788
6137.206
6175.3
6213.193
6247.62
6272.146
6284.538
6285.823
6268.999
6227.444
6172.126
6103.039
6025.182
5955.222
5895.124
5846.084
5809.94
5785.707
5769.347
5756.431
5744.612
5732.56
5718.882
5702.301
5682.662
5659.983
5634.131
5605.658
5575.54
5545.033
5515.61
5488.852
5466.394
5449.896
5441.025
5441.219
5451.486
5472.626
5505.043
5548.61
5602.577
5665.618
5735.958
5811.302
5889.074
5966.781
6042.26
6113.855
6180.297
6240.603
6294.185
6340.87
6380.775
6414.215
6441.64
6463.592
6480.681
6493.541
6502.776
6508.944
6512.563
6514.143
6514.102
6512.764
6510.518
6507.701
6504.38
6500.632
6496.808
6493.249
6490.035
6487.137
6484.557
6482.302
6480.363
6478.724
6477.362
6476.251
6475.374
6474.699
6474.108
6473.614
6473.295
6473.081
6472.946
6472.875
6472.853
6472.861
6472.883
6472.906
6472.917
6472.912
6472.894
6472.86
6472.805
6472.724
6472.613
6472.47
6472.29
6472.072
6471.818
6471.529
6471.21
6470.866
6470.505
6470.145
6469.739
6469.308
6468.926
6468.544
6468.161
6467.78
6467.401
6467.017
6466.623
6466.21
6465.766
6465.28
6464.737
6464.125
6463.429
6462.632
6461.716
6460.663
6459.456
6458.078
6456.518
6454.77
6452.834
6450.716
6448.423
6445.959
6443.331
6440.545
6437.61
6434.532
6431.317
6427.98
6424.537
6421.004
6417.392
6413.708
6409.959
6406.153
6402.296
6398.394
6394.45
6390.468
6386.455
6382.413
6378.348
6374.263
6370.165
6366.058
6361.947
6357.837
6353.732
6349.637
6345.557
6341.497
6337.46
6333.452
6329.478
6325.544
6321.655
6317.816
6314.035
6310.315
6306.663
6303.084
6299.583
6296.164
6292.832
6289.59
6286.44
6283.386
6280.43
6277.573
6274.816
6272.159
6269.603
6267.146
6264.788
6262.526
6260.358
6258.281
6256.291
6254.383
6252.554
6250.796
6249.106
6247.475
6245.897
6244.365
6242.872
6241.409
6239.968
6238.54
6237.118
6235.693
6234.256
6232.799
6231.313
6229.793
6228.23
6226.623
6224.968
6223.268
6221.529
6219.766
6217.996
6216.257
6214.582
6213.034
6211.651
6210.518
6209.644
6209.103
6208.812
3324.584
3275.401
3170.336
3134.728
3098.962
3064.771
3032.27
3001.182
2971.049
2941.626
2912.906
2883.343
2853.153
2822.095
2790.12
2757
2722.642
2686.904
2649.642
2611.177
2572.531
2532.889
2492.443
2451.492
2410.262
2368.858
2327.014
2284.732
2242.884
2202.101
2163.042
2126.955
2095.029
2067.621
2044.947
2027.697
2016.837
2013.109
2017.2
2029.742
2051.253
2082.485
2123.885
2175.956
2239.144
2313.776
2399.996
2497.737
2606.642
2726.109
2855.17
2992.771
3137.333
3287.165
3439.96
3593.698
3746.756
3897.835
4046.465
4190.775
4328.169
4456.176
4572.151
4673.626
4758.537
4825.143
4871.971
4897.985
4902.666
4886.183
4849.388
4793.581
4720.506
4632.018
4530.319
4417.496
4295.703
4167.707
4035.419
3900.797
3765.549
3630.993
3499.235
3371.489
3248.131
3130.268
3019.293
2915.587
2819.203
2730.612
2650.133
2577.654
2512.793
2455.127
2404.288