/*--------------------------------*- C++ -*----------------------------------*\
| =========                 |                                                 |
| \\      /  F ield         | foam-extend: Open Source CFD                    |
|  \\    /   O peration     | Version:     3.1                                |
|   \\  /    A nd           | Web:         http://www.extend-project.de       |
|    \\/     M anipulation  |                                                 |
\*---------------------------------------------------------------------------*/
FoamFile
{
    version     2.0;
    format      ascii;
    class       volScalarField;
    location    "20";
    object      k;
}
// * * * * * * * * * * * * * * * * * * * * * * * * * * * * * * * * * * * * * //

dimensions      [0 2 -2 0 0 0 0];

internalField   nonuniform List<scalar> 
119952
(
0.08032598
0.07686603
0.07602395
0.07421926
0.07225759
0.07070736
0.07004721
0.069834
0.06983804
0.06997726
0.07019247
0.07044533
0.07071508
0.07099011
0.07126105
0.07152249
0.07177347
0.07202759
0.0723429
0.07303935
0.07552585
0.07333088
0.07319682
0.07527351
0.07209692
0.07025318
0.06873623
0.0673189
0.06477079
0.02715065
0.0954421
0.09388956
0.09192342
0.09058148
0.08996148
0.08994538
0.09032263
0.09091475
0.09158417
0.09227577
0.08739898
0.08699096
0.08892062
0.09184628
0.09506112
0.09814636
0.1009423
0.1034225
0.1055545
0.1145176
0.1156945
0.1164409
0.1167616
0.1168582
0.1168979
0.1169368
0.1170051
0.1171151
0.117171
0.1176914
0.1180423
0.1182438
0.1183913
0.1185012
0.1185599
0.1185378
0.1184048
0.1183315
0.1205118
0.1204848
0.1197042
0.1196327
0.1196585
0.1193995
0.1186688
0.1177039
0.1166878
0.1156876
0.1147471
0.1138984
0.1131517
0.1124918
0.1118877
0.1113088
0.1107366
0.1101605
0.1095576
0.1089151
0.1084303
0.1080742
0.1073844
0.1071256
0.1077429
0.1080711
0.108157
0.1085235
0.108923
0.1070067
0.1051313
0.1036301
0.1022564
0.1010933
0.1000702
0.09916656
0.09838293
0.09772054
0.09716007
0.09668469
0.09628643
0.09595624
0.09568154
0.09545072
0.09523091
0.09499706
0.09472798
0.09440776
0.09402981
0.0935965
0.09311542
0.09259407
0.09203656
0.0914447
0.09082175
0.09017421
0.08951067
0.08884375
0.08818731
0.08757084
0.08700879
0.08652368
0.0861597
0.08593472
0.08585662
0.08591665
0.08609504
0.08635653
0.08664706
0.08687795
0.08695484
0.08684677
0.08660215
0.08622542
0.08573461
0.08514963
0.08449255
0.08378723
0.08306876
0.08255363
0.08238589
0.08224104
0.08239148
0.08272945
0.0831507
0.08361985
0.08413128
0.08467754
0.0852448
0.08578165
0.08620983
0.08642527
0.08631056
0.08578646
0.08481664
0.08340013
0.0815834
0.07936225
0.07780878
0.0788674
0.08183243
0.08466501
0.08601949
0.08550974
0.08352954
0.0808812
0.07829108
0.0762067
0.07476939
0.07387378
0.07323693
0.07254509
0.07158079
0.07026538
0.06868072
0.06704151
0.06550896
0.06414218
0.06291826
0.06178562
0.06070975
0.0596919
0.05873804
0.05785331
0.05703419
0.05627868
0.05557871
0.05493186
0.05429193
0.05246562
0.04938588
0.04764388
0.04645187
0.04550614
0.0446887
0.04395108
0.0432441
0.04254733
0.04188521
0.04124475
0.04061949
0.04000673
0.03940411
0.03880923
0.03822232
0.03765446
0.03710036
0.03655848
0.03603311
0.03553171
0.0350587
0.03461394
0.03419799
0.03381357
0.03346455
0.03315483
0.03288846
0.03266974
0.03250403
0.03239895
0.03236358
0.03240269
0.03251865
0.03271971
0.03298175
0.03359731
0.0344309
0.03527728
0.03617789
0.03714935
0.03820689
0.03936503
0.04062847
0.04199144
0.04343476
0.04492502
0.04641598
0.04785395
0.04919084
0.05040254
0.05150549
0.05256354
0.05367193
0.05491682
0.05634365
0.05795199
0.05969653
0.0614834
0.06318751
0.0647004
0.06597643
0.06702446
0.06783843
0.06838088
0.06867157
0.06883155
0.06894373
0.06891861
0.06874339
0.07376566
0.07197535
0.06861403
0.06422714
0.06354934
0.06868011
0.07505641
0.07892529
0.07957812
0.07737684
0.07315516
0.06798874
0.06271346
0.05790276
0.05382596
0.05051836
0.0479241
0.04594352
0.04446632
0.04340221
0.04267877
0.04222801
0.04198459
0.04188062
0.04184065
0.04178778
0.0416414
0.04133965
0.04086736
0.04026578
0.03961382
0.03899665
0.03848045
0.03809305
0.03783867
0.03769938
0.03765035
0.03766626
0.03772247
0.03779978
0.03788332
0.03796053
0.03802029
0.03805392
0.03806314
0.03805606
0.03800634
0.03793527
0.03783987
0.03770826
0.03752369
0.03726061
0.03689226
0.03642197
0.03595132
0.03515967
0.03431597
0.03343451
0.03253974
0.03165826
0.03081465
0.03002758
0.02930987
0.02866619
0.02809762
0.02760221
0.02717614
0.02681508
0.02651452
0.02626935
0.02607363
0.02592089
0.02580458
0.02571842
0.02565653
0.02561374
0.02558581
0.02556946
0.02556241
0.0255635
0.02557248
0.02558945
0.02561429
0.02564646
0.02568483
0.02572786
0.02577387
0.02582079
0.02586637
0.02590852
0.02594564
0.0259766
0.0259999
0.02601349
0.0260143
0.02599903
0.02596475
0.02590875
0.02582878
0.02572529
0.02559925
0.02545242
0.02528841
0.02511056
0.02492191
0.02472558
0.0245247
0.02432248
0.02412197
0.02392604
0.02373732
0.02355822
0.0233908
0.02323667
0.02309705
0.02297273
0.0228641
0.02277126
0.02269393
0.02263146
0.02258293
0.02254717
0.0225227
0.02250806
0.02250187
0.02250296
0.02250991
0.02252041
0.02253174
0.02254196
0.02254976
0.02255422
0.02255621
0.02255606
0.02255236
0.02253553
0.02247744
0.02239542
0.02281971
0.110864
0.1031867
0.1032704
0.1063087
0.1102659
0.1141484
0.1175875
0.1204983
0.1229311
0.1228955
0.1265204
0.1328453
0.1397774
0.1464044
0.1521339
0.1569113
0.1608645
0.1640761
0.1853726
0.1858323
0.1861526
0.1860242
0.1856494
0.1852513
0.1848839
0.1845808
0.1843291
0.183972
0.1838214
0.1835683
0.1829164
0.182086
0.1812209
0.1803857
0.1796073
0.1788851
0.1781724
0.1776889
0.1773614
0.1767489
0.1760081
0.1752581
0.1745044
0.1737258
0.1728982
0.1719993
0.1710311
0.1700568
0.1690186
0.1680228
0.1671306
0.1663553
0.1656933
0.1651203
0.1645896
0.164069
0.172842
0.172026
0.1712342
0.1705177
0.1698681
0.1692422
0.1685875
0.1678673
0.1670889
0.1662669
0.1654439
0.1646946
0.1640385
0.1634555
0.1629064
0.1623413
0.1617384
0.1611495
0.1607552
0.1603423
0.1595782
0.1588327
0.1582823
0.1577152
0.156943
0.155945
0.1547879
0.1535233
0.1522036
0.1508941
0.149654
0.1485129
0.147462
0.1464697
0.1455009
0.1445386
0.1435813
0.1426483
0.1417689
0.1409718
0.1402053
0.1395297
0.1391018
0.1388357
0.1384368
0.1379409
0.1372345
0.1360729
0.1345203
0.1330941
0.131823
0.1306046
0.1294256
0.1282816
0.1271801
0.1261428
0.1251852
0.1243122
0.1235268
0.122833
0.1222328
0.1217193
0.1212676
0.1208335
0.1203654
0.1198193
0.1191683
0.1184036
0.117529
0.1165539
0.1154852
0.1143267
0.1130855
0.1117784
0.110432
0.1090804
0.1077636
0.1065236
0.105403
0.1044468
0.1037203
0.1032993
0.1032071
0.1034482
0.1040059
0.1048303
0.1058208
0.1068347
0.1077259
0.1083784
0.1087281
0.1088297
0.1087278
0.1084284
0.1079348
0.1072347
0.1063211
0.1052113
0.1039484
0.1025267
0.1010028
0.09946854
0.09798816
0.09661258
0.09538993
0.0943665
0.09358435
0.09307169
0.09284878
0.09291815
0.09324849
0.09376451
0.09435972
0.09494169
0.09539114
0.09553401
0.09524907
0.0946842
0.09424719
0.09414621
0.09444263
0.09512162
0.09610965
0.09730147
0.09862207
0.1000435
0.101559
0.1031528
0.1047629
0.1062581
0.1074571
0.1081879
0.1083486
0.1079307
0.1070033
0.1056666
0.1040144
0.1021475
0.1001356
0.09806358
0.0959893
0.09396162
0.09199781
0.09012443
0.08833217
0.08666454
0.08509383
0.08372991
0.08137123
0.07856761
0.07665518
0.07526344
0.07416695
0.07323651
0.07240141
0.07162008
0.07086487
0.0701215
0.06938081
0.06863585
0.06788143
0.06711349
0.06632892
0.06552543
0.06470211
0.06385952
0.06299912
0.06212332
0.06123532
0.06033893
0.05944056
0.05854772
0.05766851
0.05681128
0.05598479
0.05519822
0.05446108
0.0537839
0.05317953
0.05266242
0.05224742
0.05194864
0.05177805
0.05175579
0.05194033
0.05237423
0.0530619
0.05402293
0.0552768
0.05683325
0.05869014
0.06082907
0.06321143
0.06577585
0.06843697
0.07108783
0.07361586
0.07593604
0.07803015
0.07997916
0.0819582
0.08416809
0.08674431
0.08971666
0.09302065
0.09649805
0.09991126
0.1030195
0.1056747
0.1078546
0.1095906
0.1108688
0.1116735
0.1120904
0.1122666
0.112243
0.1119715
0.1114283
0.1160471
0.1137344
0.1102354
0.1057018
0.1009305
0.09656219
0.09274151
0.08945857
0.08653442
0.08377264
0.08099099
0.07804411
0.07487957
0.07155285
0.06818867
0.06492244
0.06186609
0.05910936
0.05670127
0.05465472
0.05295857
0.05158693
0.05050648
0.0496886
0.04910804
0.04872972
0.04849924
0.04834893
0.04821516
0.04804863
0.04782102
0.04752785
0.04718463
0.04681492
0.04645053
0.04612513
0.04585095
0.04561709
0.04540638
0.04519974
0.04497811
0.04472386
0.04442267
0.04406572
0.04365023
0.04317749
0.04265251
0.04209116
0.0415152
0.04094589
0.0404013
0.03989322
0.03941751
0.0389802
0.0385583
0.03808765
0.0375533
0.03696849
0.03634377
0.0356926
0.03503293
0.03438574
0.03376903
0.03319826
0.03268536
0.03223826
0.03186073
0.03155316
0.03131306
0.03113545
0.03101316
0.0309374
0.03089835
0.03088567
0.03088898
0.03089881
0.03090755
0.03091009
0.03090368
0.03088722
0.03086026
0.03082227
0.03077224
0.03070868
0.03062973
0.03053352
0.03041838
0.03028321
0.03012775
0.02995287
0.02976093
0.0295559
0.02934102
0.02911873
0.02889167
0.02866239
0.0284332
0.02820611
0.02798277
0.02776434
0.02755145
0.02734415
0.02714285
0.02694909
0.02676542
0.0265952
0.02643948
0.02629903
0.02617481
0.02606785
0.02597927
0.02591009
0.02586113
0.02583297
0.02582586
0.02583962
0.02587344
0.02592583
0.02599471
0.02607744
0.02617099
0.02627196
0.02637701
0.02648297
0.02658709
0.02668684
0.02677984
0.02686416
0.02693856
0.02700386
0.02706205
0.0271175
0.02717396
0.02723572
0.02730487
0.02738663
0.02748883
0.02763361
0.02777107
0.06060281
0.06593545
0.07207818
0.0786976
0.08584655
0.09373463
0.1027973
0.1136522
0.1276889
0.1474238
0.2239327
0.2416048
0.2575478
0.2709334
0.2840746
0.2964804
0.3081738
0.3194427
0.3322246
0.4037276
0.4135043
0.4184986
0.4210194
0.4218539
0.4214747
0.4201569
0.4180164
0.4150051
0.4114987
0.4069231
0.4024254
0.398162
0.3940761
0.3900274
0.3859142
0.3816837
0.3773224
0.3730661
0.3674205
0.3618727
0.3563729
0.3509891
0.345723
0.3405464
0.3354472
0.3304397
0.3255532
0.3208713
0.3163022
0.3118134
0.3074027
0.3030309
0.2986931
0.2944226
0.2902781
0.2863245
0.2945888
0.291136
0.2877565
0.2844717
0.2812478
0.2780517
0.2748853
0.2717586
0.2686964
0.2656852
0.2626663
0.2596476
0.2566532
0.2536997
0.2508289
0.2480833
0.2454764
0.2429913
0.2405932
0.2382206
0.2358677
0.2336054
0.2314718
0.229473
0.2275947
0.2257951
0.2240182
0.2222051
0.2203025
0.2183103
0.2162623
0.2142091
0.2122397
0.2104353
0.208841
0.2074416
0.2061576
0.2048816
0.2035405
0.2021976
0.2009107
0.1997313
0.198682
0.1977241
0.1967762
0.1957649
0.1946625
0.1934964
0.192342
0.1912827
0.190371
0.1896112
0.1889625
0.1883493
0.1877136
0.1870369
0.1863469
0.1856388
0.1849005
0.1842006
0.1836043
0.1830369
0.1823675
0.1814828
0.1803417
0.1789979
0.1775289
0.1760369
0.1746208
0.1733359
0.1721763
0.171093
0.1700352
0.1689775
0.1679254
0.1668984
0.1659223
0.1650067
0.1641424
0.1633294
0.1625937
0.1618895
0.1611648
0.1603216
0.1593187
0.1579818
0.1564303
0.1548584
0.1533642
0.1519402
0.1505749
0.149258
0.1479969
0.1468145
0.1457282
0.1447421
0.143857
0.1430809
0.1424213
0.1418639
0.1413643
0.1408605
0.1402832
0.1395784
0.1387176
0.1376973
0.1365333
0.1352487
0.1338593
0.132371
0.13079
0.1291346
0.1274379
0.1257467
0.1241159
0.1226046
0.1212745
0.120192
0.1194514
0.1191798
0.1194246
0.1202068
0.1215102
0.1232403
0.1251977
0.1271145
0.1287288
0.1298611
0.1304564
0.1306154
0.1304437
0.1299618
0.1291817
0.1280953
0.126693
0.1249761
0.1229755
0.1207315
0.1183154
0.1158175
0.1133132
0.110865
0.1085269
0.1063481
0.1043697
0.1026229
0.1011332
0.09991215
0.09896073
0.098274
0.09781348
0.09751386
0.0973074
0.09707391
0.09667707
0.09613424
0.09558809
0.0951408
0.09483913
0.09470339
0.0947305
0.09491629
0.09527654
0.09584624
0.096671
0.09779541
0.09919818
0.1008084
0.102569
0.1043863
0.1061456
0.1077286
0.1090274
0.1099549
0.1104466
0.1104672
0.1100015
0.1090767
0.1077692
0.1061704
0.1043698
0.1024351
0.1004191
0.09839658
0.09643643
0.09456952
0.09300102
0.09146747
0.09006116
0.08878703
0.08763775
0.08660105
0.0856605
0.08479766
0.08399414
0.08323323
0.08250021
0.08178231
0.0810683
0.08034855
0.07961524
0.07886236
0.07808537
0.07728103
0.07644734
0.07558333
0.07468907
0.07376586
0.07281649
0.07184517
0.07085745
0.06986079
0.06886486
0.06788092
0.06692129
0.06600099
0.06514034
0.06436372
0.06369701
0.06316925
0.06281436
0.06267507
0.06280155
0.06323699
0.0640189
0.06518389
0.06675893
0.06875593
0.07116705
0.07395982
0.07707456
0.08042353
0.08388846
0.08732746
0.09060346
0.09363008
0.09642758
0.0991607
0.1020878
0.1054287
0.1092612
0.1135375
0.1180948
0.1226447
0.1268638
0.1305304
0.1335891
0.1360847
0.1380489
0.1394855
0.140457
0.1410637
0.1413622
0.1413665
0.1410529
0.1403359
0.138956
0.1368821
0.1339924
0.1304158
0.1264441
0.1222225
0.1177038
0.1129242
0.1080405
0.103231
0.09862418
0.09427397
0.09017344
0.08628398
0.08257682
0.07905522
0.07574573
0.07267947
0.06987866
0.06735095
0.06508863
0.06307134
0.06127202
0.05966331
0.05822258
0.05693433
0.05578903
0.05477902
0.05389598
0.05312744
0.05245677
0.05186886
0.05135462
0.0509107
0.0505343
0.05021843
0.04996119
0.04976005
0.04959154
0.04943194
0.04925866
0.04905027
0.04878689
0.04845214
0.04803491
0.0475284
0.04693024
0.04624524
0.04548531
0.04466646
0.04380981
0.04294557
0.04209843
0.04128458
0.04050963
0.03978081
0.03910448
0.03847565
0.0378848
0.03732664
0.03679901
0.0363035
0.03585186
0.03545843
0.03513014
0.03487162
0.03468513
0.03457037
0.0345244
0.0345416
0.03461349
0.03472918
0.03487625
0.03504185
0.03521391
0.03538168
0.0355368
0.03567415
0.03579158
0.03588853
0.03596471
0.03601921
0.0360503
0.03605556
0.0360323
0.0359779
0.03589026
0.03576806
0.0356111
0.03542047
0.03519866
0.03494964
0.03467756
0.03438638
0.03408045
0.0337643
0.03344254
0.03311969
0.03280006
0.03248761
0.03218595
0.03189823
0.0316271
0.03137455
0.03114174
0.03092955
0.03074213
0.03058445
0.03045762
0.03036211
0.0302982
0.03026592
0.03026496
0.03029463
0.03035379
0.03044065
0.03055267
0.03068653
0.03083819
0.03100313
0.03117643
0.03135311
0.03152848
0.03169849
0.03185978
0.03200963
0.03214583
0.0322673
0.03237471
0.03247167
0.03256396
0.03265882
0.03276091
0.03287282
0.0329957
0.03313051
0.03327675
0.03343161
0.0335615
0.04720775
0.05382142
0.05979472
0.09302105
0.1261925
0.1674986
0.1947319
0.2218187
0.2471547
0.2709215
0.2919541
0.3102177
0.3279227
0.3457494
0.3635826
0.3809827
0.3978529
0.4144641
0.4307667
0.4466474
0.4620062
0.4765088
0.4895807
0.5013094
0.5119417
0.5216044
0.5300614
0.536934
0.5419216
0.5447958
0.5461313
0.5607358
0.5576472
0.5535307
0.5486642
0.5431839
0.5372402
0.5309701
0.5244673
0.5178338
0.5111588
0.5044452
0.4977396
0.4910584
0.484437
0.4778883
0.4713975
0.4649334
0.4583359
0.4515517
0.4446061
0.4376089
0.4306008
0.4236101
0.4166306
0.4096379
0.4026225
0.3956245
0.3887181
0.381996
0.3755436
0.369368
0.3634122
0.3575979
0.35187
0.346211
0.3406807
0.3353347
0.3300486
0.3251665
0.3206684
0.3164552
0.3124038
0.3084323
0.3045274
0.3007264
0.2970712
0.293562
0.2901466
0.2867616
0.2833599
0.2799534
0.2766181
0.273451
0.2705072
0.2677514
0.2650943
0.2624553
0.259813
0.2572103
0.2547214
0.2524144
0.2503133
0.2483732
0.2465135
0.2446472
0.2426915
0.2405916
0.2383446
0.2360204
0.2337554
0.231696
0.2299375
0.2284654
0.2271781
0.2259276
0.2246351
0.2233064
0.222017
0.2208736
0.2199564
0.2192236
0.218527
0.2177245
0.2167613
0.2156913
0.2146399
0.2137445
0.2131044
0.2127346
0.2125529
0.2124159
0.2121904
0.2118099
0.2113071
0.2107875
0.2103619
0.210111
0.2100276
0.2099828
0.2097724
0.2091956
0.2082038
0.206876
0.2053212
0.2036961
0.2021643
0.2008152
0.1996341
0.1985385
0.1974487
0.1963271
0.1951925
0.1940817
0.1930095
0.1919966
0.1910213
0.1900515
0.1890899
0.1881452
0.187197
0.1861724
0.1849892
0.1835295
0.1818609
0.1801185
0.1784279
0.1768272
0.175307
0.1738565
0.1724872
0.1712266
0.1700927
0.1690878
0.168219
0.1675339
0.1670458
0.166647
0.1661804
0.165576
0.1648095
0.1638292
0.1626224
0.1612047
0.1596125
0.1578923
0.1560791
0.1541846
0.1522135
0.1501867
0.1481479
0.1461612
0.1443043
0.1426609
0.1413187
0.1403798
0.1400063
0.140433
0.1417479
0.1439986
0.1471454
0.1509519
0.1549458
0.1585551
0.1613131
0.1629987
0.1636576
0.1636141
0.16307
0.1620468
0.160541
0.158539
0.1560441
0.1530856
0.14973
0.1460709
0.142223
0.1383045
0.1344142
0.1306258
0.1269924
0.1235553
0.1203444
0.1173804
0.1146778
0.1122425
0.110075
0.1081716
0.1065147
0.1050737
0.1038107
0.102658
0.1015392
0.1004492
0.09943769
0.09853319
0.09772936
0.09701398
0.09637782
0.09581735
0.09533815
0.09495649
0.09470158
0.09461689
0.09474937
0.09514018
0.09582625
0.09682221
0.09810794
0.09962059
0.1012518
0.1028379
0.1042831
0.1054996
0.106408
0.1069455
0.1070726
0.1067741
0.1060643
0.1049831
0.103599
0.1019876
0.100264
0.09851053
0.0968445
0.09528906
0.09385398
0.09254742
0.09137502
0.09033359
0.0894109
0.08858901
0.08784753
0.08716616
0.08652628
0.0859114
0.08530653
0.08469833
0.08407585
0.08343085
0.08275703
0.08204972
0.08130562
0.08052268
0.07970001
0.078838
0.07793838
0.07700412
0.07603961
0.07505141
0.07404842
0.07304132
0.07204274
0.07106958
0.07014585
0.06930044
0.0685664
0.0679827
0.06759499
0.06745547
0.06762195
0.06815283
0.06910243
0.07051854
0.07243619
0.07487059
0.077811
0.08121548
0.08500798
0.08907847
0.09328216
0.09744298
0.1013814
0.1049897
0.1082921
0.1115038
0.1149768
0.1190072
0.1236808
0.128898
0.1344058
0.1397928
0.1446534
0.1487627
0.1521149
0.1548004
0.156889
0.1584287
0.159503
0.1602044
0.1605922
0.1606778
0.1604155
0.1597049
0.1584305
0.1565354
0.1540507
0.1511112
0.1477923
0.1439861
0.1396027
0.1346466
0.1293182
0.1238875
0.1185588
0.1134493
0.1085869
0.1039543
0.09954067
0.09536014
0.09144045
0.087807
0.08447163
0.08142689
0.07864683
0.07609339
0.07372329
0.07149223
0.06936174
0.06730737
0.06532373
0.06343264
0.06167504
0.06008827
0.05869284
0.05749396
0.05648857
0.05566908
0.05502204
0.05452772
0.05416121
0.0539024
0.05372927
0.05360337
0.05348998
0.05335791
0.05317908
0.05292936
0.0525899
0.05214672
0.05159148
0.05092451
0.05015166
0.04928247
0.04833199
0.04732405
0.0462936
0.04526783
0.04427269
0.04333094
0.04245867
0.0416653
0.04095575
0.04033181
0.0397931
0.03933798
0.03896353
0.03867006
0.03846865
0.03836223
0.03834609
0.03841398
0.03855773
0.03876693
0.03902872
0.03932801
0.03964856
0.03997524
0.04029494
0.04059577
0.04086966
0.041114
0.04132919
0.04151631
0.04167548
0.04180531
0.04190314
0.04196566
0.0419895
0.0419718
0.04191058
0.04180503
0.04165571
0.04146467
0.04123547
0.04097277
0.04068013
0.04036224
0.04002409
0.03967079
0.03930754
0.03893955
0.03857198
0.0382099
0.03785818
0.03752143
0.03720383
0.03690903
0.03664006
0.03639932
0.0361883
0.03600858
0.03586667
0.03576501
0.03570418
0.03568426
0.0357047
0.0357642
0.03586061
0.03599074
0.03615024
0.03633377
0.03653515
0.03674763
0.03696433
0.03717875
0.03738526
0.03757944
0.037758
0.03791842
0.03805909
0.03818017
0.03828516
0.03838196
0.03848184
0.03859608
0.03872718
0.03887299
0.03902878
0.03919227
0.03936079
0.03953211
0.03967534
0.02382309
0.02662823
0.02936398
0.03940955
0.05263597
0.07507814
0.09076258
0.1073583
0.1251292
0.1431251
0.1617109
0.1820602
0.2037972
0.2260302
0.2491308
0.2749851
0.314788
0.33348
0.3526081
0.3720543
0.3920754
0.4118583
0.4306962
0.4484593
0.4651693
0.4812079
0.4966197
0.5113989
0.5254648
0.5387022
0.5509521
0.5619971
0.5715263
0.5790512
0.5841027
0.5872755
0.5883601
0.5871407
0.5838737
0.5788787
0.5729328
0.5658811
0.55628
0.5472913
0.5385807
0.530029
0.5216909
0.5136403
0.5059239
0.498575
0.4915989
0.4849968
0.4787456
0.4728114
0.4671466
0.4617124
0.4564595
0.4513407
0.446288
0.4412826
0.4362252
0.4308471
0.4252835
0.4196758
0.4140997
0.4085478
0.4029545
0.3972536
0.3914394
0.3855942
0.3798637
0.3743865
0.3692074
0.3642672
0.3594407
0.3546083
0.3497065
0.344791
0.3399715
0.3354133
0.3312574
0.3275329
0.3241035
0.3207771
0.3174146
0.3139869
0.3105663
0.3072625
0.3041357
0.3011477
0.2981792
0.2951156
0.2919578
0.2888321
0.2859024
0.2832768
0.2809085
0.2786398
0.2763357
0.2739474
0.2715292
0.2692094
0.2671079
0.2652703
0.2636437
0.2621245
0.2606076
0.2589834
0.2571504
0.255074
0.2528419
0.2506499
0.2487213
0.2472076
0.2460971
0.2452236
0.2443722
0.2434101
0.2423504
0.241337
0.2405817
0.2402263
0.2401785
0.2401773
0.2399922
0.239571
0.239057
0.2387528
0.238895
0.239577
0.2407178
0.242056
0.2432611
0.2440704
0.2444508
0.244597
0.2448271
0.2454225
0.2464611
0.2477434
0.2488928
0.2495228
0.2493276
0.2482945
0.2467157
0.2448066
0.2428292
0.241033
0.2395329
0.2382718
0.2371045
0.2359182
0.2346721
0.2333988
0.2321691
0.23101
0.2299271
0.2288759
0.227801
0.2266994
0.2256015
0.2244962
0.2233085
0.2219464
0.2203039
0.2184339
0.2164967
0.2146287
0.2128823
0.2112637
0.2097789
0.2084522
0.2073083
0.2063558
0.2056017
0.2051006
0.2050277
0.205299
0.2056157
0.2055044
0.2046069
0.2031897
0.2013556
0.1991604
0.1966742
0.1939729
0.1911382
0.1882416
0.1853308
0.1824394
0.1796138
0.1769302
0.1744905
0.1724052
0.1707912
0.1697815
0.1695441
0.1703525
0.1726385
0.1765418
0.1821253
0.1892154
0.197146
0.2047986
0.2110475
0.2151945
0.2171175
0.2172107
0.216317
0.2147379
0.212448
0.2093554
0.2054093
0.200664
0.195255
0.1893494
0.1831229
0.1767594
0.1704353
0.1642907
0.1584143
0.1528538
0.147633
0.1427598
0.1382315
0.1340439
0.1301857
0.1266449
0.1234108
0.1204674
0.1177913
0.1153554
0.1131162
0.1110339
0.1091022
0.1073306
0.1057138
0.104233
0.1028691
0.1016037
0.1004171
0.09929298
0.098224
0.09721647
0.096294
0.09549486
0.09486494
0.09444866
0.09428124
0.0943833
0.09475671
0.09538066
0.09621104
0.09719213
0.09825227
0.09930458
0.1002509
0.1009945
0.1014544
0.1015802
0.1013595
0.1008102
0.09996468
0.09889375
0.09768384
0.09641869
0.09516215
0.0939634
0.09285798
0.09186686
0.09099659
0.09024176
0.08958844
0.08901741
0.08850719
0.08803701
0.08758815
0.08714328
0.08668642
0.08620468
0.08568874
0.08513172
0.08452861
0.08387617
0.08317279
0.08241843
0.08161474
0.08076501
0.07987376
0.07894654
0.07799075
0.07701666
0.07603719
0.07506774
0.07412459
0.07323385
0.07243158
0.07175709
0.07125655
0.07098472
0.07100396
0.07138255
0.07219106
0.07349706
0.07535925
0.07781891
0.08089139
0.08455808
0.08876009
0.09339834
0.0983273
0.1033711
0.1083144
0.1129484
0.1171453
0.1209206
0.1245353
0.1284667
0.1331341
0.1386337
0.1448026
0.1512519
0.157387
0.1627662
0.1672121
0.1707576
0.1735512
0.1757348
0.1774094
0.1786784
0.1796367
0.1803246
0.1807051
0.1806688
0.1800624
0.1787697
0.1767898
0.174244
0.1712514
0.1678804
0.1640324
0.1595539
0.1544328
0.1488915
0.143188
0.137511
0.1319709
0.126603
0.1214099
0.1164102
0.1116461
0.1071656
0.1030057
0.09918016
0.09567435
0.09244654
0.08943793
0.08658597
0.08383329
0.08113259
0.07845292
0.07579558
0.07320928
0.07076861
0.06853844
0.06655713
0.06483775
0.06337854
0.06217104
0.06120043
0.06044435
0.05987413
0.05945665
0.05917007
0.05897419
0.05882578
0.05868538
0.05851701
0.05828884
0.05797654
0.05756259
0.05703378
0.0563864
0.05562246
0.05474755
0.05377402
0.05272341
0.05162833
0.05051921
0.04942594
0.04837659
0.04739561
0.04650284
0.04571315
0.04503644
0.04447787
0.0440383
0.04371487
0.04350151
0.04338878
0.04337769
0.04347375
0.04366579
0.04394001
0.04428024
0.04466815
0.04508409
0.04550866
0.04592456
0.04631791
0.04667911
0.04700426
0.04729508
0.04755478
0.047785
0.04798459
0.04815022
0.04827744
0.04836173
0.04839924
0.04838726
0.0483245
0.04821126
0.04804949
0.04784283
0.04759656
0.04731523
0.0470023
0.04666307
0.0463027
0.04592627
0.04553884
0.04514548
0.04475139
0.04436185
0.04398217
0.04361757
0.04327298
0.04295292
0.04266135
0.04240157
0.04217632
0.04198779
0.04183787
0.04173319
0.04167579
0.04166624
0.04170404
0.04178742
0.04191317
0.04207646
0.04227089
0.04248873
0.04272126
0.04295929
0.04319391
0.04341737
0.04362386
0.04380959
0.04397223
0.04411017
0.04422267
0.04431168
0.04438437
0.04445485
0.04454187
0.04465652
0.04479779
0.04496332
0.04514458
0.04533575
0.04552211
0.0457042
0.04585429
0.01050552
0.01217932
0.01348029
0.02004563
0.02759747
0.03754208
0.04566261
0.0548326
0.0647455
0.07526374
0.08677169
0.1003131
0.1151154
0.1316078
0.1513097
0.1816607
0.1977857
0.2147123
0.2319038
0.2493291
0.2669147
0.2845451
0.30204
0.3192442
0.3360533
0.3523655
0.3681656
0.3851389
0.4023785
0.4200773
0.4382351
0.4563031
0.4734199
0.4894117
0.5044896
0.5186848
0.5319774
0.5442434
0.5552723
0.5648664
0.572773
0.5784101
0.5813697
0.5817186
0.5791873
0.574316
0.5672811
0.5583266
0.5478912
0.5364299
0.5243707
0.5121461
0.5000368
0.4884497
0.4775616
0.4674314
0.4581055
0.4496216
0.441989
0.4352029
0.4292166
0.423963
0.4193575
0.4153022
0.411689
0.4084514
0.4055202
0.4027899
0.4001224
0.3971599
0.3940195
0.3906984
0.3872954
0.3839338
0.3806643
0.3774271
0.3740912
0.3705362
0.3667293
0.3627661
0.3588386
0.3551449
0.3517703
0.3486474
0.3456014
0.3424457
0.3390636
0.3354844
0.3319035
0.3285852
0.3257338
0.3233947
0.3213789
0.319391
0.3172197
0.3148194
0.3123005
0.3098468
0.3075787
0.3054587
0.3033287
0.3010254
0.2985406
0.2960644
0.2938498
0.2920233
0.2904778
0.2889797
0.2873482
0.2855363
0.2836422
0.2818616
0.2803593
0.2791725
0.2782043
0.2773213
0.2764085
0.2753407
0.2739976
0.2723412
0.2705059
0.2687677
0.2674312
0.2666862
0.2664634
0.2664557
0.2663398
0.265989
0.2655204
0.2652348
0.2655356
0.2668036
0.2686354
0.2704631
0.2719316
0.2731048
0.2743767
0.276297
0.2793063
0.2835463
0.2886462
0.2937252
0.2979473
0.3007365
0.302133
0.3029682
0.3044148
0.3072572
0.3114558
0.3162042
0.3204293
0.3232141
0.3239645
0.322571
0.3199959
0.3170108
0.3142048
0.3119111
0.3101537
0.3086998
0.3072748
0.3057581
0.3041809
0.3026541
0.3012508
0.2999667
0.2987159
0.297465
0.2962257
0.2950174
0.2938009
0.292454
0.2908213
0.2887621
0.286337
0.2837303
0.2811588
0.278744
0.2765286
0.2745642
0.2729437
0.2717433
0.27096
0.2705435
0.2705222
0.2711463
0.2728242
0.2754303
0.2779857
0.2789885
0.2774761
0.273963
0.2695262
0.264433
0.2589082
0.2531294
0.2472646
0.2414834
0.2359367
0.2307486
0.2260317
0.2219101
0.2185208
0.2160093
0.2145386
0.2143093
0.2155786
0.2187311
0.2244676
0.2330201
0.2444779
0.2583031
0.2727681
0.2854148
0.2943961
0.2990304
0.2997133
0.2976684
0.2946092
0.2908975
0.2863494
0.2805994
0.2734744
0.2651261
0.2558879
0.2460978
0.2360283
0.2259298
0.216048
0.2065792
0.1976376
0.1892701
0.1814821
0.1742541
0.1675543
0.1613486
0.155603
0.1502858
0.1453719
0.1408391
0.1366626
0.1328161
0.1292673
0.1259868
0.1229588
0.1201707
0.1176026
0.1152314
0.1130351
0.1109912
0.1090752
0.1072636
0.1055375
0.1038872
0.1023156
0.1008382
0.09947825
0.09826224
0.09721715
0.09636734
0.09573198
0.0953223
0.09513874
0.09516809
0.09538005
0.09572721
0.09614676
0.09656608
0.09691191
0.09712128
0.09714851
0.09696982
0.09659094
0.09603678
0.09534011
0.09455086
0.09372251
0.09290538
0.09214071
0.09145648
0.09086663
0.09037238
0.08996466
0.08962672
0.08933744
0.08907536
0.08882094
0.088556
0.08826312
0.08792827
0.08754192
0.08709713
0.0865889
0.08601455
0.08537358
0.08466764
0.08390067
0.0830787
0.08220953
0.08130242
0.0803685
0.07942117
0.07847683
0.07755463
0.0766768
0.07587459
0.07518741
0.07466039
0.07434732
0.0743115
0.07462494
0.07536614
0.07661595
0.07845157
0.08093813
0.08411786
0.08800017
0.09254959
0.09768344
0.1032916
0.1092113
0.11522
0.1210421
0.1264402
0.1312606
0.1355179
0.1395112
0.1438255
0.1490162
0.1551817
0.162114
0.1692745
0.1758549
0.1814372
0.1859599
0.1895719
0.1925634
0.1951224
0.1972914
0.199126
0.2006955
0.2019789
0.2028463
0.2030994
0.202536
0.2010508
0.1986836
0.1955456
0.1917893
0.1875488
0.1828536
0.1776674
0.1720158
0.1660581
0.1599899
0.1539778
0.148121
0.142445
0.1369335
0.1315961
0.1264806
0.121646
0.1171393
0.112981
0.1091554
0.1056101
0.1022668
0.09904266
0.09586812
0.0926948
0.08950023
0.08630583
0.08320371
0.08031196
0.0777051
0.07540803
0.07341431
0.07170405
0.0702604
0.06906917
0.06810983
0.06735503
0.06677269
0.06633303
0.0660047
0.06574459
0.06551048
0.0652626
0.06496603
0.06459296
0.06412317
0.06354466
0.06285319
0.0620473
0.06113075
0.06011639
0.05902763
0.05789443
0.05674671
0.05561464
0.05452694
0.0535103
0.05258824
0.05177989
0.05109918
0.05055434
0.05014797
0.04987748
0.049736
0.04971303
0.04979392
0.0499667
0.05023585
0.05058593
0.05099608
0.05144348
0.05190471
0.0523581
0.05278595
0.05317648
0.05352535
0.05383617
0.05411708
0.05437321
0.05460374
0.05480341
0.0549654
0.05508314
0.05515126
0.05516605
0.05512558
0.05502985
0.05488085
0.05468243
0.05444023
0.05416135
0.05384823
0.05350647
0.05314129
0.05275748
0.05235958
0.05195199
0.05153914
0.05112576
0.05071697
0.0503182
0.049935
0.04957279
0.04923661
0.04893095
0.04865977
0.04842652
0.04823436
0.04808615
0.04798591
0.04793899
0.04794657
0.04800799
0.04812056
0.04827936
0.0484773
0.04870525
0.04895245
0.04920701
0.04945686
0.04969103
0.04990095
0.05008157
0.05023117
0.05034986
0.05043788
0.05049571
0.05052722
0.05054407
0.05056809
0.05062596
0.0507288
0.0508768
0.05105752
0.05125486
0.05146071
0.05166429
0.0518649
0.05202462
0.00264593
0.01021385
0.01515913
0.02087018
0.02719694
0.03439868
0.04257234
0.05150529
0.06147336
0.0734582
0.0915427
0.1023369
0.1140155
0.1262708
0.1391549
0.1526007
0.1665321
0.1808227
0.1952913
0.2097951
0.2243161
0.2407066
0.2573006
0.2739228
0.2904629
0.3068568
0.3230233
0.3389316
0.3544678
0.3695946
0.3844394
0.3991536
0.414132
0.4290047
0.443863
0.4586612
0.4729932
0.4866995
0.4998295
0.5123201
0.5240741
0.5349441
0.5446509
0.5527141
0.5587471
0.5617953
0.5618477
0.5588837
0.5530323
0.5444238
0.5334636
0.5206335
0.5064016
0.4912924
0.4758376
0.4605211
0.4457868
0.4320073
0.4194567
0.4083286
0.3986912
0.3905151
0.3837057
0.3781513
0.3737487
0.3703786
0.3679124
0.3662156
0.3651356
0.3644649
0.363824
0.3630891
0.3622793
0.3613637
0.3602562
0.3589782
0.3575599
0.3560922
0.354687
0.3533753
0.3520461
0.3505094
0.3486164
0.3463532
0.3438802
0.3414618
0.3393388
0.3375895
0.336111
0.3346731
0.3330413
0.3311108
0.3289517
0.3268044
0.3249902
0.3237536
0.3230452
0.3225221
0.3218084
0.3207192
0.3192955
0.317738
0.3162987
0.3151129
0.3140686
0.3129393
0.3115462
0.3099405
0.3084413
0.3073786
0.3067801
0.306321
0.3056412
0.3045837
0.3032284
0.3018299