/*--------------------------------*- C++ -*----------------------------------*\
| =========                 |                                                 |
| \\      /  F ield         | foam-extend: Open Source CFD                    |
|  \\    /   O peration     | Version:     3.1                                |
|   \\  /    A nd           | Web:         http://www.extend-project.de       |
|    \\/     M anipulation  |                                                 |
\*---------------------------------------------------------------------------*/
FoamFile
{
    version     2.0;
    format      ascii;
    class       volScalarField;
    location    "20";
    object      nut;
}
// * * * * * * * * * * * * * * * * * * * * * * * * * * * * * * * * * * * * * //

dimensions      [0 2 -1 0 0 0 0];

internalField   nonuniform List<scalar> 
119952
(
5.362852e-05
3.656612e-05
3.800138e-05
4.232594e-05
4.521539e-05
4.307329e-05
4.165439e-05
4.060704e-05
3.978078e-05
3.90475e-05
3.837294e-05
3.772387e-05
3.708048e-05
3.643205e-05
3.57707e-05
3.509349e-05
3.439719e-05
3.367887e-05
3.29221e-05
3.207723e-05
4.024323e-05
3.828383e-05
3.738582e-05
4.800263e-05
4.656626e-05
4.550681e-05
4.487028e-05
4.467802e-05
4.46356e-05
3.20706e-05
3.153835e-05
3.492423e-05
3.967909e-05
4.430653e-05
4.903337e-05
5.391547e-05
5.902241e-05
6.425373e-05
6.955906e-05
7.885245e-05
0.0003624213
0.0004125545
0.0004692558
0.0005297699
0.0005923412
0.0006556198
0.0007188535
0.000781614
0.0008431814
0.001179206
0.001240426
0.00130134
0.001361565
0.001421478
0.001481381
0.001541043
0.001600356
0.001659675
0.001717699
0.001779898
0.001840388
0.001899889
0.001958873
0.002016955
0.002073663
0.002129008
0.002183855
0.002241804
0.002050763
0.00230566
0.002314529
0.002331054
0.002341297
0.002340061
0.002325646
0.002304627
0.002282538
0.002261574
0.002243284
0.002228209
0.002215771
0.002204815
0.002194157
0.002183229
0.002172226
0.002161943
0.002153867
0.002151125
0.002154432
0.002157838
0.002160633
0.002172958
0.002188272
0.002184969
0.002164871
0.002123007
0.002025371
0.001860058
0.001800091
0.001758563
0.001732153
0.001714805
0.001702738
0.001695162
0.001691392
0.001690589
0.001691743
0.001693821
0.00169589
0.001696908
0.001695815
0.001691288
0.00168195
0.001667068
0.001646471
0.001620586
0.001590418
0.001557432
0.001523369
0.00149007
0.001459366
0.001432955
0.001412243
0.001398179
0.001391191
0.001391306
0.001398304
0.001411763
0.001430823
0.001455157
0.001484994
0.001518237
0.001553865
0.001590436
0.001626124
0.00165863
0.001684997
0.001701413
0.001701298
0.001682527
0.001649406
0.001602587
0.001542968
0.001472119
0.001392695
0.001308763
0.001227507
0.001153079
0.001082788
0.001022991
0.0009755534
0.0009369496
0.0008912112
0.00085615
0.0008306911
0.0008148166
0.0008073927
0.0008083863
0.0008158745
0.0008278936
0.0008427151
0.0008556842
0.0008620206
0.0008548317
0.0008225769
0.0007764294
0.0007531633
0.0007235693
0.0007310547
0.0007788518
0.0008434568
0.0009057604
0.0009621328
0.0009946935
0.001015434
0.00104179
0.001076783
0.001119908
0.001166489
0.001210382
0.001246363
0.001271449
0.001286023
0.001293973
0.001299167
0.001303413
0.001306639
0.001307815
0.001306086
0.001302088
0.001296429
0.001289465
0.001281289
0.001271988
0.0012616
0.00125039
0.0012369
0.001075655
0.0008899656
0.0008122973
0.0007705594
0.0007432365
0.000722404
0.0007047269
0.0006871916
0.0006685298
0.0006505253
0.0006327905
0.0006152142
0.0005978137
0.0005806203
0.0005636668
0.0005471
0.0005312946
0.0005160335
0.0005013021
0.0004872073
0.0004738743
0.0004613744
0.0004496809
0.0004387599
0.0004286153
0.0004192596
0.0004106995
0.0004029384
0.0003959765
0.0003898299
0.0003845456
0.0003801974
0.0003768233
0.0003745071
0.0003740654
0.0003803427
0.0003950239
0.0004111154
0.0004271972
0.0004438145
0.0004611184
0.0004793061
0.0004984875
0.0005186401
0.0005395971
0.0005609952
0.000582263
0.0006026578
0.0006213606
0.0006377152
0.000651539
0.0006634112
0.0006747585
0.0006874064
0.0007027332
0.0007211918
0.0007424309
0.0007653901
0.0007882874
0.0008090458
0.000826217
0.0008397158
0.0008502879
0.0008578594
0.0008615487
0.0008620386
0.0008622021
0.0008628544
0.0008611722
0.0008581989
0.001137902
0.00108147
0.0009375187
0.0007174025
0.0005884454
0.0005527109
0.0005697069
0.0006429225
0.0007216791
0.0007802366
0.000806516
0.0008204395
0.0008246362
0.0008230468
0.0008184048
0.0008117214
0.000804061
0.0007961685
0.000788616
0.0007820185
0.0007769738
0.0007739172
0.0007731432
0.0007748666
0.0007792445
0.0007861977
0.0007949664
0.0008049101
0.0008158066
0.0008278627
0.0008414562
0.000857168
0.0008748024
0.0008933825
0.0009119466
0.0009294618
0.0009450167
0.0009578534
0.0009673863
0.0009732305
0.0009751534
0.0009730581
0.0009670192
0.0009573339
0.0009445976
0.00092963
0.0009128022
0.0008958959
0.0008803637
0.0008675028
0.0008582243
0.0008522679
0.0008489693
0.0008480994
0.0008467312
0.0008509731
0.0008544312
0.0008593906
0.0008653446
0.0008719389
0.0008789796
0.000886376
0.000894031
0.0009018314
0.000909707
0.000917582
0.0009253749
0.0009330214
0.0009404535
0.0009475615
0.0009541778
0.0009600945
0.0009650926
0.0009689626
0.0009715223
0.0009726454
0.0009722878
0.0009704912
0.0009673725
0.0009631059
0.0009578892
0.0009519044
0.0009452921
0.0009381464
0.00093053
0.0009224922
0.0009140893
0.0009054004
0.0008965432
0.0008876843
0.000879033
0.000870837
0.0008633564
0.000856825
0.0008513415
0.0008468599
0.0008433691
0.0008409217
0.0008395674
0.0008392552
0.0008399357
0.0008415812
0.0008441671
0.0008476226
0.0008518517
0.000856748
0.0008622131
0.0008681606
0.0008745173
0.0008812273
0.0008882501
0.0008955583
0.0009031309
0.000910947
0.0009189798
0.0009271907
0.0009355198
0.000943882
0.0009521672
0.000960247
0.0009679808
0.0009752194
0.0009818108
0.0009876156
0.0009925138
0.0009964063
0.0009992009
0.00100084
0.001001364
0.001000934
0.000999833
0.0009984885
0.0009974675
0.0009973585
0.0009987555
0.001002292
0.0010089
0.001021195
0.0007995875
4.512634e-05
4.865104e-05
5.49431e-05
6.263648e-05
7.105649e-05
7.970807e-05
8.834378e-05
9.685669e-05
0.0001061652
0.0004181797
0.0005279898
0.0006475131
0.0007680532
0.0008846501
0.0009938895
0.001095521
0.001190336
0.001279539
0.001840079
0.001928737
0.002020897
0.002111534
0.002199996
0.002286529
0.002370804
0.002452814
0.002532299
0.002607765
0.002680949
0.002750846
0.002817188
0.002882989
0.002949893
0.00301819
0.003087388
0.003156685
0.003225082
0.003279564
0.003320426
0.003363094
0.003408695
0.003457196
0.003507163
0.003557006
0.003605419
0.003651755
0.003696082
0.00374045
0.003784893
0.003831941
0.003883284
0.00393911
0.003998692
0.004060471
0.004122377
0.004182179
0.00495588
0.00500907
0.005061159
0.005113452
0.005165238
0.005214972
0.005261367
0.005304123
0.005344393
0.005383538
0.005422973
0.005464149
0.00550684
0.005549661
0.005590894
0.005628882
0.00566323
0.00569532
0.005729282
0.005758257
0.005775782
0.005791017
0.005805514
0.005811567
0.005805479
0.0057873
0.005761004
0.005730681
0.005699544
0.005670412
0.005644825
0.005622681
0.005602665
0.005583299
0.005563738
0.005544135
0.005525239
0.005508195
0.005494343
0.005483698
0.005473149
0.005464175
0.005458236
0.005445717
0.005414622
0.00536841
0.00530193
0.005211634
0.005117172
0.005044045
0.004979601
0.004922944
0.004873994
0.004831684
0.00479612
0.004767245
0.004744172
0.004725578
0.004710053
0.004695959
0.004681296
0.004663636
0.004640188
0.00460816
0.00456547
0.004511267
0.004446064
0.004371533
0.004290128
0.004204721
0.004118403
0.004034479
0.003956459
0.003887789
0.003831441
0.003789638
0.003763798
0.003754515
0.003761633
0.003784376
0.003820964
0.003870818
0.003932794
0.004004974
0.00408463
0.004167852
0.00424928
0.004322711
0.004382291
0.004422912
0.004438527
0.004427507
0.004391188
0.004328108
0.004237252
0.004118482
0.003973755
0.003807639
0.00362869
0.003439203
0.003250131
0.003068504
0.002898186
0.002742689
0.002604275
0.002484294
0.002383207
0.002300375
0.002234501
0.002183713
0.002145507
0.002105375
0.002036427
0.001985633
0.001947755
0.001933177
0.001943575
0.00195194
0.001924105
0.001867972
0.001813496
0.001764549
0.001724552
0.001700939
0.001693788
0.001700534
0.001722091
0.00175968
0.001813284
0.001881953
0.001964035
0.002057266
0.002160106
0.00227093
0.002386605
0.002502193
0.002615973
0.002725503
0.00281558
0.002882156
0.002943528
0.00299998
0.003051466
0.003098216
0.003139945
0.003177697
0.00321128
0.003244833
0.003159654
0.003082807
0.003042655
0.003022076
0.003011143
0.003004266
0.002998366
0.002991694
0.002983258
0.002972614
0.002959581
0.002944141
0.002926382
0.002906453
0.00288454
0.00286087
0.002835753
0.002809599
0.002782867
0.00275601
0.002729454
0.002703727
0.002679533
0.002657569
0.002638468
0.002622777
0.002610972
0.00260347
0.002600633
0.0026028
0.002610306
0.002623474
0.002642822
0.002669121
0.002703351
0.002747031
0.002802617
0.002870954
0.002952145
0.003046934
0.003155708
0.00327823
0.003413458
0.003559327
0.003712566
0.003868626
0.004021691
0.004164975
0.004291782
0.004397413
0.004481329
0.004548987
0.004611461
0.004681121
0.004766004
0.004867597
0.004981838
0.00509941
0.005207078
0.005292464
0.005349474
0.005379736
0.005387304
0.005372032
0.005333016
0.005276716
0.005214206
0.005146513
0.005066863
0.004970978
0.005453856
0.005092627
0.004552051
0.003946019
0.003459032
0.003111593
0.002846539
0.002637069
0.00246977
0.002342561
0.002253437
0.002195933
0.002162425
0.002146296
0.002142354
0.00214628
0.002154658
0.002166046
0.002178686
0.00219045
0.002199142
0.002202729
0.00219955
0.002189727
0.002175208
0.002158851
0.002144037
0.002134238
0.002132295
0.002139772
0.002156903
0.002182886
0.002216193
0.002254666
0.002297535
0.002345318
0.002396816
0.002448761
0.002497956
0.002541439
0.002576516
0.002600828
0.002612462
0.002610099
0.002593097
0.002561537
0.002516374
0.002459725
0.002394541
0.002324412
0.002254318
0.002189743
0.002133146
0.002086563
0.002050914
0.002024617
0.002005802
0.001993472
0.001987033
0.001986851
0.001993588
0.002007813
0.002028897
0.002056218
0.002089168
0.002127137
0.002169493
0.002215572
0.002264645
0.002315886
0.002368365
0.002421068
0.002472927
0.002522846
0.002569764
0.002612766
0.002651165
0.00268454
0.002712715
0.002735684
0.002753512
0.002766258
0.002773938
0.002776523
0.002773968
0.002766242
0.002753375
0.002735492
0.00271286
0.002685917
0.002655295
0.002621823
0.002586362
0.002549918
0.002513464
0.002477905
0.002444016
0.002412414
0.002383561
0.00235775
0.002335053
0.002315262
0.002298401
0.002284905
0.002275295
0.002270143
0.002269411
0.002272952
0.002280602
0.002292182
0.002307499
0.002326343
0.002348481
0.002373658
0.002401595
0.002431961
0.002464363
0.002498346
0.002533398
0.002568963
0.002604449
0.002639246
0.002672777
0.002704506
0.002733962
0.002760714
0.002784379
0.002804719
0.002821712
0.002835792
0.002847729
0.002858743
0.002869928
0.002882426
0.0028968
0.002914018
0.002934473
0.002959834
0.002982955
3.493871e-05
4.332587e-05
5.619835e-05
7.181168e-05
9.088527e-05
0.000114521
0.0001448161
0.0001847047
0.0002402796
0.0003463687
0.001227899
0.001420077
0.001598855
0.001728675
0.001867347
0.002005685
0.002143514
0.002284374
0.002439084
0.004399961
0.004682001
0.00481966
0.004917706
0.004997371
0.005068456
0.005133142
0.005190916
0.005240647
0.005286666
0.005354666
0.005450326
0.005552017
0.005646025
0.005726509
0.005792844
0.005846693
0.00589037
0.005930821
0.005862253
0.00583843
0.005839488
0.005854738
0.005877029
0.005901785
0.005926548
0.005950447
0.00597334
0.00599567
0.006016504
0.006036136
0.00605489
0.006072813
0.006090343
0.006108524
0.006128568
0.006150381
0.006946858
0.006975819
0.007000768
0.007022685
0.007041703
0.007057947
0.007072018
0.007084349
0.007095462
0.00710526
0.007113123
0.007119832
0.007126753
0.007135063
0.007145887
0.007159789
0.007176423
0.007194855
0.007214282
0.007233685
0.007253139
0.00727419
0.007297273
0.00732178
0.007346441
0.00736952
0.00738953
0.007405608
0.007417707
0.007427394
0.007437201
0.007449783
0.007467744
0.007492482
0.007523784
0.007559534
0.007596931
0.007635231
0.00765709
0.007680625
0.007707273
0.00773784
0.007771513
0.007805538
0.007836987
0.007864491
0.007888738
0.007911908
0.007936702
0.007965033
0.007997064
0.008031129
0.00806442
0.008094002
0.008118644
0.008138905
0.008156654
0.008171821
0.008183686
0.008193415
0.008200881
0.008202142
0.00819347
0.008173109
0.008140157
0.008099512
0.008055926
0.008013748
0.007975757
0.007942289
0.007911692
0.00788175
0.007851038
0.007819319
0.007787097
0.007754973
0.007723517
0.007692531
0.007660345
0.007627376
0.007593223
0.007553143
0.007502321
0.007440088
0.007365763
0.007277138
0.007185231
0.007100833
0.007026408
0.006959016
0.006898496
0.006844891
0.006798416
0.006759187
0.006726422
0.006698813
0.006674968
0.00665334
0.006631974
0.006608096
0.006578195
0.006538838
0.006487334
0.006422534
0.006344896
0.006256155
0.006158878
0.00605603
0.005950713
0.005846277
0.005746503
0.005655429
0.005576933
0.005514369
0.005470265
0.005446204
0.005442825
0.005459761
0.005494531
0.005545177
0.005610776
0.005689597
0.005778844
0.005873713
0.005967156
0.006051287
0.006119289
0.006166698
0.006190898
0.006188708
0.006161078
0.006107448
0.006026305
0.005915512
0.005774377
0.005604578
0.005410944
0.005198335
0.004973831
0.004745682
0.00452008
0.004302076
0.004096088
0.003905342
0.00373196
0.003576888
0.00344017
0.003320798
0.0032173
0.003128187
0.003051062
0.002983116
0.002921666
0.00286297
0.002805322
0.002751475
0.002703899
0.002661887
0.002624628
0.002590903
0.002560006
0.002532333
0.002509444
0.002493783
0.002488434
0.002495604
0.00249978
0.002470015
0.002454986
0.002460332
0.002487656
0.002536291
0.002603905
0.002687717
0.002784889
0.002892808
0.00300971
0.003134544
0.003264788
0.003399333
0.003535285
0.00366904
0.003760093
0.003835503
0.003906649
0.003973886
0.004031655
0.004096486
0.00415511
0.004211417
0.004264769
0.004314569
0.004360251
0.004401253
0.004437139
0.004467561
0.004492296
0.004511233
0.004524373
0.004531842
0.004533897
0.004530932
0.004523462
0.004512124
0.004497654
0.00448088
0.004462698
0.004444067
0.004425992
0.004409478
0.004395519
0.004385089
0.00437913
0.00437855
0.004384247
0.004397206
0.00441857
0.00444956
0.004491501
0.004545935
0.004614705
0.004700101
0.004804683
0.004930558
0.005079425
0.005252603
0.005450413
0.005671798
0.005914021
0.006172458
0.006440628
0.006710488
0.006972594
0.007216967
0.007435052
0.007622292
0.007780876
0.007921391
0.008059523
0.008208114
0.008371198
0.00854615
0.008724737
0.008892669
0.0090347
0.009141505
0.009212539
0.009252575
0.009264928
0.009249832
0.009210251
0.009152274
0.009078519
0.008986107
0.008867971
0.008710552
0.008448631
0.008076519
0.007565584
0.006974492
0.006396355
0.005863991
0.005367479
0.004904144
0.004488755
0.004139248
0.003864465
0.003662497
0.003524063
0.003436742
0.003388355
0.003368522
0.003368736
0.003381908
0.003401878
0.003422986
0.003439874
0.003447613
0.003442157
0.003420809
0.003382812
0.003330165
0.003268228
0.003205075
0.003149163
0.003107113
0.003082772
0.003077385
0.003090241
0.003119327
0.003161667
0.003213328
0.003272366
0.003338342
0.003407438
0.003475744
0.003539427
0.003594802
0.003638454
0.003667425
0.003679332
0.003672418
0.003645756
0.003599513
0.0035349
0.003454164
0.003360596
0.00326092
0.003162286
0.003070557
0.00298854
0.002919092
0.002863947
0.002823243
0.002796359
0.002782298
0.002779497
0.002786625
0.002804881
0.00283535
0.002877464
0.002930466
0.002993463
0.003065419
0.003145128
0.003231177
0.00332192
0.003415525
0.00351006
0.003603575
0.003694211
0.003780347
0.00386075
0.003934632
0.004001597
0.004061467
0.004114126
0.004159413
0.004197103
0.004226915
0.00424856
0.004261785
0.004266428
0.004262464
0.004250034
0.004229475
0.004201296
0.004166156
0.004125126
0.004079595
0.004031002
0.003980781
0.003930306
0.003880845
0.003833529
0.003789327
0.003749032
0.00371326
0.00368244
0.00365676
0.003636029
0.003619875
0.003609142
0.003604857
0.00360712
0.003615867
0.003630966
0.003652216
0.003679338
0.003711983
0.003749722
0.003792023
0.003838233
0.003887582
0.00393921
0.003992185
0.004045531
0.004098277
0.004149514
0.004198442
0.004244364
0.004286665
0.004324804
0.004358428
0.004387562
0.004412861
0.004435588
0.004457414
0.004479666
0.004503197
0.004528528
0.004556205
0.004585982
0.004617589
0.004646587
4.221632e-05
6.93176e-05
0.0001535235
0.0005272149
0.0009149559
0.00166776
0.002242733
0.002942566
0.003739261
0.004397817
0.004882638
0.005273716
0.005652358
0.006013718
0.006378248
0.00671333
0.00701648
0.007303607
0.007574357
0.007832927
0.008087247
0.008325546
0.008489659
0.008587436
0.008655448
0.008700047
0.008730661
0.008624288
0.008334036
0.008145934
0.008293939
0.007537714
0.007496271
0.00745791
0.007444253
0.007463914
0.007513919
0.007590326
0.007694515
0.007819206
0.007959311
0.008123896
0.008303379
0.008503216
0.008711854
0.008927205
0.009156462
0.009403337
0.009527609
0.009558368
0.00958156
0.009597981
0.009608351
0.009613358
0.009613344
0.009608602
0.009599785
0.009588214
0.009575469
0.009563011
0.009551823
0.009541672
0.009531614
0.009520772
0.009509073
0.009497176
0.009487038
0.009481642
0.009460928
0.009447666
0.009439946
0.009435098
0.00943075
0.009425631
0.009419696
0.009413485
0.009407361
0.009400917
0.009393275
0.009384163
0.009374287
0.009365399
0.009359613
0.009358507
0.009362327
0.009369387
0.009377687
0.009386201
0.009395432
0.009406866
0.009421711
0.009440103
0.009460805
0.0094812
0.009498648
0.00951134
0.009518598
0.009521393
0.009522484
0.009525989
0.009536251
0.009556088
0.009585545
0.009621471
0.009659463
0.009695953
0.009729772
0.009763072
0.009798923
0.009839809
0.009885551
0.009931766
0.009972937
0.01
0.01
0.01
0.01
0.01
0.01
0.01
0.01
0.01
0.01
0.01
0.01
0.01
0.01
0.01
0.01
0.01
0.01
0.01
0.009970777
0.009902245
0.009825917
0.009746197
0.009667395
0.009591888
0.009519591
0.009448887
0.009378127
0.009306393
0.009233791
0.009161321
0.009090933
0.009020576
0.008949514
0.008877343
0.008803819
0.008728396
0.008650909
0.008572371
0.008491737
0.008410131
0.008327604
0.008247195
0.008172037
0.008102816
0.008039093
0.007980455
0.007926808
0.007878082
0.007833696
0.007792644
0.007753971
0.007716898
0.007680895
0.00764576
0.007610615
0.007573109
0.007531013
0.007482686
0.007427068
0.007363745
0.007293218
0.007216911
0.007136715
0.0070547
0.006973365
0.006895835
0.006825635
0.006766267
0.006720793
0.006691525
0.006679892
0.006686397
0.006709713
0.006748395
0.006802978
0.00687309
0.006956266
0.007046679
0.007135744
0.007214377
0.007275658
0.007316416
0.007336917
0.007338987
0.007323799
0.007290912
0.007238328
0.007163071
0.007062538
0.00693544
0.006782612
0.006606626
0.006411654
0.006203057
0.005986283
0.005766334
0.005547911
0.005334987
0.005130797
0.004937858
0.00475766
0.004590808
0.00443731
0.004296804
0.004168327
0.004050822
0.003942927
0.003843125
0.003750466
0.003665964
0.003590338
0.003523031
0.003461354
0.003403401
0.00334785
0.0032943
0.003243377
0.003196558
0.00315508
0.003122575
0.003101352
0.003093838
0.003099953
0.003120159
0.003154332
0.003201679
0.003260406
0.003271501
0.003284804
0.003321835
0.003380914
0.003461269
0.003561594
0.003681427
0.003816096
0.003963901
0.004112696
0.00422933
0.004321067
0.004411598
0.004501972
0.004591765
0.004680426
0.004767495
0.004852484
0.00493476
0.005013513
0.005087818
0.005156833
0.005219749
0.005275884
0.005324699
0.005365795
0.005398939
0.005424093
0.00544143
0.005451327
0.00545434
0.005451203
0.00544282
0.005430247
0.005414678
0.005397422
0.005379846
0.005363356
0.005349385
0.005339374
0.005334697
0.005336714
0.005346931
0.005367112
0.00539906
0.00544473
0.005506343
0.005586453
0.005687936
0.005813864
0.005967125
0.006150011
0.006363852
0.006608544
0.006881986
0.007179799
0.007495279
0.007819684
0.008142927
0.008453918
0.008741367
0.008995488
0.009212444
0.00939567
0.009557999
0.009718358
0.009891776
0.01000001
0.01000002
0.01000003
0.01000004
0.01000016
0.01000065
0.01000277
0.01001445
0.0100183
0.0100183
0.0100183
0.0100183
0.01000924
0.01000174
0.01000011
0.01
0.01
0.01
0.009710648
0.009237654
0.008717306
0.008168991
0.007602452
0.007032555
0.00649039
0.006007546
0.005603406
0.005284208
0.005045379
0.004876356
0.004764841
0.004699052
0.004668441
0.004663657
0.004676177
0.004697821
0.004720424
0.004735964
0.004737123
0.004717838
0.004673886
0.004603749
0.004510479
0.004403378
0.004295136
0.004197777
0.004120147
0.004067145
0.004040208
0.004038247
0.004058464
0.004096962
0.004149138
0.004211903
0.004283595
0.004359771
0.004436013
0.004507973
0.004571467
0.004622686
0.004658329
0.004675522
0.004672097
0.004646982
0.004599929
0.004531611
0.004443954
0.004340647
0.004228975
0.004115536
0.004006279
0.003906584
0.00382044
0.003750426
0.003698041
0.003663862
0.003647676
0.003648618
0.003665024
0.003695783
0.003742596
0.003805631
0.003883698
0.003975357
0.004078889
0.004192257
0.004313077
0.004438677
0.004566274
0.004693252
0.004817241
0.004936084
0.005048224
0.005152889
0.005249768
0.005338704
0.005419482
0.005491753
0.00555505
0.005608853
0.005652664
0.005686068
0.00570879
0.005720735
0.005722016
0.00571297
0.005694155
0.005666258
0.00563008
0.005586987
0.005538453
0.00548601
0.005431189
0.005375487
0.005320333
0.005267056
0.005216866
0.005170831
0.005129844
0.005094593
0.005065545
0.00504293
0.005026672
0.005016659
0.00501419
0.005019678
0.005033131
0.005054446
0.005083393
0.005119604
0.005162565
0.005211584
0.005265781
0.005324106
0.005385374
0.005448309
0.005511607
0.00557401
0.005634397
0.005691835
0.00574556
0.005794908
0.005839306
0.005878403
0.005912367
0.005942197
0.00596975
0.005997337
0.006026101
0.006056547
0.006088687
0.00612242
0.006157912
0.006194403
0.006227557
2.360806e-05
3.837601e-05
5.825906e-05
0.0002552907
0.0004199622
0.0007199805
0.001015837
0.001287995
0.001629931
0.001963186
0.002323573
0.002789682
0.003340473
0.003962199
0.004656711
0.005534313
0.007192839
0.007849004
0.008475918
0.00902951
0.00950247
0.009892778
0.01
0.01
0.01
0.01
0.01
0.01
0.01
0.01
0.01
0.01
0.01
0.009785785
0.009265183
0.008755289
0.008285514
0.007861389
0.007511704
0.007228193
0.006937889
0.006727028
0.006708369
0.006596801
0.00653717
0.006528072
0.00655292
0.006609004
0.006697516
0.00681679
0.006965986
0.007141084
0.007342464
0.00756842
0.007820027
0.00809474
0.008398827
0.008727404
0.009090309
0.009479751
0.009920332
0.01
0.01
0.01
0.01
0.01
0.01
0.01
0.01
0.01
0.01
0.01
0.01
0.01
0.01
0.01
0.01
0.01
0.01
0.01
0.01
0.01
0.01
0.01
0.01
0.01
0.01
0.01
0.01
0.01
0.01
0.01
0.01
0.01
0.01
0.01
0.01
0.01
0.01
0.01
0.01
0.01
0.01
0.01
0.01
0.01
0.01
0.01
0.01
0.01
0.01
0.01
0.01
0.01
0.01
0.01
0.01
0.01
0.01
0.01
0.01
0.01
0.01
0.01
0.01
0.01
0.01
0.01
0.01
0.01
0.01
0.01
0.01
0.01
0.01
0.01
0.01
0.01
0.01
0.01
0.01
0.01
0.01
0.01
0.01
0.009925842
0.00979774
0.009666122
0.009537181
0.009415718
0.009302903
0.009196989
0.009095106
0.008995466
0.008900155
0.008815987
0.008734686
0.008655862
0.008578507
0.008500341
0.008421242
0.008345512
0.008280553
0.008224872
0.008182974
0.00814221
0.008099515
0.008056525
0.008014764
0.007974526
0.007934985
0.007895152
0.007854521
0.007812964
0.007770324
0.007726232
0.007680495
0.007635471
0.007594716
0.007561241
0.007536543
0.007519593
0.007508096
0.007498951
0.007488722
0.007475117
0.007457912
0.007438106
0.007416552
0.007393632
0.007369871
0.007346498
0.007325488
0.007309097
0.007299493
0.007298622
0.007308352
0.00733076
0.007369728
0.007429615
0.007512948
0.007616634
0.007730557
0.007841337
0.007936383
0.008007471
0.008052345
0.008074686
0.008084908
0.008085649
0.008074509
0.008048112
0.008003206
0.007937508
0.007849754
0.007739774
0.007608606
0.007458536
0.007292902
0.007115457
0.006929795
0.006739218
0.006546769
0.006355118
0.00616655
0.005982993
0.005805675
0.005635469
0.005472934
0.005318269
0.005171693
0.005033623
0.004903777
0.004782424
0.004670575
0.004568687
0.004475844
0.004390175
0.004309762
0.004232979
0.004158742
0.004086718
0.004017342
0.00395165
0.003891432
0.003838693
0.003795356
0.003762895
0.003742417
0.003734683
0.003740161
0.003758941
0.003790714
0.003834819
0.00389034
0.003956029
0.004030299
0.004111346
0.004197333
0.004286522
0.004376821
0.004467109
0.004559013
0.004653988
0.004752082
0.004853378
0.004957572
0.005064157
0.005172525
0.005281833
0.005391001
0.005498744
0.005603658
0.005704302
0.005799295
0.005887402
0.005967563
0.006038879
0.006100641
0.006152406
0.006193993
0.006225479
0.00624717
0.006259617
0.006263614
0.006260198
0.00625064
0.006236416
0.006219161
0.006200631
0.006182689
0.006167279
0.006156364
0.006151932
0.006156025
0.006171057
0.006199633
0.006244434
0.006308414
0.00639486
0.006507311
0.00664936
0.006824258
0.007034392
0.007280656
0.007561868
0.007874242
0.008211223
0.008563721
0.008920896
0.009270513
0.00960157
0.009903449
0.01000085
0.01000072
0.01000022
0.01000017
0.01000023
0.01000024
0.01000038
0.01000126
0.0100018
0.01000115
0.01000108
0.01000626
0.0100207
0.01002078
0.01001227
0.01000266
0.01000023
0.01000001
0.01000001
0.01000001
0.01000001
0.01000001
0.01000001
0.01000001
0.01
0.01
0.01
0.009749193
0.009201653
0.008633926
0.008076514
0.007561376
0.007112236
0.006741652
0.006451402
0.006235711
0.006085057
0.005988833
0.005936628
0.005918547
0.005925071
0.005946674
0.005973512
0.005995492
0.006002941
0.00598752
0.005942969
0.005865562
0.005756036
0.005623096
0.005481286
0.005345722
0.005228593
0.00513758
0.005075999
0.005043827
0.005038826
0.005057346
0.005094912
0.005146545
0.005209898
0.005281247
0.005356099
0.005429972
0.005498419
0.005557229
0.005602809
0.005632089
0.005642439
0.005632226
0.005600422
0.005546695
0.005471926
0.005378561
0.005271581
0.005157153
0.005041604
0.00493102
0.004830747
0.004745126
0.004677415
0.004629799
0.004603443
0.004598596
0.004614695
0.004650464
0.004703767
0.004774512
0.00486361
0.004969316
0.005089385
0.005221134
0.005361482
0.005507071
0.005654504
0.005800624
0.005942732
0.006078703
0.006207239
0.006327948
0.006440816
0.006545766
0.006642459
0.006730313
0.006808624
0.006876684
0.006933877
0.006979743
0.007014019
0.007036662
0.007047868
0.007048075
0.007037978
0.007018119
0.006989201
0.00695249
0.006909329
0.006861121
0.006809298
0.006755298
0.006700549
0.006646445
0.006594325
0.006545445
0.006500942
0.006461801
0.006428825
0.006402612
0.006383533
0.006371733
0.006367204
0.006371075
0.006383643
0.006404928
0.006434766
0.006472787
0.006518392
0.006570737
0.006628724
0.006691043
0.00675622
0.006822695
0.006888917
0.006953471
0.00701519
0.007073201
0.007126857
0.007175615
0.007218998
0.007256778
0.007289366
0.007318203
0.007345826
0.00737409
0.007404077
0.007437208
0.007473605
0.007512706
0.007552051
0.007590911
0.007625464
2.172155e-05
3.348274e-05
6.712023e-05
0.0002040547
0.000328443
0.0005236126
0.0006714996
0.0008391535
0.001037055
0.001229608
0.001455107
0.001746605
0.00207854
0.002472825
0.002984345
0.003971001
0.004434718
0.004931051
0.005451512
0.005994103
0.006563386
0.007148932
0.007732979
0.008299297
0.008833382
0.009325735
0.00978895
0.01
0.01
0.01
0.01
0.01
0.01
0.01
0.01
0.01
0.01
0.01
0.01
0.01
0.01
0.009752116
0.009234517
0.008715278
0.008207206
0.007732421
0.00730999
0.006948182
0.006640317
0.006385285
0.006185253
0.006032959
0.00592824
0.00584992
0.005821879
0.005850554
0.005928554
0.006048413
0.006210051
0.006409759
0.006649494
0.006929255
0.007250033
0.007617327
0.008030724
0.008484985
0.008962755
0.009466377
0.01
0.01
0.01
0.01
0.01
0.01
0.01
0.01
0.01
0.01
0.01
0.01
0.01
0.01
0.01
0.01
0.01
0.01
0.01
0.01
0.01
0.01
0.01
0.01
0.01
0.01
0.01
0.01
0.01
0.01
0.01
0.01
0.01
0.01
0.01
0.01
0.01
0.01
0.01
0.01
0.01
0.01
0.01
0.01
0.01
0.01
0.01
0.01
0.01
0.01
0.01
0.01
0.01
0.01
0.01
0.01
0.01
0.01
0.01
0.01
0.01
0.01
0.01
0.01
0.01
0.01
0.01
0.01
0.01
0.01
0.01
0.01
0.01
0.01
0.01
0.01
0.01
0.01
0.01
0.009858282
0.009636118
0.009437032
0.009268821
0.009129486
0.009011529
0.008910048
0.008819101
0.008730643
0.008639526
0.008546139
0.008455638
0.008372884
0.008299069
0.008232456
0.008170336
0.008110617
0.008053345
0.007999519
0.007952123
0.007911355
0.007875414
0.007842113
0.00781202
0.007786899
0.007767142
0.007752555
0.00773976
0.007726608
0.007710718
0.007692394
0.007673763
0.007656215
0.007639508
0.007622565
0.007604662
0.007586059
0.007568192
0.007554457
0.007551339
0.007558838
0.007568554
0.007566828
0.007546935
0.007520408
0.007498698
0.007482632
0.007472088
0.007466566
0.007466303
0.007472131
0.007484054
0.007500604
0.007519599
0.007539319
0.007559121
0.00757943
0.007601519
0.007627505
0.007661001
0.007710005
0.007790317
0.0079089
0.008070273
0.00826934
0.008482734
0.008676017
0.008824904
0.008921508
0.008971393
0.008990122
0.009002643
0.009010254
0.009006399
0.008984102
0.008939063
0.008870526
0.008779405
0.008667911
0.008538715
0.008394758
0.008239632
0.008076874
0.007909262
0.00773885
0.007567188
0.007395444
0.007224539
0.007055187
0.006888008
0.006723466
0.006562037
0.006404297
0.006250802
0.006102411
0.005959973
0.00582453
0.005697296
0.0055789
0.005468909
0.005366132
0.005269129
0.005176502
0.005087129
0.005000386
0.004916217
0.004835091
0.004757958
0.004686026
0.004620505
0.004562459
0.004512791
0.004472296
0.004441765
0.00442198
0.004413617
0.00441718
0.004432912
0.00446072
0.004500124
0.004550285
0.004610123
0.004678432
0.004753927
0.004835259
0.004920542
0.005009327
0.005104167
0.005205762
0.005313752
0.005427679
0.005546898
0.005670421
0.005796927
0.005924811
0.006052263
0.006177363
0.006298204
0.006413032
0.006520303
0.006618648
0.006706898
0.006784191
0.006849987
0.006904009
0.006946236
0.006976931
0.00699665
0.007006252
0.007006902
0.007000052
0.006987408
0.006970905
0.006952679
0.006935046
0.006920483
0.006911558
0.006910962
0.006921804
0.006947416
0.006991247
0.007057019
0.007148718
0.007270442
0.007426104
0.00761894
0.007850885
0.008121824
0.008428893
0.008766192
0.009124695
0.009493159
0.009860877
0.01000092
0.01000095
0.01000044
0.01000014
0.01000014
0.01000014
0.01000081
0.01000469
0.01000618
0.01000506
0.01000883
0.01001188
0.01001115
0.01000407
0.01000064
0.01000013
0.01000004
0.01000001
0.01000001
0.01000002
0.01000006
0.01000018
0.01000039
0.01000041