/*--------------------------------*- C++ -*----------------------------------*\
| =========                 |                                                 |
| \\      /  F ield         | foam-extend: Open Source CFD                    |
|  \\    /   O peration     | Version:     3.1                                |
|   \\  /    A nd           | Web:         http://www.extend-project.de       |
|    \\/     M anipulation  |                                                 |
\*---------------------------------------------------------------------------*/
FoamFile
{
    version     2.0;
    format      ascii;
    class       volScalarField;
    location    "20";
    object      p;
}
// * * * * * * * * * * * * * * * * * * * * * * * * * * * * * * * * * * * * * //

dimensions      [1 -1 -2 0 0 0 0];

internalField   nonuniform List<scalar> 
119952
(
4546.184
2855.591
2617.85
2853.602
3102.637
2895.239
2833.999
2786.607
2765.063
2745.661
2733.032
2724.901
2720.088
2718.283
2718.223
2718.836
2718.65
2713.988
2695.016
2601.26
2984.99
2797.373
2712.64
3222.556
3211.449
3266.166
3333.646
3477.756
3890.556
6605.334
2335.787
2292.624
2296.867
2293.886
2292.391
2288.184
2289.069
2290.664
2296.196
2268.024
2243.616
2261.044
2252.331
2247.689
2243.357
2241.114
2241.439
2242.56
2244.707
2238.972
2237.625
2218.034
2214.145
2217.971
2221.117
2225.627
2230.724
2234.175
2244.4
2243.905
2243.883
2256.622
2271.316
2287.262
2306.09
2327.834
2360.291
2455.931
2641.094
2503.537
2447.874
2545.55
2594.386
2574.683
2529.095
2499.505
2480.456
2466.179
2456.041
2450.051
2447.358
2447.031
2448.371
2450.504
2452.509
2453.628
2455.379
2465.846
2509.217
2554.083
2574.334
2706.058
2898.031
2957.783
2991.873
3029.482
2976.525
2714.798
2677.414
2779.07
2833.856
2882.199
2929.409
2969.212
3003.345
3032.709
3057.043
3076.977
3092.408
3103.964
3112.404
3119.212
3125.878
3134.269
3146.347
3163.709
3187.327
3217.527
3254.086
3296.324
3343.216
3393.492
3445.739
3498.497
3550.321
3599.753
3645.421
3686.287
3720.978
3748.159
3766.855
3776.974
3778.071
3770.871
3756.256
3736.003
3712.682
3689.32
3669.67
3656.847
3653.197
3659.971
3678.027
3706.934
3745.418
3791.935
3848.885
3929.085
4008.623
4072.254
4144.216
4218.227
4290.97
4362.951
4434.416
4505.799
4578.059
4651.673
4726.51
4801.972
4877.08
4950.6
5021.282
5087.089
5144.449
5185.192
5209.532
5242.834
5294.03
5351.034
5404.666
5452.393
5493.881
5530.445
5563.125
5592.984
5621.175
5649.117
5677.886
5707.609
5737.811
5767.739
5796.88
5824.769
5851.839
5878.284
5904.295
5929.847
5955.023
5979.698
6003.855
6027.515
6050.708
6073.371
6095.435
6116.792
6138.406
6191.015
6208.317
6227.438
6245.502
6262.558
6278.577
6293.528
6307.428
6320.071
6331.499
6341.763
6350.849
6358.766
6365.528
6371.165
6375.729
6379.205
6381.706
6383.289
6384.022
6383.985
6383.265
6381.935
6380.076
6377.765
6375.066
6372.041
6368.72
6365.123
6361.224
6356.955
6352.18
6346.591
6339.511
6329.058
6314.501
6324.282
6331.408
6333.352
6334.936
6334.914
6333.565
6330.825
6326.452
6320.223
6311.86
6301.1
6287.736
6271.72
6253.286
6233.032
6211.933
6191.222
6172.11
6155.459
6141.613
6130.428
6121.38
6113.716
6106.768
6100.324
6094.65
6090.201
6087.19
6085.629
6085.68
6087.981
6092.9
6099.825
6109.354
6131.302
6131.344
6137.419
6162.708
6137.46
6071.969
6078.853
6111.819
6140.558
6161.012
6176.318
6189.487
6201.683
6213.163
6223.891
6233.545
6242.166
6249.699
6256.22
6261.804
6266.668
6270.931
6274.757
6278.276
6281.694
6284.71
6287.688
6290.319
6292.606
6294.793
6297.179
6299.741
6302.738
6306.284
6310.348
6314.936
6319.983
6325.342
6330.924
6336.605
6342.281
6347.865
6353.295
6358.536
6363.502
6367.36
6368.896
6369.34
6369.474
6369.479
6369.046
6368.271
6366.747
6360.961
6353.367
6355.173
6356.69
6354.383
6352.596
6350.722
6348.757
6346.812
6344.767
6342.543
6340.1
6337.408
6334.413
6331.075
6327.366
6323.274
6318.792
6313.926
6308.688
6303.101
6297.195
6291.005
6284.575
6277.955
6271.196
6264.339
6257.423
6250.475
6243.523
6236.587
6229.685
6222.834
6216.065
6209.389
6202.822
6196.374
6190.056
6183.875
6177.838
6171.966
6166.259
6160.72
6155.347
6150.132
6145.083
6140.199
6135.457
6130.847
6126.366
6121.99
6117.706
6113.498
6109.34
6105.209
6101.076
6096.912
6092.684
6088.361
6083.912
6079.305
6074.509
6069.497
6064.244
6058.726
6052.924
6046.825
6040.419
6033.7
6026.666
6019.318
6011.653
6003.663
5995.326
5986.605
5977.435
5967.756
5957.449
5946.346
5934.104
5920.224
5903.912
5884.287
5865.224
5871.82
5944.854
3663.162
3536.303
3409.578
3285.356
3173.68
3071.923
2979.201
2896.67
2823.941
2710.348
2655.976
2601.611
2548.42
2503.817
2461.548
2424.805
2390.367
2356.846
2296.729
2293.588
2257.836
2227.588
2206.829
2188.331
2171.363
2156.004
2141.184
2128.286
2121.204
2096.01
2084.325
2076.006
2066.875
2058.728
2052.589
2047.389
2044.738
2049.935
2029.245
2015.346
2012.038
2008.804
2004.387
2000.679
1997.744
1995.103
1992.62
1983.048
1982.244
1980.441
1976.003
1971.39
1968.199
1966.891
1967.917
1977.136
1897.593
1899.252
1904.896
1909.526
1912.299
1914.812
1917.972
1921.698
1925.401
1928.07
1933.266
1941.742
1951.514
1963.639
1980.272
2002.846
2032.673
2071.755
2117.135
2155.982
2168.928
2163.346
2172.737
2186.369
2189.655
2180.646
2165.324
2151.326
2141.963
2136.753
2134.74
2135.245
2137.637
2141.416
2146.33
2152.822
2161.903
2175.961
2198.281
2232.372
2279.131
2338.258
2411.696
2492.346
2555.051
2587.035
2588.832
2562.615
2512.487
2489.395
2518.46
2564.483
2611.171
2653.635
2690.325
2721.538
2747.783
2769.084
2785.226
2796.505
2803.421
2806.828
2808.218
2809.705
2814.102
2824.101
2841.523
2867.174
2901.099
2942.771
2991.142
3044.753
3101.872
3160.625
3219.141
3275.605
3328.3
3375.593
3416.097
3448.588
3472.073
3485.855
3489.589
3483.441
3468.109
3444.728
3415.508
3383.991
3354.409
3330.797
3316.445
3313.452
3322.457
3343.715
3376.734
3420.61
3474.812
3538.229
3608.678
3684.177
3759.516
3834.734
3910.538
3986.171
4061.333
4135.96
4210.368
4284.905
4359.833
4435.009
4509.651
4583.364
4654.78
4721.628
4783.841
4838.913
4884.347
4922.197
4963.556
5013.24
5066.088
5116.642
5162.677
5203.492
5239.875
5272.923
5303.381
5332.474
5361.46
5390.71
5419.865
5448.343
5475.947
5502.786
5529.004
5554.827
5580.337
5605.605
5630.513
5655.08
5679.121
5702.693
5725.815
5748.595
5770.916
5792.718
5813.782
5833.838
5915.44
5930.932
5949.247
5967.318
5984.096
5999.938
6014.737
6028.437
6040.976
6052.353
6062.578
6071.649
6079.569
6086.355
6092.03
6096.627
6100.199
6102.8
6104.49
6105.341
6105.421
6104.803
6103.571
6101.801
6099.564
6096.925
6093.937
6090.636
6087.034
6083.113
6078.821
6074.065
6068.7
6062.628
6056.307
6051.634
6051.632
6054.495
6055.419
6055.302
6054.157
6051.634
6047.636
6041.935
6034.287
6024.464
6012.263
5997.568
5980.469
5961.364
5940.981
5920.328
5900.558
5882.591
5867.043
5853.952
5843.14
5834.078
5826.064
5818.685
5812.084
5806.718
5803.084
5801.112
5800.733
5802.019
5805.493
5812.712
5822.118
5833.097
5787.464
5806.433
5808.563
5810.41
5818.061
5800.42
5793.506
5820.455
5846.628
5863.487
5879.587
5893.627
5905.85
5916.818
5926.2
5934.369
5941.257
5947.345
5952.724
5957.427
5961.624
5965.429
5968.986
5972.337
5975.619
5979.112
5982.667
5985.738
5988.506
5991.083
5993.615
5996.327
5999.267
6002.774
6006.511
6010.82
6015.439
6020.394
6025.551
6030.794
6036.028
6041.153
6046.048
6050.548
6054.449
6057.576
6059.695
6060.917
6061.588
6061.842
6061.75
6061.236
6060.149
6058.022
6054.432
6051.087
6049.702
6048.906
6047.752
6045.693
6043.109
6041.404
6039.179
6036.594
6033.83
6030.814
6027.493
6023.833
6019.812
6015.418
6010.647
6005.502
6000.004
5994.187
5988.096
5981.76
5975.232
5968.56
5961.78
5954.934
5948.047
5941.139
5934.226
5927.33
5920.473
5913.676
5906.965
5900.357
5893.873
5887.532
5881.343
5875.289
5869.44
5863.735
5858.199
5852.828
5847.617
5842.564
5837.661
5832.904
5828.28
5823.808
5819.397
5815.087
5810.846
5806.656
5802.501
5798.369
5794.226
5790.033
5785.759
5781.372
5776.843
5772.139
5767.228
5762.082
5756.678
5750.997
5745.023
5738.75
5732.174
5725.293
5718.12
5710.664
5702.924
5694.903
5686.589
5677.97
5669.015
5659.683
5649.9
5639.655
5628.663
5617.379
5606.465
5597.104
5591.71
5590.277
5591.998
2933.157
3037.455
3167.283
3314.778
3479.683
3660.926
3857.145
4066.412
4286.396
4509.539
4724.429
4956.069
5182.42
5399.048
5602.11
5787.579
5947.822
6077.442
6169.665
6201.173
6221.796
6204.6
6150.82
6063.332
5945.63
5801.905
5636.356
5453.97
5263.133
5055.817
4849.916
4640.941
4434.93
4234.222
4040.787
3856.207
3682.175
3520.245
3357.895
3213.766
3080.111
2958.796
2847.844
2746.547
2654.125
2569.985
2494.656
2424.599
2359.268
2304.89
2255.809
2211.374
2171.322
2134.805
2102.157
2080.366
1966.552
1940.06
1922.454
1906.125
1888.72
1871.06
1854.159
1838.379
1824.044
1810.458
1797.506
1787.221
1777.011
1766.002
1755.68
1747.284
1741.273
1737.278
1733.515
1728.406
1722.992
1716.587
1709.169
1701.916
1695.915
1691.482
1688.123
1685.219
1682.112
1679.247
1675.605
1670.372
1664.983
1660.956
1658.133
1657.059
1657.364
1657.874
1657.995
1659.433
1661.459
1661.785
1662.384
1664.988
1668.306
1671.508
1674.201
1677.08
1681.016
1686.075
1693.553
1705.338
1723.01
1746.744
1773.61
1802.692
1831.797
1860.472
1877.896
1880.592
1883.375
1892.698
1900.298
1900.156
1893.599
1886.327
1881.359
1879.384
1880.195
1883.42
1888.446
1894.633
1901.884
1911.165
1923.346
1940.111
1963.322
1994.987
2036.052
2084.168
2138.817
2197.053
2247.636
2279.594
2293.33
2293.254
2281.363
2277.054
2302.083
2344.075
2389.08
2430.849
2467.179
2497.773
2522.758
2541.935
2555.1
2562.372
2564.077
2561.125
2555.133
2548.913
2546.449
2551.743
2567.123
2593.193
2629.633
2675.672
2730.028
2790.871
2855.984
2922.976
2989.461
3053.098
3111.672
3163.305
3206.544
3240.043
3262.531
3273.35
3272.184
3259.363
3235.783
3202.384
3161.72
3118.721
3079.337
3048.335
3029.053
3023.395
3031.816
3054.105
3089.187
3135.714
3192.138
3256.913
3328.56
3405.757
3485.333
3564.611
3643.517
3722.073
3799.884
3876.774
3953.011
4028.904
4104.554
4179.945
4254.59
4327.633
4398.27
4465.603
4528.955
4586.874
4637.406
4682.055
4727.873
4778.467
4830.288
4879.367
4924.611
4966.048
5003.839
5038.336
5070.016
5099.527
5127.76
5155.609
5183.514
5211.409
5239.045
5266.12
5292.701
5318.691
5343.877
5368.334
5392.312
5415.86
5439.073
5461.818
5484.155
5506.119
5527.775
5548.98
5569.639
5589.705
5610.151
5630.113
5648.319
5665.07
5681.018
5696.265
5710.611
5723.896
5736.058
5747.084
5756.977
5765.737
5773.368
5779.882
5785.305
5789.676
5793.046
5795.468
5797.007
5797.731
5797.713
5797.031
5795.762
5793.984
5791.767
5789.177
5786.271
5783.088
5779.65
5775.936
5771.948
5767.762
5763.394
5759.056
5755.182
5752.391
5751.098
5750.801
5750.358
5749.077
5746.668
5742.931
5737.647
5730.549
5721.377
5709.903
5695.991
5679.528
5660.596
5639.866
5618.063
5596.083
5575.256
5557.205
5543.247
5531.603
5522.153
5515.073
5508.361
5501.067
5493.683
5487.733
5486.116
5487.805
5491.06
5497.223
5506.102
5513.755
5523.339
5532.111
5535.688
5542.157
5545.127
5552.305
5555.543
5553.479
5557.02
5577.847
5603.867
5623.097
5640.852
5656.23
5668.816
5679.357
5688.087
5695.251
5701.187
5706.226
5710.539
5714.276
5717.622
5720.706
5723.623
5726.393
5728.969
5732.522
5736.946
5740.012
5743.158
5746.403
5749.649
5752.922
5756.279
5759.879
5763.704
5767.749
5772.157
5776.657
5781.324
5786.059
5790.774
5795.38
5799.754
5803.737
5807.206
5810.162
5812.412
5813.867
5814.797
5815.315
5815.481
5815.222
5814.527
5813.562
5813.028
5812.543
5811.234
5809.181
5806.809
5804.386
5802.395
5799.389
5796.931
5793.811
5790.732
5787.451
5783.842
5779.892
5775.582
5770.901
5765.856
5760.46
5754.735
5748.693
5742.43
5735.933
5729.245
5722.485
5715.668
5708.812
5701.928
5695.024
5688.112
5681.21
5674.343
5667.538
5660.826
5654.236
5647.793
5641.51
5635.39
5629.444
5623.666
5618.077
5612.665
5607.425
5602.346
5597.419
5592.632
5587.976
5583.441
5579.028
5574.712
5570.491
5566.345
5562.234
5558.126
5554.024
5549.898
5545.722
5541.454
5537.062
5532.515
5527.78
5522.819
5517.605
5512.118
5506.339
5500.259
5493.876
5487.195
5480.228
5472.99
5465.493
5457.753
5449.784
5441.599
5433.206
5424.618
5415.828
5406.838
5397.672
5388.321
5379.262
5370.58
5362.873
5356.534
5352.493
5349.875
2372.147
2359.785
2349.97
2329.075
2325.981
2308.899
2335.173
2380.005
2441.421
2486.946
2521.811
2579.062
2660.091
2762.254
2884.445
3024.505
3179.424
3349.805
3534.032
3730.69
3938.258
4154.844
4375.862
4596.988
4815.058
5024.914
5221.469
5400.179
5555.739
5683.899
5783.275
5789.704
5811.112
5789.972
5727.832
5632.627
5508.809
5360.081
5190.712
5005.63
4809.838
4607.03
4400.924
4195.072
3992.787
3796.592
3608.214
3429.162
3259.795
3100.72
2952.37
2815.484
2689.851
2575.164
2470.805
2375.716
2288.766
2209.144
2136.417
2070.85
2012.831
1961.767
1916.761
1876.513
1839.645
1805.135
1772.417
1742
1712.832
1688.969
1670.996
1654.161
1636.636
1618.923
1601.683
1585.414
1570.557
1557.837
1547.199
1536.919
1525.979
1514.838
1505.367
1497.186
1491.209
1488.569
1486.215
1482.992
1477.867
1470.014
1461.542
1453.552
1446.678
1442.221
1439.108
1436.962
1435.392
1432.987
1428.765
1423.224
1417.075
1412.192
1409.856
1409.234
1410.672
1412.726
1414.084
1413.302
1411.424
1411.936
1414.544
1418.375
1422.397
1424.721
1425.464
1425.591
1426.217
1428.427
1433.919
1444.65
1462.113
1484.977
1508.308
1531.446
1553.4
1572.784
1585.813
1591.875
1596.428
1603.839
1612.694
1619.7
1620.35
1618.937
1618.101
1619.318
1623.359
1630.039
1638.218
1646.628
1655.188
1666.32
1679.26
1695.924
1718.55
1747.413
1782.984
1823.019
1865.799
1910.593
1952.277
1984.939
2007.622
2023.074
2032.788
2048.528
2079.939
2121.979
2167.134
2209.948
2247.558
2278.933
2303.741
2321.47
2331.639
2334.153
2329.313
2317.899
2301.285
2282.949
2269.349
2266.673
2278.04
2303.872
2343.373
2395.253
2457.506
2527.653
2603.124
2681.111
2758.618
2832.65
2900.307
2959.028
3007.133
3043.375
3066.391
3074.864
3068.453
3048.023
3014.142
2967.286
2910.413
2850.147
2795.148
2752.671
2726.383
2717.31
2725.297
2749.253
2787.006
2836.189
2895.165
2962.756
3037.653
3118.108
3201.406
3285.076
3368.101
3450.086
3530.595
3609.591
3687.417
3764.447
3840.895
3916.781
3991.67
4065.083
4136.636
4205.449
4270.656
4331.446
4387
4438.402
4489.188
4541.075
4592.327
4640.992
4686.467
4728.54
4767.09
4802.371
4834.937
4865.41
4894.499
4923.071
4951.534
4979.669
5007.17
5033.819
5059.594
5084.676
5109.25
5133.381
5157.118
5180.409
5203.182
5225.4
5247.059
5268.201
5288.843
5309.195
5329.226
5349.001
5368.303
5386.527
5403.772
5420.242
5436.026
5451.035
5465.111
5478.142
5490.082
5500.92
5510.657
5519.292
5526.831
5533.278
5538.655
5543.008
5546.384
5548.836
5550.427
5551.224
5551.303
5550.739
5549.612
5548.001
5545.977
5543.606
5540.953
5538.076
5535.032
5531.736
5528.127
5524.626
5521.088
5517.643
5514.527
5511.967
5510.123
5508.853
5507.521
5505.449
5502.265
5497.702
5491.488
5483.307
5472.937
5460.128
5444.841
5427.017
5406.852
5384.769
5361.562
5337.933
5315.083
5295.694
5283.728
5273.682
5264.076
5259.548
5255.01
5248.754
5242.239
5240.593
5242.93
5248.256
5254.406
5261.799
5267.654
5273.165
5278.768
5282.035
5284.284
5288.463
5292.135
5297.247
5302.998
5308.915
5316.264
5331.465
5354.139
5375.838
5396.567
5415.422
5430.813
5442.558
5451.262
5457.83
5462.757
5466.535
5469.568
5472.093
5474.314
5476.41
5478.465
5480.461
5482.353
5485.234
5489.171
5492.248
5495.823
5499.907
5504.27
5508.648
5512.941
5517.174
5521.321
5525.45
5529.586
5533.851
5538.145
5542.438
5546.661
5550.743
5554.616
5558.141
5561.126
5563.892
5566.036
5567.293
5568.272
5568.939
5569.285
5569.305
5569.099
5568.774
5568.324
5567.422
5566.006
5564.361
5562.64
5560.81
5558.842
5556.447
5553.633
5551.168
5548.151
5544.751
5540.903
5536.715
5532.153
5527.201
5521.861
5516.119
5510.057
5503.842
5497.259
5490.464
5483.659
5476.773
5469.853
5462.952
5456.051
5449.131
5442.192
5435.254
5428.344
5421.497
5414.749
5408.133
5401.679
5395.409
5389.337
5383.409
5377.703
5372.199
5366.885
5361.748
5356.775
5351.954
5347.274
5342.728
5338.308
5334.006
5329.804
5325.687
5321.635
5317.623
5313.631
5309.612
5305.565
5301.448
5297.239
5292.895
5288.382
5283.662
5278.699
5273.462
5267.927
5262.08
5255.913
5249.431
5242.643
5235.575
5228.255
5220.705
5212.956
5205.039
5196.984
5188.828
5180.607
5172.363
5164.12
5155.949
5147.836
5140.062
5132.713
5126.11
5120.251
5115.502
5109.955
2573.942
2542.275
2512.722
2458.724
2412.992
2335.3
2291.588
2249.792
2210.051
2173.19
2139.042
2108.555
2083.088
2063.869
2051.049
2046.007
1993.622
2012.882
2042.231
2079.336
2121.803
2175.809
2245.496
2332.328
2438.359
2562.221
2703.035
2859.722
3031.181
3216.282
3413.506
3620.532
3834.137
4051.706
4270.355
4485.986
4696.118
4891.313
5066.108
5215.207
5333.923
5417.459
5460.257
5472.261
5448.121
5386.142
5290.419
5165.687
5016.298
4846.705
4661.593
4465.832
4263.656
4059.021
3855.595
3656.271
3463.383
3278.484
3102.829
2936.93
2781.11
2635.637
2501.779
2380.473
2271.16
2172.382
2082.439
1999.842
1923.631
1853.687
1790.655
1735.473
1688.411
1647.898
1611.502
1577.357
1544.437
1512.313
1482.347
1456.585
1434.01
1415.696
1400.404
1384.965
1368.348
1351.08
1334.035
1318.974
1306.979
1296.879
1287.067
1276.206
1263.899
1252.989
1246.628
1242.403
1241.668
1241.666
1239.114
1233.273
1224.055
1214.09
1205.684
1198.478
1193.539
1190.613
1189.218
1188.899
1187.55
1183.051
1176.277
1168.87
1162.642
1159.577
1160.779
1164.439
1167.539
1168.34
1165.917
1162.309
1163.447
1168.83
1174.959
1179.07
1179.577
1177.289
1173.433
1169.659
1167.157
1168.532
1178.353
1196.838
1217.993
1240.971
1259.799
1274.679
1285.997
1293.983
1301.46
1308.209
1316.394
1327.909
1339.587
1347.029
1349.61
1351.068
1354.663
1362.766
1374.808
1387.663
1398.379
1406.183
1417.326
1430.131
1445.34
1466.369
1491.372
1523.085
1556.763
1589.77
1625.782
1662.403
1695.633
1725.967
1753.299
1778.728
1809.468
1849.337
1895.957
1944.78
1991.682
2033.098
2066.973
2092.598
2109.521
2117.171
2114.878
2102.374
2079.392
2046.516
2009.835
1979.333
1965.302
1970.702
1995.391
2038.067
2097.366
2170.518
2253.515
2342.828
2435.318
2527.543
2615.635
2695.891
2765.206
2821.094
2861.879
2886.149
2892.61
2880.747
2851.836
2805.619
2740.57
2659.963
2574.676
2497.935
2439.484
2404.034
2391.798
2400.96
2428.875
2471.422
2524.664
2587.559
2659.249
2738.576
2823.742
2911.927
3000.539
3088.088
3173.807
3257.173
3338.169
3417.347
3495.386
3572.712
3649.418
3725.263
3799.946
3873.049
3943.859
4011.744
4076.278
4137.013
4194.138
4249.036
4302.73
4354.732
4404.057
4450.171
4492.895
4532.281
4568.656
4602.496
4634.289
4664.593
4693.953
4722.56
4750.376
4777.406
4803.659
4829.091
4853.89
4878.29
4902.235
4925.625
4948.412
4970.573
4992.105
5013.061
5033.449
5053.366
5072.853
5091.937
5110.66
5128.769
5146.141
5162.839
5178.867
5194.142
5208.577
5222.095
5234.634
5246.153
5256.627
5266.044
5274.412
5281.731
5287.984
5293.189
5297.4
5300.663
5303.03
5304.562
5305.329
5305.408
5304.882
5303.836
5302.357
5300.522
5298.399
5296.054
5293.54
5290.924
5288.13
5285.237
5282.473
5279.69
5277.007
5274.53
5272.345
5270.48
5268.793
5266.892
5264.276
5260.567
5255.384
5248.491
5239.538
5228.161
5214.184
5197.898
5179.174
5157.717
5133.674
5107.768
5080.705
5053.383
5030.374
5019.483
5014.101
5009.224
5007.336
5006.483
5004.337
5002.782
5004.016
5005.756
5008.672
5012.639
5017.258
5020.355
5023.531
5027.778
5031.376
5034.189
5037.312
5040.931
5046.399
5053.79
5062.436
5073.328
5089.21
5109.797
5131.487
5152.669
5171.998
5188.24
5201.516
5211.196
5217.849
5222.337
5225.401
5227.634
5229.388
5230.828
5232.075
5233.134
5234.386
5236.491
5237.991
5239.853
5243.395
5247.572
5252.599
5258.388
5264.171
5269.591
5274.692
5279.285
5283.579
5287.713
5291.767
5295.737
5299.612
5303.353
5306.914
5310.219
5313.214
5315.808
5318.128
5319.875
5321.032
5322.125
5322.934
5323.433
5323.705
5323.757
5323.657
5323.385
5322.885
5322.137
5321.192
5320.046
5318.64
5316.916
5314.78
5312.255
5309.519
5306.391
5303.027
5298.748
5294.264
5289.403
5284.112
5278.408
5272.329
5265.95
5259.382
5252.372
5245.221
5238.215
5231.165
5224.145
5217.206
5210.288
5203.341
5196.356
5189.354
5182.368
5175.441
5168.621
5161.948
5155.46
5149.194
5143.234
5137.263
5131.606
5126.182
5120.963
5115.929
5111.062
5106.347
5101.774
5097.333
5093.02
5088.826
5084.74
5080.745
5076.82
5072.939
5069.078
5065.189
5061.24
5057.216
5053.098
5048.845
5044.411
5039.754
5034.829
5029.601
5024.043
5018.143
5011.895
5005.309
4998.404
4991.212
4983.779
4976.15
4968.368
4960.484
4952.55
4944.621
4936.745
4928.991
4921.404
4913.898
4906.717
4899.98
4893.645
4887.92
4882.465
4877.582
4870.899
2789.146
2746.991
2701.161
2643.52
2601.049
2522.213
2480.502
2439.124
2397.569
2355.582
2313.64
2271.672
2228.46
2185.36
2140.625
2029.55
1986.348
1944.609
1904.696
1867.015
1832.157
1800.846
1773.931
1752.238
1736.208
1727.513
1726.394
1736.923
1757.472
1787.836
1828.635
1882.532
1952.311
2039.581
2144.358
2266.251
2404.628
2558.598
2727.141
2908.874
3101.234
3301.881
3509.105
3721.287
3936.348
4149.35
4354.996
4546.254
4716.675
4860.339
4972.665
5050.887
5092.081
5097.305
5066.762
5000.782
4901.977
4774.607
4623.301
4452.785
4267.733
4072.891
3872.752
3671.258
3472.232
3278.6
3092.24
2914.586
2745.812
2586.095
2436.069
2296.15
2168.395
2054.078
1952.447
1861.34
1778.314
1701.371
1629.431
1562.665
1502.663
1451.626
1410.161
1375.891
1344.458
1313.402
1282.062
1250.641
1219.492
1192.932
1175.264
1160.621
1147.945
1135.11
1118.912
1100.38
1080.916
1063.516
1053.827
1046.016
1036.683
1027.496
1013.216
997.8561
991.2001
994.7213
997.711
999.4432
997.302
990.8796
980.5004
966.5005
955.4602
950.4335
944.7832
941.0125
940.6537
942.6756
943.7874
938.0285
928.6599
918.5752
910.017
906.4763
911.2325
918.8151
923.5734
924.0929
920.1841
914.7576
913.7864
922.212
934.1028
938.3184
934.2577
926.5231
918.033
910.9749
903.716
898.324
903.7253
925.8423
948.2858
971.3318
991.8812
1000.236
1000.676
998.381
1007.436
1016.39
1027.929
1044.547
1058.446
1070.791
1079.748
1082.485
1086.763
1098.096
1117.069
1137.112
1151.32
1158.605
1165.871
1174.562
1188.277
1210.125
1232.811
1261.172
1288.474
1311.548
1340.94
1374.606
1406.913
1444.07
1484.894
1519.04
1560.409
1612.683
1669.481
1725.034
1777.833
1825.365
1864.396
1892.268
1907.974
1913.137
1905.969
1884.56
1848.173
1792.393
1726.4
1670.025
1642.301
1641.915
1666.665
1714.286
1782.967
1868.689
1967.213
2074.436
2185.881
2297.108
2403.335
2499.579
2581.915
2647.961
2695.845
2722.931
2726.994
2709.082
2671.047
2610.705
2522.164
2408.28
2287.359
2181.212
2104.007
2059.966
2045.653
2057.392
2092.287
2143.767
2203.234
2270.979
2347.359
2432.528
2524.516
2619.348
2713.99
2806.828
2896.563
2982.505
3064.969
3144.983
3223.708
3301.803
3379.466
3456.605
3532.93
3608.075
3681.57
3752.976
3821.816
3887.455
3949.543
4008.54
4064.96
4118.675
4169.173
4216.216
4259.885
4300.398
4338.037
4373.118
4405.999
4437.046
4466.678
4495.189
4522.764
4549.527
4575.533
4600.828
4625.55
4649.761
4673.395
4696.401
4718.758
4740.444
4761.445
4781.783
4801.503
4820.714
4839.427
4857.71
4875.42
4892.552
4909.088
4924.979
4940.153
4954.552
4968.138
4980.879
4992.732
5003.655
5013.605
5022.546
5030.495
5037.465
5043.405
5048.311
5052.276
5055.328
5057.517
5058.904
5059.561
5059.571
5059.025
5058.02
5056.651
5055.006
5053.158
5051.203
5049.244
5047.014
5044.765
5043.002
5040.978
5038.891
5036.963
5035.154
5033.448
5031.798
5030.067
5027.966
5025.047
5020.94
5015.324
5007.89
4998.294
4986.272
4971.76
4954.672
4934.623
4911.05
4884.468
4855.18
4823.45
4790.324
4760.128
4751.838
4756.457
4764.496
4763.955
4760.541
4757.836
4757.035
4755.24
4754.474
4755.56
4758.733
4763.174
4768.448
4773.777
4778.702
4782.461
4785.311
4787.992
4791.305
4796.601
4804.605
4815.422
4829.172
4846.463
4866.761
4888.365
4910.025
4930.036
4946.192
4959.962
4969.759
4976.179
4980.234
4982.735
4984.422
4985.652
4986.578
4987.358
4988.057
4988.709
4989.958
4990.482
4990.95
4994.686
4998.326
5003.811
5011.286
5018.958
5025.83
5032.386
5037.562
5041.979
5046.048
5049.906
5053.598
5057.097
5060.398
5063.494
5066.408
5069.219
5071.588
5073.1
5074.244
5075.618
5076.811
5077.656
5078.181
5078.558
5078.665
5078.722
5078.806
5078.859
5078.709
5078.267
5077.505
5076.393
5074.894
5072.969
5070.611
5067.843
5064.587
5060.659
5056.711
5052.084
5046.952
5041.359
5035.315
5028.858
5022.056
5014.998
5007.637
5000.184
4992.848
4985.57
4978.438
4971.484
4964.578
4957.617
4950.577
4943.489
4936.398
4929.362
4922.442
4915.689
4909.135
4902.795
4896.618
4890.918
4885.367
4880.033
4874.912
4869.98
4865.214
4860.598
4856.12
4851.772
4847.554
4843.464
4839.493
4835.624
4831.833
4828.089
4824.36
4820.612
4816.81
4812.944
4808.969
4804.854
4800.552
4796.007
4791.164
4785.979
4780.424
4774.486
4768.162
4761.468
4754.435
4747.105
4739.538
4731.797
4723.948
4716.069
4708.236
4700.517
4692.962
4685.639
4678.474
4671.6
4665.073
4659.277
4653.98
4648.979
4643.672
4638.724
4631.752
2819.123
2763.633
2705.27
2636.432
2569.958
2511.434
2458.385
2409.939
2365.483
2321.301
2211.7
2170.655
2130.039
2089.228
2047.917
2006.1
1963.695
1920.462
1876.638
1833.13
1790.644
1747.828
1705.878
1665.131
1626.111
1589.263
1554.714
1523.238
1496.345
1475.115
1460.644
1454.696
1458.934
1474.167
1501.189
1540.86
1594.959
1664.83
1751.401
1854.774
1974.688
2110.693
2261.793
2426.259
2601.904
2787.228
2981.638
3184.323
3393.008
3603.672
3811.433
4010.471
4194.039
4355.429
4488.756
4589.474
4654.829
4683.418
4675.819
4634.082
4560.128
4456.182
4325.616
4172.503
4001.517
3817.44
3624.856
3428.532
3232.669
3040.538
2854.691
2677.26
2509.421
2350.372
2199.74
2058.654
1927.845
1809.722
1705.718
1614.61
1533.498
1459.578
1390.339
1323.991
1260.382
1202.99
1157.615
1124.473
1098.299
1073.61
1047.012
1017.58
985.6944
953.7424
926.5721
911.6943
904.2653
897.0821
886.3026
869.9065
849.0428
825.6346
804.851
795.5784
795.5707
788.6403
779.4281
760.7533
740.6795
730.9915
742.9607
754.0856
759.5755
758.7661
751.3732
737.3481
716.8616
702.4443
700.0422
693.5026
687.7007
689.458
696.936
701.9451
694.8271
681.5192
667.5147
654.5941
648.3167
658.9352
673.7542
681.3979
682.836
675.3176
664.533
661.4546
677.2339
698.0086
702.7666
692.4223
675.3927
656.4127
644.9441
632.8222
619.5642
624.0815
652.7004
681.0936
699.526
719.7125
728.0112
728.1326
722.9093
717.0803
723.6526
739.2739
761.8671
779.8886
788.6759
806.3085
810.5834
820.0371
839.3923
867.0441
891.5333
908.5439
913.8217
915.6456
917.3631
926.8391
952.0193
975.1724
997.4627
1020.31
1033.372
1056.152
1090.001
1122.694
1160.398
1212.614
1257.531
1307.813
1373.375
1444.186
1510.8
1570.869
1623.083
1668.463
1702.899
1720.186
1720.651
1709.965
1674.276
1622.55
1539.967
1436.255
1336.714
1293.259
1287.216
1314.205
1369.365
1452.804
1555.573
1670.682
1797.403
1931.999
2067.395
2196.006
2311.386
2409.497
2488.184
2544.969
2575.632
2576.658
2551.923
2505.096
2430.537
2314.421
2156.733
1987.026
1841.966
1743.639
1693.022
1678.575
1695.723
1742.939
1809.493
1876.224
1950.954
2030.751
2121.258
2222.314
2326.231
2428.108
2526.765
2620.567
2708.461
2791.391
2871.325
2950.134
3028.752
3107.366
3185.891
3264.126
3341.846
3418.716
3494.253
3567.803
3638.498
3705.614
3769.008
3828.696
3884.586
3936.563
3984.748
4029.43
4070.925
4109.529
4145.558
4179.351
4211.018
4240.986
4269.606
4297.114
4323.684
4349.447
4374.496
4398.914
4422.746
4445.989
4468.65
4490.701
4512.098
4532.807
4552.825
4572.179
4590.905
4609.01
4626.509
4643.347
4659.52
4674.994
4689.775
4703.822
4717.113
4729.644
4741.406
4752.367
4762.493
4771.742
4780.078
4787.537
4794.065
4799.543
4803.985
4807.614
4810.363
4812.284
4813.44
4813.902
4813.765
4813.132
4812.114
4810.821
4809.352
4807.789
4806.211
4804.66
4803.057
4801.691
4800.701
4799.512
4798.356
4797.292
4796.255
4795.187
4793.994
4792.467
4790.325
4787.29
4783.026
4777.307
4769.816
4759.979
4747.605
4732.467
4714.112
4692.039
4665.932
4637.033
4605.589
4570.578
4536.808
4510.881
4499.585
4505.691
4518.149
4520.278
4511.076
4501.924
4497.961
4493.55
4495.598
4501.165
4506.562
4512.697
4520.421
4526.977
4532.52
4536.506
4539.311
4541.537
4545.102
4550.48
4558.289
4569.3
4584.073
4602.637
4623.963
4646.378
4668.747
4688.362
4703.684
4717.398
4727.026
4733.15
4736.83
4739.036
4740.355
4741.14
4741.633
4742.125
4742.633
4742.819
4742.995
4743.071
4742.849
4746.182
4748.316
4753.618
4763.279
4772.395
4781.995
4789.844
4795.521
4800.275
4804.433
4808.151
4811.556
4814.703
4817.622
4820.351
4822.943
4825.392
4827.491
4828.907
4830.085
4831.389
4832.385
4833.073
4833.507
4833.781
4834.037
4834.254
4834.811
4835.366
4835.55
4835.362
4834.841
4833.969
4832.715
4831.035
4828.894
4826.254
4823.062
4819.295
4815.07
4810.236
4804.833
4798.909
4792.513
4785.661
4778.431
4770.91
4763.006
4755.225
4747.593
4739.94
4732.647
4725.745
4718.922
4711.992
4704.913
4697.712
4690.466
4683.273
4676.214
4669.354
4662.731
4656.372
4650.284
4644.523
4639.009
4633.754
4628.73
4623.896
4619.226
4614.702
4610.306
4606.036
4601.901
4597.907
4594.049
4590.311
4586.666
4583.078
4579.51
4575.927
4572.302
4568.611
4564.818
4560.892
4556.776
4552.397
4547.686
4542.587
4537.07
4531.121
4524.734
4517.932
4510.764
4503.278
4495.544
4487.642
4479.661
4471.736
4463.984
4456.47
4449.225
4442.347
4435.464
4428.838
4422.79
4418.182
4414.027
4409.591
4404.459
4399.559
4392.221
2551.215
2479.861
2338.432
2281.47
2226.939
2176.97
2130.788
2087.511
2046.195
2006.384
1967.891
1928.789
1889.399
1849.373
1808.724
1767.205
1724.777
1681.405
1637.093
1592.435
1548.924
1505.952
1463.502
1421.475
1379.853
1339.288
1300.795
1265.31
1234.321
1209.707
1192.712
1184.313
1185.856
1198.378
1223.097
1261.272
1314.282
1383.045
1468.162
1569.682
1687.281
1820.311
1967.182
2124.919
2293.049
2472.101
2661.836
2859.773
3062.687
3266.212
3465.016
3653.105
3823.959
3971.007
4088.547
4172.357
4220.161
4231.851
4209.199
4154.943
4072.017
3962.835
3829.874
3676.47
3506.682
3325.266
3136.718
2945.186
2755.66
2571.925
2396.104
2229.699
2073.101
1926.058
1788.517
1659.703
1538.901
1430.31
1338.053
1260.242
1191.636
1128.245
1067.748
1008.507
949.3258
894.9927
850.4463
828.1968
817.4197
798.8463
777.482
751.7264
720.1171
686.7931
657.8307
642.0528
644.5211