/*--------------------------------*- C++ -*----------------------------------*\
| =========                 |                                                 |
| \\      /  F ield         | foam-extend: Open Source CFD                    |
|  \\    /   O peration     | Version:     3.1                                |
|   \\  /    A nd           | Web:         http://www.extend-project.de       |
|    \\/     M anipulation  |                                                 |
\*---------------------------------------------------------------------------*/
FoamFile
{
    version     2.0;
    format      ascii;
    class       volScalarField;
    location    "20";
    object      pd;
}
// * * * * * * * * * * * * * * * * * * * * * * * * * * * * * * * * * * * * * //

dimensions      [1 -1 -2 0 0 0 0];

internalField   nonuniform List<scalar> 
119952
(
4576.879
2893.005
2654.644
2887.129
3133.349
2926.591
2865.963
2819.185
2798.254
2779.465
2767.449
2759.931
2755.732
2754.54
2755.093
2756.318
2756.746
2752.696
2734.338
2641.195
3020.278
2832.923
2748.448
3253.218
3242.111
3296.828
3364.308
3508.418
3921.251
6636.029
2626.273
2579.569
2580.544
2574.297
2569.534
2562.055
2559.677
2558.005
2560.27
2529.949
2519.522
2536.95
2528.237
2523.595
2519.263
2517.021
2517.345
2518.466
2520.613
2545.534
2544.188
2524.597
2520.707
2524.534
2527.679
2532.189
2537.286
2540.737
2550.963
2550.468
2550.445
2563.184
2577.879
2593.825
2612.652
2634.396
2666.853
2762.494
2947.656
2810.099
2754.437
2852.113
2900.948
2881.246
2835.657
2806.068
2787.019
2772.742
2762.604
2756.614
2753.921
2753.593
2754.933
2757.066
2759.071
2760.191
2761.942
2772.409
2815.78
2860.646
2880.897
3012.621
3204.593
3264.345
3298.435
3336.044
3283.088
3021.36
2983.977
3085.633
3140.418
3188.761
3235.971
3275.774
3309.907
3339.272
3363.606
3383.539
3398.97
3410.527
3418.966
3425.774
3432.44
3440.831
3452.909
3470.272
3493.89
3524.089
3560.649
3602.886
3649.779
3700.055
3752.301
3805.06
3856.883
3906.316
3951.984
3992.85
4027.54
4054.721
4073.418
4083.536
4084.634
4077.434
4062.819
4042.565
4019.244
3995.883
3976.232
3963.409
3959.76
3966.534
3984.59
4013.496
4051.98
4098.498
4155.448
4235.648
4315.186
4378.817
4450.779
4524.79
4597.532
4669.514
4740.979
4812.361
4884.622
4958.236
5033.073
5108.534
5183.642
5257.162
5327.844
5393.652
5451.012
5491.754
5516.094
5549.396
5600.592
5657.596
5711.228
5758.956
5800.444
5837.007
5869.687
5899.546
5927.738
5955.679
5984.449
6014.172
6044.373
6074.301
6103.442
6131.332
6158.401
6184.846
6210.858
6236.409
6261.586
6286.26
6310.418
6334.077
6357.271
6379.933
6401.997
6423.355
6444.969
6466.921
6484.223
6503.345
6521.408
6538.465
6554.483
6569.435
6583.334
6595.977
6607.405
6617.669
6626.755
6634.672
6641.434
6647.071
6651.635
6655.111
6657.613
6659.195
6659.929
6659.891
6659.171
6657.841
6655.982
6653.671
6650.973
6647.947
6644.626
6641.029
6637.13
6632.861
6628.087
6622.497
6615.418
6604.964
6590.408
6600.188
6607.314
6609.258
6610.843
6610.82
6609.471
6606.731
6602.358
6596.13
6587.766
6577.006
6563.642
6547.626
6529.192
6508.938
6487.84
6467.129
6448.017
6431.365
6417.52
6406.334
6397.287
6389.623
6382.675
6376.23
6370.556
6366.108
6363.096
6361.535
6361.586
6363.887
6368.806
6375.731
6385.26
6437.717
6437.907
6443.98
6469.117
6443.956
6378.531
6385.415
6418.382
6447.121
6467.574
6482.88
6496.05
6508.246
6519.726
6530.453
6540.107
6548.728
6556.261
6562.783
6568.364
6573.227
6577.494
6581.32
6584.838
6588.244
6591.271
6594.25
6596.856
6599.139
6601.355
6603.728
6606.239
6609.266
6612.83
6616.887
6621.49
6626.546
6631.904
6637.487
6643.168
6648.843
6654.427
6659.857
6665.098
6670.065
6673.922
6675.458
6675.903
6676.036
6676.042
6675.608
6674.834
6673.309
6667.523
6659.93
6661.735
6663.252
6660.946
6659.159
6657.285
6655.32
6653.374
6651.33
6649.105
6646.663
6643.97
6640.975
6637.637
6633.929
6629.836
6625.355
6620.488
6615.251
6609.663
6603.758
6597.568
6591.137
6584.517
6577.759
6570.902
6563.985
6557.038
6550.085
6543.149
6536.248
6529.397
6522.627
6515.952
6509.384
6502.937
6496.618
6490.437
6484.4
6478.528
6472.822
6467.282
6461.91
6456.695
6451.646
6446.762
6442.019
6437.41
6432.928
6428.552
6424.269
6420.06
6415.902
6411.771
6407.639
6403.475
6399.247
6394.924
6390.474
6385.867
6381.071
6376.059
6370.806
6365.288
6359.486
6353.388
6346.982
6340.262
6333.229
6325.881
6318.215
6310.225
6301.888
6293.168
6283.998
6274.318
6264.012
6252.908
6240.666
6226.786
6210.475
6190.849
6171.787
6178.383
6251.417
4197.005
4066.864
3936.872
3809.383
3694.439
3589.415
3493.425
3407.627
3331.794
3231.504
3177.133
3122.767
3069.576
3024.973
2982.704
2945.961
2911.523
2878.002
2848.542
2845.401
2809.649
2779.401
2758.641
2740.143
2723.175
2707.817
2692.997
2680.098
2673.016
2647.823
2636.138
2627.818
2618.687
2610.541
2604.401
2599.202
2596.55
2601.748
2581.058
2567.159
2563.851
2560.616
2556.199
2552.491
2549.556
2546.915
2544.432
2534.86
2534.057
2532.253
2527.815
2523.202
2520.012
2518.703
2519.729
2528.948
2510.718
2512.377
2518.021
2522.651
2525.424
2527.937
2531.097
2534.823
2538.526
2541.195
2546.391
2554.867
2564.639
2576.764
2593.397
2615.971
2645.798
2684.88
2730.26
2769.107
2782.053
2776.471
2785.862
2799.494
2802.78
2793.771
2778.449
2764.451
2755.088
2749.878
2747.865
2748.37
2750.762
2754.541
2759.455
2765.947
2775.028
2789.086
2811.406
2845.497
2892.256
2951.383
3024.821
3105.471
3168.176
3200.16
3201.957
3175.74
3125.612
3102.52
3131.585
3177.608
3224.296
3266.76
3303.45
3334.663
3360.908
3382.209
3398.351
3409.63
3416.546
3419.953
3421.343
3422.83
3427.227
3437.226
3454.648
3480.299
3514.224
3555.896
3604.267
3657.878
3714.997
3773.75
3832.266
3888.73
3941.425
3988.718
4029.222
4061.713
4085.198
4098.98
4102.714
4096.566
4081.234
4057.853
4028.633
3997.116
3967.534
3943.922
3929.57
3926.577
3935.582
3956.84
3989.859
4033.735
4087.937
4151.354
4221.803
4297.302
4372.641
4447.859
4523.663
4599.296
4674.458
4749.085
4823.493
4898.03
4972.958
5048.134
5122.776
5196.489
5267.905
5334.753
5396.966
5452.038
5497.472
5535.322
5576.681
5626.365
5679.213
5729.767
5775.802
5816.617
5853
5886.048
5916.506
5945.599
5974.585
6003.835
6032.99
6061.468
6089.072
6115.911
6142.129
6167.952
6193.462
6218.73
6243.638
6268.205
6292.246
6315.818
6338.94
6361.72
6384.041
6405.843
6426.907
6446.963
6467.253
6482.745
6501.06
6519.131
6535.909
6551.751
6566.55
6580.25
6592.789
6604.165
6614.391
6623.461
6631.382
6638.167
6643.842
6648.44
6652.012
6654.612
6656.302
6657.154
6657.234
6656.615
6655.383
6653.614
6651.377
6648.738
6645.75
6642.448
6638.846
6634.925
6630.634
6625.877
6620.513
6614.44
6608.12
6603.447
6603.445
6606.307
6607.232
6607.114
6605.97
6603.446
6599.449
6593.748
6586.1
6576.276
6564.075
6549.381
6532.281
6513.177
6492.793
6472.132
6452.325
6434.399
6418.855
6405.764
6394.952
6385.891
6377.877
6370.497
6363.896
6358.53
6354.897
6352.924
6352.539
6353.238
6355.963
6364.344
6366.928
6351.158
6387.944
6418.764
6421.647
6422.814
6427.698
6409.971
6405.088
6433.348
6459.745
6476.612
6492.712
6506.752
6518.975
6529.943
6539.325
6547.494
6554.382
6560.47
6565.849
6570.551
6574.748
6578.553
6582.111
6585.462
6588.744
6592.236
6595.786
6598.85
6601.622
6604.206
6606.74
6609.452
6612.389
6615.875
6619.446
6623.677
6628.368
6633.468
6638.673
6643.919
6649.153
6654.278
6659.173
6663.673
6667.574
6670.701
6672.82
6674.042
6674.713
6674.967
6674.875
6674.361
6673.274
6671.147
6667.557
6664.212
6662.827
6662.031
6660.877
6658.818
6656.234
6654.529
6652.304
6649.719
6646.955
6643.939
6640.618
6636.958
6632.937
6628.543
6623.772
6618.627
6613.129
6607.312
6601.221
6594.885
6588.357
6581.685
6574.905
6568.059
6561.172
6554.264
6547.351
6540.455
6533.598
6526.801
6520.09
6513.482
6506.998
6500.657
6494.468
6488.414
6482.565
6476.86
6471.324
6465.953
6460.742
6455.689
6450.786
6446.029
6441.405
6436.933
6432.522
6428.212
6423.971
6419.781
6415.626
6411.494
6407.351
6403.158
6398.884
6394.497
6389.968
6385.264
6380.353
6375.207
6369.803
6364.122
6358.148
6351.875
6345.299
6338.418
6331.245
6323.789
6316.049
6308.028
6299.714
6291.095
6282.14
6272.808
6263.025
6252.78
6241.788
6230.504
6219.59
6210.229
6204.835
6203.402
6205.123
3714.143
3814.899
3941.461
4085.689
4247.326
4425.297
4618.253
4824.253
5040.969
5261.964
5490.835
5722.475
5948.826
6165.454
6368.517
6553.986
6714.228
6843.849
6936.071
6998.236
7018.858
7001.662
6947.882
6860.394
6742.692
6598.967
6433.419
6251.033
6060.196
5852.88
5646.978
5438.003
5231.993
5031.285
4837.849
4653.269
4479.237
4317.308
4154.957
4010.829
3877.173
3755.859
3644.906
3543.609
3451.187
3367.047
3291.718
3221.661
3156.33
3101.953
3052.872
3008.437
2968.384
2931.867
2899.22
2877.428
2824.927
2798.435
2780.829
2764.5
2747.095
2729.435
2712.534
2696.754
2682.419
2668.833
2655.881
2645.596
2635.386
2624.377
2614.055
2605.659
2599.648
2595.653
2591.89
2586.781
2581.367
2574.962
2567.544
2560.291
2554.29
2549.857
2546.498
2543.594
2540.487
2537.622
2533.98
2528.747
2523.358
2519.331
2516.508
2515.434
2515.739
2516.249
2516.37
2517.808
2519.834
2520.16
2520.759
2523.363
2526.681
2529.883
2532.576
2535.455
2539.391
2544.45
2551.928
2563.713
2581.385
2605.119
2631.985
2661.067
2690.172
2718.847
2736.271
2738.967
2741.75
2751.073
2758.673
2758.531
2751.974
2744.702
2739.734
2737.759
2738.57
2741.795
2746.821
2753.008
2760.259
2769.54
2781.721
2798.485
2821.697
2853.362
2894.427
2942.543
2997.192
3055.428
3106.011
3137.969
3151.705
3151.629
3139.738
3135.429
3160.458
3202.45
3247.455
3289.224
3325.554
3356.148
3381.133
3400.31
3413.475
3420.747
3422.452
3419.5
3413.508
3407.288
3404.824
3410.118
3425.498
3451.568
3488.008
3534.047
3588.403
3649.246
3714.359
3781.351
3847.836
3911.473
3970.047
4021.68
4064.919
4098.418
4120.906
4131.725
4130.559
4117.738
4094.158
4060.759
4020.095
3977.096
3937.712
3906.71
3887.428
3881.77
3890.191
3912.48
3947.562
3994.089
4050.513
4115.288
4186.935
4264.132
4343.708
4422.986
4501.892
4580.448
4658.259
4735.149
4811.386
4887.279
4962.929
5038.32
5112.965
5186.008
5256.645
5323.978
5387.33
5445.249
5495.781
5540.43
5586.248
5636.842
5688.663
5737.742
5782.986
5824.423
5862.214
5896.711
5928.391
5957.902
5986.135
6013.984
6041.889
6069.784
6097.42
6124.495
6151.076
6177.066
6202.252
6226.709
6250.687
6274.235
6297.448
6320.193
6342.53
6364.494
6386.15
6407.355
6428.014
6448.08
6468.526
6488.488
6506.694
6523.445
6539.393
6554.64
6568.986
6582.271
6594.433
6605.459
6615.352
6624.112
6631.743
6638.257
6643.68
6648.051
6651.421
6653.843
6655.382
6656.106
6656.088
6655.406
6654.137
6652.359
6650.142
6647.552
6644.646
6641.463
6638.025
6634.311
6630.323
6626.137
6621.769
6617.431
6613.557
6610.766
6609.473
6609.176
6608.733
6607.452
6605.043
6601.306
6596.022
6588.924
6579.751
6568.278
6554.358
6537.802
6518.391
6497.067
6475.501
6454.169
6433.602
6415.579
6401.622
6389.977
6380.526
6373.44
6366.696
6359.086
6349.429
6337.286
6334.032
6334.558
6318.334
6277.136
6285.085
6292.738
6309.666
6362.662
6390.702
6400.439
6403.477
6410.47
6413.047
6410.714
6414.572
6435.989
6462.226
6481.472
6499.227
6514.605
6527.191
6537.731
6546.458
6553.597
6559.522
6564.574
6568.909
6572.65
6575.997
6579.079
6581.995
6584.765
6587.343
6590.897
6595.32
6598.382
6601.524
6604.773
6608.023
6611.297
6614.654
6618.245
6621.928
6625.75
6630.158
6634.864
6639.663
6644.398
6649.113
6653.728
6658.12
6662.111
6665.581
6668.537
6670.787
6672.242
6673.172
6673.69
6673.856
6673.597
6672.902
6671.937
6671.403
6670.918
6669.609
6667.556
6665.184
6662.761
6660.77
6657.764
6655.306
6652.186
6649.107
6645.825
6642.217
6638.267
6633.957
6629.276
6624.231
6618.835
6613.11
6607.068
6600.805
6594.308
6587.62
6580.86
6574.043
6567.187
6560.303
6553.399
6546.487
6539.585
6532.718
6525.913
6519.201
6512.611
6506.167
6499.885
6493.765
6487.819
6482.041
6476.452
6471.04
6465.8
6460.721
6455.794
6451.007
6446.35
6441.816
6437.403
6433.087
6428.866
6424.72
6420.609
6416.501
6412.399
6408.273
6404.097
6399.829
6395.437
6390.89
6386.155
6381.194
6375.98
6370.493
6364.714
6358.634
6352.251
6345.57
6338.603
6331.365
6323.868
6316.128
6308.159
6299.974
6291.581
6282.993
6274.203
6265.213
6256.047
6246.696
6237.637
6228.955
6221.248
6214.909
6210.867
6208.25
3389.351
3365.435
3352.146
3340.731
3337.637
3351.212
3377.485
3422.318
3483.733
3529.259
3564.123
3621.375
3702.404
3804.566
3926.758
4066.817
4221.737
4392.118
4576.344
4773.002
4980.571
5197.156
5418.175
5639.301
5857.37
6067.226
6263.782
6442.491
6598.051
6726.211
6825.588
6893.329
6914.737
6893.597
6831.457
6736.252
6612.434
6463.706
6294.337
6109.255
5913.463
5710.655
5504.549
5298.697
5096.412
4900.217
4711.839
4532.787
4363.42
4204.345
4055.995
3919.109
3793.476
3678.789
3574.43
3479.341
3392.391
3312.769
3240.042
3174.475
3116.456
3065.392
3020.386
2980.138
2943.27
2908.76
2876.042
2845.625
2816.457
2792.594
2774.621
2757.786
2740.261
2722.548
2705.308
2689.039
2674.182
2661.462
2650.824
2640.544
2629.604
2618.463
2608.991
2600.811
2594.834
2592.194
2589.84
2586.617
2581.492
2573.639
2565.167
2557.177
2550.303
2545.846
2542.733
2540.587
2539.017
2536.612
2532.39
2526.849
2520.7
2515.817
2513.481
2512.859
2514.297
2516.351
2517.709
2516.927
2515.049
2515.561
2518.169
2522
2526.022
2528.346
2529.089
2529.216
2529.842
2532.052
2537.544
2548.275
2565.738
2588.602
2611.933
2635.071
2657.025
2676.409
2689.438
2695.5
2700.053
2707.464
2716.319
2723.325
2723.975
2722.562
2721.726
2722.943
2726.984
2733.664
2741.843
2750.253
2758.813
2769.945
2782.885
2799.549
2822.175
2851.038
2886.609
2926.644
2969.424
3014.218
3055.902
3088.564
3111.247
3126.699
3136.413
3152.153
3183.564
3225.604
3270.759
3313.573
3351.183
3382.558
3407.366
3425.095
3435.264
3437.778
3432.938
3421.524
3404.91
3386.574
3372.974
3370.298
3381.665
3407.497
3446.998
3498.878
3561.131
3631.278
3706.749
3784.736
3862.243
3936.275
4003.932
4062.653
4110.758
4147
4170.016
4178.489
4172.078
4151.648
4117.767
4070.911
4014.038
3953.772
3898.773
3856.296
3830.008
3820.935
3828.922
3852.878
3890.631
3939.814
3998.79
4066.381
4141.278
4221.733
4305.031
4388.701
4471.726
4553.711
4634.22
4713.216
4791.042
4868.072
4944.52
5020.406
5095.295
5168.708
5240.261
5309.074
5374.281
5435.071
5490.625
5542.027
5592.813
5644.7
5695.952
5744.617
5790.092
5832.165
5870.715
5905.996
5938.562
5969.035
5998.124
6026.696
6055.159
6083.294
6110.795
6137.444
6163.219
6188.301
6212.875
6237.006
6260.743
6284.034
6306.807
6329.025
6350.684
6371.826
6392.468
6412.82
6432.851
6452.626
6471.928
6490.152
6507.397
6523.867
6539.651
6554.66
6568.736
6581.767
6593.707
6604.545
6614.282
6622.917
6630.456
6636.903
6642.28
6646.633
6650.009
6652.461
6654.052
6654.849
6654.928
6654.364
6653.237
6651.626
6649.602
6647.231
6644.578
6641.701
6638.657
6635.361
6631.752
6628.25
6624.713
6621.268
6618.152
6615.592
6613.748
6612.478
6611.146
6609.074
6605.89
6601.327
6595.113
6586.932
6576.56
6563.742
6548.346
6529.303
6504.949
6484.005
6463.877
6441.439
6418.689
6399.297
6387.309
6377.19
6367.509
6362.876
6357.594
6348.085
6327.703
6255.74
6236.825
6242.151
6248.301
6255.694
6313.011
6365.337
6381.668
6385.646
6387.906
6392.085
6395.757
6400.865
6406.605
6412.515
6419.863
6435.071
6457.758
6479.459
6500.187
6519.042
6534.431
6546.144
6554.733
6561.319
6566.334
6570.154
6573.192
6575.718
6577.938
6580.028
6582.073
6584.076
6585.976
6588.859
6592.796
6595.872
6599.447
6603.531
6607.894
6612.273
6616.565
6620.794
6624.935
6629.065
6633.203
6637.443
6641.394
6645.462
6649.684
6653.979
6658.166
6661.763
6664.751
6667.517
6669.661
6670.917
6671.896
6672.562
6672.908
6672.928
6672.724
6672.399
6671.949
6671.047
6669.631
6667.986
6666.265
6664.435
6662.467
6660.072
6657.258
6654.793
6651.776
6648.376
6644.528
6640.34
6635.778
6630.826
6625.486
6619.744
6613.681
6607.467
6600.884
6594.089
6587.284
6580.398
6573.478
6566.577
6559.676
6552.756
6545.817
6538.879
6531.969
6525.122
6518.374
6511.758
6505.304
6499.034
6492.962
6487.034
6481.328
6475.824
6470.51
6465.373
6460.4
6455.579
6450.899
6446.353
6441.933
6437.631
6433.429
6429.312
6425.26
6421.248
6417.256
6413.237
6409.19
6405.073
6400.864
6396.52
6392.007
6387.287
6382.324
6377.087
6371.552
6365.705
6359.538
6353.056
6346.268
6339.2
6331.88
6324.33
6316.581
6308.664
6300.609
6292.453
6284.232
6275.988
6267.745
6259.574
6251.461
6243.687
6236.337
6229.733
6223.868
6219.112
6213.572
3842.287
3798.902
3758.325
3715.63
3669.898
3622.863
3579.15
3537.355
3497.613
3460.752
3426.605
3396.118
3370.651
3351.431
3338.611
3333.57
3342.497
3361.757
3391.106
3428.211
3470.678
3524.684
3594.371
3681.203
3787.234
3911.096
4051.91
4208.597
4380.056
4565.157
4762.381
4969.407
5183.012
5400.581
5619.23
5834.861
6044.993
6240.188
6414.983
6564.082
6682.798
6766.334
6809.132
6821.136
6796.996
6735.017
6639.294
6514.562
6365.173
6195.58
6010.468
5814.707
5612.531
5407.896
5204.47
5005.146
4812.258
4627.359
4451.704
4285.805
4129.985
3984.512
3850.654
3729.348
3620.035
3521.257
3431.314
3348.717
3272.506
3202.562
3139.53
3084.348
3037.286
2996.773
2960.377
2926.232
2893.312
2861.188
2831.222
2805.46
2782.885
2764.571
2749.279
2733.84
2717.223
2699.955
2682.91
2667.849
2655.854
2645.754
2635.942
2625.081
2612.774
2601.864
2595.503
2591.278
2590.543
2590.541
2587.989
2582.148
2572.93
2562.965
2554.559
2547.353
2542.414
2539.488
2538.093
2537.774
2536.425
2531.926
2525.152
2517.745
2511.517
2508.452
2509.654
2513.314
2516.414
2517.215
2514.792
2511.184
2512.322
2517.705
2523.834
2527.945
2528.452
2526.164
2522.308
2518.534
2516.032
2517.407
2527.228
2545.713
2566.868
2589.846
2608.674
2623.554
2634.872
2642.858
2650.335
2657.084
2665.269
2676.784
2688.462
2695.904
2698.485
2699.943
2703.538
2711.641
2723.683
2736.538
2747.254
2755.058
2766.201
2779.006
2794.215
2815.244
2840.247
2871.96
2905.638
2938.645
2974.657
3011.278
3044.508
3074.842
3102.174
3127.603
3158.343
3198.212
3244.832
3293.655
3340.557
3381.973
3415.848
3441.473
3458.396
3466.046
3463.753
3451.249
3428.267
3395.391
3358.71
3328.208
3314.177
3319.577
3344.266
3386.942
3446.241
3519.393
3602.39
3691.703
3784.193
3876.418
3964.51
4044.766
4114.081
4169.969
4210.754
4235.024
4241.485
4229.622
4200.711
4154.494
4089.445
4008.838
3923.551
3846.81
3788.359
3752.909
3740.673
3749.834
3777.75
3820.295
3873.536
3936.429
4008.117
4087.444
4172.612
4260.801
4349.414
4436.963
4522.682
4606.048
4687.044
4766.222
4844.261
4921.587
4998.293
5074.138
5148.821
5221.924
5292.734
5360.619
5425.153
5485.888
5543.013
5597.911
5651.605
5703.607
5752.931
5799.046
5841.77
5881.156
5917.531
5951.371
5983.164
6013.468
6042.827
6071.435
6099.251
6126.281
6152.534
6177.966
6202.765
6227.165
6251.11
6274.5
6297.287
6319.448
6340.98
6361.936
6382.324
6402.241
6421.728
6440.812
6459.535
6477.644
6495.016
6511.714
6527.742
6543.017
6557.452
6570.97
6583.509
6595.028
6605.502
6614.919
6623.287
6630.605
6636.859
6642.064
6646.275
6649.538
6651.905
6653.437
6654.204
6654.283
6653.757
6652.711
6651.232
6649.397
6647.274
6644.929
6642.415
6639.799
6637.005
6634.112
6631.348
6628.565
6625.882
6623.405
6621.22
6619.355
6617.668
6615.767
6613.151
6609.442
6604.259
6597.365
6588.398
6576.898
6562.481
6544.839
6521.456
6499.69
6476.693
6454.848
6428.21
6400.424
6377.288
6365.298
6352.828
6343.62
6346.88
6346.661
6304.157
6201.951
6202.67
6261.676
6336.239
6359.632
6366.012
6369.158
6372.336
6376.536
6380.131
6382.959
6386.141
6389.799
6395.272
6402.662
6411.307
6422.191
6438.032
6458.494
6480.194
6501.471
6520.803
6536.881
6549.953
6559.756
6566.628
6571.204
6574.274
6576.507
6578.258
6579.677
6580.885
6581.968
6583.251
6585.365
6586.866
6588.728
6592.269
6596.447
6601.474
6607.263
6613.045
6618.465
6623.562
6628.153
6632.447
6636.581
6640.63
6644.492
6647.853
6651.492
6655.158
6658.901
6662.074
6664.681
6666.999
6668.729
6669.829
6670.797
6671.57
6672.176
6672.557
6672.631
6672.532
6672.26
6671.76
6671.012
6670.066
6668.918
6667.511
6665.79
6663.655
6661.13
6658.394
6655.266
6651.902
6647.623
6643.139
6638.278
6632.987
6627.283
6621.204
6614.825
6608.257
6601.247
6594.096
6587.09
6580.039
6573.02
6566.081
6559.163
6552.216
6545.231
6538.228
6531.242
6524.314
6517.493
6510.822
6504.334
6498.069
6492.109
6486.138
6480.481
6475.057
6469.838
6464.804
6459.937
6455.222
6450.649
6446.208
6441.895
6437.701
6433.615
6429.62
6425.695
6421.814
6417.952
6414.063
6410.115
6406.091
6401.973
6397.72
6393.286
6388.629
6383.704
6378.476
6372.918
6367.018
6360.77
6354.183
6347.279
6340.087
6332.654
6325.025
6317.243
6309.359
6301.425
6293.496
6285.62
6277.866
6270.279
6262.773
6255.59
6248.846
6242.476
6236.644
6231.182
6226.393
6219.768
4296.781
4243.077
4193.799
4145.676
4103.205
4055.025
4013.315
3971.936
3930.381
3888.394
3846.453
3804.485
3761.273
3718.173
3673.437
3623.675
3580.473
3538.734
3498.821
3461.14
3426.282
3394.971
3368.056
3346.363
3330.333
3321.638
3320.519
3331.048
3351.597
3381.961
3422.76
3476.657
3546.436
3633.706
3738.483
3860.376
3998.753
4152.723
4321.266
4502.999
4695.359
4896.006
5103.23
5315.412
5530.473
5743.475
5949.121
6140.379
6310.8
6454.464
6566.79
6645.012
6686.206
6691.43
6660.887
6594.907
6496.102
6368.732
6217.426
6046.91
5861.858
5667.016
5466.877
5265.383
5066.357
4872.725
4686.365
4508.711
4339.937
4180.22
4030.194
3890.275
3762.52
3648.203
3546.572
3455.465
3372.439
3295.496
3223.556
3156.79
3096.788
3045.751
3004.286
2970.016
2938.583
2907.527
2876.187
2844.766
2813.617
2787.057
2769.389
2754.746
2742.07
2729.235
2713.037
2694.505
2675.041
2657.641
2647.952
2640.141
2630.808
2621.621
2607.341
2591.981
2585.325
2588.846
2591.836
2593.568
2591.427
2585.005
2574.625
2560.626
2549.585
2544.558
2538.908
2535.137
2534.779
2536.801
2537.912
2532.153
2522.785
2512.7
2504.142
2500.601
2505.357
2512.939
2517.697
2518.217
2514.309
2508.882
2507.911
2516.336
2528.227
2532.443
2528.382
2520.648
2512.158
2505.099
2497.839
2492.445
2497.845
2519.961
2542.404
2565.451
2586.002
2594.357
2594.797
2592.498
2601.544
2610.491
2622.029
2638.649
2652.557
2664.911
2673.871
2676.608
2680.886
2692.217
2711.187
2731.227
2745.435
2752.719
2759.988
2768.681
2782.396
2804.243
2826.928
2855.288
2882.59
2905.665
2935.057
2968.723
3001.03
3038.188
3079.012
3113.159
3154.529
3206.804
3263.602
3319.155
3371.954
3419.486
3458.518
3486.391
3502.097
3507.26
3500.091
3478.681
3442.295
3386.515
3320.523
3264.148
3236.424
3236.039
3260.788
3308.41
3377.091
3462.813
3561.337
3668.561
3780.006
3891.233
3997.459
4093.704
4176.039
4242.086
4289.97
4317.056
4321.119
4303.207
4265.171
4204.829
4116.287
4002.403
3881.482
3775.336
3698.13
3654.086
3639.765
3651.478
3686.259
3737.13
3794.794
3862.681
3940.672
4026.576
4118.64
4213.473
4308.115
4400.953
4490.688
4576.63
4659.094
4739.108
4817.833
4895.928
4973.591
5050.73
5127.055
5202.2
5275.695
5347.101
5415.941
5481.58
5543.668
5602.665
5659.085
5712.8
5763.298
5810.341
5854.009
5894.523
5932.162
5967.243
6000.124
6031.171
6060.803
6089.314
6116.889
6143.652
6169.658
6194.953
6219.675
6243.886
6267.52
6290.526
6312.883
6334.569
6355.57
6375.908
6395.628
6414.839
6433.552
6451.835
6469.545
6486.677
6503.213
6519.104
6534.278
6548.677
6562.263
6575.004
6586.857
6597.78
6607.73
6616.671
6624.62
6631.59
6637.53
6642.436
6646.401
6649.453
6651.642
6653.029
6653.686
6653.696
6653.15
6652.145
6650.776
6649.131
6647.283
6645.328
6643.369
6641.139
6638.89
6637.127
6635.103
6633.016
6631.088
6629.279
6627.573
6625.923
6624.192
6622.091
6619.172
6615.065
6609.448
6602.003
6592.235
6578.248
6557.103
6539.754
6524.502
6503.791
6477.219
6447.932
6409.862
6340.556
6297.005
6298.789
6270.014
6252.054
6257.66
6316.499
6345.851
6349.952
6348.965
6348.486
6349.599
6352.696
6356.687
6360.882
6364.116
6368.929
6374.571
6379.108
6382.087
6385.402
6390.691
6398.622
6408.57
6421.041
6438.787
6460.299
6482.301
6503.818
6523.134
6539.22
6553.5
6563.773
6570.291
6574.346
6576.839
6578.469
6579.474
6580.355
6581.298
6582.156
6582.833
6584.083
6584.607
6585.075
6588.81
6592.45
6597.933
6605.396
6612.996
6619.384
6625.02
6630.512
6635.733
6640.138
6644.021
6647.708
6651.181
6654.491
6657.604
6660.529
6663.341
6665.689
6666.993
6666.948
6666.325
6668.096
6670.897
6672.228
6672.681
6672.789
6672.844
6672.921
6672.942
6672.719
6672.284
6671.594
6670.515
6669.019
6667.094
6664.736
6661.968
6658.712
6654.784
6650.836
6646.209
6641.077
6635.484
6629.44
6622.983
6616.181
6609.123
6601.762
6594.308
6586.972
6579.695
6572.562
6565.609
6558.702
6551.74
6544.696
6537.592
6530.482
6523.461
6516.561
6509.814
6503.26
6496.92
6490.743
6485.043
6479.492
6474.158
6469.037
6464.105
6459.339
6454.723
6450.245
6445.897
6441.679
6437.589
6433.618
6429.749
6425.958
6422.214
6418.485
6414.737
6410.935
6407.069
6403.094
6398.979
6394.677
6390.132
6385.289
6380.104
6374.549
6368.611
6362.287
6355.593
6348.56
6341.23
6333.663
6325.922
6318.073
6310.194
6302.361
6294.642
6287.087
6279.764
6272.596
6265.706
6259.09
6252.84
6246.79
6242.083
6237.521
6232.83
6225.874
4567.372
4541.695
4483.333
4414.495
4348.021
4289.497
4236.447
4188.002
4143.546
4099.364
4051.075
4010.03
3969.414
3928.603
3887.292
3845.475
3803.07
3759.837
3716.013
3672.505
3630.019
3587.203
3545.253
3504.506
3465.486
3428.638
3394.089
3362.613
3335.72
3314.49
3300.019
3294.071
3298.309
3313.542
3340.564
3380.235
3434.334
3504.205
3590.776
3694.149
3814.063
3950.068
4101.168
4265.634
4441.279
4626.603
4821.013
5023.698
5232.383
5443.047
5650.808
5849.846
6033.414
6194.804
6328.131
6428.849
6494.204
6522.793
6515.194
6473.457
6399.503
6295.557
6164.991
6011.878
5840.892
5656.815
5464.231
5267.907
5072.044
4879.913
4694.066
4516.635
4348.796
4189.747
4039.115
3898.029
3767.22
3649.097
3545.093
3453.985
3372.873
3298.953
3229.714
3163.366
3099.757
3042.365
2996.99
2963.848
2937.674
2912.985
2886.387
2856.955
2825.069
2793.117
2765.947
2751.069
2743.64
2736.457
2725.677
2709.281
2688.416
2665.008
2644.223
2634.948
2634.937
2628.005
2618.794
2600.121
2580.047
2570.359
2582.327
2593.453
2598.946
2598.137
2590.744
2576.717
2556.225
2541.793
2539.376
2532.834
2527.033
2528.792
2536.273
2541.287
2534.169
2520.851
2506.813
2493.821
2487.45
2498.032
2512.859
2520.504
2521.915
2514.341
2503.489
2500.336
2516.097
2536.96
2541.945
2531.722
2514.699
2495.691
2484.054
2471.354
2456.958
2460.868
2489.595
2518.732
2538.115
2558.506
2566.724
2566.368
2559.641
2551.27
2556.823
2572.779
2597.079
2617.56
2627.477
2645.215
2649.476
2658.804
2677.694
2704.477
2728.474
2745.532
2751.444
2754.122
2755.928
2765.267
2789.972
2812.683
2834.981
2858.072
2871.316
2894.066
2927.668
2959.822
2997.502
3050.68
3096.426
3146.739
3212.209
3282.652
3348.733
3408.896
3461.915
3507.718
3542.158
3559.368
3559.524
3548.529
3512.915
3461.434
3378.848
3275.068
3175.558
3132.117
3126.083
3153.089
3208.329
3291.923
3394.827
3509.965
3636.673
3771.226
3906.65
4035.346
4150.756
4248.868
4327.554
4384.334
4414.986
4416.006
4391.272
4344.447
4269.864
4153.606
3995.754
3826.098
3681.157
3582.854
3532.148
3517.141
3530.56
3559.787
3619.851
3702.011
3788.385
3870.036
3960.629
4061.687
4165.604
4267.481
4366.138
4459.94
4547.835
4630.765
4710.699
4789.508
4868.126
4946.74
5025.265
5103.501
5181.221
5258.091
5333.628
5407.178
5477.873
5544.989
5608.383
5668.071
5723.961
5775.938
5824.123
5868.805
5910.3
5948.904
5984.933
6018.726
6050.393
6080.361
6108.981
6136.489
6163.059
6188.822
6213.871
6238.289
6262.121
6285.364
6308.025
6330.076
6351.472
6372.181
6392.2
6411.554
6430.28
6448.385
6465.884
6482.722
6498.895
6514.369
6529.15
6543.197
6556.488
6569.019
6580.781
6591.742
6601.868
6611.117
6619.453
6626.912
6633.44
6638.918
6643.36
6646.989
6649.738
6651.659
6652.815
6653.277
6653.14
6652.507
6651.489
6650.196
6648.727
6647.164
6645.586
6644.035
6642.432
6641.066
6640.076
6638.887
6637.731
6636.667
6635.63
6634.562
6633.369
6631.842
6629.7
6626.665
6622.401
6616.681
6609.151
6598.401
6578.356
6561.011
6546.198
6529.588
6503.717
6474.821
6443.322
6398.554
6217.61
5807.703
5968.379
6255.13
6349.378
6353.8
6344.401
6337.355
6336.16
6331.664
6332.067
6333.405
6332.991
6316.574
6318.87
6342.239
6367.118
6374.915
6377.748
6379.875
6380.693
6378.207
6386.444
6403.757
6422.458
6441.147
6462.434
6483.345
6505.199
6525.732
6542.537
6556.709
6566.362
6572.458
6575.49
6573.393
6574.153
6577.728
6580.607
6581.484
6582.007
6582.193
6582.37
6582.444
6582.216
6585.527
6587.585
6592.566
6600.745
6605.093
6613.61
6625.871
6634.463
6639.636
6643.806
6647.516
6650.739
6653.151
6656.015
6659.097
6662.174
6664.741
6666.75
6666.233
6654.079
6656.814
6667.167
6672.018
6672.866
6673.136
6673.303
6673.016
6672.023
6672.539
6674.086
6674.645
6674.213
6673.344
6672.09
6670.41
6668.269
6665.629
6662.437
6658.67
6654.445
6649.611
6644.208
6638.284
6631.888
6625.035
6617.804
6610.276
6602.359
6594.579
6586.959
6579.312
6572.019
6565.111
6558.259
6551.181
6543.787
6536.693
6529.726
6522.637
6515.589
6508.729
6502.106
6495.746
6489.659
6483.898
6478.384
6473.129
6468.104
6463.27
6458.599
6454.075
6449.68
6445.411
6441.276
6437.282
6433.424
6429.686
6426.041
6422.453
6418.885
6415.302
6411.677
6407.986
6404.193
6400.267
6396.151
6391.772
6387.061
6381.962
6376.445
6370.496
6364.109
6357.307
6350.139
6342.653
6334.919
6327.017
6319.036
6311.111
6303.359
6295.845
6288.599
6281.712
6274.719
6267.4
6258.243
6250.08
6248.017
6247.638
6243.75
6238.933
6231.549
4543.868
4503.174
4423.057
4366.095
4311.564
4261.595
4215.413
4172.136
4130.82
4091.009
4052.516
4013.414
3974.024
3933.998
3893.349
3851.83
3809.402
3766.03
3721.718
3677.06
3633.549
3590.577
3548.127
3506.1
3464.478
3423.913
3385.42
3349.935
3318.946
3294.332
3277.337
3268.938
3270.481
3283.003
3307.722
3345.897
3398.907
3467.67
3552.787
3654.307
3771.906
3904.936
4051.807
4209.544
4377.674
4556.726
4746.461
4944.398
5147.312
5350.837
5549.641
5737.73
5908.584
6055.632
6173.172
6256.982
6304.786
6316.476
6293.824
6239.568
6156.642
6047.46
5914.499
5761.095
5591.307
5409.891
5221.343
5029.811
4840.285
4656.55
4480.729
4314.324
4157.726
4010.683
3873.142
3744.328
3623.526
3514.934
3422.678
3344.867
3276.261
3212.869
3152.371
3093.125
3033.932
2979.591
2935.044
2912.797
2902.029
2883.458
2862.088
2836.299
2804.595
2771.14
2742.106