/*--------------------------------*- C++ -*----------------------------------*\
| =========                 |                                                 |
| \\      /  F ield         | foam-extend: Open Source CFD                    |
|  \\    /   O peration     | Version:     3.1                                |
|   \\  /    A nd           | Web:         http://www.extend-project.de       |
|    \\/     M anipulation  |                                                 |
\*---------------------------------------------------------------------------*/
FoamFile
{
    version     2.0;
    format      ascii;
    class       volScalarField;
    location    "8.5";
    object      alpha1;
}
// * * * * * * * * * * * * * * * * * * * * * * * * * * * * * * * * * * * * * //

dimensions      [0 0 0 0 0 0 0];

internalField   nonuniform List<scalar> 
119952
(
1
0.9999997
0.9999998
0.9999999
0.9999998
0.9999999
0.9999998
0.9999999
0.9999998
0.9999999
0.9999999
0.9999996
0.9999999
0.9999997
0.9999998
0.9999996
0.9999997
0.9999997
0.9999998
0.9999998
0.9999999
0.9999996
0.9999998
0.9999996
0.9999999
0.9999998
0.9999998
0.9999999
0.9999999
0.9999999
1
0.9999999
1
0.9999999
0.9999999
0.9999999
1
1
0.9999998
0.9999999
1
1
0.9999997
0.9999998
1
1
0.9999999
0.9999998
0.9999999
1
0.9999998
0.9999998
0.9999999
0.9999999
0.9999998
0.9999998
0.9999999
0.9999999
0.9999996
0.9999994
0.9999997
0.9999999
1
1
0.9999992
0.9999983
0.999999
0.999999
0.9999993
0.9999997
0.9999997
0.9999996
0.9999997
0.999998
0.9999863
0.9999905
0.9999969
0.9999984
0.9999987
0.9999989
0.999998
0.9999932
0.9999919
0.9999938
0.9999848
0.9999654
0.9999584
0.9999809
0.9999916
0.9999958
0.9999976
0.9999988
0.9999997
0.9999995
0.999995
0.9999943
0.9999984
0.9999994
0.9999998
0.9999984
0.9999986
0.9999995
0.9999996
0.9999997
0.9999998
0.9999998
0.9999999
1
0.9999999
0.9999997
0.9999999
1
0.9999998
0.9999998
0.9999999
1
1
1
1
1
1
1
0.9999999
1
1
1
1
1
1
1
1
1
1
1
1
1
1
1
1
1
1
1
1
1
1
1
1
1
1
1
1
1
1
1
1
1
1
1
1
1
1
1
1
1
1
1
1
1
1
1
1
1
1
1
1
1
1
1
1
1
1
1
1
1
1
1
1
1
1
1
1
1
1
1
1
1
1
1
1
1
1
0.9999999
0.9999998
0.9999999
0.9999994
0.9999999
0.9999998
0.9999998
0.9999998
0.999998
0.9999996
0.9999998
0.9999999
0.9999977
0.9999997
0.9999981
0.9999997
0.9999995
0.9999974
0.9999992
0.9999995
0.9999986
0.9999996
0.9999993
0.9999969
0.9999969
0.9999997
0.9999999
0.9999969
0.9999969
0.9999994
0.9999996
0.9999968
0.9999968
0.9999993
0.9999998
0.9999967
0.9999967
0.9999969
0.9999997
0.9999999
0.9999965
0.9999996
0.9999965
0.9999973
0.9999998
0.9999992
0.9999969
0.9999991
0.9999991
0.999997
0.9999995
0.9999998
0.9999971
0.9999971
0.9999991
0.9999999
0.9999996
0.9999973
0.9999973
0.9999991
0.9999998
0.9999977
0.9999977
0.9999998
0.9999977
0.9999992
0.9999994
0.9999978
0.9999997
0.9999983
0.9999988
0.9999998
0.9999989
0.9999995
0.9999998
0.999998
0.9999985
0.9999998
0.9999995
0.999998
0.9999984
0.9999998
0.9999998
0.9999982
0.9999991
0.9999998
0.9999999
0.9999983
0.9999993
0.9999999
0.9999995
0.9999981
0.9999991
0.9999998
0.9999999
0.9999987
0.9999982
0.9999993
0.9999998
0.9999985
0.9999984
0.9999997
0.9999999
0.9999987
0.9999988
0.9999997
1
0.9999999
0.9999993
0.9999986
0.9999997
0.9999991
0.9999988
0.9999991
0.9999997
0.9999998
0.9999999
0.9999998
0.9999988
0.9999994
0.9999999
0.9999992
0.999999
0.9999998
0.9999999
0.9999999
0.9999997
0.9999995
0.9999989
0.9999997
0.9999998
0.9999989
0.9999988
0.9999998
0.9999999
0.9999999
0.9999989
0.9999996
0.9999999
0.9999995
0.9999991
0.9999997
0.9999998
0.9999999
0.999999
0.9999991
0.9999998
0.9999995
0.999999
0.9999997
0.9999999
1
0.9999995
0.9999989
0.9999998
0.9999999
0.9999999
1
0.9999997
0.9999994
0.9999998
0.9999999
0.9999999
0.9999989
0.9999996
0.9999999
0.9999994
0.9999994
0.9999998
0.9999999
0.9999999
0.9999995
0.9999995
0.9999998
0.9999999
0.9999999
0.9999989
0.9999996
0.9999998
0.9999999
0.9999999
0.9999996
0.9999998
0.9999999
0.9999999
0.9999997
0.9999991
0.9999997
0.9999999
0.9999999
0.9999998
0.9999993
0.9999998
0.9999999
0.9999999
0.9999999
1
0.9999998
0.9999994
0.9999998
0.9999999
0.9999999
0.9999997
0.9999999
0.9999995
1
1
1
1
1
1
1
1
1
1
1
1
1
1
1
1
0.9999999
0.9999999
1
1
0.9999998
0.9999996
0.9999997
0.9999999
0.9999998
0.9999995
0.9999994
0.9999996
0.9999998
0.9999998
0.999999
0.9999989
0.9999993
0.9999996
0.9999999
0.9999992
0.9999979
0.9999987
0.9999991
0.9999996
0.9999996
0.9999967
0.9999978
0.9999993
0.9999993
0.9999964
0.9999972
0.9999993
0.9999995
0.9999962
0.9999961
0.9999989
0.9999997
0.9999975
0.9999953
0.9999986
0.9999987
0.9999972
0.9999964
0.9999971
0.9999979
0.9999979
0.9999973
0.999997
0.9999971
0.9999972
0.9999976
0.9999983
0.9999989
0.9999995
0.9999994
0.999998
0.999994
0.9999916
0.9999928
0.9999954
0.9999971
0.999996
0.9999913
0.9999811
0.9999655
0.9999573
0.9999668
0.9999797
0.9999851
0.9999813
0.9999691
0.9999426
0.9998947
0.9998265
0.9997527
0.9996942
0.9996759
0.9997101
0.9997892
0.999877
0.9999389
0.9999728
0.9999888
0.9999904
0.9999827
0.9999737
0.9999732
0.9999765
0.9999799
0.9999835
0.9999869
0.9999889
0.9999901
0.9999909
0.9999919
0.9999934
0.9999955
0.9999973
0.9999982
0.9999985
0.9999988
0.9999991
0.9999993
0.9999994
0.9999995
0.9999997
0.9999998
0.9999996
0.9999994
0.9999992
0.9999992
0.9999994
0.9999996
0.9999998
0.9999999
0.9999999
0.9999999
0.9999999
0.9999999
1
1
1
1
1
1
1
1
1
1
1
1
1
1
1
1
1
1
1
1
1
1
1
1
1
1
1
1
1
1
1
1
1
1
1
1
0.9999999
0.9999999
0.9999999
1
1
1
1
1
1
1
1
1
1
1
1
1
1
1
1
1
1
1
1
1
1
1
1
1
1
1
1
1
1
1
1
1
1
1
1
1
1
1
1
1
1
1
1
0.9999999
0.9999999
0.9999999
0.9999999
1
1
0.9999997
0.9999995
0.9999998
0.9999999
1
0.9999998
0.999999
0.9999997
0.9999998
0.9999998
1
0.9999998
0.9999997
0.9999999
1
0.9999998
0.9999996
0.9999997
0.9999999
0.9999999
0.9999987
0.9999987
0.9999997
0.9999999
0.9999999
0.9999999
0.9999996
0.9999998
1
0.9999998
0.9999995
0.9999997
0.9999999
0.9999999
0.9999982
0.9999992
0.9999998
0.9999994
0.9999998
0.9999999
1
1
0.9999997
0.9999995
0.9999999
0.9999999
0.9999995
0.9999999
1
0.9999999
0.9999996
0.9999996
0.9999997
0.9999999
0.9999999
1
1
1
0.9999998
0.9999996
0.9999997
0.9999999
0.9999999
0.9999999
0.9999999
0.9999997
0.9999996
0.9999996
0.9999997
0.9999999
0.9999999
1
1
1
1
1
0.9999999
0.9999997
0.9999997
0.9999998
0.9999999
1
0.9999999
0.9999999
0.9999998
0.9999998
0.9999999
0.9999999
1
1
0.9999999
0.9999994
0.9999993
0.9999996
0.9999998
0.9999999
0.9999999
0.9999999
1
1
1
1
1
1
0.9999999
0.9999999
0.9999998
0.9999999
1
1
1
0.9999998
0.9999995
0.9999996
0.9999998
0.9999999
1
1
1
0.9999999
0.9999997
0.9999996
0.9999998
0.9999999
1
1
1
1
0.9999999
0.9999999
0.9999998
0.9999999
0.9999999
1
1
1
0.9999998
0.9999997
0.9999998
0.9999999
1
1
1
1
1
1
0.9999999
0.9999997
0.9999998
0.9999999
0.9999999
1
1
1
1
1
1
1
1
0.9999999
0.9999998
0.9999999
0.9999999
1
1
1
1
0.9999999
0.9999999
0.9999999
1
1
1
0.9999998
0.9999997
0.9999998
0.9999999
1
1
1
1
1
1
1
1
0.9999999
0.9999998
0.9999998
0.9999999
1
0.9999999
1
0.9999999
1
1
1
1
1
1
1
1
1
1
1
1
1
1
1
1
1
1
1
1
1
1
1
1
1
1
1
1
1
1
1
1
1
0.9999999
0.9999999
0.9999999
0.9999999
0.9999999
0.9999999
0.9999998
0.9999998
0.9999998
0.9999997
0.9999996
0.9999997
0.9999998
0.9999993
0.9999992
0.9999995
0.9999998
0.9999992
0.9999982
0.9999983
0.9999984
0.999998
0.9999974
0.9999972
0.9999973
0.9999972
0.9999966
0.9999961
0.9999961
0.9999964
0.9999965
0.9999957
0.9999944
0.999994
0.9999945
0.9999954
0.9999957
0.9999937
0.9999914
0.9999908
0.9999916
0.999993
0.9999934
0.9999913
0.9999881
0.9999862
0.9999866
0.9999885
0.9999895
0.9999879
0.9999854
0.9999855
0.9999868
0.9999877
0.9999876
0.9999878
0.9999888
0.9999899
0.9999899
0.9999892
0.9999899
0.999992
0.9999945
0.9999967
0.999997
0.9999925
0.9999899
0.9999909
0.9999933
0.9999953
0.9999972
0.9999985
0.9999971
0.9999904
0.999979
0.9999788
0.9999877
0.9999921
0.9999866
0.9999685
0.9999291
0.9998792
0.9998738
0.999922
0.9999569
0.9999512
0.9999215
0.9998583
0.9997343
0.9995145
0.9991831
0.9987839
0.9984732
0.9986059
0.9991368
0.9995704
0.9998023
0.9999127
0.9999631
0.9999836
0.9999765
0.9999574
0.9999351
0.9999172
0.9999092
0.9999192
0.9999457
0.9999572
0.9999375
0.9999195
0.9999311
0.9999535
0.9999745
0.9999881
0.9999938
0.999995
0.999995
0.9999959
0.9999974
0.9999984
0.9999988
0.999999
0.9999994
0.9999997
0.9999996
0.9999983
0.9999957
0.9999966
0.9999983
0.9999992
0.9999996
0.9999996
0.9999995
0.9999995
0.9999996
0.9999997
0.9999998
0.9999999
0.9999999
1
1
1
1
1
1
1
1
1
1
1
1
1
1
0.9999999
1
1
1
1
1
1
0.9999999
0.9999998
0.9999998
0.9999999
0.9999999
0.9999999
1
1
1
1
1
1
0.9999999
0.9999999
0.9999999
0.9999999
1
1
0.9999999
0.9999999
0.9999999
0.9999999
1
1
1
1
1
1
1
1
0.9999999
0.9999999
0.9999999
0.9999999
0.9999999
0.9999999
0.9999999
0.9999999
0.9999999
0.9999999
0.9999999
0.9999999
0.9999999
0.9999999
1
1
1
1
1
1
1
1
1
1
1
1
1
1
1
1
1
1
1
1
1
1
1
1
1
0.9999999
0.9999998
0.9999995
0.9999995
0.9999998
0.9999998
0.9999999
0.9999999
0.9999999
1
1
1
1
1
1
1
1
0.9999999
0.9999998
0.9999997
0.9999996
0.9999996
0.9999997
0.9999999
0.9999999
1
1
1
0.9999999
0.9999993
0.9999992
0.9999996
0.9999998
0.9999999
1
0.9999999
0.9999998
0.9999998
0.9999999
0.9999999
1
1
1
0.9999999
0.9999998
0.9999997
0.9999998
0.9999999
0.9999999
1
1
1
1
0.9999999
0.9999997
0.9999997
0.9999998
0.9999999
1
1
1
0.9999999
0.9999998
0.9999996
0.9999996
0.9999997
0.9999999
0.9999999
1
1
1
1
1
1
1
0.9999998
0.9999997
0.9999997
0.9999998
0.9999999
1
1
1
1
1
1
0.9999999
0.9999997
0.9999995
0.9999997
0.9999998
0.9999999
1
1
1
1
1
1
1
1
1
0.9999999
0.9999998
0.9999999
0.9999999
1
1
1
1
1
1
0.9999999
0.9999998
0.9999995
0.9999995
0.9999996
0.9999998
0.9999999
1
0.9999999
0.9999999
0.9999998
0.9999998
0.9999998
0.9999999
0.9999999
1
1
1
1
1
0.9999999
0.9999998
0.9999999
0.9999999
1
1
1
1
1
1
1
0.9999999
0.9999998
0.9999998
0.9999999
0.9999999
1
1
1
1
0.9999999
0.9999999
0.9999999
0.9999999
0.9999999
1
1
0.9999999
0.9999999
0.9999999
0.9999999
1
1
1
1
1
0.9999999
0.9999999
0.9999999
0.9999999
0.9999999
1
1
1
1
1
0.9999999
0.9999999
0.9999999
0.9999999
1
1
1
1
1
1
1
0.9999999
1
1
1
1
0.9999999
1
1
1
0.9999999
1
1
1
1
1
1
1
1
1
1
1
1
1
1
1
1
1
1
1
1
1
1
1
1
1
1
1
1
1
0.9999999
0.9999999
0.9999999
0.9999999
0.9999998
0.9999998
0.9999998
0.9999997
0.9999996
0.9999995
0.9999994
0.9999992
0.9999991
0.9999989
0.9999987
0.9999984
0.9999981
0.9999978
0.9999974
0.999997
0.9999966
0.9999961
0.9999957
0.9999952
0.9999943
0.9999936
0.9999934
0.9999932
0.9999923
0.9999909
0.9999903
0.9999908
0.9999914
0.9999903
0.9999873
0.9999852
0.9999857
0.9999881
0.9999898
0.9999865
0.99998
0.9999773
0.9999796
0.9999845
0.9999879
0.9999824
0.9999702
0.999965
0.9999684
0.9999758
0.9999813
0.9999746
0.9999587
0.9999513
0.9999561
0.9999652
0.999969
0.9999607
0.9999522
0.9999538
0.9999607
0.9999659
0.9999654
0.999964
0.9999666
0.9999713
0.9999751
0.999976
0.9999762
0.9999783
0.9999829
0.9999891
0.9999924
0.9999924
0.9999847
0.9999746
0.9999785
0.9999867
0.9999936
0.9999917
0.9999774
0.9999502
0.9999535
0.9999775
0.999979
0.9999555
0.9998845
0.9997397
0.9996145
0.9997285
0.9998808
0.9998978
0.999817
0.9996439
0.9993089
0.9986932
0.997651
0.9961158
0.9944677
0.994977
0.9972153
0.9986757
0.999382
0.9997078
0.9998611
0.9999372
0.9999607
0.9999317
0.999864
0.9997499
0.9995961
0.999529
0.9996713
0.9998429
0.9999301
0.9998218
0.9998048
0.9998048
0.9998664
0.9999491
0.9999768
0.9999822
0.9999806
0.9999823
0.9999894
0.999995
0.9999978
0.9999988
0.9999978
0.9999983
0.9999991
0.9999994
0.9999978
0.9999955
0.9999955
0.9999978
0.9999992
0.9999994
0.9999989
0.9999982
0.9999977
0.9999978
0.9999986
0.9999993
0.9999997
0.9999998
0.9999998
0.9999999
0.9999999
0.9999999
1
1
1
1
1
1
1
1
1
1
0.9999999
0.9999999
0.9999999
0.9999999
0.9999999
0.9999999
1
1
0.9999999
0.9999997
0.9999995
0.9999996
0.9999997
0.9999999
0.9999999
1
0.9999999
0.9999998
0.9999998
0.9999998
0.9999998
0.9999998
0.9999999
0.9999999
0.9999999
0.9999999
0.9999997
0.9999997
0.9999998
0.9999999
0.9999999
1
1
1
1
1
1
1
1
1
0.9999999
0.9999997
0.9999996
0.9999997
0.9999998
0.9999998
0.9999997
0.9999996
0.9999996
0.9999997
0.9999998
0.9999998
0.9999999
0.9999999
0.9999999
0.9999999
0.9999999
0.9999999
0.9999999
0.9999999
0.9999999
0.9999999
0.9999999
1
1
1
1
1
0.9999999
0.9999998
0.9999998
0.9999998
0.9999999
0.9999999
1
1
1
1
1
0.9999999
0.9999995
0.9999994
0.9999996
0.9999997
0.9999998
0.9999999
1
1
1
1
1
0.9999998
0.9999997
0.9999997
0.9999997
0.9999998
0.9999999
1
1
1
0.9999999
0.9999996
0.9999996
0.9999996
0.9999996
0.9999998
0.9999998
0.9999999
0.9999999
1
1
1
0.9999999
0.9999997
0.9999994
0.9999994
0.9999994
0.9999997
0.9999999
1
1
0.9999998
0.9999996
0.9999997
0.9999998
0.9999999
1
1
1
0.9999999
0.9999998
0.9999999
0.9999999
1
1
1
1
1
0.9999999
0.9999997
0.9999996
0.9999997
0.9999998
0.9999999
1
1
1
1
1
1
1
0.9999999
0.9999999
0.9999998
0.9999999
0.9999999
1
1
1
1
1
1
1
1
0.9999998
0.9999997
0.9999999
0.9999999
1
1
1
1
1
1
1
1
1
0.9999998
0.9999998
0.9999998
0.9999999
1
1
1
1
1
1
0.9999999
0.9999997
0.9999997
0.9999998
0.9999999
0.9999999
1
1
0.9999999
0.9999998
0.9999998
0.9999999
0.9999999
1
1
1
1
1
1
1
1
1
0.9999999
0.9999999
0.9999999
0.9999999
0.9999999
1
1
1
1
1
1
1
0.9999999
0.9999998
0.9999998
0.9999998
0.9999998
0.9999999
1
1
1
1
1
1
0.9999999
0.9999999
0.9999999
0.9999999
0.9999999
1
1
1
1
1
0.9999999
0.9999999
0.9999999
1
1
1
1
1
1
1
1
1
0.9999999
0.9999999
0.9999999
1
1
1
1
1
1
1
1
1
1
1
1
1
1
1
1
1
1
1
1
1
1
1
1
1
1
1
1
1
1
1
1
1
1
1
1
1
1
1
1
1
1
1
1
1
1
1
1
1
1
1
1
1
0.9999999
0.9999999
0.9999999
0.9999999
0.9999998
0.9999998
0.9999997
0.9999996
0.9999995
0.9999994
0.9999992
0.999999
0.9999987
0.9999983
0.9999979
0.9999974
0.9999968
0.9999961
0.9999953
0.9999944
0.9999934
0.9999922
0.9999908
0.9999894
0.9999882
0.999987
0.9999854
0.9999829
0.9999801
0.9999787
0.9999787
0.9999777
0.9999735
0.999968
0.9999666
0.9999705
0.9999749
0.9999703
0.9999563
0.9999475
0.9999515
0.9999631
0.9999718
0.9999592
0.999932
0.9999209
0.9999314
0.9999516
0.9999654
0.9999453
0.9999005
0.99988
0.9998955
0.9999256
0.9999419
0.9999128
0.99986
0.9998411
0.9998655
0.9999021
0.9999113
0.9998765
0.9998489
0.9998611
0.9998904
0.9999126
0.9999119
0.9998999
0.9999091
0.9999302
0.999942
0.9999388
0.9999341
0.9999486
0.9999694
0.9999847
0.9999921
0.9999819
0.9999519
0.99994
0.9999606
0.9999816
0.9999743
0.9999336
0.9998806
0.9999223
0.9999622
0.9999396
0.9998437
0.9995762
0.9991164
0.9992007
0.9996287
0.999846
0.9997114
0.9993002
0.9984092
0.9967106
0.9936897
0.9887723
0.9824837
0.9849856
0.9924064
0.9964571
0.998239
0.9989813
0.9993793
0.9996494
0.9998276
0.9998909
0.9997959
0.9994805
0.9987924
0.9981974
0.9986952
0.9993537
0.999699
0.9998521
0.9999222
0.9999265
0.9999409
0.9999607
0.9999281
0.9999106
0.9999094
0.9999338
0.9999653
0.999984
0.9999927
0.9999963
0.999998
0.9999979
0.9999964
0.999996
0.9999967
0.9999979
0.9999987
0.9999986
0.9999975
0.999998
0.9999983
0.9999974
0.9999934
0.9999902
0.9999932
0.999997
0.9999988
0.9999994
0.9999994
0.9999993
0.9999994
0.9999995
0.9999997
0.9999998
0.9999999
1
1
1
0.9999999
0.9999999
0.9999999
0.9999999
1
1
1
1
0.9999999
0.9999998
0.9999997
0.9999998
0.9999999
0.9999999
0.9999999
0.9999997
0.9999995
0.9999995
0.9999997
0.9999999
0.9999999
0.9999999
0.9999998
0.9999996
0.9999992
0.9999991
0.9999994
0.9999997
0.9999997
0.9999996
0.9999995
0.9999994
0.9999994
0.9999996
0.9999997
0.9999998
0.9999999
0.9999999
0.9999999
1
1
1
1
1
1
1
0.9999999
0.9999995
0.9999989
0.9999989
0.9999991
0.9999994
0.9999997
0.9999997
0.9999995
0.9999995
0.9999995
0.9999995
0.9999995
0.9999997
0.9999998
0.9999997
0.9999997
0.9999997
0.9999997
0.9999997
0.9999998
0.9999998
0.9999999
1
1
1
1
1
0.9999999
0.9999996
0.9999994
0.9999996
0.9999998
0.9999999
0.9999999
1
1
1
0.9999999
0.9999996
0.9999987
0.9999987
0.9999993
0.9999997
0.9999998
0.9999999
1
1
1
1
1
1
0.9999999
0.9999998
0.9999998
0.9999998
0.9999999
0.9999999
1
1
0.9999999
0.9999996
0.9999996
0.9999998
0.9999999
1
1
0.9999999
0.9999996
0.9999995
0.9999995
0.9999996
0.9999999
0.9999999
0.9999999
0.9999999
1
1
1
0.9999999
0.9999997
0.9999996
0.9999996
0.9999996
0.9999998
0.9999999
1
1
1
0.9999999
0.9999998
0.9999998
0.9999999
1
1
0.9999999
0.9999997
0.9999997
0.9999997
0.9999998
0.9999999
1
1
1
1
1
1
1
1
0.9999999
0.9999999
0.9999999
1
1
1
1
1
1
1
1
1
1
0.9999999
0.9999998
0.9999998
0.9999999
0.9999999
1
1
1
1
1
1
1
1
1
0.9999999
0.9999998
0.9999998
0.9999999
1
1
1
1
1
1
1
1
1
1
1
1
1
1
1
1
1
0.9999999
0.9999998
0.9999998
0.9999999
0.9999999
1
1
1
1
1
1
1
0.9999999
0.9999999
0.9999999
0.9999999
0.9999999
1
1
1
1
0.9999999
0.9999998
0.9999998
0.9999999
0.9999999
1
1
1
1
1
1
1
1
1
1
1
1
1
1
0.9999999
0.9999999
0.9999999
0.9999999
0.9999999
0.9999999
1
1
1
1
1
1
0.9999999
0.9999999
0.9999999
0.9999999
0.9999999
1
1
1
1
1
1
1
1
1
1
1
1
1
1
1
1
1
1
1
1
1
1
1
1
1
1
1
1
1
1
1
1
1
1
1
1
1
1
1
1
1
1
1
1
1
1
1
1
1
1
1
1
1
1
1
1
1
1
1
1
1
1
1
1
1
0.9999999
0.9999999
0.9999999
0.9999998
0.9999997
0.9999997
0.9999995
0.9999993
0.9999991
0.9999988
0.9999984
0.9999979
0.9999972
0.9999964
0.9999954
0.9999941
0.9999926
0.9999908
0.9999886
0.9999861
0.9999834
0.9999805
0.9999771
0.9999729
0.999968
0.9999633
0.9999598
0.9999567
0.999951
0.9999414
0.9999322
0.99993
0.9999331
0.9999292
0.9999108
0.9998914
0.9998927
0.9999131
0.9999292
0.999905
0.9998523
0.9998275
0.9998511
0.999897
0.999918
0.9998626
0.9997727
0.999748
0.9997975
0.9998706
0.9998902
0.9997985
0.9996615
0.9996303
0.9997106
0.9998065
0.999797
0.9996643
0.9995245
0.9995321
0.9996486
0.9997569
0.9997305
0.99962
0.9995839
0.9996282
0.9996829
0.9997246
0.9997753
0.9998187
0.9998198
0.9998005
0.9998021
0.9998549
0.9999061
0.9999312
0.9999515
0.9999734
0.9999667
0.9999051
0.9998585
0.9999183
0.9999587
0.9999247
0.9997956
0.9997859
0.9999098
0.99991
0.9997931
0.9994044
0.9984739
0.9980003
0.9989786
0.9996301
0.9996815
0.9991852
0.9974392
0.9931095
0.9848317
0.9703719
0.9500702
0.9609608
0.9815626
0.9915335
0.994883
0.9957876
0.9967249
0.9977812
0.9986949
0.9993441
0.9996253
0.9992993
0.9980085
0.9959475
0.9964474
0.9981715
0.999157
0.999616
0.9998279
0.9999279
0.9999607
0.9999607
0.9999607
0.9999201
0.9997956
0.9998106
0.9999042
0.9999554
0.9999767
0.9999843
0.9999887
0.9999932
0.9999958
0.9999942
0.9999917
0.9999927
0.999996
0.9999984
0.9999987
0.9999985
0.9999963
0.9999901
0.9999785
0.99998
0.99999
0.9999952
0.9999978
0.9999986
0.999998
0.9999974
0.9999973
0.9999976
0.9999984
0.9999991
0.9999995
0.9999998
0.9999999
0.9999999
0.9999999
0.9999999
0.9999999
0.9999999
0.9999999
0.9999999
0.9999999
0.9999999
1
1
0.9999999
0.9999997
0.9999996
0.9999996
0.9999998
0.9999999
0.9999999
0.9999999
0.9999999
0.9999999
0.9999999
0.9999999
0.9999998
0.9999996
0.9999992
0.9999982
0.9999988
0.9999995
0.9999997
0.9999995
0.9999985
0.9999979
0.9999983
0.9999988
0.999999
0.9999992
0.9999994
0.9999995
0.9999997
0.9999998
0.9999998
0.9999999
0.9999999
1
1
1
1
0.9999999
0.9999996
0.9999982
0.9999974
0.9999975
0.9999988
0.9999995
0.9999998
0.9999999
0.9999999
0.9999999
0.9999999
0.9999999
0.9999999
0.9999994
0.9999985
0.9999983
0.9999987
0.9999989
0.9999992
0.9999995
0.9999997
0.9999998
0.9999999
0.9999999
0.9999999
1
1
0.9999999
0.9999995
0.9999992
0.9999992
0.9999996
0.9999998
0.9999998
0.9999999
0.9999999
1
0.9999999
0.9999997
0.999999
0.9999986
0.9999987
0.9999994
0.9999997
0.9999998
0.9999998
0.9999999
0.9999999
0.9999998
0.9999998
0.9999998
0.9999998
0.9999998
0.9999998
0.9999998
0.9999999
1
1
0.9999998
0.9999996
0.9999996
0.9999997
0.9999999
0.9999999
1
1
0.9999999
0.9999996
0.9999995
0.9999997
0.9999998
0.9999999
1
0.9999999
0.9999998
0.9999999
0.9999999
0.9999999
0.9999998
0.9999996
0.9999996
0.9999998
0.9999999
1
1
1
0.9999999
0.9999997
0.9999996
0.9999996
0.9999996
0.9999998
0.9999999
0.9999999
0.9999999
1
0.9999999
0.9999998
0.9999996
0.9999996
0.9999997
0.9999999
0.9999999
0.9999999
0.9999999
0.9999999
0.9999999
1
1
0.9999999
0.9999999
0.9999999
0.9999999
0.9999999
1
1
1
0.9999999
0.9999999
0.9999999
0.9999999
1
1
1
0.9999999
0.9999999
0.9999999
0.9999999
1
1
1
1
1
1
0.9999999
0.9999999
0.9999999
0.9999999
1
1
1
1
1
1
0.9999999
0.9999999
0.9999999
1
1
1
1
1
0.9999999
0.9999999
0.9999999
1
1
1
1
1
1
1
0.9999999
0.9999999
1
1
0.9999999
0.9999999
0.9999999
0.9999999
1
1
1
1
1
1
1
0.9999999
0.9999999
0.9999999
1
1
1
1
1
1
0.9999999
0.9999999
0.9999999
0.9999999
1
1
1
1
1
1
1
0.9999999
0.9999999
0.9999999
1
1
1
1
0.9999999
0.9999999
0.9999999
0.9999999
0.9999999
0.9999999
0.9999999
0.9999999
0.9999999
1
1
1
1
1
1
1
1
1
1
1
1
1
1
1
1
1
1
1
1
1
1
1
1
1
1
1
1
1
1
1
1
1
1
1
1
1
1
1
1
1
1
1
1
1
1
1
1
1
1
1
1
1
1
1
1
1
1
1
1
1
1
1
1
1
1
1
1
0.9999999
0.9999999
0.9999999
0.9999998
0.9999997
0.9999996
0.9999994
0.9999992
0.9999989
0.9999984
0.9999978
0.9999969
0.9999958
0.9999944
0.9999925
0.9999902
0.9999872
0.9999836
0.9999791
0.9999736
0.9999671
0.9999596
0.9999512
0.9999422
0.9999324
0.9999207
0.9999064
0.9998904
0.9998767
0.9998679
0.9998578
0.9998356
0.9998018
0.9997789
0.9997854
0.9997981
0.9997695
0.9996973
0.9996533
0.9996917
0.9997724
0.9997856
0.9996627
0.9995021
0.9994861
0.9996087
0.9997506
0.9997173
0.9994794
0.9992519
0.9992985
0.9995156
0.9996878
0.9995629
0.9991851
0.9989164
0.9990698
0.9993709
0.999432
0.9991372
0.9986808
0.9985579
0.9988844
0.9992745
0.9993703
0.9991401
0.998837
0.9987138
0.9988865
0.9992526
0.9995812
0.9996425
0.999483
0.9994246
0.9995845
0.9997309
0.9997624
0.9997202
0.9997944
0.9999025
0.9999011
0.9998202
0.9997901
0.999877
0.9998977
0.9997604
0.9995502
0.9997658
0.999868
0.9997371
0.9992087
0.9977206
0.9958422
0.9972776
0.9987842
0.9994412
0.9991788
0.9976954
0.991606
0.9716764
0.9292053
0.873346
0.9058913
0.9579798
0.9817326
0.9863821
0.9832768
0.9826332
0.9856945
0.9901773
0.9941583
0.9969651
0.9983685
0.997581
0.9941871
0.9917376
0.9945115
0.9972557
0.9986926
0.9993899
0.9997278
0.9998879
0.9999572
0.9999607
0.9999328
0.9997709
0.9996261
0.9997507
0.9998605
0.9999109
0.9999314
0.9999474
0.9999696
0.9999861
0.9999897
0.9999841
0.9999778
0.9999854
0.9999934
0.9999976
0.9999987
0.9999968
0.999988
0.9999643
0.9999619
0.9999797
0.9999911
0.9999962
0.9999978
0.9999961
0.9999938
0.9999914
0.9999904
0.9999926
0.9999959
0.999998
0.9999991
0.9999996
0.9999998
0.9999999
0.9999999
0.9999998
0.9999997
0.9999997
0.9999996
0.9999996
0.9999997
0.9999997
0.9999998
0.9999998
0.9999999
0.9999999
0.9999999
0.9999999
0.9999999
0.9999999
0.9999999
0.9999997
0.9999996
0.9999997
0.9999999
0.9999999
0.9999999
0.9999995
0.9999982
0.999998
0.9999983
0.9999992
0.9999996
0.9999996
0.9999995
0.9999983
0.9999974
0.9999974
0.9999974
0.9999974
0.9999978
0.9999983
0.9999989
0.9999994
0.9999997
0.9999998
0.9999999
0.9999999
0.9999999
1
1
1
0.9999998
0.9999992
0.9999976
0.9999979
0.9999989
0.9999995
0.9999998
0.9999999
0.9999999
0.9999999
0.9999999
0.9999999
0.9999999
0.9999999
0.9999996
0.9999981
0.9999955
0.9999963
0.9999976
0.9999986
0.9999992
0.9999996
0.9999997
0.9999996
0.9999996
0.9999996
0.9999997
0.9999998
0.9999999
0.9999999
0.9999998
0.9999993
0.9999992
0.9999992
0.9999992
0.9999993
0.9999996
0.9999998
0.9999999
0.9999999
0.9999999
0.9999999
0.9999999
0.9999997
0.9999988
0.9999986
0.9999986
0.999999
0.9999996
0.9999998
0.9999999
1
1
1
1
0.9999999
0.9999999
0.9999999
0.9999999
0.9999999
0.9999999
0.9999998
0.9999997
0.9999997
0.9999997
0.9999998
0.9999999
1
1
1
0.9999999
0.9999997
0.9999998
0.9999999
0.9999999
0.9999999
0.9999999
0.9999998
0.9999996
0.9999996
0.9999996
0.9999996
0.9999996
0.9999996
0.9999998
0.9999999
1
1
1
0.9999999
0.9999997
0.9999995
0.9999995
0.9999995
0.9999997
0.9999999
1
1
1
1
1
0.9999998
0.9999996
0.9999996
0.9999996
0.9999996
0.9999996
0.9999998
0.9999999
0.9999999
0.9999999
0.9999999
0.9999999
0.9999999
0.9999999
0.9999999
0.9999999
1
1
0.9999999
0.9999998
0.9999999
0.9999999
1
1
1
1
1
1
1
0.9999999
0.9999999
0.9999999
0.9999999
1
1
1
1
1
1
1
1
1
1
0.9999999
0.9999999
0.9999999
0.9999999
1
1
1
1
0.9999999
0.9999999
0.9999999
0.9999999
0.9999999
1
1
1
1
1
1
1
1
1
0.9999999
0.9999999
0.9999999
0.9999999
0.9999999
0.9999999
1
1
1
1
0.9999999
0.9999999
0.9999999
1
1
1
1
1
1
1
1
1
1
0.9999999
0.9999999
0.9999999
0.9999999
0.9999999
1
1
1
1
1
1
0.9999999
0.9999999
0.9999999
0.9999999
1
1
1
1
0.9999999
0.9999999
0.9999999
0.9999999
0.9999999
0.9999999
0.9999999
1
1
1
1
1
1
1
1
1
1
1
1
1
1
1
1
1
1
1
1
1
1
1
1
1
1
1
1
1
1
1
1
1
1
1
1
1
1
1
1
1
1
1
1
1
1
1
1
1
1
1
1
1
1
1
1
1
1
1
1
1
1
1
1
0.9999999
0.9999999
0.9999999
0.9999998
0.9999997
0.9999996
0.9999994
0.9999991
0.9999986
0.999998
0.9999972
0.9999959
0.9999943
0.999992
0.9999889
0.9999848
0.9999795
0.9999727
0.9999642
0.9999535
0.9999405
0.9999246
0.9999056
0.9998833
0.9998579
0.9998303
0.9998008
0.9997682
0.999729
0.999682
0.9996349
0.9996009
0.9995776
0.9995352
0.9994485
0.9993529
0.9993323
0.999386
0.99938
0.9992148
0.9990074
0.9990188
0.9992387
0.9994145
0.9992253
0.9987416
0.9984633
0.9987167
0.9991751
0.9993026
0.9988125
0.9980397
0.997904
0.9984686
0.9990538
0.9989061
0.9980134
0.9971467
0.9974406
0.9982026
0.998319
0.9975307
0.9962915
0.9960628
0.9970725
0.9980701
0.9982216
0.9975387
0.9963356
0.995763
0.9968149
0.9982151
0.9990156
0.9990801
0.9988104
0.9988377
0.9990774
0.9990871
0.9990661
0.9994588
0.9997533
0.999865
0.9997665
0.9994782
0.9994075
0.9996992
0.9997318
0.9994168
0.9994901
0.9997336
0.9996335
0.9991135
0.9972433
0.9924399
0.993295
0.9965063
0.9978902
0.9982417
0.9973622
0.9924277
0.9739022
0.8995398
0.6986464
0.7646317
0.8998865
0.9600543
0.9713657
0.9547454
0.9356696
0.928842
0.9386468
0.956952
0.9741677
0.9861153
0.9923437
0.9917612
0.9859088
0.984835
0.9906635
0.9953515
0.9978135
0.9990182
0.9995881
0.9998395
0.9999372
0.9999448
0.9998411
0.9995327
0.999406
0.9994613
0.9995459
0.9996308
0.9997654
0.9998842
0.9999516
0.9999739
0.9999564
0.9999338
0.9999578
0.9999809
0.9999923
0.9999973
0.9999964
0.9999876
0.9999554
0.9999536
0.9999774
0.9999888
0.999995
0.9999969
0.9999945
0.9999873
0.9999735
0.9999615
0.9999693
0.9999842
0.9999928
0.9999968
0.9999986
0.9999994
0.9999997
0.9999999
0.9999998
0.9999996
0.9999993
0.9999989
0.9999985
0.9999986
0.9999992
0.9999996
0.9999996
0.9999996
0.9999997
0.9999998
0.9999998
0.9999999
0.9999999
0.9999999
0.9999999
0.9999998
0.9999992
0.9999992
0.9999995
0.9999998
0.9999998
0.9999998
0.9999994
0.9999984
0.999998
0.9999982
0.9999991
0.9999992
0.9999992
0.9999993
0.9999993
0.9999993
0.9999987
0.9999943
0.9999927
0.9999953
0.9999974
0.9999987
0.9999994
0.9999997
0.9999998
0.9999998
0.9999998
0.9999998
0.9999999
0.9999999
0.9999999
0.9999998
0.9999997
0.9999996
0.9999995
0.9999997
0.9999998
0.9999999
0.9999999
0.9999999
0.9999999
0.9999999
0.9999999
0.9999999
0.9999999
0.9999996
0.9999979
0.9999916
0.9999923
0.9999956
0.9999975
0.9999987
0.9999994
0.9999997
0.9999998
0.9999998
0.9999992
0.9999985
0.9999988
0.9999992
0.9999995
0.9999998
0.9999999
0.9999999
0.9999997
0.9999992
0.9999992
0.9999992
0.9999993
0.9999997
0.9999999
0.9999999
0.9999999
0.9999998
0.999999
0.9999988
0.9999993
0.9999996
0.9999998
0.9999999
0.9999999
1
1
1
1
1
0.9999998
0.9999993
0.9999994
0.9999996
0.9999998
0.9999999
0.9999999
0.9999999
0.9999999
0.9999999
0.9999999
0.9999999
0.9999999
1
0.9999999
0.9999996
0.9999995
0.9999996
0.9999998
0.9999999
0.9999998
0.9999996
0.9999996
0.9999996
0.9999996
0.9999996
0.9999996
0.9999998
0.9999999
1
1
0.9999998
0.9999996
0.9999995
0.9999995
0.9999997
0.9999999
0.9999999
0.9999999
0.9999999
1
1
1
1
1
1
1
1
1
1
1
0.9999999
0.9999996
0.9999996
0.9999996
0.9999996
0.9999996
0.9999996
0.9999998
0.9999999
0.9999999
1
1
0.9999999
0.9999998
0.9999998
0.9999998
0.9999999
0.9999999
1
1
1
1
1
0.9999999
0.9999999
0.9999999
0.9999999
0.9999999
0.9999999
1
1
1
1
1
1
1
1
1
0.9999999
0.9999999
0.9999999
0.9999999
1
1
1
1
1
0.9999999
0.9999999
0.9999999
0.9999999
0.9999999
1
1
1
1
1
1
1
1
1
1
0.9999999
0.9999999
0.9999999
0.9999999
0.9999999
1
1
1
0.9999999
0.9999999
0.9999999
0.9999999
0.9999999
1
1
1
1
1
1
1
0.9999999
0.9999999
0.9999999
0.9999999
1
1
1
1
1
0.9999999
0.9999999
0.9999999
0.9999999
0.9999999
0.9999999
1
1
1
1
1
1
1
1
0.9999999
0.9999999
0.9999999
0.9999999
0.9999999
1
1
0.9999999
0.9999994
0.9999999
0.9999978
0.9999987
0.9999988
0.9999993
0.9999998
0.9999984
0.9999977
0.9999991
0.9999996
0.9999986
0.9999995
0.9999994
0.9999999
1
1
1
1
1
1
1
1
1
1
1
1
1
1
1
1
1
1
1
1
1
1
1
1
1
1
1
1
1
1
1
1
1
1
1
1
1
1
1
1
1
1
1
1
1
1
1
1
1
1
1
1
1
1
1
1
1
1
1
1
0.9999999
0.9999999
0.9999998
0.9999997
0.9999996
0.9999994
0.999999
0.9999985
0.9999977
0.9999966
0.999995
0.9999927
0.9999894
0.9999849
0.9999786
0.99997
0.9999586
0.9999435
0.9999241
0.9998993
0.9998684
0.9998304
0.9997843
0.9997293
0.9996647
0.9995906
0.9995085
0.9994205
0.9993263
0.9992195
0.9990928
0.998954
0.998835
0.9987554
0.9986666
0.9984803
0.9982095
0.9980561
0.9981527
0.9982455
0.9979614
0.9973722
0.9971778
0.997668
0.9982664
0.9980558
0.9968987
0.9958245
0.996261
0.9975031
0.9981175
0.997119
0.9950573
0.9943273
0.9957186
0.9972566
0.997066
0.9950514
0.992992
0.9936036
0.995094
0.9949211
0.9927177
0.9900505
0.990397
0.9928325
0.9945747
0.9940928
0.9910763
0.9874816
0.9892491
0.9935136
0.9963157
0.9973737
0.9972788
0.9967876
0.9964668
0.9968564
0.9979355
0.9989385
0.9995307
0.9997344
0.9996009
0.9989124
0.9984401
0.9990208
0.9995672
0.9993731
0.9990673
0.9993453
0.9993565
0.9987466
0.9968144
0.9914229
0.989336
0.9911441
0.9931415
0.9930183
0.9923252
0.9911975
0.9787426
0.8943905
0.6823509
0.6584142
0.726871
0.8962338
0.9427394
0.9111406
0.8460783
0.7725439
0.7384721
0.7663578
0.8329332
0.8984544
0.9431291
0.9664101
0.9717699
0.9662008
0.971095
0.9846578
0.9929196
0.9968984
0.9987138
0.999481
0.999738
0.9997632
0.9997243
0.9996317
0.9992806
0.9976652
0.9969693
0.998015
0.9991442
0.999634
0.9998486
0.9999385
0.9999073
0.9998739
0.9999008
0.9999559
0.9999816
0.9999933
0.9999929
0.9999839
0.9999563
0.9999216
0.9999544
0.9999802
0.9999918
0.9999965
0.9999946
0.999985
0.9999507
0.9998884
0.9999074
0.9999551
0.9999799
0.9999913
0.9999963
0.9999984
0.9999992
0.9999995
0.9999997
0.9999996
0.9999991
0.9999978
0.9999958
0.9999956
0.9999975
0.9999989
0.9999996
0.9999991
0.999999
0.9999991
0.9999992
0.9999995
0.9999997
0.9999999
0.9999999
0.9999999
0.9999999
0.9999999
0.9999999
0.9999999
0.9999999
0.9999992
0.9999981
0.9999987
0.9999995