/*--------------------------------*- C++ -*----------------------------------*\
| =========                 |                                                 |
| \\      /  F ield         | foam-extend: Open Source CFD                    |
|  \\    /   O peration     | Version:     3.1                                |
|   \\  /    A nd           | Web:         http://www.extend-project.de       |
|    \\/     M anipulation  |                                                 |
\*---------------------------------------------------------------------------*/
FoamFile
{
    version     2.0;
    format      ascii;
    class       volScalarField;
    location    "8.5";
    object      omega;
}
// * * * * * * * * * * * * * * * * * * * * * * * * * * * * * * * * * * * * * //

dimensions      [0 0 -1 0 0 0 0];

internalField   nonuniform List<scalar> 
119952
(
341.9459
436.8843
421.9082
377.0826
347.2315
357.6274
371.2335
386.5184
403.1769
420.8476
439.3073
458.3481
477.6473
496.9935
516.1711
534.979
553.2134
570.765
587.5052
603.9481
496.9001
489.4201
485.5407
397.1595
380.2476
365.0407
349.0329
330.5982
306.6307
180.4974
767.5696
635.3705
537.2065
468.576
418.115
379.2953
347.9871
321.9505
299.6439
274.3812
227.0834
194.8852
173.2095
157.7057
145.9736
136.7121
129.0848
122.6067
117.0088
92.8602
89.7924
86.72181
83.65026
80.61195
77.60397
74.61712
71.64702
68.69725
65.79809
63.00506
60.16174
57.33967
54.58783
51.94097
49.43312
47.07851
44.86228
42.77612
41.79429
41.09244
40.08646
39.22499
38.58499
38.11069
37.70267
37.36405
37.09979
36.90519
36.77595
36.71067
36.70984
36.77884
36.92795
37.17883
37.56622
38.14031
39.01363
40.17417
41.48792
43.37495
45.31763
46.97024
49.46433
52.85707
56.83204
61.94384
68.58814
76.06242
80.25214
83.30718
85.46332
86.89027
87.61172
87.58395
86.78788
85.24817
83.0446
80.32596
77.29152
74.15127
71.12567
68.40939
66.20939
64.83567
64.81339
67.56734
74.65121
83.75835
94.24086
104.0382
108.3798
107.2187
100.7783
89.87289
78.15938
67.91874
59.59621
53.15436
48.40523
44.91346
42.2437
40.08139
38.21748
36.56049
35.08992
33.80309
32.68813
31.73027
30.91579
30.22995
29.65694
29.18196
28.77839
28.41982
28.09806
27.80899
27.57494
27.96303
28.41974
28.58197
28.57055
28.47714
28.34954
28.2106
28.07104
27.93581
27.80721
27.68634
27.57382
27.46962
27.37362
27.2862
27.20771
27.13897
27.0811
27.03517
27.00288
26.98756
26.99051
27.00638
27.03509
27.07614
27.12925
27.19444
27.27178
27.36132
27.46312
27.57751
27.70633
27.85944
28.04468
28.25178
28.47599
28.71532
28.969
29.2369
29.5193
29.81668
30.1297
30.45905
30.80546
31.16944
31.55142
31.95068
32.363
32.77426
33.07808
36.70614
41.92339
45.03237
46.99975
48.33918
49.31703
50.08983
50.76902
51.40308
52.00706
52.60238
53.20323
53.81394
54.43876
55.06282
55.69379
56.36546
57.05449
57.75951
58.48315
59.22746
59.99327
60.78218
61.59655
62.43706
63.30522
64.20287
65.13099
66.09035
67.08195
68.10561
69.16197
70.23352
71.31095
72.28047
72.18726
71.06748
70.09296
69.1616
68.26346
67.38823
66.52956
65.68202
64.84268
64.00982
63.18311
62.36269
61.5494
60.74185
59.94087
59.14371
58.35197
57.56847
56.79539
56.03466
55.28796
54.55642
53.84059
53.14098
52.45804
51.79195
51.14283
50.51065
49.8952
49.29633
48.71389
48.1484
47.59971
47.06561
46.54681
37.62769
37.0918
36.46627
35.76201
35.07506
34.43227
33.83848
33.29901
32.81652
32.38853
32.00988
31.67459
31.37587
31.10724
30.86273
30.63727
30.42655
30.22708
30.03605
29.85126
29.67106
29.49398
29.31732
29.14026
28.96273
28.78484
28.6068
28.42891
28.25148
28.07481
27.89917
27.72483
27.55202
27.38095
27.21176
27.04459
26.87959
26.71685
26.55647
26.39859
26.24336
26.09107
25.94229
25.79848
25.66321
25.54036
25.42615
25.31536
25.20838
25.10496
25.00472
24.90855
24.81811
24.73934
24.72306
24.62166
24.5077
24.38296
24.24694
24.10214
23.95172
23.79953
23.64908
23.50312
23.36362
23.23184
23.10837
22.9933
22.88634
22.78694
22.69438
22.60787
22.52658
22.44972
22.37654
22.30634
22.23852
22.17255
22.10799
22.04443
21.98158
21.9192
21.85708
21.79507
21.73307
21.671
21.6088
21.54642
21.48384
21.42105
21.35804
21.29482
21.23141
21.1678
21.104
21.04003
20.97591
20.91164
20.84722
20.78266
20.71798
20.65319
20.58829
20.52332
20.45827
20.39316
20.32801
20.26282
20.19763
20.13243
20.06725
20.0021
19.937
19.87195
19.80698
19.74209
19.67728
19.61256
19.54791
19.48334
19.4188
19.35426
19.28967
19.22494
19.15997
19.0946
19.02864
18.96181
18.89373
18.82387
18.75141
18.67519
18.59311
18.50145
18.39168
18.2451
18.01965
17.66921
17.60788
633.7768
575.3928
536.9754
495.8129
457.4706
423.6206
394.0718
368.2148
344.5455
276.2375
207.9447
173.6981
154.9493
143.5442
135.6574
129.5233
124.3238
119.6521
94.96733
90.11354
85.54488
81.40896
77.78873
74.66681
71.97576
69.63764
67.58098
65.73516
64.11468
62.53843
60.93269
59.32569
57.75008
56.23317
54.79155
53.43275
52.15545
51.28406
50.66529
49.89829
49.04657
48.16205
47.27885
46.42047
45.60353
44.83854
44.13607
43.50068
42.92325
42.40723
41.94939
41.54413
41.18628
40.87243
40.59715
40.37167
36.9796
36.70736
36.426
36.12686
35.79615
35.42378
35.00197
34.52475
33.98446
33.36593
32.67013
31.91445
31.1149
30.29112
29.46278
28.64783
27.86309
27.12676
26.46414
25.8913
25.38086
24.93818
24.58382
24.31695
24.12438
23.99082
23.90513
23.85697
23.83766
23.84105
23.86398
23.90439
23.95949
24.0249
24.09574
24.1692
24.24927
24.35269
24.5148
24.76458
25.11763
25.57603
26.15813
26.88414
27.73649
28.71708
29.85813
31.19915
32.6314
34.08006
35.57332
37.05363
38.46148
39.74922
40.86879
41.7787
42.44489
42.84381
42.96623
42.81584
42.42542
41.84159
41.14113
40.4295
39.81145
39.46136
39.57627
40.14002
41.1315
42.68043
44.65554
46.79136
49.12122
51.72087
54.43004
56.96554
58.91606
59.96395
60.11012
59.10751
56.47932
52.37697
47.65135
43.11992
39.20526
36.00392
33.4295
31.35013
29.64851
28.23355
27.03871
26.0176
25.14035
24.37955
23.69232
23.05825
22.46898
21.92163
21.41935
20.95947
20.53549
20.14137
19.77302
19.42753
19.10258
18.79622
18.50673
18.23258
17.97242
17.72502
17.48933
17.26443
17.04964
16.84434
16.64803
16.46026
16.28062
16.10873
15.94421
15.78682
15.63648
15.49302
15.35625
15.22606
15.10236
14.98509
14.87421
14.76973
14.67168
14.58009
14.49506
14.41658
14.3445
14.27864
14.21879
14.16474
14.11626
14.07316
14.03522
14.00226
13.97405
13.95044
13.9311
13.91599
13.90439
13.89659
13.89063
13.87546
14.2713
14.68479
14.94747
15.12403
15.25027
15.34661
15.42504
15.49295
15.55655
15.61849
15.67832
15.73546
15.78864
15.83656
15.88032
15.92081
15.95798
15.99206
16.02355
16.05295
16.08071
16.10727
16.13313
16.15872
16.18444
16.21066
16.23766
16.26559
16.2945
16.32422
16.35433
16.3838
16.41063
16.4304
16.43457
16.41341
16.38159
16.34961
16.31634
16.2812
16.24424
16.20531
16.16417
16.12064
16.07458
16.02584
15.9742
15.91949
15.86159
15.80044
15.73607
15.66853
15.59795
15.52444
15.44819
15.36939
15.28831
15.20523
15.12044
15.03429
14.94712
14.85927
14.77108
14.68286
14.59492
14.50755
14.42106
14.33569
14.25248
14.17567
12.75737
12.65857
12.57453
12.49783
12.42475
12.35417
12.28576
12.21919
12.15418
12.09058
12.02837
11.96751
11.90801
11.84987
11.79312
11.7378
11.68391
11.63147
11.58047
11.5309
11.48271
11.43588
11.39036
11.34609
11.30301
11.26105
11.22015
11.18023
11.14122
11.10307
11.06571
11.02908
10.99313
10.95782
10.9231
10.88895
10.85533
10.82222
10.78962
10.75755
10.72604
10.69518
10.66512
10.63603
10.60801
10.58096
10.55443
10.5282
10.50233
10.47693
10.45199
10.42755
10.40365
10.38192
10.36244
10.33971
10.31486
10.2898
10.26501
10.24043
10.21586
10.19112
10.1661
10.14072
10.11493
10.08871
10.06205
10.03499
10.00756
9.979797
9.951763
9.92351
9.895095
9.866576
9.838006
9.809436
9.780915
9.752486
9.724186
9.69605
9.668105
9.640375
9.61288
9.585634
9.558648
9.531925
9.505468
9.479272
9.453331
9.427636
9.402172
9.376923
9.351871
9.326995
9.302272
9.277678
9.253186
9.228771
9.204406
9.180064
9.155719
9.131348
9.106927
9.082434
9.057851
9.033159
9.008342
8.983389
8.958289
8.933032
8.907613
8.882026
8.856269
8.830339
8.80424
8.777967
8.751526
8.724912
8.698132
8.671173
8.644043
8.616716
8.589195
8.561431
8.533421
8.50507
8.476362
8.447121
8.417294
8.386546
8.354705
8.321072
8.285107
8.245271
8.200324
8.148556
8.091681
8.038052
7.990581
576.6499
506.2573
448.8464
406.641
374.5333
349.5869
329.716
313.7772
300.7777
283.1094
182.0014
169.7774
159.8785
151.5774
144.4264
138.057
131.8381
123.9329
107.6275
76.08706
74.39468
73.29757
72.39636
71.7702
71.27888
70.78612
70.29068
69.54613
66.07988
63.50009
63.07499
62.75622
62.42538
62.07173
61.68437
61.25848
60.79263
60.27503
60.29069
59.18661
58.0097
56.98493
56.10488
55.32409
54.60525
53.92347
53.26424
52.62443
51.95364
51.2371
50.4808
49.70773
48.93903
48.18877
47.46326
46.76682
43.6936
43.09435
42.52227
41.96556
41.41723
40.87386
40.33474
39.80019
39.2717
38.74956
38.23296
37.72352
37.2219
36.72666
36.23759
35.75506
35.2801
34.8142
34.35904
33.91619
33.48819
33.0785
32.68798
32.31708
31.96667
31.63775
31.33131
31.04793
30.78731
30.55082
30.33923
30.15169
29.98708
29.84441
29.72079
29.6134
29.5066
29.38737
29.33592
29.28522
29.21374
29.10996
28.96349
28.76441
28.50525
28.18257
27.80065
27.37799
26.9268
26.43629
25.90986
25.36066
24.80312
24.25213
23.72205
23.22746
22.78158
22.40029
22.08214
21.82783
21.64522
21.53743
21.49885
21.51681
21.57743
21.66724
21.77565
21.8971
22.02988
22.1722
22.31829
22.45662
22.57187
22.64989
22.68372
22.68009
22.66634
22.68331
22.74839
22.87084
23.05236
23.29062
23.58323
23.93086
24.34667
24.85068
25.44808
26.12024
26.86106
27.65997
28.48632
29.30449
30.07939
30.77978
31.37958
31.85841
32.20354
32.40522
32.46483
32.39144
32.20365
31.94117
31.64527
31.38486
31.2434
31.22886
31.36754
31.74139
32.35006
33.16736
34.25613
35.64968
37.31834
39.24975
41.38386
43.58349
45.76175
47.76824
49.28514
50.05303
49.93402
48.90143
47.03843
44.57207
41.82082
39.07207
36.51662
34.23684
32.23492
30.47739
28.92533
27.55509
26.35998
25.29155
24.322
23.4368
22.62711
21.88611
21.20776
20.58622
20.01595
19.49184
19.00915
18.56328
18.15017
17.76616
17.40796
17.07269
16.75781
16.46111
16.18072
15.91503
15.66259
15.4222
15.19268
14.97299
14.76222
14.55965
14.36479
14.17708
13.99609
13.82151
13.65313
13.49082
13.33454
13.18433
13.04015
12.90206
12.77018
12.64453
12.52518
12.41214
12.3054
12.20491
12.11062
12.02239
11.94011
11.86359
11.79271
11.72717
11.66687
11.61136
11.56069
11.514
11.47187
11.43261
11.41729
11.3903
11.36001
11.32954
11.30049
11.27353
11.24876
11.22601
11.20498
11.18532
11.16661
11.1485
11.13074
11.11312
11.09558
11.07845
11.06132
11.04351
11.0245
11.00398
10.98235
10.96006
10.93755
10.91524
10.89347
10.87261
10.85292
10.83464
10.81788
10.80268
10.78887
10.77611
10.76375
10.75088
10.73617
10.72124
10.70784
10.69608
10.68546
10.67562
10.66618
10.6567
10.6468
10.63615
10.62437
10.61107
10.59591
10.57857
10.55878
10.53629
10.51095
10.48261
10.45121
10.41675
10.37926
10.33885
10.29564
10.2498
10.20155
10.15112
10.09878
10.04481
9.989461
9.933036
9.875754
9.817968
9.759818
9.701741
9.643138
9.581603
9.54351
9.503388
9.460141
9.414616
9.368226
9.321855
9.275837
9.230253
9.185144
9.140566
9.096572
9.053203
9.010489
8.968451
8.927111
8.886487
8.84659
8.80743
8.769007
8.731319
8.694362
8.658125
8.622598
8.587768
8.553618
8.520131
8.487287
8.455068
8.423451
8.392416
8.361941
8.332006
8.302592
8.27368
8.245253
8.217297
8.189801
8.162757
8.136167
8.110036
8.084386
8.059244
8.034652
8.010638
7.987208
7.9643
7.941802
7.919585
7.89765
7.875993
7.854658
7.833572
7.812703
7.791835
7.771197
7.750767
7.730734
7.711071
7.69155
7.67197
7.652251
7.63239
7.612396
7.592267
7.571988
7.551549
7.53094
7.510158
7.489201
7.468072
7.446776
7.425324
7.403729
7.382005
7.360172
7.338249
7.316259
7.294224
7.272168
7.250113
7.228084
7.206102
7.184189
7.162365
7.140647
7.11905
7.097586
7.076266
7.055097
7.034083
7.013224
6.992518
6.971961
6.951544
6.931258
6.91109
6.891025
6.871047
6.851137
6.831278
6.811449
6.791633
6.771809
6.751959
6.732065
6.71211
6.692079
6.671957
6.651732
6.631393
6.61093
6.590337
6.569606
6.548735
6.527718
6.506556
6.485244
6.463787
6.442178
6.420422
6.398508
6.376443
6.354201
6.331793
6.309167
6.286334
6.263199
6.239768
6.215869
6.191484
6.166295
6.140228
6.112721
6.08368
6.052429
6.019388
5.984435
5.9496
5.917221
331.1646
238.2206
345.0215
154.6805
121.2426
90.02671
77.93013
68.02799
59.80641
55.97837
54.44168
53.65535
52.82912
51.95662
51.10634
50.3209
49.57608
48.85528
48.15451
47.48392
46.86671
46.35293
46.09363
46.01908
46.02029
46.07298
46.1611
46.25145
46.31465
46.31889
46.17208
44.82214
45.28713
45.74271
46.19633
46.65279
47.11595
47.59128
48.05032
48.494
48.76838
49.01747
49.25328
49.43136
49.53557
49.55921
49.50273
49.36905
49.16267
48.89352
48.57563
48.20507
47.78182
47.31498
46.81528
46.28963
45.74442
45.18376
44.60999
44.02851
43.44002
42.84773
42.25498
41.66437
41.07918
40.50139
39.93528
39.37281
38.85396
38.33932
37.83261
37.33325
36.84084
36.35569
35.87808
35.40803
34.94546
34.49018
34.04179
33.60024
33.16549
32.73739
32.31632
31.90298
31.49819
31.10285
30.71816
30.34565
29.98673
29.64314
29.31638
29.00799
28.71947
28.45195
28.20587
27.98123
27.77772
27.59526
27.43366
27.29202
27.16905
27.06244
26.96869
26.87981
26.79762
26.72481
26.65771
26.58624
26.50044
26.39124
26.24981
26.06773
25.83809
25.55698
25.22466
24.84575
24.42938
23.99277
23.53843
23.07236
22.60658
22.15407
21.72825
21.34272
21.01081
20.7455
20.55489
20.44214
20.41053
20.46209
20.59202
20.7865
21.02566
21.28881
21.56123
21.83845
22.12353
22.41789
22.71142
22.98097
23.1959
23.32674
23.3546
23.27962
23.12738
22.94951
22.77541
22.62132
22.49562
22.39911
22.33073
22.29511
22.30468
22.37628
22.52456
22.75438
23.06399
23.44457
23.87893
24.34379
24.81404
25.26685
25.68307
26.04785
26.35022
26.58021
26.73178
26.80062
26.78617
26.69996
26.5537
26.37416
26.20213
26.05004
25.93919
25.91932
26.02173
26.26827
26.69947
27.34695
28.23538
29.40249
30.84901
32.51562
34.34636
36.29547
38.27313
40.16216
41.81692
43.07421
43.81528
43.98688
43.58584
42.66484
41.32017
39.67752
37.85902
35.96567
34.0745
32.23334
30.47929
28.87269
27.41835
26.10199
24.91017
23.83077
22.85302
21.96718
21.16428
20.43594
19.77442
19.17232
18.62295
18.12037
17.6589
17.23369
16.8404
16.47527
16.13495
15.81674
15.51804
15.23675
14.97062
14.71773
14.47644
14.24537
14.02338
13.80949
13.60288
13.40288
13.20902
13.02092
12.8383
12.66108
12.4892
12.32271
12.16172
12.00641
11.85696
11.71355
11.57634
11.44546
11.321
11.20301
11.0915
10.98641
10.88767
10.79514
10.7087
10.62807
10.55313
10.48349
10.41913
10.35972
10.30664
10.25791
10.21253
10.17003
10.13017
10.09269
10.05725
10.02348
9.99099
9.959414
9.928386
9.897574
9.866698
9.83554
9.803956
9.771806
9.738981
9.705501
9.671577
9.637507
9.60302
9.567876
9.532212
9.496443
9.460984
9.426224
9.392519
9.360174
9.329419
9.30041
9.273219
9.247802
9.224008
9.201346
9.180135
9.160945
9.144149
9.12992
9.118081
9.108315
9.10027
9.093563
9.087835
9.082706
9.077775
9.072624
9.066865
9.060115
9.052007
9.042191
9.030373
9.016285
8.99971
8.98049
8.95851
8.933695
8.906039
8.875662
8.842686
8.807242
8.769481
8.729556
8.68765
8.643932
8.598678
8.552087
8.504478
8.455951
8.40693
8.357104
8.307641
8.258286
8.209311
8.161026
8.113482
8.066605
8.020348
7.974716
7.929747
7.885476
7.841929
7.799126
7.757082
7.715805
7.675298
7.635564
7.596599
7.558398
7.520948
7.484239
7.448253
7.412974
7.378383
7.344459
7.311182
7.278531
7.246485
7.215022
7.184121
7.153763
7.123929
7.094601
7.065763
7.0374
7.009498
6.982047
6.955039
6.928469
6.902336
6.876642
6.851396
6.826606
6.802281
6.778425
6.755033
6.73208
6.709514
6.687271
6.665326
6.643676
6.622327
6.601255
6.58044
6.559907
6.53976
6.519874
6.50008
6.480322
6.460613
6.44097
6.42139
6.401863
6.38237
6.362889
6.343397
6.323872
6.304295
6.284652
6.264935
6.245135
6.22525
6.20528
6.185227
6.165097
6.144898
6.124642
6.104343
6.084013
6.063671
6.043334
6.023019
6.002745
5.982531
5.962394
5.94235
5.922414
5.902601
5.88292
5.863382
5.843992
5.824755
5.805672
5.786741
5.767959
5.74932
5.730814
5.712431
5.694158
5.675981
5.657884
5.639851
5.621864
5.603907
5.585963
5.568013
5.550042
5.532034
5.513975
5.495849
5.477647
5.459356
5.440967
5.422472
5.403865
5.38514
5.366295
5.347326
5.328232
5.309008
5.289658
5.270175
5.250561
5.230803
5.210903
5.190836
5.170599
5.150143
5.129458
5.108453
5.087102
5.065247
5.042845
5.019663
4.995707
4.970745
4.944991
4.918352
4.891584
4.865934
296.2058
198.7293
149.545
134.8438
109.6136
92.45058
79.63219
74.57548
68.90432
65.54123
62.58655
58.6905
54.77566
51.0726
47.66922
43.94469
38.38266
37.04079
36.02555
35.41095
35.14096
35.08116
35.10458
35.16579
35.25973
35.38585
35.54517
35.73846
35.96889
36.24122
36.57125
36.96285
37.39769
37.8644
38.3552
38.8667
39.39533
39.94157
40.50661
41.09134
41.69611
42.28405
42.79586
43.39623
44.01999
44.6643
45.29933
45.92598
46.57631
47.15905
47.68721
48.11556
48.4158
48.59524
48.66449
48.62983
48.49619
48.2723
47.96668
47.59136
47.15385
46.6663
46.1395
45.57848
44.98939
44.37747
43.74684
43.10342
42.45001
41.79257
41.13363
40.48149
39.84231
39.22065
38.61809
38.03541
37.47265
36.92946
36.40312
35.89188
35.397
34.91852
34.45346
33.99956
33.55577
33.12131
32.6955
32.27781
31.86781
31.46495
31.06857
30.6784
30.29467
29.91786
29.54872
29.18809
28.83688
28.49654
28.16903
27.85614
27.5594
27.28031
27.0203
26.78066
26.56212
26.36448
26.1869
26.02838
25.88816
25.76588
25.66103
25.57217
25.49659
25.42939
25.36941
25.31823
25.27124
25.22267
25.16509
25.09018
24.98975
24.85632
24.68335
24.4659
24.20139
23.89019
23.53586
23.14551
22.73003
22.30479
21.87662
21.45788
21.06279
20.70667
20.4054
20.17458
20.02892
19.98011
20.03403
20.19229
20.45264
20.80438
21.22559
21.68612
22.1559
22.61712
23.07184
23.53519
24.01433
24.49114
24.92442
25.2636
25.46292
25.49155
25.34119
25.03422
24.63311
24.19153
23.74334
23.30959
22.89998
22.519
22.17408
21.87868
21.64877
21.49796
21.43356
21.45416
21.55163
21.71175
21.91656
22.14699
22.38524
22.61677
22.8307
23.01878
23.17363
23.28857
23.35622
23.37073
23.33123
23.23856
23.10242
22.9399
22.76166
22.58542
22.44262
22.36046
22.361
22.47168
22.72083
23.1369
23.75146
24.58255
25.62827
26.88628
28.34586
29.9578
31.63369
33.28163
34.80712
36.1335
37.20924
37.98766
38.42438
38.49934
38.21741
37.60123
36.69347
35.55097
34.23848
32.81439
31.32148
29.81331
28.34004
26.93895
25.62969
24.42057
23.31311
22.30447
21.38922
20.56047
19.81056
19.13163
18.51631
17.95756
17.44895
16.98442
16.55865
16.16702
15.80565
15.47059
15.15859
14.86683
14.59269
14.33369
14.08775
13.85317
13.62842
13.4121
13.2031
13.00052
12.80353
12.61149
12.42402
12.24088
12.06195
11.8873
11.71707
11.5515
11.39088
11.2355
11.08567
10.94166
10.8037
10.67198
10.54663
10.42773
10.31529
10.20929
10.10963
10.01619
9.928787
9.847316
9.771558
9.701347
9.63617
9.575616
9.519312
9.466857
9.417806
9.371681
9.328005
9.286308
9.24613
9.207029
9.168588
9.130424
9.0922
9.05363
9.014475
8.974568
8.93383
8.892268
8.849948
8.807006
8.763676
8.720041
8.67609
8.6321
8.588474
8.545608
8.503861
8.463521
8.424835
8.388018
8.353154
8.320269
8.289717
8.261645
8.236226
8.213673
8.194104
8.17749
8.163655
8.152281
8.143087
8.135862
8.130269
8.125921
8.122453
8.119487
8.116633
8.113499
8.109681
8.104782
8.098393
8.090265
8.080279
8.068303
8.054236
8.038013
8.019504
7.998631
7.975373
7.949772
7.921909
7.891919
7.859978
7.826225
7.790769
7.753772
7.715363
7.675708
7.634875
7.593099
7.550596
7.507499
7.463931
7.420086
7.376175
7.332378
7.288827
7.24562
7.20283
7.160515
7.118724
7.077499
7.036874
6.996878
6.95753
6.918844
6.880826
6.843477
6.806795
6.770774
6.735404
6.700672
6.666565
6.633066
6.600159
6.567825
6.536047
6.504806
6.474084
6.443865
6.414131
6.38487
6.356067
6.32771
6.29979
6.272301
6.245235
6.218593
6.192372
6.166576
6.141207
6.116267
6.091756
6.067668
6.043988
6.020689
5.997741
5.975125
5.952837
5.930878
5.909246
5.887938
5.866961
5.846299
5.825871
5.805611
5.785509
5.765569
5.745782
5.726121
5.706556
5.687062
5.667619
5.648204
5.628798
5.609384
5.589946
5.570473
5.550956
5.531389
5.511769
5.492096
5.472373
5.452606
5.432801
5.412969
5.393123
5.373276
5.353443
5.333641
5.313885
5.294195
5.274585
5.255073
5.235675
5.216402
5.197269
5.178286
5.15946
5.140797
5.122301
5.103972
5.085809
5.067808
5.049963
5.032264
5.014701
4.997262
4.979934
4.962702
4.94555
4.928462
4.911422
4.894413
4.877419
4.860424
4.843413
4.826372
4.809288
4.792148
4.774942
4.757661
4.740295
4.722839
4.705288
4.687635
4.66988
4.652017
4.634047
4.615966
4.597772
4.57946
4.561027
4.54246
4.523753
4.504881
4.48583
4.466553
4.447027
4.427177
4.406979
4.386333
4.365255
4.343652
4.321635
4.299168
4.276579
4.255011
145.862
108.7862
167.0401
83.69486
71.99475
62.20664
59.30253
57.25157
54.97694
54.12088
52.96831
51.20627
49.50375
47.65531
45.43223
41.08845
40.02061
39.00084
38.00353
37.03765
36.06511
35.13052
34.29119
33.57834
33.01124
32.59259
32.24947
31.88607
31.68042
31.65002
31.77143
31.99229
32.26274
32.5618
32.88287
33.2241
33.58521
33.96692
34.37562
34.82356
35.29858
35.79587
36.31351
36.85069
37.40545
37.97584
38.55912
39.15466
39.76137
40.37627
40.99245
41.60207
42.22834
42.9219
43.62488
44.37704
45.06439
45.6856
46.22404
46.65779
46.97902
47.16892
47.21184
47.11465
46.89401
46.56478
46.1424
45.64183
45.07667
44.46198
43.80784
43.12635
42.427
41.71627
41.00124
40.28497
39.57531
38.87665
38.2033
37.55976
36.94535
36.36399
35.81466
35.29433
34.80139
34.33393
33.88974
33.46615
33.06056
32.67013
32.29297
31.92734
31.57096
31.22189
30.87888
30.541
30.20765
29.87864
29.55393
29.23321
28.91607
28.60244
28.29262
27.98774
27.68902
27.39752
27.1144
26.84145
26.58099
26.33524
26.1059
25.89423
25.70115
25.52729
25.37219
25.23384
25.10936
24.996
24.89176
24.79585
24.70799
24.62738
24.55349
24.48822
24.43478
24.39095
24.3533
24.31635
24.2723
24.21194
24.12612
24.00684
23.84779
23.64473
23.396
23.10283
22.7694
22.40275
22.01298
21.61444
21.22434
20.85723
20.5312
20.26583
20.08127
19.99711
20.03072
20.19363
20.48864
20.91197
21.45278
22.0872
22.77776
23.48038
24.15604
24.78964
25.4006
26.02572
26.67878
27.32642
27.90592
28.35247
28.61127
28.64031
28.41567
27.94554
27.29298
26.54614
25.76871
25.00564
24.27876
23.59645
22.96593
22.39918
21.91083
21.51318
21.21258
21.00716
20.88739
20.83818
20.84168
20.88013
20.93814
21.00381
21.06939
21.12913
21.17813
21.21098
21.22083
21.20075
21.14553
21.05178
20.92125
20.76058
20.57766
20.38536
20.20288
20.04889
19.94065
19.89774
19.9406
20.08984
20.36789
20.7953
21.38777
22.15793
23.10778
24.21674
25.44527
26.74426
28.05279
29.30171
30.42938
31.39359
32.16017
32.71026
33.03569
33.12901
32.98709
32.6201
32.04591
31.28934
30.38328
29.36521
28.27394
27.14203
25.99511
24.8629
23.77194
22.73873
21.77307
20.87951
20.05866
19.30842
18.62471
18.00281
17.43749
16.92305
16.45418
16.02601
15.63382
15.27347
14.94144
14.63444
14.34943
14.08338
13.83365
13.59812
13.37479
13.16166
12.957
12.75931
12.56735
12.3802
12.19714
12.01753
11.84092
11.66712
11.49616
11.32821
11.16354
11.00252
10.84556
10.69305
10.5454
10.40297
10.26607
10.13496
10.00982
9.890797
9.777939
9.671253
9.57069
9.476172
9.387549
9.304621
9.227106
9.154702
9.087079
9.023863
8.964643
8.908978
8.856406
8.80646
8.758667
8.712565
8.6677
8.623648
8.580014
8.536444
8.49263
8.448317
8.403316
8.35751
8.310853
8.263371
8.215178
8.166453
8.117421
8.068202
8.019028
7.97027
7.92228
7.875383
7.829887
7.786016
7.744032
7.704245
7.666857
7.632068
7.600069
7.571033
7.545069
7.522227
7.502415
7.485424
7.471086
7.459226
7.449597
7.441908
7.435861
7.431132
7.427373
7.424212
7.421257
7.418147
7.414777
7.410954
7.406332
7.400614
7.393547
7.384906
7.374502
7.362196
7.347888
7.331523
7.313077
7.292575
7.27006
7.245601
7.219299
7.191283
7.161691
7.130681
7.098425
7.06514
7.030906
6.99572
6.959631
6.922708
6.885129
6.847097
6.808763
6.770254
6.73169
6.69317
6.654785
6.616614
6.578725
6.541175
6.504012
6.467274
6.430992
6.395187
6.359877
6.325071
6.290774
6.256989
6.223713
6.19094
6.158663
6.126873
6.095558
6.064707
6.034308
6.004347
5.974814
5.945698
5.916988
5.888676
5.860755
5.833218
5.806064
5.779289
5.752894
5.72688
5.701249
5.676003
5.651142
5.626664
5.602561
5.578824
5.555438
5.532396
5.509697
5.487343
5.465335
5.443669
5.422333
5.401303
5.380549
5.360046
5.339776
5.319723
5.299864
5.28017
5.260614
5.24117
5.221814
5.202524
5.183276
5.164052
5.144832
5.125603
5.106352
5.087071
5.067753
5.048395
5.028997
5.009563
4.990097
4.970606
4.951102
4.931595
4.9121
4.892631
4.873204
4.853837
4.834546
4.815347
4.796257
4.777291
4.758462
4.739782
4.72126
4.702905
4.684723
4.666715
4.648883
4.631225
4.613736
4.59641
4.57924
4.562213
4.54532
4.528547
4.51188
4.495303
4.478803
4.462362
4.445966
4.429598
4.413245
4.39689
4.380521
4.364124
4.347689
4.331204
4.31466
4.298049
4.281364
4.2646
4.247752
4.230816
4.21379
4.19667
4.179454
4.162139
4.144721
4.127194
4.109551
4.091779
4.073867
4.05579
4.037534
4.019064
4.000365
3.981398
3.962171
3.942655
3.922904
3.90293
3.882887
3.863928
58.30889
43.73333
44.59459
42.6096
41.70952
40.61058
39.77958
39.09052
38.52879
37.5774
35.13934
35.02484
34.9117
34.79726
34.64466
34.44334
34.22971
34.03673
33.8769
33.7381
33.48961
33.00023
32.51442
32.03376
31.57154
31.13175
30.73632
30.40554
30.1498
29.96609
29.8499
29.79291
29.80317
29.91099
30.12065
30.41454
30.76362
31.13994
31.52874
31.92267
32.31856
32.71552
33.12184
33.54783
33.99027
34.45095
34.93382
35.44082
35.97276
36.52883
37.10576
37.69874
38.30854
38.93639
39.5744
40.20818
40.84907
41.55633
42.26774
42.9673
43.60889
44.14709
44.56263
44.83614
44.95665
44.92605
44.74817
44.4309
43.98809
43.43943
42.80387
42.10316
41.35485
40.57719
39.78515
38.98988
38.20413
37.43595
36.69561
35.98832
35.32902
34.72092
34.16177
33.65278
33.19266
32.77663
32.39585
32.04546
31.7214
31.41983
31.1372
30.87015
30.61544
30.37011
30.13113
29.89613
29.66334
29.43135
29.19915
28.96617
28.73218
28.49746
28.26259
28.02825
27.79485
27.56259
27.33216
27.10464
26.88169
26.66544
26.45755
26.25972
26.07445
25.9046
25.75239
25.61911
25.50495
25.40945
25.33152
25.26719
25.20978
25.15187
25.0867
25.00909
24.91653
24.80745
24.6814
24.54574
24.42031
24.30651
24.20506
24.11531
24.03375
23.9537
23.86595
23.7607
23.62905
23.46397
23.26073
23.01748
22.73571
22.42012
22.07839
21.72137
21.36405
21.0285
20.74088
20.52394
20.40252
20.40191
20.54414
20.84404
21.30445
21.9164
22.666
23.53052
24.46399
25.40722
26.3051
27.11578
27.83822
28.52244
29.23243
29.98239
30.71754
31.36849
31.87453
32.17964
32.22942
31.97503
31.39119
30.51358
29.46693
28.35939
27.26884
26.23334
25.26563
24.37131
23.55896
22.83911
22.22151
21.71117
21.30576
20.99522
20.76376
20.59294
20.46478
20.36416
20.28027
20.2063
20.1383
20.07327
20.0076
19.93612
19.8524
19.75025
19.6247
19.47397
19.30005
19.1077
18.90521
18.70438
18.51784
18.35818
18.23882
18.17336
18.17571
18.26122
18.44554
18.74322
19.16716
19.72554
20.41657
21.22708
22.13294
23.09771
24.07575
25.02275
25.90125
26.67838
27.32523
27.82313
28.16366
28.34101
28.35702
28.2164
27.92452
27.49107
26.93203
26.26807
25.52137
24.72008
23.88572
23.03162
22.17199
21.32839
20.51566
19.74377
19.01878
18.34348
17.71862
17.14319
16.61469
16.13011
15.68621
15.27953
14.90669
14.56459
14.24995
13.95983
13.69181
13.44319
13.21155
12.99459
12.78995
12.59557
12.4096
12.2304
12.05654
11.88673
11.71993
11.55542
11.39275
11.23169
11.07221
10.91446
10.75871
10.60534
10.45478
10.30751
10.16398
10.02461
9.889809
9.75991
9.63519
9.515851
9.40203
9.293806
9.191206
9.094197
9.002688
8.91652
8.835478
8.759304
8.687703
8.620334
8.55682
8.49675
8.439697
8.385217
8.33287
8.28222
8.232849
8.18436
8.136388
8.088595
8.040688
7.99242
7.943603
7.894111
7.843889
7.792953
7.74139
7.689344
7.637007
7.584569
7.532318
7.480584
7.42965
7.379815
7.331395
7.284694
7.239958
7.197424
7.157308
7.119807
7.085082
7.053256
7.024415
6.998511
6.975444
6.955149
6.937514
6.922344
6.909423
6.898529
6.889414
6.881805
6.875403
6.869921
6.865292
6.861237
6.857442
6.853608
6.849456
6.844722
6.839164
6.832567
6.824742
6.815536
6.804822
6.792505
6.778528
6.762864
6.745515
6.726513
6.705915
6.683798
6.660256
6.63539
6.609305
6.582097
6.553873
6.524768
6.494958
6.464504
6.433378
6.401559
6.369154
6.336306
6.303131
6.269738
6.236227
6.202684
6.169188
6.135805
6.102591
6.069595
6.036856
6.004405
5.972268
5.940464
5.909007
5.877907
5.847168
5.816792
5.786779
5.757125
5.727825
5.698873
5.670262
5.641985
5.614035
5.586407
5.559094
5.532093
5.5054
5.479014
5.452934
5.427162
5.401699
5.376549
5.351717
5.327204
5.303014
5.279147
5.255603
5.232381
5.209482
5.18691
5.164671
5.142767
5.121198
5.099955
5.079028
5.058403
5.038061
5.017983
4.998146
4.978529
4.959106
4.939853
4.920744
4.901753
4.882854
4.864026
4.845243
4.826488
4.807741
4.788989
4.770218
4.751422
4.732592
4.713727
4.694826
4.675891
4.656928
4.637943
4.618948
4.599953
4.580973
4.562021
4.543115
4.52427
4.505504
4.486834
4.468273
4.449839
4.431543
4.413397
4.395411
4.377593
4.359947
4.342476
4.32518
4.308058
4.291106
4.274316
4.257681
4.241192
4.224837
4.208604
4.192479
4.176448
4.160497
4.144611
4.128774
4.112974
4.097194
4.081422
4.065643
4.049847
4.034022
4.018157
4.002244
3.986275
3.970244
3.954144
3.937971
3.921721
3.905392
3.88898
3.872483
3.855898
3.83922
3.822446
3.805567
3.788578
3.771467
3.754224
3.736835
3.719292
3.701584
3.683715
3.665685
3.647521
3.629257
3.610978
3.593828
87.73821
35.0475
30.4586
29.40842
28.82347
28.58484
28.61634
28.79778
29.08273
29.43897
29.73321
29.84564
29.94248
30.01242
30.05589
30.0682
30.05936
30.03258
29.97883
29.8799
29.71357
29.49321
29.27394
29.06167
28.86593
28.6953
28.55992
28.47005
28.42989
28.43594
28.4882
28.58727
28.74138
28.95745
29.23412
29.55711
29.90629
30.26279
30.61627
30.96142
31.29688
31.64
32.00515
32.39195
32.80455
33.2478
33.72473
34.23843
34.78963
35.37849
35.99702
36.627
37.27319
37.95245
38.64963
39.33712
40.02948
40.72573
41.37752
41.93542
42.36182
42.63052
42.72927
42.65441
42.41116
42.01186
41.47319
40.81537
40.06287
39.24167
38.37745
37.49642
36.61904
35.7659
34.95086
34.18823
33.4863
32.86153
32.31726
31.8488
31.4531
31.12482
30.85534
30.63085
30.44415
30.28813
30.15567
30.04073
29.93843
29.84409
29.75416
29.66509
29.57367
29.47677
29.37155
29.25651
29.13098