/*--------------------------------*- C++ -*----------------------------------*\
| =========                 |                                                 |
| \\      /  F ield         | foam-extend: Open Source CFD                    |
|  \\    /   O peration     | Version:     3.1                                |
|   \\  /    A nd           | Web:         http://www.extend-project.de       |
|    \\/     M anipulation  |                                                 |
\*---------------------------------------------------------------------------*/
FoamFile
{
    version     2.0;
    format      ascii;
    class       surfaceScalarField;
    location    "8.5";
    object      phi;
}
// * * * * * * * * * * * * * * * * * * * * * * * * * * * * * * * * * * * * * //

dimensions      [0 3 -1 0 0 0 0];

internalField   nonuniform List<scalar> 
275122
(
-0.0003050511
0.0003108561
-2.548439e-07
-5.550173e-06
-0.0002799088
0.0002691146
1.011556e-06
9.782661e-06
-0.0002859885
0.0002953901
-3.456961e-07
-9.055861e-06
-0.0003288673
0.0003401156
-2.818209e-07
-1.096647e-05
-0.0003689821
0.0003749955
-3.322167e-07
-5.681185e-06
-0.0003834436
0.0003850991
-3.365058e-07
-1.318955e-06
-0.0003902437
0.0003916601
-2.772347e-07
-1.139086e-06
-0.0003950945
0.0003960954
-2.631504e-07
-7.377512e-07
-0.0003986165
0.0003992991
-2.445698e-07
-4.379389e-07
-0.000400939
0.0004013309
-2.261113e-07
-1.658033e-07
-0.0004020537
0.0004020885
-2.135403e-07
1.787258e-07
-0.0004016082
0.0004012421
-1.858629e-07
5.520065e-07
-0.000399678
0.0003989825
-1.562326e-07
8.516741e-07
-0.0003963916
0.0003953471
-1.33045e-07
1.177564e-06
-0.0003916884
0.0003902888
-1.155573e-07
1.515217e-06
-0.0003855306
0.0003837336
-1.083776e-07
1.905453e-06
-0.000377751
0.0003755661
-1.012621e-07
2.286196e-06
-0.0003684803
0.0003659821
-8.529225e-08
2.583556e-06
-0.0003580386
0.0003554938
-1.580104e-07
2.702833e-06
-0.0003492557
0.0003488564
-5.292528e-07
9.284897e-07
-0.0003833214
0.0003970896
-1.239082e-06
-1.252919e-05
-0.0003947253
0.0003912301
-8.514525e-08
3.5804e-06
-0.0003846173
0.0003839295
-4.454634e-08
7.323734e-07
-0.0004144911
0.0004255216
4.96093e-07
-1.152665e-05
-0.0004148124
0.000410834
6.000143e-07
3.378387e-06
-0.0003973393
0.0003913323
-3.884482e-08
6.045856e-06
-0.0003742989
0.0003665632
-7.315052e-08
7.808921e-06
-0.000343523
0.0003323232
-2.509498e-09
1.12024e-05
-0.0002914895
0.0002658872
-2.019548e-07
2.580422e-05
-0.0001678151
0.0001722459
4.016772e-09
-4.434823e-06
-0.0002283051
0.0002402351
-5.449967e-08
-1.187554e-05
-0.0002739864
0.0002853231
6.849487e-09
-1.13436e-05
-0.0003199996
0.0003318703
7.144263e-09
-1.187786e-05
-0.0003678144
0.0003801247
7.802938e-09
-1.231814e-05
-0.0004177776
0.0004305682
7.230904e-09
-1.279784e-05
-0.0004695377
0.0004827129
7.2946e-09
-1.318251e-05
-0.0005226291
0.0005360877
7.071336e-09
-1.346564e-05
-0.0005766637
0.0005903089
7.327839e-09
-1.365246e-05
-0.0006311221
0.000644716
6.46523e-09
-1.360035e-05
-0.0006852483
0.0006997669
2.065323e-07
-1.472514e-05
1.145984e-05
-0.0004743609
0.0004760494
7.119201e-10
-1.314905e-05
1.151182e-05
-0.0004810805
0.0004825477
-2.930723e-10
-1.297869e-05
1.154478e-05
-0.0004863945
0.0004874871
-1.067725e-09
-1.263627e-05
1.158796e-05
-0.0004900776
0.0004907031
-1.22115e-09
-1.221228e-05
1.152868e-05
-0.0004919505
0.0004921518
-1.350768e-09
-1.17286e-05
1.129624e-05
-0.0004921687
0.0004920287
-1.095441e-09
-1.115516e-05
1.097886e-05
-0.0004910835
0.0004905985
-1.106812e-09
-1.04927e-05
1.057961e-05
-0.0004887684
0.0004880058
-9.257816e-10
-9.816146e-06
1.014892e-05
-0.0004850391
0.0004833721
-8.142452e-10
-8.481183e-06
8.167975e-06
-0.001956732
0.001950444
-1.305119e-11
-2.748115e-05
8.740582e-06
8.149294e-06
8.710605e-06
8.448128e-06
-0.001941915
0.001932058
8.779103e-12
-2.456647e-05
8.787353e-06
8.425084e-06
8.762798e-06
8.267462e-06
-0.001921741
0.001911045
1.515356e-11
-2.253351e-05
8.36969e-06
8.243506e-06
8.349065e-06
7.976394e-06
-0.001900354
0.001889221
9.813606e-12
-2.088359e-05
8.052005e-06
7.954801e-06
8.033279e-06
7.838708e-06
-0.001877748
0.001866064
-3.700978e-12
-1.973987e-05
7.891848e-06
7.819941e-06
7.872807e-06
7.790898e-06
-0.001854331
0.00184275
-1.786956e-11
-1.962732e-05
7.830524e-06
7.774537e-06
7.812872e-06
7.879778e-06
-0.001831354
0.001820294
-2.564924e-11
-2.051941e-05
7.926438e-06
7.86266e-06
7.910794e-06
8.091976e-06
-0.001809544
0.001799357
-2.843367e-11
-2.224995e-05
8.141618e-06
8.07589e-06
8.127546e-06
8.35432e-06
-0.001789813
0.001780993
-3.672962e-11
-2.478447e-05
8.46547e-06
8.337892e-06
8.447628e-06
7.944808e-06
-0.001770929
0.001766237
-5.049081e-11
-2.819582e-05
8.506181e-06
7.936383e-06
8.500838e-06
1.017975e-05
-0.001761038
0.001753761
-2.724421e-11
-3.273149e-05
9.842407e-06
1.016345e-05
9.822618e-06
1.04114e-05
-0.001748708
0.001744163
-5.037805e-11
-3.696106e-05
1.034734e-05
1.040891e-05
1.033902e-05
1.081226e-05
-0.00174116
0.001739657
-7.12443e-11
-4.192241e-05
1.088754e-05
1.08292e-05
1.089656e-05
1.18032e-05
-0.00173868
0.001739031
5.564081e-11
-4.768361e-05
1.188773e-05
1.17661e-05
1.18754e-05
1.272373e-05
-0.001740087
0.001742599
1.770449e-10
-5.36739e-05
1.285962e-05
1.271924e-05
1.285904e-05
1.375145e-05
-0.001745839
0.001750515
1.489058e-10
-5.998433e-05
1.389768e-05
1.374854e-05
1.391001e-05
1.502006e-05
-0.001755971
0.001762778
5.022221e-11
-6.703751e-05
1.521605e-05
1.490213e-05
1.509279e-05
1.718716e-05
-0.001770179
0.001777191
2.339832e-11
-7.515453e-05
1.762522e-05
1.649945e-05
1.682998e-05
2.112233e-05
-0.001782172
0.001782584
-3.697979e-11
-8.396393e-05
2.279216e-05
1.965874e-05
1.997876e-05
5.098443e-05
-0.001779416
0.001802395
-5.522178e-11
-7.396323e-05
4.590509e-05
-0.0018342
0.001851786
-5.491338e-11
-6.349134e-05
6.80441e-05
-0.001862014
0.001874064
-3.381656e-11
-8.009323e-05
6.644238e-05
-0.001887844
0.001903063
-2.82024e-11
-8.166154e-05
5.631103e-05
-0.001919048
0.001938122
-2.80794e-11
-7.538542e-05
4.426007e-05
-0.001960215
0.001983752
-3.015377e-11
-6.779646e-05
4.226465e-05
-0.002006675
0.00202941
-2.590694e-11
-6.499936e-05
3.98598e-05
-0.002052414
0.002075292
-7.670796e-12
-6.273797e-05
3.764363e-05
-0.002098006
0.002120435
1.151505e-11
-6.007247e-05
3.504914e-05
-0.002142616
0.00216433
2.428156e-11
-5.676335e-05
3.207019e-05
-0.002185693
0.002206423
2.631505e-11
-5.280055e-05
2.865668e-05
-0.002226756
0.002246408
2.257769e-11
-4.830883e-05
2.515401e-05
-0.002265572
0.002283981
1.657316e-11
-4.356319e-05
2.14576e-05
-0.002301882
0.002319009
8.121041e-12
-3.858406e-05
1.745338e-05
-0.002335583
0.002351337
7.907643e-13
-3.320665e-05
1.296343e-05
-0.002366506
0.00238075
-2.395084e-12
-2.720755e-05
7.930531e-06
-0.002394302
0.002406746
-5.442013e-12
-2.037479e-05
2.539029e-06
-0.002418203
0.00242845
3.824852e-12
-1.278619e-05
-2.064766e-06
-0.00243759
0.002444467
1.379298e-11
-4.812786e-06
-4.271452e-06
-0.002450146
0.002451411
2.711266e-11
3.006662e-06
-3.995389e-06
-0.002448443
0.002442686
3.23532e-11
9.752472e-06
-2.312144e-05
-0.00243978
0.00243711
2.822777e-11
2.579153e-05
-2.060425e-05
-0.002429832
0.002417139
2.575914e-11
3.329738e-05
-9.067756e-06
-0.002388444
0.002360678
1.25958e-11
3.683338e-05
-3.947033e-05
-0.002335986
0.002315491
2.852093e-12
5.996572e-05
-6.714451e-05
-0.002297013
0.002276387
3.739123e-11
8.777115e-05
-8.45079e-05
-0.002251704
0.002228871
8.465547e-11
0.000107341
-0.0001097214
-0.002205573
0.002189398
1.071605e-10
0.0001258963
-0.0001350193
-0.002169114
0.002158067
1.11631e-10
0.0001460666
-3.258399e-05
-0.002153422
0.002126516
1.346227e-10
0.0001453333
-2.692734e-05
-3.249457e-05
-2.642111e-05
-2.427406e-05
-0.002092666
0.002065689
1.636009e-10
0.0001217655
-2.405945e-05
-2.332758e-05
-2.312813e-05
-2.128641e-05
-0.002036674
0.002005707
1.266814e-10
0.0001136593
-2.064543e-05
-2.066995e-05
-2.00912e-05
-1.852597e-05
-0.001973112
0.001939599
1.128659e-10
0.0001059364
-1.796886e-05
-1.820903e-05
-1.771962e-05
-1.624281e-05
-0.001905414
0.001870953
8.695255e-11
9.837888e-05
-1.583294e-05
-1.610521e-05
-1.573724e-05
-1.433497e-05
-0.001836317
0.001801654
5.666453e-11
9.125719e-05
-1.399419e-05
-1.429338e-05
-1.397181e-05
-1.26558e-05
-0.001767061
0.001732802
1.618294e-11
8.433332e-05
-1.238308e-05
-1.265347e-05
-1.238242e-05
-1.125123e-05
-0.001699019
0.001665951
-6.392269e-11
7.765749e-05
-1.103287e-05
-1.126029e-05
-1.104486e-05
-1.006969e-05
-0.001633697
0.001602402
-1.784275e-10
7.124327e-05
-9.882094e-06
-1.008842e-05
-9.907506e-06
-9.033425e-06
-0.00157209
0.001542937
-2.966885e-10
6.504016e-05
-8.87253e-06
-9.067248e-06
-8.913548e-06
-8.15797e-06
-0.00151491
0.001488123
-3.748979e-10
5.925068e-05
-8.034718e-06
-8.196586e-06
-8.074097e-06
-7.479715e-06
-0.001462477
0.001438059
-3.938896e-10
5.420266e-05
-7.392248e-06
-7.50252e-06
-7.409072e-06
-7.007895e-06
-0.001414714
0.001392511
-3.557615e-10
5.01171e-05
-6.956087e-06
-7.004859e-06
-6.945236e-06
-6.758404e-06
-0.001371191
0.001350666
-2.769201e-10
4.750306e-05
-6.751008e-06
-6.739538e-06
-6.729648e-06
-6.797166e-06
-0.001330764
0.001311384
-1.83109e-10
4.662105e-05
-6.842217e-06
-6.777506e-06
-6.82431e-06
-7.192052e-06
-0.001292346
0.001273625
-9.838536e-11
4.772464e-05
-7.325679e-06
-7.179563e-06
-7.306378e-06
-8.237179e-06
-0.001254469
0.001235421
-3.672337e-11
5.269446e-05
-8.564452e-06
-8.269478e-06
-8.575828e-06
-1.03263e-05
-0.001215628
0.001195756
-2.19482e-12
6.29132e-05
-1.092526e-05
-1.064982e-05
-1.113981e-05
-1.449521e-05
-0.001177518
0.001161495
2.854149e-11
7.716008e-05
-1.512066e-05
-1.550296e-05
-1.601829e-05
-2.282831e-05
-0.001145301
0.001138239
4.906996e-11
0.0001086888
-2.450379e-05
-2.610019e-05
-2.819518e-05
-2.333827e-05
-0.001130214
0.001114238
3.986211e-11
0.0001075071
-2.153954e-05
-2.402062e-05
-2.263235e-05
-1.737337e-05
-0.001090886
0.001059362
-5.1149e-11
9.826824e-05
-1.639522e-05
-1.757158e-05
-1.540427e-05
-1.301431e-05
-0.001020844
0.0009774921
-6.395647e-11
8.970979e-05
-1.226074e-05
-1.081711e-05
-1.026526e-05
-7.375282e-06
-0.0009311486
0.0008828609
9.475857e-11
7.505427e-05
-6.515643e-06
-6.748287e-06
-6.12737e-06
-2.137324e-06
-0.0008338222
0.0007854762
2.262279e-10
5.601486e-05
-1.708668e-06
-2.11485e-06
-1.708269e-06
-6.37231e-07
0.0007002724
4.207001e-10
4.271999e-05
-7.294832e-07
-6.437905e-07
-7.460582e-07
-0.0007402362
-1.501036e-06
-0.0006659266
0.0006372219
4.512504e-10
3.520419e-05
-1.750929e-06
-1.504101e-06
-1.74391e-06
-2.106237e-06
-0.0006129021
0.0005921105
3.46266e-10
2.935785e-05
-2.198167e-06
-2.086005e-06
-2.176114e-06
-2.718196e-06
-0.0005734263
0.0005562824
1.211894e-10
2.831679e-05
-2.893024e-06
-2.692998e-06
-2.868826e-06
-3.425682e-06
-0.0005398707
0.0005243296
-1.984482e-10
2.917449e-05
-3.403749e-06
-3.411844e-06
-3.391969e-06
-2.541612e-06
-0.0005105703
0.0004991221
-3.959467e-10
2.114803e-05
-2.313519e-06
-2.535715e-06
-2.308664e-06
-1.193665e-06
-0.0004901056
0.0004827219
-4.180447e-10
1.196177e-05
-1.097531e-06
-1.191181e-06
-1.095277e-06
-1.048182e-06
-0.0004764613
0.0004701783
-3.403457e-10
1.066044e-05
-1.142055e-06
-1.046586e-06
-1.140346e-06
-1.892332e-06
-0.0004634106
0.0004556846
-2.355048e-10
1.560234e-05
-2.047279e-06
-1.890785e-06
-2.045661e-06
-2.876764e-06
-0.0004468495
0.0004369708
-1.503715e-10
2.160757e-05
-2.989217e-06
-2.87512e-06
-2.987571e-06
-3.426456e-06
-0.0004264098
0.000415409
-9.590767e-11
2.475817e-05
-3.4538e-06
-3.424823e-06
-3.452214e-06
-3.463917e-06
-0.0004043578
0.0003934504
-6.3294e-11
2.469102e-05
-3.429281e-06
-3.462441e-06
-3.427872e-06
-3.191432e-06
-0.0003828924
0.0003728676
-4.287446e-11
2.266259e-05
-3.12861e-06
-3.190193e-06
-3.127441e-06
-2.795608e-06
-0.0003633617
0.0003545859
-2.918833e-11
1.980999e-05
-2.722431e-06
-2.794627e-06
-2.721517e-06
-2.342693e-06
-0.0003463912
0.0003390531
-1.945995e-11
1.654653e-05
-2.262211e-06
-2.341973e-06
-2.261553e-06
-1.848029e-06
-0.0003323408
0.0003265714
-1.228464e-11
1.299137e-05
-1.763383e-06
-1.847558e-06
-1.762961e-06
-1.336583e-06
-0.0003214513
0.0003173047
-6.869346e-12
9.323966e-06
-1.252276e-06
-1.336378e-06
-1.252133e-06
-8.3745e-07
-0.0003138028
0.00031125
-2.739861e-12
5.745965e-06
-7.590158e-07
-8.375868e-07
-7.591153e-07
-3.736893e-07
-0.0003093099
0.0003082524
4.273741e-13
2.420649e-06
-3.07602e-07
-3.739691e-07
-3.078096e-07
3.859376e-08
-0.0003077483
0.0003080603
2.760124e-12
-5.665467e-07
8.897659e-08
3.834247e-08
8.85836e-08
3.798415e-07
-0.000308841
0.0003103215
4.670353e-12
-3.089887e-06
4.253776e-07
3.793338e-07
4.248123e-07
6.625927e-07
-0.0003121999
0.0003146685
6.238592e-12
-5.191349e-06
6.99442e-07
6.619496e-07
6.987574e-07
8.868593e-07
-0.0003174692
0.0003207585
7.547659e-12
-6.891855e-06
9.151569e-07
8.861191e-07
9.143958e-07
1.053519e-06
-0.0003243193
0.0003282817
8.559963e-12
-8.213782e-06
1.072904e-06
1.052792e-06
1.07218e-06
1.136941e-06
-0.0003324792
0.0003370838
9.394993e-12
-9.212348e-06
1.166987e-06
1.136519e-06
1.167251e-06
1.23868e-06
-0.0003419818
0.000347071
9.721393e-12
-9.927215e-06
1.178668e-06
1.240831e-06
1.179839e-06
1.252313e-06
-0.0003524622
0.0003579097
9.852463e-12
-1.05238e-05
1.286396e-06
1.252043e-06
1.28549e-06
1.324816e-06
-0.0003634144
0.0003690647
1.005605e-11
-1.095704e-05
1.329847e-06
1.323553e-06
1.328497e-06
1.358199e-06
-0.0003747705
0.0003805631
1.027451e-11
-1.123882e-05
1.365886e-06
1.357198e-06
1.364928e-06
1.380152e-06
-0.0003863948
0.0003922954
1.036016e-11
-1.142597e-05
1.383292e-06
1.379334e-06
1.382494e-06
1.385673e-06
-0.0003982277
0.0004042089
1.025378e-11
-1.152329e-05
1.386094e-06
1.384934e-06
1.385359e-06
1.377189e-06
-0.0004102143
0.0004162515
9.991528e-12
-1.154096e-05
1.375381e-06
1.376467e-06
1.374677e-06
1.357046e-06
-0.0004223046
0.0004283736
9.520708e-12
-1.148861e-05
1.353416e-06
1.356342e-06
1.352733e-06
1.327372e-06
-0.0004344507
0.0004405288
9.02163e-12
-1.137649e-05
1.322417e-06
1.326746e-06
1.321814e-06
1.290371e-06
-0.0004466072
0.0004526731
8.498098e-12
-1.121465e-05
1.284426e-06
1.289923e-06
1.284054e-06
1.248525e-06
-0.0004587312
0.0004647641
7.950569e-12
-1.101183e-05
1.241609e-06
1.247788e-06
1.240987e-06
1.200499e-06
-0.0004707837
0.0004767674
7.431226e-12
-1.077002e-05
1.193176e-06
1.200318e-06
1.19232e-06
1.146263e-06
-0.0004827342
0.0004886613
6.922084e-12
-1.049415e-05
1.137629e-06
1.145887e-06
1.137299e-06
1.089622e-06
-0.0004945686
0.0005004245
6.34403e-12
-1.019714e-05
1.081513e-06
1.089073e-06
1.081057e-06
1.032082e-06
-0.0005062559
0.0005120305
5.755881e-12
-9.886046e-06
1.024125e-06
1.031572e-06
1.023626e-06
9.724679e-07
-0.0005177793
0.0005234673
5.177795e-12
-9.560915e-06
9.64437e-07
9.720027e-07
9.639975e-07
9.119495e-07
-0.0005291266
0.0005347207
4.603992e-12
-9.224019e-06
9.033772e-07
9.115682e-07
9.030228e-07
8.48674e-07
-0.0005402851
0.000545781
4.062845e-12
-8.871868e-06
8.396558e-07
8.483497e-07
8.393495e-07
7.829504e-07
-0.0005512457
0.0005566384
3.598568e-12
-8.505394e-06
7.736623e-07
7.826595e-07
7.733793e-07
7.158058e-07
-0.0005619984
0.0005672853
3.232723e-12
-8.130105e-06
7.060846e-07
7.155323e-07
7.058285e-07
6.471771e-07
-0.0005725408
0.0005777282
2.902854e-12
-7.754266e-06
6.365123e-07
6.469599e-07
6.363031e-07
5.796686e-07
-0.0005828893
0.0005879795
2.676193e-12
-7.395154e-06
5.730021e-07
5.795005e-07
5.728358e-07
5.298888e-07
-0.0005930233
0.0005979849
2.588111e-12
-7.06744e-06
5.231928e-07
5.29725e-07
5.230376e-07
4.758898e-07
-0.0006029083
0.0006077547
2.587701e-12
-6.735051e-06
4.685701e-07
4.757596e-07
4.68451e-07
4.196418e-07
-0.0006125645
0.0006172976
2.679299e-12
-6.39665e-06
4.122011e-07
4.195556e-07
4.121471e-07
3.632363e-07
0.0006266118
2.786522e-12
-6.05649e-06
-0.0006219936
3.559763e-07
3.63184e-07
3.558682e-07
3.073586e-07
-0.0006311919
0.0006356932
2.929777e-12
-5.715937e-06
3.000881e-07
3.072508e-07
2.999467e-07
2.520092e-07
-0.000640155
0.0006445364
3.079547e-12
-5.375093e-06
2.449503e-07
2.51878e-07
2.44864e-07
1.973049e-07
-0.0006488772
0.0006531367
3.218467e-12
-5.034785e-06
1.903857e-07
1.972385e-07
1.903201e-07
1.434372e-07
-0.0006573547
0.0006614908
3.360738e-12
-4.696188e-06
1.366533e-07
1.434071e-07
1.366229e-07
9.062347e-08
-0.0006655842
0.0006695954
3.456287e-12
-4.360286e-06
8.394198e-08
9.06208e-08
8.393884e-08
3.91791e-08
-0.0006735628
0.0006774451
3.517253e-12
-4.026306e-06
3.282438e-08
3.917394e-08
3.280466e-08
-9.801876e-09
-0.000681275
0.0006850274
3.669476e-12
-3.698797e-06
-1.701611e-08
-9.794267e-09
-1.700205e-08
-6.152168e-08
-0.0006887411
0.0006923783
3.856095e-12
-3.379916e-06
-6.710065e-08
-6.153263e-08
-6.708224e-08
-1.087184e-07
-0.0006959728
0.0006994925
3.976511e-12
-3.074002e-06
-1.141225e-07
-1.08735e-07
-1.141319e-07
-1.538609e-07
-0.000702971
0.000706378
4.034615e-12
-2.781091e-06
-1.590794e-07
-1.538787e-07
-1.590904e-07
-1.969116e-07
-0.0007097458
0.0007130455
4.03656e-12
-2.502124e-06
-2.018753e-07
-1.969081e-07
-2.018818e-07
-2.378618e-07
-0.000716308
0.000719506
3.998428e-12
-2.237127e-06
-2.42571e-07
-2.378553e-07
-2.425816e-07
-2.766716e-07
-0.0007226689
0.0007257707
3.9219e-12
-1.986092e-06
-2.811607e-07
-2.767004e-07
-2.81163e-07
-3.135575e-07
-0.0007288392
0.00073185
3.841538e-12
-1.748192e-06
-3.17795e-07
-3.135619e-07
-3.177547e-07
-3.485258e-07
-0.0007348296
0.0007377549
3.791806e-12
-1.5231e-06
-3.526382e-07
-3.484999e-07
-3.525242e-07
-3.818299e-07
-0.0007406502
0.0007434945
3.756508e-12
-1.309587e-06
-3.855878e-07
-3.817182e-07
-3.855624e-07
-4.131086e-07
-0.0007463106
0.0007490789
3.768709e-12
-1.108302e-06
-4.168531e-07
-4.131027e-07
-4.16914e-07
-4.425812e-07
-0.0007518184
0.0007545143
3.749661e-12
-9.183409e-07
-4.461828e-07
-4.427564e-07
-4.461223e-07
-4.695639e-07
-0.0007571822
0.0007598127
3.732871e-12
-7.446149e-07
-4.733457e-07
-4.696095e-07
-4.733642e-07
-4.934353e-07
-0.0007624066
0.0007649792
4.01666e-12
-5.887995e-07
-4.985277e-07
-4.933585e-07
-4.985514e-07
-5.118347e-07
-0.0007675114
0.0007700419
2.540526e-12
-4.702692e-07
-5.183893e-07
-5.116537e-07
-5.184477e-07
-5.211367e-07
-0.0007724928
0.0007750229
-3.672781e-12
-4.30006e-07
-5.290372e-07
-5.211919e-07
-5.287802e-07
-5.001362e-07
-0.0007774524
0.0007799567
1.401084e-13
-5.32443e-07
-4.855166e-07
-5.008156e-07
-4.853338e-07
-1.949881e-07
-0.0007817178
0.0007830337
6.534243e-12
-7.620019e-07
-8.054816e-08
-1.960312e-07
-8.236661e-08
-1.499417e-08
-0.0001944797
0.0001943549
-3.458187e-11
1.397925e-07
-3.67068e-07
-0.0001938429
0.000193812
-2.769827e-12
3.979313e-07
-5.157036e-07
-0.0001940148
0.0001941448
1.694261e-10
3.855928e-07
-6.031701e-07
-0.0001946404
0.0001948249
5.267736e-10
4.180482e-07
-6.603314e-07
-0.0001954126
0.0001956114
7.933935e-10
4.607082e-07
-6.997114e-07
-0.0001962087
0.0001964034
3.997838e-10
5.046911e-07
-7.294083e-07
-0.0001969743
0.0001971574
-5.844749e-11
5.463119e-07
-7.586812e-07
-0.0001976897
0.0001978595
1.470057e-10
5.887542e-07
-7.860985e-07
-0.0001983496
0.0001985053
9.932807e-12
6.303418e-07
-8.090502e-07
-0.0001989544
0.000199096
-2.864725e-10
6.677275e-07
-8.311725e-07
-0.0001995007
0.0001996275
-3.168521e-10
7.047285e-07
-8.524407e-07
-0.0001999874
0.0002000994
-1.67227e-10
7.406199e-07
-8.718933e-07
-0.0002004157
0.0002005136
-5.003647e-11
7.741128e-07
-8.913009e-07
-0.0002007884
0.0002008744
-6.01213e-13
8.052469e-07
-8.982917e-07
-0.0002011187
0.0002011896
2.088144e-11
8.274227e-07
-9.123013e-07
-0.0002013812
0.0002014394
2.560396e-11
8.540863e-07
-9.313308e-07
-0.0002016027
0.000201651
2.021413e-11
8.829518e-07
-9.433826e-07
-0.0002017814
0.0002018184
2.4966e-11
9.063793e-07
-9.530324e-07
-0.000201917
0.0002019438
2.306231e-11
9.262162e-07
-9.611881e-07
-0.0002020141
0.000202032
2.180766e-11
9.433283e-07
-9.681544e-07
-0.000202077
0.000202087
1.757905e-11
9.580954e-07
-9.737198e-07
-0.0002021095
0.0002021129
6.095811e-12
9.703788e-07
-9.783562e-07
-0.0002021156
0.0002021139
8.4091e-12
9.800423e-07
-9.827328e-07
-0.0002020996
0.0002020938
1.635829e-11
9.885503e-07
-9.852508e-07
-0.0002020647
0.0002020552
3.029055e-11
9.94732e-07
-9.863518e-07
-0.0002020152
0.0002020027
2.854241e-11
9.987853e-07
-9.866657e-07
-0.0002019542
0.0002019399
1.578407e-11
1.000968e-06
-9.86051e-07
-0.0002018859
0.0002018708
1.592395e-12
1.001126e-06
-9.841512e-07
-0.0002018141
0.0002017995
4.63772e-12
9.987751e-07
-9.812175e-07
-0.0002017441
0.0002017317
1.863442e-11
9.936301e-07
-9.763488e-07
-0.0002016827
0.0002016745
2.197749e-11
9.845036e-07
-9.712404e-07
-0.0002016399
0.0002016397
1.818173e-11
9.714308e-07
-9.523574e-07
-0.0002016404
0.0002016532
1.476134e-11
9.395386e-07
-9.199585e-07
-0.0002017083
0.000201754
2.48352e-11
8.741584e-07
-8.400391e-07
-0.0002019288
0.0002020684
2.450929e-11
7.004534e-07
1.706887e-07
-0.0002025261
0.0002024061
3.183673e-11
-5.071355e-08
7.198889e-07
-0.0002020471
0.0002019956
2.402215e-12
-6.683693e-07
8.142708e-07
-0.0002018278
0.0002017905
1.690597e-11
-7.770039e-07
8.526723e-07
-0.0002017248
0.0002017111
2.226996e-11
-8.390146e-07
8.755573e-07
-0.0002016853
0.0002016796
1.370213e-11
-8.698837e-07
8.913079e-07
-0.0002016721
0.000201672
-8.83534e-12
-8.912052e-07
9.035775e-07
-0.0002016754
0.0002016779
-1.59715e-11
-9.060748e-07
9.139984e-07
-0.0002016873
0.0002016909
-1.142039e-11
-9.176004e-07
9.223659e-07
-0.0002017024
0.0002017062
-2.993295e-12
-9.261905e-07
9.294347e-07
-0.0002017174
0.0002017211
-1.021183e-11
-9.330636e-07
9.351039e-07
-0.000201731
0.000201734
-1.252532e-11
-9.380859e-07
9.402967e-07
-0.0002017413
0.0002017435
-3.258026e-12
-9.425757e-07
9.42976e-07
-0.0002017477
0.0002017485
-3.928994e-12
-9.437546e-07
9.485818e-07
-0.0002017494
0.0002017494
4.781586e-11
-9.485808e-07
9.500689e-07
-0.0002017475
0.0002017468
-5.732794e-12
-9.49355e-07
9.50734e-07
-0.0002017445
0.0002017439
-2.014739e-11
-9.501307e-07
9.512671e-07
-0.0002017415
0.000201741
-1.611238e-11
-9.506892e-07
9.513906e-07
-0.0002017387
0.0002017382
-1.604425e-11
-9.508732e-07
9.514395e-07
-0.0002017361
0.0002017357
-2.561078e-11
-9.509975e-07
9.517097e-07
-0.0002017339
0.0002017337
-2.6684e-11
-9.515039e-07
9.52233e-07
-0.0002017326
0.0002017328
-2.702619e-11
-9.523976e-07
9.525746e-07
-0.0002017328
0.0002017334
-2.224963e-11
-9.531773e-07
9.531972e-07
-0.000201735
0.0002017362
-1.615317e-11
-9.54435e-07
9.544063e-07
-0.0002017399
0.000201742
-1.578647e-11
-9.565054e-07
9.559403e-07
-0.0002017484
0.0002017515
-1.229197e-11
-9.590643e-07
9.576024e-07
-0.000201761
0.0002017654
-1.09287e-11
-9.619708e-07
9.595071e-07
-0.0002017786
0.0002017844
-2.269569e-11
-9.652733e-07
9.616403e-07
-0.0002018018
0.0002018092
-2.406985e-11
-9.689384e-07
9.6394e-07
-0.0002018312
0.0002018402
-2.06343e-11
-9.729078e-07
9.664745e-07
-0.0002018672
0.0002018779
-1.404144e-11
-9.771943e-07
9.69306e-07
-0.0002019098
0.0002019221
-1.320644e-11
-9.815427e-07
9.719677e-07
-0.0002019586
0.0002019721
3.144991e-13
-9.854446e-07
9.733154e-07
-0.0002020155
0.0002020304
1.033588e-11
-9.882111e-07
9.754835e-07
-0.0002020796
0.0002020999
1.961979e-11
-9.958193e-07
9.884423e-07
-0.0002021804
0.0002021671
1.739113e-10
-9.75285e-07
1.168426e-06
-0.0002004091
0.0008250987
-2.422839e-11
-4.086471e-06
-3.466314e-08
1.172413e-06
-4.831587e-08
-0.0002004131
-0.0002112229
-0.000211225
5.444741e-07
-0.0008281349
0.000828657
-1.885816e-11
-3.354345e-06
8.876542e-07
5.279296e-07
8.721231e-07
7.243721e-07
-0.0008289438
0.0008293872
7.107273e-12
-3.416461e-06
7.748889e-07
7.113104e-07
7.625414e-07
7.7813e-07
-0.0008301787
0.0008308664
1.715917e-11
-3.870611e-06
8.245452e-07
7.66758e-07
8.134313e-07
8.424241e-07
-0.0008314539
0.0008318693
9.898355e-12
-3.838266e-06
8.792961e-07
8.320253e-07
8.690623e-07
8.712907e-07
-0.0008322469
0.0008326068
1.060685e-11
-3.865941e-06
8.912781e-07
8.616236e-07
8.817879e-07
8.891714e-07
-0.0008329982
0.0008333928
1.173465e-11
-3.95632e-06
9.010569e-07
8.796334e-07
8.918658e-07
9.115007e-07
-0.0008338052
0.0008342095
3.259694e-12
-4.050084e-06
9.201905e-07
9.020815e-07
9.119676e-07
9.31246e-07
-0.0008346271
0.0008350428
-2.355215e-12
-4.141516e-06
9.389041e-07
9.238236e-07
9.317963e-07
9.500478e-07
-0.000835472
0.0008358882
-5.725038e-12
-4.215933e-06
9.570321e-07
9.426175e-07
9.500301e-07
9.694635e-07
-0.000836309
0.0008367315
-1.307061e-11
-4.295333e-06
9.731379e-07
9.631777e-07
9.670438e-07
9.858664e-07
-0.0008371547
0.0008375756
-1.815751e-11
-4.360171e-06
9.89197e-07
9.803453e-07
9.838402e-07
1.001758e-06
-0.0008379957
0.0008384159
-7.014726e-12
-4.423191e-06
1.004451e-06
9.969558e-07
9.997766e-07
1.015943e-06
-0.0008388359
0.0008392568
2.031311e-12
-4.481116e-06
1.018245e-06
1.01178e-06
1.014191e-06
1.029056e-06
-0.0008396775
0.0008401007
3.60591e-13
-4.536171e-06
1.031035e-06
1.02542e-06
1.027485e-06
1.040734e-06
-0.0008405243
0.0008409512
8.608165e-12
-4.587079e-06
1.042506e-06
1.037559e-06
1.039416e-06
1.051249e-06
-0.0008413789
0.0008418108
2.132737e-11
-4.634445e-06
1.052779e-06
1.04847e-06
1.050055e-06
1.060526e-06
-0.000842244
0.0008426817
1.748962e-11
-4.677728e-06
1.061949e-06
1.058054e-06
1.059517e-06
1.068875e-06
-0.000843121
0.0008435651
3.181814e-12
-4.71782e-06
1.070155e-06
1.066671e-06
1.068019e-06
1.076356e-06
-0.0008440111
0.000844462
-1.083544e-12
-4.754769e-06
1.077483e-06
1.074422e-06
1.075601e-06
1.082986e-06
-0.000844915
0.0008453732
8.820101e-12
-4.788483e-06
1.083867e-06
1.08126e-06
1.082189e-06
1.088115e-06
-0.0008458349
0.0008463028
1.392088e-11
-4.81998e-06
1.089534e-06
1.086601e-06
1.087895e-06
1.092973e-06
-0.0008467742
0.0008472524
5.623115e-12
-4.849056e-06
1.093788e-06
1.091591e-06
1.092495e-06
1.09677e-06
-0.000847735
0.0008482241
3.721724e-12
-4.875407e-06
1.097502e-06
1.095584e-06
1.096404e-06
1.100329e-06
-0.0008487174
0.0008492168
8.368844e-12
-4.899955e-06
1.101056e-06
1.099226e-06
1.09993e-06
1.103636e-06
-0.0008497201
0.0008502289
1.21619e-11
-4.922825e-06
1.104431e-06
1.102562e-06
1.103326e-06
1.106915e-06
-0.0008507412
0.0008512586
7.871896e-12
-4.94459e-06
1.107665e-06
1.105925e-06
1.106719e-06
1.110069e-06
-0.000851779
0.0008523038
-1.922438e-12
-4.964931e-06
1.110836e-06
1.109203e-06
1.109995e-06
1.113195e-06
-0.0008528313
0.0008533627
-7.915614e-13
-4.98414e-06
1.113961e-06
1.112398e-06
1.113182e-06
1.116213e-06
-0.0008538964
0.0008544336
-2.389953e-12
-5.002104e-06
1.116986e-06
1.115477e-06
1.116262e-06
1.119185e-06
-0.0008549727
0.0008555148
-1.377388e-11
-5.01898e-06
1.119967e-06
1.118503e-06
1.119287e-06
1.122117e-06
-0.0008560585
0.0008566047
-9.093932e-12
-5.034914e-06
1.122906e-06
1.121467e-06
1.12227e-06
1.124937e-06
-0.0008571523
0.0008577017
4.593064e-12
-5.049544e-06
1.125714e-06
1.124328e-06
1.125114e-06
1.127546e-06
-0.0008582523
0.0008588043
5.252984e-12
-5.062589e-06
1.128316e-06
1.126976e-06
1.127752e-06
1.130074e-06
-0.0008593572
0.0008599108
-9.924251e-12
-5.074426e-06
1.130869e-06
1.129543e-06
1.130351e-06
1.132511e-06
-0.0008604651
0.0008610194
-1.628223e-11
-5.084947e-06
1.133305e-06
1.132007e-06
1.13281e-06
1.134665e-06
-0.0008615743
0.0008621285
-7.841507e-12
-5.093389e-06
1.135459e-06
1.134177e-06
1.134969e-06
1.136473e-06
-0.000862683
0.0008632357
2.192047e-12
-5.099305e-06
1.137275e-06
1.136025e-06
1.136838e-06
1.137941e-06
-0.0008637887
0.0008643383
9.304753e-12
-5.102311e-06
1.138782e-06
1.13753e-06
1.138389e-06
1.138845e-06
-0.0008648881
0.0008654324
1.04574e-11
-5.10073e-06
1.139745e-06
1.13843e-06
1.139372e-06
1.138685e-06
-0.0008659765
0.0008665125
1.053287e-11
-5.09186e-06
1.139676e-06
1.138271e-06
1.139239e-06
1.136602e-06
-0.0008670474
0.0008675702
1.55616e-11
-5.070673e-06
1.137801e-06
1.136161e-06
1.137324e-06
1.131096e-06
-0.0008680887
0.0008685888
1.313767e-11
-5.026212e-06
1.132395e-06
1.130661e-06
1.131983e-06
1.116812e-06
-0.0008690762
0.0008695401
5.639777e-12
-4.930174e-06
1.116667e-06
1.116452e-06
1.116332e-06
1.071481e-06
-0.0008699928
0.0008704638
2.026194e-12
-4.734857e-06
1.060736e-06
1.071162e-06
1.060417e-06
9.61857e-07
-0.0008709957
0.0008716214
-7.637295e-13
-4.398525e-06
9.249314e-07
9.615354e-07
9.245758e-07
8.31483e-07
-0.0008723014
0.0008729914
-1.276404e-12
-3.991501e-06
8.195514e-07
8.31191e-07
8.192732e-07
8.089208e-07
-0.0008736563
0.0008742987
-3.34212e-12
-3.884842e-06
8.125776e-07
8.08647e-07
8.123132e-07
8.035692e-07
-0.0008749361
0.0008755682
-4.664537e-12
-3.847222e-06
8.042604e-07
8.033004e-07
8.039938e-07
7.945249e-07
-0.0008761943
0.0008768105
7.399174e-13
-3.798227e-06
7.967603e-07
7.942626e-07
7.965194e-07
7.887579e-07
-0.0008774159
0.0008780071
1.114673e-11
-3.755256e-06
7.935621e-07
7.884849e-07
7.932998e-07
7.760745e-07
-0.0008785845
0.00087916
1.966079e-11
-3.691871e-06
7.825673e-07
7.756201e-07
7.82079e-07
7.432295e-07
-0.0008797403
0.0008803679
-5.314558e-13
-3.588945e-06
7.38867e-07
7.419463e-07
7.373116e-07
5.711928e-07
-0.0008813738
0.0008830116
-5.32676e-12
-4.043214e-06
6.339329e-07
5.685765e-07
6.316416e-07
8.783519e-07
-0.0008841775
0.0008836849
3.669e-12
-2.77166e-06
7.471391e-07
8.854003e-07
7.534121e-07
7.427664e-07
-0.000883613
0.0008841538
8.119817e-12
-3.36048e-06
6.601332e-07
7.500113e-07
6.668221e-07
7.050606e-07
-0.0008846954
0.0008853071
5.554264e-12
-3.360263e-06
6.633933e-07
7.111622e-07
6.689457e-07
6.812282e-07
-0.0008858877
0.0008865671
1.024034e-12
-3.361049e-06
6.547759e-07
6.861986e-07
6.594621e-07
6.792746e-07
-0.0008872481
0.0008879649
8.033195e-13
-3.416405e-06
6.663138e-07
6.835412e-07
6.704006e-07
6.928475e-07
-0.0008886636
0.0008893734
2.473588e-12
-3.477731e-06
6.871755e-07
6.968991e-07
6.909394e-07
7.070717e-07
-0.0008900713
0.0008907801
3.989043e-12
-3.538494e-06
7.045077e-07
7.104161e-07
7.077026e-07
7.204234e-07
-0.0008914799
0.000892186
4.434503e-12
-3.592831e-06
7.201562e-07
7.232877e-07
7.22903e-07
7.333388e-07
-0.0008928829
0.0008935844
4.533553e-12
-3.641579e-06
7.342353e-07
7.358143e-07
7.366128e-07
7.456161e-07
-0.0008942795
0.0008949769
3.931395e-12
-3.686836e-06
7.469765e-07
7.477893e-07
7.490991e-07
7.563363e-07
-0.0008956692
0.0008963659
3.10573e-12
-3.729968e-06
7.583573e-07
7.582959e-07
7.602269e-07
7.676305e-07
-0.0008970591
0.0008977537
2.058738e-12
-3.773178e-06
7.699849e-07
7.692981e-07
7.716493e-07
7.784881e-07
-0.0008984447
0.0008991372
2.798741e-12
-3.813516e-06
7.805614e-07
7.799579e-07
7.82e-07
7.880218e-07
-0.0008998268