/*--------------------------------*- C++ -*----------------------------------*\
| =========                 |                                                 |
| \\      /  F ield         | foam-extend: Open Source CFD                    |
|  \\    /   O peration     | Version:     3.1                                |
|   \\  /    A nd           | Web:         http://www.extend-project.de       |
|    \\/     M anipulation  |                                                 |
\*---------------------------------------------------------------------------*/
FoamFile
{
    version     2.0;
    format      ascii;
    class       volScalarField;
    location    "16";
    object      alpha1;
}
// * * * * * * * * * * * * * * * * * * * * * * * * * * * * * * * * * * * * * //

dimensions      [0 0 0 0 0 0 0];

internalField   nonuniform List<scalar> 
119952
(
1
1
1
1
1
1
1
1
1
1
1
1
1
1
1
1
1
1
1
1
1
1
1
1
1
1
1
1
1
1
1
1
1
1
1
1
1
1
1
1
1
1
1
1
1
1
1
1
1
1
1
1
1
1
1
1
1
1
1
1
1
1
1
1
1
1
1
1
1
1
1
1
1
1
1
1
1
1
1
1
1
1
1
1
1
1
1
1
1
1
1
1
1
1
1
1
1
1
1
1
1
1
1
1
1
0.9999999
1
1
0.9999999
1
1
0.9999999
1
1
1
1
1
1
1
1
1
1
1
1
1
1
1
1
1
1
1
1
1
1
1
1
1
1
1
1
1
1
1
1
1
1
1
1
1
1
1
1
1
1
1
1
1
1
1
1
1
1
1
1
1
1
1
1
1
1
0.9999999
1
1
1
0.9999999
1
1
1
0.9999999
0.9999999
1
1
1
0.9999999
1
1
1
1
1
0.9999999
1
1
1
1
1
1
1
1
1
0.9999999
1
1
1
1
1
1
1
0.9999999
1
1
0.9999999
1
1
0.9999999
1
1
1
0.9999999
1
0.9999999
1
1
0.9999999
0.9999997
0.9999998
1
0.9999997
1
0.9999996
1
0.9999999
1
1
0.9999999
0.9999997
1
1
1
1
1
1
1
1
0.9999998
1
1
1
1
1
1
1
1
1
1
1
1
1
1
1
1
1
1
1
1
1
1
1
1
1
1
1
1
0.9999999
0.9999998
1
1
1
1
1
1
1
1
1
1
1
1
1
1
1
1
1
1
1
0.9999999
1
1
1
1
1
1
1
1
1
1
1
1
1
1
1
0.9999998
1
1
0.9999997
0.9999999
1
1
0.9999998
1
1
1
0.9999999
0.9999999
1
1
1
1
1
1
1
1
1
1
0.9999998
0.9999999
1
1
1
1
1
1
1
1
1
1
1
1
1
1
0.9999997
0.9999994
0.9999998
0.9999978
0.9998379
0.9914362
0.9943749
0.9994056
0.9990526
0.9996129
0.9999899
1
1
1
1
1
1
1
1
1
1
0.9999992
0.9999993
1
1
1
1
1
0.9999999
1
1
1
1
1
1
1
1
1
1
1
1
1
1
1
1
1
1
1
1
1
1
1
1
0.9999999
1
1
1
1
1
1
1
1
1
1
1
1
1
1
1
1
1
1
1
1
1
1
1
1
1
1
1
1
1
1
1
1
1
1
1
1
1
1
1
1
1
1
1
1
1
1
1
1
1
1
1
1
1
1
1
1
1
1
1
1
1
1
1
1
1
1
1
1
1
1
1
1
1
1
1
1
1
1
1
1
1
1
1
1
1
1
1
1
1
1
1
1
1
1
1
1
1
1
1
1
1
1
1
1
1
1
1
1
1
1
1
1
1
1
1
1
1
1
1
1
1
1
1
1
1
1
1
1
1
1
1
1
1
1
1
1
1
1
1
1
1
1
1
1
1
1
1
1
1
1
1
1
1
1
1
1
1
1
1
1
1
1
1
1
1
1
1
1
1
1
1
1
1
1
1
1
1
1
1
1
1
1
1
1
1
1
1
1
1
1
1
1
1
1
1
1
1
1
0.9999999
0.9999999
1
1
1
1
1
1
1
1
1
1
1
1
1
1
1
1
1
1
1
0.9999999
0.9999999
1
1
1
1
1
0.9999999
1
1
1
1
1
1
1
1
1
1
0.9999998
1
0.9999998
0.9999999
1
1
1
0.9999999
1
1
0.9999998
0.9999999
1
1
1
1
1
1
1
1
1
1
1
1
1
1
1
1
1
1
1
1
1
1
1
1
1
1
1
1
1
1
1
1
1
1
1
1
0.9999998
0.9999998
0.9999999
1
1
1
1
1
1
1
1
1
1
1
1
1
1
1
1
1
1
0.9999999
0.9999999
0.9999999
1
1
1
1
1
1
1
1
1
1
1
1
1
1
0.9999999
0.9999999
0.9999999
1
1
1
1
0.9999999
0.9999999
0.9999999
1
1
1
1
1
1
1
1
1
1
1
1
0.9999999
0.999998
0.9999906
0.9999908
0.9999937
0.9999973
0.9999995
1
1
1
1
1
1
1
1
0.9999998
0.9999973
0.9999616
0.9996465
0.9973811
0.9823578
0.9745703
0.9745703
0.9745703
0.9839808
0.9937939
0.9980974
0.9996841
0.9999847
0.9999999
1
1
1
1
0.9999998
0.9999989
0.9999981
0.9999985
0.9999994
0.9999999
1
1
1
1
1
1
1
1
1
1
1
1
1
1
1
1
1
1
1
1
1
1
1
1
1
1
1
1
1
1
1
1
1
1
1
1
1
1
1
1
1
1
1
1
1
1
1
1
1
1
1
1
1
1
1
1
1
1
1
1
1
1
1
1
1
1
1
1
1
1
1
1
1
1
1
1
1
1
1
1
1
1
1
1
1
1
1
1
1
1
1
1
1
1
1
1
1
1
1
1
1
1
1
1
1
1
1
1
1
1
1
1
1
1
1
1
1
1
1
1
1
1
1
1
1
1
1
1
1
1
1
1
1
1
1
1
1
1
1
1
1
1
1
1
1
1
1
1
1
1
1
1
1
1
1
1
1
1
1
1
1
1
1
1
1
1
1
1
1
1
1
1
1
1
1
1
1
1
1
1
1
1
1
1
1
1
1
1
1
1
1
1
1
1
1
1
1
1
1
1
1
1
1
1
1
1
1
1
1
1
1
1
1
1
1
1
1
1
1
1
1
1
1
1
1
1
1
1
1
1
1
1
1
1
1
1
1
1
1
1
1
1
1
1
1
1
1
1
1
1
1
1
1
1
1
1
1
1
1
1
1
1
1
1
1
1
1
1
1
1
1
1
1
1
1
1
1
1
1
1
1
1
1
1
1
1
1
1
1
1
1
1
0.9999999
1
1
1
1
1
1
1
1
1
1
1
1
0.9999999
0.9999998
0.9999999
1
1
1
0.9999999
1
1
1
1
1
0.9999999
0.9999999
1
1
1
1
1
1
1
1
1
1
1
1
1
1
1
1
1
1
1
1
1
1
1
1
1
1
1
1
1
1
1
1
1
1
1
1
1
1
1
0.9999999
0.9999999
0.9999999
1
1
1
1
1
1
1
1
1
1
1
1
1
1
1
1
1
0.9999999
0.9999999
1
1
1
1
1
1
0.9999999
0.9999999
0.9999999
1
1
1
1
1
1
1
1
1
0.9999999
0.9999999
0.9999999
1
1
1
1
1
1
1
1
1
1
1
0.9999997
0.9999961
0.999943
0.9998539
0.9998815
0.9999417
0.9999871
0.9999991
1
1
1
1
1
1
0.9999999
0.9999989
0.9999922
0.9999694
0.9999082
0.9996872
0.9982275
0.9876384
0.9745703
0.9745703
0.9745703
0.9875103
0.9982089
0.9999277
0.9999923
0.9999911
0.9999923
0.9999959
0.9999992
0.9999998
0.9999991
0.9999913
0.9999761
0.9999786
0.9999896
0.9999979
0.9999997
0.9999998
0.9999996
0.9999988
0.9999986
0.9999993
0.9999999
1
1
1
1
1
0.9999999
1
1
1
1
1
1
1
1
1
1
1
1
1
1
1
1
1
1
1
1
1
1
1
1
1
1
1
1
1
1
1
1
1
1
1
1
1
1
1
1
1
1
1
1
1
1
1
1
1
1
1
1
1
1
1
1
1
1
1
1
1
1
1
1
1
1
1
1
1
1
1
1
1
1
1
1
1
1
1
1
1
1
1
1
1
1
1
1
1
1
1
1
1
1
1
1
1
1
1
1
1
1
1
1
1
1
1
1
1
1
1
1
1
1
1
1
1
1
1
1
1
1
1
1
1
1
1
1
1
1
1
1
1
1
1
1
1
1
1
1
1
1
1
1
1
1
1
1
1
1
1
1
1
1
1
1
1
1
1
1
1
1
1
1
1
1
1
1
1
1
1
1
1
1
1
1
1
1
1
1
1
1
1
1
1
1
1
1
1
1
1
1
1
1
1
1
1
1
1
1
1
1
1
1
1
1
1
1
1
1
1
1
1
1
1
1
1
1
1
1
1
1
1
1
1
1
1
1
1
1
1
1
1
1
1
1
1
1
1
1
1
1
1
1
1
1
1
1
1
1
1
1
1
1
1
1
1
1
1
1
1
1
1
1
1
1
1
1
1
1
1
1
1
1
1
1
1
1
1
1
1
1
1
1
1
1
1
1
1
1
1
1
1
0.9999999
1
1
1
1
1
1
1
1
1
1
1
0.9999999
0.9999999
1
1
0.9999999
0.9999999
0.9999999
1
1
1
1
1
1
1
1
1
1
1
0.9999999
0.9999999
0.9999999
1
1
1
1
1
1
1
1
1
1
1
1
1
1
1
1
1
1
1
1
1
1
1
1
1
1
1
1
1
1
1
0.9999999
0.9999999
0.9999999
1
1
1
1
1
1
1
1
1
1
1
1
1
1
1
1
0.9999998
0.9999998
0.9999999
1
1
1
1
1
1
0.9999999
0.9999999
1
1
1
1
1
1
1
1
1
1
1
1
1
0.9999999
0.9999999
0.9999999
1
1
1
0.9999999
0.9999999
0.9999999
1
0.9999999
0.9999993
0.9999884
0.9998156
0.9992505
0.9993074
0.9996566
0.999939
0.9999976
1
1
1
1
1
1
0.9999999
0.9999996
0.9999988
0.9999971
0.9999908
0.999954
0.9996551
0.9972
0.9906004
0.9912083
0.995845
0.9992151
0.9998219
0.9995189
0.9991597
0.9993056
0.9996969
0.9999532
0.9999984
0.9999993
0.9999965
0.9999497
0.9997816
0.9997734
0.9998529
0.9999435
0.9999787
0.9999853
0.9999894
0.9999966
0.9999997
1
1
1
1
1
0.9999999
0.9999997
0.9999997
0.9999998
1
1
1
1
1
1
1
1
1
1
1
1
1
1
1
1
1
1
1
1
1
1
1
1
1
1
1
1
1
1
1
1
1
1
1
1
1
1
1
1
1
1
1
1
1
1
1
1
1
1
1
1
1
1
1
1
1
1
1
1
1
1
1
1
1
1
1
1
1
1
1
1
1
1
1
1
1
1
1
1
1
1
1
1
1
1
1
1
1
1
1
1
1
1
1
1
1
1
1
1
1
1
1
1
1
1
1
1
1
1
1
1
1
1
1
1
1
1
1
1
1
1
1
1
1
1
1
1
1
1
1
1
1
1
1
1
1
1
1
1
1
1
1
1
1
1
1
1
1
1
1
1
1
1
1
1
1
1
1
1
1
1
1
1
1
1
1
1
1
1
1
1
1
1
1
1
1
1
1
1
1
1
1
1
1
1
1
1
1
1
1
1
1
1
1
1
1
1
1
1
1
1
1
1
1
1
1
1
1
1
1
1
1
1
1
1
1
1
1
1
1
1
1
1
1
1
1
1
1
1
1
1
1
1
1
1
1
1
1
1
1
1
1
1
1
1
1
1
1
1
1
1
1
1
1
1
1
1
1
1
1
1
1
1
1
1
1
1
1
1
1
1
1
1
1
1
1
1
1
0.9999999
0.9999997
0.9999997
0.9999999
1
1
1
1
1
1
1
1
0.9999999
0.9999998
0.9999994
0.9999986
0.9999987
0.9999996
1
1
1
1
1
0.9999999
0.9999999
1
1
1
1
1
1
1
1
1
1
1
1
1
1
1
0.9999999
0.9999999
1
1
1
1
1
1
1
1
0.9999999
0.9999999
0.9999999
0.9999994
0.9999977
0.9999969
0.9999978
0.9999994
0.9999999
1
1
1
1
1
1
1
1
1
1
1
1
1
1
1
1
1
1
1
1
1
1
1
1
1
1
1
1
1
1
1
1
1
1
1
1
0.9999998
0.9999995
0.9999996
0.9999999
1
1
1
1
1
1
1
1
1
1
0.9999998
0.9999998
0.9999999
1
1
1
0.9999999
0.9999999
0.9999999
1
1
1
1
1
1
1
1
1
1
1
1
1
0.9999998
0.9999998
0.9999999
1
1
0.9999999
0.9999996
0.9999997
0.9999999
1
0.9999999
0.9999971
0.9999401
0.9990083
0.9970859
0.9981917
0.9995965
0.9999756
0.9999997
1
1
1
1
1
1
1
1
0.9999999
0.9999996
0.9999987
0.9999958
0.9999865
0.9999692
0.9999658
0.9999738
0.999972
0.9997687
0.9974994
0.992128
0.9931697
0.9972788
0.9996365
0.999989
0.9999993
0.9999985
0.9999817
0.9996991
0.9980935
0.9971138
0.9974046
0.9984
0.9995091
0.9999519
0.9999991
1
1
1
1
1
1
0.9999999
0.9999998
0.9999998
0.9999999
1
1
1
1
1
1
1
1
1
1
1
1
1
0.9999999
0.9999999
1
1
1
1
1
1
1
1
1
1
1
1
1
1
1
1
1
1
1
1
1
1
1
1
1
1
1
1
1
1
1
1
1
1
1
1
1
1
1
1
1
1
1
1
1
1
1
1
1
1
1
1
1
1
1
1
1
1
1
1
1
1
1
1
1
1
1
1
1
1
1
1
1
1
1
1
1
1
1
1
1
1
1
1
1
1
1
1
1
1
1
1
1
1
1
1
1
1
1
1
1
1
1
1
1
1
1
1
1
1
1
1
1
1
1
1
1
1
1
1
1
1
1
1
1
1
1
1
1
1
1
1
1
1
1
1
1
1
1
1
1
1
1
1
1
1
1
1
1
1
1
1
1
1
1
1
1
1
1
1
1
1
1
1
1
1
1
1
1
1
1
1
1
1
1
1
1
1
1
1
1
1
1
1
1
1
1
1
1
1
1
1
1
1
1
1
1
1
1
1
1
1
1
1
1
1
1
1
1
1
1
1
1
1
1
1
1
1
1
1
1
1
1
1
1
1
1
1
1
1
1
1
1
1
1
1
1
1
1
1
1
1
1
1
1
1
1
1
1
1
1
1
1
1
1
1
1
1
1
1
1
1
1
1
1
1
1
1
1
1
1
1
1
0.9999997
0.9999986
0.9999987
0.9999995
0.9999999
1
1
1
1
1
0.9999999
0.9999997
0.9999985
0.9999931
0.9999802
0.9999776
0.9999882
0.9999982
0.9999999
1
1
1
1
1
1
1
1
1
1
1
1
1
1
1
1
1
1
1
1
1
1
1
1
1
1
0.9999997
0.9999979
0.9999979
0.9999993
0.9999994
0.9999985
0.9999965
0.9999964
0.9999982
0.9999993
0.999998
0.9999867
0.999976
0.9999825
0.9999934
0.9999987
0.9999998
1
1
1
1
1
1
1
1
1
1
1
1
1
1
1
1
1
1
1
1
1
1
1
1
1
1
1
1
1
1
1
1
1
0.9999999
0.9999989
0.9999984
0.9999991
0.9999998
1
1
1
1
1
1
1
1
1
1
0.9999998
0.9999998
0.9999999
1
1
1
1
1
1
1
1
1
1
0.9999999
0.9999999
1
1
1
1
1
1
1
0.9999999
0.9999998
0.9999998
1
1
0.9999999
0.9999995
0.9999996
0.9999998
1
0.9999999
0.999999
0.9999683
0.9991752
0.9971394
0.9971176
0.9986384
0.9997742
0.9999907
0.9999999
1
1
1
1
1
1
1
1
1
1
1
1
1
0.9999999
0.9999996
0.999993
0.9998254
0.9959977
0.9864196
0.9863801
0.9912461
0.9983512
0.9999247
0.9999987
0.9999989
0.9999915
0.9998392
0.9971543
0.9788522
0.9691016
0.9795812
0.9944595
0.9995868
0.9999942
1
1
1
1
1
1
1
0.9999999
0.9999999
1
1
1
1
1
0.9999999
0.9999999
0.9999999
1
1
1
1
1
1
1
1
1
1
1
1
1
1
1
1
1
1
1
1
1
1
1
1
1
1
1
1
1
1
1
1
1
1
1
1
1
1
1
1
1
1
1
1
1
1
1
1
1
1
1
1
1
1
1
1
1
1
1
1
1
1
1
1
1
1
1
1
1
1
1
1
1
1
1
1
1
1
1
1
1
1
1
1
1
1
1
1
1
1
1
1
1
1
1
1
1
1
1
1
1
1
1
1
1
1
1
1
1
1
1
1
1
1
1
1
1
1
1
1
1
1
1
1
1
1
1
1
1
1
1
1
1
1
1
1
1
1
1
1
1
1
1
1
1
1
1
1
1
1
1
1
1
1
1
1
1
1
1
0.9999999
0.9999999
0.9999999
0.9999999
0.9999999
0.9999999
0.9999999
0.9999999
0.9999999
0.9999997
0.9999993
0.999999
0.9999989
0.9999987
0.9999968
0.9999854
0.9999631
0.9999598
0.9999657
0.9999789
0.999991
0.9999975
0.9999995
0.9999999
0.9999999
0.9999999
0.9999999
0.9999998
0.9999998
0.9999997
0.9999997
0.9999998
0.9999998
0.9999999
1
1
1
1
1
0.9999999
1
1
1
1
1
1
1
1
1
1
1
1
1
1
1
1
1
1
1
1
1
1
1
1
1
1
1
1
1
1
1
1
1
1
1
1
1
1
0.9999999
0.9999999
0.9999998
0.9999995
0.9999995
0.9999996
0.9999995
0.9999975
0.9999915
0.999986
0.999986
0.9999879
0.9999919
0.9999963
0.9999991
0.9999999
1
1
1
1
1
1
1
1
1
1
1
1
1
1
1
1
1
1
1
1
1
1
1
1
1
0.9999999
0.9999998
0.9999999
1
1
1
1
0.9999995
0.999998
0.999998
0.9999992
0.9999997
0.9999996
0.9999986
0.9999919
0.9999637
0.9999483
0.9999599
0.999987
0.9999927
0.9999677
0.9998148
0.9998206
0.9999275
0.99999
0.9999996
1
1
1
1
1
1
1
1
0.9999999
0.9999999
0.9999999
1
1
1
1
1
1
1
1
1
1
1
1
1
1
1
1
0.9999998
0.9999993
0.9999996
0.9999997
0.9999987
0.9999801
0.9999632
0.9999681
0.9999893
0.999999
0.9999997
0.9999977
0.999972
0.9999065
0.9999143
0.9999488
0.9999827
0.9999976
0.9999999
1
1
1
1
1
1
1
1
1
1
1
1
1
1
1
1
1
0.9999999
1
1
1
1
1
1
1
1
1
1
1
1
1
0.9999999
0.9999989
0.9999984
0.9999988
0.9999997
1
1
1
1
1
1
1
1
1
1
1
0.9999999
0.9999999
1
1
1
1
1
1
1
1
1
1
0.9999999
0.9999999
1
1
1
1
1
1
1
1
0.9999999
0.9999998
0.9999999
1
1
0.9999997
0.9999996
0.9999997
0.9999999
1
0.9999998
0.9999948
0.9999085
0.9988558
0.9971596
0.998136
0.9995161
0.9999671
0.9999996
1
1
1
1
1
1
1
1
1
1
1
1
1
1
0.9999998
0.9999965
0.9999407
0.9991481
0.9920069
0.9863801
0.9901059
0.9974104
0.9998138
0.999997
0.9999989
0.999995
0.9998997
0.9976661
0.9579966
0.9221688
0.9324277
0.9739125
0.9953787
0.9995936
0.999988
0.9999999
1
1
1
1
0.9999999
0.9999996
0.9999997
0.9999999
1
1
1
0.9999998
0.9999997
0.9999997
0.9999999
1
1
1
1
1
1
1
1
1
1
1
1
1
1
1
1
1
1
1
1
1
1
1
1
1
1
1
1
1
1
1
1
1
1
1
1
1
1
1
1
1
1
1
1
1
1
1
1
1
1
1
1
1
1
1
1
1
1
1
1
1
1
1
1
1
1
1
1
1
1
1
1
1
1
1
1
1
1
1
1
1
1
1
1
1
1
1
1
1
1
1
1
1
1
1
1
1
1
1
1
1
1
1
1
1
1
1
1
1
1
1
1
1
1
1
1
1
0.9999999
0.9999998
0.9999998
0.9999998
0.9999997
0.9999997
0.9999998
0.9999998
0.9999998
0.9999997
0.9999995
0.9999992
0.9999988
0.9999981
0.9999974
0.9999974
0.9999983
0.9999991
0.9999991
0.9999989
0.9999982
0.9999963
0.9999922
0.9999868
0.9999853
0.9999868
0.9999922
0.9999961
0.9999963
0.9999954
0.9999911
0.9999813
0.9999674
0.99996
0.9999599
0.9999657
0.9999807
0.9999908
0.9999916
0.9999904
0.9999851
0.9999724
0.9999519
0.999934
0.9999314
0.9999401
0.9999657
0.9999801
0.9999793
0.9999667
0.9999088
0.9997625
0.9996854
0.9997711
0.9998458
0.9997506
0.9989408
0.9959331
0.9928202
0.9929309
0.9944218
0.9968313
0.9988336
0.9997489
0.9999527
0.9999709
0.9999714
0.9999702
0.9999618
0.9999369
0.999899
0.9998779
0.9998782
0.9999066
0.9999679
0.9999944
0.9999959
0.999995
0.9999916
0.9999838
0.999974
0.9999701
0.9999703
0.9999752
0.9999878
0.9999936
0.9999935
0.9999921
0.9999885
0.9999836
0.9999805
0.9999806
0.9999885
0.9999973
0.9999988
0.9999988
0.9999986
0.9999983
0.9999982
0.9999983
0.9999989
0.9999994
0.9999995
0.9999994
0.9999993
0.999999
0.9999991
0.9999996
0.9999999
0.9999999
0.9999999
0.9999998
0.9999998
0.9999998
0.9999998
0.9999996
0.9999991
0.9999993
0.9999994
0.9999992
0.9999982
0.9999919
0.9999684
0.9999133
0.9999221
0.9999491
0.9999385
0.9997103
0.9984116
0.9954602
0.9930697
0.9923885
0.9935646
0.9979718
0.9998371
0.9999978
1
1
1
0.9999999
0.9999999
1
1
1
1
1
1
1
0.9999999
1
1
1
1
1
1
1
1
1
0.9999999
0.9999996
0.9999987
0.9999986
0.9999994
0.9999999
1
1
1
0.9999997
0.9999978
0.9999976
0.9999985
0.9999984
0.9999949
0.999958
0.999677
0.998792
0.9976431
0.9978936
0.9992251
0.9999025
0.999992
0.9999357
0.9997528
0.9997472
0.9997502
0.9999033
0.9999891
0.9999998
1
1
1
1
0.9999999
0.9999995
0.9999989
0.999999
0.9999995
0.9999999
1
1
1
0.9999999
0.9999994
0.9999993
0.9999996
0.9999999
1
1
1
1
1
1
1
1
0.9999999
0.9999999
0.9999999
0.9999999
0.9999997
0.9999984
0.9999911
0.9999842
0.9999903
0.999998
0.9999998
0.9999994
0.9999916
0.9998946
0.9996398
0.9996515
0.9998308
0.9999744
0.9999992
1
1
1
0.9999999
0.9999999
0.9999999
1
1
1
1
1
1
1
1
1
1
0.9999998
0.9999999
1
1
1
1
1
1
0.9999999
0.9999999
1
1
1
1
1
1
1
0.9999998
0.9999996
0.9999992
0.9999984
0.9999978
0.9999978
0.999999
0.9999999
1
1
1
1
1
1
1
1
1
1
1
1
1
1
1
1
1
1
0.9999999
0.9999999
1
1
1
1
1
1
1
1
1
1
1
1
1
1
0.9999997
0.9999996
0.9999998
1
1
0.9999997
0.9999936
0.999887
0.9992211
0.9986514
0.9992938
0.9998721
0.9999938
0.9999999
1
1
1
1
1
1
1
1
0.9999998
0.9999998
0.9999999
1
1
1
0.9999996
0.9999918
0.9998881
0.9991235
0.9973326
0.9973536
0.9986615
0.999802
0.9999933
0.9999989
0.9999974
0.9999688
0.9994778
0.9919002
0.9379309
0.9221688
0.9221688
0.9371514
0.9831576
0.9989556
0.9999895
1
1
1
1
0.9999999
0.9999996
0.9999996
0.9999998
1
1
1
0.9999999
0.9999997
0.9999998
0.9999999
1
1
1
1
1
1
1
1
1
1
1
1
1
1
1
1
1
1
1
1
1
1
1
1
1
1
1
1
1
1
1
1
1
1
1
1
1
1
1
1
1
1
1
1
1
1
1
1
1
1
1
1
1
1
1
1
1
1
1
1
1
1
1
1
1
1
1
1
1
1
1
1
1
1
1
1
1
1
1
1
1
1
1
1
1
1
1
1
1
1
1
1
1
1
1
1
1
1
1
1
1
1
1
1
1
1
1
1
1
1
1
1
1
1
0.9999999
0.9999996
0.999999
0.9999985
0.9999984
0.9999985
0.9999988
0.9999994
0.9999994
0.9999987
0.9999958
0.9999884
0.999976
0.9999654
0.9999637
0.9999671
0.99998
0.9999913
0.9999921
0.999988
0.9999665
0.9999071
0.9998173
0.9997474
0.9997348
0.9997655
0.9998753
0.9999557
0.9999605
0.9999404
0.9998502
0.9996402
0.999281
0.99895
0.9989214
0.9991706
0.9996449
0.9998519
0.9998553
0.9998032
0.9995792
0.9989093
0.9975598
0.9967118
0.9968567
0.9978744
0.999189
0.9995707
0.999554
0.9993346
0.9983888
0.9960073
0.9932735
0.9927205
0.9935388
0.996278
0.9987575
0.9992582
0.9992284
0.998952
0.9979847
0.9958743
0.9930801
0.9922599
0.9932096
0.9964533
0.9990543
0.9992297
0.9987255
0.9956476
0.9869046
0.9824585
0.985905
0.9947472
0.9972209
0.9923613
0.9538426
0.872134
0.8583509
0.8800413
0.9173464
0.9440298
0.9610672
0.9761068
0.9899324
0.9972719
0.9981793
0.9981152
0.99742
0.9944543
0.9913423
0.9930579
0.9975455
0.9996189
0.9998164
0.9998134
0.9997935
0.9996925
0.9993009
0.9982382
0.9971998
0.9973981
0.9988358
0.9998163
0.999905
0.9998742
0.9997199
0.9991391
0.9978113
0.9975966
0.9988733
0.9998528
0.999983
0.9999776
0.9999434
0.9997958
0.9995255
0.9995503
0.9998444
0.9999848
0.9999887
0.9999769
0.9999253
0.9998225
0.9998219
0.9999328
0.9999942
0.9999987
0.999997
0.9999893
0.9999814
0.999986
0.9999959
0.9999944
0.9999765
0.9999518
0.9999652
0.9999912
0.9999956
0.9999806
0.9997331
0.9986447
0.997321
0.9981792
0.9989279
0.9986969
0.9974854
0.9929636
0.9675902
0.7698299
0.7435049
0.9012962
0.9897119
0.9996644
0.999992
0.9999995
0.9999995
0.9999992
0.9999978
0.9999965
0.9999976
0.9999994
0.9999998
0.9999997
0.9999984
0.9999922
0.9999884
0.9999942
0.9999992
1
1
0.9999999
0.9999997
0.9999998
0.9999999
1
0.9999999
0.9999996
0.9999975
0.9999914
0.9999928
0.9999978
0.9999998
1
1
0.9999998
0.9999993
0.9999979
0.9999968
0.9999958
0.9999886
0.9999171
0.9993202
0.9968136
0.9873922
0.9817511
0.9892809
0.9975608
0.9998427
0.9999961
0.9999981
0.9999891
0.9999419
0.9998626
0.9998864
0.9999565
0.999995
0.9999999
1
1
0.9999998
0.9999991
0.9999958
0.9999929
0.999994
0.9999969
0.9999987
0.9999986
0.9999958
0.9999765
0.9999657
0.9999796
0.999996
0.9999997
0.9999999
1
1
1
1
1
1
1
1
1
1
1
1
1
1
0.9999999
0.9999994
0.9999988
0.9999988
0.9999994
0.9999998
0.9999994
0.9999901
0.9998369
0.9990513
0.9989887
0.9995794
0.9999521
0.9999989
1
0.9999999
0.9999993
0.9999988
0.9999991
0.9999998
1
1
1
1
1
1
1
1
0.9999999
0.9999997
0.9999997
0.9999999
1
1
1
1
1
0.9999998
0.9999997
0.9999998
1
1
1
1
1
1
0.9999997
0.9999982
0.999991
0.9999686
0.9999532
0.9999737
0.9999949
0.9999997
1
1
1
1
1
1
1
1
1
1
1
1
1
1
1
1
1
1
0.9999999
0.9999998
0.9999999
1
1
1
1
1
1
1
1
1
1
1
1
1
1
1
0.9999998
0.9999998
0.9999999
1
1
0.9999997
0.9999956
0.9999565
0.9997962
0.9996716
0.9998062
0.9999601
0.9999966
0.9999997
1
1
1
1
1
1
1
0.9999996
0.9999995
0.9999996
0.9999999
1
1
0.9999999
0.9999992
0.9999961
0.9999831
0.9999049
0.9996549
0.9996667
0.9997853
0.9998909
0.9999555
0.99999
0.999989
0.9999348
0.9990753
0.9861079
0.9290406
0.9221688
0.9265778
0.9743061
0.9975502
0.9999564
0.9999999
1
1
1
1
0.9999999
0.9999998
0.9999998
1
1
1
1
1
0.9999999
0.9999999
0.9999999
1
1
1
1
1
1
1
1
1
1
1
1
1
1
1
1
1
1
1
1
1
1
1
1
1
1
1
1
1
1
1
1
1
1
1
1
1
1
1
1
1
1
1
1
1
1
1
1
1
1
1
1
1
1
1
1
1
1
1
1
1
1
1
1
1
1
1
1
1
1
1
1
1
1
1
1
1
1
1
1
1
1
1
1
1
1
1
1
1
1
1
1
1
1
1
1
1
1
1
1
1
1
1
1
1
1
1
1
1
1
1
1
1
1
1
1
0.9999999
0.9999994
0.9999976
0.9999945
0.9999927
0.9999927
0.9999937
0.9999958
0.9999961
0.9999932
0.9999723
0.9998731
0.9995717
0.9991509
0.9990315
0.9990897
0.9993536
0.9997156
0.999849
0.9998283
0.9995757
0.9984132
0.995235
0.9920496
0.9919124
0.9935847
0.9970206
0.9990178
0.9992242
0.9991336
0.9982155
0.993357
0.979394
0.966615
0.9671465
0.9782929
0.993182
0.9977324
0.9978015
0.9974127
0.993213
0.9745455
0.9381666
0.9244308
0.9378377
0.9701764
0.9871163
0.9907522
0.991931
0.9907017
0.9804125
0.9449547
0.8794438
0.8598505
0.884904
0.9432905
0.9792333
0.9838147
0.9818951
0.9729972
0.9490317
0.8677854
0.7593759
0.7564373
0.8180358
0.9309909
0.9814097
0.9818499
0.978843
0.974873
0.9544242
0.8570955
0.7532814
0.7816318
0.9045437
0.984013
0.9904894
0.9896433
0.9730492
0.8133238
0.739486
0.8299699
0.9533521
0.9495203
0.9402118
0.9113441
0.6123327
0.3304176
0.4061791
0.5695806
0.5293889
0.3297399
0.3162797
0.5548903
0.8834328
0.9605109
0.9361605
0.7757426
0.7114749
0.8051845
0.9430737
0.9863803
0.9887259
0.9893587
0.9911898
0.9923549
0.9917151
0.9867843
0.9714389
0.9589101
0.9697901
0.9911843
0.9980913
0.997989
0.9971694
0.9930956
0.9756654
0.9565493
0.9718417
0.9941557
0.999499
0.9995968
0.9994422
0.9984171
0.9945477
0.9917678
0.9952634
0.999197
0.999912
0.9998904
0.9996767
0.9986054
0.9972371
0.9981513
0.9996246
0.9999778
0.9999865
0.999961
0.9998376
0.9997537
0.9998719
0.9999822
0.9999861
0.9999412
0.999873
0.9998757
0.9999363
0.9999745
0.9999141
0.9982581
0.9840341
0.969558
0.9792951
0.9953454
0.9977955
0.9911093
0.9578508
0.7343515
0.6006662
0.6006662
0.6844518
0.9272137
0.9962755
0.99993
0.9999534
0.9999481
0.9999142
0.9998503
0.9999063
0.9999806
0.9999972
0.9999968
0.9999873
0.999921
0.9998458
0.9999094
0.9999815
0.9999989
0.9999996
0.9999991
0.9999981
0.9999986
0.9999996
0.9999999
0.9999999
0.9999998
0.9999979
0.9999843
0.999976
0.9999801
0.9999937
0.9999994
0.9999998
0.9999996
0.9999981
0.9999945
0.9999916
0.9999907
0.9999864
0.9999367
0.9993216
0.9946184
0.9741925
0.9389262
0.9484611
0.9800626
0.9969844
0.9998794
0.9999981
0.9999984
0.9999984
0.9999984
0.9999962
0.9999917
0.9999918
0.999995
0.9999982
0.9999994
0.9999994
0.9999992
0.999997
0.9999872
0.9999748
0.9999747
0.9999749
0.9999615
0.9998361
0.9994899
0.999581
0.9998565
0.9999783
0.9999969
0.9999995
1
1
1
1
1
1
1
1
1
1
1
1
1
1
1
1
1
1
0.9999999
0.9999999
1
1
0.999999
0.999971
0.9994872
0.9975633
0.9981172
0.9995029
0.9999645
0.9999993
0.9999994
0.9999969
0.9999933
0.9999955
0.9999989
0.9999999
1
1
1
1
1
1
1
0.9999999
0.9999994
0.9999993
0.9999997
1
1
1
1
1
1
0.9999995
0.9999994
0.9999997
1
1
1
0.9999999
0.9999996
0.9999966
0.9999773
0.9998798
0.9996294
0.9996928
0.9999056
0.9999906
0.9999998
1
1
1
0.9999999
0.9999998
0.9999994
0.9999983
0.9999976
0.9999986
0.9999997
0.9999999
0.9999999
0.9999998
0.9999994
0.9999994
0.9999998
1
1
0.9999998
0.9999995
0.9999996
0.9999999
1
1
1
1
1
1
0.9999999
0.9999994
0.9999976
0.9999911
0.9999847
0.9999905
0.9999981
0.9999999
1
1
0.9999999
0.9999999
0.9999999
1
1
0.9999999
0.9999993
0.9999948
0.9999851
0.9999694
0.9998818
0.9998744
0.9999216
0.99998
0.9999986
1
1
1
1
1
0.9999998
0.9999995
0.9999995
0.9999998
0.9999999
1
1
1
0.9999999
0.9999989
0.9999721
0.9996135
0.9984713
0.9979936
0.9983145
0.9992076
0.9998781
0.9999954
0.9999835
0.9997191
0.995832
0.9728272
0.9642427
0.9792882
0.9955
0.9997481
0.9999974
1
1
1
1
1
1
1
1
1
1
1
0.9999999
0.9999998
0.9999995
0.9999996
0.9999999
1
1
1
1
1
1
1
1
1
1
1
1
1
1
1
1
1
1
1
1
1
1
1
1
1
1
1
1
1
1
1
1
1
1
1
1
1
1
1
1
1
1
1
1
1
1
1
1
1
1
1
1
1
1
1
1
1
1
1
1
1
1
1
1
1
1
1
1
1
1
1
1
1
1
1
1
1
1
1
1
1
1
1
1
1
1
1
1
1
1
1
1
1
1
1
1
1
1
1
1
1
1
1
1
1
1
1
1
1
1
1
1
1
1
1
1
1
1
1
1
1
1
1
0.9999999
0.9999999
0.9999999
0.9999998
0.9999996
0.9999984
0.9999884
0.9999052
0.9994355
0.9982466
0.9975576
0.9975884
0.9978901
0.9984719
0.9989455
0.9989663
0.9983979
0.9942515
0.9758936
0.941766
0.9329393
0.9414712
0.9643626
0.9818459
0.9892324
0.9911471
0.9882492
0.9619697
0.8637447
0.7582735
0.7603114
0.825671
0.9249839
0.9709955
0.9724752
0.9669292
0.9539753
0.9142994
0.6780753
0.4151665
0.4697842
0.7170309
0.9172236
0.9357401
0.9160854
0.9096355
0.9015199
0.6707003
0.2033557
0.1821305
0.4672613
0.7792059
0.782153
0.7737307
0.8160249
0.8433726
0.6699763
0.2137846
0.05761292
0.07893945
0.2485119
0.5412442
0.7140835
0.7899845
0.769871
0.4955859
0.1309254
0.03301302
0.02475587
0.02259673
0.05864883
0.4088665
0.8294025
0.8375848
0.5678996
0.1989475
0.114726
0.07100654
0.04651938
0.1408634
0.6653429
0.888048
0.7479288
0.2900285
0.08550196
0.1881475
0.7866257
0.7291821
0.2713765
0.09358157
0.2100855
0.5192392
0.316072
0.133178
0.0642452
0.05798093
0.05219401
0.04268048
0.04095434
0.05006861
0.1033569
0.1950218
0.1966051
0.1360677
0.1261705
0.2262023
0.4079058
0.4838274
0.6199728
0.8484535
0.9321878
0.8829555
0.5180858
0.2936348
0.4658135
0.822787
0.9582866
0.9746205
0.9755888
0.9489391
0.6222128
0.2412433
0.3985244
0.8322724
0.9858195
0.9923013
0.989363
0.9688535
0.9075751
0.8793405
0.9055156
0.971659
0.9976914
0.9991124
0.9987823
0.9962308
0.9838111
0.9783016
0.9901267
0.9987672
0.999889
0.999879
0.9995921
0.9984076
0.9983461
0.9994311
0.9999436
0.9999733
0.999943
0.9997509
0.9991237
0.9992202
0.9997643
0.9996739
0.9949538
0.9561236
0.8587018
0.9026978
0.9765727
0.9980573
0.9970936
0.9432045
0.4627139
0.4788013
0.8407909
0.9720235
0.9735549
0.9736438
0.9832046
0.9935833
0.9957296
0.9954964
0.9976907
0.9995883
0.9999554
0.9999652
0.9999267
0.9995101
0.9987813
0.9991969
0.99979
0.9999788
0.9999974
0.9999966
0.9999918
0.9999935
0.9999979
0.9999997
0.9999999
0.9999999
0.9999993
0.9999877
0.9999469
0.999957
0.9999851
0.9999981
0.9999997
0.9999994
0.999996
0.9999728
0.9999149
0.999901
0.999907
0.9998802
0.9995205
0.9963455
0.9825737
0.8916053
0.8617696
0.9073032
0.981141
0.9988221
0.9999748
0.9999944
0.9999944
0.9999935
0.9999916
0.9999878
0.999979
0.9999722
0.9999728
0.9999727
0.9999352
0.999856
0.9998825
0.9999432
0.9999413
0.9999249
0.9998797
0.9996406
0.9981096
0.9963618
0.9973967
0.999238
0.9998964
0.9999854
0.9999986
0.9999999
1
1
1
1
1
1
1
1
1
1
1
1
1
1
1
1
1
1
1
1
1
1
0.9999999
0.9999963
0.9998878
0.9980653
0.9952153
0.9976503
0.9996105
0.9999834
0.9999986
0.999991
0.9999756
0.9999829
0.9999958
0.9999997
1
1
1
1
1
1
1
0.9999998
0.9999986
0.9999985
0.9999993
0.9999999
1
1
1
1
1
0.9999999
0.9999994
0.9999994
0.9999996
0.9999999
0.9999999
0.9999996
0.9999969
0.9999754
0.9998296
0.9989479
0.9985311
0.9990287
0.999782
0.9999875
0.9999998
0.9999999
0.9999998
0.9999992
0.9999961
0.9999798
0.9999239
0.9999187
0.999962
0.9999949
0.9999983
0.9999978
0.9999936
0.9999846
0.9999878
0.9999962
0.9999996
0.9999999
0.9999998
0.9999993
0.9999982
0.9999989
0.9999997
1
1
1
1
0.9999999
0.9999993
0.999995
0.9999678
0.9998299
0.9996732
0.9997925
0.9999552
0.9999971
0.9999999
1
1
1
1
1
1
1
1
1
1
1
0.9999996
0.999991
0.999835
0.9995755
0.9996795
0.9999056
0.9999921
0.9999999
1
1
1
1
1
1
1
0.9999996
0.9999981
0.9999967
0.9999967
0.9999975
0.9999986
0.9999949
0.9999219
0.9985897
0.9881885
0.9802812
0.9873129
0.9969168
0.9998123
0.999996
0.9999921
0.9999288
0.9997217
0.9992511
0.99851
0.9981586
0.9984612
0.9994883
0.9999566
0.9999993
1
1
1
1
1
1
0.9999999
0.9999998
0.9999993
0.9999971
0.999992
0.9999918
0.9999967
0.9999996
1
1
1
1
1
1
1
1
1
1
1
1
1
1
1
1
1
1
1
1
1
1
1
1
1
1
1
1
1
1
1
1
1
1
1
1
1
1
1
1
1
1
1
1
1
1
1
1
1
1
1
1
1
1
1
1
1
1
1
1
1
1
1
1
1
1
1
1
1
1
1
1
1
1
1
1
1
1
1
1
1
1
1
1
1
1
1
1
1
1
1
1
1
1
1
1
1
1
1
1
1
1
1
1
1
1
1
1
1
1
1
1
1
1
1
1
1
1
1
1
1
1
1
1
1
1
1
1
1
1
1
1
1
0.9999995
0.9999943
0.999966
0.9999019
0.9998661
0.9998547
0.999831
0.9997597
0.9995971
0.9990812
0.9961682
0.977746
0.9248047
0.8995491
0.904114
0.9161646
0.9318865
0.9499841
0.9530147
0.9431196
0.9019637
0.7253495
0.4108965
0.3622342
0.4526642
0.6625306
0.7552007
0.7756586
0.8131821
0.8081329
0.5589751
0.1493105
0.04994274
0.05742192
0.1234007
0.3865745
0.6847614
0.7230797
0.6168284
0.2761316
0.05283949
0.01242428
0.0110775
0.01113978
0.03604489
0.2764764
0.4908125
0.3638051
0.1174916
0.01724194
0.008758371
0.008758371
0.01005941
0.02225758
0.07119516
0.1143515
0.1063746
0.06781219
0.02397604
0.009512334
0.008864317
0.009560667
0.01321907
0.02084055
0.02781097
0.02805137
0.02627795
0.02008295
0.01047929
0.006777959
0.006783639
0.01863801
0.0227037
0.01602367
0.01038753
0.009108962
0.0111646
0.01365037
0.01150561
0.01443729
0.03441576
0.03849405
0.03675955
0.04313858
0.07589602
0.06503541
0.05158112
0.07614623
0.5095399
0.8104381
0.4776935
0.05010338
0.04566231
0.2173056
0.5183555
0.6711573
0.6610857
0.5296491
0.1658512
0.04222963
0.01276307
0.0096587
0.01144132
0.0138273
0.01600108
0.01735718
0.01930178
0.02632772
0.03811394
0.04841614
0.0644514
0.1157787
0.1962004
0.207453
0.1633709
0.08708318
0.09601701
0.1870065
0.270522
0.2759919
0.259935
0.1766501
0.07083827
0.03071041
0.0302006
0.1105595
0.5590678
0.7362611
0.623548
0.3250606
0.1438032
0.1030646
0.1833378
0.6577151
0.9610789
0.9916816
0.9737055
0.8163361
0.7061885
0.8264127
0.9715535
0.9979311
0.9986498
0.9975006
0.9883556
0.9826858
0.991075
0.9987148
0.9998938
0.9999037
0.9995634
0.9962017
0.9950761
0.9974505
0.9996519
0.9994319
0.9877205
0.8715286
0.7499876
0.8013105
0.9399371
0.9926965
0.9870283
0.9546155
0.8499954
0.427831
0.3161236
0.5024615
0.6228533
0.5393959
0.3777839
0.4360845
0.7298561
0.9466256
0.9940141
0.9994427
0.9997677
0.9995251
0.9960884
0.991461
0.9947093
0.9987114
0.9998187
0.9999788
0.9999916
0.9999835
0.9999788
0.9999872
0.9999973
0.9999998
1
0.9999999
0.9999987
0.9999739
0.999906
0.9999383
0.9999806
0.9999981
0.9999995
0.9999985
0.9999804
0.9998457
0.9994179
0.9991226
0.9991826
0.9990192
0.9967474
0.9844688
0.9128117
0.8121867
0.8125111
0.8885729
0.9791724
0.9988409
0.9999408
0.9999438
0.999908
0.9998493
0.9996705
0.9985613
0.9910441
0.9805306
0.9857081
0.9959949
0.9995415
0.9996992
0.999713
0.9997983
0.9998603
0.9993215
0.9897502
0.9393014
0.9383455
0.974674
0.9967433
0.9996925
0.9999462
0.9999779
0.9999895
0.999997
0.9999986
0.9999984
0.9999989
0.9999997
1
1
1
1
1
1
1
1
1
1
1
1
0.9999999
0.9999999
1
1
1
1
1
0.9999996
0.9999822
0.9994731
0.9938034
0.9936393
0.9978706
0.9997975
0.9999935
0.9999945
0.9999522
0.9999486
0.9999812
0.999998
1
1
1
1
1
1
0.9999999
0.9999994
0.9999968
0.999997
0.9999989
0.9999998
1
1
1
1
0.9999999
0.9999999
0.9999999
0.9999996
0.9999997
0.9999998
0.9999997
0.9999984
0.9999841
0.9998533
0.9988392
0.9960701
0.9962675
0.998463
0.9997488
0.999989
0.9999999
0.9999999
0.9999998
0.9999966
0.9998919
0.999364
0.999305
0.999615
0.999933
0.999975
0.9999702
0.9999217
0.9998217
0.9998677
0.9999621
0.9999963
0.9999995
0.9999995
0.9999991
0.9999963
0.9999934
0.9999965
0.9999993
1
1
1
0.9999999
0.9999993
0.999996
0.999976
0.9998508
0.9992071
0.9986076
0.9992362
0.9998584
0.9999926
0.9999999
1
1
1
1
1
1
1
1
1
1
1
1
0.9999998
0.999994
0.9998641
0.9995776
0.9995755
0.9997471
0.9999544
0.9999979
1
1
1
1
1
1
1
0.9999993
0.999988
0.9999275
0.9998605
0.9998713
0.9999484
0.9999612
0.9998217
0.9973448
0.9671098
0.9434899
0.9612324
0.99053
0.9993002
0.9999881
0.9999985
0.9999977
0.9999927
0.9999782
0.9999368
0.9998347
0.9997824
0.9998291
0.9999459
0.9999955
0.9999999
1
1
0.9999999
0.9999997
0.9999988
0.9999953
0.999981
0.9999332
0.9999006
0.9999388
0.9999877
0.9999994
1
1
1
1
1
1
1
1
1
1
1
1
1
1
1
1
1
1
1
1
1
1
1
1
1
1
1
1
1
1
1
1
1
1
1
1
1
1
1
1
1
1
1
1
1
1
1
1
1
1
1
1
1
1
1
1
1
1
1
1
1
1
1
1
1
1
1
1
1
1
1
1
1
1
1
1
1
1
1
1
1
1
1
1
1
1
1
1
1
1
1
1
1
1
1
1
1
1
1
1
1
1
1
1
1
1
1
1
1
1
1
1
1
1
1
1
1
1
1
1
1
1
1
1
1
1
1
1
1
1
1
1
1
1
1
1
1
1
1
1
1
1
1
1
1
0.9999999
0.9999982
0.9999704
0.9995782
0.9964999
0.9879256
0.9843437
0.9846759
0.9840409
0.9798365
0.9712992
0.9521662
0.9066186
0.7441116
0.4069239
0.3251217
0.3633351
0.4157925
0.4650204
0.54833
0.557837
0.4147484
0.1472894
0.03440306
0.02692203
0.02728007
0.03405117
0.07459917
0.1264251
0.1221501
0.08317897
0.03193993