/*--------------------------------*- C++ -*----------------------------------*\
| =========                 |                                                 |
| \\      /  F ield         | foam-extend: Open Source CFD                    |
|  \\    /   O peration     | Version:     3.1                                |
|   \\  /    A nd           | Web:         http://www.extend-project.de       |
|    \\/     M anipulation  |                                                 |
\*---------------------------------------------------------------------------*/
FoamFile
{
    version     2.0;
    format      ascii;
    class       volScalarField;
    location    "16";
    object      k;
}
// * * * * * * * * * * * * * * * * * * * * * * * * * * * * * * * * * * * * * //

dimensions      [0 2 -2 0 0 0 0];

internalField   nonuniform List<scalar> 
119952
(
0.08004537
0.0762507
0.07536868
0.07385593
0.0722652
0.07101813
0.07073791
0.07097484
0.07151383
0.07223621
0.07307175
0.07396781
0.07488047
0.07577118
0.07660424
0.07734893
0.07798548
0.0785154
0.07897931
0.07971431
0.08192821
0.07936195
0.07891553
0.08063593
0.07702615
0.07487602
0.07310053
0.07147543
0.06869519
0.01921315
0.09921131
0.09680315
0.09453861
0.09315508
0.09262736
0.09277211
0.09335171
0.09417411
0.09510192
0.09607437
0.09138476
0.09139892
0.09379137
0.09715733
0.1007362
0.104118
0.1071766
0.1098956
0.1122424
0.1227592
0.1239632
0.1247071
0.1250015
0.1250552
0.1250635
0.1251127
0.1252467
0.1254555
0.1256481
0.1262325
0.1265343
0.1266332
0.1266582
0.1266221
0.12655
0.1264468
0.1262749
0.1262184
0.1285617
0.128499
0.12766
0.1275495
0.1275963
0.127432
0.1269473
0.1263654
0.1258053
0.1252881
0.12481
0.1243681
0.1239551
0.1235486
0.1231078
0.1225738
0.1219158
0.1211376
0.1202318
0.1191774
0.118254
0.1174319
0.1162265
0.1155251
0.1157814
0.1157507
0.1155075
0.1155901
0.1157206
0.113464
0.1113658
0.1096918
0.1081903
0.10694
0.1058637
0.1049364
0.1041401
0.1034438
0.1028185
0.1022428
0.101703
0.101192
0.1007059
0.1002394
0.09978583
0.0993383
0.09889101
0.09844068
0.09798756
0.09753461
0.09708545
0.09664228
0.0962047
0.09577008
0.09533516
0.09489741
0.09445455
0.09400312
0.09353727
0.09304984
0.09253534
0.09199321
0.09142883
0.09085101
0.09026874
0.08968679
0.08910153
0.08851702
0.08793374
0.08734655
0.08676837
0.08623567
0.08579283
0.08546846
0.08528401
0.085252
0.08536846
0.08560427
0.08592583
0.08635615
0.08682491
0.08724438
0.08741615
0.0872252
0.08676763
0.08609238
0.0852545
0.08435694
0.08353049
0.08288994
0.08247017
0.08237221
0.08292443
0.08431823
0.08635649
0.08851787
0.09022011
0.09105941
0.09093255
0.08999715
0.08851613
0.08668413
0.08459777
0.08245567
0.08043625
0.07860428
0.07696099
0.07549448
0.07419615
0.07303571
0.07199088
0.07104873
0.07020072
0.06944052
0.06876232
0.06816101
0.06763244
0.06717421
0.06678417
0.06646017
0.0661983
0.06599418
0.06584027
0.06572824
0.0656457
0.06558114
0.0655066
0.06538319
0.06517957
0.06489073
0.06420624
0.06338497
0.06247355
0.0614913
0.06046016
0.05938009
0.05828853
0.0572123
0.05617879
0.05522103
0.05435234
0.05357484
0.05287141
0.0522242
0.05161738
0.05103408
0.05040084
0.04953852
0.04811874
0.04502025
0.04683518
0.06062214
0.06741037
0.06434232
0.05791586
0.05095971
0.0439572
0.038317
0.0346695
0.03263003
0.03167427
0.03129257
0.03111458
0.03096698
0.03090504
0.03151499
0.03236522
0.03330729
0.03422243
0.03501782
0.03580361
0.0366405
0.03756893
0.03863002
0.03980543
0.0409846
0.04211029
0.04315859
0.04411181
0.04495573
0.04567974
0.04627676
0.04674294
0.04707816
0.04728645
0.04737505
0.04735269
0.04722893
0.04701468
0.04672242
0.04636508
0.04595578
0.04550798
0.04503622
0.04455475
0.04407497
0.04360325
0.0431406
0.04268841
0.04684232
0.04635704
0.04578777
0.04514001
0.04451394
0.04394831
0.04345105
0.04301636
0.04263243
0.04228534
0.04196223
0.04165255
0.04134827
0.04104357
0.04073413
0.04041657
0.04008817
0.03974675
0.03939078
0.03901959
0.03863352
0.03823466
0.03782654
0.03741363
0.03700264
0.03659631
0.0361987
0.03581642
0.03545828
0.03513802
0.03487773
0.03467928
0.03452932
0.03441893
0.03433897
0.03427725
0.03422041
0.03415662
0.03407794
0.03398216
0.03387335
0.03376054
0.03365535
0.03356959
0.0335145
0.03349228
0.03347727
0.03347549
0.03347747
0.03346446
0.03341352
0.03330047
0.03310702
0.03285534
0.03258571
0.03196514
0.0312711
0.03055313
0.02984002
0.02916722
0.02856665
0.0280671
0.02769415
0.0274769
0.02745185
0.02765941
0.02812614
0.0288578
0.02983984
0.03104016
0.03241385
0.03391064
0.03548478
0.03709983
0.03873019
0.04036088
0.04198623
0.04360759
0.04523058
0.04686284
0.04852552
0.05023685
0.05195183
0.05363129
0.05523618
0.05672726
0.05808753
0.05939028
0.06065221
0.06182444
0.06293105
0.0639731
0.06491594
0.0656932
0.06621337
0.06640344
0.06624678
0.06576638
0.06499276
0.06394663
0.06263733
0.06107108
0.05926005
0.05722953
0.05502306
0.05270356
0.05034977
0.04804945
0.04587585
0.04387566
0.04206502
0.04043423
0.03897182
0.03766525
0.03650008
0.03546877
0.03456202
0.03376494
0.03305805
0.03241928
0.03182602
0.0312584
0.03070176
0.03014742
0.02959175
0.0290347
0.02848008
0.02793227
0.02739491
0.02686933
0.02635947
0.02586842
0.02540282
0.02496213
0.02454227
0.02412873
0.02369037
0.023227
0.02329651
0.1021455
0.09592174
0.09992595
0.1065841
0.1130638
0.1185969
0.123138
0.1268437
0.1300042
0.1320416
0.1397189
0.1492041
0.1584657
0.1665628
0.1732833
0.1786766
0.1829281
0.1862352
0.2105525
0.2105802
0.2104178
0.209846
0.2091144
0.2084088
0.2078009
0.2073037
0.2068806
0.2063685
0.2060655
0.205609
0.2047441
0.2036785
0.2025523
0.2014393
0.2003771
0.1993751
0.1984002
0.1976408
0.1969564
0.1959418
0.1947512
0.1935158
0.1922795
0.1910779
0.1899347
0.1888509
0.1878234
0.1868797
0.185887
0.1848821
0.1838736
0.1828555
0.181848
0.1808741
0.1799526
0.1791064
0.1881857
0.1871491
0.1861022
0.1850711
0.184045
0.1830221
0.1820137
0.1810279
0.1800741
0.1791276
0.1781879
0.1772789
0.1763452
0.1753749
0.1743802
0.173378
0.1724066
0.1715628
0.1710125
0.1704994
0.1696244
0.1687316
0.1679982
0.1672634
0.1664365
0.1655812
0.1647857
0.1640713
0.1634385
0.162883
0.1623975
0.1619652
0.1615471
0.1610844
0.1605054
0.1597421
0.1587492
0.1575287
0.1561878
0.1548083
0.1533739
0.1520269
0.1509724
0.1500542
0.1489799
0.147854
0.146608
0.1450081
0.1431266
0.1414744
0.1400573
0.1387286
0.1374705
0.1362823
0.1351607
0.1341023
0.1330971
0.1321304
0.1311894
0.1302683
0.1293668
0.1284858
0.1276249
0.1267813
0.1259491
0.125121
0.1242913
0.1234592
0.1226275
0.1218001
0.1209784
0.120159
0.1193347
0.1184977
0.1176423
0.1167652
0.1158644
0.1149367
0.113978
0.1129849
0.111956
0.1108923
0.1097985
0.1086818
0.1075526
0.1064264
0.105323
0.1042629
0.1032734
0.1023894
0.1016737
0.1011884
0.1009782
0.1010806
0.1015197
0.1023005
0.1033984
0.1047563
0.1062654
0.1077632
0.1090732
0.1100653
0.1106656
0.1108445
0.1107235
0.1102938
0.1095161
0.1083354
0.1067189
0.1047205
0.102531
0.1004379
0.09872199
0.09757012
0.09704129
0.09707868
0.09751876
0.09812318
0.09873656
0.09921188
0.09943507
0.09933997
0.09891236
0.09817842
0.0971808
0.09595141
0.09455087
0.09307986
0.09163196
0.09026607
0.0890136
0.08789108
0.08690535
0.08605932
0.08535225
0.08478403
0.08435223
0.08405543
0.08388777
0.08384433
0.08391308
0.08408292
0.08433122
0.08464068
0.08497565
0.08531393
0.08561608
0.08587715
0.08505168
0.08409324
0.0833063
0.08256568
0.08176207
0.08080472
0.07969852
0.07845143
0.077082
0.075622
0.07410982
0.0725853
0.07108774
0.06965409
0.06831329
0.06709708
0.06604572
0.06517282
0.06446786
0.06366777
0.0621797
0.05999567
0.05910556
0.06043156
0.06373016
0.06818454
0.07292321
0.07683697
0.0788675
0.07850728
0.07644854
0.07407902
0.07251148
0.07196129
0.07192406
0.07212889
0.07262813
0.07339264
0.07432661
0.07535238
0.07640965
0.07748875
0.0786126
0.07979981
0.0810585
0.08238333
0.08377289
0.08517298
0.08648644
0.08766414
0.08867271
0.08948846
0.09009515
0.09048196
0.09064307
0.09057943
0.09029909
0.08981343
0.08913458
0.08827674
0.08725778
0.08609893
0.08482247
0.0834513
0.08201016
0.080525
0.07902045
0.07751814
0.07603222
0.07456227
0.07706612
0.07565547
0.07429342
0.07297611
0.07169681
0.07045545
0.06925264
0.0680875
0.06695855
0.06586396
0.06480166
0.06376958
0.06276563
0.06178753
0.06083274
0.05989823
0.05898052
0.0580756
0.05717907
0.05628627
0.0553924
0.05449284
0.05358357
0.05266206
0.05172714
0.05077847
0.04981671
0.04884391
0.04786368
0.04688171
0.04591286
0.04496921
0.04405977
0.04319482
0.04238494
0.04163986
0.04096793
0.0403759
0.03986848
0.03944777
0.03911309
0.03886163
0.03869022
0.03859691
0.03858146
0.03864439
0.03878665
0.0390128
0.03932443
0.03971578
0.04016989
0.04066386
0.04116309
0.04164962
0.0420935
0.04241764
0.04259868
0.04264771
0.04258398
0.04244073
0.04226333
0.04210535
0.04202539
0.04208267
0.04233125
0.04281422
0.04355997
0.04457893
0.04585998
0.04736992
0.04905722
0.05085981
0.0527155
0.05457172
0.05639072
0.05815021
0.05984237
0.0614722
0.06305452
0.06460961
0.06615859
0.06773019
0.06934911
0.07100614
0.07268556
0.07435776
0.07598038
0.0775224
0.07896094
0.08025772
0.08140267
0.08240113
0.08324233
0.08387726
0.08423052
0.08425386
0.08394442
0.08332858
0.0824369
0.0812879
0.07988788
0.07823733
0.07633709
0.07419418
0.07182983
0.06928935
0.06664636
0.0639912
0.06140586
0.0589431
0.05662156
0.05443429
0.05236157
0.0503821
0.04848076
0.04666124
0.04494027
0.04332773
0.04182826
0.04044511
0.03917815
0.03802318
0.0369722
0.03601473
0.03513912
0.03433429
0.03359013
0.03289901
0.03225393
0.03165098
0.03108427
0.0305527
0.03004934
0.02957229
0.02910826
0.02867351
0.02827411
0.02799544
0.02780361
0.05836149
0.06303711
0.06848957
0.07442002
0.08088704
0.08802442
0.0960771
0.1054903
0.1170581
0.1310806
0.1933411
0.2105213
0.2278788
0.2446489
0.2603021
0.2738353
0.2872704
0.3028252
0.3285802
0.39606
0.4070576
0.4156041
0.4226578
0.4279988
0.4320452
0.4348633
0.4364943
0.4369264
0.4365318
0.4353663
0.4346839
0.4338028
0.4322233
0.4298232
0.4266831
0.4229392
0.4187324
0.4145075
0.4081265
0.4021411
0.3965354
0.3912465
0.3862363
0.3814103
0.3766822
0.3719855
0.3672952
0.362644
0.3578689
0.3530066
0.3481371
0.3432848
0.3384992
0.3338141
0.3292298
0.3247221
0.3328558
0.3285582
0.3241791
0.3198172
0.315524
0.3113178
0.307218
0.3032329
0.2993769
0.2956319
0.2919407
0.2883145
0.2847699
0.2812871
0.2778709
0.2745479
0.2713421
0.2682727
0.2653483
0.2625195
0.2597469
0.2570413
0.2543795
0.2517427
0.249144
0.2466171
0.2441972
0.2419002
0.2397048
0.2375945
0.2355373
0.2334784
0.2313981
0.2293129
0.2272598
0.2252868
0.2234272
0.2216601
0.2199339
0.2182906
0.2166916
0.2150945
0.2134793
0.2118574
0.2102618
0.2087289
0.2072821
0.2059216
0.2046424
0.2034053
0.2021647
0.2008942
0.1995913
0.1982826
0.1970226
0.195871
0.1948716
0.1939805
0.1930617
0.1920892
0.1911256
0.1901514
0.1891777
0.1882522
0.187442
0.1867815
0.1862694
0.1859
0.1856641
0.1855339
0.1854488
0.1853183
0.1850371
0.1845071
0.1836668
0.1825076
0.1811155
0.1795761
0.1779434
0.1762873
0.1746929
0.1731132
0.1715025
0.1698381
0.1681382
0.1663153
0.1644252
0.1626295
0.1609763
0.1594215
0.1579492
0.1565565
0.1552451
0.1540141
0.1528528
0.1517405
0.1506556
0.1495849
0.1485256
0.1474798
0.1464494
0.1454329
0.1444229
0.1434078
0.1423771
0.1413278
0.1402653
0.1391989
0.1381349
0.1370714
0.1359984
0.1349028
0.1337741
0.132608
0.1314038
0.1301615
0.1288797
0.1275569
0.126193
0.1247903
0.1233541
0.121892
0.1204162
0.1189454
0.1175038
0.1161237
0.1148467
0.113722
0.1128226
0.1122604
0.1121068
0.1124294
0.1132836
0.1146982
0.1166513
0.1190429
0.1216817
0.1242951
0.1265955
0.1283662
0.1295012
0.129987
0.1299505
0.1294809
0.1285404
0.1270658
0.1250085
0.1223942
0.1193585
0.1161241
0.1129298
0.1099679
0.1073662
0.1051938
0.1034633
0.1021382
0.1011461
0.1003869
0.099745
0.09911012
0.09839681
0.09755695
0.09657892
0.09548043
0.09430259
0.09309771
0.09192089
0.09082556
0.08984323
0.08899445
0.08829384
0.08775034
0.08737123
0.08716082
0.08712428
0.08726203
0.08757476
0.0880549
0.08869593
0.08947714
0.09038018
0.09136518
0.09240366
0.09343716
0.0944354
0.09531441
0.0960845
0.09666848
0.0970448
0.09716948
0.09700528
0.09653076
0.0957649
0.09476366
0.0935533
0.09217045
0.09065626
0.0890567
0.08741561
0.08576431
0.08414045
0.0825761
0.08105532
0.07957389
0.07809234
0.07640349
0.07440257
0.07242646
0.07078783
0.06963092
0.06913791
0.0695194
0.07091764
0.07339981
0.07702806
0.08178677
0.0873626
0.09318008
0.09837247
0.1020911
0.1041029
0.1048617
0.105028
0.1050384
0.1051734
0.1055353
0.1060804
0.1067345
0.1074437
0.1081991
0.1090049
0.1098582
0.1107613
0.1117156
0.1126408
0.1134805
0.1141939
0.1147513
0.1151309
0.1153143
0.115287
0.1150457
0.1145966
0.1139424
0.1130831
0.1120208
0.1107621
0.1093198
0.1077105
0.1059543
0.1040758
0.1021019
0.1000644
0.09798907
0.09590655
0.09382937
0.09169782
0.08964714
0.08768973
0.08581816
0.08403146
0.08233059
0.0807128
0.07917178
0.07770003
0.07629037
0.07493664
0.07363372
0.07237741
0.07116408
0.06999036
0.06885274
0.06774734
0.06666966
0.06561464
0.06457662
0.06354943
0.06252675
0.06150262
0.06047214
0.05943143
0.05837752
0.05730848
0.05622359
0.05512316
0.05400811
0.05288178
0.05175675
0.05064216
0.04954825
0.04848555
0.04746413
0.0464934
0.04558238
0.04473968
0.04397312
0.04328892
0.04269106
0.0421816
0.04176124
0.04143067
0.04119156
0.0410479
0.04100676
0.04107698
0.04126643
0.0415793
0.04201529
0.04256599
0.04321862
0.04394299
0.04470444
0.04547809
0.04623783
0.04695234
0.04759516
0.04815521
0.04864203
0.04908781
0.04954551
0.05008002
0.05075561
0.05162489
0.05272047
0.05404961
0.05559276
0.05730618
0.05912807
0.06098973
0.06282966
0.06460326
0.06628352
0.06785943
0.06933518
0.07072863
0.07206704
0.0733819
0.07470266
0.07607264
0.07750965
0.07901171
0.08055629
0.08210278
0.08361071
0.08503819
0.08632764
0.08743125
0.08833702
0.08904381
0.08953261
0.08976998
0.08972313
0.08938486
0.0887811
0.08794953
0.08691247
0.08567318
0.08422478
0.08255591
0.08065356
0.07851048
0.07614171
0.07360327
0.07099272
0.06841736
0.06595272
0.06362642
0.0614293
0.05933468
0.05731304
0.05534057
0.05340236
0.05149204
0.04962556
0.04782756
0.04611136
0.04448909
0.04297022
0.04156021
0.04026082
0.03906955
0.03798212
0.03699131
0.03609078
0.03527142
0.0345277
0.03384955
0.03323459
0.03267106
0.03216041
0.03168845
0.03126341
0.03087326
0.03055178
0.03028506
0.04416236
0.05001253
0.05524295
0.08489252
0.1149416
0.1522361
0.177267
0.2023204
0.2259548
0.2479648
0.267177
0.2837566
0.299897
0.3163898
0.3330527
0.3498911
0.3668907
0.3836835
0.3999272
0.4157312
0.4309797
0.4454764
0.4594312
0.472904
0.4857972
0.4980515
0.5095182
0.5202517
0.5300617
0.5391151
0.5477594
0.5794997
0.5818007
0.5825077
0.5818202
0.5799058
0.5769042
0.5729286
0.5680805
0.5625208
0.5564983
0.5500656
0.5433487
0.5364592
0.5294743
0.5224346
0.5153628
0.5082749
0.5011893
0.4941049
0.4870064
0.4799633
0.472966
0.466031
0.4590798
0.4521208
0.4451844
0.4382605
0.4313368
0.4244035
0.4174747
0.410602
0.4038441
0.3972527
0.3908834
0.3847367
0.3788365
0.3730701
0.3670356
0.3612101
0.3555733
0.3500905
0.3447579
0.3396005
0.3346532
0.3299424
0.3254666
0.3211941
0.3170738
0.3130628
0.3091189
0.305214
0.3013548
0.2975814
0.2939467
0.2904924
0.2872348
0.2841564
0.2812086
0.2783254
0.2754471
0.2725498
0.2696545
0.2668162
0.264101
0.2615633
0.2592171
0.2570213
0.2549
0.25277
0.2505858
0.2483466
0.2461021
0.2439212
0.2418879
0.2400321
0.2383546
0.2368037
0.2352961
0.2337546
0.2321456
0.2304868
0.2288327
0.2272491
0.2257887
0.2244734
0.2232845
0.2221698
0.2210629
0.2199028
0.2186666
0.2173853
0.2161227
0.2149558
0.2139473
0.213105
0.2123387
0.2115486
0.2106993
0.2098035
0.2089307
0.2081968
0.2076887
0.207441
0.2074405
0.2076794
0.208147
0.2087917
0.2094988
0.2101076
0.2104388
0.2103287
0.2096906
0.2085451
0.2070383
0.2052849
0.203356
0.2013035
0.1991868
0.1970363
0.1948733
0.1927245
0.1906248
0.1885593
0.1865319
0.1845742
0.1827123
0.1809356
0.1792302
0.1775998
0.1760587
0.1746152
0.1732605
0.1719684
0.1707072
0.1694566
0.1682114
0.1669755
0.1657567
0.1645585
0.1633718
0.162176
0.160951
0.1596901
0.1584028
0.157108
0.1558212
0.1545441
0.153262
0.1519526
0.1505974
0.149189
0.1477298
0.1462243
0.1446748
0.1430813
0.1414448
0.1397683
0.1380578
0.1363226
0.1345771
0.1328435
0.1311533
0.1295482
0.1280843
0.1268327
0.12589
0.1254306
0.1255794
0.1264624
0.1281918
0.1308335
0.1343555
0.1385659
0.1430895
0.1474168
0.1510454
0.1536399
0.1550913
0.1554761
0.1550284
0.1540066
0.1524147
0.1502048
0.1473241
0.1437834
0.1397
0.1352795
0.1307529
0.1263212
0.1221351
0.1182975
0.1148698
0.1118761
0.1093039
0.1071062
0.1052106
0.1035324
0.1019889
0.1005128
0.09906133
0.09761863
0.09619378
0.09481052
0.09349926
0.09230315
0.09128305
0.09045813
0.08984215
0.08944555
0.08927725
0.08934458
0.08965421
0.09020874
0.0910074
0.09204284
0.09330225
0.09476063
0.09638355
0.09812195
0.09992185
0.1017173
0.1034474
0.1050438
0.1064612
0.1076359
0.1085064
0.1090177
0.1091311
0.1088328
0.1081413
0.1071208
0.1058141
0.1042733
0.1025532
0.100709
0.09878603
0.09682169
0.09485434
0.09290095
0.09096446
0.08905827
0.08713235
0.08510364
0.08298858
0.08089787
0.07894629
0.07723083
0.07584056
0.07485425
0.07439067
0.0746257
0.07575832
0.07806534
0.08184899
0.08696412
0.09313206
0.09985123
0.1063886
0.1119711
0.1161144
0.1188156
0.1204392
0.1214377
0.1221485
0.1227312
0.1232254
0.1236767
0.1240929
0.1244569
0.1247518
0.1250242
0.1252805
0.1254985
0.1256596
0.1257467
0.1257431
0.1256285
0.1253762
0.1249711
0.1244197
0.1237162
0.1228495
0.1218077
0.1205822
0.1191699
0.1175741
0.1158045
0.113878
0.1118172
0.109651
0.1074085
0.1051136
0.1027824
0.100449
0.0981591
0.09594208
0.09381087
0.09177355
0.08983427
0.08799212
0.08624195
0.08457644
0.0829879
0.08146937
0.08001501
0.07862012
0.07728089
0.07599389
0.0747557
0.07356246
0.07240958
0.07129158
0.0702021
0.06913399
0.06807967
0.06703167
0.06598313
0.064928
0.0638612
0.06277878
0.061678
0.06055723
0.05941583
0.05825424
0.05707966
0.05589972
0.05472323
0.05355965
0.0524184
0.05130873
0.0502399
0.04922135
0.04826241
0.04737166
0.04655614
0.04582095
0.04516935
0.04460339
0.04412509
0.04373763
0.04344651
0.04325951
0.04318611
0.04323624
0.04341925
0.04374277
0.04421125
0.04482713
0.04558948
0.0464911
0.0475178
0.0486459
0.04984151
0.05106333
0.05226915
0.05342693
0.05452772
0.05559456
0.05667511
0.05782541
0.05909311
0.06050703
0.06207222
0.06376555
0.06553902
0.06732884
0.06907154
0.07071965
0.07224408
0.07363144
0.07488465
0.07602337
0.07708071
0.07809714
0.07911297
0.08016769
0.08129877
0.08251481
0.0838016
0.08512624
0.08644859
0.08772319
0.08888884
0.08987899
0.09065513
0.09120697
0.09154001
0.09166029
0.09154948
0.0911976
0.09062758
0.08988004
0.08898029
0.08793221
0.08672831
0.08535402
0.08378477
0.08198701
0.07993511
0.07764686
0.07521318
0.07277083
0.07042729
0.06822349
0.06614758
0.06416392
0.06223405
0.06032768
0.05842611
0.05652189
0.05461618
0.052724
0.05087377
0.04908285
0.04736734
0.0457407
0.04421294
0.04279012
0.04147486
0.04026664
0.03916291
0.03815897
0.03724953
0.036428
0.03568841
0.03502381
0.03442901
0.03389817
0.03342696
0.03300898
0.03264058
0.03234559
0.02169228
0.02423122
0.02669133
0.03565775
0.04759097
0.06780257
0.0821042
0.09736121
0.1138483
0.1306491
0.1481027
0.167347
0.1879813
0.2091968
0.2313895
0.2564156
0.2948685
0.31291
0.331226
0.3498481
0.368946
0.387702
0.4055637
0.4226382
0.4393645
0.4556755
0.4714085
0.4868457
0.501928
0.5166029
0.5307631
0.5442586
0.5569432
0.5686023
0.5791654
0.5884868
0.5966385
0.6033771
0.6089318
0.6130401
0.6157754
0.6161282
0.6116067
0.606643
0.6008243
0.5940196
0.5863592
0.5780282
0.5692098
0.5600749
0.5507831
0.5414995
0.5323367
0.5233748
0.5146822
0.506314
0.4982989
0.490634
0.483293
0.4762259
0.4693791
0.4626965
0.4561649
0.4498001
0.4436263
0.4376996
0.4319931
0.4263043
0.4206109
0.4148895
0.4091099
0.4032735
0.3974251
0.3916439
0.386016
0.3806197
0.3754857
0.3706156
0.3659263
0.3613081
0.3567367
0.3521929
0.3476513
0.3431266
0.3386782
0.3343864
0.3303208
0.3265074
0.3229218
0.3195016
0.3161649
0.3128334
0.3094616
0.3060511
0.3026513
0.299345
0.296219
0.2933333
0.2906959
0.2882307
0.2858196
0.2833599
0.2808017
0.2781635
0.2755275
0.273009
0.2707118
0.2686807
0.2668632
0.2651378
0.263379
0.2615051
0.259502
0.2574309
0.2554062
0.2535576
0.2519691
0.2506405
0.2494855
0.2483762
0.2472021
0.2459124
0.2445293
0.2431331
0.2418251
0.2406884
0.2397601
0.239018
0.2383858
0.2377508
0.2370063
0.2361171
0.2351355
0.2341625
0.2333198
0.2327077
0.2323342
0.2320929
0.2318344
0.2314717
0.2310295
0.2306667
0.2306221
0.2310496
0.2319453
0.2332624
0.2350002
0.2371579
0.2396147
0.2420683
0.2441645
0.2455411
0.2459112
0.2451926
0.2435442
0.2413371
0.2387809
0.2359844
0.233022
0.2299628
0.2268804
0.2238576
0.2209676
0.2182607
0.2157084
0.2132832
0.2109645
0.2087412
0.2065963
0.2045199
0.2025251
0.2006386
0.198876
0.1972269
0.195654
0.1941122
0.1925752
0.1910374
0.1895035
0.1879854
0.186494
0.1850221
0.1835362
0.1819994
0.1804004
0.1787572
0.177105
0.1754756
0.1738772
0.1722894
0.1706753
0.1690039
0.1672654
0.1654696
0.1636306
0.1617569
0.1598522
0.1579196
0.1559647
0.1539964
0.1520279
0.1500793
0.1481801
0.1463718
0.1447104
0.1432716
0.1421547
0.1414976
0.1415737
0.1426079
0.1448304
0.1484473
0.1535711
0.1601225
0.1676842
0.1754681
0.1825111
0.1879768
0.1914252
0.1928497
0.1925242
0.1908648
0.1883741
0.1851379
0.1811753
0.17648
0.171093
0.1651505
0.1588706
0.1524996
0.1462584
0.1403162
0.1347906
0.1297555
0.1252458
0.1212603
0.117767
0.1147101
0.112018
0.1096134
0.1074246
0.1053947
0.1034871
0.1016873
0.09999882
0.09843912
0.09703336
0.0958344
0.09490707
0.09426646
0.09392608
0.09389839
0.09419454
0.09482345
0.09578913
0.09708901
0.09871159
0.1006339
0.102817
0.1052054
0.1077285
0.1103072
0.1128556
0.1152898
0.1175305
0.1195087
0.1211496
0.122376
0.1231184
0.1233309
0.123008
0.1221927
0.1209728
0.1194104
0.1175741
0.1155314
0.1133443
0.1110611
0.108719
0.1063525
0.1039827
0.1016201
0.09927806
0.09694926
0.09460203
0.09223218
0.08989723
0.08766557
0.08557996
0.08366318
0.08193834
0.08047518
0.0794067
0.07889456
0.07912074
0.08030388
0.08269853
0.08659617
0.09199525
0.09848168
0.1055915
0.1126836
0.11908
0.1242816
0.1281188
0.1307263
0.132383
0.1333754
0.133914
0.1341229
0.1340419
0.1337145
0.1332134
0.1326457
0.1320558
0.1314687
0.1308961
0.1303388
0.1297826
0.1292003
0.1285887
0.1279341
0.1272127
0.1263945
0.1254489
0.124349
0.123074
0.1216108
0.1199566
0.1181189
0.1161149
0.1139714
0.1117217
0.1093973
0.1070248
0.1046441
0.102294
0.100006
0.0978011
0.09569205
0.09368521
0.09178145
0.08997699
0.08826511
0.08663791
0.08508789
0.08360869
0.08219541
0.08084428
0.07955215
0.07831594
0.07713205
0.07599602
0.07490224
0.07384392
0.07281323
0.07180164
0.07080045
0.06980128
0.06879644
0.06777924
0.06674419
0.06568714
0.06460534
0.06349739
0.06236327
0.061206
0.06003142
0.05884696
0.0576611
0.05648288
0.05532164
0.054187
0.05308885
0.05203706
0.05104101
0.05010891
0.04924736
0.0484612
0.04775377
0.04712761
0.04658536
0.0461306
0.04576825
0.04550467
0.04534741
0.04530531
0.04538834
0.04560765
0.04597622
0.04650766
0.04721538
0.04811224
0.04920677
0.05049722
0.05196653
0.05357899
0.05527934
0.05700146
0.05870478
0.06037025
0.06200136
0.06361656
0.06524213
0.06690494
0.06860862
0.07033111
0.07202903
0.07365057
0.07515184
0.07650423
0.07769268
0.07871775
0.07959831
0.08036908
0.08107446
0.08176089
0.08246961
0.08324145
0.08409694
0.08503377
0.08603035
0.08705251
0.08805511
0.08897928
0.08976034
0.090349
0.09074184
0.09096268
0.09102467
0.09091339
0.09060746
0.09010566
0.08943841
0.08865139
0.08776521
0.08678276
0.08569644
0.08448211
0.08309269
0.081466
0.07956293
0.07743462
0.07523193
0.07309728
0.07109257
0.0692087
0.06740393
0.06563213
0.06385856
0.0620634
0.06023935
0.05838848
0.0565191
0.05465092
0.05281059
0.05101715
0.04928802
0.04763771
0.04607732
0.04461434
0.04325325
0.04199567
0.04084103
0.03978666
0.03882917
0.03796367
0.03718569
0.03648902
0.03586956
0.03532008
0.03483867
0.03441548
0.03407263
0.009278998
0.01080387
0.01197833
0.01781718
0.02455092
0.03342885
0.04074966
0.04906112
0.05809793
0.06776618
0.0784153
0.09101538
0.1048954
0.1204804
0.1392359
0.1682246
0.1837189
0.2000871
0.2167776
0.2337369
0.2508777
0.2680628
0.2851231
0.3019097
0.3182421
0.3341008
0.3496237
0.3665515
0.3836921
0.4013507
0.4194886
0.4375574
0.455052
0.4718865
0.4877616
0.502751
0.5171349
0.5309687
0.5442328
0.5568367
0.5686267
0.5794046
0.5889885
0.5972431
0.6041059
0.6092566
0.6128448
0.6136211
0.6122793
0.6089528
0.6036943
0.5964244
0.5869906
0.5763158
0.5646164
0.5522048
0.5394277
0.5265858
0.513917
0.5016028
0.4897753
0.4785268
0.4679291
0.4580316
0.4488731
0.4404781
0.4328478
0.4259403
0.4196678
0.4139073
0.4085269
0.403421
0.3986345
0.3941513
0.3899824
0.3859471
0.3821259
0.3785245
0.375071
0.371641
0.3681215
0.3644609
0.3606836
0.3568794
0.3531691
0.3496618
0.3464202
0.3434425
0.3406574
0.3379485
0.3352116
0.3323768
0.3294122
0.3263386
0.3232341
0.3202156
0.3173908
0.3148196
0.3124932
0.3103302
0.3082156
0.3060367
0.3037181
0.3012503
0.2986988
0.2961878
0.2938529
0.291793
0.290029
0.2884647
0.2869315
0.2852809
0.2834413
0.2814351
0.2793718
0.277419
0.2757387
0.274395
0.2733097
0.2723109
0.2712278
0.2699537
0.2684746
0.266876
0.2653256
0.2640176
0.2630768
0.2624852
0.2621021
0.2617433
0.2612624
0.2606044
0.25982
0.2590404
0.2584208
0.2580804
0.2580549
0.2582757
0.2585875
0.2588165
0.2588042
0.2585257
0.258129
0.2578246
0.2578151
0.2582344
0.2590145
0.2599325
0.2607558
0.2613563
0.261867
0.262707
0.2643049
0.2667915
0.27008
0.2741211
0.2790484
0.2849336
0.2914354
0.2978243
0.3032024
0.3065698
0.3072816
0.305419
0.301644
0.2970047
0.2919366
0.2866793
0.281395
0.2762
0.2712089
0.2665334
0.2622576
0.2584039
0.2548991
0.2516548
0.2485937
0.2456642
0.2428389
0.2401138
0.2375098
0.2350567
0.2327649
0.2306091
0.2285316
0.2264752
0.2244072
0.2223214
0.2202327
0.2181602
0.216112
0.2140675
0.2119769
0.2097916
0.2075028
0.2051457
0.2027808
0.2004631
0.198212
0.1960028
0.1937831
0.1915058
0.1891588
0.1867623
0.1843464
0.1819302
0.1795237
0.1771361
0.1747793
0.1724701
0.1702306
0.1680919
0.1660966
0.1643036
0.1627931
0.1616713
0.1610832
0.1612448
0.1625777
0.1655149
0.1704877
0.1778402
0.1876585
0.1995923
0.2126374
0.2253085
0.2360271
0.2436118
0.2476868
0.2486039
0.246968
0.2433271
0.2383659
0.2322086
0.2249792
0.2168549
0.2080438
0.198804
0.1894058
0.1801273
0.1712147
0.1628541
0.1551661
0.1482128
0.1420077
0.1365258
0.1317151
0.1275049
0.1238127
0.1205522
0.1176416
0.115011
0.1126086
0.1104046
0.1083895
0.1065715
0.1049696
0.1036091
0.1025849
0.1019369
0.1016853
0.1018496
0.1024469
0.1034893
0.1049802
0.1069117
0.1092601
0.1119818
0.1150105
0.1182588
0.1216263
0.1250085
0.1283005
0.1314017
0.134216
0.1366659
0.1386608
0.1400984
0.1408871
0.1409767
0.140383
0.1391999
0.1375538
0.1355303
0.1332147
0.1306871
0.1280165
0.1252536
0.1224298
0.1195778
0.1167197
0.1138725
0.1110564
0.1082753
0.1055163
0.1027848
0.1001108
0.09751937
0.0950245
0.09263486
0.09036128
0.08823828
0.08632937
0.08470804
0.08347659
0.08282192
0.0830192
0.08436054
0.08703816
0.09113109
0.09658493
0.1029601
0.1098089
0.1165931
0.1227846
0.1279786
0.1319814
0.1347946
0.1365499
0.1374361
0.1376338
0.1372931
0.1365225
0.135427
0.1341801
0.1329119
0.1316995
0.1305834
0.1295771
0.1286769
0.1278692
0.12713
0.1264153
0.1256768
0.1248654
0.1239349
0.122846
0.1215687
0.1200862
0.1183976
0.1165104
0.1144522
0.1122651
0.1099936
0.1076808
0.1053657
0.103083
0.1008625
0.09872654
0.0966894
0.09475834
0.09293447
0.09121383
0.08958901
0.08805112
0.08659156
0.08520324
0.08388099
0.08262115
0.0814209
0.08027755
0.07918784
0.07814746
0.07715077
0.07619069
0.07525887
0.07434606
0.07344265
0.07253918
0.07162695
0.07069827
0.06974679
0.06876771
0.06775787
0.06671584
0.06564208
0.06453735
0.06340597
0.0622542
0.06108976
0.05992147
0.05875892
0.0576122
0.05649174
0.05540788
0.05437048
0.05338839
0.05246909
0.05161844
0.05084078
0.0501393
0.0495165
0.04897474
0.04851658
0.04814501
0.04786371
0.04767746
0.04759262
0.04761778
0.04776466
0.04804885
0.04849059
0.04911473
0.04994847
0.05101702
0.05233795
0.05391421
0.05572624
0.05772597
0.05983422
0.06197613
0.06410024
0.06616758
0.06816024
0.07007472
0.07191095
0.07366183
0.07530904
0.07682554
0.07818221
0.07936047
0.08034901
0.08114877
0.08177788
0.08227075
0.08267263
0.08303193
0.08339258
0.08379298
0.08426459
0.08481795
0.08544393
0.08611756
0.08680052
0.08744319
0.08799314
0.08841331
0.08870634
0.08888823
0.08896726
0.08892725
0.08872717
0.08833431
0.08776646
0.08707601
0.0863084
0.08548998
0.08462984
0.08371452
0.0827011
0.08151517
0.08006971
0.0783432
0.07645297
0.07456643
0.07277915
0.07110144
0.06949112
0.06789454
0.06627419
0.06461076
0.06289876
0.06114141
0.05934768
0.05753065
0.05571467
0.05392222
0.05217231
0.05048143
0.0488629
0.04732675
0.04588011
0.04452743
0.04327131
0.04211152
0.04104708
0.04007546
0.03919412
0.03839839
0.03768521
0.03704815
0.03648511
0.03598692
0.03558403
0.002282189
0.008834005
0.01316864
0.01820661
0.02383686
0.03029391
0.03768498
0.04582599
0.05497287
0.0660277
0.08276085
0.0928477
0.1038196
0.1154039
0.1276498
0.1404954
0.1538783
0.1676797
0.1817176
0.1958548
0.2100689
0.2261847
0.242595
0.2590904
0.2755403
0.291866
0.3079623
0.323805
0.3393802
0.3545849
0.3695871
0.3846441
0.4001938
0.415979
0.4319679
0.4480439
0.4637941
0.4787993
0.4927865
0.5059077
0.5184195
0.53045
0.5419914
0.5529845
0.5633213
0.572806
0.5811069
0.588015
0.5933425
0.5968823
0.5971352
0.5949989
0.5901922
0.5828869
0.573255
0.5615405
0.5480659
0.5332145
0.5175042
0.5013862
0.4852652
0.4695013
0.4543968
0.4401768
0.4269818
0.4148762
0.4038697
0.3939486
0.3850963
0.3773163
0.3706142
0.3649823
0.3603512
0.3565716
0.3534198
0.3506617
0.348094
0.3453614
0.3426537
0.3401816
0.3380523
0.3363555
0.3350554
0.333971
0.3328637
0.331546
0.3299386
0.3280748
0.3260795
0.3241244
0.3223641
0.3208849
0.3196786
0.3186451
0.3176292
0.3164881
0.3151367
0.3135529
0.3117767
0.3099087
0.3080947
0.3064837
0.3051545
0.3040851
0.3031671
0.3022391
0.30116
0.2998545
0.2983352
0.2967029
0.2951168
0.2937534
0.2927383
0.2920527
0.2915273
0.290934
0.2901084
0.2890081
0.2877082
0.2863756
0.2852336