/*--------------------------------*- C++ -*----------------------------------*\
| =========                 |                                                 |
| \\      /  F ield         | foam-extend: Open Source CFD                    |
|  \\    /   O peration     | Version:     3.1                                |
|   \\  /    A nd           | Web:         http://www.extend-project.de       |
|    \\/     M anipulation  |                                                 |
\*---------------------------------------------------------------------------*/
FoamFile
{
    version     2.0;
    format      ascii;
    class       volScalarField;
    location    "16";
    object      nut;
}
// * * * * * * * * * * * * * * * * * * * * * * * * * * * * * * * * * * * * * //

dimensions      [0 2 -1 0 0 0 0];

internalField   nonuniform List<scalar> 
119952
(
5.451452e-05
3.69813e-05
3.834682e-05
4.276315e-05
4.580616e-05
4.367035e-05
4.230641e-05
4.130866e-05
4.052856e-05
3.984798e-05
3.921478e-05
3.860133e-05
3.798818e-05
3.736342e-05
3.672045e-05
3.605492e-05
3.536285e-05
3.464172e-05
3.387244e-05
3.299792e-05
4.120793e-05
3.920775e-05
3.824141e-05
4.891518e-05
4.748142e-05
4.643046e-05
4.576912e-05
4.557538e-05
4.555235e-05
2.82832e-05
3.267248e-05
3.587734e-05
4.06763e-05
4.543288e-05
5.035164e-05
5.548188e-05
6.088584e-05
6.644293e-05
7.211682e-05
8.199166e-05
0.0003737118
0.000429808
0.0004926583
0.0005589877
0.0006266782
0.0006944189
0.0007617191
0.000828354
0.0008936615
0.001256712
0.001320631
0.001383616
0.00144528
0.001506181
0.001567263
0.001628871
0.001691032
0.001753617
0.00181504
0.001878574
0.001938595
0.001996497
0.002053944
0.00211127
0.002169195
0.002228194
0.00228877
0.002354052
0.002207729
0.002429727
0.002444583
0.00246908
0.002490661
0.002504424
0.002512808
0.002519855
0.002526569
0.002532746
0.002537835
0.002541201
0.002541913
0.002538372
0.002528114
0.002508089
0.002478718
0.002443265
0.002405863
0.002371915
0.00234601
0.002319938
0.002298877
0.002291766
0.002292975
0.002275134
0.002245261
0.002197465
0.002095801
0.001923677
0.0018625
0.001820518
0.001793767
0.001775522
0.001761553
0.00175059
0.001741438
0.001733032
0.001724707
0.001716094
0.001707011
0.001697355
0.001686983
0.0016757
0.001663314
0.001649694
0.00163479
0.00161861
0.001601186
0.001582533
0.001562638
0.001541492
0.001519146
0.001495777
0.00147172
0.001447455
0.00142353
0.001400488
0.001378817
0.00135896
0.00134137
0.001326577
0.001315214
0.001307966
0.001305457
0.001308116
0.001316106
0.001329469
0.001347756
0.001370321
0.001396871
0.001427706
0.001461999
0.001499237
0.001538701
0.001579399
0.001619983
0.001658652
0.001693297
0.001719842
0.00173561
0.001737171
0.001716327
0.001664452
0.001588834
0.001493918
0.001383767
0.001264544
0.001143632
0.001029196
0.0009194253
0.0008140083
0.000738988
0.0006942907
0.0006801138
0.0006930972
0.0007271482
0.0007760663
0.0008341843
0.0008968383
0.0009588221
0.001018229
0.001060432
0.001089123
0.001115401
0.001140395
0.001164687
0.001187892
0.001209686
0.001229999
0.001248743
0.001265884
0.001281415
0.001295341
0.001307639
0.001318262
0.001327149
0.001334252
0.001339514
0.00134287
0.00134422
0.001343448
0.001340381
0.001334825
0.001326527
0.001315245
0.001300189
0.001278823
0.001251929
0.001039789
0.0009844346
0.0008843327
0.0008079723
0.0007471425
0.0006956109
0.0006498617
0.0006087796
0.0005718891
0.0005391853
0.0005105021
0.0004857228
0.0004642675
0.0004454582
0.0004285273
0.0004127223
0.0003971201
0.0003759409
0.0003442517
0.0003015466
0.0002174811
0.0001774791
0.0002391105
0.000331477
0.0004033506
0.0004384976
0.000448531
0.0004247224
0.0003956273
0.0003757979
0.0003669441
0.0003671334
0.0003711042
0.0003744309
0.0003759206
0.0003822614
0.0004058953
0.0004320522
0.0004583786
0.0004830344
0.0005033713
0.000521901
0.0005396055
0.0005578539
0.0005781934
0.0006009025
0.0006237415
0.0006458275
0.0006668358
0.0006865355
0.0007047393
0.0007212978
0.0007360937
0.000749041
0.0007600991
0.0007692902
0.0007766852
0.0007823734
0.0007864561
0.0007890608
0.0007903499
0.0007904947
0.0007896703
0.0007880862
0.0007859853
0.0007836281
0.0007812375
0.0007789555
0.0007768537
0.0007748787
0.001052561
0.001071836
0.001090415
0.001107085
0.001121891
0.001134744
0.001145569
0.00115434
0.001161092
0.001165892
0.001168841
0.001170047
0.001169619
0.001167646
0.001164181
0.001159233
0.001152758
0.001144674
0.001134865
0.001123193
0.001109512
0.001093711
0.001075795
0.001055951
0.001034415
0.001011356
0.000987038
0.0009618935
0.0009365884
0.0009122454
0.0008902517
0.0008699758
0.000850673
0.0008332251
0.0008182973
0.0008060828
0.0007964873
0.0007893094
0.0007843272
0.0007813258
0.0007800976
0.0007804432
0.0007822038
0.0007853144
0.0007898159
0.0007955954
0.0008026119
0.0008118536
0.000823452
0.0008372432
0.0008528191
0.0008695697
0.0008867278
0.0009033514
0.0009195919
0.0009313586
0.0009414826
0.0009501346
0.0009573426
0.0009632741
0.0009681527
0.0009722651
0.0009760601
0.0009805349
0.0009875537
0.001000062
0.001020799
0.001051617
0.001093258
0.00114538
0.001206931
0.001276518
0.001352717
0.001434168
0.001519593
0.001607842
0.001697936
0.00178903
0.001880332
0.001970912
0.002062156
0.002157307
0.002252518
0.002344281
0.002428711
0.002501864
0.002564415
0.00262527
0.002685121
0.002741719
0.002797938
0.002853757
0.002906923
0.002953468
0.002988305
0.003007847
0.003011529
0.003000417
0.002975476
0.002936775
0.002883535
0.002814656
0.002729336
0.002627684
0.002511317
0.002383747
0.002250081
0.002115853
0.001985781
0.001862856
0.001747724
0.001639128
0.001538254
0.001446947
0.001365155
0.001292466
0.001228699
0.001173882
0.001127915
0.001090347
0.001060403
0.001037129
0.001019505
0.001006528
0.0009972526
0.0009908141
0.0009865254
0.0009838534
0.0009821571
0.000980692
0.0009795008
0.0009787687
0.0009791577
0.0009808258
0.0009838287
0.0009883634
0.0009949969
0.001005835
0.0007908562
5.054075e-05
5.407375e-05
6.242293e-05
7.261927e-05
8.31089e-05
9.33136e-05
0.0001030856
0.0001124311
0.0001227185
0.0004429838
0.0005873811
0.0007404486
0.0008893817
0.001027151
0.001151738
0.001263691
0.001364804
0.001457217
0.002086271
0.002182645
0.002282363
0.002380486
0.002476569
0.00257042
0.002661846
0.002750559
0.002836067
0.002916895
0.002994211
0.003067222
0.003136281
0.003203957
0.003271725
0.00334008
0.003408882
0.003477723
0.003545776
0.003596593
0.00363058
0.003666707
0.003705723
0.003748022
0.003793342
0.003841473
0.003891949
0.003943978
0.003996425
0.004049369
0.004100411
0.004150094
0.004199063
0.004247869
0.004297262
0.004347701
0.004399124
0.004450143
0.005227266
0.005271043
0.005311449
0.005349891
0.005386875
0.005422994
0.005458804
0.005494469
0.005529981
0.005564499
0.005597734
0.005630036
0.005660541
0.005689634
0.005718183
0.005746947
0.005776719
0.005808973
0.00584595
0.00587951
0.005902229
0.00592364
0.005946664
0.005966941
0.005983784
0.005999136
0.006014814
0.006031046
0.006047269
0.006062744
0.006076578
0.006087414
0.006093184
0.006091279
0.006078873
0.006053493
0.00601378
0.005960875
0.005902743
0.005843768
0.005784273
0.005731485
0.005687789
0.005639138
0.005578131
0.005509626
0.005428657
0.005330081
0.005232105
0.005158871
0.005095712
0.005040191
0.004991396
0.004947406
0.004907087
0.004869212
0.004832572
0.004796251
0.004759663
0.00472249
0.004684502
0.004645401
0.004604824
0.00456241
0.004517864
0.004471021
0.004421868
0.00437048
0.004316911
0.004261113
0.004202937
0.00414222
0.00407894
0.004013343
0.003945996
0.003877747
0.003809643
0.003742872
0.003678732
0.003618612
0.003563955
0.003516209
0.0034768
0.003447028
0.003428021
0.003420734
0.003425791
0.003443429
0.003473596
0.003514909
0.003566785
0.003631464
0.003708838
0.003798289
0.003898577
0.004007528
0.004121748
0.004236444
0.004344857
0.004438671
0.004509087
0.004547883
0.004545651
0.004489737
0.004383612
0.004224182
0.004010887
0.003749141
0.003453241
0.003146112
0.002854378
0.002599843
0.002393897
0.002238429
0.002129793
0.002061784
0.002027279
0.001968316
0.00194433
0.001953385
0.001990455
0.002050773
0.002129103
0.00222019
0.002317984
0.002402816
0.002462725
0.002521662
0.002582964
0.002646847
0.00271327
0.002782114
0.002853227
0.002926468
0.003001687
0.003078759
0.003157517
0.003237774
0.00331921
0.003401448
0.003483858
0.003565724
0.003645932
0.003723399
0.00379639
0.003863475
0.003922602
0.003975808
0.003880719
0.003773957
0.003692035
0.00361885
0.003541741
0.003447762
0.003337597
0.003213846
0.003079261
0.002937581
0.002792671
0.002647988
0.002506069
0.002368353
0.002235055
0.002105133
0.001975984
0.001842791
0.001696936
0.001527283
0.001322382
0.001142849
0.001034355
0.0009816372
0.0009320241
0.0008590393
0.0008319307
0.0008443945
0.00089835
0.001005745
0.001187962
0.001398309
0.001537592
0.001684842
0.001826852
0.00196023
0.002090947
0.002223328
0.002358694
0.002495885
0.002631795
0.002763908
0.002890896
0.003012082
0.003127098
0.003235398
0.003338256
0.003437427
0.003530312
0.003615749
0.003693056
0.003761802
0.003821727
0.003872702
0.003914765
0.003948186
0.003973433
0.003991025
0.00400147
0.004005321
0.004003225
0.003995898
0.003984059
0.003968453
0.003949933
0.003929414
0.00390773
0.003885491
0.003862917
0.003839159
0.004280632
0.004269854
0.004256377
0.004241513
0.004225871
0.004209833
0.004193553
0.004177011
0.004160105
0.004142684
0.00412456
0.004105531
0.004085375
0.004063838
0.00404062
0.004015365
0.003987653
0.003957001
0.003922872
0.003884693
0.003841889
0.003793929
0.003740365
0.003680851
0.003615139
0.00354307
0.003464562
0.003379564
0.003287951
0.003189343
0.003085414
0.002978836
0.002871653
0.002765856
0.002663192
0.002565135
0.00247297
0.002387844
0.002310673
0.002241978
0.002181756
0.002129505
0.002084422
0.002045653
0.00201255
0.001984797
0.001962665
0.001946845
0.00193792
0.001936281
0.001941941
0.001954724
0.001973993
0.001999169
0.00202976
0.002064035
0.00210055
0.002138559
0.002177121
0.002215324
0.002252512
0.002288599
0.002324432
0.002361989
0.002404247
0.002454836
0.002517607
0.002596135
0.002693248
0.002810738
0.002949245
0.003108248
0.003286154
0.003480429
0.003687801
0.003904532
0.004126771
0.004350831
0.004573303
0.004791028
0.005000947
0.005202727
0.005398671
0.005585636
0.005760929
0.00592292
0.006071888
0.006209503
0.00633672
0.006453826
0.006562349
0.006662775
0.00675339
0.006829842
0.006886551
0.006920277
0.006930532
0.006918093
0.006883526
0.006826422
0.006745635
0.006639793
0.006507793
0.006349353
0.006165733
0.005960507
0.005739822
0.005511454
0.00528262
0.005057889
0.00483853
0.004623314
0.004409871
0.004195959
0.003980377
0.003766777
0.003561481
0.003368337
0.00318962
0.003027237
0.00288238
0.002755403
0.002645874
0.002552763
0.002474633
0.002409872
0.002356823
0.002313954
0.002279833
0.002253297
0.002233237
0.002218912
0.002209285
0.002202914
0.002198831
0.002198868
0.002203083
0.002214881
0.002232097
3.20936e-05
3.925806e-05
5.005731e-05
6.28755e-05
7.818896e-05
9.662172e-05
0.0001193114
0.0001477977
0.0001848868
0.0002505319
0.00102847
0.00119979
0.001386075
0.001579514
0.00176782
0.001911366
0.002046848
0.002199132
0.002505948
0.004581423
0.004813942
0.004955531
0.005084176
0.005194838
0.005293896
0.005382633
0.005462012
0.005534153
0.005622636
0.005798936
0.00598769
0.006136287
0.006242658
0.006318038
0.006372553
0.00641304
0.006443971
0.006473811
0.006375296
0.006354785
0.006372319
0.006408227
0.006451516
0.006495595
0.006536831
0.006573466
0.006604917
0.006631075
0.006651412
0.006668742
0.006685148
0.006701625
0.006718719
0.006736322
0.006753714
0.006768658
0.007543916
0.007558038
0.007565569
0.007569793
0.007572718
0.007575333
0.007578314
0.007581831
0.007586024
0.00759053
0.007594434
0.007597957
0.007601603
0.007605455
0.007610009
0.007615934
0.007623596
0.007633105
0.007644324
0.007655923
0.007666808
0.007677265
0.007687229
0.007696898
0.007707003
0.007718383
0.007731574
0.007746497
0.007762249
0.007778111
0.007793377
0.007807354
0.007820337
0.007833307
0.007847468
0.007863838
0.00788286
0.007905169
0.007912324
0.007920895
0.007929667
0.007938022
0.007946094
0.007954619
0.007964499
0.007976309
0.007990032
0.00800496
0.008020329
0.008034963
0.008047927
0.00805921
0.008069607
0.008080367
0.008092932
0.0081083
0.00812656
0.008145085
0.008160141
0.008172154
0.008183158
0.008193125
0.008203085
0.008214108
0.008227324
0.008242889
0.008259996
0.008277696
0.008294923
0.008310038
0.008320613
0.008323672
0.008316131
0.008295326
0.008259704
0.008209056
0.008146075
0.008075485
0.008000106
0.007924727
0.007852792
0.007780673
0.00770424
0.007624752
0.007541628
0.007452927
0.007365774
0.007290169
0.007225531
0.007167612
0.007115733
0.007069046
0.007026362
0.006986446
0.006947895
0.006909368
0.006869887
0.006828888
0.006786025
0.006740948
0.006693234
0.00664241
0.006588031
0.006529804
0.006467697
0.006401912
0.006332725
0.006260288
0.006184526
0.006105195
0.006022075
0.005935185
0.005844931
0.005752127
0.005657935
0.005563776
0.005471299
0.005382333
0.005298837
0.005222833
0.005156355
0.00510134
0.005059617
0.005032848
0.005022359
0.005029156
0.005053983
0.005096387
0.005153463
0.005228056
0.005320917
0.005432089
0.005560774
0.005704836
0.005860065
0.00601954
0.006173587
0.006310812
0.006420368
0.006493815
0.006524409
0.006502452
0.0064194
0.006275396
0.006066395
0.005792309
0.005460637
0.005088798
0.004702198
0.004327686
0.00398652
0.003691235
0.003446745
0.003252976
0.003106944
0.003004052
0.002938775
0.002905449
0.002898599
0.002913156
0.002944698
0.00298958
0.003044892
0.003108323
0.003177829
0.003250464
0.003324323
0.003403682
0.003488702
0.003579047
0.003674499
0.003774903
0.0038802
0.003990365
0.004105416
0.004225257
0.004349724
0.004478366
0.004610579
0.004745237
0.004881013
0.00501588
0.005147811
0.005273984
0.005391989
0.005498036
0.005581236
0.005652243
0.00570706
0.005741543
0.005752017
0.005734998
0.005689283
0.005619293
0.005526488
0.005413164
0.005282124
0.005136471
0.004978934
0.004811306
0.004634853
0.004449073
0.004250506
0.004035226
0.003796343
0.003526394
0.003234954
0.002953867
0.002698422
0.002469834
0.002269619
0.002101176
0.001968719
0.001851549
0.001646633
0.001477517
0.001395094
0.001409543
0.001514744
0.001709739
0.001991874
0.00234354
0.002723385
0.003053012
0.003290856
0.003527957
0.00375872
0.003978023
0.00418233
0.004370384
0.004542376
0.004699078
0.004841983
0.00497471
0.00509784
0.005211467
0.005315449
0.00540955
0.005493501
0.005567033
0.005629995
0.005682783
0.005726292
0.005761281
0.005788425
0.005808425
0.005822066
0.005830054
0.005833712
0.005833372
0.005830052
0.005824531
0.005817514
0.005809325
0.005800253
0.005791208
0.005768756
0.005749261
0.005732452
0.005717722
0.005704768
0.005693376
0.005683233
0.005673929
0.005665038
0.005656158
0.005646921
0.005636992
0.005626054
0.005613781
0.005599823
0.005583771
0.005565151
0.005543407
0.005517905
0.005487944
0.005452777
0.005411647
0.005363826
0.005308648
0.005245523
0.005173929
0.005093406
0.005003509
0.004903719
0.004793284
0.004671707
0.004541735
0.004405688
0.004265949
0.004124853
0.003984625
0.003847396
0.003715185
0.003589808
0.003472676
0.003364632
0.003265849
0.003175956
0.003094209
0.003019811
0.002952157
0.002891054
0.00283686
0.00279014
0.002751526
0.002721536
0.002700681
0.002689084
0.002687282
0.002694747
0.002710881
0.00273549
0.002767881
0.002806846
0.002851012
0.002899169
0.002950582
0.003005348
0.003064667
0.003130882
0.003207251
0.003297549
0.003405581
0.003534711
0.003687479
0.003865325
0.004068362
0.004295286
0.004543426
0.004808874
0.005086706
0.005371424
0.005657407
0.005939349
0.006212438
0.006472356
0.006714962
0.006942671
0.007156951
0.00735795
0.007545745
0.007720515
0.007882765
0.008032784
0.008170249
0.008295126
0.00840783
0.008507867
0.008592688
0.008659569
0.008706673
0.008733285
0.008739221
0.008724143
0.008686887
0.008626201
0.008540756
0.008429064
0.008289804
0.008122447
0.007928428
0.007712459
0.007482596
0.00724776
0.00701422
0.006784008
0.006555742
0.006326368
0.006092681
0.005852383
0.005604495
0.00534912
0.005092665
0.004843255
0.004605126
0.004381929
0.004176467
0.003990485
0.003824726
0.003678977
0.003552433
0.003443753
0.003351477
0.003273912
0.003209633
0.003157018
0.00311509
0.003082398
0.003058401
0.003041452
0.00302971
0.003023003
0.003023155
0.003028947
4.024886e-05
6.530214e-05
0.0001456662
0.000493625
0.000851823
0.0015333
0.002059889
0.002700795
0.003438569
0.004045652
0.004491775
0.004849522
0.005202676
0.00555902
0.005925316
0.006294565
0.006666842
0.007026504
0.007361429
0.007685345
0.007995408
0.008276353
0.008504543
0.00869322
0.008861854
0.00901016
0.009135242
0.009237755
0.009315366
0.009380297
0.009465908
0.009582439
0.009287403
0.009018174
0.008791089
0.00860168
0.008449781
0.008337034
0.008266431
0.008229185
0.008206424
0.008219001
0.008262498
0.008328886
0.008412544
0.008511595
0.008624393
0.008750294
0.008886755
0.009047477
0.00922393
0.009388475
0.009585357
0.009804548
0.009899845
0.00991416
0.009925858
0.009934546
0.009939911
0.0099417
0.009940088
0.009935791
0.009929687
0.009922557
0.009915248
0.009907768
0.009900629
0.009894002
0.009864739
0.00983856
0.009814618
0.009792399
0.009772019
0.00975388
0.009738385
0.009725643
0.009715313
0.009706619
0.009698632
0.009690819
0.009682864
0.009674808
0.009667261
0.009661197
0.009657486
0.009656554
0.009658217
0.009661597
0.009665482
0.009668848
0.009671164
0.009672745
0.0096747
0.009678432
0.009684969
0.009694658
0.00970685
0.009719941
0.009732196
0.009742451
0.009750804
0.009758375
0.009767007
0.009778362
0.009793624
0.009812343
0.009832469
0.009852077
0.009869283
0.009883129
0.009894053
0.009903545
0.009913402
0.009924956
0.009938632
0.009953833
0.009969086
0.009982533
0.00999259
0.009998623
0.01
0.01
0.01
0.01
0.01
0.01
0.01
0.01
0.01
0.01
0.01
0.01
0.01
0.009998884
0.009995771
0.009991402
0.009985213
0.009976518
0.009964326
0.009947548
0.009924953
0.009895067
0.009856588
0.009808318
0.009748335
0.009678272
0.009601654
0.009521665
0.00944121
0.009361352
0.009282014
0.009203796
0.009127404
0.009052594
0.00898092
0.008915273
0.008856628
0.008803873
0.008756058
0.008712632
0.008673001
0.008636278
0.008601222
0.008566417
0.008530686
0.008493338
0.008454012
0.008412439
0.008368335
0.008321279
0.008270661
0.00821585
0.008156507
0.008092728
0.008024894
0.007953364
0.007878197
0.007799066
0.007715436
0.007626885
0.007533399
0.007435493
0.007334161
0.00723074
0.007126844
0.007024347
0.006925354
0.006832145
0.006747114
0.006672668
0.006611178
0.006564889
0.006535782
0.006525535
0.006535507
0.006566285
0.006615969
0.006687265
0.006781658
0.00689977
0.007040909
0.007202118
0.007377095
0.0075557
0.007725024
0.007871757
0.00798547
0.00806088
0.008096761
0.008091692
0.008038716
0.007935757
0.007776863
0.007556054
0.007271294
0.006928447
0.006542745
0.006136153
0.005732009
0.005350186
0.005004803
0.004704234
0.004452097
0.00424846
0.004090952
0.003975683
0.00389799
0.003852962
0.003835814
0.003842172
0.003868218
0.003910729
0.00396702
0.004034536
0.004110111
0.004190691
0.00428082
0.004380155
0.004488219
0.004604702
0.004729467
0.004862507
0.005003875
0.005153522
0.005311236
0.005476485
0.00564836
0.005825338
0.006005332
0.006185608
0.006363081
0.006534254
0.006695682
0.006843763
0.006975149
0.00708662
0.007175007
0.007237331
0.007271147
0.007274653
0.007246042
0.007187874
0.007102829
0.006994062
0.006864921
0.006718716
0.00655795
0.006384447
0.006199594
0.006002405
0.005790508
0.005561889
0.005310011
0.005029063
0.004726503
0.004416749
0.00410719
0.003801232
0.003501998
0.003214196
0.002948108
0.002715964
0.002527586
0.002393977
0.002325192
0.002100488
0.001884346
0.001809611
0.00185985
0.002015002
0.002261217
0.00258401
0.002964212
0.003372573
0.00377747
0.004156794
0.004455507
0.004689843
0.004906754
0.005105205
0.005284913
0.005448226
0.005598442
0.005737247
0.005865454
0.005983246
0.00609034
0.006186062
0.006269496
0.006254251
0.006233995
0.006212925
0.006192934
0.006177439
0.006168957
0.006169585
0.006181464
0.006207658
0.006249642
0.006311637
0.006390891
0.006487093
0.006573599
0.006568155
0.006561939
0.006556593
0.00655307
0.006551706
0.006552616
0.006555746
0.006560851
0.006567537
0.006575334
0.006583766
0.006592384
0.006600775
0.006608561
0.00661537
0.006620815
0.00662446
0.006625799
0.006624238
0.006619086
0.006609561
0.006594805
0.006573919
0.006545995
0.006510158
0.006465587
0.006411535
0.006347324
0.006272336
0.006185967
0.006087549
0.005976281
0.005853284
0.005720313
0.005579388
0.005432713
0.005282592
0.005131379
0.004981414
0.004834923
0.004693845
0.004559657
0.00443324
0.004314859
0.004204249
0.00410081
0.00400386
0.003912847
0.003827538
0.003747982
0.003674481
0.00360753
0.003547853
0.00349628
0.00345383
0.003421404
0.003399917
0.003390156
0.003392443
0.003406551
0.003431779
0.003467115
0.003511517
0.003564353
0.003625961
0.00369824
0.003784132
0.003887044
0.004010353
0.004157151
0.004330013
0.004530401
0.00475837
0.005012386
0.005289316
0.005584587
0.005892368
0.006205985
0.006518583
0.006823789
0.007116158
0.007391387
0.007646238
0.007880063
0.008097042
0.008299568
0.008489417
0.00866773
0.008835233
0.008992175
0.009137959
0.009271558
0.009392608
0.009501113
0.009407478
0.009218058
0.009111433
0.009208142
0.009461528
0.009714263
0.009819973
0.009790268
0.0097387
0.009663625
0.009563109
0.009435112
0.009278522
0.009095212
0.008892079
0.008679691
0.00846632
0.008254919
0.008043977
0.007829815
0.007608454
0.007376795
0.007133116
0.006877178
0.006609966
0.00633632
0.00606506
0.005801058
0.005548679
0.005311492
0.005092088
0.004892015
0.004711902
0.00455159
0.004410388
0.004287191
0.004180758
0.004089708
0.004012783
0.003948689
0.003896365
0.003854763
0.003822915
0.003798862
0.003781122
0.003771905
2.258188e-05
3.658974e-05
5.528483e-05
0.0002405824
0.0003943729
0.0006700857
0.0009426374
0.001193087
0.001508675
0.001817537
0.002152884
0.002589001
0.003106696
0.003695591
0.004361276
0.005214519
0.006829129
0.007485318
0.008116295
0.008684163
0.009181716
0.009606199
0.009974335
0.01
0.01
0.01
0.01
0.01
0.01
0.01
0.01
0.01
0.01
0.01
0.01
0.01
0.01
0.01
0.01
0.009759077
0.009194131
0.008670674
0.008491123
0.008217162
0.007946475
0.007714761
0.007523606
0.007373142
0.007262394
0.007189415
0.007151951
0.007143122
0.007165203
0.007219097
0.00730075
0.007404377
0.007526019
0.007663469
0.007813516
0.007978598
0.008162942
0.008373403
0.008622571
0.008911259
0.009235573
0.00957915
0.009935813
0.01
0.01
0.01
0.01
0.01
0.01
0.01
0.01
0.01
0.01
0.01
0.01
0.01
0.01
0.01
0.01
0.01
0.01
0.01
0.01
0.01
0.01
0.01
0.01
0.01
0.01
0.01
0.01
0.01
0.01
0.01
0.01
0.01
0.01
0.01
0.01
0.01
0.01
0.01
0.01
0.01
0.01
0.01
0.01
0.01
0.01
0.01
0.01
0.01
0.01
0.01
0.01
0.01
0.01
0.01
0.01
0.01
0.01
0.01
0.01
0.01
0.01
0.01
0.01
0.01
0.01
0.01
0.01
0.01
0.01
0.01
0.01
0.01
0.01
0.01
0.01
0.01
0.01
0.01
0.01
0.01
0.01
0.01
0.01
0.01
0.01
0.01
0.01
0.01
0.01
0.01
0.01
0.009989227
0.009936139
0.009882482
0.009830961
0.009783597
0.009743468
0.00970895
0.00967901
0.009652964
0.009629505
0.009607367
0.009585958
0.009565229
0.009545135
0.009525237
0.009504657
0.009482482
0.009458264
0.009431958
0.009403657
0.009373521
0.009341595
0.009307486
0.009270287
0.009229138
0.009183794
0.009134601
0.009082129
0.00902669
0.008967965
0.008905032
0.008836766
0.008762399
0.008681896
0.00859592
0.008505542
0.008412081
0.008317118
0.008222536
0.008130514
0.008043485
0.007964051
0.007894917
0.007838778
0.007798178
0.007775434
0.007772591
0.007791125
0.007830599
0.007893098
0.007980622
0.00809318
0.008228845
0.008382751
0.008545102
0.008702588
0.008842794
0.008954989
0.009031937
0.009072145
0.009079442
0.009059703
0.009014866
0.00894462
0.008843181
0.008701196
0.008509319
0.00826228
0.00796216
0.007619196
0.007249654
0.006872154
0.006504254
0.006160316
0.005850624
0.005581377
0.005355265
0.005172311
0.0050307
0.004927439
0.004858864
0.004821072
0.004810229
0.004822776
0.004855549
0.004905708
0.004970465
0.005046232
0.005131427
0.005229843
0.005340825
0.005463968
0.005599116
0.005746279
0.005905498
0.006076652
0.006259319
0.006452604
0.006654965
0.006864052
0.007076722
0.007289233
0.00749754
0.007697489
0.007885096
0.008056716
0.008209139
0.008339055
0.00844314
0.00851842
0.008562822
0.008575567
0.008556731
0.00850831
0.008433102
0.008334323
0.008215244
0.008078919
0.007927675
0.007763186
0.007586605
0.007397602
0.007194767
0.006976236
0.006738045
0.006476299
0.006192057
0.005889852
0.005572482
0.005240795
0.004894672
0.004536205
0.00417435
0.003823789
0.003501226
0.003225094
0.003012373
0.00287086
0.002802956
0.002733016
0.002409041
0.002255045
0.002251617
0.002369138
0.002585318
0.002883789
0.003244008
0.003644863
0.004064853
0.004481351
0.004871518
0.005198931
0.005411708
0.005607879
0.005789557
0.005958949
0.006117587
0.006266251
0.006404977
0.006532981
0.00657426
0.006592704
0.006604461
0.006609877
0.00661287
0.006617341
0.006625748
0.006640727
0.006666062
0.006704966
0.006757994
0.006826535
0.006911245
0.007010358
0.007112343
0.007106017
0.007095798
0.007088432
0.007084898
0.007085684
0.00709091
0.007100429
0.007113876
0.007130722
0.007150342
0.007172091
0.007195353
0.007219573
0.007244254
0.00726893
0.007293139
0.007316384
0.007338099
0.007357625
0.007374199
0.00738695
0.007394919
0.007397084
0.007392399
0.007379836
0.007358418
0.007327242
0.007285503
0.00723249
0.007167579
0.007090194
0.006999738
0.006896279
0.00678094
0.006655236
0.006520992
0.006380267
0.006235287
0.006088363
0.005941783
0.00579767
0.005657816
0.005523549
0.005395642
0.005274317
0.005159325
0.005050105
0.004945938
0.004846125
0.004750064
0.004657334
0.004567751
0.004481478
0.004399041
0.004321404
0.004249957
0.004186404
0.004132629
0.004090481
0.004061518
0.004046813
0.004046854
0.004061517
0.004090195
0.004083353
0.004087464
0.004165312
0.004304161
0.004480359
0.004625222
0.004798312
0.005000935
0.005232833
0.005492012
0.005774738
0.006075726
0.006388471
0.006705578
0.007019524
0.007323476
0.007611897
0.007880854
0.008128031
0.008352615
0.008558117
0.008748783
0.008928019
0.009098216
0.009260809
0.00941625
0.009563927
0.009702567
0.009757606
0.009735216
0.009732271
0.009651657
0.00959527
0.009719448
0.01000131
0.01000114
0.01000045
0.01000006
0.01
0.01
0.01
0.01
0.01000005
0.01000032
0.009846812
0.00967104
0.009491847
0.009313231
0.009133562
0.00894882
0.008754596
0.008547448
0.008325399
0.008087928
0.007835768
0.007570628
0.007297771
0.007024657
0.006756062
0.006496358
0.006249203
0.00601737
0.005802712
0.005606241
0.005428243
0.005268465
0.005126248
0.005000736
0.004890889
0.004795713
0.004714086
0.004645158
0.004587755
0.004541266
0.004504141
0.004476618
2.063749e-05
3.180841e-05
6.320482e-05
0.0001914052
0.0003076588
0.0004888529
0.0006265316
0.0007825209
0.0009664685
0.001146119
0.001356559
0.00162891
0.001939917
0.002311001
0.002794428
0.003724208
0.004163826
0.004638163
0.005138528
0.005663676
0.006218725
0.006794203
0.007373645
0.007941654
0.008481124
0.008983323
0.009464541
0.009988142
0.01
0.01
0.01
0.01
0.01
0.01
0.01
0.01
0.01
0.01
0.01
0.01
0.01
0.01
0.01
0.01
0.01
0.01
0.01
0.009565357
0.00908955
0.00862538
0.008178972
0.007774367
0.007441427
0.007125797
0.006877636
0.006685146
0.006537162
0.006429782
0.006361465
0.006330437
0.00633551
0.006376652
0.006453275
0.006565748
0.006712761
0.006889847
0.007091034
0.007313308
0.007549601
0.007808602
0.008103331
0.008453077
0.008855663
0.009317874
0.009844322
0.01
0.01
0.01
0.01
0.01
0.01
0.01
0.01
0.01
0.01
0.01
0.01
0.01
0.01
0.01
0.01
0.01
0.01
0.01
0.01
0.01
0.01
0.01
0.01
0.01
0.01
0.01
0.01
0.01
0.01
0.01
0.01
0.01
0.01
0.01
0.01
0.01
0.01
0.01
0.01
0.01
0.01
0.01
0.01
0.01
0.01
0.01
0.01
0.01
0.01
0.01
0.01
0.01
0.01
0.01
0.01
0.01
0.01
0.01
0.01
0.01
0.01
0.01
0.01
0.01
0.01
0.01
0.01
0.01
0.01
0.01
0.01
0.01
0.01
0.01
0.01
0.01
0.01
0.01
0.01
0.01
0.01
0.01
0.01
0.009832803
0.009659672
0.009521567
0.009416781
0.009342308
0.009294341
0.009268048
0.009259173
0.009263206
0.009274257
0.009285445
0.0092916
0.009291847
0.009291183
0.009293735
0.009308584
0.009331615
0.009359356
0.009389245
0.009418135
0.009443223
0.009463098
0.00947802
0.009489183
0.009497719
0.009504015
0.009507857
0.009509021
0.009507728
0.009504757
0.009501229
0.009498241
0.009496261
0.009494581
0.009491898
0.009487282
0.009480676
0.009472723
0.009464037
0.009454249
0.009441569
0.009423224
0.009396591
0.009360631
0.009315991
0.00926383
0.00920537
0.009141894
0.009074893
0.009006213
0.008938077
0.008873049
0.008813961
0.008763794
0.008725539
0.008702077
0.008695981
0.008709278
0.008742605
0.008796049
0.008870434
0.008961736
0.009067918
0.009189749
0.009319042
0.009443268
0.009554768
0.009641646
0.00969185
0.009700862
0.009673369
0.009619259
0.009550629
0.009478694
0.009400384
0.009307603
0.009190262
0.009037479
0.008841432
0.008601294
0.008322837
0.008017133
0.007698137
0.007380216
0.00707617
0.006796037
0.006546747
0.006332374
0.006154658
0.006013538
0.005907641
0.005834707
0.005791959
0.005776421
0.005785172
0.005815477
0.005864763
0.005930299
0.006008226
0.006101163
0.006210066
0.006334697
0.006475073
0.006631321
0.00680346
0.00699114
0.007193453
0.0074087
0.007634227
0.00786641
0.008100823
0.008332731
0.008557543
0.008770938
0.008968935
0.00914784
0.009305118
0.009437822
0.009542649
0.009616738
0.009658594
0.009668677
0.00964926
0.009603137
0.009533256
0.009442664
0.009334293
0.009210746
0.009073899
0.008924739
0.008764312
0.008592717
0.008409227
0.00821261
0.008000353
0.007769356
0.007518206
0.007246799
0.006954028
0.006637473
0.006294103
0.005922321
0.005525492
0.005112843
0.004698885
0.004304101
0.003952182
0.003663153
0.003449466
0.003314536
0.00325538
0.003265166
0.003062306
0.002854961
0.002800721
0.002877571
0.003058326
0.003319153
0.003642824
0.004011496
0.004402779
0.004797973
0.005181087
0.005533272
0.005799438
0.005991941
0.006175933
0.006352735
0.006522845
0.006685986
0.006841291
0.006987433
0.007122676
0.007216761
0.007272002
0.007319695
0.007364027
0.007406462
0.007454389
0.007515994
0.007588693
0.00763534
0.00762162
0.007602
0.007579757
0.007557748
0.00753815
0.00752271
0.007512712
0.007508939
0.007511696
0.0075209
0.007536156
0.007556843
0.007582199
0.00761142