/*--------------------------------*- C++ -*----------------------------------*\
| =========                 |                                                 |
| \\      /  F ield         | foam-extend: Open Source CFD                    |
|  \\    /   O peration     | Version:     3.1                                |
|   \\  /    A nd           | Web:         http://www.extend-project.de       |
|    \\/     M anipulation  |                                                 |
\*---------------------------------------------------------------------------*/
FoamFile
{
    version     2.0;
    format      ascii;
    class       volScalarField;
    location    "16";
    object      omega;
}
// * * * * * * * * * * * * * * * * * * * * * * * * * * * * * * * * * * * * * //

dimensions      [0 0 -1 0 0 0 0];

internalField   nonuniform List<scalar> 
119952
(
402.9072
514.3489
489.3992
427.4613
384.6407
388.733
396.084
405.2218
415.6316
427.0371
439.287
452.2732
465.9081
480.1168
494.8295
509.9895
525.5732
541.6279
558.3357
576.9884
481.9851
479.3856
483.0859
404.6424
395.4899
389.9409
385.3021
381.0079
373.1385
197.4737
824.4919
693.2251
587.1467
509.9563
451.9846
407.1463
371.2312
341.7841
317.0419
289.5865
244.5327
212.6506
190.3781
173.8094
160.7462
149.9355
140.7036
132.6674
125.5983
97.68282
93.86664
90.13133
86.48947
83.02804
79.79736
76.80949
74.06526
71.54101
69.22607
67.19594
65.27114
63.42769
61.66587
59.97438
58.33959
56.74855
55.17152
53.61753
53.15862
52.8862
52.2216
51.65873
51.2299
50.88277
50.52008
50.14787
49.79292
49.4673
49.17971
48.94068
48.76448
48.67236
48.69549
48.8714
49.18502
49.58023
49.9745
50.24522
50.40645
50.61856
50.55793
50.40878
50.49397
50.87644
51.44504
52.60155
55.21546
58.98286
59.79371
60.25307
60.31454
60.23017
60.09679
59.94342
59.80122
59.68948
59.61505
59.57882
59.57955
59.61748
59.69586
59.81943
59.9922
60.21619
60.49157
60.81803
61.19686
61.63195
62.12919
62.69399
63.32814
64.02699
64.77805
65.56158
66.35236
67.12168
67.83876
68.47136
68.9857
69.34632
69.51632
69.45975
69.14725
68.56178
67.70087
66.58075
65.24456
63.74165
62.11623
60.40156
58.68187
57.00798
55.42599
53.97751
52.69715
51.61076
50.7447
50.21168
50.02558
50.2221
50.93212
52.40476
54.61089
57.62859
61.61045
66.70938
73.03966
80.53853
88.81046
97.0445
104.1776
109.3317
112.0182
112.1221
109.8863
105.8397
100.6614
95.02437
89.48602
84.37034
79.7767
75.70832
72.11417
68.92724
66.07871
63.5533
61.33504
59.37868
57.65069
56.1258
54.78374
53.60793
52.58509
51.70521
50.96069
50.34599
49.85703
49.49116
49.24664
49.12298
49.12057
49.24111
49.4869
49.86228
50.38238
51.12764
52.0633
57.08499
65.00398
71.67548
77.3214
82.30198
86.91664
91.37342
95.74651
100.0409
104.192
108.17
111.8999
115.3965
118.6899
121.869
125.0657
128.5104
132.6479
138.308
147.2043
166.6939
190.3406
196.7615
173.6777
146.4118
126.8777
113.1385
103.4963
96.85126
92.2557
88.9237
86.27453
84.32286
83.09833
82.37638
80.84794
77.64316
74.91044
72.66327
70.84884
69.56658
68.6023
67.90238
67.34545
66.81158
66.24275
65.70767
65.20362
64.72147
64.25278
63.79058
63.32993
62.86802
62.40371
61.93687
61.46764
60.99647
60.52441
60.05285
59.58309
59.11613
58.65325
58.19616
57.74493
57.29907
56.85701
56.41686
55.97656
55.53247
55.09044
44.50321
43.25014
41.99116
40.77377
39.67761
38.72971
37.92965
37.26488
36.71753
36.26865
35.90074
35.59905
35.35192
35.1507
34.9895
34.86494
34.77588
34.72321
34.70967
34.73987
34.82027
34.95866
35.16149
35.43123
35.77155
36.18539
36.67407
37.23533
37.85898
38.51817
39.17738
39.86235
40.59059
41.30808
41.96393
42.52324
42.96416
43.27405
43.44863
43.49295
43.42194
43.25817
43.02632
42.74669
42.4333
42.09712
41.71041
41.23341
40.65504
39.96982
39.18008
38.29534
37.33617
36.3705
35.43496
34.32098
33.21474
32.15664
31.16964
30.27925
29.50634
28.86774
28.3734
28.02236
27.79783
27.65769
27.55306
27.44137
27.29441
27.10031
26.85641
26.56495
26.23223
25.86853
25.48721
25.10252
24.7278
24.37498
24.05457
23.77724
23.53144
23.28684
23.06389
22.8775
22.74301
22.674
22.65138
22.62254
22.58826
22.54952
22.49193
22.41715
22.3315
22.24274
22.1575
22.07673
21.99773
21.91908
21.84281
21.77444
21.72241
21.69753
21.71226
21.77945
21.91004
22.10954
22.37688
22.70926
23.10217
23.5529
24.06845
24.66813
25.33511
26.03085
26.73695
27.4427
28.12896
28.76348
29.30898
29.73301
30.01313
30.13934
30.11437
29.9519
29.67327
29.30389
28.86908
28.39068
27.89259
27.39834
26.91113
26.42956
25.94354
25.45012
24.94568
24.41281
23.80949
23.09225
22.76819
776.0972
636.9449
563.3734
513.3658
473.0614
438.3469
407.8081
380.7834
355.7186
298.0733
237.8676
201.5051
178.1751
162.16
150.4537
141.3927
134.0325
127.802
100.9229
96.47933
92.193
88.1526
84.43716
81.07966
78.06647
75.36785
72.94631
70.74939
68.82131
67.03427
65.28246
63.57092
61.90994
60.30973
58.78088
57.32921
55.95396
54.95222
54.24929
53.43808
52.55416
51.63146
50.68867
49.7408
48.80195
47.88335
46.99787
46.15034
45.33375
44.5489
43.7892
43.04641
42.31717
41.60223
40.90646
40.24734
36.00079
35.50513
35.03794
34.59343
34.16544
33.74927
33.34315
32.9473
32.56324
32.19116
31.83215
31.48806
31.15342
30.82359
30.49574
30.16872
29.84507
29.53411
29.25315
28.99891
28.73904
28.48444
28.25083
28.03168
27.8146
27.60084
27.39664
27.20445
27.02682
26.86621
26.72516
26.60657
26.51276
26.44508
26.4038
26.38842
26.39757
26.4271
26.46021
26.49118
26.51567
26.52488
26.54325
26.60941
26.70784
26.83559
27.00631
27.20562
27.35545
27.42351
27.48533
27.52447
27.5415
27.54621
27.54397
27.54087
27.54167
27.54868
27.56276
27.58468
27.61592
27.65872
27.71548
27.78823
27.87802
27.98488
28.10833
28.24843
28.40631
28.58411
28.78426
29.00836
29.25631
29.52593
29.81307
30.11162
30.41346
30.70815
30.98296
31.22327
31.41341
31.53745
31.58032
31.52913
31.37454
31.11214
30.74416
30.27879
29.73098
29.13004
28.50569
27.86435
27.22638
26.61213
26.04019
25.52709
25.08605
24.72741
24.45775
24.27825
24.18964
24.20145
24.34538
24.68842
25.25851
26.11009
27.3047
28.89607
30.90399
33.2857
35.9206
38.63228
41.23904
43.58867
45.56372
47.08479
48.10328
48.60334
48.59934
48.13516
47.27541
46.09986
44.69517
43.14744
41.53645
39.9329
38.39278
36.91211
35.47551
34.10324
32.80676
31.59148
30.45862
29.40723
28.43476
27.53838
26.71474
25.96087
25.27341
24.6496
24.08625
23.58088
23.13022
22.7321
22.38328
22.08218
21.82635
21.59992
21.91648
22.28251
22.56379
22.81545
23.08528
23.43686
23.87901
24.41045
25.03263
25.74295
26.53726
27.41149
28.36623
29.41035
30.56448
31.87309
33.42422
35.36637
37.99075
41.68697
47.02097
52.49659
57.14241
61.56201
65.91617
69.79248
72.55229
73.42121
71.60114
66.77637
59.92789
52.97757
47.15912
42.711
39.37049
36.79614
34.73457
33.01027
31.51177
30.19064
29.03329
28.03593
27.19316
26.49324
25.92132
25.46312
25.09481
24.77812
24.49824
24.24509
24.01066
23.78872
23.57446
23.36404
23.15415
22.94204
22.72571
22.50385
22.27546
22.03987
21.79687
21.54683
21.29046
21.02868
20.76242
20.49288
20.22158
19.95067
19.68259
19.42151
18.00344
17.71851
17.45461
17.20521
16.96616
16.73592
16.51408
16.30053
16.0954
15.89886
15.71117
15.5326
15.36349
15.20423
15.0553
14.91726
14.79078
14.67667
14.57582
14.48924
14.41801
14.36317
14.32576
14.30703
14.30848
14.33177
14.37894
14.45273
14.5573
14.69949
14.88062
15.09624
15.343
15.61716
15.91509
16.23301
16.56629
16.90894
17.25405
17.59508
17.92735
18.24914
18.56161
18.86777
19.17043
19.4702
19.76224
20.03899
20.29208
20.51138
20.68543
20.80286
20.8527
20.83346
20.73817
20.55084
20.27977
19.94227
19.55977
19.1578
18.76276
18.39787
18.07985
17.81662
17.60686
17.44077
17.30214
17.17127
17.02776
16.85319
16.63382
16.36285
16.0417
15.67959
15.29115
14.89301
14.50102
14.12884
13.78752
13.48554
13.22921
13.01821
12.84559
12.71227
12.61699
12.55424
12.51347
12.48448
12.46086
12.43568
12.4045
12.36739
12.32601
12.28099
12.23116
12.17493
12.11226
12.04502
11.97597
11.90783
11.8429
11.7831
11.7301
11.68531
11.64984
11.62474
11.61122
11.61058
11.62413
11.6537
11.70222
11.77387
11.87372
12.00729
12.17994
12.38758
12.61842
12.86324
13.11387
13.3604
13.59229
13.7995
13.97353
14.10813
14.19973
14.24735
14.2523
14.21766
14.1475
14.04652
13.91893
13.76923
13.60139
13.42417
13.23806
13.04012
12.83388
12.6397
12.45627
632.6077
559.5274
499.8088
455.8277
422.3829
396.5945
376.6076
361.7283
351.7306
338.2444
187.9892
175.4651
164.4058
154.8887
147.2447
143.2668
140.3477
137.7022
131.1201
86.44912
84.55806
83.86671
83.13202
82.38925
81.61195
80.79007
79.91457
78.95091
77.63829
75.07693
72.59626
70.69468
69.23705
68.03112
66.95638
65.94988
64.98049
64.02836
64.01687
63.28162
62.22781
61.05378
59.86753
58.71831
57.62459
56.58894
55.60936
54.68856
53.80345
52.93451
52.0762
51.22412
50.38151
49.55435
48.74796
47.97436
44.12241
43.47136
42.84927
42.24913
41.66588
41.09625
40.5391
39.99469
39.46427
38.94746
38.44141
37.94631
37.46182
36.98492
36.51387
36.04915
35.5924
35.14595
34.7118
34.28973
33.87941
33.48084
33.09118
32.70703
32.32697
31.95191
31.58441
31.22704
30.88084
30.54656
30.22276
29.90494
29.58927
29.27408
28.95963
28.64846
28.34342
28.03989
27.79637
27.55883
27.3267
27.09674
26.86594
26.63325
26.39988
26.16861
25.94259
25.72425
25.51547
25.31502
25.12009
24.92729
24.73371
24.53881
24.34502
24.15685
23.97959
23.81565
23.65911
23.50533
23.35597
23.20865
23.06178
22.91816
22.78286
22.65972
22.55079
22.45794
22.38286
22.32648
22.28788
22.264
22.25039
22.24229
22.23649
22.23247
22.23347
22.23719
22.24264
22.24522
22.24596
22.24913
22.26079
22.27457
22.29468
22.31543
22.32287
22.30806
22.27882
22.24193
22.19718
22.14676
22.09466
22.0447
21.99987
21.96156
21.92985
21.90472
21.88698
21.8782
21.88022
21.89459
21.92202
21.96204
22.01358
22.07588
22.14928
22.23523
22.33558
22.4516
22.58332
22.72933
22.88721
23.05372
23.22469
23.39445
23.55559
23.69917
23.81522
23.89323
23.92273
23.89412
23.79948
23.6338
23.39615
23.09009
22.724
22.31425
21.89258
21.47269
21.06908
20.69728
20.37192
20.10544
19.90614
19.77608
19.71005
19.69557
19.7178
19.76746
19.84872
19.99045
20.2434
20.6331
21.18893
21.93699
22.89266
24.05168
25.38355
26.83284
28.32791
29.79163
31.15004
32.33772
33.30067
34.00016
34.41778
34.55124
34.41146
34.02156
33.41491
32.63233
31.71834
30.71766
29.67516
28.64136
27.65101
26.68451
25.75263
24.86541
24.02881
23.24572
22.5172
21.84282
21.22179
20.65248
20.13341
19.66228
19.23748
18.8562
18.51669
18.21518
17.95009
17.71662
17.51402
17.33608
17.21563
17.10268
17.00434
16.92393
16.86457
16.83187
16.83251
16.86398
16.92816
17.02709
17.16284
17.33811
17.55709
17.82558
18.15386
18.5603
19.06957
19.71981
20.57041
21.66618
22.99957
24.5192
26.23305
28.19255
30.46234
33.08596
36.02223
39.17663
42.38411
45.28537
47.43073
48.45064
48.111
46.39962
43.65523
40.43997
37.26124
34.40485
31.9593
29.91401
28.22247
26.83104
25.68991
24.75734
23.99732
23.37867
22.87519
22.4567
22.09578
21.77516
21.48339
21.21273
20.95765
20.71378
20.47728
20.24461
20.01236
19.77726
19.53608
19.28591
19.02453
18.75055
18.46346
18.16347
17.8516
17.52964
17.20055
16.86755
16.53489
16.20204
15.8956
15.59281
15.29707
15.00915
14.73004
14.46077
14.20192
13.95361
13.71571
13.48802
13.27035
13.06259
12.86469
12.67668
12.49867
12.33087
12.1735
12.02684
11.89122
11.767
11.65451
11.55411
11.46619
11.39125
11.32994
11.28302
11.25151
11.23683
11.24109
11.26745
11.31958
11.39581
11.49472
11.61483
11.75449
11.91182
12.08438
12.26921
12.46298
12.66261
12.86587
13.07196
13.28154
13.49658
13.71962
13.95304
14.19825
14.45498
14.72219
14.99765
15.27788
15.5573
15.82918
16.08265
16.30691
16.49075
16.62521
16.70514
16.72779
16.69412
16.61
16.48557
16.33349
16.16669
15.9955
15.82527
15.65553
15.48061
15.2911
15.07609
14.82571
14.53363
14.19922
13.8287
13.43418
13.03074
12.63342
12.25565
11.90848
11.60044
11.33774
11.12481
10.95726
10.82998
10.73828
10.67572
10.63437
10.60677
10.58639
10.5661
10.54008
10.50652
10.46606
10.41963
10.36657
10.3051
10.23496
10.15893
10.08117
10.00502
9.931739
9.861514
9.794197
9.729248
9.665866
9.603633
9.543424
9.487712
9.439793
9.402717
9.378883
9.370304
9.378949
9.406868
9.456073
9.528488
9.626264
9.744517
9.875085
10.01305
10.15286
10.28865
10.41483
10.52646
10.61968
10.69186
10.74157
10.76862
10.77348
10.75752
10.722
10.6689
10.59924
10.51543
10.41886
10.31894
10.21278
10.10592
9.998544
365.7952
266.1229
379.2434
171.9777
134.9361
99.28661
86.05656
74.91143
65.71187
61.29168
59.48139
58.51229
57.64283
56.91466
56.20842
55.58621
55.03215
54.60518
54.32739
54.09402
53.9034
53.8252
54.02186
54.39917
54.81891
55.27665
55.77501
56.31798
56.90187
57.47314
57.86654
56.7121
57.19916
57.5943
57.8697
58.01997
58.04267
57.9372
57.70527
57.35831
56.91621
56.37533
55.74978
55.06171
54.3302
53.56818
52.78434
51.98512
51.17614
50.36147
49.54874
48.74465
47.9463
47.15431
46.37242
45.60354
44.85098
44.1148
43.39443
42.68923
41.9991
41.32555
40.67037
40.03532
39.42246
38.83182
38.26388
37.7067
37.20682
36.71371
36.22895
35.75125
35.28011
34.81696
34.36435
33.92499
33.50037
33.09021
32.69263
32.3051
31.92432
31.54729
31.17272
30.80171
30.43718
30.08241
29.73994
29.41092
29.09411
28.78579
28.48128
28.17709
27.87213
27.56812
27.26916
26.98014
26.70455
26.44268
26.19142
25.94521
25.69899
25.44958
25.19729
24.94499
24.69851
24.46226
24.24158
24.03592
23.84126
23.65188
23.46315
23.27316
23.08316
22.89674
22.71829
22.55146
22.39769
22.25585
22.12268
21.99331
21.86345
21.73207
21.60124
21.47561
21.36086
21.26081
21.17312
21.0923
21.01471
20.93896
20.8676
20.80744
20.76531
20.74641
20.75282
20.78581
20.84552
20.92832
21.02488
21.12155
21.203
21.25592
21.27415
21.26206
21.23832
21.2109
21.17926
21.14162
21.0976
21.04785
20.99472
20.93968
20.88489
20.82931
20.7698
20.70314
20.63001
20.55182
20.46928
20.38418
20.29963
20.2188
20.14371
20.07472
20.01095
19.9517
19.89722
19.84864
19.80761
19.77562
19.75318
19.73941
19.73284
19.73255
19.73893
19.75365
19.7788
19.81572
19.86433
19.92328
19.99063
20.06443
20.14269
20.2226
20.29998
20.36934
20.42419
20.45745
20.46176
20.43
20.35599
20.23546
20.06696
19.85251
19.59823
19.31575
19.0282
18.75664
18.51751
18.32849
18.20672
18.16598
18.21252
18.33926
18.52285
18.72731
18.91503
19.05994
19.15473
19.21429
19.28522
19.40666
19.59848
19.87873
20.26106
20.75262
21.35189
22.04631
22.81101
23.61062
24.40358
25.14703
25.80128
26.33332
26.71844
26.94033
26.99098
26.87085
26.58858
26.16041
25.60904
24.96174
24.24837
23.49974
22.7486
22.02576
21.32373
20.65181
20.01733
19.42483
18.87681
18.37418
17.91696
17.50429
17.13488
16.80692
16.51847
16.26697
16.04966
15.86294
15.70338
15.56678
15.44987
15.34883
15.26293
15.18861
15.12282
15.06325
15.00878
14.96055
14.9242
14.90298
14.89746
14.90883
14.93873
14.98932
15.06355
15.16524
15.30009
15.47729
15.70923
16.01223
16.40907
16.92236
17.55813
18.31615
19.22149
20.31731
21.65637
23.28864
25.23336
27.47669
29.9726
32.60906
35.20096
37.55619
39.48904
40.7982
41.27253
40.79191
39.44115
37.48803
35.25927
33.03168
30.98169
29.18538
27.65687
26.37119
25.29022
24.37843
23.60527
22.94769
22.37775
21.87435
21.42367
21.01647
20.64632
20.30832
19.99781
19.70948
19.43813
19.17872
18.9261
18.67513
18.421
18.15954
17.88734
17.60205
17.30258
16.98915
16.66372
16.32941
15.99027
15.64859
15.30782
14.97105
14.64078
14.31854
14.00564
13.70313
13.41169
13.13155
12.86268
12.60493
12.35811
12.12206
11.89671
11.68202
11.47803
11.2848
11.10243
10.931
10.77061
10.6213
10.4831
10.35602
10.2401
10.13541
10.04209
9.960361
9.89059
9.833337
9.789452
9.760223
9.747574
9.751732
9.772143
9.808106
9.85873
9.922855
9.999015
10.08547
10.18038
10.28206
10.3893
10.5016
10.61934
10.74374
10.87673
11.02064
11.17796
11.35103
11.54208
11.75298
11.985
12.23818
12.51123
12.80064
13.10197
13.409
13.71356
14.00696
14.2801
14.52352
14.7279
14.88506
14.98924
15.03815
15.03271
14.97704
14.87645
14.73514
14.55493
14.33535
14.07503
13.77342
13.43249
13.05869
12.66336
12.26062
11.86459
11.48787
11.14093
10.83179
10.56596
10.34665
10.17348
10.04055
9.942061
9.871302
9.821054
9.784528
9.755503
9.727428
9.694055
9.651752
9.599608
9.539185
9.472007
9.397468
9.31566
9.229815
9.144176
9.061155
8.981594
8.905532
8.832506
8.761248
8.689563
8.615069
8.537114
8.458446
8.384034
8.318524
8.264587
8.223243
8.19482
8.179592
8.178034
8.190827
8.218762
8.262703
8.320918
8.388007
8.461017
8.536687
8.611649
8.682673
8.746932
8.802149
8.84672
8.879696
8.900693
8.909756
8.907238
8.893679
8.869732
8.836187
8.793843
8.743841
8.689175
8.632511
8.575398
326.5996
219.9907
166.2748
148.2143
120.6751
101.1849
87.10051
81.60447
75.46239
71.88251
68.79269
64.63766
60.50841
56.60712
53.05546
49.17339
43.17805
41.80316
40.80999
40.28575
40.18268
40.35956
40.66073
41.02924
41.45805
41.95763
42.55009
43.19727
43.88313
44.60356
45.35457
46.13197
46.93436
47.76394
48.61795
49.48756
50.3878
51.33692
52.2876
53.26824
54.41604
55.32599
55.79603
56.15276
56.38517
56.45929
56.36964
56.12131
55.72473
55.19468
54.5495
53.81264
53.00307
52.13739
51.23232
50.30373
49.36419
48.42217
47.48317
46.54947
45.6227
44.70369
43.79683
42.90926
42.04786
41.22317
40.4374
39.68981
38.9766
38.29203
37.63061
36.98881
36.36588
35.76352
35.1847
34.63274
34.10907
33.61348
33.14106
32.68745
32.24838
31.82017
31.39887
30.98289
30.57388
30.17576
29.79312
29.42903
29.08364
28.75432
28.43625
28.12366
27.81171
27.49789
27.18296
26.87099
26.5679
26.27926
26.00836
25.7534
25.50825
25.26531
25.01844
24.76505
24.50733
24.25152
24.00559
23.77633
23.56535
23.36804
23.17648
22.98268
22.78122
22.57142
22.3577
22.14844
21.95252
21.77564
21.61774
21.47357
21.33578
21.19818
21.05827
20.91801
20.78281
20.65932
20.55291
20.46582
20.39624
20.33875
20.28623
20.23375
20.18167
20.13464
20.10017
20.08594
20.09473
20.12191
20.15934
20.20206
20.25223
20.32163
20.4305
20.59933
20.83667
21.1417
21.51259
21.94307
22.41224
22.87913
23.2971
23.61975
23.81256
23.86775
23.80894
23.69444
23.55118
23.38681
23.20776
23.02108
22.83386
22.65196
22.4767
22.30884
22.13877
21.96769
21.79609
21.62457
21.45451
21.28782
21.12727
20.97583
20.83533
20.70572
20.58507
20.47061
20.36052
20.25427
20.15211
20.05494
19.96383
19.87885
19.79833
19.72008
19.64334
19.56924
19.50039
19.43964
19.38871
19.34742
19.31423
19.2874
19.266
19.24979
19.23811
19.22911
19.21966
19.20571
19.18263
19.14548
19.08927
19.00961
18.90348
18.77
18.61123
18.43292
18.24572
18.06983
17.9364
17.86927
17.89537
18.03987
18.3199
18.73852
19.26832
19.84306
20.38094
20.81246
21.10032
21.24025
21.2506
21.17223
21.06005
20.93567
20.82189
20.73961
20.70772
20.74192
20.85136
21.03543
21.28277
21.57299
21.88047
22.17807
22.43995
22.64319
22.76873
22.802
22.73351
22.55947
22.2823
21.91053
21.458
20.94249
20.38418
19.80481
19.22888
18.67598
18.14721
17.65017
17.19009
16.77022
16.39227
16.05681
15.76347
15.51111
15.29795
15.12162
14.97905
14.8664
14.77913
14.71245
14.66135
14.62122
14.5879
14.558
14.52798
14.49414
14.45319
14.40307
14.344
14.2803
14.2182
14.15972
14.10721
14.06305
14.02963
14.00929
14.00444
14.01846
14.05627
14.12417
14.23089
14.38834
14.60742
14.89524
15.26307
15.73187
16.32958
17.0927
18.06319
19.2785
20.7665
22.53341
24.53284
26.65801
28.80619
30.89458
32.84032
34.52768
35.79423
36.47773
36.47112
35.79352
34.59318
33.08113
31.4518
29.84731
28.34792
26.99142
25.7826
24.70837
23.75468
22.9112
22.16091
21.49028
20.88906
20.34961
19.86575
19.43128
19.04018
18.68727
18.36715
18.07361
17.80007
17.53998
17.28705
17.03546
16.78033
16.51804
16.24629
15.96396
15.67131
15.36981
15.06115
14.74734
14.43112
14.11537
13.80263
13.49503
13.1943
12.90175
12.61822
12.34418
12.07987
11.82539
11.58084
11.34629
11.1219
10.90781
10.70419
10.51118
10.32888
10.15734
9.996537
9.846386
9.70675
9.577466
9.458378
9.349353
9.250307
9.161233
9.08223
9.013552
8.955663
8.909371
8.875221
8.852965
8.842205
8.842383
8.852745
8.872348
8.900093
8.934834
8.975514
9.021327
9.071868
9.127248
9.188148
9.255817
9.332007
9.418913
9.519068
9.63529
9.770538
9.927731
10.10946
10.31778
10.5539
10.81804
11.10921
11.42502
11.762
12.11537
12.47827
12.84122
13.19187
13.51509
13.79384
14.01145
14.15461
14.21685
14.19899
14.10573
13.94343
13.71916
13.44035
13.11524
12.75392
12.36919
11.97536
11.58628
11.21412
10.86892
10.55835
10.28752
10.05913
9.873508
9.726609
9.612416
9.524371
9.455738
9.400098
9.351399
9.303635
9.251195
9.190061
9.119397
9.041529
8.958826
8.871581
8.779682
8.684593
8.589105
8.496049
8.407373
8.324101
8.246446
8.173401
8.10223
8.028697
7.949075
7.863928
7.779094
7.701059
7.633503
7.577405
7.532158
7.496876
7.471068
7.454706
7.448057
7.451532
7.465576
7.488713
7.517889
7.551315
7.587023
7.623006
7.657385
7.688533
7.715197
7.736511
7.75198
7.761361
7.764691
7.762121
7.753943
7.740423
7.721925
7.698771
7.671577
7.640854
7.611243
167.5588
123.5398
189.5161
93.0862
79.79919
68.38224
65.04007
62.69624
60.11363
59.12663
57.80457
55.87503
54.07211
52.13344
49.82625
45.17056
44.12263
43.13929
42.18671
41.26946
40.3423
39.45464
38.66786
38.01598
37.52358
37.19122
36.94038
36.69867
36.65
36.82133
37.19652
37.71581
38.31062
38.95159
39.64693
40.39232
41.17073
41.97417
42.80088
43.64863
44.51343
45.38827
46.27432
47.18379
48.13434
49.09291
50.0651
51.12876
52.09224
52.92345
53.62274
54.12227
54.36518
54.40991
54.23534
53.85009
53.27956
52.55109
51.69074
50.72397
49.67531
48.56823
47.42602
46.26995
45.11949
43.99189
42.89995
41.84974
40.84171
39.87081
38.93092
38.01912
37.1485
36.32374
35.55
34.83288
34.17379
33.56641
33.00256
32.47133
31.96178
31.46612
30.98117
30.5085
30.05304
29.62072
29.21607
28.84043
28.49088
28.16065
27.84184
27.52737
27.21188
26.89319
26.57332
26.25812
25.95499
25.67041
25.40692
25.16191
24.9292
24.70054
24.46806
24.22686
23.97704
23.72407
23.47673
23.24401
23.03254
22.84199
22.66428
22.48838
22.3047
22.10817
21.90005
21.68833
21.4853
21.30193
21.1418
20.9998
20.86581
20.72893
20.58102
20.41987
20.25105
20.08699
19.94165
19.82354
19.73275
19.66274
19.60455
19.55139
19.50179
19.46029
19.43539
19.43559
19.46534
19.52231
19.59792
19.6817
19.764
19.84508
19.93875
20.06393
20.23703
20.46525
20.73531
21.02486
21.31605
21.60499
21.9154
22.29803
22.80862
23.48852
24.33703
25.33095
26.46285
27.71579
29.02541
30.28885
31.38848
32.19741
32.63128
32.69203
32.45459
32.04609
31.52945
30.94817
30.34151
29.74548
29.18861
28.68465
28.22651
27.80409
27.38323
26.96798
26.56098
26.16443
25.78418
25.4271
25.09852
24.80019
24.5295
24.28047
24.0458
23.81979
23.5994
23.38323
23.17078
22.96126
22.75284
22.5423
22.32609
22.10218
21.87168
21.6383
21.40681
21.18157
20.96538
20.75956
20.56442
20.38035
20.20791
20.0475
19.89959
19.76349
19.63748
19.51936
19.40653
19.29611
19.18513
19.0711
18.9526
18.8302
18.70738
18.59149
18.49558
18.44357
18.48304
18.65916
19.02396
19.61203
20.42041
21.41768
22.51735
23.58074
24.47996
25.13574
25.53245
25.69983
25.67433
25.4776
25.14755
24.70203
24.17156
23.59616
23.02011
22.4855
22.02062
21.64253
21.35611
21.155
21.0246
20.94534
20.89566
20.85399
20.80028
20.71681
20.58899
20.40616
20.16239
19.85701
19.49453
19.08406
18.63812
18.17149
17.70056
17.24455
16.81399
16.41479
16.05212
15.72948
15.44894
15.21127
15.01618
14.86236
14.74754
14.66838
14.62045
14.59837
14.59621
14.60799
14.62791
14.65076
14.67187
14.68717
14.69204
14.68129
14.65019
14.59599
14.51936
14.42597
14.32384
14.21658
14.10775
14.00074
13.8986
13.80372
13.71802
13.64372
13.58356
13.54138
13.52267
13.53381
13.58108
13.67145
13.81448
14.02344
14.31637
14.71772
15.25775
15.96931
16.88481
18.02726
19.39466
20.956
22.66332
24.45611
26.25953
27.994
29.58041
30.93198
31.94637
32.5209
32.60437
32.21399
31.43545
30.38877
29.19226
27.94316
26.70584
25.51744
24.39558
23.35174
22.39343
21.52094
20.73115
20.01939
19.3804
18.80886
18.29988
17.84863
17.44944
17.09526
16.77838
16.49121
16.22633
15.97654
15.73542
15.49777
15.25936
15.01678
14.76784
14.51149
14.24774
13.97766
13.70291
13.42558
13.14787
12.87185
12.59934
12.33181
12.07036
11.8157
11.56829
11.32844
11.09642
10.87252
10.65708
10.45043
10.25289
10.06474
9.886186
9.717331
9.55819
9.408673
9.268607
9.137761
9.015877
8.902699
8.797997
8.701591
8.613368
8.533314
8.461544
8.398361
8.344253
8.299044
8.26245
8.234076
8.213411
8.199828
8.192613
8.191018
8.194338
8.202
8.213658
8.229279
8.249206
8.274205
8.305476
8.344659
8.39381
8.455367
8.532088
8.626966
8.743102
8.883591
9.051347
9.24896
9.4786
9.741934
10.04003
10.37299
10.73926
11.13468
11.55165
11.97809
12.39701
12.78763
13.12594
13.38861
13.55719
13.62286
13.58687
13.45761
13.24782
12.97263
12.64849
12.2921
11.9196
11.54573
11.1832
10.84235
10.53104
10.25449
10.01533
9.813849
9.647696
9.511638
9.399714
9.305783
9.223914
9.148537
9.07447
8.99728
8.914208
8.825447
8.733042
8.638531
8.541953
8.441837
8.337009
8.229265
8.122678
8.020959
7.926648
7.84115
7.764348
7.694023
7.625451
7.552193
7.47064
7.385017
7.30315
7.23017
7.16751
7.114241
7.068773
7.030111
6.998053
6.972631
6.953991
6.94237
6.937993
6.939195
6.94456
6.952937
6.96308
6.973763
6.983874
6.992512
6.999038
7.003088
7.004417
7.002984
6.998881
6.992267
6.983295
6.972142
6.958922
6.943769
6.926613
6.909026
69.0824
51.2647
49.29766
46.80645
45.75172
44.47684
43.46187
42.61192
41.89936
40.78265
38.04138
37.91151
37.80135
37.70341
37.58461
37.43269
37.28554
37.1731
37.1063
37.07138
36.92046
36.5288
36.14122
35.76458
35.4065
35.07423
34.7924
34.57845
34.44323
34.3893
34.40679
34.48844
34.65473
34.93402
35.34163
35.86587
36.47188
37.12215
37.81818
38.56057
39.33747
40.14619
40.98142
41.84277
42.73156
43.6496
44.5727
45.50495
46.47389
47.53487
48.54715
49.501
50.33971
51.00653
51.45949
51.67225
51.63217
51.34355
50.81794
50.07678
49.14929
48.072
46.88364
45.61971
44.31038
42.97996
41.64827
40.33361
39.05358
37.82706
36.67094
35.59924
34.61664
33.71818
32.89273
32.12513
31.4035
30.72369
30.08716
29.4988
28.96016
28.47554
28.04417
27.65687
27.29896
26.95567
26.61622
26.27571
25.93562
25.60276
25.28618
24.99356
24.72882
24.49033
24.2709
24.06087
23.85121
23.63496
23.40845
23.17272
22.93425
22.70348
22.49002
22.29895
22.12933
21.97384
21.82229
21.66456
21.49371
21.30845
21.11381
20.92049
20.74176
20.58678
20.45573
20.33975
20.22614
20.10349
19.96483
19.81003
19.64749
19.49263
19.35973
19.25311
19.16669
19.08963
19.01146
18.92556
18.83237
18.7416
18.67156
18.64089
18.65736
18.71871
18.81412
18.92918
19.0606
19.21866
19.42114
19.68394
20.01269
20.39697
20.80879
21.21089
21.57412
21.887
22.17648
22.5033
22.92825
23.48767
24.18332
24.95608
25.72959
26.46232
27.16985
27.96039
28.95774
30.23616
31.73976
33.40815
35.27323
37.4149
39.8297
42.34671
44.74307
46.78494
48.20521
48.84245
48.74588
48.09894
47.14892
45.98181
44.68538
43.3531
42.07008
40.89541
39.85263
38.93395
38.10573
37.33705
36.59089
35.85327
35.13042
34.4385
33.79542
33.21256
32.68923
32.21288
31.76516
31.32986
30.89986
30.47554
30.05667
29.64192
29.2271
28.80366
28.35999
27.8926
27.40364
26.90206
26.39734
25.89671
25.4041
24.92104
24.44863
23.9886
23.54357
23.11599
22.70752
22.32055
21.95696
21.6188
21.31076
21.03337
20.78464
20.56303
20.36778
20.19956
20.06144
19.96015
19.90783
19.92629
20.05726
20.37131
20.93614
21.81384
23.01653
24.47385
26.05686
27.59947
28.94439
29.97272
30.63966
30.98287
31.08132
30.99407
30.72553
30.26537
29.60638
28.76282
27.78236
26.73476
25.69378
24.70818
23.81112
23.02334
22.35168
21.79176
21.3311
20.952
20.63421
20.35714
20.10121
19.84888
19.58549
19.3001
18.98621
18.64211
18.27063
17.87848
17.47521
17.07222
16.68249
16.32054
15.994
15.70745
15.46413
15.26587
15.11321
15.00539
14.94019
14.91381
14.92119
14.95614
15.01161
15.08027
15.15569
15.232
15.30432
15.36827
15.41901
15.44991
15.45302
15.42144
15.35217
15.24806
15.11861
14.97323
14.81705
14.65459
14.48998
14.32701
14.16873
14.01705
13.87331
13.73884
13.61591
13.50807
13.4194
13.35416
13.31739
13.31531
13.35609
13.45126
13.61669
13.87289
14.24429
14.75773
15.43862
16.30418
17.35614
18.5774
19.9355
21.3884
22.88475
24.36141
25.7435
26.95973
27.93891
28.62208
28.96847
28.96581
28.63747
28.03721
27.23299
26.29505
25.286
24.25461
23.23347
22.24159
21.30068
20.42323
19.61566
18.88032
18.21711
17.62452
17.09978
16.6382
16.23298
15.87586
15.55835
15.27234
15.00976
14.76309
14.52621
14.29435
14.06405
13.8331
13.60019
13.36479
13.1269
12.88704
12.64617
12.40555
12.16645
11.93011
11.69752
11.46944
11.24634
11.02852
10.81618
10.60956
10.409
10.21488
10.02765
9.847707
9.675432
9.511104
9.354899
9.206874
9.066967
8.935009
8.810751
8.693903
8.584167
8.481268
8.384975
8.295118
8.211606
8.134445
8.063813
8.000088
7.943096
7.892601
7.84831
7.809869
7.776868
7.748855
7.725354
7.705906
7.690117
7.677719
7.668631
7.663019
7.66135
7.664423
7.673397
7.689791
7.715479
7.752668
7.803859
7.871807
7.959467
8.069937
8.206414
8.372174
8.570552
8.804882
9.078242
9.392902
9.749532
10.14622
10.57719
11.03144
11.4919
11.93682
12.34115
12.67769
12.92221
13.05829
13.08057
12.99512
12.81692
12.56653
12.26599
11.93528
11.59142
11.24893
10.91955
10.61217
10.33269
10.08415
9.86709
9.680032
9.519343
9.38021
9.257528
9.146306
9.041946
8.940471
8.838904
8.735822
8.63155
8.527032
8.422835
8.318199
8.210776
8.098202
7.980944
7.862616
7.748061
7.641483
7.545687
7.461629
7.388178
7.321824
7.256071
7.183301
7.102298
7.020452
6.94493
6.878554
6.820845
6.769881
6.724303
6.683582
6.647577
6.616348
6.590125
6.569056
6.552902
6.540384
6.530791
6.523328
6.517168
6.511527
6.505756
6.499403
6.492205
6.484015
6.474835
6.464767
6.453953
6.44255
6.430691
6.418455
6.405873
6.392776
6.380116
93.75707
39.58962
33.00162
31.64032
30.93905
30.63182
30.63693
30.81776
31.12862
31.5309
31.86513
32.00884
32.15417
32.28587
32.40649
32.50914
32.60216
32.68701
32.75132
32.77346
32.72929
32.63607
32.54676
32.46966
32.41263
32.38107
32.38749
32.43632
32.52789
32.66233
32.84043
33.06472
33.34527
33.68833
34.10401
34.58809
35.12607
35.73659
36.42539
37.17765
37.99082
38.86349
39.76532
40.69561
41.65686
42.68474
43.696
44.70102
45.7195
46.71325
47.59622
48.30942
48.79623
49.02257
48.97032
48.63845
48.04465
47.21713
46.16125
44.92367
43.55297
42.0987
40.60894
39.12548
37.67914
36.28811
34.96098
33.70317
32.52149
31.42819
30.44464
29.5807
28.83346
28.18639
27.61701
27.10108
26.61697
26.14687
25.69221
25.26353
24.87425
24.53542
24.24886
24.00379
23.78118
23.56241
23.33514
23.09488
22.84455
22.59291
22.35176
22.13155
21.93859
21.77246
21.6257
21.48657
21.34491