/*--------------------------------*- C++ -*----------------------------------*\
| =========                 |                                                 |
| \\      /  F ield         | foam-extend: Open Source CFD                    |
|  \\    /   O peration     | Version:     3.1                                |
|   \\  /    A nd           | Web:         http://www.extend-project.de       |
|    \\/     M anipulation  |                                                 |
\*---------------------------------------------------------------------------*/
FoamFile
{
    version     2.0;
    format      ascii;
    class       volScalarField;
    location    "15.5";
    object      k;
}
// * * * * * * * * * * * * * * * * * * * * * * * * * * * * * * * * * * * * * //

dimensions      [0 2 -2 0 0 0 0];

internalField   nonuniform List<scalar> 
119952
(
0.07849894
0.07438173
0.07318177
0.07141684
0.06954125
0.06794963
0.06731564
0.06718009
0.06732824
0.06764989
0.06808302
0.06858396
0.06911855
0.069657
0.0701707
0.07063439
0.07101906
0.07129483
0.07148189
0.0718384
0.07386289
0.07096649
0.06980871
0.07124053
0.06703239
0.06422211
0.06183003
0.05974329
0.05683162
0.024906
0.09863741
0.09547946
0.09301368
0.09165558
0.09124549
0.09153255
0.09223717
0.09315861
0.09415578
0.09519472
0.09103883
0.09153142
0.09430665
0.09797305
0.1017922
0.1053589
0.1085489
0.1113576
0.113758
0.1251742
0.1263886
0.1271628
0.1275153
0.1276602
0.1277972
0.1279787
0.1282468
0.1285885
0.1289006
0.1296531
0.1301346
0.1303971
0.1305541
0.1306369
0.1306504
0.130577
0.1303927
0.1302747
0.1325757
0.1322876
0.1312115
0.1309009
0.1306819
0.1301782
0.1292573
0.1281824
0.1271277
0.1261232
0.125177
0.1242966
0.1234837
0.1227347
0.1220419
0.1213939
0.1207726
0.1201406
0.1194454
0.1186516
0.1180087
0.1174519
0.1164972
0.1159253
0.1162817
0.1162327
0.1159242
0.1158207
0.1154582
0.1127729
0.1104082
0.1083149
0.1063861
0.1046578
0.1031158
0.1018294
0.1008922
0.1004756
0.1008174
0.1021263
0.1046085
0.1083781
0.1132969
0.1186441
0.1234503
0.1269085
0.1285147
0.1281559
0.1265087
0.1240758
0.1210642
0.1176138
0.1139567
0.1106856
0.1086432
0.1081302
0.1087796
0.1097125
0.1101227
0.1096535
0.1083343
0.1063506
0.1039747
0.1013706
0.09858865
0.09606392
0.09409173
0.09273074
0.09198762
0.09186297
0.09234802
0.09338395
0.09490505
0.09682858
0.09899512
0.101244
0.1034287
0.1054171
0.1071337
0.1086155
0.1097228
0.1103399
0.1104485
0.109938
0.108871
0.1074654
0.1057462
0.1037243
0.1014353
0.0989099
0.09618448
0.09332915
0.09054152
0.08805771
0.08585698
0.08575191
0.0893677
0.09468917
0.09900307
0.1008348
0.1000187
0.09730014
0.0936837
0.08996188
0.08643532
0.08324868
0.08043497
0.07790505
0.07557966
0.07340158
0.07135027
0.06945672
0.06775811
0.06624004
0.0648756
0.06365104
0.06254709
0.06153204
0.06056841
0.05964631
0.05877636
0.05795701
0.05716305
0.05639182
0.05564904
0.05494385
0.05427427
0.05364852
0.05309017
0.05246551
0.05107464
0.04954912
0.04820874
0.0469954
0.04600242
0.04524346
0.04461799
0.04396318
0.04319516
0.04238046
0.04163747
0.0410343
0.04056133
0.04015534
0.03974574
0.03927893
0.03871941
0.03804625
0.03726005
0.03639485
0.03550346
0.03463713
0.03383278
0.03311063
0.0324769
0.03192636
0.03144754
0.03102688
0.03065112
0.03030552
0.02997494
0.02964704
0.02931403
0.02897369
0.0286395
0.02865941
0.02871674
0.02873922
0.02871627
0.0286604
0.02856597
0.02842841
0.02823817
0.02798368
0.0276545
0.02724332
0.02674942
0.02618159
0.02555812
0.02490405
0.02425185
0.02363147
0.02307033
0.0225955
0.02222999
0.02199495
0.02190696
0.02197633
0.0222071
0.02260672
0.02318129
0.02392617
0.02481568
0.02582827
0.0269618
0.02824061
0.02964847
0.03116242
0.03276664
0.04042135
0.04254469
0.04492441
0.0475629
0.05047153
0.05352157
0.05658285
0.0595968
0.06257811
0.06547521
0.06823072
0.07083552
0.07327908
0.0755389
0.07758189
0.07936823
0.0808564
0.08200948
0.08280189
0.08322337
0.08327581
0.08297124
0.08233482
0.081398
0.08018943
0.07873341
0.07705124
0.0751653
0.07310563
0.07091098
0.06862774
0.06630966
0.06401086
0.0617764
0.05963846
0.05761711
0.05572263
0.05395758
0.0523191
0.05080079
0.04939397
0.04808848
0.04687339
0.04573782
0.04467345
0.04367134
0.04270122
0.04176771
0.0408722
0.04000956
0.03917957
0.03838206
0.03761651
0.0369109
0.03630148
0.03553974
0.03480296
0.03409309
0.03341094
0.03275945
0.03214057
0.03155576
0.03100582
0.03049111
0.03001256
0.02957067
0.02916307
0.02878679
0.02843937
0.02811809
0.02781998
0.02754214
0.02728188
0.0270369
0.02680539
0.02658611
0.02637848
0.02618265
0.02599959
0.02583104
0.02567951
0.02554774
0.02543839
0.02535268
0.02529093
0.02525368
0.02524147
0.02525495
0.02529432
0.02535898
0.02544725
0.02555632
0.02568222
0.02581981
0.02596252
0.02610209
0.0262281
0.0263281
0.0263884
0.02639563
0.02633841
0.02620878
0.02600463
0.02573439
0.02541463
0.02506638
0.0247125
0.02437442
0.02407309
0.02382858
0.02365721
0.02357047
0.02357104
0.02367018
0.0238899
0.02421898
0.02464631
0.02519003
0.02585821
0.02663851
0.02754084
0.02857032
0.02970236
0.03091302
0.03219084
0.03352743
0.0349075
0.03631321
0.03769072
0.0390094
0.04026792
0.04148018
0.04266036
0.0438161
0.04494606
0.04603534
0.04703572
0.04795043
0.04936624
0.09506848
0.09121481
0.09820662
0.1067331
0.1141162
0.1200486
0.1247912
0.128642
0.1319674
0.1353497
0.1457513
0.1572616
0.1676789
0.1764555
0.1835002
0.1890071
0.1932587
0.1965486
0.2224549
0.2224753
0.222299
0.2217075
0.2209598
0.2202178
0.2195537
0.2189714
0.2184436
0.2178196
0.217406
0.2167967
0.215779
0.2145571
0.2132597
0.2119601
0.2106902
0.20947
0.2082848
0.2073292
0.2064297
0.2052227
0.2038696
0.2024824
0.2010896
0.1997183
0.1983869
0.1971022
0.1958744
0.1947319
0.1935524
0.1923904
0.1912449
0.1900979
0.188958
0.1878377
0.1867486
0.1857165
0.1950221
0.1937869
0.1925774
0.1914271
0.1903245
0.1892625
0.1882374
0.1872407
0.1862733
0.1853092
0.1843525
0.183449
0.1825952
0.1817627
0.1809293
0.1800612
0.1791588
0.1782977
0.1776675
0.1770126
0.1759082
0.1747546
0.1737512
0.1726938
0.1714491
0.1700766
0.1686513
0.1672204
0.1658093
0.1644402
0.1631308
0.1618949
0.1607401
0.1596662
0.1586689
0.1577281
0.1568104
0.1558951
0.1549891
0.1541243
0.1532336
0.1523901
0.1518343
0.1512937
0.1504467
0.1492526
0.1477115
0.1455412
0.1429517
0.1406018
0.1384468
0.1363379
0.134267
0.1322965
0.1305618
0.1292989
0.1289146
0.1300694
0.1334509
0.1397267
0.1491498
0.1607714
0.172523
0.1825333
0.1890829
0.1916953
0.1910436
0.1885954
0.1848123
0.179858
0.1738006
0.1667795
0.1592825
0.1520293
0.1456391
0.1403935
0.136222
0.1328216
0.1298241
0.1269171
0.123909
0.1207463
0.1174943
0.1142982
0.1113355
0.1089629
0.1073987
0.1068082
0.1073392
0.1090848
0.1120666
0.116148
0.1209613
0.1262378
0.1317231
0.1371507
0.1422576
0.1468181
0.1506711
0.1536878
0.1557646
0.156726
0.1565962
0.1556196
0.1541505
0.1523605
0.150291
0.1479435
0.1452615
0.1421209
0.1383624
0.1337831
0.1283118
0.1224657
0.1172368
0.1133219
0.1108185
0.1095035
0.109074
0.1091724
0.109398
0.1095679
0.1095282
0.1091645
0.1084088
0.1072431
0.1056993
0.1038456
0.1017623
0.09951269
0.0971852
0.0948831
0.09268475
0.09065345
0.08882626
0.08719868
0.08575114
0.08446383
0.08331385
0.08227257
0.0813112
0.08040688
0.07952474
0.07866466
0.07781585
0.07697962
0.07612519
0.07531167
0.07397366
0.07205335
0.07040595
0.06894429
0.06761492
0.06640889
0.0653584
0.06450811
0.06388331
0.06347891
0.06327685
0.0632644
0.06343544
0.06377848
0.06426159
0.06482899
0.06540909
0.06592399
0.06629782
0.06647186
0.06641845
0.06614417
0.06568319
0.06508725
0.06441204
0.06370612
0.0630026
0.06231579
0.06165285
0.06101874
0.06041252
0.05982832
0.0592585
0.0586946
0.0581301
0.05758472
0.05711087
0.0566858
0.0562705
0.05585943
0.05545039
0.05503775
0.05461225
0.05415698
0.05364827
0.05306034
0.05236844
0.05155333
0.05060711
0.04953901
0.04837764
0.04717452
0.04598651
0.04487478
0.04390349
0.04313871
0.04264133
0.04246627
0.04266428
0.04326715
0.04426084
0.04566021
0.04746255
0.04964062
0.05214634
0.05491779
0.05788273
0.06096377
0.06408867
0.06722816
0.07703454
0.08006824
0.08298643
0.08577153
0.08844696
0.09104959
0.09361032
0.09615296
0.09869535
0.101285
0.1039009
0.1064947
0.109025
0.1114437
0.113693
0.1157065
0.117414
0.1187483
0.119658
0.1201189
0.120117
0.1196384
0.1187086
0.117365
0.1156424
0.113576
0.1111977
0.1085327
0.1056254
0.102532
0.09931404
0.09604099
0.09277849
0.08958059
0.08648782
0.08352804
0.08071815
0.07806613
0.07557335
0.07323627
0.07104778
0.06899805
0.06707576
0.0652683
0.06356241
0.0619433
0.06039565
0.05890965
0.0574784
0.05609561
0.05475605
0.05345671
0.05219693
0.05098922
0.0498162
0.04865485
0.04752095
0.04642575
0.04537296
0.04436402
0.04339989
0.04248117
0.04160903
0.04078314
0.04000208
0.03926503
0.03857027
0.03791573
0.03729909
0.03671781
0.03616923
0.03565061
0.03515909
0.034692
0.03424699
0.03382218
0.03341605
0.03302698
0.03265352
0.03229426
0.0319479
0.03161457
0.03129507
0.03099061
0.03070262
0.03043286
0.03018332
0.02995617
0.02975368
0.02957817
0.02943198
0.02931742
0.02923661
0.02919149
0.02918358
0.02921357
0.02928075
0.02938257
0.02951439
0.02966919
0.02983756
0.03000834
0.03017051
0.03031548
0.0304382
0.03053714
0.03061523
0.03068222
0.03075466
0.03084987
0.03097824
0.03114559
0.03137096
0.03168677
0.03210442
0.03261922
0.03324006
0.03397894
0.0348347
0.0358135
0.03692242
0.03814038
0.03942812
0.04075667
0.0421183
0.04350754
0.04490734
0.0463015
0.04767983
0.04902103
0.05031976
0.05158093
0.05281095
0.0540089
0.05516457
0.0562588
0.05727744
0.05829584
0.05932308
0.05616254
0.06058169
0.06571827
0.07135123
0.07750462
0.08429319
0.09191229
0.100658
0.1109935
0.1228776
0.1790867
0.1957013
0.2121734
0.2287959
0.2451491
0.2610278
0.2761244
0.2936249
0.3226469
0.3835294
0.3948098
0.4049632
0.4135517
0.4207175
0.426765
0.4315933
0.4353935
0.438095
0.4403918
0.4425974
0.4450022
0.4462603
0.4461557
0.4448512
0.4426048
0.4396235
0.4360764
0.4324487
0.4261582
0.4204891
0.4152461
0.4102897
0.4055303
0.4008812
0.3962823
0.3916841
0.3870729
0.3824972
0.3777564
0.3729392
0.3680419
0.3630895
0.3581302
0.3532088
0.34835
0.3435557
0.3521772
0.3476847
0.3431201
0.3385649
0.334048
0.32956
0.3251082
0.3207069
0.3163949
0.3121889
0.3080688
0.3040713
0.3002161
0.2964627
0.2927849
0.2891748
0.2856326
0.2821788
0.2788434
0.275609
0.2724704
0.2694622
0.2665604
0.2637266
0.2609458
0.2582204
0.255563
0.2529844
0.2504754
0.2480449
0.2456875
0.2433673
0.2410677
0.2387956
0.2365685
0.2344115
0.2323312
0.2302906
0.2282451
0.2262657
0.2243501
0.2224896
0.2206855
0.2189505
0.2172969
0.2157242
0.2142212
0.2127745
0.2113936
0.2100938
0.2088781
0.2077346
0.2066388
0.2055482
0.2044432
0.2033264
0.2022287
0.2011173
0.1998938
0.1985795
0.1972377
0.1958536
0.1943802
0.1928135
0.1911846
0.1895353
0.1879025
0.186318
0.184809
0.1833936
0.1820854
0.1808924
0.1798043
0.1787978
0.1778517
0.1769319
0.1760198
0.1751198
0.174226
0.1733691
0.1725796
0.1717427
0.1706893
0.1692894
0.1675028
0.1652526
0.1627178
0.1601844
0.1577079
0.1552736
0.1529085
0.1507128
0.1488912
0.1478237
0.1481843
0.151216
0.1584536
0.1714448
0.1910455
0.2155737
0.2407061
0.2607727
0.2715763
0.2728201
0.2673449
0.2587679
0.2487811
0.2380236
0.2267397
0.2151093
0.2034212
0.1921196
0.1816317
0.1722176
0.1639389
0.1567002
0.1503077
0.1445335
0.1391891
0.1341791
0.1294971
0.1252036
0.1214276
0.1184081
0.1165871
0.116167
0.1173741
0.1204294
0.125433
0.1322492
0.1403528
0.1491314
0.1581913
0.1670407
0.175172
0.1821364
0.1876434
0.1915206
0.193639
0.1941299
0.1932958
0.1915169
0.1891711
0.1864574
0.1834536
0.1801729
0.1765417
0.1724458
0.1677684
0.1623833
0.1562571
0.1497161
0.1433339
0.1374981
0.1323213
0.1277989
0.1239099
0.1206237
0.1179032
0.1156995
0.1139382
0.1125039
0.1112519
0.1100383
0.1087508
0.1073244
0.1057441
0.1040338
0.1022433
0.1004321
0.09865435
0.09695189
0.09535228
0.09388657
0.09257926
0.09142446
0.09040416
0.08949871
0.08870388
0.0879962
0.08735324
0.08673378
0.08612799
0.08550184
0.08487109
0.08419554
0.08360486
0.08288301
0.08205436
0.08113868
0.08015358
0.0791183
0.07805944
0.0770075
0.07599292
0.07504611
0.07420017
0.07349188
0.07295919
0.07263614
0.07254718
0.07270259
0.07309409
0.07369171
0.07444585
0.07529022
0.07614446
0.07695838
0.07768879
0.07830155
0.07877418
0.07909616
0.07926759
0.07929792
0.0792026
0.07899795
0.0786939
0.07831205
0.07787368
0.07739614
0.07689492
0.07639283
0.07591005
0.07544415
0.07498709
0.07453525
0.07408599
0.07363562
0.07317853
0.07270644
0.07220752
0.07166642
0.07106476
0.07038291
0.0696048
0.06872242
0.06773515
0.06666041
0.06553758
0.06442488
0.06339625
0.0625351
0.06192468
0.06163595
0.06172322
0.06224876
0.0632645
0.06479971
0.0668547
0.06939797
0.07236732
0.07567542
0.0792147
0.08287345
0.08652256
0.09008107
0.09340301
0.09652884
0.09947432
0.1022492
0.1048547
0.1073078
0.1096406
0.1118903
0.1140931
0.1162839
0.11851
0.1207547
0.1229926
0.1251847
0.1272762
0.1291985
0.1308742
0.1322242
0.1331755
0.1336958
0.1337763
0.1333877
0.132527
0.1312146
0.1294801
0.1273629
0.1249079
0.1221479
0.1191229
0.1158809
0.1124702
0.1089659
0.1054421
0.1019591
0.09856352
0.09528917
0.09215897
0.0891865
0.08637836
0.08373538
0.08125369
0.07892567
0.07674092
0.07468701
0.07275002
0.07091528
0.06916788
0.06749521
0.06588735
0.06433614
0.06283484
0.06137809
0.05996129
0.05858089
0.05723657
0.05592769
0.05465606
0.05342209
0.05222535
0.05106673
0.04994847
0.04887339
0.04784354
0.04685985
0.04592317
0.04503428
0.04419278
0.04339738
0.04264607
0.0419365
0.04126598
0.04063171
0.0400309
0.03946065
0.03891804
0.0384001
0.03790409
0.03742788
0.03696967
0.03652803
0.03610196
0.0356908
0.03529426
0.03491236
0.03454545
0.03419418
0.03385943
0.03354233
0.03324415
0.03296637
0.03271054
0.03247827
0.03227128
0.0320914
0.03194065
0.03182125
0.03173558
0.03168621
0.03167586
0.03170702
0.03178145
0.03189978
0.03206155
0.03226507
0.03250693
0.03278192
0.03308465
0.03341193
0.03376294
0.0341366
0.03453044
0.03494456
0.03539012
0.03588821
0.03645196
0.03708146
0.03777558
0.03853357
0.03935405
0.04024793
0.04123431
0.04231315
0.04345936
0.04464914
0.04587841
0.04714464
0.04843262
0.04971799
0.05098301
0.05221563
0.05341336
0.05458271
0.05572825
0.05685214
0.05794446
0.05900189
0.0600036
0.06098299
0.0618446
0.04142828
0.04683246
0.05164886
0.07906533
0.107071
0.1418438
0.1654356
0.1891419
0.2116243
0.2325944
0.2508215
0.2665643
0.2819197
0.2976416
0.3135366
0.3296709
0.3460477
0.3625923
0.3790542
0.3949564
0.4102534
0.4248956
0.4389921
0.4527478
0.4661429
0.4791363
0.4917066
0.50387
0.515712
0.5270686
0.5384581
0.5729609
0.5778592
0.5826665
0.5853914
0.586403
0.5861029
0.5845941
0.5819379
0.5783476
0.5741621
0.5693389
0.5639791
0.5581876
0.5520182
0.5455337
0.5387978
0.5318764
0.5248334
0.5177157
0.51053
0.5033665
0.4962089
0.4890805
0.4820023
0.4749851
0.4679874
0.4609525
0.4539482
0.4470014
0.4401133
0.4332924
0.4265291
0.419813
0.4131658
0.4065831
0.4001521
0.3938104
0.3871489
0.3808285
0.3748379
0.3691
0.3635497
0.3581448
0.3528617
0.3476965
0.3426605
0.3377757
0.3330657
0.3285539
0.3242319
0.320061
0.3159967
0.3120073
0.3080812
0.3042323
0.3004951
0.2969073
0.2934894
0.2902329
0.2871012
0.2840523
0.2810585
0.2781156
0.2752416
0.272463
0.2697997
0.2672544
0.2648042
0.2624057
0.2600258
0.2576525
0.2553108
0.2530312
0.2508537
0.2487698
0.246773
0.2448382
0.2429367
0.2410543
0.2392083
0.2374342
0.2357602
0.234187
0.2326955
0.2312687
0.2299091
0.2286354
0.2274694
0.2264136
0.2254347
0.2244593
0.2234138
0.2222641
0.2210341
0.2197657
0.2184476
0.2170558
0.215594
0.2140591
0.212433
0.2107198
0.2089474
0.2071511
0.2053675
0.2036304
0.20198
0.200447
0.1990528
0.197819
0.1967517
0.195821
0.1949652
0.1941518
0.1933423
0.1925297
0.1917251
0.1909348
0.1901515
0.1893079
0.188277
0.1869248
0.1851861
0.1830554
0.1806241
0.1780555
0.1754756
0.1729535
0.1705753
0.1685212
0.1671589
0.167192
0.1698882
0.1775505
0.1935241
0.2209723
0.2613947
0.3113076
0.3599117
0.3935265
0.4057116
0.3990642
0.3810126
0.3591738
0.3370998
0.3158598
0.2957047
0.276639
0.2586678
0.2418816
0.2264767
0.2125499
0.2000841
0.1889765
0.1790793
0.1702248
0.1622497
0.1550389
0.1485472
0.1428075
0.1379316
0.1341059
0.1318502
0.1316264
0.1337917
0.1387024
0.1465064
0.156947
0.1693212
0.1826791
0.1962465
0.2090498
0.2201866
0.2289007
0.2349158
0.2382528
0.2390389
0.2377976
0.2351265
0.2315122
0.2274324
0.2230555
0.2184612
0.2136662
0.208609
0.2032
0.1973599
0.1910143
0.184153
0.1769596
0.1697896
0.162878
0.1562929
0.1500439
0.1441518
0.1386628
0.1336351
0.1291189
0.1251354
0.1216651
0.1186499
0.1160053
0.1136366
0.111457
0.109399
0.1074228
0.1055146
0.1036803
0.1019375
0.1003076
0.09880737
0.097446
0.09622672
0.09515921
0.09424747
0.09348026
0.09284001
0.0923017
0.09184499
0.0914382
0.091064
0.09068957
0.09030517
0.0898799
0.08941647
0.08888732
0.08827117
0.08755591
0.0867386
0.08582479
0.08482801
0.08376739
0.08266533
0.08154688
0.08044108
0.07938189
0.07840696
0.0775549
0.07686227
0.07635965
0.07606856
0.07599929
0.07614972
0.07650465
0.07703877
0.0777205
0.07851139
0.07936671
0.08023865
0.08107813
0.08183554
0.08248842
0.08302536
0.08344118
0.08373696
0.0839189
0.08399675
0.08398233
0.08388588
0.08372743
0.08352935
0.08330435
0.08305775
0.08279208
0.08250873
0.08220825
0.08189064
0.08155537
0.08120102
0.08082467
0.08042154
0.07998486
0.07950658
0.07897775
0.07839263
0.07775214
0.07706354
0.07634403
0.07562506
0.0749526
0.074389
0.0740148
0.07392174
0.07420245
0.07493911
0.07619382
0.077999
0.08034974
0.08320198
0.08647514
0.09006011
0.09383002
0.09765664
0.1014214
0.1050247
0.1083741
0.111455
0.1142745
0.1168343
0.1191456
0.1212432
0.1231732
0.1249833
0.1267139
0.1284299
0.1301546
0.1318905
0.1336206
0.1353095
0.1368995
0.1383183
0.1394873
0.140321
0.1407679
0.1408178
0.1404594
0.1396789
0.1384715
0.1368487
0.1348362
0.1324713
0.1298
0.1268645
0.1237035
0.1203484
0.1168656
0.1133279
0.1097977
0.1063252
0.1029496
0.09969955
0.09659308
0.09364225
0.09085372
0.08822805
0.08576081
0.08344367
0.08126531
0.07921239
0.07727059
0.07542522
0.07366271
0.07197153
0.07034219
0.06876678
0.06723887
0.0657531
0.06430605
0.06289561
0.06151857
0.06017275
0.05885819
0.0575763
0.05632921
0.05511947
0.05394952
0.05282157
0.05173783
0.05069979
0.0497088
0.04876582
0.04787046
0.04702168
0.04621786
0.04545684
0.04473609
0.04405284
0.04340416
0.04278711
0.04219881
0.04163656
0.04109797
0.04058098
0.04008387
0.03960525
0.03914405
0.0386995
0.0382711
0.03785865
0.0374622
0.03708204
0.03671866
0.03637274
0.03604507
0.03573651
0.03544796
0.03518022
0.03493408
0.03471029
0.03450968
0.03433332
0.03418299
0.03406164
0.03397374
0.03392529
0.0339238
0.03397794
0.03409662
0.03428723
0.03455407
0.03489793
0.03531659
0.03580473
0.03635271
0.03694687
0.03757443
0.03823201
0.03892619
0.03966113
0.04043199
0.04122924
0.04204036
0.04285301
0.04366892
0.04450781
0.04538587
0.0462992
0.0472444
0.04823105
0.04926757
0.05034776
0.05144964
0.05254463
0.05361981
0.05467363
0.055712
0.05673901
0.05775731
0.05875941
0.05974523
0.06069228
0.06161512
0.06238919
0.01998802
0.02233477
0.02460807
0.03284044
0.04385511
0.06250643
0.07581287
0.09007172
0.1055535
0.1214048
0.13792
0.1562123
0.1759313
0.1962784
0.2176648
0.2418849
0.2790987
0.2966707
0.314559
0.3326453
0.3511481
0.3692691
0.3865346
0.4030763
0.4191496
0.4351052
0.4509926
0.4664445
0.4816247
0.496547
0.5111433
0.5253332
0.5390096
0.5519672
0.5640697
0.5752581
0.5854914
0.594801
0.6032916
0.611191
0.6182587
0.6227686
0.621426
0.620335
0.6184218
0.6151536
0.6105451
0.6047225
0.597856
0.5901376
0.5817964
0.5731073
0.5641977
0.5551611
0.5460937
0.5370875
0.5282111
0.5195189
0.5110545
0.5028525
0.4949333
0.4872953
0.4799433
0.4728528
0.4659889
0.4593127
0.4527937
0.4464135
0.440168
0.4341029
0.4280718
0.4220857
0.4161897
0.4103844
0.4046442
0.3989515
0.3932984
0.3877167
0.3822197
0.3768158
0.3716199
0.3666866
0.3619744
0.3574142
0.3529459
0.3485281
0.3441461
0.3398135
0.3355753
0.3314898
0.3276005
0.3239136
0.3203914
0.3169656
0.3135706
0.3101721
0.3067805
0.3034497
0.3002564
0.2972577
0.2944621
0.2918217
0.2892638
0.2867322
0.2842101
0.2817248
0.2793293
0.2770715
0.2749635
0.2729735
0.271042
0.2691091
0.2671451
0.2651757
0.2632595
0.2614563
0.2597864
0.2582219
0.2567077
0.2551972
0.2536738
0.252164
0.2507249
0.2494022
0.2481947
0.2470679
0.2459932
0.2449685
0.2440262
0.2432039
0.2425048
0.2418714
0.2411855
0.2403242
0.2392404
0.2379842
0.2366437
0.2352654
0.2338351
0.2323168
0.230686
0.2289502
0.2271256
0.22524
0.2233239
0.2214107
0.2195606
0.2178258
0.2162447
0.2148497
0.2136735
0.2127178
0.2119244
0.2111918
0.2104678
0.2097166
0.2089238
0.2081115
0.2073018
0.2064909
0.2056226
0.2045945
0.2032888
0.2016347
0.1996272
0.1973289
0.1948728
0.1924127
0.1900938
0.1881141
0.1868412
0.1869908
0.1898964
0.1979615
0.2152374
0.2476371
0.3007309
0.3772287
0.4686255
0.5499579
0.5968788
0.6036773
0.5805882
0.5417983
0.499651
0.4587759
0.4206796
0.3859665
0.3546698
0.3266016
0.3015011
0.2792068
0.2594922
0.2421044
0.2267332
0.2130791
0.2009474
0.1901846
0.1806648
0.1723227
0.1651656
0.1593055
0.1549858
0.1527272
0.1533256
0.157342
0.1652468
0.17717
0.1926202
0.2106427
0.2298534
0.2486511
0.2653399
0.278704
0.2880936
0.2935592
0.2953924
0.2941236
0.2903813
0.284916
0.2784659
0.2716765
0.2646895
0.2576058
0.2504583
0.2432392
0.2358925
0.2283443
0.2205356
0.2124855
0.2043185
0.1962366
0.1883574
0.1806758
0.1731901
0.165929
0.1589452
0.1523112
0.1461032
0.1403837
0.135188
0.1305174
0.1263421
0.1226098
0.1192574
0.1162234
0.1134563
0.1109182
0.1085868
0.1064528
0.1045148
0.1027739
0.1012303
0.09988194
0.09872288
0.09774253
0.0969338
0.09628349
0.0957693
0.09536503
0.09504042
0.0947723
0.0945304
0.09428931
0.09402252
0.09370651
0.0933199
0.09284637
0.09227252
0.09158994
0.09079752
0.08990094
0.08891113
0.08784286
0.08671426
0.08554746
0.08436915
0.08320972
0.08210156
0.08107716
0.08016749
0.07939971
0.07879494
0.07836716
0.07812392
0.07806753
0.07819397
0.07849219
0.07894386
0.07952415
0.08020241
0.08094374
0.08171278
0.08247593
0.08320355
0.08387158
0.0844626
0.08496696
0.08538263
0.08571498
0.08597576
0.08617811
0.08633368
0.08645013
0.08653141
0.08657884
0.08659206
0.08656977
0.08651061
0.08641455
0.08628314
0.08611954
0.08592817
0.08571444
0.08548504
0.08524813
0.08501157
0.08478024
0.08455675
0.08434492
0.08415009
0.08398878
0.0839078
0.08397859
0.08429067
0.08493938
0.08601047
0.08757075
0.08965658
0.09226094
0.09533054
0.09877124
0.1024592
0.1062622
0.1100457
0.113689
0.1171031
0.1202359
0.1230648
0.1255774
0.127769
0.1296625
0.1312946
0.1327045
0.1339332
0.1350417
0.1360966
0.1371348
0.1381691
0.1391955
0.1401799
0.1410682
0.1417816
0.1422549
0.1424644
0.1423834
0.1419933
0.1412801
0.1402302
0.1388336
0.1370894
0.13501
0.1326198
0.1299516
0.1270289
0.1239012
0.1206319
0.1172807
0.1139018
0.1105439
0.1072488
0.1040512
0.1009749
0.09803573
0.09524518
0.09260855
0.09012527
0.08778997
0.08559311
0.08352227
0.08156429
0.07970517
0.07793133
0.07623066
0.074593
0.07301003
0.07147497
0.06998217
0.06852698
0.06710528
0.06571309
0.06434818
0.06301026
0.06170014
0.06041932
0.05916991
0.05795445
0.0567757
0.05563648
0.05453915
0.05348514
0.05247663
0.05151441
0.05059852
0.04972821
0.04890211
0.04811829
0.04737444
0.04666795
0.04599608
0.04535609
0.04474533
0.04416139
0.04360213
0.04306569
0.0425505
0.04205529
0.04157903
0.04112096
0.04068059
0.04025767
0.03985218
0.0394643
0.03909435
0.03874279
0.03841008
0.03809667
0.03780283
0.0375286
0.03727367
0.03703734
0.03681869
0.03661707
0.03643292
0.03626863
0.03612938
0.03602363
0.03596314
0.03596208
0.03603539
0.0361969
0.03645785
0.03682551
0.03730135
0.03787926
0.03854576
0.03928397
0.04007954
0.04092237
0.04180173
0.04270212
0.04360373
0.04448451
0.04532544
0.04611917
0.04687194
0.04759296
0.04829006
0.04898461
0.04970767
0.05048288
0.05131289
0.05218025
0.05306145
0.05394208
0.05482013
0.05569937
0.05658286
0.05747252
0.05836282
0.05925318
0.06012485
0.06097854
0.06170051
0.008346617
0.009753942
0.01083172
0.01611782
0.02223641
0.03030432
0.03701543
0.04466416
0.05300868
0.06197985
0.07190353
0.08368215
0.09672595
0.1114251
0.129179
0.1566468
0.1714758
0.1872067
0.2033089
0.2197282
0.2363747
0.2530923
0.26971
0.2861047
0.3021031
0.3175821
0.3328199
0.3495596
0.366598
0.3840516
0.4019751
0.4198199
0.4371398
0.4538589
0.4700374
0.4855388
0.5002017
0.5143724
0.5280903
0.5413422
0.5540576
0.5661277
0.5773939
0.5876958
0.5968955
0.6049065
0.6115887
0.6169507
0.6209678
0.6236822
0.6236875
0.6213701
0.6162108
0.6096458
0.6015012
0.5918883
0.5810781
0.5693853
0.5571106
0.5445333
0.5319072
0.519454
0.5073444
0.4956907
0.4845631
0.474008
0.4640475
0.4546889
0.4459335
0.4377795
0.4302211
0.423247
0.4168222
0.4109012
0.4053918
0.4002743
0.3954676
0.390914
0.3865293
0.3821686
0.3779325
0.3738801
0.3700252
0.3663214
0.362689
0.3590543
0.3553806
0.3516772
0.3480017
0.3444331
0.3410571
0.3379211
0.3349979
0.3322048
0.3294466
0.3266483
0.3237754
0.3208413
0.3179081
0.3150686
0.3124068
0.3099538
0.307674
0.3054731
0.3032497
0.3009408
0.2985476
0.2961455
0.2938567
0.2917866
0.2899679
0.2883466
0.2868116
0.2852679
0.2836862
0.2821105
0.2806306
0.279326
0.2782136
0.2772377
0.2763028
0.2753126
0.2742288
0.273103
0.2720328
0.2711044
0.2703372
0.2696693
0.2690038
0.2682771
0.2674742
0.2666551
0.2659248
0.2653417
0.2648727
0.2644496
0.264034
0.2636385
0.2633282
0.2631488
0.2630661
0.2629375
0.2625607
0.2617876
0.2606281
0.2592185
0.2577139
0.2562024
0.2546634
0.2530483
0.2513058
0.2494203
0.2474322
0.2453945
0.243346
0.2413275
0.2394238
0.2377351
0.2363139
0.2352091
0.234443
0.2339423
0.2335157
0.2329453
0.2321557
0.2312116
0.2301208
0.2289305
0.227691
0.2264182
0.2250799
0.2236184
0.2219518
0.2200224
0.2178267
0.2154397
0.2129982
0.2106907
0.2087663
0.2076168
0.207963
0.2111782
0.2197712
0.2377876
0.2710947
0.3292117
0.4236008
0.5582163
0.7082905
0.8250923
0.8795291
0.8730484
0.8243684
0.7558652
0.685819
0.619738
0.5589314
0.503756
0.4544232
0.4109845
0.3732702
0.3408633
0.3131223
0.2893682
0.2689097
0.251038
0.2353235
0.2215986
0.2097176
0.1995974
0.1912063
0.1846816
0.1803606
0.1788836
0.1813941
0.1886925
0.2012803
0.2192506
0.2417907
0.2672826
0.2933972
0.3174875
0.3374398
0.3521863
0.3617584
0.3663947
0.366336
0.3621423
0.3547938
0.3454073
0.3350923
0.3245935
0.3140637
0.3036304
0.2933329
0.2831651
0.2731
0.2630953
0.2531173
0.2431898
0.2334262
0.223913
0.2146974
0.2057532
0.1970495
0.1885842
0.1803639
0.1724484
0.1649135
0.1578269
0.1512421
0.1451896
0.1396735
0.1346742
0.1301551
0.1260704
0.1223735
0.1190234
0.1159888
0.1132484
0.1107885
0.1085995
0.1066731
0.105001
0.1035721
0.1023691
0.101371
0.1005622
0.09992606
0.09943172
0.09904783
0.09874546
0.09849245
0.09825845
0.09801381
0.09773011
0.09738215
0.09695027
0.0964193
0.0957792
0.09502642
0.09416374
0.09319902
0.09214397
0.09101355
0.08982595
0.08860254
0.08736719
0.08614522
0.08496218
0.08384267
0.08280886
0.08187933
0.08106918
0.08039066
0.07985324
0.07946329
0.07922381
0.07913414
0.07918975
0.07938167
0.07969595
0.08011391
0.08061352
0.08117115
0.08176294
0.08236645
0.08296303
0.08353963
0.08408936
0.08461089
0.08510659
0.08558021
0.08603447
0.08646982
0.08688396
0.08727212
0.08762745
0.08794098
0.08820766
0.08842458
0.08859198
0.08871384
0.08879884
0.08886158
0.08892197
0.08900234
0.08912302
0.08929972
0.08954258
0.08985599
0.09024068
0.09070022
0.09125143
0.09193181
0.09280167
0.09393245
0.09540426
0.09729066
0.09962836
0.1024076
0.1055688
0.1090121
0.1126288
0.1162961
0.1198889
0.1232902
0.1264149
0.1292089
0.1316402
0.1336966
0.1353822
0.1367131
0.137711
0.1384034
0.1388453
0.1391332
0.139346
0.1395369
0.13973
0.1399184
0.1400521
0.1401103
0.1400783
0.1399422
0.1396808
0.1392679
0.1386724
0.1378575
0.1367849
0.135424
0.1337596
0.1317932
0.1295323
0.1269871
0.1242153
0.1212772
0.1182277
0.1151182
0.1119965
0.108905
0.1058802
0.1029512
0.1001392
0.09745823
0.0949162
0.09251551
0.09025397
0.088125
0.08611757
0.08421902
0.08241613
0.08069558
0.07904521
0.07745484
0.07591639
0.07442304
0.07296892
0.07154895
0.07015839
0.0687932
0.0674507
0.06612974
0.06483035
0.06355359
0.0623015
0.06107677
0.05988249
0.05872185
0.05759773
0.05651252
0.05546843
0.05446782
0.05351154
0.05259971
0.05173177
0.05090649
0.05012214
0.04937659
0.04866745
0.04799223
0.04734849
0.0467339
0.04614639
0.04558411
0.04504548
0.04452913
0.04403396
0.04355905
0.04310376
0.04266768
0.04225063
0.04185261
0.04147377
0.04111435
0.0407746
0.04045472
0.04015468
0.03987415
0.03961216
0.03936698
0.03913604
0.03891634
0.03870532
0.03850217
0.03830922
0.03813305
0.03798478
0.03787933
0.03783407
0.03786726
0.03799654
0.03823723
0.03860007
0.03908887
0.03969916
0.04041918
0.0412329
0.0421222
0.04306599
0.04403833
0.04500882
0.04594594
0.04682283
0.04762255
0.04833817
0.04896884
0.04952327
0.05003041
0.05053299
0.05106758
0.05164941
0.05227313
0.05292591
0.05359781
0.05428691
0.05499689
0.05573053
0.05648926
0.05726861
0.05806679
0.05886801
0.05966411
0.06035526
0.001979566
0.007765839
0.01162329
0.01613338
0.0212099
0.027066
0.03380084
0.04126612
0.0496864
0.05989021
0.07533704
0.08474156
0.09500415
0.105888
0.1174395
0.1296041
0.1423308
0.1555136
0.1689768
0.1825879
0.19632
0.2119314
0.2278976
0.2440147
0.2601617
0.2762212
0.2921037
0.3077112
0.3231074
0.3382591
0.3531446
0.3681869
0.3838317
0.3998349
0.4162053
0.4327428
0.4490249
0.4646558
0.4794466
0.4932726
0.5061956
0.5185298
0.5304336
0.5419465
0.5530238
0.5635863
0.5735201
0.5826571
0.5906702
0.5973701
0.6026857
0.6062403
0.6075553
0.6063007
0.6028554
0.5969089
0.5885393
0.5778534
0.5653728
0.5514604
0.5364963
0.5208745
0.5049772
0.4891428
0.4736595
0.4587673
0.4446589
0.4314793
0.4193112
0.4081803
0.3980689
0.3889237
0.3806813
0.3732891
0.3667154
0.3609446
0.3559962
0.3518087
0.348263
0.3451953
0.342244
0.3393741
0.3365929
0.3339371
0.3314373
0.3291992
0.3272721
0.3256199
0.3241289
0.3226521
0.3210694
0.3193296
0.3174547
0.3155301
0.3136748
0.3120001
0.3105599
0.3093207
0.3081772
0.3070045
0.305704
0.3042325
0.3026143
0.3009374
0.2993255
0.2978938
0.2966944
0.2956861
0.2947492
0.2937435
0.2925945
0.2913216
0.2900466
0.2889537
0.2881889
0.2877679
0.2875754
0.2874442
0.2872626
0.2870373
0.2868911
0.286978
0.2873678
0.2880024