/*--------------------------------*- C++ -*----------------------------------*\
| =========                 |                                                 |
| \\      /  F ield         | foam-extend: Open Source CFD                    |
|  \\    /   O peration     | Version:     3.1                                |
|   \\  /    A nd           | Web:         http://www.extend-project.de       |
|    \\/     M anipulation  |                                                 |
\*---------------------------------------------------------------------------*/
FoamFile
{
    version     2.0;
    format      ascii;
    class       volScalarField;
    location    "15.5";
    object      nut;
}
// * * * * * * * * * * * * * * * * * * * * * * * * * * * * * * * * * * * * * //

dimensions      [0 2 -1 0 0 0 0];

internalField   nonuniform List<scalar> 
119952
(
5.43714e-05
3.673298e-05
3.798591e-05
4.230067e-05
4.519916e-05
4.298532e-05
4.15456e-05
4.049932e-05
3.968279e-05
3.897437e-05
3.83237e-05
3.770152e-05
3.708652e-05
3.64645e-05
3.582584e-05
3.516286e-05
3.447112e-05
3.373747e-05
3.294453e-05
3.202123e-05
4.012474e-05
3.802309e-05
3.689856e-05
4.732727e-05
4.563006e-05
4.441305e-05
4.352753e-05
4.319837e-05
4.304088e-05
3.650981e-05
3.315765e-05
3.613369e-05
4.088709e-05
4.569174e-05
5.072198e-05
5.601169e-05
6.15858e-05
6.732337e-05
7.317175e-05
8.331693e-05
0.0003752097
0.000434794
0.0005011646
0.0005708476
0.000641604
0.0007120218
0.0007815485
0.0008500112
0.0009168462
0.001293281
0.001359847
0.001426131
0.001491723
0.001557153
0.001623317
0.001690137
0.001757598
0.001825451
0.001891945
0.001961507
0.002027781
0.002091826
0.002154445
0.002215598
0.002275084
0.002332914
0.002390058
0.00244989
0.002290748
0.00250618
0.002509503
0.00252222
0.002530319
0.002529296
0.002519444
0.002506091
0.002493281
0.002481616
0.002471283
0.002462089
0.002453488
0.002444705
0.002434769
0.002422551
0.002406825
0.002386553
0.00236211
0.002336446
0.002317848
0.002285044
0.002253772
0.002231251
0.002209595
0.002159081
0.002098719
0.002027767
0.001923639
0.001776565
0.001724185
0.001698176
0.001693534
0.001704517
0.001730315
0.001771387
0.001828664
0.001903715
0.002000602
0.002122147
0.002269495
0.002440433
0.002624827
0.002796465
0.002925259
0.002988062
0.002971398
0.002853381
0.002647541
0.002380561
0.002074085
0.001756841
0.001464654
0.001231863
0.001064883
0.0009265608
0.0008557714
0.0008430038
0.0008727242
0.0009307714
0.001007937
0.001099081
0.001197273
0.001297176
0.001373546
0.001441655
0.001515616
0.001596001
0.001682876
0.001776174
0.001875492
0.001979237
0.002085864
0.002192984
0.002296077
0.002391275
0.002474929
0.002544326
0.002597811
0.002627178
0.002632223
0.002614857
0.002574111
0.002500796
0.002393829
0.002269167
0.002130308
0.00198041
0.001822057
0.001657156
0.001486424
0.001310273
0.001130941
0.0009564749
0.0008111368
0.0007033093
0.0006273601
0.0006270204
0.0006730889
0.0007384735
0.0008099928
0.0008807958
0.0009493416
0.001014052
0.001060148
0.001091342
0.001118997
0.001142232
0.001160398
0.001173138
0.001180488
0.001183465
0.001183681
0.001181347
0.001176101
0.001168198
0.001157754
0.001144232
0.001126963
0.001106456
0.001083691
0.001058849
0.001031374
0.001001459
0.0009697163
0.0009366128
0.0009021211
0.0008671192
0.0008339777
0.0007260935
0.0006546114
0.0005998894
0.0005513059
0.0005145423
0.0004879246
0.0004701153
0.0004586674
0.0004501398
0.0004425867
0.0004357517
0.0004309362
0.0004289811
0.0004297876
0.0004324416
0.0004358268
0.0004389936
0.0004411842
0.0004416832
0.0004400202
0.0004363061
0.0004310787
0.0004250213
0.0004187075
0.0004124918
0.0004065759
0.000401012
0.0003957708
0.0003908175
0.0003861201
0.0003815755
0.0003770422
0.0003723917
0.0003676061
0.0003631112
0.0003630554
0.0003712481
0.0003791409
0.0003863083
0.0003928103
0.0003989143
0.0004047064
0.0004102187
0.0004153854
0.0004200666
0.0004240795
0.0004272374
0.0004294026
0.0004305269
0.0004306558
0.0004299088
0.0004285373
0.0004267829
0.0004249157
0.0004232627
0.000422166
0.0004220436
0.0004233415
0.0004265445
0.0004320641
0.0004402607
0.0004514148
0.0004655679
0.0004814589
0.0004975739
0.000514089
0.0005334994
0.0005558926
0.0005806207
0.000608104
0.0008872792
0.0009670204
0.001069526
0.001190515
0.001320139
0.001444499
0.001556084
0.001656686
0.001753118
0.001845835
0.001933491
0.002016515
0.002095082
0.00216884
0.002237031
0.002298637
0.002352549
0.002397767
0.00243361
0.002459809
0.00247635
0.002483475
0.00248185
0.002472277
0.002455353
0.002431406
0.002400544
0.002362837
0.002318633
0.002268642
0.002213982
0.002156234
0.002097171
0.002038386
0.001981106
0.00192618
0.00187413
0.001825202
0.00177944
0.001736739
0.001696878
0.001659545
0.001624349
0.001590833
0.001558477
0.001526676
0.001494561
0.001462639
0.001431022
0.001399644
0.001368592
0.001337943
0.001307776
0.00127905
0.001250847
0.001220964
0.001193057
0.001167109
0.001143168
0.001121209
0.001101202
0.001083071
0.001066699
0.001051984
0.001038891
0.001027324
0.001017079
0.001007968
0.0009998254
0.0009924795
0.0009857531
0.0009794741
0.0009734805
0.0009676234
0.0009617704
0.0009558093
0.0009496512
0.0009432401
0.0009365596
0.0009296354
0.0009225325
0.0009153421
0.0009082416
0.0009012395
0.0008941575
0.0008868949
0.0008793793
0.0008717004
0.0008643392
0.0008576724
0.0008519608
0.0008473905
0.0008441099
0.0008422606
0.0008419935
0.0008434578
0.0008467623
0.0008519298
0.0008588608
0.0008673089
0.0008768581
0.0008868863
0.0008968835
0.0009067137
0.0009163953
0.0009260867
0.0009360809
0.0009467708
0.0009586353
0.0009721251
0.0009874777
0.001004711
0.001023907
0.00104576
0.001070541
0.001096874
0.001123649
0.001151549
0.001181476
0.001215526
0.001257982
0.001310607
0.001373393
0.00144758
0.001533844
0.00162878
0.001727019
0.001827637
0.001925073
0.002016488
0.002102033
0.002183123
0.002261119
0.00233694
0.002411213
0.002484985
0.002560759
0.002648953
0.002689374
5.437434e-05
5.872228e-05
6.921169e-05
8.116204e-05
9.274577e-05
0.0001035854
0.000113743
0.0001233492
0.0001339729
0.0004547646
0.0006222736
0.0007969032
0.0009614653
0.001109316
0.001239184
0.001353322
0.001455011
0.001547479
0.002212604
0.002317306
0.002425536
0.002531623
0.002634547
0.002733544
0.002828469
0.002919169
0.003005595
0.003086775
0.003163947
0.003236649
0.003305741
0.00337343
0.003440761
0.003507928
0.003574727
0.003641086
0.003706676
0.003753792
0.003783452
0.00381681
0.003854007
0.003894659
0.003937975
0.003983413
0.004030441
0.004078506
0.004126923
0.004175915
0.004223487
0.004270364
0.004316859
0.004363142
0.004409606
0.004456474
0.004503684
0.004550199
0.005322451
0.005363811
0.005403624
0.005443258
0.00548291
0.005522683
0.005562498
0.005602085
0.005641417
0.005680033
0.005717841
0.005755384
0.005792188
0.005827214
0.005859722
0.005888709
0.005914289
0.005937729
0.005962493
0.005981158
0.00598669
0.00598898
0.00599103
0.005987633
0.005977436
0.005962913
0.005945621
0.005927575
0.005909698
0.005892636
0.005876628
0.005861506
0.0058465
0.0058303
0.005811757
0.005789375
0.005761557
0.005727554
0.005687062
0.005640689
0.005584911
0.005523378
0.005459924
0.005379107
0.005277099
0.005159214
0.005028777
0.004885371
0.004755534
0.004661094
0.004594671
0.004556382
0.004547235
0.004569263
0.004624902
0.004716363
0.004846971
0.005033599
0.005288225
0.005617041
0.006007696
0.006409576
0.005782505
0.005448445
0.005507566
0.00581934
0.006131979
0.006286667
0.006201308
0.005900789
0.005453221
0.004820873
0.004201567
0.00365999
0.003230528
0.002917117
0.002706199
0.002578042
0.002513747
0.002497612
0.002517716
0.002565534
0.002634835
0.002719699
0.002814255
0.002931105
0.003074538
0.003246543
0.003449599
0.003685396
0.003953963
0.004242365
0.004218572
0.004240182
0.004322607
0.004463048
0.004663102
0.004923258
0.005231898
0.005608629
0.006087327
0.006479175
0.00649972
0.006467997
0.006388699
0.006264474
0.006092218
0.005867356
0.005583443
0.005233004
0.004811907
0.004324561
0.003801044
0.003314242
0.002925669
0.002640837
0.002438784
0.002298632
0.002205931
0.002150698
0.00203473
0.001974838
0.001964081
0.001992917
0.002052794
0.002136759
0.002238569
0.002352083
0.002470603
0.002580541
0.002644929
0.002704237
0.002758642
0.002809566
0.002858373
0.002904467
0.002946968
0.002985034
0.003017738
0.003043914
0.003062138
0.003070786
0.003067647
0.003052436
0.003026508
0.002990366
0.0029436
0.002891085
0.002766543
0.002585924
0.002429777
0.002290993
0.002164904
0.002050252
0.00194729
0.001856455
0.001777623
0.001710341
0.001654487
0.001610426
0.001578691
0.001559526
0.001552532
0.001556625
0.001570191
0.001591264
0.001617613
0.00164724
0.001678493
0.001710096
0.001741237
0.001771565
0.001801021
0.001829651
0.001857354
0.001883775
0.001908667
0.001931907
0.001953255
0.001972404
0.001989153
0.00200351
0.002015899
0.002027769
0.002040499
0.002052552
0.002062728
0.002071595
0.002080118
0.002089117
0.002099303
0.002111
0.002124083
0.002138106
0.002152297
0.002165626
0.002176948
0.002185175
0.002189527
0.002189595
0.002185059
0.002176035
0.002163304
0.00214846
0.002133789
0.002122181
0.002116943
0.002120528
0.002133075
0.002158825
0.002201031
0.002261465
0.002340722
0.002438518
0.00255374
0.00268469
0.002829397
0.002986382
0.003727782
0.00394518
0.00416696
0.00439511
0.00462972
0.004867468
0.005103144
0.005331447
0.005548053
0.005756442
0.005956581
0.006145579
0.006322073
0.006484954
0.006632941
0.006764513
0.006878034
0.00697203
0.007045675
0.007099198
0.007132832
0.007146264
0.007142047
0.007122668
0.007089095
0.007041411
0.006978828
0.006899741
0.006804639
0.006695317
0.006574078
0.006444154
0.006308977
0.00617166
0.00603479
0.005900379
0.005769882
0.005644258
0.005524057
0.005409479
0.005300423
0.005196519
0.005097197
0.005001709
0.004909214
0.004818782
0.004729588
0.004641177
0.004553199
0.004465383
0.004377535
0.004289666
0.004201933
0.004115187
0.004028381
0.003941441
0.003855561
0.003771558
0.003689988
0.003611342
0.003536042
0.003464395
0.003396752
0.003333247
0.003273909
0.003218814
0.003167788
0.003120605
0.003076998
0.003036668
0.002999284
0.002964492
0.002931894
0.00290111
0.002871785
0.002843615
0.002816296
0.002789405
0.002762443
0.002734796
0.002705774
0.002675127
0.002642737
0.002608557
0.00257262
0.002535028
0.002495959
0.002455659
0.002414428
0.002372605
0.002330558
0.00228869
0.002247472
0.002207471
0.002169369
0.002133934
0.00210196
0.002074201
0.002051286
0.002033646
0.00202148
0.002014802
0.002013541
0.002017604
0.002026881
0.002041261
0.002060755
0.002085612
0.002116223
0.002152764
0.002194969
0.002242628
0.002296831
0.002359135
0.002428549
0.002503042
0.002582135
0.002665946
0.002755045
0.002853185
0.002965288
0.00309391
0.00324086
0.003408377
0.003597036
0.00380245
0.004015551
0.00422896
0.004440438
0.004645443
0.004842226
0.005030725
0.00521145
0.005384794
0.005550764
0.00570932
0.005860812
0.00600924
0.006142339
3.082959e-05
3.747808e-05
4.74761e-05
5.926581e-05
7.321632e-05
8.984466e-05
0.0001100579
0.0001348994
0.0001662167
0.0002205582
0.0009507804
0.001113032
0.001284202
0.001468351
0.001659189
0.001845959
0.001996423
0.002159411
0.002555759
0.00455025
0.004782455
0.004942147
0.005084506
0.005214158
0.005335619
0.005443241
0.005542533
0.005637904
0.005784825
0.006062789
0.006282615
0.006422918
0.006515888
0.006581575
0.006630731
0.00666893
0.006699525
0.00672996
0.006623658
0.006616858
0.006651737
0.006702123
0.006755117
0.006804773
0.006848789
0.006886458
0.006917926
0.006943731
0.006963906
0.006982066
0.006999281
0.007016126
0.00703264
0.00704867
0.007063873
0.007076419
0.007846535
0.007860105
0.00786656
0.00786899
0.007868957
0.007867093
0.007864084
0.007860501
0.007857162
0.007854455
0.007852057
0.00785037
0.007849574
0.007849084
0.007848681
0.007848465
0.007848679
0.007849842
0.007852538
0.00785618
0.007860218
0.007865031
0.007870152
0.007875085
0.007879834
0.00788467
0.007889948
0.007895848
0.007902101
0.007908763
0.007915707
0.007922435
0.00792897
0.007935754
0.007943348
0.007952235
0.007962543
0.00797514
0.007972521
0.007972337
0.007974361
0.007978487
0.007984748
0.007993212
0.008003743
0.008015908
0.008029175
0.008043071
0.008057634
0.008072868
0.008088289
0.008102923
0.008115632
0.008125171
0.008131304
0.008134482
0.008135696
0.00813378
0.008126584
0.00811523
0.008101348
0.008084489
0.008064113
0.008040983
0.008016259
0.007991027
0.007966618
0.007943931
0.007923252
0.007904206
0.007886245
0.007868384
0.007848274
0.007823545
0.007793359
0.007756062
0.007710605
0.007656837
0.007592754
0.007519226
0.007437756
0.007342666
0.00723052
0.007102868
0.006965578
0.00682023
0.006681317
0.00656668
0.006479203
0.00641986
0.006392402
0.006401271
0.006451631
0.006549713
0.006701593
0.006926951
0.007246908
0.007666899
0.008156877
0.008371874
0.007270027
0.007052845
0.007384394
0.00801484
0.008712292
0.009173399
0.009010905
0.008592718
0.008057387
0.007420891
0.006725528
0.006032598
0.00540016
0.004865819
0.00444359
0.004130204
0.003913146
0.003776822
0.003706565
0.003690636
0.003720238
0.00378865
0.003889537
0.00401675
0.004187206
0.004405079
0.004675395
0.00500273
0.005387018
0.005818915
0.006082507
0.005896451
0.005852105
0.0059371
0.006142306
0.006482559
0.006948561
0.007532759
0.00823901
0.008845136
0.008864115
0.008837983
0.008768562
0.008657214
0.008502255
0.008298861
0.008038165
0.007709959
0.007305465
0.006820982
0.006271538
0.005704718
0.005174367
0.004706684
0.004305311
0.003967007
0.003688581
0.003466863
0.003299254
0.003181212
0.003107328
0.003071277
0.003066318
0.003085933
0.003124317
0.003176589
0.003238915
0.0033084
0.003382815
0.003460373
0.003539504
0.0036184
0.003695036
0.00376991
0.003844013
0.003916191
0.003984799
0.004048318
0.004105609
0.004154891
0.004194203
0.004221005
0.004233154
0.004229995
0.004211615
0.004177009
0.004125541
0.004062435
0.003988247
0.003903831
0.003810143
0.003708696
0.003601525
0.00349088
0.003379049
0.003268427
0.003161614
0.003061353
0.002970294
0.002890712
0.002824287
0.002771961
0.002733902
0.002709553
0.002697657
0.002696468
0.002678851
0.002669184
0.002674506
0.002693787
0.002725731
0.002768512
0.002820426
0.00288013
0.0029459
0.003014885
0.003072859
0.00312137
0.003168579
0.003213835
0.003256556
0.003296502
0.003333408
0.00336665
0.003395793
0.003420777
0.003441836
0.003459435
0.003474196
0.003486827
0.003498019
0.00350835
0.0035182
0.00352771
0.003536809
0.003545179
0.003552176
0.003557452
0.003561006
0.003563247
0.0035651
0.003568042
0.003573977
0.003584914
0.003602994
0.003632404
0.003677976
0.003744255
0.003834965
0.003952665
0.004098571
0.004272528
0.004473024
0.004697508
0.004942109
0.005203604
0.005447525
0.005703524
0.005969641
0.006241735
0.006515138
0.006784807
0.007045569
0.007292562
0.007521667
0.007730821
0.007926166
0.008108516
0.008278141
0.008434889
0.008578104
0.008706601
0.008818819
0.00891303
0.008987598
0.009043923
0.009084519
0.009008656
0.008810087
0.008705301
0.008691074
0.008758781
0.008885105
0.008960024
0.008881904
0.008787095
0.008675609
0.008551065
0.008417634
0.008278882
0.008137774
0.007996711
0.007857541
0.007721619
0.007589913
0.007463028
0.007341208
0.007224366
0.007112127
0.00700388
0.006898848
0.006796163
0.006694962
0.006594539
0.006494334
0.006393915
0.006292953
0.006191264
0.006088744
0.005985421
0.005881337
0.005776933
0.005672747
0.005569241
0.005466891
0.005366281
0.005268046
0.00517281
0.005081135
0.004993445
0.004910146
0.004831534
0.004757696
0.004688574
0.004623984
0.004563643
0.0045072
0.004454266
0.00440447
0.004357381
0.004312503
0.004269235
0.00422695
0.004185179
0.004143475
0.004101411
0.004058605
0.004014736
0.003969543
0.003922824
0.003874432
0.003824269
0.00377228
0.00371844
0.003662746
0.003605206
0.003545826
0.003484632
0.003421708
0.003357262
0.003291683
0.003225592
0.003159858
0.00309559
0.003034063
0.002976605
0.00292451
0.002879
0.002841191
0.002812008
0.00279211
0.002781937
0.002781852
0.002792243
0.002813395
0.002845341
0.002887966
0.002941446
0.003006612
0.003084302
0.003174105
0.0032746
0.003384364
0.003502189
0.003627746
0.003763199
0.003912612
0.004079413
0.004266079
0.004475152
0.004707813
0.004960879
0.005226257
0.005493162
0.005756044
0.006012166
0.006259464
0.006497394
0.006725923
0.006945219
0.007154994
0.007355433
0.007545885
0.007727484
0.007884589
3.889325e-05
6.284313e-05
0.0001401529
0.000472188
0.0008125733
0.001453537
0.001952008
0.002555998
0.003253353
0.003827155
0.004249666
0.004588762
0.004927012
0.005275639
0.005635606
0.006002177
0.006376093
0.00675738
0.007135715
0.007490975
0.007826538
0.008132728
0.008383306
0.00859821
0.008796347
0.008978108
0.009144564
0.009297296
0.009442378
0.009590804
0.009767898
0.01
0.01
0.01
0.00983657
0.009573203
0.009334774
0.009136257
0.00898619
0.008865112
0.008743585
0.008668786
0.008632992
0.008622934
0.008637261
0.008675015
0.008734173
0.008812513
0.0089086
0.009026415
0.009154051
0.009267263
0.009404237
0.009549427
0.009702158
0.009867371
0.01
0.01
0.01
0.01
0.01
0.01
0.01
0.01
0.01
0.01
0.01
0.01
0.01
0.01
0.01
0.009994371
0.009974267
0.009954741
0.009935586
0.009916912
0.009899078
0.009882492
0.009867451
0.009854184
0.009842424
0.009831508
0.00982087
0.009810302
0.009799987
0.009790471
0.009782454
0.009776347
0.009772137
0.009769403
0.009767393
0.009765461
0.009763391
0.009761403
0.009759966
0.009759471
0.00975999
0.009761281
0.009762759
0.009763707
0.009763858
0.009763462
0.009763304
0.00976402
0.009766094
0.009769065
0.009771821
0.009774007
0.009775369
0.009775994
0.009776465
0.009777451
0.009779224
0.009781413
0.009783369
0.009784636
0.00978521
0.009785306
0.009785014
0.009783937
0.009781081
0.009774998
0.009764657
0.009750015
0.009732083
0.00971189
0.00968925
0.00966391
0.009636259
0.009606455
0.009574343
0.009540235
0.009504865
0.009468892
0.009433172
0.009398288
0.009364864
0.009333212
0.009303362
0.009275288
0.009248375
0.009220726
0.009188775
0.009151038
0.009106164
0.009053664
0.008993252
0.008924798
0.008848174
0.008761558
0.008662801
0.008551296
0.008429719
0.008301824
0.008175644
0.008061556
0.007966819
0.00789606
0.007854068
0.007846721
0.007881541
0.00796815
0.008117064
0.008340873
0.008655872
0.009070611
0.009541114
0.009247251
0.008782123
0.009199938
0.01
0.01000001
0.01000001
0.01000001
0.01000001
0.01
0.009744632
0.009289692
0.00874559
0.008136088
0.007505142
0.00690091
0.006362465
0.005913107
0.00556093
0.005303183
0.005131303
0.005035145
0.005005354
0.00503438
0.005116397
0.005244691
0.005428558
0.005682515
0.006013756
0.006427351
0.006917906
0.00746353
0.007926375
0.007496034
0.007322467
0.007414627
0.007732978
0.008222187
0.008876638
0.009659754
0.01
0.01
0.01
0.01
0.01
0.01
0.01
0.01
0.009897811
0.00962919
0.009300577
0.008905216
0.008444714
0.007936517
0.007410603
0.006891931
0.006396333
0.005934915
0.005516854
0.005149613
0.004837772
0.004582825
0.004383227
0.004234982
0.004132571
0.004069812
0.004040347
0.004038669
0.00405959
0.004098731
0.004152407
0.00421766
0.004292034
0.00437333
0.00445937
0.004547777
0.00463597
0.004723962
0.004811874
0.004897907
0.004980187
0.005056631
0.005125154
0.005183296
0.005228722
0.005258762
0.005272402
0.005268147
0.005245765
0.005205131
0.005146541
0.005071257
0.004981002
0.00487788
0.004764305
0.004642785
0.00451579
0.004385787
0.004255323
0.004127029
0.004003523
0.003887278
0.003780569
0.003685104
0.00360211
0.003532271
0.003475801
0.003432525
0.003401875
0.003383345
0.003376119
0.003379282
0.003391821
0.003412487
0.003420775
0.003430927
0.003456989
0.003497168
0.003549553
0.00361257
0.003684352
0.003760839
0.00383004
0.003886602
0.003941724
0.003994495
0.004043983
0.004089392
0.004130099
0.00416569
0.004195991
0.004221079
0.00424127
0.004257075
0.004269152
0.004278259
0.004285215
0.004290798
0.004295729
0.004300667
0.004306214
0.004312979
0.004321646
0.004332982
0.004348165
0.004369271
0.004399334
0.004442284
0.004502657
0.004585118
0.00469392
0.004832344
0.005002292
0.005204037
0.005436178
0.005695754
0.005978453
0.006278648
0.006586025
0.006895915
0.007204703
0.007508017
0.007800626
0.008077298
0.008334018
0.008567901
0.008777121
0.00896076
0.009124545
0.009273303
0.009409933
0.009536078
0.009652535
0.009758883
0.009853869
0.009935702
0.009897677
0.009464236
0.009124296
0.008884488
0.008738733
0.008682194
0.00870921
0.008812833
0.008985373
0.009221636
0.009519666
0.00984941
0.009931669
0.009830881
0.009719182
0.009600038
0.00947637
0.009350616
0.0092247
0.009099922
0.008977521
0.008858529
0.008743534
0.008632728
0.008525961
0.008422786
0.008322553
0.008224496
0.008127804
0.008031718
0.007935591
0.007838896
0.007741212
0.007642231
0.007541737
0.007439663
0.007336056
0.007231029
0.007124831
0.007017888
0.00691075
0.006804055
0.006698484
0.006594718
0.006493411
0.00639516
0.006300417
0.006209645
0.006123318
0.006041582
0.005964447
0.005891788
0.00582337
0.005758864
0.005697876
0.005639959
0.005584631
0.005531397
0.005479767
0.005429286
0.005379531
0.00533012
0.005280707
0.005230983
0.005180676
0.005129545
0.005077373
0.005023956
0.004969091
0.004912556
0.004854093
0.004793395
0.004730086
0.004663727
0.004593855
0.004520037
0.004441964
0.004359549
0.004273047
0.004183147
0.004091001
0.003998197
0.00390669
0.003818716
0.003736655
0.003662845
0.003599396
0.003548102
0.003510435
0.00348755
0.00348023
0.003488871
0.003513616
0.003554661
0.003612525
0.00368775
0.003780153
0.003888673
0.004011811
0.004147938
0.004295811
0.004455595
0.004629137
0.004818787
0.005026543
0.00525474
0.005504693
0.005774534
0.006058347
0.006347401
0.006633201
0.00691331
0.007185622
0.007449246
0.007703844
0.00794942
0.008185662
0.008412762
0.008629669
0.008835882
0.009012228
2.175522e-05
3.521454e-05
5.314642e-05
0.0002300226
0.0003766272
0.0006376599
0.0008960504
0.00113343
0.001432696
0.001726429
0.002045631
0.002460319
0.002955243
0.003519607
0.004161037
0.004988282
0.006557571
0.007203619
0.007830608
0.008397307
0.008899456
0.00933429
0.00971817
0.01
0.01
0.01
0.01
0.01
0.01
0.01
0.01
0.01
0.01
0.01
0.01
0.01
0.01
0.01
0.01
0.01
0.01
0.009909875
0.009807145
0.009449847
0.009094116
0.008767643
0.008473749
0.00822097
0.008011295
0.007844086
0.007714196
0.007606757
0.007533564
0.007496853
0.007491448
0.007511805
0.007557112
0.007626068
0.007717088
0.007827569
0.007956211
0.008103366
0.008256998
0.008426661
0.008605673
0.008806822
0.009036523
0.00929403
0.009580779
0.009897871
0.01
0.01
0.01
0.01
0.01
0.01
0.01
0.01
0.01
0.01
0.01
0.01
0.01
0.01
0.01
0.01
0.01
0.01
0.01
0.01
0.01
0.01
0.01
0.01
0.01
0.01
0.01
0.01
0.01
0.01
0.01
0.01
0.01
0.01
0.01
0.01
0.01
0.01
0.01
0.01
0.01
0.01
0.01
0.01
0.01
0.01
0.01
0.01
0.01
0.01
0.01
0.01
0.01
0.01
0.01
0.01
0.01
0.01
0.01
0.01
0.01
0.01
0.01
0.01
0.01
0.01
0.01
0.01
0.01
0.01
0.01
0.01
0.01
0.01
0.01
0.01
0.01
0.01
0.009989126
0.009937455
0.009888294
0.00984312
0.009802626
0.009765252
0.009726583
0.009684947
0.009640184
0.009592819
0.009543282
0.009491343
0.009435534
0.009373484
0.009303063
0.009223951
0.009137941
0.009049033
0.008963339
0.008887288
0.00882651
0.008786617
0.008774446
0.008798699
0.008868823
0.008989415
0.009159787
0.009395068
0.009812928
0.01
0.01
0.01
0.01
0.01000001
0.01000013
0.01000054
0.01000113
0.01000147
0.01000136
0.01000056
0.01000006
0.01
0.009579539
0.009075047
0.008547932
0.008032321
0.007560182
0.007154584
0.006829402
0.006589003
0.006431133
0.006351005
0.006343373
0.006404382
0.006531903
0.006729271
0.007017225
0.007403939
0.007888278
0.008452009
0.009056927
0.009586525
0.009145575
0.009016467
0.009251134
0.009803516
0.01
0.01
0.01
0.01000001
0.01000003
0.01000004
0.01000003
0.01000001
0.01
0.01
0.01
0.01
0.01
0.01
0.01
0.01
0.009663799
0.009220969
0.008755045
0.008276803
0.007798813
0.00733489
0.006898232
0.006500029
0.006148332
0.005847603
0.005598938
0.005400744
0.005249569
0.005140851
0.005069593
0.005030773
0.005019637
0.005031871
0.005063704
0.005111889
0.005173574
0.005246147
0.005327127
0.005414078
0.005504302
0.005595334
0.005686999
0.005778122
0.00586644
0.005949598
0.006025125
0.006090614
0.006142793
0.006179724
0.006199669
0.006201352
0.006184016
0.006147422
0.006091958
0.006018652
0.005929132
0.005825485
0.005710068
0.005585344
0.005453797
0.005317914
0.005180162
0.005042931
0.004908469
0.004778789
0.004655719
0.004540772
0.004435153
0.004339811
0.004255492
0.00418299
0.004122445
0.004074041
0.004037781
0.004013236
0.004000318
0.003998446
0.004006863
0.004024747
0.004051228
0.004085459
0.004126335
0.004172881
0.004223301
0.004273328
0.004329161
0.00438712
0.004445252
0.004504182
0.004563673
0.004621774
0.004676234
0.004725454
0.004768378
0.004804321
0.004832871
0.004853672
0.004866979
0.00487419
0.004877014
0.004875335
0.004869414
0.004864563
0.004869946
0.004892775
0.004929602
0.004944878
0.004967639
0.005001036
0.005048869
0.005115331
0.005204623
0.005320867
0.005467642
0.005647195
0.005860012
0.006104661
0.00637788
0.006675032
0.006989898
0.007233479
0.007535794
0.007862569
0.008194479
0.008539297
0.008850077
0.009093854
0.009307943
0.009491806
0.009646313
0.009775969
0.009888521
0.009989184
0.01
0.01
0.01
0.01
0.009928738
0.00948802
0.009131088
0.00887982
0.008729732
0.008664156
0.008673539
0.008757822
0.008917335
0.009149168
0.009448042
0.009785125
0.01
0.01
0.01
0.01
0.01
0.01
0.01
0.01
0.009957708
0.00985264
0.009749939
0.009650365
0.009554276
0.009461661
0.009372129
0.009285058
0.009199852
0.009115802
0.009032182
0.008948326
0.008863667
0.008777738
0.008690166
0.008600661
0.008509038
0.008415191
0.008319096
0.008220902
0.008120935
0.008019645
0.007917573
0.007815342
0.00771362
0.007613092
0.007514424
0.007418192
0.007324774
0.007234869
0.007148836
0.00706687
0.006989021
0.006915207
0.006845238
0.006778836
0.006715657
0.006655318
0.006597418
0.006541554
0.006487345
0.006434436
0.0063825
0.006331247
0.006280416
0.006229769
0.006179093
0.006128177
0.006076806
0.006024734
0.005971667
0.005917228
0.005860937
0.005802185
0.005740217
0.005674147
0.005602997
0.005525769
0.005441569
0.005349763
0.005250152
0.005143125
0.005029748
0.004911796
0.004791705
0.004672439
0.00455728
0.0044496
0.004352659
0.004269456
0.004202577
0.004154055
0.004125294
0.004117163
0.004130224
0.004164952
0.004221626
0.004299976
0.00439904
0.004517328
0.004653082
0.004804689
0.004971219
0.005152576
0.005349064
0.005561328
0.005790957
0.006039216
0.006305189
0.0065848
0.006871508
0.007158103
0.007440825
0.007717956
0.00798851
0.008252063
0.008508537
0.008757669
0.008999552
0.009233114
0.00945664
0.009649056
1.973569e-05
3.03643e-05
6.003374e-05
0.0001814491
0.0002916355
0.000462541
0.0005930896
0.000741113
0.0009156038
0.001086449
0.001286643
0.00154593
0.001842687
0.002196942
0.002659172
0.003547007
0.00396905
0.004425972
0.004909484
0.005418668
0.005958909
0.006521091
0.007090217
0.007651923
0.008189735
0.008690504
0.009174801
0.009709937
0.01
0.01
0.01
0.01
0.01
0.01
0.01
0.01
0.01
0.01
0.01
0.01
0.01
0.01
0.01
0.01
0.01
0.01
0.01
0.01
0.01
0.009968362
0.009526762
0.009076276
0.008677937
0.008241704
0.007877365
0.007572187
0.007316042
0.007103978
0.006934319
0.00680486
0.006712417
0.006652969
0.006625946
0.006631612
0.006669069
0.006735197
0.006829195
0.006951319
0.007101551
0.007279778
0.007485103
0.007718346
0.007976836
0.008248958
0.008545496
0.008865123
0.009214485
0.009608448
0.01
0.01
0.01
0.01
0.01
0.01
0.01
0.01
0.01
0.01
0.01
0.01
0.01
0.01
0.01
0.01
0.01
0.01
0.01
0.01
0.01
0.01
0.01
0.01
0.01
0.01
0.01
0.01
0.01
0.01
0.01
0.01
0.01
0.01
0.01
0.01
0.01
0.01
0.01
0.01
0.01
0.01
0.01
0.01
0.01
0.01
0.01
0.01
0.01
0.01
0.01
0.01
0.01
0.01
0.01
0.01
0.01
0.01
0.01
0.01
0.01
0.01
0.01
0.01
0.01
0.01
0.01
0.01
0.01
0.01
0.01
0.01
0.01
0.01
0.01
0.01
0.009987641
0.00992597
0.009861346
0.00979322
0.009722567
0.009650748
0.009580332
0.009515239
0.009459193
0.009413995
0.009377427
0.009346806
0.009321659
0.009303242
0.0092931
0.009291126
0.009294845
0.009298719
0.009298341
0.009291058
0.009276191
0.009253886
0.009226772
0.009199024
0.009175616
0.009162416
0.009166715
0.009196737
0.009256239
0.009353276
0.009548093
0.00999649
0.01
0.01
0.01
0.01
0.01
0.01000004
0.01000062
0.01000838
0.01002666
0.01001689
0.01000347
0.01000022
0.01000001
0.01
0.01
0.01
0.009771794
0.009317739
0.008885473
0.00849269
0.008096443
0.007895207
0.007711085
0.007606883
0.007580831
0.007632945
0.007765893
0.007984657
0.00830875
0.008741
0.009265126
0.00984869
0.01
0.01
0.01
0.01
0.01
0.01
0.01
0.01
0.01000002
0.01000018
0.01000043
0.01000031
0.01000009
0.01000001
0.01
0.01
0.01
0.01
0.01
0.01
0.01
0.01
0.01000001
0.01000002
0.01000002
0.009771349
0.009339451
0.008900994
0.008466886
0.008049551
0.007660258
0.007307531
0.006996951
0.00673126
0.006510794
0.006334035
0.006198181
0.006099628
0.006034392
0.005998441
0.005987941
0.005999382
0.006029573
0.006075598
0.006134758
0.006204513
0.006282319
0.006365548
0.006451395
0.006538223
0.006625072
0.006709702
0.006789757
0.006862372
0.006924462
0.006973787
0.007008316
0.007026315
0.007026505
0.007008141
0.00697104
0.006915636
0.006842993
0.006754716
0.006652808
0.006539502
0.006417141
0.006288073
0.006154574
0.006018771
0.005882585
0.005747699
0.005615565
0.005487396
0.005364211
0.005246919
0.005136397
0.005033544
0.004939221
0.004854282
0.004779561
0.004715789
0.004663563
0.004623233
0.004594892
0.004578391
0.004573353
0.004579187
0.004595115
0.004620256
0.004653671
0.004694389
0.004741419
0.004793747
0.00485028
0.004909835
0.004971146
0.005032884
0.005093683
0.005152146
0.005196598
0.005235166
0.005269667
0.005299112
0.005323146
0.005341958
0.005354792
0.005358397
0.00534937
0.005328203
0.005298839
0.005266382
0.005238282
0.005227039
0.005244737
0.005299676
0.005396836
0.005530365
0.005668589
0.005777794
0.005917335
0.006089764
0.006295775
0.006533905
0.006729345
0.006919273
0.007125796
0.007355397
0.007618078
0.007903915
0.008201567
0.00851107
0.00883356
0.009166038
0.009498855
0.009811368
0.009962275
0.01
0.01
0.01
0.01
0.01
0.01
0.009778586
0.009415601
0.009108619
0.00887651
0.008727122
0.008658151
0.008656697
0.008717966
0.008846117
0.009046517
0.009319268
0.00964642
0.009982289
0.01
0.01
0.01
0.01
0.01
0.01
0.01
0.01
0.01
0.01
0.01
0.01
0.01
0.01
0.009998398
0.00992696
0.009857282
0.009788678
0.009720417
0.009651816
0.009582287
0.009511339