/*--------------------------------*- C++ -*----------------------------------*\
| =========                 |                                                 |
| \\      /  F ield         | foam-extend: Open Source CFD                    |
|  \\    /   O peration     | Version:     3.1                                |
|   \\  /    A nd           | Web:         http://www.extend-project.de       |
|    \\/     M anipulation  |                                                 |
\*---------------------------------------------------------------------------*/
FoamFile
{
    version     2.0;
    format      ascii;
    class       volScalarField;
    location    "15.5";
    object      omega;
}
// * * * * * * * * * * * * * * * * * * * * * * * * * * * * * * * * * * * * * //

dimensions      [0 0 -1 0 0 0 0];

internalField   nonuniform List<scalar> 
119952
(
398.9496
507.9342
482.1649
420.2607
377.2428
380.1606
386.3011
394.1581
403.2073
413.1888
423.969
435.4612
447.6026
460.34
473.621
487.4026
501.6171
516.1955
531.2463
547.7944
457.6545
453.2967
454.2941
380.2626
368.8466
361.0346
354.2711
348.2824
339.3749
225.0041
822.1047
688.4704
582.3934
505.8371
448.6021
404.4177
369.0075
339.9344
315.4586
288.256
242.6345
210.5167
188.175
171.6273
158.6527
147.9715
138.8896
131.0072
124.0754
96.78813
92.94325
89.16628
85.4819
81.98303
78.72595
75.72091
72.96708
70.44206
68.13126
66.09873
64.17588
62.3365
60.59757
58.96235
57.4266
55.97164
54.55631
53.17575
52.89879
52.78456
52.28586
51.89907
51.64641
51.46815
51.30389
51.14835
50.98812
50.82301
50.65264
50.48421
50.32986
50.20428
50.12464
50.10993
50.17922
50.34063
50.56723
50.78294
50.91304
51.40027
51.68988
51.95529
52.62578
53.83432
55.23567
57.11735
60.02073
63.47804
64.03499
63.78308
62.819
61.40026
59.59367
57.48565
55.17264
52.77869
50.39354
48.12403
46.09328
44.40935
43.16356
42.42646
42.20149
42.47185
43.2506
44.91369
47.78348
52.12041
58.36991
66.94617
77.80453
89.85222
100.9955
109.2732
113.6502
113.9937
110.8715
105.2864
98.36569
91.03789
83.94238
77.48042
71.77673
66.63445
62.08149
58.10192
54.66095
51.71959
49.23936
47.18179
45.49915
44.1538
43.1149
42.33893
41.79056
41.43221
41.24
41.34303
41.68446
42.19731
42.90742
43.9612
45.47985
47.35894
49.63895
52.37515
55.67074
59.68654
64.70863
71.22879
80.05856
92.06484
105.8477
117.0421
123.7227
125.8208
123.7113
118.3461
110.9314
102.7703
94.867
87.72493
81.53141
76.28105
71.88131
68.20421
65.13252
62.5686
60.44133
58.68927
57.24358
56.07163
55.16158
54.48651
54.02449
53.77585
53.74479
53.90751
54.23718
54.73586
55.42416
56.30968
57.38693
58.66229
60.16295
61.86983
63.65898
68.08471
76.26125
82.5971
87.44463
91.33438
94.28182
96.23907
97.27745
97.64105
97.59704
97.25827
96.62097
95.65526
94.37527
92.85726
91.19618
89.47496
87.76246
86.13923
84.67805
83.41586
82.35958
81.49504
80.80289
80.2698
79.87904
79.61446
79.45895
79.38969
79.38236
79.42208
79.50023
79.6125
79.74304
79.79291
78.88465
77.19746
75.74162
74.3945
73.10467
71.846
70.58442
69.30062
67.98064
66.61725
65.21066
63.76624
62.2945
60.8129
59.34697
57.92868
56.59216
55.37118
54.29389
53.38411
52.65699
52.11534
51.74771
51.52177
51.39769
51.34848
51.35252
51.39136
51.54267
51.9084
52.44578
52.93466
53.33489
53.67087
53.88328
45.55651
43.99564
42.00404
39.95155
38.23197
37.05199
36.36233
35.97351
35.69532
35.47186
35.28887
35.12769
34.97671
34.82916
34.68074
34.52839
34.3697
34.20244
34.0243
33.83326
33.62845
33.40934
33.17478
32.9243
32.65903
32.38185
32.09741
31.81145
31.52962
31.25702
30.99742
30.75253
30.52248
30.30653
30.10362
29.91262
29.73253
29.56252
29.402
29.25068
29.10872
28.9769
28.85672
28.75086
28.66481
28.6055
28.57107
28.55641
28.56154
28.58553
28.62764
28.68737
28.76372
28.85805
29.02151
29.10794
29.17126
29.21157
29.22662
29.21797
29.1868
29.13545
29.06708
28.98438
28.88904
28.78419
28.67335
28.55924
28.44434
28.33115
28.22206
28.11931
28.02509
27.94155
27.87088
27.81529
27.77702
27.7582
27.76075
27.7862
27.83588
27.91059
28.0084
28.1309
28.28465
28.47426
28.70373
28.97205
29.26435
29.56721
29.86904
30.15884
30.42521
30.65537
30.83459
30.94652
30.97457
30.90407
30.72489
30.43394
30.03725
29.55146
28.99443
28.38204
27.73327
27.06699
26.39996
25.74479
25.11183
24.51185
23.95721
23.45995
23.02069
22.63442
22.31573
22.08
21.93417
21.87491
21.88636
21.91521
21.89287
21.7993
21.627
21.35496
20.98704
20.58438
20.21258
19.86894
19.57886
19.34521
19.15665
19.00039
18.86693
18.74935
18.64043
18.5254
18.36789
18.10165
18.35603
748.7543
621.131
558.5045
513.7191
475.2524
441.0179
410.5354
383.4738
358.3957
297.6258
234.2238
197.3409
174.3994
159.0669
148.0815
139.6615
132.8229
127.0121
100.5399
96.00603
91.64944
87.57522
83.87013
80.56128
77.6228
75.01154
72.67901
70.56544
68.71355
66.98185
65.27403
63.60205
61.98036
60.42316
58.93883
57.52954
56.19178
55.23194
54.56121
53.76813
52.89807
51.98975
51.06421
50.13747
49.22213
48.32707
47.46258
46.63214
45.82762
45.05247
44.30186
43.56903
42.85145
42.1494
41.46574
40.81503
36.64142
36.12858
35.63857
35.16774
34.71232
34.27002
33.84044
33.4234
33.01888
32.62468
32.24163
31.87433
31.52439
31.19203
30.87677
30.57737
30.29253
30.02792
29.79751
29.59503
29.38321
29.17936
29.00188
28.84174
28.68272
28.52241
28.36563
28.21059
28.05716
27.90604
27.75925
27.62001
27.49339
27.38559
27.30136
27.2444
27.21667
27.21844
27.25293
27.32366
27.43707
27.59003
27.80886
28.12618
28.50936
28.92934
29.37324
29.79123
30.06008
30.16499
30.13203
29.9224
29.52717
28.95358
28.23018
27.41496
26.59694
25.84025
25.23549
24.87549
24.82646
25.08299
25.53394
26.01961
26.40824
26.6873
26.98644
27.52236
28.42579
29.83322
31.87118
34.5953
37.91026
41.53817
45.08212
48.1275
50.33701
51.52034
51.64565
50.81535
49.21483
47.06477
44.59266
42.02605
39.56127
37.17468
34.93166
32.89906
31.11642
29.59922
28.34286
27.33438
26.55347
25.96757
25.53408
25.21296
24.96932
24.77497
24.60956
24.45911
24.31652
24.1892
24.09277
24.05993
24.12862
24.32135
24.66934
25.21468
26.01648
27.15858
28.75418
30.93565
33.75697
36.95134
40.0718
42.91135
45.44007
47.63857
49.44581
50.76139
51.49046
51.58385
51.0552
49.97828
48.46473
46.6424
44.63798
42.56537
40.51756
38.56272
36.74398
35.08683
33.59797
32.266
31.07581
30.02227
29.09808
28.29577
27.60804
27.02855
26.55374
26.18446
25.92369
25.77111
25.71143
25.74254
25.86126
26.04962
26.73867
27.86368
28.9763
30.09363
31.2323
32.3906
33.56377
34.748
35.93749
37.11478
38.24561
39.28426
40.1823
40.89606
41.39147
41.64715
41.65677
41.4287
40.98497
40.35347
39.57028
38.67863
37.72214
36.73997
35.76418
34.81873
33.92062
33.08028
32.30153
31.58472
30.92915
30.33269
29.79082
29.29588
28.83582
28.39806
27.98868
27.61724
27.27965
26.96446
26.65733
26.34499
26.01447
25.65465
25.25715
24.81652
24.33141
23.80527
23.24682
22.6705
22.09502
21.54486
21.04589
20.62227
20.29465
20.0789
19.98386
20.01067
20.15372
20.40395
20.74978
21.15049
21.56378
21.95065
22.27789
22.52097
22.66586
22.70794
22.651
22.51157
20.66498
20.29521
19.91534
19.51522
19.10417
18.70574
18.34366
18.03506
17.78919
17.59506
17.44304
17.32867
17.24514
17.18497
17.14066
17.10492
17.07086
17.0321
16.98319
16.92006
16.84002
16.7414
16.62108
16.47767
16.31271
16.12971
15.93359
15.72997
15.52256
15.31399
15.10691
14.90358
14.70579
14.51483
14.33154
14.15639
13.98957
13.83107
13.68077
13.53851
13.40417
13.27775
13.15934
13.0492
12.94757
12.85455
12.76975
12.69283
12.62374
12.56233
12.50842
12.46174
12.42212
12.3905
12.36631
12.34443
12.3253
12.30944
12.29623
12.28464
12.27358
12.26222
12.24965
12.23526
12.21845
12.1986
12.17577
12.15012
12.12191
12.09148
12.05929
12.02587
11.99194
11.95818
11.92533
11.89408
11.86525
11.84015
11.82052
11.80865
11.8073
11.81797
11.84192
11.88036
11.93438
12.00494
12.09287
12.19883
12.32328
12.46654
12.62873
12.80969
13.00867
13.22395
13.45257
13.69001
13.93021
14.16573
14.38824
14.58916
14.76026
14.89394
14.98381
15.02549
15.01726
14.95994
14.85632
14.71137
14.53281
14.33035
14.11329
13.88799
13.65837
13.43152
13.21959
13.03183
12.87309
12.74554
12.64397
12.55211
12.45154
12.32757
12.16594
11.95779
11.70917
11.44197
11.18336
10.94867
10.73764
10.5525
10.39187
10.25318
10.13364
10.02989
9.938194
9.853853
9.772952
9.701035
9.658061
620.5956
548.5333
489.5991
446.3342
413.4593
388.099
368.3549
353.3462
342.4979
327.4894
188.3575
175.8273
165.2181
155.8183
147.7524
141.4049
138.3095
135.9745
126.2431
84.28755
82.5538
81.94075
81.33567
80.68752
79.98416
79.28976
78.55498
77.7053
76.12881
73.00229
70.83074
69.47938
68.47197
67.59038
66.75053
65.92114
65.09065
64.25725
64.3388
63.54815
62.42673
61.21787
60.03306
58.91177
57.86166
56.87744
55.95216
55.08527
54.2449
53.41387
52.58282
51.75071
50.92401
50.11
49.31431
48.54937
44.88315
44.2341
43.61756
43.02521
42.45137
41.89095
41.34089
40.7998
40.26834
39.74673
39.23415
38.73337
38.24617
37.77036
37.30371
36.84476
36.39244
35.94707
35.50998
35.08181
34.66448
34.2608
33.86979
33.48873
33.11565
32.74968
32.39096
32.04019
31.69732
31.3633
31.03798
30.71875
30.4034
30.0911
29.78197
29.47743
29.17802
28.87605
28.62897
28.38135
28.13393
27.88619
27.63838
27.39205
27.14941
26.91201
26.68035
26.45438
26.2352
26.02468
25.82475
25.63699
25.46182
25.29771
25.14274
24.99562
24.85696
24.72618
24.59752
24.46998
24.34628
24.22584
24.10435
23.97884
23.8496
23.71852
23.58623
23.45414
23.32489
23.20203
23.08899
22.98977
22.91004
22.85381
22.82093
22.81208
22.82828
22.87104
22.94635
23.05678
23.20319
23.38969
23.60678
23.83395
24.04722
24.22976
24.35415
24.39352
24.34063
24.18645
23.92036
23.5442
23.07807
22.5695
22.1118
21.8301
21.865
22.36168
23.4214
24.94099
26.56393
27.83516
28.46422
28.47659
28.1301
27.783
27.6089
27.70062
28.1406
28.98699
30.24614
31.84692
33.63451
35.39335
36.89334
37.94007
38.41097
38.26855
37.55205
36.35663
34.80883
33.04702
31.21903
29.47859
27.84365
26.37115
25.10464
24.07274
23.28432
22.72747
22.37586
22.19473
22.13746
22.15275
22.19273
22.21955
22.21139
22.16079
22.07018
21.94765
21.80655
21.66975
21.57379
21.5378
21.57705
21.71055
21.96293
22.36663
22.96478
23.80644
24.91527
26.24426
27.70076
29.21338
30.73444
32.21546
33.59284
34.79333
35.73631
36.36964
36.66757
36.63099
36.2819
35.65805
34.80785
33.78606
32.648
31.44534
30.22434
29.02348
27.87237
26.79413
25.80551
24.90419
24.08401
23.34525
22.68726
22.10763
21.60554
21.17895
20.82714
20.54813
20.34606
20.21323
20.15167
20.1569
20.26519
20.4023
20.57404
20.78437
21.0369
21.33319
21.674
22.05962
22.48944
22.96093
23.46908
24.00634
24.56295
25.12742
25.6869
26.22785
26.73618
27.197
27.59648
27.9218
28.16162
28.30575
28.34713
28.28297
28.11543
27.85258
27.50657
27.09212
26.62614
26.12636
25.60934
25.089
24.57685
24.08217
23.61234
23.1739
22.77251
22.40926
22.08235
21.78898
21.52514
21.28545
21.06345
20.85175
20.6424
20.42739
20.19918
19.95144
19.68011
19.38475
19.06863
18.73825
18.40423
18.08039
17.78246
17.52645
17.32655
17.19315
17.13109
17.13707
17.2009
17.30644
17.43294
17.55726
17.65672
17.71209
17.70943
17.642
17.50721
17.31128
17.14595
16.92442
16.66337
16.38154
16.09401
15.8159
15.56164
15.34308
15.16859
15.04159
14.95174
14.89233
14.85752
14.8413
14.83734
14.83914
14.84034
14.83493
14.8177
14.78294
14.72574
14.6425
14.53154
14.39329
14.23008
14.04579
13.84521
13.63254
13.41187
13.18763
12.96396
12.74296
12.52633
12.31557
12.11185
11.91605
11.72873
11.55023
11.38068
11.22003
11.06816
10.92493
10.79015
10.66366
10.54524
10.4346
10.33133
10.23502
10.14536
10.06209
9.984954
9.913662
9.847892
9.787263
9.731896
9.681208
9.634849
9.592347
9.553025
9.516223
9.481404
9.448131
9.415917
9.384272
9.352711
9.320908
9.288694
9.255986
9.222799
9.189258
9.155569
9.121977
9.088699
9.056046
9.024465
8.99461
8.967243
8.942956
8.922382
8.906211
8.895164
8.88995
8.891266
8.899804
8.916262
8.941361
8.975853
9.020538
9.076292
9.144103
9.225082
9.320431
9.431336
9.558802
9.70344
9.865245
10.04336
10.23592
10.44008
10.65208
10.86727
11.08016
11.28454
11.47403
11.64242
11.78385
11.89303
11.96598
12.00078
11.99737
11.95666
11.88006
11.77076
11.63576
11.48417
11.32397
11.1618
11.00271
10.84807
10.69514
10.53882
10.37236
10.18719
9.977123
9.745165
9.503283
9.267172
9.050886
8.857301
8.684995
8.533216
8.400708
8.285592
8.185794
8.098463
8.021539
7.95183
7.891701
7.843732
354.3017
257.5255
368.5178
167.4446
131.7679
97.58531
84.7515
73.99924
65.04806
60.77475
59.02147
58.09068
57.21921
56.41811
55.63494
54.92521
54.27269
53.65871
53.12069
52.72429
52.41825
52.24516
52.36503
52.65605
52.99279
53.36718
53.77037
54.19532
54.61675
54.95563
55.12528
53.86987
54.41674
55.03095
55.53824
55.94724
56.25382
56.44568
56.51162
56.45989
56.30552
56.02614
55.6451
55.18795
54.6694
54.09795
53.48152
52.82792
52.14478
51.44011
50.7245
50.00418
49.27411
48.53544
47.79102
47.04415
46.29879
45.56058
44.83329
44.1215
43.42649
42.74863
42.08701
41.44048
40.80918
40.19209
39.59213
38.99965
38.46101
37.93482
37.42533
36.93079
36.44877
35.97731
35.51494
35.06096
34.61539
34.1792
33.75398
33.34156
32.94228
32.55462
32.17604
31.80404
31.4369
31.07433
30.71776
30.36996
30.03329
29.70835
29.39384
29.08745
28.78697
28.49136
28.20108
27.9178
27.64344
27.37902
27.12391
26.87562
26.63146
26.38946
26.15004
25.91466
25.68619
25.46506
25.25353
25.04993
24.85192
24.65778
24.46777
24.28386
24.10828
23.94204
23.7848
23.63591
23.49557
23.36518
23.24671
23.14136
23.04803
22.9626
22.87984
22.79628
22.7119
22.62853
22.54536
22.46045
22.3732
22.28284
22.18774
22.08749
21.98321
21.87702
21.77078
21.66675
21.56785
21.47674
21.39579
21.32753
21.27419
21.23705
21.21775
21.21637
21.23202
21.26539
21.31878
21.39374
21.49048
21.60665
21.73396
21.85924
21.96825
22.05002
22.09295
22.08699
22.0258
21.90378
21.71808
21.47664
21.20891
20.98254
20.92976
21.2868
22.35755
24.36135
27.39666
31.05043
34.35
36.43841
37.07176
36.52263
35.26648
33.813
32.43092
31.24725
30.34539
29.77913
29.57694
29.72947
30.1762
30.80027
31.44758
31.95891
32.20312
32.09862
31.61959
30.79134
29.67766
28.36646
26.95874
25.56983
24.28826
23.16341
22.24762
21.58002
21.17785
21.02852
21.09511
21.32389
21.64737
21.98762
22.27974
22.48056
22.57277
22.55969
22.45511
22.27918
22.05626
21.81316
21.58531
21.38806
21.23087
21.12349
21.07628
21.1025
21.22018
21.44971
21.8069
22.29689
22.91172
23.63314
24.43477
25.28155
26.12934
26.92684
27.62328
28.17453
28.5487
28.7286
28.71092
28.50385
28.12546
27.59745
26.94829
26.20878
25.41047
24.58243
23.75041
22.93622
22.15725
21.42717
20.75654
20.14394
19.58644
19.08576
18.64187
18.25359
17.92044
17.64094
17.41611
17.24542
17.1279
17.06101
17.04546
17.07687
17.15155
17.26513
17.41388
17.59469
17.80491
18.04249
18.30584
18.59344
18.90364
19.23464
19.58449
19.95095
20.33087
20.72116
21.11777
21.5157
21.90854
22.28815
22.64598
22.9715
23.25492
23.48626
23.65651
23.75925
23.79028
23.74804
23.63426
23.45415
23.21548
22.92909
22.60662
22.26033
21.90209
21.54258
21.19107
20.85479
20.5386
20.24557
19.97742
19.73461
19.5164
19.32098
19.14545
18.98596
18.83783
18.69565
18.5537
18.40631
18.24897
18.07909
17.89589
17.701
17.49913
17.29816
17.10814
16.93985
16.80294
16.70367
16.64331
16.61764
16.61703
16.62749
16.63277
16.61693
16.5668
16.47368
16.33477
16.15338
15.9466
15.7157
15.46976
15.22034
14.97755
14.75068
14.54798
14.37613
14.23967
14.14098
14.07522
14.03541
14.01609
14.01211
14.01803
14.0282
14.03695
14.039
14.02811
13.99717
13.94057
13.85491
13.73979
13.59656
13.42777
13.2371
13.029
12.80806
12.5796
12.3487
12.11764
11.8876
11.66023
11.43722
11.22003
11.00992
10.80789
10.61472
10.43075
10.25607
10.09066
9.934381
9.78701
9.648269
9.5178
9.395177
9.279901
9.171475
9.06946
8.973482
8.883206
8.798329
8.718562
8.643677
8.57349
8.507581
8.445499
8.386881
8.331411
8.278771
8.228649
8.180716
8.134642
8.090154
8.047053
8.005095
7.963953
7.923497
7.883662
7.844454
7.805934
7.768215
7.73145
7.695829
7.661581
7.62896
7.598235
7.569683
7.54359
7.520255
7.49999
7.483116
7.469971
7.460915
7.456346
7.456712
7.462539
7.474452
7.49321
7.519736
7.555152
7.600778
7.658104
7.728714
7.814178
7.915884
8.034856
8.171596
8.325992
8.497265
8.683896
8.883562
9.093144
9.308781
9.525829
9.73875
9.941197
10.12648
10.28803
10.41962
10.51534
10.57047
10.58318
10.55554
10.49194
10.39737
10.27696
10.13524
9.975534
9.800917
9.614709
9.418526
9.210942
8.990816
8.761806
8.531869
8.310477
8.105623
7.92146
7.756025
7.608753
7.478877
7.365026
7.2656
7.178333
7.101738
7.032978
6.973285
6.922727
313.5541
211.2171
159.6572
142.7705
116.4417
98.02472
84.60782
79.46828
73.67468
70.32134
67.42176
63.49271
59.53194
55.76713
52.31022
48.49063
42.56129
41.18356
40.17045
39.61333
39.45725
39.56049
39.77442
40.04632
40.37011
40.74632
41.18423
41.70904
42.29604
42.92596
43.59101
44.28636
45.00495
45.74247
46.49309
47.25618
48.03322
48.82787
49.65696
50.54963
51.48338
52.34579
53.00822
53.68176
54.28884
54.76567
55.09541
55.26899
55.2844
55.1462
54.86764
54.47271
53.97033
53.36984
52.6854
51.9337
51.12977
50.28761
49.42005
48.53864
47.65281
46.76915
45.89443
45.03089
44.17961
43.34037
42.51396
41.70279
40.91062
40.14661
39.41474
38.71594
38.04879
37.41039
36.79682
36.20456
35.63082
35.07485
34.53569
34.01553
33.51882
33.04809
32.6008
32.17227
31.75794
31.35388
30.9575
30.568
30.1868
29.81697
29.46151
29.12184
28.79667
28.48211
28.17335
27.86675
27.56113
27.25851
26.96361
26.68133
26.41408
26.16045
25.91659
25.67849
25.44392
25.21355
24.99048
24.77856
24.58008
24.3946
24.21925
24.05006
23.88403
23.7215
23.56556
23.4202
23.28762
23.16703
23.05546
22.94997
22.84926
22.75469
22.66979
22.59766
22.53865
22.49098
22.45333
22.42597
22.41088
22.40938
22.4195
22.43469
22.44527
22.44333
22.42724
22.40141
22.37119
22.33791
22.29866
22.25012
22.19106
22.12389
22.05043
21.97321
21.89458
21.8178
21.74877
21.69139
21.64801
21.6202
21.60874
21.61082
21.61915
21.62687
21.63841
21.65387
21.67218
21.69451
21.72228
21.75571
21.79236
21.82694
21.85182
21.85991
21.84597
21.80663
21.7411
21.65033
21.53669
21.40916
21.29379
21.25209
21.41168
22.02162
23.49808
26.35821
30.6464
36.02271
41.61069
46.03967
48.38169
48.65392
47.43526
45.3525
42.9059
40.381
37.97611
35.82367
33.99871
32.54385
31.47345
30.76643
30.35731
30.14127
29.99044
29.78217
29.42387
28.86395
28.09222
27.13314
26.0375
24.87446
23.72751
22.69595
21.84989
21.25112
20.94839
20.96188
21.26772
21.80411
22.48123
23.18857
23.81617
24.2928
24.59378
24.71922
24.67981
24.49645
24.19935
23.82762
23.42162
23.02207
22.64056
22.28589
21.96468
21.68287
21.44645
21.26337
21.14362
21.09935
21.14267
21.28156
21.51416
21.82918
22.20724
22.62189
23.04144
23.43238
23.76306
24.00706
24.14529
24.16655
24.06715
23.85009
23.52405
23.1025
22.60249
22.04314
21.44415
20.82455
20.20166
19.59036
19.00279
18.44856
17.93559
17.46858
17.04481
16.66346
16.32494
16.02882
15.77402
15.56039
15.38883
15.25785
15.16573
15.11066
15.0905
15.1033
15.14661
15.21768
15.3138
15.43235
15.57094
15.72739
15.89979
16.08666
16.28697
16.50027
16.72651
16.96605
17.21914
17.48595
17.766
18.05774
18.35838
18.66309
18.96786
19.26642
19.5513
19.81547
20.04901
20.2438
20.3932
20.4922
20.53786
20.52929
20.46916
20.3617
20.21315
20.03111
19.82411
19.60091
19.36971
19.13748
18.90986
18.69141
18.48568
18.29528
18.12202
17.96684
17.83001
17.71117
17.60919
17.52223
17.4478
17.3832
17.3251
17.26926
17.21078
17.14536
17.07036
16.98501
16.89088
16.79224
16.69496
16.60487
16.52578
16.45799
16.39767
16.33748
16.26798
16.17964
16.06477
15.91935
15.74353
15.54167
15.31983
15.08823
14.85804
14.63864
14.43705
14.25825
14.10565
13.98095
13.88439
13.81363
13.76309
13.72833
13.70541
13.69041
13.67915
13.6671
13.64858
13.61638
13.5643
13.48875
13.3882
13.26285
13.11369
12.94248
12.75201
12.5462
12.3298
12.10775
11.88301
11.65615
11.42857
11.20209
10.97837
10.75901
10.54546
10.33896
10.14037
9.950199
9.768798
9.596379
9.432978
9.278495
9.132729
8.995342
8.865827
8.743627
8.628184
8.518985
8.415592
8.317637
8.224811
8.136836
8.053434
7.974303
7.899067
7.827387
7.75899
7.693625
7.63104
7.570994
7.513262
7.45764
7.403958
7.352081
7.301952
7.253294
7.205986
7.159962
7.11519
7.071676
7.029455
6.98858
6.949126
6.911177
6.874824
6.840168
6.807313
6.776372
6.747464
6.720714
6.696259
6.674248
6.654855
6.638287
6.624809
6.614762
6.60859
6.60687
6.610339
6.619934
6.636799
6.662292
6.697952
6.745428
6.806373
6.882303
6.974477
7.083809
7.210825
7.355635
7.517914
7.696866
7.891128
8.098569
8.316043
8.539226
8.762601
8.979504
9.182197
9.362214
9.51134
9.623051
9.693511
9.721387
9.707145
9.652548
9.560224
9.433584
9.277236
9.096798
8.897436
8.683189
8.458811
8.230815
8.006562
7.792626
7.593712
7.412782
7.249475
7.102934
6.972436
6.856814
6.754689
6.664195
6.584014
6.511871
6.448225
6.394461
158.9625
117.3958
180.4272
88.82833
76.24728
65.51704
62.4112
60.26632
57.89478
57.04808
55.88458
54.13064
52.4918
50.7183
48.57868
44.16308
43.20324
42.29731
41.41145
40.55022
39.66745
38.81134
38.03974
37.3899
36.88802
36.54358
36.27543
36.00019
35.91045
36.03286
36.34783
36.79607
37.31405
37.87343
38.46679
39.10139
39.7879
40.50789
41.25254
42.01797
42.80093
43.59774
44.40247
45.20862
46.01908
46.8429
47.68417
48.53277
49.40844
50.36681
51.27287
52.07766
52.70349
53.22751
53.57046
53.70773
53.64081
53.3818
52.9469
52.35639
51.6341
50.80543
49.89321
48.91637
47.89178
46.83592
45.76344
44.68746
43.62013
42.57241
41.55335
40.57022
39.62666
38.72448
37.85975
37.0363
36.2523
35.50627
34.79863
34.13297
33.5086
32.92493
32.38007
31.86911
31.38508
30.92072
30.47067
30.03227
29.60643
29.19649
28.80721
28.44212
28.10084
27.77901
27.47028
27.16834
26.86865
26.56943
26.27245
25.98263
25.70592
25.44627
25.20369
24.97336
24.74818
24.52192
24.29178
24.06031
23.83486
23.624
23.43341
23.26326
23.10827
22.96207
22.82148
22.68841
22.5691
22.47009
22.39426
22.33942
22.3002
22.27079
22.24887
22.23782
22.24376
22.27126
22.31963
22.38239
22.45171
22.52344
22.59836
22.68352
22.78796
22.91462
23.05789
23.21055
23.37067
23.54186
23.7298
23.93253
24.13585
24.31468
24.44547
24.52158
24.55799
24.57812
24.59423
24.60839
24.61201
24.60117
24.57464
24.53386
24.48115
24.4229
24.36471
24.31274
24.27902
24.27548
24.30571
24.37211
24.47128
24.58607
24.68664
24.74458
24.75687
24.73697
24.68668
24.6076
24.50108
24.3693
24.21556
24.0483
23.87004
23.68109
23.48235
23.28099
23.0848
22.9036
22.75229
22.65961
22.68675
22.9623
23.74303
25.42292
28.39255
32.93273
39.28739
46.95672
54.1723
58.91583
60.67141
59.97377
57.69975
54.66654
51.43725
48.21243
45.07747
42.10271
39.38152
36.98637
34.96272
33.32373
32.04348
31.05563
30.26397
29.5593
28.84671
28.06748
27.1969
26.23905
25.22234
24.19533
23.22471
22.40341
21.8317
21.58706
21.72451
22.2619
23.13933
24.2249
25.35874
26.39092
27.21494
27.78293
28.10028
28.18253
28.04127
27.70176
27.21137
26.62591
26.00367
25.38762
24.7886
24.21604
23.67535
23.17014
22.70407
22.28119
21.90717
21.59062
21.34234
21.17049
21.0771
21.05679
21.09861
21.18687
21.30227
21.42336
21.52845
21.59784
21.61543
21.56946
21.45261
21.26199
20.99891
20.66854
20.27934
19.84239
19.37039
18.87668
18.37419
17.87471
17.38831
16.92333
16.48628
16.08174
15.71304
15.38067
15.08302
14.8191
14.58783
14.38941
14.22384
14.08968
13.98536
13.90915
13.85926
13.83395
13.83141
13.84966
13.88668
13.94044
14.00898
14.09036
14.18288
14.28513
14.39621
14.51579
14.64411
14.78195
14.93041
15.09074
15.264
15.45082
15.65118
15.86422
16.08822
16.3204
16.55678
16.79247
17.02168
17.23814
17.43543
17.60739
17.74872
17.85534
17.92479
17.95637
17.95134
17.91274
17.84506
17.75367
17.64438
17.52288
17.39434
17.26326
17.1334
17.00795
16.88946
16.77992
16.681
16.59425
16.52113
16.46301
16.42122
16.39721
16.39205
16.4057
16.43639
16.48025
16.53107
16.58049
16.61949
16.64033
16.63853
16.61414
16.57069
16.51223
16.44164
16.35997
16.26609
16.15708
16.02911
15.87912
15.70651
15.51355
15.305
15.08844
14.87254
14.66501
14.47168
14.29651
14.14169
14.00756
13.89275
13.79476
13.70981
13.63489
13.5678
13.50653
13.44868
13.39038
13.32633
13.25199
13.16459
13.06223
12.94406
12.80997
12.66
12.49443
12.31438
12.12227
11.92158
11.71543
11.50469
11.29023
11.07374
10.85688
10.64126
10.42853
10.22017
10.01743
9.821307
9.63259
9.451898
9.279603
9.115871
8.9607
8.813912
8.67512
8.543837
8.419537
8.301658
8.189672
8.083127
7.981672
7.885046
7.792988
7.705183
7.621298
7.540992
7.463951
7.389905
7.318619
7.249887
7.18353
7.119393
7.05735
6.997297
6.939153
6.882887
6.828468
6.775747
6.724679
6.67524
6.627419
6.581217
6.536642
6.493705
6.452416
6.412789
6.374835
6.33857
6.304013
6.271191
6.240132
6.210872
6.183455
6.157944
6.134433
6.113064
6.094046
6.077681
6.064387
6.054728
6.04944
6.049457
6.055922
6.07017
6.09369
6.128032
6.174702
6.235055
6.310232
6.40115
6.508546
6.633019
6.77503
6.934789
7.112038
7.305759
7.513894
7.733104
7.958575
8.183894
8.401177
8.601642
8.776639
8.918696
9.022064
9.08277
9.098579
9.069067
8.995833
8.882592
8.734639
8.557888
8.358775
8.145148
7.925884
7.709254
7.501474
7.306448
7.126523
6.962697
6.81432
6.680874
6.561425
6.454809
6.35947
6.274212
6.197194
6.128445
6.07074
64.40925
48.31427
46.91478
44.60475
43.64085
42.47184
41.56587
40.80882
40.19334
39.19279
36.64509
36.58377
36.54178
36.51172
36.46112
36.37667
36.29377
36.24194
36.2308
36.24553
36.14041
35.79173
35.44177
35.09521
34.7604
34.44084
34.16038
33.94147
33.79285
33.72004
33.71889
33.77816
33.91735
34.17065
34.54892
35.03941
35.60639
36.21318
36.84048
37.49046
38.17885
38.8965
39.64159
40.41206
41.20401
42.01613
42.84863
43.70189
44.54407
45.38781
46.26111
47.18057
48.06401
48.93834
49.75168
50.42928
50.92403
51.201
51.26053
51.09218
50.70005
50.10083
49.31968
48.38477
47.32617
46.17565
44.96394
43.7201
42.4672
41.22267
39.99974
38.8071
37.65214
36.54218
35.48579
34.49228
33.57336
32.73184
31.96296
31.25651
30.60211
29.99197
29.42043
28.88422
28.38088
27.91475
27.48848
27.10066
26.74518
26.41264
26.09331
25.7801
25.46981
25.1637
24.86683
24.58607
24.327
24.09091
23.87386
23.66845
23.46653
23.26168
23.05107
22.83656
22.62447
22.4236
22.24135
22.07996
21.93507
21.79773
21.66024
21.51958
21.38075
21.25652
21.16087
21.10117
21.07538
21.07541
21.09446
21.13384
21.20883
21.34019
21.53329
21.77559
22.04486
22.32153
22.59614
22.8759
23.18096
23.52863
23.92107
24.34033
24.75661
25.14851
25.51119
25.85705
26.21282
26.6016
27.01981
27.44224
27.84839
28.23767
28.62551
29.03058
29.44604
29.83452
30.14294
30.32814
30.39137
30.38681
30.37427
30.3796
30.39671
30.40902
30.39819
30.36132
30.30721
30.23851
30.16452
30.09603
30.04634
30.02926
30.07025
30.17872
30.3642
30.61913
30.89794
31.12716
31.24035
31.21139
31.08106
30.86777
30.57908
30.21704
29.78645
29.29766
28.7737
28.23052
27.68084
27.1351
26.62658
26.17511
25.80137
25.53617
25.43529
25.60979
26.27706
27.79308
30.50813
34.81687
41.17839
49.88575
59.72795
67.63702
71.33327
71.51368
69.59554
66.46424
62.66717
58.75674
54.98599
51.36176
47.89068
44.61802
41.60877
38.92402
36.6036
34.65336
33.03976
31.69985
30.54915
29.49568
28.47234
27.44888
26.42629
25.42675
24.48973
23.6773
23.0851
22.8437
23.05657
23.78435
24.98655
26.50474
28.10334
29.57638
30.78939
31.67729
32.2426
32.52744
32.54897
32.29306
31.77694
31.06523
30.23548
29.37158
28.50798
27.65927
26.8364
26.04866
25.30293
24.60315
23.95281
23.35482
22.813
22.33337
21.92152
21.57956
21.3051
21.09116
20.92764
20.80152
20.69833
20.60318
20.50212
20.38288
20.2354
20.05206
19.82793
19.56087
19.25149
18.90309
18.52144
18.11426
17.69044
17.25929
16.82971
16.40972
16.00611
15.62427
15.26808
14.94008
14.64171
14.37322
14.133
13.91977
13.73312
13.57207
13.43518
13.3209
13.22765
13.15389
13.09818
13.05915
13.03546
13.02574
13.02864
13.04274
13.06663
13.09896
13.13857
13.18464
13.23678
13.29512
13.36024
13.43315
13.51506
13.60726
13.71084
13.82661
13.95492
14.09561
14.24787
14.4101
14.57993
14.75421
14.92909
15.10008
15.26241
15.41134
15.54258
15.65259
15.73891
15.80046
15.83755
15.85178
15.84581
15.8231
15.78746
15.7427
15.69235
15.63939
15.58619
15.53452
15.4858
15.4412
15.40195
15.36951
15.34562
15.33254
15.33337
15.35181
15.39167
15.4562
15.54745
15.66483
15.80406
15.95647
16.10939
16.24822
16.35979
16.43522
16.47101
16.46819
16.43048
16.3623
16.26726
16.1477
16.0052
15.84167
15.66007
15.46456
15.26058
15.05431
14.85142
14.65622
14.47142
14.29816
14.13629
13.98449
13.8408
13.70337
13.57101
13.44357
13.32078
13.20115
13.08264
12.96395
12.84436
12.72273
12.59744
12.46692
12.32994
12.18521
12.03138
11.86776
11.69498
11.51451
11.32686
11.13253
10.93328
10.73088
10.52703
10.3234
10.12162
9.923179
9.729394
9.541361
9.359956
9.185824
9.019386
8.860858
8.710259
8.567405
8.431962
8.303524
8.181579
8.065565
7.954942
7.849259
7.748187
7.651471
7.55884
7.470007
7.384659
7.302477
7.223166
7.146478
7.072219
7.000247
6.930411
6.862593
6.796708
6.732704
6.670555
6.610264
6.551881
6.495352
6.440636
6.387732
6.336643
6.287369
6.239905
6.194241
6.150356
6.108226
6.067819
6.029106
5.992059
5.956655
5.922873
5.890694
5.860104
5.831101
5.803708
5.777985
5.754052
5.732104
5.712437
5.695467
5.681759
5.672052
5.667273
5.668539
5.677124
5.694382
5.721656
5.760168
5.810965
5.874936
5.952911
6.045773
6.154513
6.280144
6.42349
6.584908
6.763995
6.959295
7.168017
7.385799
7.606614
7.822973
8.026496
8.208712
8.361767
8.478882
8.554697
8.585692
8.570641
8.510811
8.409675
8.272408
8.105783
7.918312
7.719456
7.517977
7.320636
7.13196
6.95481
6.790957
6.640693
6.504027
6.380472
6.269229
6.169099
6.079067
5.997641
5.92459
5.863593
88.4352
37.49928
31.47787
30.2306
29.59545
29.34344
29.38556
29.5986
29.93872
30.36823
30.73417
30.92261
31.11377
31.29204
31.45966
31.60887
31.7472
31.87562
31.98077
32.03962
32.02639
31.95706
31.88677
31.82327
31.77326
31.74383
31.74466
31.7873
31.87074
31.99643
32.16573
32.38249
32.65808
33.00138
33.41704
33.89723
34.42204
34.97181
35.55539
36.2002
36.89538
37.64004
38.43562
39.26971
40.12523
41.00035
41.8981
42.85055
43.74615
44.63906
45.52957
46.41517
47.23365
47.92316
48.43545
48.71984
48.75918
48.5554
48.09003
47.38701
46.47435
45.38425
44.15384
42.82118
41.42379
39.99747
38.57547
37.18819
35.85789
34.59811
33.41448
32.30639
31.27018
30.30872
29.43057
28.63814
27.93159
27.30801
26.75943
26.27244
25.82574
25.40496
25.00215
24.61667
24.25363
23.92088
23.62416
23.36347
23.1318
22.91717
22.70741
22.49429
22.27511
22.05257
21.83361
21.62751
21.4419
21.27926