/*--------------------------------*- C++ -*----------------------------------*\
| =========                 |                                                 |
| \\      /  F ield         | foam-extend: Open Source CFD                    |
|  \\    /   O peration     | Version:     3.1                                |
|   \\  /    A nd           | Web:         http://www.extend-project.de       |
|    \\/     M anipulation  |                                                 |
\*---------------------------------------------------------------------------*/
FoamFile
{
    version     2.0;
    format      ascii;
    class       volScalarField;
    location    "15.5";
    object      p;
}
// * * * * * * * * * * * * * * * * * * * * * * * * * * * * * * * * * * * * * //

dimensions      [1 -1 -2 0 0 0 0];

internalField   nonuniform List<scalar> 
119952
(
5449.304
3895.854
3690.253
3924.333
4170.291
3991.06
3945.686
3912.957
3895.995
3884.625
3875.82
3868.725
3862.427
3856.268
3849.864
3842.92
3835.553
3823.555
3796.58
3699.391
4064.876
3890.136
3811.073
4283.673
4282.938
4345.525
4409.476
4539.765
4878.395
7917.038
3102.732
3052.187
3056.225
3053.884
3051.611
3052.239
3056.619
3061.557
3065.316
3049.457
3032.247
3054.442
3055.697
3060.303
3065.054
3071.394
3078.714
3085.848
3093.936
3095.089
3096.523
3083.219
3085.915
3093.797
3101.169
3110.46
3121.64
3133.167
3153.357
3161.076
3173.879
3198.833
3225.072
3253.247
3284.676
3319.723
3366.136
3472.014
3664.018
3549.427
3517.063
3624.156
3682.98
3676.56
3645.276
3627.209
3616.245
3607.276
3600.069
3594.205
3588.79
3583.259
3577.455
3571.359
3564.905
3558.125
3552.351
3556.34
3599.077
3641.892
3663.007
3793.364
3975.442
4040.024
4079.012
4118.396
4080.735
3861.844
3874.242
3974.362
4042.294
4107.837
4172.247
4233.359
4290.381
4342.354
4386.934
4421.395
4443.127
4447.958
4430.373
4385.426
4316.257
4233.997
4154.672
4096.662
4071.164
4085.131
4136.664
4215.096
4302.06
4378.971
4443.977
4513.391
4598.536
4697.87
4805.435
4917.055
5029.961
5141.447
5250.24
5355.607
5456.951
5552.688
5640.958
5721.494
5792.593
5852.471
5899.331
5931.609
5947.665
5945.782
5924.521
5884.877
5828.643
5758.605
5681.501
5600.439
5521.063
5448.41
5385.26
5334.214
5300.353
5285.282
5288.967
5310.954
5350.541
5405.812
5474.464
5552.758
5633.378
5698.543
5716.353
5699.131
5712.008
5769.018
5842.687
5911.401
5969.464
6018.676
6062.026
6102.276
6141.796
6181.305
6220.955
6260.529
6299.681
6338.299
6376.156
6412.953
6448.928
6484.032
6518.055
6551.282
6583.641
6615.199
6645.857
6675.544
6704.493
6732.86
6760.56
6787.437
6813.68
6839.289
6864.39
6888.377
6910.773
6970.961
6999.313
7018.551
7043.154
7064.719
7085.785
7105.98
7125.79
7145.359
7164.232
7181.991
7198.573
7214.2
7229.193
7243.806
7258.187
7272.411
7286.512
7300.483
7314.235
7327.675
7340.748
7353.42
7365.698
7377.589
7389.112
7400.304
7411.186
7421.767
7432.066
7442.113
7451.89
7461.329
7470.209
7477.982
7484.963
7501.369
7516.171
7530.129
7543.526
7556.406
7568.912
7581.054
7592.833
7604.238
7615.253
7625.858
7636.04
7645.794
7655.124
7664.042
7672.552
7680.645
7688.28
7695.379
7701.82
7707.429
7712.028
7715.428
7717.403
7717.754
7716.335
7712.97
7707.488
7699.896
7689.978
7677.92
7663.733
7647.566
7628.951
7584.64
7560.373
7536.672
7516.148
7496.854
7479.618
7465.026
7453.606
7445.958
7442.571
7443.817
7449.828
7460.59
7475.893
7495.311
7518.216
7543.791
7571.077
7599.03
7626.623
7652.966
7677.317
7699.1
7717.945
7733.645
7746.104
7755.304
7761.281
7764.133
7764.049
7761.292
7756.184
7749.11
7740.473
7730.658
7720.008
7708.821
7697.35
7685.808
7674.377
7663.213
7652.463
7642.261
7632.776
7624.064
7615.414
7605.826
7596.354
7587.903
7580.221
7573.32
7567.073
7561.418
7554.465
7541.855
7542.813
7541.166
7537.957
7535.554
7533.464
7531.679
7530.319
7529.339
7528.701
7528.392
7528.366
7528.609
7529.098
7529.8
7530.688
7531.731
7532.901
7534.167
7535.501
7536.874
7538.261
7539.635
7540.973
7542.254
7543.46
7544.567
7545.565
7546.441
7547.178
7547.763
7548.18
7548.411
7548.454
7548.288
7547.913
7547.325
7546.525
7545.514
7544.293
7542.862
7541.22
7539.371
7537.318
7535.066
7532.621
7529.984
7527.138
7524.081
7520.803
7517.284
7513.516
7509.457
7505.106
7500.435
7495.41
7490.001
7484.155
7477.728
7470.752
7463.634
7456.108
7447.983
7439.392
7430.225
7419.959
7408.843
7397.647
7386.51
7375.64
7365.495
7356.767
7349.557
7344.087
7340.167
7337.34
7335.383
7334.127
7333.383
7332.86
7332.017
7330.25
7328.82
7342.123
7405.229
5818.872
5669.792
5492.938
5322.61
5155.197
4992.232
4834.646
4682.693
4536.774
4372.155
4234.897
4113.75
3992.874
3882.589
3779.992
3684.988
3598.297
3515.403
3393.114
3347.913
3278.221
3212.011
3159.064
3112.087
3069.747
3032.047
2997.852
2968.723
2946.62
2909.918
2888.273
2870.927
2854.302
2840.729
2828.498
2817.494
2809.816
2810.545
2787.556
2774.172
2771.663
2769.706
2767.61
2767.294
2767.996
2769.936
2772.904
2770.716
2777.038
2783.937
2788.901
2793.607
2799.033
2805.074
2812.345
2827.148
2754.848
2762.131
2772.63
2781.265
2787.846
2794.453
2802.687
2812.909
2824.815
2837.37
2853.796
2873.925
2895.628
2919.747
2948.299
2982.986
3025.97
3079.283
3139.414
3194.937
3224.988
3237.743
3263.694
3292.225
3307.979
3309.369
3302.706
3295.984
3291.131
3287.448
3283.468
3278.708
3273.008
3266.848
3260.863
3256.189
3254.674
3259.17
3274.489
3304.456
3348.918
3408.729
3485.498
3569.968
3638.006
3678.594
3693.989
3684.15
3664.805
3674.618
3719.599
3780.908
3846.585
3910.927
3971.679
4027.848
4078.588
4121.389
4152.594
4166.425
4158.804
4121.852
4049.302
3947.959
3835.133
3731.657
3657.129
3628.46
3643.6
3696.653
3777.582
3873.904
3976.348
4081.801
4192.699
4310.147
4431.7
4554.365
4675.524
4793.305
4906.275
5014.12
5116.27
5212.091
5301.882
5384.277
5458.052
5521.474
5572.968
5610.788
5633.271
5639.464
5627.576
5596.008
5546.233
5480.998
5403.621
5318.664
5231.948
5148.889
5073.808
5012.131
4966.516
4938.828
4930.916
4941.797
4970.301
5014.611
5071.866
5137.818
5207.728
5275.391
5332.257
5374.762
5405.489
5445.493
5502.71
5567.176
5629.914
5686.449
5735.977
5780.259
5821.486
5861.261
5900.197
5938.356
5975.791
6012.64
6048.878
6084.696
6119.898
6154.492
6188.299
6221.397
6253.645
6285.24
6316.362
6346.26
6375.019
6403.557
6431.533
6458.68
6484.996
6511.121
6536.677
6562.051
6587.147
6612.759
6696.43
6722.374
6745.127
6767.776
6790.307
6811.925
6832.922
6853.421
6873.32
6892.395
6910.452
6927.471
6943.584
6958.987
6973.861
6988.345
7002.532
7016.508
7030.246
7043.686
7056.809
7069.579
7081.982
7094.018
7105.687
7117.008
7128.02
7138.754
7149.167
7159.311
7169.226
7178.914
7188.367
7197.628
7207.024
7217.463
7230.236
7244.016
7257.439
7270.533
7283.287
7295.699
7307.773
7319.49
7330.83
7341.766
7352.278
7362.349
7371.968
7381.146
7389.927
7398.261
7406.179
7413.672
7420.701
7427.162
7432.89
7437.66
7441.312
7443.667
7444.487
7443.442
7440.421
7435.261
7427.871
7418.192
7406.221
7392.01
7375.684
7357.854
7274.368
7252.909
7230.096
7208.88
7189.162
7171.159
7155.633
7143.339
7134.805
7130.557
7130.876
7135.961
7145.809
7160.215
7178.767
7200.855
7225.686
7252.307
7279.587
7306.402
7332.068
7355.905
7377.229
7395.697
7411.152
7423.514
7432.826
7439.136
7442.462
7442.96
7440.792
7436.263
7429.808
7421.829
7412.683
7402.694
7392.143
7381.272
7370.287
7359.366
7348.658
7338.285
7328.337
7318.84
7309.731
7300.865
7292.093
7283.576
7275.643
7268.404
7261.807
7255.82
7250.3
7244.919
7239.019
7234.137
7231.205
7229.283
7227.488
7225.675
7224.106
7222.993
7222.156
7221.631
7221.533
7221.67
7222.005
7222.591
7223.375
7224.324
7225.416
7226.629
7227.922
7229.275
7230.662
7232.061
7233.431
7234.768
7236.046
7237.244
7238.351
7239.339
7240.202
7240.926
7241.493
7241.89
7242.104
7242.128
7241.952
7241.57
7240.982
7240.19
7239.195
7238.003
7236.615
7235.036
7233.264
7231.299
7229.139
7226.782
7224.219
7221.439
7218.423
7215.162
7211.647
7207.855
7203.763
7199.352
7194.626
7189.614
7184.234
7178.213
7171.993
7165.435
7157.81
7149.945
7142.296
7133.725
7124.329
7114.836
7104.509
7093.176
7081.956
7070.896
7060.423
7050.926
7043.145
7036.746
7032.449
7029.187
7026.775
7025.18
7024.377
7024.282
7025.226
7027.825
7034.322
7047.286
7068.272
2943.659
2987.399
3053.086
3134.237
3233.514
3349.243
3481.086
3628.148
3789.905
3963.122
4130.581
4324.184
4523.901
4729.099
4937.907
5147.847
5354.145
5555.593
5751.278
5926.506
6095.636
6250.809
6388.675
6504.635
6596.409
6662.668
6702.243
6714.173
6703.929
6663.992
6598.061
6509.672
6401.45
6275.732
6135.257
5982.877
5821.843
5655.473
5473.845
5303.13
5130.213
4959.245
4791.662
4628.34
4470.57
4319.252
4175.494
4038.707
3905.83
3784.378
3669.398
3561.885
3462.371
3370.161
3285.763
3218.021
3039.141
2974.239
2921.574
2870.684
2821.845
2776.98
2736.821
2701.021
2668.99
2639.627
2612.998
2590.801
2571.299
2553.473
2537.708
2524.261
2512.68
2502.501
2493.207
2484.362
2477.09
2470.812
2465.213
2460.873
2458.201
2457.115
2457.338
2458.604
2460.869
2464.966
2470.131
2475.372
2480.779
2486.48
2492.334
2498.278
2503.781
2509.256
2514.721
2521.488
2528.074
2532.917
2537.423
2543.056
2550.599
2560.166
2571.411
2584.586
2599.909
2617.178
2637.193
2661.14
2689.933
2724.343
2763.931
2807.656
2853.873
2901.644
2938.873
2961.729
2983.497
3009.264
3029.641
3039.199
3041.456
3041.2
3039.955
3038.856
3036.151
3031.733
3025.773
3018.73
3011.831
3006.586
3005.09
3009.873
3023.683
3050.086
3089.825
3139.802
3198.501
3264.357
3324.91
3370.009
3398.808
3419.264
3434.814
3455.781
3498.098
3559.94
3628.964
3697.297
3762.097
3822.591
3877.699
3924.154
3956.578
3968.704
3952.304
3894.55
3787.507
3641.768
3485.78
3350.452
3254.159
3210.005
3220.606
3278.854
3371.036
3484.872
3611.907
3747.164
3888.607
4034.501
4181.449
4325.416
4463.21
4593.094
4714.307
4826.703
4930.266
5025.395
5112.749
5191.45
5259.984
5317.324
5361.878
5391.974
5406.16
5402.728
5380.6
5338.939
5279.412
5204.692
5118.371
5025.109
4930.536
4841.689
4763.704
4699.416
4652.835
4626.955
4621.671
4635.715
4667.335
4714.051
4772.662
4839.26
4909.937
4980.304
5045.109
5100.695
5149.457
5202.743
5265.404
5331.729
5395.17
5452.589
5504.038
5550.692
5593.531
5633.658
5672.037
5709.263
5745.635
5781.279
5816.2
5850.43
5884.081
5917.236
5949.795
5981.746
6013.017
6043.587
6073.578
6102.739
6130.847
6158.803
6186.223
6212.373
6238.154
6263.801
6289.066
6314.137
6339.083
6363.962
6388.922
6413.778
6437.888
6461.04
6483.431
6505.237
6526.558
6547.357
6567.518
6586.911
6605.436
6623.087
6639.943
6656.12
6671.742
6686.893
6701.641
6716.009
6730.031
6743.72
6757.026
6769.916
6782.386
6794.423
6806.035
6817.271
6828.13
6838.596
6848.754
6858.676
6868.433
6878.087
6887.746
6897.609
6907.949
6919.062
6931.108
6943.793
6956.635
6969.353
6981.847
6994.095
7006.077
7017.758
7029.091
7040.033
7050.545
7060.604
7070.187
7079.281
7087.79
7095.887
7103.606
7110.919
7117.791
7124.164
7129.913
7134.921
7138.563
7140.921
7141.736
7140.717
7137.644
7132.331
7124.656
7114.565
7102.046
7087.246
7070.292
7052.152
7033.447
7011.676
6988.674
6966.527
6945.597
6926.212
6909.112
6895.094
6884.837
6878.882
6877.392
6880.751
6889.016
6902.007
6919.357
6940.519
6964.748
6991.135
7018.485
7045.518
7071.429
7095.646
7117.554
7136.72
7152.814
7165.671
7175.326
7181.879
7185.544
7186.599
7185.123
7181.267
7175.438
7168.069
7159.509
7150.068
7140.027
7129.611
7119.011
7108.406
7097.948
7087.75
7077.887
7068.4
7059.287
7050.514
7042.038
7033.89
7026.238
7019.205
7012.8
7006.977
7001.723
6997.139
6993.664
6990.575
6987.406
6984.385
6981.77
6979.652
6978.04
6976.865
6976.147
6975.738
6975.702
6975.878
6976.311
6976.979
6977.839
6978.855
6980.005
6981.254
6982.589
6983.976
6985.392
6986.806
6988.215
6989.578
6990.876
6992.094
6993.217
6994.228
6995.111
6995.852
6996.436
6996.851
6997.087
6997.132
6996.98
6996.626
6996.068
6995.309
6994.352
6993.204
6991.87
6990.355
6988.658
6986.776
6984.703
6982.43
6979.952
6977.257
6974.331
6971.164
6967.748
6964.069
6960.099
6955.812
6951.192
6946.238
6940.913
6935.128
6928.917
6922.154
6914.783
6907.153
6899.335
6891.016
6882.359
6873.819
6864.625
6854.45
6843.472
6831.939
6820.889
6810.331
6801.479
6794.275
6788.479
6784.048
6780.861
6778.759
6777.755
6777.828
6779.398
6782.522
6788.558
6797.292
6812.801
2812.334
2784.457
2753.759
2710.423
2682.589
2632.066
2625.776
2636.469
2660.647
2664.988
2651.827
2653.899
2677.691
2719.77
2779.425
2855.74
2948.621
3056.993
3180.843
3319.478
3471.924
3637.901
3814.294
4000.564
4194.665
4394.459
4597.713
4801.922
5004.775
5203.798
5397.743
5559.144
5733.677
5885.565
6017.468
6127.924
6214.723
6276.083
6310.984
6319.63
6302.967
6259.95
6191.144
6099.274
5987.398
5858.344
5715.066
5560.518
5397.617
5229.254
5057.961
4886.364
4715.648
4547.233
4382.433
4222.352
4067.967
3920.111
3779.57
3646.499
3520.62
3402.431
3292.21
3189.706
3094.514
3006.038
2923.786
2846.56
2771.141
2706.804
2652.993
2602.731
2555.093
2511.718
2473.061
2438.541
2407.278
2379.147
2354.505
2332.769
2313.65
2297.246
2283.2
2271.021
2260.191
2250.181
2240.91
2233.03
2226.114
2219.334
2213.604
2209.572
2207.096
2205.952
2206.042
2207.519
2210.623
2215.047
2220.544
2227.042
2233.738
2240.104
2246.183
2252.15
2258.155
2264.36
2270.139
2275.16
2279.477
2283.234
2287.346
2292.612
2299.425
2308.176
2318.454
2330.104
2343.027
2358.056
2376.441
2399.078
2426.346
2458.204
2493.622
2532.083
2572.928
2614.564
2651.524
2680.724
2706.521
2732.49
2755.535
2771.996
2782.224
2788.345
2792.86
2793.45
2791.559
2786.978
2779.858
2770.984
2761.413
2752.736
2747.582
2748.847
2759.022
2780.236
2812.795
2855.113
2905.326
2961.18
3016.45
3065.359
3106.33
3142.968
3177.409
3216.026
3267.822
3333.75
3406.958
3481.18
3553.735
3623.676
3689.405
3745.924
3785.898
3801.438
3780.027
3699.003
3540.667
3323.273
3092.739
2899.836
2772.398
2716.706
2732.265
2806.147
2918.623
3055.975
3211.087
3378.474
3553.217
3731.112
3907.376
4077.212
4237.269
4385.679
4521.455
4644.66
4755.709
4855.273
4943.681
5020.326
5084.546
5136.156
5173.6
5194.728
5198.339
5183.003
5146.747
5089.522
5014.535
4924.548
4823.548
4717.643
4613.298
4516.242
4430.981
4361.859
4314.016
4289.665
4287.514
4305.875
4342.237
4393.488
4456.397
4527.558
4603.256
4679.524
4752.928
4821.502
4886.345
4951.926
5020.057
5087.974
5152.386
5211.812
5266.121
5315.651
5361.101
5403.399
5443.306
5481.289
5517.663
5552.697
5586.641
5619.733
5652.146
5683.937
5715.109
5745.676
5775.608
5804.933
5833.66
5861.944
5888.947
5915.667
5941.707
5966.919
5991.915
6016.65
6041.118
6065.423
6089.613
6113.836
6138.064
6162.07
6185.862
6209.216
6232.014
6254.342
6276.247
6297.67
6318.496
6338.596
6357.881
6376.338
6394.018
6411.003
6427.37
6443.189
6458.531
6473.446
6487.929
6501.912
6515.424
6528.535
6541.222
6553.441
6565.181
6576.47
6587.367
6597.919
6608.153
6618.104
6627.871
6637.586
6647.37
6657.357
6667.718
6678.606
6690.125
6702.21
6714.569
6726.929
6739.162
6751.228
6763.097
6774.719
6786.037
6797
6807.567
6817.697
6827.342
6836.475
6845.118
6853.338
6861.129
6868.461
6875.342
6881.776
6887.637
6892.702
6896.696
6899.431
6900.635
6900.037
6897.373
6892.42
6885.035
6875.15
6862.767
6848.006
6831.041
6812.188
6791.527
6768.673
6744.918
6721.558
6699.225
6678.467
6659.971
6644.518
6632.899
6625.881
6622.833
6625.025
6632.364
6644.664
6661.564
6682.585
6706.985
6733.845
6761.742
6789.466
6816.346
6841.621
6864.634
6884.874
6901.854
6915.341
6925.283
6931.826
6935.424
6936.272
6934.415
6930.283
6924.393
6917.073
6908.607
6899.286
6889.387
6879.132
6868.678
6858.184
6847.804
6837.652
6827.808
6818.325
6809.218
6800.487
6792.133
6784.188
6776.746
6769.889
6763.65
6758.029
6753.053
6748.735
6745.025
6741.484
6738.192
6735.442
6733.309
6731.689
6730.485
6729.648
6729.158
6728.985
6729.119
6729.577
6730.197
6730.999
6731.978
6733.105
6734.352
6735.691
6737.1
6738.554
6740.028
6741.498
6742.944
6744.342
6745.672
6746.919
6748.065
6749.094
6749.993
6750.747
6751.345
6751.772
6752.02
6752.079
6751.941
6751.601
6751.056
6750.307
6749.358
6748.213
6746.88
6745.363
6743.667
6741.79
6739.727
6737.474
6735.025
6732.37
6729.502
6726.413
6723.094
6719.526
6715.68
6711.531
6707.063
6702.255
6697.045
6691.351
6685.174
6678.497
6671.323
6663.776
6655.913
6647.65
6639.068
6630.392
6621.626
6612.233
6601.858
6591.03
6580.095
6569.617
6560.145
6551.802
6544.619
6539.226
6535.45
6532.994
6531.841
6531.93
6533.564
6536.536
6541.927
6548.723
6561.407
3067.273
3038.406
3008.872
2954.807
2908.928
2828.139
2780.906
2733.17
2686.048
2639.435
2593.795
2550.721
2508.918
2470.261
2436.225
2406.432
2319.947
2306.358
2301.392
2300.67
2300.137
2304.879
2320.804
2351.245
2397.405
2459.21
2535.883
2629.329
2739.029
2864.327
3004.553
3158.543
3325.226
3503.416
3691.196
3886.473
4087.079
4290.713
4495.12
4698.585
4896.575
5085.089
5254.646
5422.556
5573.07
5704.327
5814.534
5901.265
5962.352
5996.579
6003.78
5984.829
5940.218
5870.729
5778.405
5666.095
5536.714
5393.215
5238.63
5075.979
4908.14
4737.353
4566.46
4397.486
4231.49
4069.233
3911.349
3758.359
3611.839
3472.763
3341.11
3217.382
3102.177
2995.424
2896.487
2804.442
2718.668
2638.089
2563.145
2494.178
2432.397
2378.261
2329.645
2285.173
2244.801
2208.398
2175.405
2145.287
2118.079
2093.981
2073.15
2055.759
2041.352
2029.134
2018.271
2008.187
1998.525
1989.403
1981.472
1974.488
1967.787
1962.438
1958.694
1956.126
1954.678
1954.467
1955.894
1959.337
1964.596
1971.328
1979.501
1987.465
1994.137
2000.431
2006.766
2013.327
2019.802
2025.246
2029.186
2032.351
2035.077
2037.71
2041.997
2048.219
2055.675
2064.155
2073.442
2083.319
2095.47
2111.222
2131.434
2156.352
2185.463
2217.305
2252.433
2290.169
2328.817
2365.914
2399.433
2429.975
2459.031
2486.256
2509.061
2526.469
2538.642
2547.182
2551.422
2550.488
2545
2535.782
2523.68
2509.376
2494.397
2482.07
2476.198
2479.83
2494.643
2520.872
2557.36
2602.09
2652.649
2705.732
2758.151
2808.234
2856.958
2906.654
2961.088
3024.341
3097.433
3177.478
3260.938
3345.582
3429.835
3511.673
3586.185
3644.055
3672.058
3650.449
3541.771
3311.585
2982.124
2634.7
2357.27
2189.359
2128.914
2169.25
2276.11
2418.532
2586.397
2774.245
2976.47
3187.658
3401.675
3612.089
3813.287
4001.644
4175.082
4331.736
4471.233
4594.129
4701.348
4793.517
4870.759
4932.807
4978.805
5007.673
5018.395
5009.18
4978.616
4924.615
4846.592
4749.275
4637.482
4515.687
4390.489
4269.56
4158.715
4063.67
3990.471
3943.119
3921.561
3923.936
3948.578
3992.272
4051.117
4121.668
4201.025
4285.883
4372.521
4457.886
4540.056
4618.532
4694.529
4768.906
4840.673
4908.316
4971.069
5028.745
5081.534
5129.986
5174.748
5216.383
5255.376
5292.16
5327.115
5360.567
5392.797
5424.026
5454.411
5484.054
5513.018
5541.331
5568.995
5595.974
5622.068
5648.206
5673.457
5698.007
5722.027
5745.709
5769.147
5792.403
5815.634
5838.848
5862.166
5885.603
5909.081
5932.577
5955.954
5979.052
6001.826
6024.263
6046.289
6067.777
6088.598
6108.661
6127.933
6146.431
6164.2
6181.298
6197.79
6213.732
6229.158
6244.079
6258.512
6272.493
6286.032
6299.1
6311.67
6323.731
6335.281
6346.382
6357.124
6367.541
6377.678
6387.628
6397.497
6407.381
6417.384
6427.644
6438.309
6449.463
6461.063
6472.939
6484.901
6496.827
6508.652
6520.343
6531.844
6543.079
6553.993
6564.543
6574.688
6584.388
6593.624
6602.413
6610.78
6618.727
6626.23
6633.258
6639.76
6645.644
6650.754
6654.86
6657.721
6659.108
6658.773
6656.361
6651.572
6644.265
6634.372
6621.917
6606.922
6589.396
6569.522
6547.682
6524.18
6499.761
6475.37
6451.755
6429.605
6409.692
6392.835
6379.824
6371.025
6367.716
6369.145
6375.706
6387.456
6404.17
6425.393
6450.238
6477.322
6505.36
6533.71
6561.732
6588.251
6612.387
6633.562
6651.337
6665.497
6676.057
6683.204
6687.151
6687.778
6685.391
6680.899
6674.788
6667.276
6658.649
6649.201
6639.187
6628.825
6618.302
6607.784
6597.395
6587.232
6577.376
6567.893
6558.8
6550.105
6541.835
6534.028
6526.744
6520.041
6513.956
6508.5
6503.669
6499.415
6495.673
6492.373
6489.562
6487.279
6485.486
6484.117
6483.126
6482.498
6482.212
6482.241
6482.56
6483.16
6483.893
6484.85
6485.977
6487.239
6488.609
6490.061
6491.571
6493.114
6494.667
6496.205
6497.708
6499.156
6500.53
6501.813
6502.989
6504.044
6504.966
6505.74
6506.356
6506.801
6507.067
6507.143
6507.023
6506.699
6506.169
6505.43
6504.484
6503.335
6501.989
6500.453
6498.733
6496.83
6494.741
6492.462
6489.987
6487.313
6484.439
6481.364
6478.079
6474.57
6470.811
6466.776
6462.434
6457.745
6452.652
6447.094
6441.042
6434.475
6427.411
6419.922
6412.04
6403.736
6395.047
6386.084
6376.897
6367.319
6357.434
6347.486
6336.959
6326.474
6316.265
6307.24
6299.871
6294.191
6290.082
6287.373
6286.044
6286.001
6287.461
6290.108
6294.852
6300.2
6310.596
3229.409
3194.858
3156.331
3105.44
3068.825
2996.296
2959.486
2922.49
2884.677
2845.885
2806.627
2767.035
2725.03
2682.219
2636.39
2522.368
2475.049
2427.868
2380.756
2333.997
2287.864
2243.267
2200.395
2159.826
2122.866
2090.566
2063.225
2042.403
2028.106
2019.545
2016.982
2023.064
2040.018
2069.73
2113.86
2173.484
2249.376
2341.113
2448.768
2572.099
2710.443
2862.736
3027.661
3203.822
3389.409
3582.541
3781.01
3982.476
4184.184
4384.294
4579.248
4766.626
4941.775
5106.718
5255.969
5385.595
5492.94
5575.859
5632.588
5662.136
5664.445
5640.42
5591.327
5518.55
5423.993
5310.177
5179.848
5035.904
4881.35
4719.093
4552.292
4383.394
4214.97
4049.227
3887.363
3729.714
3576.525
3428.222
3285.308
3148.531
3019.206
2898.791
2787.895
2685.958
2591.843
2504.299
2422.476
2345.697
2274.342
2208.673
2149.063
2096.474
2050.574
2009.725
1972.766
1939.041
1907.898
1879
1852.589
1829.231
1810.002
1795.076
1783.082
1773.128
1763.849
1754.789
1745.532
1736.067
1727.361
1721.421
1715.507
1709.957
1705.987
1703.119
1701.363
1700.89
1702.228
1706.26
1712.79
1721.602
1730.992
1740.897
1748.182
1754.711
1761.538
1768.87
1776.079
1781.563
1784.809
1786.498
1786.964
1787.154
1789.83
1795.125
1802.02
1808.325
1814.618
1820.751
1828.813
1840.654
1857.419
1879.896
1907.749
1935.989
1968.166
2004.383
2042.716
2081.153
2118.067
2153.594
2188.279
2221.085
2250.633
2275.13
2293.962
2307.361
2314.492
2314.281
2307.337
2295.131
2278.364
2256.788
2231.9
2208.337
2191.546
2185.892
2193.397
2213.991
2245.826
2286.866
2334.788
2387.776
2443.898
2501.672
2561.089
2623.579
2691.105
2765.586
2847.998
2937.597
3032.86
3132.172
3234.014
3337.1
3437.424
3524.029
3583.51
3575.808
3431.433
3087.471
2582.804
2076.06
1711.407
1519.162
1472.768
1559.026
1707.172
1883.727
2083.59
2306.091
2546.017
2796.171
3049.54
3298.675
3536.28
3757.259
3959.518
4141.465
4302.012
4441.212
4559.86
4659.058
4739.37
4800.624
4842.566
4863.679
4863.541
4840.764
4793.114
4717.994
4614.776
4488.957
4346.884
4195.167
4042.175
3896.93
3765.23
3655.735
3578.697
3535.424
3520.579
3530.122
3563.919
3618.096
3687.961
3769.727
3860.768
3958.162
4058.497
4158.37
4255.079
4346.924
4433.668
4515.815
4593.265
4665.405
4731.939
4792.956
4848.753
4899.909
4946.969
4990.408
5030.706
5068.298
5103.557
5136.832
5168.454
5198.714
5227.841
5256.005
5283.327
5309.884
5335.711
5360.828
5385.262
5409.223
5432.523
5455.265
5477.515
5499.446
5521.237
5542.964
5564.775
5586.732
5608.957
5631.522
5654.396
5677.532
5700.842
5724.184
5747.438
5770.516
5793.298
5815.632
5837.371
5858.399
5878.65
5898.105
5916.782
5934.721
5951.972
5968.588
5984.621
6000.114
6015.09
6029.565
6043.543
6057.019
6069.976
6082.411
6094.34
6105.813
6116.874
6127.553
6137.904
6148.01
6157.966
6167.875
6177.85
6188.023
6198.503
6209.331
6220.492
6231.903
6243.445
6255.013
6266.535
6277.955
6289.224
6300.283
6311.07
6321.538
6331.654
6341.363
6350.615
6359.418
6367.808
6375.811
6383.422
6390.593
6397.226
6403.247
6408.533
6412.832
6415.848
6417.309
6416.966
6414.548
6409.792
6402.496
6392.526
6379.819
6364.391
6346.32
6325.783
6303.279
6279.261
6254.243
6229.034
6204.43
6181.184
6160.125
6142.07
6127.783
6117.959
6113.367
6113.953
6119.796
6131.034
6147.581
6168.713
6193.356
6220.381
6248.967
6278.305
6307.246
6334.66
6359.678
6381.662
6400.162
6414.964
6426.097
6433.684
6437.633
6438.016
6435.613
6431.177
6425.019
6417.426
6408.713
6399.171
6389.037
6378.531
6367.885
6357.276
6346.811
6336.581
6326.665
6317.119
6307.983
6299.291
6291.071
6283.353
6276.182
6269.601
6263.645
6258.337
6253.664
6249.587
6246.08
6243.11
6240.642
6238.644
6237.092
6235.956
6235.208
6234.825
6234.777
6235.027
6235.542
6236.278
6237.302
6238.473
6239.784
6241.215
6242.741
6244.337
6245.976
6247.636
6249.29
6250.918
6252.499
6254.013
6255.442
6256.772
6257.988
6259.078
6260.029
6260.83
6261.471
6261.942
6262.233
6262.335
6262.241
6261.942
6261.433
6260.709
6259.77
6258.617
6257.253
6255.686
6253.921
6251.961
6249.806
6247.454
6244.903
6242.157
6239.223
6236.105
6232.8
6229.292
6225.558
6221.572
6217.301
6212.701
6207.715
6202.278
6196.345
6189.893
6182.934
6175.502
6167.615
6159.264
6150.472
6141.3
6131.789
6121.917
6111.814
6101.66
6091.324
6080.957
6071.001
6062.145
6054.804
6049.016
6044.704
6041.786
6040.251
6039.989
6041.154
6043.373
6047.42
6051.659
6060.145
3192.398
3147.906
3106.866
3053.885
3000.368
2951.799
2907.123
2866.036
2827.85
2789.648
2686.1
2649.795
2613.528
2576.545
2538.535
2499.456
2459.14
2417.201
2373.696
2329.277
2284.811
2238.283
2191.207
2143.81
2096.523
2049.5
2003.216
1957.653
1913.111
1870.902
1832.405
1799.597
1772.731
1752.393
1739.745
1735.679
1741.626
1759.032
1789.189
1833.191
1891.968
1966.218
2056.183
2161.954
2283.312
2419.648
2569.979
2733
2907.261
3090.726
3281.469
3476.845
3674.075
3871.571
4066.851
4257.661
4442.073
4615.546
4775.726
4919.662
5043.537
5144.324
5219.924
5268.923
5290.636
5285.315
5254.159
5198.916
5121.524
5023.924
4908.445
4777.484
4633.605
4479.976
4319.103
4154.312
3988.683
3824.377
3663.768
3507.936
3356.617
3209.943
3067.938
2930.349
2798.284
2674.055
2559.228
2454.6
2359.449
2272.067
2190.764
2114.371
2042.289
1974.615
1911.774
1854.681
1805.14
1763.392
1726.883
1693.901
1663.557
1634.842
1607.394
1581.826
1559.034
1541.606
1530.435
1521.679
1515.034
1507.828
1500.147
1491.397
1482.063
1472.621
1465.877
1462.623
1457.436
1451.46
1447.68
1445.212
1444.247
1445.6
1450.633
1459.681
1471.941
1482.383
1493.259
1501.637
1508.863
1516.767
1525.69
1534.44
1540.163
1542.523
1540.893
1537.89
1535.699
1536.542
1541.223
1548.215
1551.701
1553.394
1555.856
1558.677
1565.537
1579.221
1597.58
1621.309
1647.649
1678.182
1714.182
1754.315
1795.591
1835.661
1875.881
1917.518
1958.928
1996.899
2028.875
2054.654
2074.194
2084.969
2085.009
2075.66
2060.009
2037.866
2006.255
1966.225
1925.722
1893.813
1876.861
1876.645
1892.59
1921.37
1959.755
2006.198
2059.905
2119.687
2184.516
2253.664
2327.113
2405.799
2490.939
2583.518
2683.692
2791.207
2905.627
3026.545
3152.613
3280.332
3405.407
3518.718
3546.596
3372.597
2881.704
2119.28
1390.268
954.0286
784.6264
803.5675
936.9846
1128.031
1340
1566.69
1817.728
2092.731
2382.521
2677.421
2967.968
3245.255
3502.844
3737.09
3946.881
4131.603
4290.904
4425.622
4536.443
4623.52
4686.009
4726.423
4741.943
4732.399
4695.686
4628.466
4527.317
4391.917
4227.886
4043.638
3851.141
3663.493
3491.075
3338.586
3213.298
3127.896
3086.907
3082.43
3106.273
3154.452
3222.583
3305.797
3401.538
3507.707
3621.047
3737.773
3854.93
3968.063
4073.775
4171.513
4262.068
4345.846
4422.928
4493.616
4558.262
4617.161
4670.9
4720.118
4765.299
4806.968
4845.534
4881.326
4914.691
4945.985
4975.528
5003.592
5030.403
5056.132
5080.903
5104.797
5127.872
5150.198
5171.866
5192.886
5213.354
5233.395
5253.155
5272.834
5292.676
5312.728
5333.11
5354.003
5375.523
5397.686
5420.459
5443.764
5467.452
5491.351
5515.286
5539.073
5562.515
5585.423
5607.643
5629.072
5649.655
5669.382
5688.274
5706.376
5723.75
5740.46
5756.559
5772.082
5787.057
5801.502
5815.419
5828.803
5841.651
5853.974
5865.798
5877.156
5888.089
5898.651
5908.919
5918.983
5928.944
5938.905
5948.968
5959.217
5969.703
5980.435
5991.376
6002.459
6013.609
6024.76
6035.847
6046.824
6057.648
6068.256
6078.584
6088.584
6098.208
6107.413
6116.176
6124.507
6132.413
6139.907
6146.982
6153.588
6159.67
6165.103
6169.63
6172.899
6174.556
6174.294
6171.906
6167.172
6159.856
6149.803
6136.893
6121.184
6102.857
6082.128
6059.379
6035.01
6009.555
5983.788
5958.545
5934.628
5912.821
5893.885
5878.546
5867.59
5861.713
5861.255
5866.353
5877.012
5892.955
5913.466
5937.757
5965.059
5994.296
6024.292
6053.837
6081.842
6107.452
6130.027
6149.076
6164.292
6175.772
6183.379
6186.947
6187.127
6184.805
6180.394
6174.205
6166.574
6157.826
6148.251
6138.102
6127.603
6116.954
6106.317
6095.815
6085.545
6075.583
6065.981
6056.801
6048.101
6039.903
6032.234
6025.132
6018.632
6012.779
6007.605
6003.114
5999.276
5996.038
5993.347
5991.157
5989.437
5988.17
5987.331
5986.881
5986.787
5987.016
5987.535
5988.314
5989.325
5990.549
5991.935
5993.455
5995.083
5996.794
5998.559
6000.354
6002.152
6003.929
6005.665
6007.338
6008.93
6010.426
6011.811
6013.074
6014.204
6015.19
6016.024
6016.696
6017.198
6017.522
6017.659
6017.599
6017.335
6016.858
6016.16
6015.236
6014.083
6012.701
6011.096
6009.272
6007.234
6004.986
6002.527
5999.862
5997.002
5993.97
5990.776
5987.411
5983.853
5980.084
5976.08
5971.813
5967.24
5962.304
5956.941
5951.098
5944.742
5937.871
5930.502
5922.64
5914.28
5905.431
5896.137
5886.446
5876.401
5866.111
5855.725
5845.339
5835.167
5825.583
5817.029
5809.788
5803.942
5799.489
5796.386
5794.625
5794.09
5794.879
5796.607
5799.891
5803.256
5810.11
2935.646
2875.871
2753.117
2707.199
2662.473
2620.887
2582.048
2545.316
2509.948
2475.57
2442.063
2407.662
2372.568
2336.443
2299.246
2260.672
2220.58
2178.79
2135.128
2089.963
2044.543
1998.014
1950.669
1902.848
1854.7
1805.699
1755.971
1706.539
1658.235
1612.082
1570.056
1533.839
1504.006
1481.293
1466.822
1461.654
1466.959
1483.852
1513.397
1556.644
1614.326
1687.1
1775.389
1879.339
1998.739
2133.004
2281.188
2441.959
2613.687
2793.924
2979.759
3169.178
3360.663
3553.122
3744.502
3931.282
4110.392
4277.962
4430.705
4565.81
4680.104
4770.738
4835.739
4874.018
4885.277
4870.167
4830.32
4767.828
4685.191
4584.531
4467.826
4337.351
4195.022
4043.783
3886.361
3725
3562.95
3403.77
3250.045
3102.047
2958.764
2819.915
2685.129
2554.527
2429.292
2311.455
2203.081
2105.879
2018.92
1939.758
1866.158
1796.423
1729.561
1665.659
1605.634
1551.004
1505.336
1469.5
1438.029
1409.87
1383.667