/*--------------------------------*- C++ -*----------------------------------*\
| =========                 |                                                 |
| \\      /  F ield         | foam-extend: Open Source CFD                    |
|  \\    /   O peration     | Version:     3.1                                |
|   \\  /    A nd           | Web:         http://www.extend-project.de       |
|    \\/     M anipulation  |                                                 |
\*---------------------------------------------------------------------------*/
FoamFile
{
    version     2.0;
    format      ascii;
    class       volScalarField;
    location    "5";
    object      nut;
}
// * * * * * * * * * * * * * * * * * * * * * * * * * * * * * * * * * * * * * //

dimensions      [0 2 -1 0 0 0 0];

internalField   nonuniform List<scalar> 
119952
(
3.070898e-05
1.81516e-05
1.818625e-05
2.068252e-05
2.236186e-05
2.095396e-05
2.000622e-05
1.934457e-05
1.880046e-05
1.83078e-05
1.784734e-05
1.740415e-05
1.697013e-05
1.654183e-05
1.611835e-05
1.569979e-05
1.528613e-05
1.487593e-05
1.445998e-05
1.404242e-05
1.781083e-05
1.684618e-05
1.648461e-05
2.14062e-05
2.064864e-05
2.028531e-05
1.999814e-05
1.993556e-05
1.972689e-05
2.116516e-05
2.752084e-05
2.689821e-05
3.866114e-05
5.085917e-05
6.201763e-05
7.283835e-05
8.37953e-05
9.486988e-05
0.000106057
0.0001242996
0.0002789003
0.0004161179
0.0005029469
0.0005629441
0.0006135061
0.0006611419
0.0007078956
0.0007544143
0.0008004219
0.001255162
0.001394681
0.001518168
0.001621734
0.001706477
0.001775873
0.001833391
0.001881641
0.001922445
0.001956977
0.001991284
0.002030705
0.002070623
0.002106558
0.002136081
0.002158437
0.002173959
0.002183897
0.002193655
0.002150028
0.002091495
0.002051555
0.002022461
0.001992041
0.001955602
0.00191629
0.001876584
0.001837281
0.001798742
0.001761151
0.001724672
0.00168949
0.001655765
0.001623636
0.001593229
0.001564686
0.00153821
0.001514251
0.001493758
0.001478701
0.001466044
0.001455974
0.001454233
0.001455004
0.00144777
0.001433557
0.001406274
0.001337979
0.001219239
0.001173128
0.001146813
0.001129718
0.00111637
0.001105069
0.001094949
0.001085501
0.001076443
0.001067631
0.001058998
0.001050509
0.00104215
0.001033911
0.001025795
0.001017804
0.001009954
0.001002264
0.0009947579
0.0009874581
0.0009803822
0.0009735472
0.0009669739
0.0009606856
0.0009547002
0.0009490277
0.0009436715
0.0009386257
0.0009338772
0.0009294033
0.0009251741
0.0009211517
0.0009172941
0.0009135496
0.0009098662
0.0009061789
0.0009024219
0.000898531
0.0008944454
0.0008900912
0.0008854029
0.000880315
0.0008747696
0.0008687154
0.0008621079
0.0008549056
0.0008470815
0.0008386534
0.0008298639
0.000821699
0.0008126546
0.0008022405
0.0007912358
0.0007797784
0.0007679422
0.0007558054
0.0007434379
0.0007309341
0.0007183685
0.0007057972
0.0006932685
0.0006808279
0.0006685197
0.0006564135
0.0006445455
0.0006329102
0.0006215437
0.0006104633
0.000599693
0.0005892585
0.0005791791
0.0005694552
0.0005600785
0.00055104
0.00054233
0.0005339388
0.0005258528
0.0005180335
0.0005104861
0.0005032036
0.0004961609
0.0004893385
0.0004827203
0.0004762902
0.0004700328
0.000463933
0.0004579797
0.0004521729
0.0004464935
0.0004409259
0.0004354566
0.0004300731
0.0004247651
0.0004195236
0.0004143422
0.0004092148
0.0004041389
0.0003991222
0.0003942447
0.0003905204
0.0002958464
0.0002954603
0.0002907598
0.0002872083
0.0002844977
0.0002822745
0.0002802918
0.0002768944
0.0002707521
0.0002651626
0.0002600129
0.000255224
0.0002507245
0.0002464678
0.000242415
0.0002385396
0.0002348249
0.0002312566
0.000227823
0.0002245096
0.0002213049
0.0002182008
0.0002151901
0.000212266
0.0002094241
0.0002066631
0.0002039793
0.0002013693
0.0001988287
0.0001963574
0.0001939566
0.0001909621
0.0001878637
0.000185173
0.0001832028
0.000185761
0.0001803838
0.0001823419
0.0001849754
0.0001879731
0.00019138
0.0001948743
0.0001985466
0.0002023232
0.0002061984
0.0002101389
0.0002141608
0.0002182176
0.0002223056
0.0002264181
0.0002305564
0.0002347205
0.0002389032
0.0002430976
0.0002473047
0.0002515285
0.0002557691
0.0002600257
0.0002643011
0.0002685983
0.0002729167
0.0002772489
0.0002816455
0.000286081
0.0002904253
0.0002948864
0.0002994452
0.0003039734
0.0003084951
0.0003137538
0.0004011471
0.0003962101
0.0004152929
0.0004218102
0.000427925
0.0004337005
0.0004394146
0.0004450985
0.0004507402
0.000456329
0.0004618616
0.0004673313
0.0004727377
0.0004780781
0.0004833532
0.0004885645
0.0004937178
0.0004988252
0.0005039054
0.0005089799
0.0005140671
0.0005191798
0.0005243231
0.0005294965
0.0005346964
0.0005399173
0.0005451553
0.000550408
0.000555676
0.0005609618
0.0005662689
0.0005716005
0.0005769589
0.0005823449
0.0005877578
0.0005931964
0.0005986588
0.0006041423
0.0006096439
0.0006151591
0.000620681
0.0006261974
0.0006316951
0.0006371696
0.0006425827
0.0006478333
0.0006526423
0.0006571746
0.0006616325
0.0006660013
0.000670287
0.0006745365
0.0006787374
0.0006833241
0.0006881955
0.0006910768
0.0006941557
0.0006973188
0.0007006549
0.0007041775
0.0007078754
0.0007117295
0.0007157399
0.0007199156
0.0007242509
0.000728726
0.0007333154
0.0007379976
0.0007427614
0.0007476013
0.0007525043
0.0007574488
0.0007624157
0.0007673926
0.0007723696
0.0007773374
0.0007822885
0.0007872192
0.0007921297
0.0007970229
0.0008019032
0.0008067737
0.0008116406
0.0008165167
0.0008214029
0.0008263021
0.0008312167
0.0008361529
0.0008411063
0.0008460692
0.000851034
0.0008559995
0.0008609739
0.0008659844
0.0008710798
0.0008763086
0.0008816852
0.000887232
0.0008929949
0.0008990521
0.0009054923
0.0009121898
0.0009190466
0.0009260172
0.0009330691
0.0009401656
0.0009472553
0.0009542553
0.0009610144
0.0009672821
0.0009731525
0.0009788326
0.0009844047
0.0009898897
0.0009952745
0.00100052
0.001005577
0.001010455
0.001015225
0.001019945
0.001024647
0.00102935
0.001034066
0.001038804
0.001043576
0.001048409
0.001053334
0.001058309
0.001063126
0.001067762
0.001072297
0.00107682
0.001081475
0.001086472
0.001092284
0.001100119
0.001113952
0.001136143
0.001091694
2.087968e-05
2.211448e-05
2.52297e-05
2.955105e-05
3.460603e-05
4.002439e-05
4.559477e-05
5.123183e-05
5.750384e-05
0.0001607126
0.0002274778
0.0002962265
0.0003592616
0.0004137653
0.0004605297
0.0005016053
0.0005389897
0.0005742271
0.0008353868
0.0009034084
0.0009762038
0.001050753
0.0011241
0.001194283
0.001260882
0.001324436
0.001385822
0.001446892
0.001509019
0.001586819
0.001680664
0.001781207
0.001880545
0.001975403
0.002065904
0.002153627
0.002240883
0.002305944
0.002392498
0.002514648
0.002646795
0.002775578
0.002896648
0.003009985
0.003116958
0.003219186
0.003318603
0.003422813
0.003539496
0.003662502
0.003782579
0.003894062
0.003995099
0.004085823
0.004166934
0.004235512
0.004898426
0.004959737
0.005011746
0.005056609
0.005094159
0.005123926
0.005145639
0.005159247
0.005164853
0.005162465
0.00515244
0.005135591
0.005112453
0.005083418
0.005048731
0.005008588
0.004963356
0.004913972
0.004861736
0.004801197
0.004730132
0.004655584
0.004578777
0.004498431
0.00441461
0.004329066
0.004243425
0.004158824
0.004076177
0.003996182
0.003919354
0.003846055
0.003776544
0.003710986
0.003649498
0.003592124
0.00353896
0.003490081
0.003446034
0.003406717
0.003371416
0.003340863
0.003315659
0.003292843
0.003269479
0.003241824
0.003207532
0.00316229
0.003116875
0.003080743
0.003049628
0.003022119
0.002997709
0.002976139
0.0029567
0.002938904
0.002922424
0.002907041
0.0028926
0.002878992
0.002866149
0.002854048
0.002842695
0.002832112
0.002822325
0.002813372
0.002805293
0.002798133
0.002791943
0.002786778
0.002782694
0.002779753
0.002777991
0.002777451
0.002778164
0.002780143
0.002783386
0.002787871
0.002793556
0.002800378
0.002808253
0.002817075
0.002826715
0.002837022
0.002847826
0.002858941
0.002870165
0.00288128
0.002892059
0.002902278
0.002911778
0.002920368
0.002927852
0.002934039
0.00293876
0.002941889
0.002943356
0.002943148
0.002941179
0.002937082
0.002930666
0.002921973
0.002910976
0.002897484
0.00288135
0.00286273
0.002841791
0.00281872
0.002793722
0.00276703
0.002738883
0.00270953
0.002679213
0.00264817
0.002616665
0.002584977
0.002553408
0.00252235
0.002492035
0.00246245
0.002433627
0.002405625
0.002378511
0.002352346
0.002327185
0.002303062
0.002279985
0.002257941
0.002236907
0.002216856
0.002197756
0.002179567
0.002162245
0.002145741
0.002130006
0.002114991
0.002100647
0.002086929
0.00207379
0.002061189
0.002049088
0.002037448
0.002026252
0.002015476
0.00200515
0.001995372
0.001986384
0.00198155
0.001887839
0.001779257
0.001703644
0.001649341
0.001609213
0.001578797
0.001555153
0.001536341
0.00152099
0.001508177
0.001497224
0.001487639
0.001479062
0.001471236
0.001463975
0.001457145
0.001450649
0.00144442
0.001438408
0.001432574
0.001426893
0.001421343
0.001415912
0.00141059
0.001405375
0.001400268
0.001395277
0.001390415
0.001385702
0.00138117
0.001376873
0.001372916
0.001369493
0.001367036
0.001366417
0.00136915
0.001374555
0.001381468
0.001389219
0.001397545
0.001406316
0.001415429
0.001424806
0.001434384
0.001444108
0.001453929
0.0014638
0.00147368
0.001483535
0.001493339
0.001503071
0.001512715
0.00152226
0.001531698
0.001541028
0.001550253
0.001559375
0.001568399
0.001577333
0.001586183
0.001594954
0.001603654
0.001612288
0.001620859
0.001629373
0.001637832
0.001646235
0.001654582
0.001662858
0.001670802
0.00203339
0.00204839
0.002062466
0.00207544
0.002087395
0.002098467
0.002108801
0.00211852
0.002127732
0.00213654
0.002145024
0.002153244
0.002161249
0.002169075
0.002176752
0.002184305
0.00219176
0.002199143
0.002206488
0.002213824
0.002221182
0.002228584
0.002236045
0.002243573
0.002251169
0.002258833
0.002266563
0.002274359
0.002282222
0.002290155
0.00229816
0.002306241
0.002314397
0.00232263
0.002330938
0.00233932
0.002347774
0.002356295
0.002364878
0.002373513
0.002382182
0.002390859
0.002399511
0.002408097
0.002416547
0.002424752
0.002432644
0.002440272
0.002447759
0.002455123
0.002462384
0.002469565
0.002476688
0.002484207
0.0024915
0.002498218
0.00250475
0.002511297
0.002517892
0.002524557
0.002531308
0.002538153
0.0025451
0.002552147
0.00255929
0.002566525
0.002573852
0.002581273
0.00258879
0.002596395
0.002604072
0.002611801
0.002619559
0.002627324
0.002635068
0.002642768
0.002650403
0.002657954
0.00266541
0.002672762
0.002680008
0.002687147
0.002694184
0.002701128
0.002707994
0.002714795
0.002721553
0.002728303
0.002735114
0.002742126
0.002749277
0.00275638
0.00276331
0.002769955
0.002776157
0.002781878
0.002787428
0.002793038
0.002798843
0.002804916
0.002811297
0.002818009
0.002825047
0.002832386
0.002839983
0.002847791
0.002855753
0.002863818
0.002871944
0.002880105
0.002888288
0.002896487
0.002904696
0.002912908
0.002921119
0.002929327
0.002937533
0.002945746
0.002953976
0.002962236
0.002970536
0.002978888
0.002987301
0.002995784
0.003004351
0.003013014
0.003021764
0.003030575
0.003039418
0.003048351
0.003057395
0.00306678
0.003076579
0.003087646
0.003100478
0.003118303
0.003142543
0.003176808
0.003192463
6.482021e-05
7.988773e-05
9.698517e-05
0.0001149756
0.0001334244
0.000152117
0.0001710497
0.0001900425
0.0002091088
0.0002353727
0.0005121351
0.0007225448
0.0008314319
0.0008988056
0.000951444
0.0009979538
0.001040952
0.001081476
0.001119733
0.001601108
0.001697224
0.001784722
0.001861187
0.001925697
0.0019788
0.002022077
0.002057333
0.002085993
0.002110128
0.002129523
0.002150135
0.002173397
0.002197769
0.002221329
0.002242612
0.00226071
0.002275868
0.002290714
0.002277964
0.002275234
0.002281924
0.002295
0.002312234
0.002331397
0.002350388
0.00236985
0.002390193
0.002410216
0.002430653
0.002453833
0.002480677
0.002511647
0.00254656
0.002584796
0.002625573
0.002668122
0.003126071
0.003180948
0.003236435
0.00329322
0.003352832
0.003416408
0.003484505
0.003557297
0.003634911
0.00371725
0.00380403
0.003896206
0.003995346
0.004101958
0.00421538
0.00433418
0.004456855
0.004583103
0.004711901
0.004840581
0.004969604
0.005100543
0.005233264
0.005366222
0.005497338
0.005624757
0.005747192
0.005863932
0.005974622
0.006079512
0.006179453
0.00627475
0.006364879
0.006448916
0.006526019
0.006595667
0.00665789
0.006712512
0.006732097
0.006753152
0.006772212
0.006787581
0.006798408
0.006804082
0.006804142
0.006798273
0.006786281
0.006767975
0.006743207
0.006712043
0.00667463
0.006631159
0.006581839
0.006526925
0.00646681
0.006402062
0.006333361
0.006259552
0.006178981
0.006093664
0.006005271
0.005913947
0.00581972
0.005723405
0.005626215
0.005529278
0.005433545
0.005339801
0.00524869
0.005160738
0.005076365
0.004995897
0.00491958
0.004847604
0.004780118
0.004717298
0.004659334
0.004606392
0.004558274
0.004515154
0.004476955
0.004442803
0.004410854
0.004379107
0.004344246
0.004306014
0.004268202
0.004234893
0.00420627
0.004181957
0.004160729
0.00414134
0.004123554
0.00410721
0.004092179
0.004078353
0.004065651
0.004054015
0.004043417
0.004033851
0.004025336
0.004017904
0.004011604
0.004006491
0.004002632
0.004000097
0.003998961
0.0039993
0.004001192
0.004004711
0.004009923
0.004016887
0.004025651
0.004036244
0.004048682
0.004062957
0.004079043
0.004096887
0.004116411
0.004137515
0.004160067
0.004183914
0.004208874
0.004234743
0.004261294
0.004288282
0.004315444
0.004342506
0.004369184
0.00439519
0.004420236
0.004444037
0.004466321
0.00448684
0.004505373
0.004521727
0.004535716
0.004547098
0.004555646
0.00456123
0.004563758
0.004563141
0.004559309
0.004552241
0.004541967
0.004528559
0.004512136
0.004492853
0.004470895
0.004446474
0.004419812
0.004391138
0.004360673
0.004328613
0.00429509
0.004260093
0.00422379
0.004186741
0.004149423
0.004112234
0.004075516
0.004039577
0.004004714
0.003971244
0.003939235
0.00390861
0.003879353
0.003851466
0.003824948
0.003799783
0.003775937
0.003753354
0.003731978
0.003711753
0.003692619
0.003674519
0.003657393
0.003641182
0.003625842
0.003611309
0.003597587
0.00358459
0.0035724
0.00356092
0.003550223
0.003540058
0.003520472
0.003507599
0.003499262
0.003493921
0.003490456
0.003488115
0.003486405
0.003485
0.003483709
0.00348241
0.003481036
0.003479553
0.003477952
0.003476236
0.003474413
0.003472499
0.003470506
0.003468448
0.003466341
0.003464197
0.003462031
0.003459856
0.003457686
0.003455537
0.003453428
0.003451383
0.00344943
0.003447607
0.003445965
0.003444578
0.003443558
0.003443078
0.00344343
0.003445063
0.0034486
0.003454106
0.003460996
0.003469095
0.00347806
0.003487697
0.003497856
0.003508399
0.003519205
0.00353017
0.003541206
0.00355224
0.003563211
0.003574072
0.003584788
0.003595336
0.003605699
0.003615868
0.003625841
0.00363562
0.003645209
0.003654612
0.00366384
0.0036729
0.003681802
0.003690553
0.00369916
0.003707629
0.003715966
0.003724172
0.003732255
0.003740206
0.003748036
0.003755713
0.003763326
0.00377245
0.00376777
0.003764735
0.003762859
0.003761995
0.003762095
0.003763053
0.003764719
0.003766949
0.003769626
0.003772655
0.003775968
0.003779509
0.003783231
0.003787096
0.003791077
0.003795151
0.003799307
0.003803541
0.003807858
0.003812266
0.003816776
0.003821397
0.003826135
0.003830992
0.003835967
0.003841059
0.003846266
0.003851589
0.003857031
0.003862595
0.003868287
0.00387411
0.003880069
0.003886166
0.003892403
0.003898781
0.0039053
0.003911958
0.003918748
0.003925661
0.00393268
0.003939781
0.003946934
0.003954098
0.003961219
0.003968237
0.00397511
0.003981833
0.003988458
0.003995001
0.004001486
0.00400791
0.00401429
0.004020606
0.00402675
0.004032826
0.004038915
0.004045002
0.004051045
0.004057039
0.004063012
0.004068995
0.004075009
0.004081066
0.00408717
0.004093319
0.004099516
0.004105758
0.004112043
0.004118365
0.00412471
0.004131066
0.004137414
0.00414374
0.004150025
0.004156257
0.004162425
0.00416852
0.004174541
0.004180488
0.004186368
0.00419219
0.004197975
0.004203741
0.004209524
0.004215412
0.004221418
0.004227273
0.004232719
0.004237435
0.004241479
0.004245116
0.004248507
0.004251773
0.004255025
0.004258396
0.004262021
0.004266024
0.004270497
0.004275499
0.004281058
0.004287175
0.004293832
0.004300998
0.00430863
0.004316683
0.004325108
0.004333859
0.004342893
0.004352174
0.004361674
0.004371368
0.004381236
0.004391261
0.004401429
0.004411734
0.004422171
0.004432738
0.004443437
0.004454272
0.004465246
0.004476364
0.004487628
0.004499044
0.004510618
0.004522352
0.004534236
0.004546262
0.00455842
0.004570753
0.004583276
0.004596228
0.004609662
0.004624463
0.004640306
0.004659879
0.004680381
0.004704024
0.004717085
4.594063e-05
8.989228e-05
0.0001605337
0.0006203178
0.00103908
0.002098108
0.002586372
0.003071431
0.003459455
0.003672791
0.003792198
0.003895366
0.004054399
0.004113114
0.004144419
0.004166018
0.004181283
0.004191222
0.0041973
0.004200335
0.004201
0.004200717
0.004205535
0.004218184
0.004233589
0.004247205
0.004256688
0.004261273
0.004261749
0.004258968
0.004252776
0.004535859
0.0045388
0.004539356
0.004539298
0.004539272
0.004539371
0.004539125
0.004538383
0.004536949
0.004534586
0.004531211
0.00452674
0.004521175
0.004514911
0.004510187
0.004506496
0.004502875
0.004497433
0.004490022
0.004479997
0.004468069
0.004454585
0.00444006
0.004425228
0.004410751
0.004397248
0.004385374
0.004375739
0.004368456
0.004363928
0.004362844
0.004365762
0.004373063
0.004384903
0.004401404
0.004422229
0.004448412
0.004465937
0.004491114
0.004523496
0.004562741
0.004608543
0.004660826
0.004719726
0.004785456
0.004858267
0.00493828
0.005025469
0.005120164
0.005222736
0.005333229
0.005451235
0.00557585
0.005705656
0.005838097
0.005971485
0.006105574
0.006240035
0.00637375
0.006505611
0.006634476
0.006759211
0.006878783
0.006992373
0.007099404
0.007199479
0.007292383
0.007378176
0.007457013
0.00752898
0.007594076
0.007652273
0.007703558
0.007748001
0.00778501
0.007812021
0.007832106
0.007846198
0.007854704
0.007858045
0.007856501
0.007850186
0.00783911
0.007823231
0.007802427
0.007776516
0.007745364
0.007708884
0.007667012
0.007619722
0.007567036
0.007509065
0.007446007
0.007378174
0.007305313
0.007226644
0.007142741
0.007054827
0.006963524
0.006869109
0.006772155
0.006673592
0.006574414
0.006475518
0.00637769
0.006281618
0.006187902
0.006097058
0.006009522
0.005925657
0.005845772
0.005770121
0.005698953
0.00563248
0.005570937
0.005514341
0.005462741
0.005416092
0.005373894
0.00533509
0.005298636
0.005263285
0.005227609
0.005192909
0.005161314
0.005133712
0.005109313
0.005087656
0.005068374
0.005051212
0.005035977
0.005022507
0.005010668
0.005000357
0.004991504
0.00498407
0.004978043
0.004973434
0.004970275
0.004968615
0.004968517
0.004970057
0.004973318
0.004978392
0.004985373
0.004994356
0.005005433
0.005018693
0.005034213
0.005052062
0.005072293
0.005094939
0.005120016
0.005147515
0.005177403
0.005209618
0.005244072
0.005280645
0.005319188
0.005359519
0.005401428
0.005444676
0.005488995
0.005534091
0.005579651
0.00562534
0.005670815
0.00571572
0.005759701
0.005802408
0.005843503
0.005882666
0.005919595
0.005954005
0.005985606
0.006014113
0.006039292
0.006060961
0.006078973
0.006093206
0.006103571
0.006110013
0.006112523
0.006111128
0.006105899
0.006096947
0.00608442
0.006068499
0.006049391
0.006027321
0.006002521
0.005975229
0.005945699
0.005914239
0.005881203
0.005846949
0.005811821
0.00577613
0.005740141
0.005704047
0.005667942
0.005632115
0.005597006
0.005562936
0.005530138
0.005498793
0.00546906
0.005441004
0.005414489
0.005389443
0.005365818
0.005343568
0.005322636
0.00530296
0.005284474
0.005267123
0.005250848
0.005235615
0.005221362
0.005208085
0.005195712
0.005184257
0.005173567
0.005162785
0.005152394
0.00514265
0.005133749
0.00512577
0.005118704
0.005112502
0.00510708
0.005102361
0.005098265
0.005094716
0.00509164
0.005088975
0.005086666
0.005084664
0.005082927
0.005081419
0.005080107
0.005078968
0.005077983
0.005077136
0.005076417
0.005075822
0.005075352
0.00507502
0.005074832
0.005074821
0.005075027
0.00507551
0.005076356
0.005077684
0.005079665
0.005082543
0.005086627
0.005092288
0.005099734
0.005107752
0.005116622
0.005126147
0.005136136
0.005146436
0.005156917
0.005167471
0.005177998
0.005188427
0.005198711
0.005208811
0.005218701
0.005228368
0.005237804
0.005247009
0.005255986
0.005264739
0.005273275
0.005281595
0.005289706
0.005297622
0.005305345
0.005312879
0.005320229
0.005327399
0.00533439
0.005341209
0.005347844
0.005354309
0.0053606
0.005366714
0.005372639
0.005378409
0.005384073
0.00538863
0.005392324
0.005395376
0.00539799
0.005400299
0.005402396
0.005404343
0.005406184
0.005407949
0.00540966
0.005411333
0.005412979
0.005414603
0.005416209
0.005417797
0.005419369
0.005420931
0.00542249
0.005424057
0.005425644
0.005427265
0.005428933
0.005430659
0.005432451
0.005434314
0.005436255
0.00543828
0.005440397
0.005442615
0.005444947
0.005447404
0.005449999
0.005452744
0.005455649
0.005458725
0.005461981
0.005465423
0.005469057
0.005472882
0.005476896
0.00548109
0.005485445
0.005489939
0.005494541
0.005499213
0.005503916
0.005508615
0.005513292
0.005517953
0.005522607
0.005527253
0.005531888
0.005536492
0.005541061
0.005545585
0.005550062
0.005554484
0.005558854
0.00556318
0.005567476
0.005571757
0.005576041
0.005580341
0.005584664
0.005589013
0.00559339
0.005597796
0.005602231
0.005606697
0.005611191
0.005615709
0.005620243
0.005624788
0.005629335
0.005633878
0.005638413
0.005642937
0.005647449
0.005651952
0.005656454
0.005660967
0.005665511
0.005670127
0.005674877
0.005679495
0.00568364
0.005687131
0.005690175
0.005692874
0.005695285
0.005697487
0.005699573
0.00570164
0.005703793
0.005706145
0.005708815
0.005711917
0.005715551
0.005719799
0.005724722
0.005730352
0.005736703
0.00574377
0.005751533
0.005759962
0.005769022
0.005778671
0.005788866
0.005799566
0.005810729
0.005822318
0.005834301
0.005846645
0.005859326
0.005872321
0.005885612
0.005899185
0.005913029
0.005927137
0.005941501
0.005956116
0.005970978
0.005986083
0.006001424
0.006016998
0.006032795
0.006048802
0.006064999
0.006081348
0.006097787
0.006114204
0.006130571
0.006146914
0.006163671
0.006180156
0.006195405
0.006212127
0.005840178
0.006239339
2.253873e-05
3.97498e-05
6.550373e-05
0.0002794765
0.0004782413
0.0009462994
0.001371782
0.001755863
0.002214929
0.002618617
0.003008602
0.00343035
0.003852722
0.004222283
0.004499652
0.004739749
0.00525833
0.005323286
0.005170433
0.005060516
0.004940493
0.004764219
0.00459249
0.004464932
0.004368293
0.004295721
0.004241327
0.004203296
0.004180608
0.004172133
0.004176365
0.004190871
0.004212522
0.004244399
0.004285885
0.004334206
0.004386245
0.004443987
0.004502173
0.004568767
0.004626053
0.00472058
0.004835325
0.004889654
0.004947946
0.005018796
0.00508915
0.005156693
0.005175456
0.005186595
0.005197246
0.005207483
0.005217234
0.005226361
0.005235375
0.005244298
0.005251306
0.005256665
0.005260604
0.00526323
0.005264568
0.0052645
0.005263236
0.005260855
0.005257449
0.005253205
0.005248435
0.00524357
0.005239144
0.005235735
0.005233781
0.005233763
0.005236295
0.005241923
0.005251076
0.005264089
0.005281201
0.005302632
0.005328314
0.005356745
0.005388257
0.005423787
0.00546407
0.005509409
0.005560051
0.005616352
0.005678743
0.005747674
0.005823526
0.005906564
0.00599704
0.006095145
0.006200864
0.006313876
0.006433495
0.006558637
0.006687767
0.006819105
0.006950314
0.007080012
0.007208036
0.007332983
0.007453583
0.007568783
0.00767775
0.007779878
0.007874764
0.007962157
0.00804191
0.008114044
0.008178718
0.008236169
0.008286665
0.008330484
0.008367892
0.008399163
0.008424359
0.008443432
0.008457186
0.008466128
0.008470657
0.008471209
0.008468157
0.008461737
0.008452065
0.00843915
0.0084229
0.008403129
0.008379612
0.008352096
0.008320313
0.00828398
0.008242816
0.008196565
0.008144998
0.008087941
0.008025175
0.007956438
0.007881976
0.007802563
0.007718886
0.007631448
0.00754084
0.007447844
0.00735332
0.007258095
0.007162932
0.007068526
0.00697551
0.006884456
0.006795872
0.006710205
0.006627853
0.006549166
0.006474468
0.006404043
0.00633815
0.006276934
0.006220452
0.006168666
0.006121313
0.006077823
0.006037511
0.005999778
0.005964108
0.005930395
0.005899123
0.005870845
0.005845697
0.005823512
0.00580403
0.005787022
0.005772301
0.005759707
0.005749108
0.005740398
0.005733502
0.005728378
0.00572501
0.00572341
0.00572361
0.005725664
0.005729644
0.005735634
0.005743732
0.005754045
0.005766682
0.005781758
0.005799386
0.005819673
0.005842721
0.005868618
0.005897441
0.005929248
0.005964076
0.006001939
0.006042826
0.006086696
0.00613348
0.006183075
0.006235345
0.006290121
0.006347197
0.006406337
0.006467266
0.006529684
0.006593257
0.006657628
0.00672242
0.006787238
0.006851678
0.006915336
0.006977806
0.007038696
0.007097622
0.007154215
0.007208112
0.007258959
0.007306431
0.00735025
0.007390182
0.007426024
0.007457603
0.007484774
0.007507425
0.007525485
0.007538922
0.00754775
0.007552032
0.007551885
0.007547485
0.007539058
0.007526853
0.007511136
0.007492201
0.007470363
0.007445963
0.007419348
0.007390869
0.00736087
0.007329681
0.007297618
0.007264993
0.007232128
0.007199325
0.007166838
0.007134856
0.007103521
0.007072924
0.007043182
0.007014587
0.006987328
0.006961521
0.006937239
0.006914529
0.006893296
0.006873433
0.006854876
0.006837569
0.006821462
0.006806494
0.006792622
0.00677979
0.006767959
0.006757042
0.006746891
0.006737405
0.006728516
0.006720224
0.006712552
0.00670551
0.006699096
0.006693301
0.006688098
0.006683471
0.006679394
0.006675838
0.006672771
0.006670161
0.006667975
0.006666179
0.006664742
0.006663634
0.006662828
0.006662304
0.006662033
0.006662
0.006662187
0.006662601
0.006663234
0.006664089
0.006665199
0.006666594
0.006668321
0.006670451
0.00667308
0.006676338
0.006680389
0.006685427
0.006691649
0.006699139
0.006707193
0.006715869
0.006725045
0.006734565
0.006744285
0.006754076
0.006763833
0.006773477
0.006782941
0.006792193
0.006801212
0.006809988
0.00681852
0.006826808
0.006834858
0.006842675
0.006850262
0.006857624
0.006864761
0.006871677
0.006878373
0.006884848
0.006891102
0.006897134
0.006902943
0.006908529
0.006913888
0.00691902
0.006923919
0.006928586
0.006933021
0.006937219
0.006941184
0.006944916
0.006948334
0.006951401
0.006954117
0.006956506
0.006958593
0.006960401
0.00696195
0.006963257
0.006964335
0.006965199
0.006965863
0.00696634
0.006966642
0.006966781
0.006966769
0.006966616
0.006966335
0.00696594
0.006965447
0.006964873
0.006964235
0.00696355
0.006962832
0.006962097
0.006961358
0.006960627
0.006959919
0.006959248
0.006958634
0.006958093
0.006957647
0.006957315
0.006957118
0.006957076
0.006957209
0.006957534
0.006958066
0.00695882
0.006959804
0.006961023
0.006962477
0.006964159
0.006966054
0.006968142
0.006970397
0.006972791
0.006975296
0.006977889
0.006980559
0.006983297
0.006986094
0.006988935
0.006991801
0.006994681
0.006997557
0.007000405
0.007003214
0.007005989
0.007008732
0.007011447
0.007014139
0.007016818
0.007019495
0.00702218
0.007024881
0.007027605
0.007030359
0.007033151
0.00703599
0.007038883
0.007041835
0.007044851
0.007047934
0.007051087
0.007054314
0.007057616
0.007060997
0.007064463
0.007068021
0.007071686
0.007075481
0.007079444
0.007083262
0.007086578
0.007089486
0.007092077
0.00709441
0.007096547
0.00709854
0.007100438
0.007102297
0.007104181
0.007106168
0.007108348
0.007110819
0.007113687
0.007117056
0.007121021
0.007125666
0.007131057
0.007137243
0.007144251
0.007152095
0.007160774
0.007170275
0.007180575
0.007191643
0.007203445
0.007215942
0.007229094
0.007242863
0.007257211
0.007272102
0.007287504
0.007303392
0.00731974
0.007336528
0.007353736
0.007371346
0.007389342
0.007407708
0.007426432
0.007445496
0.007464886
0.007484584
0.007504567
0.007524804
0.007545238
0.007565731
0.007585978
0.007605358
0.007622837
0.007637985
0.007652149
0.007665992
0.007399218
0.007669032
0.006663537
0.007726158
1.923461e-05
3.170376e-05
5.749916e-05
0.0001869661
0.0003165414
0.0005442039
0.0007180859
0.0009237686
0.001172793
0.001417795
0.001695297
0.002052206
0.00244279
0.00286591
0.003342218
0.004239723
0.004577791
0.004883438
0.005143504
0.005345854
0.005493292
0.00559228
0.005650869
0.005433748
0.005134276
0.004871416
0.004808451
0.004617862
0.004446992
0.004305669
0.004170893
0.00403119
0.003900881
0.003798582
0.003723245
0.003666949
0.00362598
0.003598958
0.003584476
0.00358204
0.003590003
0.003607542
0.003633314
0.00366711
0.003708851
0.003757855
0.003812294
0.003872017
0.003935646
0.004003905
0.00407427
0.004152702
0.004244718
0.004327326
0.004405183
0.004486352
0.004567908
0.004646636
0.004722062
0.00479536
0.004867013
0.004936891
0.005004854
0.005067371
0.005125871
0.00518281
0.005239678
0.005295127
0.005350326
0.005407181
0.005465178
0.005525823
0.005592371
0.005618028
0.005635197
0.005650876
0.005665396
0.005679149
0.005692594
0.005706227
0.00572047
0.005735502
0.005751719
0.005769625
0.005789707
0.005812408
0.005838044
0.005866941
0.00589924
0.005934702
0.005973217
0.006015119
0.006060805
0.006110523
0.00616449
0.006222971
0.00628631
0.006354896
0.006429104
0.006509254
0.00659561
0.006688353
0.006787506
0.006892862
0.007003938
0.007119943
0.00723977
0.007362024
0.007484981
0.00760665
0.007725579
0.007840992
0.007951667
0.008056598
0.00815501
0.008246337
0.008330213
0.008406427
0.008474827
0.00853546
0.008588558
0.008634457
0.008673567
0.00870634
0.008733242
0.008754729
0.008771144
0.008748299
0.008707995
0.008661415
0.008615087
0.008570379
0.008527635
0.008488729
0.008455841
0.008430229
0.008412788
0.008404692
0.008406346
0.008417143
0.008435789
0.008460124
0.0084872
0.008513449
0.008535267
0.008547876
0.008504997
0.008450966
0.008390384
0.008323912
0.008252279
0.00817613
0.008096105
0.008012918
0.007927336
0.00784012
0.007751997
0.007663653
0.00757573
0.007488826
0.007403492
0.007320233
0.00723951
0.00716174
0.007087307
0.007016551
0.006949763
0.006887156
0.006828843
0.006774838
0.006725017
0.006679069
0.006636571
0.006597131
0.006560447
0.006526383
0.006495045
0.006466635
0.006441266
0.006418873
0.006399281
0.006382307
0.006367789
0.00635559
0.006345591
0.006337696
0.006331839
0.006327981
0.006326115
0.006326255
0.006328445
0.006332748
0.006339249
0.006348048
0.006359261
0.006373014
0.006389438
0.006408672
0.006430852
0.006456113
0.006484582
0.006516377
0.006551603
0.006590344
0.006632669
0.00667862
0.006728215
0.00678144
0.006838254
0.00689858
0.006962307
0.007029286
0.007099334
0.007172227