/*--------------------------------*- C++ -*----------------------------------*\
| =========                 |                                                 |
| \\      /  F ield         | foam-extend: Open Source CFD                    |
|  \\    /   O peration     | Version:     3.1                                |
|   \\  /    A nd           | Web:         http://www.extend-project.de       |
|    \\/     M anipulation  |                                                 |
\*---------------------------------------------------------------------------*/
FoamFile
{
    version     2.0;
    format      ascii;
    class       volScalarField;
    location    "14";
    object      k;
}
// * * * * * * * * * * * * * * * * * * * * * * * * * * * * * * * * * * * * * //

dimensions      [0 2 -2 0 0 0 0];

internalField   nonuniform List<scalar> 
119952
(
0.06221253
0.05926346
0.059432
0.05944948
0.05910919
0.05853494
0.05853481
0.05871266
0.05884609
0.05879574
0.05846834
0.05778902
0.0567024
0.05516126
0.05309307
0.05045348
0.04731697
0.04391109
0.04067896
0.03830196
0.03970869
0.03694859
0.03580066
0.03901556
0.03612438
0.03458433
0.03370482
0.03302081
0.03165294
0.01696382
0.07898093
0.07524821
0.07329299
0.07276537
0.0732621
0.07440181
0.07586794
0.07741998
0.07889592
0.08034031
0.07823179
0.08000109
0.08343179
0.08734883
0.09112462
0.09446613
0.09729373
0.09962385
0.1013875
0.112397
0.1127139
0.1125023
0.1118602
0.1109991
0.1101041
0.1093184
0.108749
0.1084294
0.1084288
0.1089796
0.1095525
0.1102806
0.1112657
0.1125295
0.1140484
0.1157587
0.117498
0.1193272
0.1232322
0.1251278
0.1257113
0.1268322
0.1278542
0.1282841
0.1280213
0.1272413
0.1261263
0.1247979
0.1232886
0.121612
0.1197755
0.1177774
0.1156108
0.1132797
0.1108208
0.1083187
0.105911
0.1037855
0.1022444
0.1009676
0.0997324
0.09900571
0.09868376
0.09809842
0.09718434
0.09626433
0.094949
0.0917976
0.08902514
0.08676235
0.08492229
0.08346162
0.08234675
0.08154948
0.08100459
0.08064959
0.08043484
0.08032678
0.08030343
0.08034791
0.08044707
0.08058859
0.08076146
0.08094156
0.08109612
0.08120072
0.08123021
0.08116462
0.08098734
0.08068382
0.08023489
0.0796489
0.07894908
0.07818035
0.07735016
0.07645433
0.07548465
0.07442831
0.07327266
0.07201323
0.07066124
0.06924698
0.06781582
0.06641689
0.06509244
0.06387616
0.06279415
0.06186498
0.06109807
0.06049046
0.06002372
0.05966473
0.05937064
0.05909661
0.05880313
0.05846108
0.05806836
0.05765728
0.05728537
0.05691603
0.05654979
0.05618836
0.05585215
0.05556862
0.05533442
0.05513075
0.05493911
0.05474727
0.05454897
0.05433506
0.05409776
0.05383357
0.05354308
0.05322516
0.05287424
0.05249062
0.0520754
0.05161746
0.05111297
0.05059963
0.05003283
0.04949762
0.04927727
0.04809725
0.04863507
0.05427442
0.06171924
0.06845427
0.0726256
0.07338609
0.07140522
0.06813031
0.06453198
0.06118579
0.05847939
0.05645088
0.05491357
0.05361409
0.05233485
0.05094975
0.04946538
0.04795687
0.04651534
0.04519062
0.04397754
0.04286124
0.04183695
0.0400869
0.03715211
0.03531529
0.03402499
0.03299891
0.03211672
0.03133106
0.0306217
0.02997919
0.02939768
0.02887083
0.02839184
0.02795375
0.02755025
0.02717653
0.02682893
0.02650439
0.02620038
0.02591493
0.02564661
0.02539449
0.02515798
0.02493677
0.02473071
0.0245398
0.02436405
0.02420339
0.02405777
0.02392699
0.02381087
0.02370927
0.02362226
0.02355029
0.02349408
0.02345246
0.02339368
0.02359255
0.02385494
0.02408638
0.02428975
0.02446023
0.02459918
0.02470998
0.02479565
0.02485989
0.02490593
0.02493641
0.02495379
0.0249602
0.02495746
0.02494726
0.02493125
0.02491088
0.02488708
0.02486022
0.02483054
0.02479831
0.02476397
0.02472812
0.02469149
0.02465509
0.02462
0.02458745
0.02455883
0.02453552
0.02451879
0.02450953
0.02450933
0.02451954
0.02453494
0.02466898
0.02478714
0.02484437
0.0247988
0.02471882
0.02463536
0.02456612
0.02452149
0.0245037
0.02451104
0.02453997
0.0245859
0.02464384
0.02470896
0.0247769
0.02484447
0.0249097
0.02497156
0.02502976
0.02508476
0.02513745
0.02518889
0.02524021
0.02529252
0.0253471
0.02540534
0.02546884
0.02553942
0.02561904
0.02570958
0.02581266
0.02592813
0.02605436
0.02619031
0.02633486
0.02648585
0.02663979
0.02679242
0.0269396
0.02707811
0.02720644
0.02732496
0.02743443
0.02753699
0.02763664
0.027735
0.02781613
0.02788711
0.02795173
0.02800996
0.02805835
0.02810178
0.02814652
0.02821611
0.02837226
0.02836894
0.02833387
0.02829092
0.02828322
0.02833135
0.02844289
0.02885529
0.03075408
0.0336472
0.0366339
0.03915382
0.04083966
0.04144691
0.04083655
0.03916132
0.03679319
0.03421488
0.03191838
0.0300901
0.02851895
0.02695741
0.02535889
0.02383454
0.02250091
0.0213942
0.02049025
0.01975469
0.01916492
0.01870604
0.0183626
0.01812249
0.01797801
0.01792366
0.01795373
0.018062
0.01824234
0.01848875
0.01879503
0.01915479
0.01956187
0.02001036
0.02049458
0.02100912
0.02154904
0.02210995
0.02268788
0.02327928
0.02388089
0.02448972
0.02510303
0.02571846
0.02633411
0.02694875
0.02756198
0.02817458
0.02878919
0.02941146
0.03004405
0.03068832
0.03134098
0.0319973
0.03265331
0.03330547
0.0339503
0.0345841
0.03520279
0.03580174
0.03637576
0.03691907
0.03742552
0.03788881
0.03830285
0.03866191
0.03896086
0.03919535
0.03936226
0.03946006
0.03948877
0.03944962
0.03934392
0.03916737
0.03889349
0.03853751
0.03856281
0.09730313
0.09083655
0.09397431
0.0997984
0.1055814
0.1105093
0.1144966
0.1176796
0.1202623
0.12226
0.1298308
0.1388253
0.1476249
0.1553187
0.1616914
0.1668251
0.170903
0.1740854
0.1982553
0.1983928
0.198341
0.1978171
0.1970618
0.1962442
0.1954275
0.1946301
0.1938522
0.1930699
0.1925324
0.1918056
0.1908674
0.1899507
0.1891365
0.1884948
0.1880417
0.1877553
0.1875823
0.1876976
0.1878165
0.1876872
0.187497
0.18733
0.1871811
0.1870211
0.1868173
0.1865383
0.1861904
0.1858065
0.185281
0.184684
0.1839939
0.1831722
0.1822043
0.1810599
0.1797482
0.178297
0.188053
0.1858167
0.1834564
0.1809829
0.178394
0.1757291
0.1730544
0.1704564
0.168032
0.1658662
0.1640595
0.1626989
0.1618382
0.1615005
0.1616895
0.1623544
0.1634382
0.1648868
0.1668093
0.1689006
0.1704746
0.1717891
0.1729924
0.1738323
0.1741303
0.1739074
0.1732539
0.172265
0.1710328
0.169568
0.1678716
0.1659342
0.1637373
0.161259
0.1584837
0.1554167
0.1521018
0.148628
0.1451092
0.1416636
0.1383236
0.1351707
0.1323366
0.1296592
0.1269644
0.1242645
0.1215401
0.1186129
0.1156246
0.1129904
0.1106928
0.1086695
0.1069324
0.1055115
0.1044498
0.1037155
0.103271
0.1030785
0.1031022
0.1033093
0.1036693
0.1041532
0.1047305
0.1053652
0.1060124
0.106623
0.1071504
0.1075551
0.1078076
0.107891
0.1078011
0.1075472
0.1071511
0.1066386
0.1060298
0.1053268
0.1045314
0.103645
0.1026556
0.1015368
0.1002645
0.09882514
0.0972208
0.09546922
0.09360112
0.09165597
0.08967751
0.08770943
0.08579176
0.08395802
0.08223337
0.08063393
0.07916724
0.07783361
0.07662797
0.07554236
0.07456996
0.07370691
0.07294436
0.07227081
0.07168663
0.07119965
0.07081541
0.07054035
0.070377
0.07031612
0.07034348
0.07043951
0.07057974
0.0707368
0.07089275
0.07104158
0.07117213
0.07127599
0.07134726
0.07138809
0.07139632
0.07135422
0.07126203
0.0711066
0.07079945
0.07029352
0.06943736
0.06788266
0.06568736
0.06350069
0.06197435
0.06139769
0.06185135
0.06330965
0.06559312
0.06825864
0.07102083
0.07366511
0.07602979
0.07801441
0.07955415
0.08059457
0.08108909
0.08102321
0.08043998
0.07944206
0.0781423
0.07666601
0.07506334
0.07341853
0.0717302
0.07016549
0.06782411
0.0646384
0.0622137
0.06032427
0.05881214
0.05753855
0.05640816
0.05536937
0.05439616
0.05347513
0.05259828
0.05175989
0.0509552
0.05018016
0.04943148
0.04870657
0.04800344
0.04732058
0.0466569
0.04601175
0.04538483
0.04477618
0.0441861
0.04361501
0.04306334
0.04253145
0.0420194
0.04152691
0.04105326
0.04059723
0.04015704
0.03973026
0.03931351
0.03890146
0.03848606
0.03806485
0.03766335
0.03728812
0.03692294
0.03656178
0.03620227
0.03584323
0.03548461
0.03512714
0.03477207
0.0344209
0.03407524
0.03373667
0.03340664
0.03308638
0.03277688
0.03247887
0.03219289
0.03191939
0.03165883
0.03141166
0.03117844
0.03095985
0.03075674
0.03057017
0.03040147
0.03025206
0.03012338
0.03001669
0.02993299
0.02987305
0.02983726
0.02982586
0.02983807
0.02987164
0.03157379
0.03167799
0.0318108
0.03196308
0.03212723
0.03229834
0.03247309
0.03264796
0.03281862
0.03298029
0.03312812
0.03325764
0.03336533
0.03344919
0.03350925
0.03354763
0.03356822
0.03357605
0.03357691
0.03357691
0.03358223
0.03359886
0.0336323
0.03368744
0.03376823
0.03387765
0.03401755
0.03418858
0.03439019
0.0346206
0.03487697
0.03515544
0.03545135
0.03575959
0.03607485
0.03639208
0.03670711
0.0370171
0.03732082
0.03761814
0.0379091
0.03819279
0.03846678
0.03872708
0.03896845
0.0391843
0.03936777
0.03951363
0.03961733
0.03967629
0.03967722
0.03961027
0.03946709
0.03924394
0.03893801
0.03853299
0.03801685
0.03739533
0.0366398
0.03569701
0.03459852
0.03348353
0.03255154
0.0319389
0.03167419
0.03176488
0.03221828
0.03306458
0.03432294
0.03588414
0.03764647
0.03951001
0.04139195
0.043059
0.04407818
0.04410503
0.04315065
0.04150494
0.03950444
0.03739964
0.03536845
0.03356574
0.03203786
0.03076675
0.02971963
0.0288835
0.02824693
0.02779672
0.02751855
0.02739889
0.02742516
0.02758514
0.0278662
0.02825563
0.02874117
0.02931095
0.02995322
0.03065646
0.03140982
0.03220333
0.03302788
0.03387502
0.03473695
0.03560642
0.03647672
0.03734179
0.0381963
0.03903579
0.03985674
0.04065659
0.0414337
0.0421876
0.04291822
0.04362789
0.04432645
0.04501466
0.04568969
0.04634947
0.04699207
0.04761539
0.04821685
0.04879315
0.04934002
0.04985218
0.05032337
0.05074673
0.05111531
0.05142239
0.05166151
0.05182659
0.05191226
0.05191392
0.05182639
0.05164372
0.05135533
0.05095735
0.05045538
0.04996925
0.04959254
0.05291583
0.05738778
0.06260913
0.06829294
0.07450273
0.08137448
0.08917549
0.0984273
0.1100499
0.1245288
0.185663
0.2025013
0.2191801
0.2349358
0.2487716
0.2613222
0.2741315
0.2875983
0.3088714
0.3772535
0.3885885
0.3959416
0.401878
0.4064835
0.4098145
0.4119919
0.4131076
0.4132078
0.4126465
0.4112244
0.4103083
0.4095952
0.4086755
0.4073408
0.4055671
0.4034087
0.4009444
0.3985018
0.3941188
0.3898435
0.3856387
0.3814558
0.377267
0.3730096
0.368627
0.3640881
0.3594074
0.3546482
0.3497601
0.3448203
0.339952
0.3352386
0.3307532
0.3265381
0.3225871
0.3188553
0.3324239
0.3288351
0.3251405
0.32139
0.3175543
0.3136075
0.3095562
0.3054249
0.3012588
0.2970914
0.2929487
0.2889085
0.2850206
0.2813329
0.2778892
0.2747138
0.2718083
0.269161
0.2667506
0.2645241
0.2624695
0.2606262
0.2589867
0.2575195
0.2561706
0.2548604
0.2535154
0.2520867
0.2505521
0.2489458
0.2472874
0.2455683
0.2437697
0.2418829
0.2398733
0.2377495
0.2354519
0.2329826
0.2303975
0.2276752
0.2247374
0.2215534
0.2181238
0.2144717
0.210649
0.2067839
0.2030831
0.1996768
0.1967
0.1942771
0.1925166
0.1914937
0.1912392
0.1917367
0.192908
0.1946383
0.19676
0.199071
0.2011367
0.2027747
0.203993
0.2047412
0.2049449
0.2045939
0.203749
0.2025116
0.2009704
0.1991573
0.1970889
0.1947652
0.1921706
0.1892975
0.1861411
0.1827077
0.1790259
0.1751499
0.1711452
0.1670888
0.1630118
0.1589806
0.1550591
0.1511929
0.1473576
0.1435525
0.1398048
0.1360873
0.1325311
0.1292734
0.1263445
0.1237581
0.1215332
0.1196726
0.1182434
0.1172385
0.1166258
0.1163676
0.1164237
0.1167538
0.1173177
0.118074
0.1189765
0.1199689
0.1209819
0.1219416
0.1227801
0.1234446
0.1238993
0.124128
0.1241343
0.1239415
0.1235884
0.1231203
0.1225749
0.1219696
0.1212974
0.1205246
0.1196177
0.118554
0.1173003
0.1158371
0.1141634
0.1122955
0.1102647
0.1081128
0.1058865
0.1036321
0.1013922
0.09920256
0.09709138
0.09507937
0.09318085
0.09140522
0.08975838
0.08824411
0.08686622
0.08562769
0.08453013
0.0835764
0.08277155
0.08211975
0.08162541
0.0812954
0.08113609
0.08113194
0.08125918
0.08148753
0.08178288
0.08211119
0.08244569
0.08277085
0.08307089
0.08333581
0.08356097
0.08374646
0.08388516
0.08396428
0.08397734
0.08388748
0.08362423
0.08314069
0.08232023
0.08095683
0.07909658
0.07702463
0.07496981
0.07309183
0.07150393
0.07030285
0.06954735
0.06925775
0.06943385
0.07004732
0.07104612
0.07235869
0.07388631
0.07548943
0.07696178
0.07821832
0.07920573
0.07988996
0.08026373
0.08033546
0.08013828
0.07969693
0.07906854
0.07827233
0.07748421
0.07652707
0.07547051
0.07433825
0.07312938
0.07189259
0.07066508
0.06946724
0.06830711
0.06718689
0.06610553
0.06506007
0.06404674
0.06306171
0.06210138
0.06116261
0.06024295
0.0593407
0.05845496
0.05758563
0.05673338
0.05589952
0.05508587
0.05429461
0.05352806
0.05278844
0.05207763
0.05139692
0.05074678
0.05012671
0.04953497
0.04896858
0.04842319
0.04789405
0.04737749
0.0468751
0.04639187
0.04592567
0.04547074
0.04502351
0.04458126
0.04414224
0.04370569
0.04327174
0.04284121
0.04241538
0.04199589
0.04158449
0.04118294
0.04079292
0.04041595
0.04005336
0.03970638
0.03937617
0.03906383
0.03877056
0.03849766
0.03824656
0.03801893
0.03781663
0.03764164
0.03749588
0.03738112
0.03729874
0.03724989
0.03723496
0.03725413
0.03730586
0.03739064
0.03750916
0.0376489
0.03781426
0.03800229
0.03820963
0.03843417
0.03867291
0.03892083
0.03917127
0.03941674
0.03964961
0.03986278
0.04005029
0.04020809
0.0403349
0.04043259
0.04050573
0.04056078
0.04060526
0.04064723
0.04069489
0.04075617
0.04083827
0.04094738
0.04108833
0.0412643
0.04147682
0.0417258
0.04200969
0.04232572
0.04267018
0.04303864
0.04342625
0.04382805
0.0442393
0.04465572
0.045074
0.04549216
0.04590966
0.04632659
0.04674235
0.0471541
0.04755598
0.04793966
0.04829564
0.0486143
0.04888668
0.04910537
0.04926492
0.04936072
0.04937749
0.0493056
0.04913584
0.04886097
0.04847812
0.04797887
0.04735518
0.04661128
0.0457488
0.04475171
0.04361901
0.04239618
0.04116934
0.03999761
0.03889794
0.03787326
0.03692548
0.03609102
0.03543177
0.03500924
0.03489004
0.03516372
0.03593078
0.03725993
0.03903892
0.04100486
0.04296608
0.04470947
0.04601672
0.0466859
0.04660793
0.04582492
0.04450424
0.04286885
0.04111902
0.0394068
0.03787963
0.03660354
0.03558644
0.03481168
0.03426861
0.03394372
0.03381928
0.03387575
0.03409424
0.03445708
0.03494748
0.03554864
0.03624382
0.03701711
0.03785384
0.03874042
0.03966427
0.04061365
0.04157767
0.04254615
0.04350976
0.04446016
0.04539013
0.0462937
0.04716621
0.04800433
0.04880587
0.04956979
0.05029617
0.05098563
0.0516479
0.05228396
0.05289371
0.05347728
0.05403441
0.05456423
0.05506493
0.05553363
0.05596623
0.05635735
0.05670056
0.05698912
0.05721641
0.05737584
0.05746107
0.05746624
0.05738677
0.05721587
0.05694901
0.05657475
0.05610299
0.05552719
0.05494589
0.05439292
0.0396373
0.04503521
0.04989509
0.07713242
0.1046938
0.13905
0.1621018
0.1852517
0.2071627
0.2276879
0.2457756
0.261527
0.2768936
0.2925933
0.3084954
0.3246382
0.3409344
0.3569867
0.3727317
0.3882704
0.40344
0.4180741
0.4320855
0.4455302
0.4583859
0.470494
0.481626
0.49177
0.5011324
0.5096209
0.5171063
0.547095
0.5495995
0.550338
0.5500026
0.548742
0.5466692
0.5439242
0.5406236
0.5369184
0.5330195
0.5289865
0.5249376
0.5209564
0.5171106
0.5134068
0.5098049
0.5062666
0.5026986
0.4988884
0.4945234
0.4897879
0.4847299
0.4794242
0.4739108
0.4681762
0.4621817
0.4559089
0.4493754
0.4426363
0.4357912
0.4289592
0.4222718
0.4158521
0.4098045
0.4041875
0.3990205
0.3941977
0.3893655
0.3847349
0.3801989
0.3756648
0.371063
0.366348
0.3615013
0.3565361
0.3514878
0.3463954
0.3412875
0.3361996
0.3311954
0.3263692
0.3218096
0.3175779
0.3136975
0.3101561
0.306918
0.303947
0.3012299
0.298779
0.2966094
0.2947092
0.2930128
0.2914036
0.2897553
0.2879854
0.2860762
0.2840607
0.2819721
0.2798179
0.2775851
0.2752508
0.2727961
0.2702279
0.2675909
0.2649233
0.2621406
0.2591062
0.2557787
0.2521606
0.2482768
0.2441697
0.2398973
0.235514
0.2311063
0.2270064
0.2234249
0.2205472
0.2185467
0.2175529
0.2176346
0.218778
0.2208593
0.2236477
0.2268185
0.2300073
0.2328168
0.2349529
0.2363308
0.2369546
0.2368439
0.2360442
0.2346551
0.2328473
0.2307147
0.2282961
0.225616
0.2226887
0.2195143
0.2160957
0.2124345
0.2085386
0.2044265
0.2001285
0.1956701
0.1910857
0.1864138
0.1816971
0.1769776
0.1722637
0.1675672
0.1629104
0.1583462
0.1539215
0.1497197
0.1458293
0.1423016
0.1391671
0.1364509
0.1341741
0.1323858
0.1311262
0.1303693
0.1300797
0.1302149
0.130727
0.1315625
0.1326625
0.1339574
0.135359
0.1367611
0.1380561
0.139153
0.1399875
0.1405233
0.1407585
0.1407237
0.1404712
0.1400688
0.1395844
0.1390656
0.1385256
0.1379418
0.1372637
0.1364207
0.1353585
0.1340553
0.1324955
0.1306856
0.1286451
0.1264141
0.1240451
0.1215914
0.1191029
0.1166231
0.1141874
0.1118232
0.1095505
0.107385
0.1053389
0.1034225
0.1016451
0.1000158
0.09854305
0.09723564
0.09610271
0.09515406
0.09439983
0.0938507
0.09351752
0.09339778
0.09346755
0.09369198
0.09402779
0.09442764
0.09484747
0.09525867
0.09564787
0.0960008
0.09630994
0.09657219
0.09678676
0.09694553
0.09703331
0.09703582
0.09691792
0.09662262
0.09611215
0.09531327
0.09408789
0.09245721
0.09059001
0.08858009
0.08647002
0.0843108
0.08216171
0.08009588
0.07819817
0.07654615
0.07519728
0.07418855
0.07353492
0.07322717
0.07322816
0.07347816
0.07391437
0.07447522
0.07509433
0.0757098
0.07625771
0.07670173
0.07699456
0.07714139
0.07710172
0.07693798
0.07664202
0.07620329
0.07562404
0.0749428
0.0741903
0.07338338
0.07253763
0.07166625
0.07077979
0.06988846
0.06899785
0.06811058
0.06722776
0.06634943
0.06547509
0.06460414
0.06373611
0.06287102
0.06200961
0.0611535
0.06030514
0.05946787
0.05864559
0.05784265
0.05706342
0.05631207
0.05559212
0.05490609
0.05425525
0.0536394
0.05305679
0.05250446
0.05197873
0.05147625
0.05099498
0.05053449
0.05009255
0.0496646
0.04924618
0.04883382
0.04842516
0.04801896
0.04761497
0.04721379
0.04681663
0.0464252
0.0460414
0.04566727
0.04530482
0.04495598
0.04462249
0.04430597
0.04400799
0.04373016
0.04347423
0.0432421
0.04303582
0.04285777
0.04271049
0.04259648
0.042518
0.04247693
0.04247456
0.04251157
0.04258771
0.04270188
0.04285222
0.04303625
0.04325234
0.04349664
0.04376721
0.04406165
0.04437655
0.04470756
0.04504905
0.04539365
0.04573254
0.04605631
0.04635591
0.04662327
0.04685215
0.04703939
0.04718609
0.04729782
0.04738338
0.04745316
0.0475181
0.04758926
0.04767737
0.04779214
0.04794168
0.04813191
0.04836617
0.0486451
0.04896693
0.04932805
0.04972363
0.0501483
0.05059663
0.0510636
0.05154477
0.05203654
0.05253629
0.05304238
0.05355445
0.05407363
0.0546017
0.05513904
0.0556821
0.05622184
0.056744
0.0572318
0.0576693
0.05804309
0.05834297
0.05856311
0.05870252
0.05874828
0.05869125
0.0585221
0.05823352
0.05782174
0.05728487
0.0566195
0.05582696
0.05491614
0.05389431
0.0527669
0.05155312
0.0502943
0.04902969
0.04776432
0.04648077
0.04516552
0.04381669
0.04244816
0.04109345
0.03980272
0.03864111
0.03768395
0.03701799
0.03673923
0.03692697
0.03763608
0.03888291
0.04057015
0.04244066
0.0443495
0.04613696
0.04761774
0.04859515
0.04892784
0.04859507
0.04771484
0.04648425
0.04511473
0.04376966
0.04254736
0.04153631
0.04077458
0.04025987
0.03997208
0.03989604
0.04001473
0.04030821
0.04075506
0.04133409
0.0420251
0.04280922
0.04366858
0.04458622
0.04554623
0.04653373
0.04753481
0.04853664
0.04952758
0.0504974
0.0514374
0.0523405
0.05320124
0.05401569
0.05478137
0.05549706
0.05616233
0.05678007
0.05735667
0.05789359
0.0583926
0.05885514
0.05928195
0.05967282
0.06002642
0.06034016
0.06061003
0.06083112
0.0609983
0.06110629
0.06114933
0.06112097
0.06101554
0.06083061
0.06056138
0.06020537
0.05975332
0.05921725
0.05858466
0.05794281
0.05730116
0.01941861
0.02170964
0.02393966
0.03205085
0.0428361
0.06113002
0.07406851
0.0878709
0.102782
0.1179866
0.1337929
0.1512236
0.1699318
0.1891891
0.2093439
0.2320531
0.2669794
0.2836382
0.3006362
0.3178827
0.3356445
0.3532411
0.370182
0.3865508
0.40256
0.4181028
0.4332711
0.4482174
0.4628962
0.4772432
0.4911438
0.5044532
0.5170105
0.5287212
0.5394271
0.5489886
0.5572438
0.5641123
0.5688489
0.5723777
0.5747341
0.5752182
0.5718708
0.5679371
0.5635235
0.5585894
0.5532844
0.5477919
0.5422975
0.5369429
0.5318587
0.5271686
0.5229564
0.5192638
0.5160981
0.513461
0.5112719
0.5094515
0.5078829
0.5064243
0.5048809
0.5027563
0.5002194
0.4973966
0.4943592
0.4911076
0.4875554
0.4835697
0.4790436
0.4739606
0.4683837
0.4624399
0.4563099
0.4502034
0.4443098
0.4388053
0.4338172
0.429417
0.4254977
0.4218729
0.4183576
0.4147805
0.4110147
0.4069862
0.4026478
0.3979832
0.3930274
0.3878527
0.3825238
0.3770758
0.3715398
0.3659969
0.3605803
0.355432
0.3506582
0.3463078
0.342372
0.3388054
0.3355639
0.3326349
0.3300434
0.3278253
0.3259693
0.3243713
0.3228476
0.3212043
0.3193245
0.3172014
0.3148966
0.312473
0.309953
0.3073194
0.3045455
0.3016386
0.2986999
0.2957344
0.2926704
0.2894736
0.2860689
0.2823921
0.2784205
0.274171
0.2696944
0.2650736
0.260419
0.2558579
0.2515474
0.2479451
0.2453237
0.2439351
0.2439763
0.2455448
0.2485852
0.2528527
0.2579045
0.2631452
0.2679621
0.2718395
0.2744717
0.2758132
0.2759682
0.2750762
0.2732858
0.2707709
0.2677994
0.2644747
0.260852
0.2569766
0.2528854
0.24861
0.2441586
0.2395337
0.2347411
0.2297918
0.224704
0.2194955
0.2141857
0.2088028
0.203375
0.197932
0.1924872
0.1870725
0.1817336
0.1765362
0.1715451
0.1668317
0.1624702
0.1585145
0.1550003
0.1519609
0.1494317
0.1474665
0.146131
0.1454125
0.1452829
0.1457
0.146607
0.1479272
0.1495714
0.1514395
0.1533938
0.1552709
0.1569156
0.158215
0.1591135
0.1596067
0.15973
0.159553
0.1591723
0.1586976
0.1582222
0.157792
0.15739
0.1569462
0.1563589
0.1555171
0.1543208
0.1527596
0.1508524
0.1486412
0.1461846
0.1435482
0.1407983
0.137995
0.1351892
0.1324217
0.1297237
0.1271163
0.1246093
0.12222
0.119964
0.117855
0.1159056
0.1141282
0.1125355
0.11114
0.1099552
0.1089946
0.1082724
0.107803
0.1076003
0.107644
0.1078936
0.1082939
0.1087797
0.1092843
0.1097513
0.110155
0.1105039
0.1107972
0.111038
0.1112285
0.111367
0.111442
0.1114346
0.1113235
0.1110743
0.1106461
0.1100099
0.1091095
0.1078689
0.1063064
0.1045111
0.1025215
0.1003418
0.09798663
0.09548598
0.0928902
0.09026499
0.0876808
0.08520818
0.08291304
0.08084885
0.07905234
0.07754051
0.07631155
0.0753487
0.07462571
0.07410918
0.07376258
0.07354651
0.07342335
0.0733533
0.07329996
0.07323192
0.07312007
0.07295314
0.07272567
0.07243506
0.07208393
0.07167859
0.07122474
0.07072857
0.07019773
0.06963961
0.06905743
0.06845323
0.067832
0.06719758
0.06655161
0.0658949
0.06522769
0.06455013
0.06386256
0.06316584
0.06246168
0.06175282
0.06104305
0.06033713
0.05964059
0.05895941
0.05829953
0.0576664
0.05706456
0.05649713
0.0559656
0.05546976
0.05500785
0.05457685
0.05417315
0.05379309
0.05343341
0.05309047
0.05275973
0.05243659
0.05211727
0.05179911
0.0514807
0.05116176
0.05084297
0.05052572
0.05021191
0.04990381
0.04960398
0.04931493
0.04903901
0.04877834
0.04853502
0.04831115
0.04810888
0.0479305
0.04777859
0.04765605
0.04756592
0.04751141
0.04749557
0.04752092
0.04758916
0.04770112
0.04785662
0.04805427
0.04829154
0.04856509
0.04887111
0.04920634
0.04956761
0.04995237
0.05035803
0.05078161
0.05121898
0.05166314
0.05210365
0.05252802
0.05292389
0.05328025
0.05358785
0.05384008
0.05403509
0.05417776
0.05427937
0.05435479
0.05441943
0.05448837
0.05457646
0.05469769
0.05486375
0.05508298
0.05535958
0.05569322
0.05607945
0.05651113
0.05697983
0.05747718
0.05799559
0.05852855
0.05907262
0.0596266
0.06019077
0.06076671
0.06135663
0.0619635
0.0625913
0.063243
0.06391663
0.06460171
0.06527832
0.06591992
0.06649886
0.06699246
0.06738547
0.06767008
0.06784826
0.06791872
0.06787517
0.0677097
0.06741445
0.06698437
0.06641858
0.06571861
0.06488729
0.06393262
0.06286868
0.06170853
0.06047032
0.05918188
0.05787371
0.05655758
0.05521642
0.05382306
0.05236075
0.05083167
0.04924618
0.04761994
0.04597496
0.04433932
0.0427515
0.04127012
0.03997615
0.03896334
0.03832086
0.03811245
0.03836409
0.03907489
0.04024284
0.04181992
0.04361814
0.04547328
0.04724211
0.04875707
0.04984845
0.05040123
0.05040331
0.04994934
0.04920272
0.04833626
0.04749317
0.04676305
0.04618643
0.04580581
0.04563587
0.0456671
0.04587821
0.0462518
0.0467701
0.04741342
0.04816089
0.04899162
0.04988573
0.05082467
0.05179119
0.0527692
0.05374394
0.0547023
0.05563289
0.05652612
0.05737413
0.05817073
0.05891122
0.05959234
0.06021188
0.06076885
0.06126772
0.06171098
0.06210128
0.06244122
0.06273308
0.06297851
0.06317833
0.06333211
0.06343779
0.06349211
0.06349313
0.06343832
0.06332409
0.06314478
0.06289409
0.06257285
0.06218059
0.06171841
0.06118266
0.06058247
0.05991042
0.05923173
0.0585606
0.008139555
0.009519477
0.01058269
0.01578882
0.02180655
0.02974198
0.03630847
0.04376995
0.05188384
0.06056911
0.07013556
0.0814421
0.09388967
0.107847
0.1246108
0.1505008
0.1644073
0.1791043
0.1941127
0.2093876
0.2248565
0.2404058
0.2558722
0.2711511
0.2860929
0.3005849
0.314824
0.3303623
0.3462071
0.3624812
0.3792742
0.3961184
0.4125556
0.4284737
0.4435667
0.4580919
0.4721644
0.4857967
0.4989329
0.5114541
0.5231963
0.5339638
0.5435601
0.5518896
0.5587343
0.5637276
0.5664711
0.5670215
0.5654784
0.5621041
0.5570595
0.5507239
0.5429581
0.5345181
0.5257941
0.5170965
0.5087552
0.5010425
0.4941697
0.4882705
0.4834318
0.4796829
0.4770612
0.4755483
0.4751316
0.4757605
0.4773422
0.4796969
0.4825477
0.4851409
0.4875045
0.4895806
0.4913963
0.4929781
0.4943099
0.4952796
0.49564
0.4950808
0.4933596
0.4904331
0.4864325
0.4816156
0.4763372
0.4709669
0.4658212
0.4611838
0.4572887
0.4542329
0.4518798
0.4499092
0.4479636
0.445756
0.4431143
0.4399479
0.4361992
0.4318584
0.4270024
0.4217685
0.4162638
0.4105265
0.4045929
0.3985764
0.3926707
0.3870855
0.3819759
0.3774109
0.3733753
0.3698021
0.3666369
0.3638853
0.3616054
0.359855
0.3585917
0.3575989
0.3565442
0.3551279
0.3532265
0.350904
0.3482937
0.3454846
0.342492
0.3392885
0.3358711
0.3323787
0.3288389
0.3252024
0.3214876
0.3176779
0.3137112
0.3095177
0.30507
0.3003977
0.2955787
0.2907333
0.2860185
0.2816207
0.2777403
0.2748139
0.2734247
0.2739374
0.2766227
0.2815474
0.2885352
0.2970515
0.3061757
0.3147917
0.3218616
0.3267698
0.3293862
0.3299226
0.3287173
0.3261012
0.3223555
0.3177484
0.3126613
0.3072001
0.3014536
0.2955052
0.2894232
0.2832494
0.2769992
0.2706706
0.2642604
0.2577764
0.2512413
0.2446944
0.2381698
0.2316829
0.2252462
0.2188816
0.2126047
0.2064505
0.2004686
0.1947219
0.1892732
0.1841858
0.1795188
0.1753249
0.1716436
0.1685116
0.1659722
0.1640904
0.162959
0.1625803
0.1629328
0.1639704
0.1656235
0.1678017
0.1703901
0.1732259
0.1760732
0.1786636
0.1807745
0.1822864
0.1831833
0.1835221
0.1834045
0.182971
0.1824023
0.181886
0.181542
0.1813832
0.1812896
0.1811038
0.180631
0.1796947
0.1781602
0.1760046
0.1733481
0.1703028
0.167001
0.1635609
0.1600738
0.1566076
0.1532113
0.1499207
0.1467619
0.1437546
0.1409093
0.1382367
0.1357483
0.1334557
0.131371
0.1295069
0.1278774
0.1264972
0.1253817
0.1245478
0.1240137
0.1237986
0.1239147
0.1243082
0.1249061
0.1256161
0.1263369
0.126975
0.1274681
0.1278107
0.1280528
0.1282189
0.1283299
0.1283938
0.1284035
0.1283372
0.128165
0.1278517
0.1273568
0.1266468
0.1257053
0.124513
0.1230496
0.1213377
0.1194212
0.1173082
0.1149811
0.1124287
0.1096747
0.1067571
0.1037231
0.1006282
0.09753381
0.09450152
0.09158829
0.08884311
0.08630069
0.08398122
0.08189281
0.0800348
0.0783998
0.07697624
0.07574778
0.07469439
0.07379146
0.07301283
0.07233255
0.07172635
0.07117426
0.07065991
0.07016855
0.06968933
0.06921582
0.06874417
0.06827262
0.06780095
0.06732941
0.06685848
0.06639078
0.06592538
0.06545957
0.06499195
0.0645214
0.06404609
0.06356436
0.06307496
0.06257739
0.06207202
0.06156034
0.06104506
0.06053008
0.06002041
0.05952182
0.05904038
0.05858195
0.05815161
0.05775313
0.05738866
0.05705853
0.05676129
0.05649399
0.0562526
0.05603256
0.05582914
0.0556375
0.05545271
0.05527014
0.05508605
0.05489796
0.05470479
0.05450668
0.05430468
0.05410061
0.05389688
0.05369636
0.05350194
0.05331638
0.05314232
0.05298227
0.05283862
0.05271387
0.05261077
0.0525324
0.05248232
0.05246449
0.05248304
0.05254218
0.05264566
0.05279607
0.05299446
0.05324052
0.05353275
0.05386818
0.05424224
0.05464956
0.05508487
0.05554408
0.05602465
0.05652525
0.05704475
0.0575797
0.05812687
0.05867687
0.05921386
0.05971979
0.06017886
0.06057856
0.06090845
0.06116104
0.0613359
0.06144352
0.0615042
0.06154164
0.0615776
0.06163205
0.06172494
0.06187464
0.06209465
0.06239191
0.06276602
0.06320886
0.06370694
0.0642453
0.06481059
0.06539255
0.06598488
0.06658508
0.0671941
0.06781569
0.06845648
0.06912405
0.06982438
0.07056216
0.07134209
0.07216514
0.07302208
0.07388931
0.07472816
0.07549701
0.07615598
0.07667666
0.07704529
0.07725911
0.07733213
0.07727512
0.07708837
0.07676623
0.07630144
0.07568887
0.0749287
0.07402585
0.07298833
0.07183048
0.07057671
0.06925671
0.06789913
0.06652907
0.06516264
0.06379351
0.06238863
0.06090929
0.05934844
0.05771582
0.05602105
0.05427281
0.05248011
0.05065218
0.04880319
0.04695928
0.04516361
0.04347544
0.0419647
0.04070641
0.03977344
0.03923054
0.03912644
0.03948204
0.04027931
0.04148391
0.04303973
0.04478614
0.04656891
0.04826173
0.04973283
0.05086539
0.05159043
0.0519146
0.05191359
0.05170089
0.05139659
0.05110089
0.05088524
0.05078722
0.05081532
0.05098607
0.05130485
0.05176347
0.05234526
0.05302985
0.05379623
0.05462421
0.05549556
0.05639232
0.05729704
0.05819399
0.05906951
0.05991156
0.06070976
0.06145528
0.06214076
0.06276013
0.06330857
0.06378213
0.06418091
0.06450669
0.06476216
0.06495062
0.06507574
0.06514122
0.0651503
0.0651054
0.06500702
0.06485192
0.06464203
0.06437895
0.06406326
0.06369495
0.0632741
0.0628019
0.06228029
0.06171386
0.06110348
0.06045827
0.05977167
0.05909318
0.05844494
0.001904649
0.007556304
0.01136969
0.01581687
0.02080652
0.02654421
0.03312976
0.0404039
0.0485877
0.0584757
0.07344045
0.08248246
0.09230865
0.1026797
0.1136341
0.1251167
0.1370729
0.1494003
0.161943
0.1745838
0.1873107
0.2017012
0.2163788
0.2311647
0.2459512
0.2606529
0.2751977
0.2894981
0.3036038
0.3174672
0.3310714
0.3447601
0.3589087
0.3733226
0.3880445
0.4029453
0.4176801
0.4318849
0.4453149
0.4581947
0.4706638
0.4827742
0.494467
0.5056575
0.5161823
0.5258032
0.5341386
0.5409623
0.5459173
0.5481327
0.5479294
0.5452295
0.5401291
0.5327949
0.5236328
0.5130392
0.5014855
0.4894171
0.4774147
0.4659723
0.4555439
0.4465043
0.4391406
0.4336244
0.4300283
0.4283256
0.4284373
0.4303028
0.4338887
0.439174
0.4460596
0.4537205
0.462365
0.4717603
0.481352
0.4906959
0.4995667
0.5079159
0.5157565
0.5230795
0.5296498
0.5349307
0.5382076
0.5390092
0.5373403
0.5335053
0.528035