/*--------------------------------*- C++ -*----------------------------------*\
| =========                 |                                                 |
| \\      /  F ield         | foam-extend: Open Source CFD                    |
|  \\    /   O peration     | Version:     3.1                                |
|   \\  /    A nd           | Web:         http://www.extend-project.de       |
|    \\/     M anipulation  |                                                 |
\*---------------------------------------------------------------------------*/
FoamFile
{
    version     2.0;
    format      ascii;
    class       volScalarField;
    location    "14";
    object      p;
}
// * * * * * * * * * * * * * * * * * * * * * * * * * * * * * * * * * * * * * //

dimensions      [1 -1 -2 0 0 0 0];

internalField   nonuniform List<scalar> 
119952
(
6368.775
5214.328
5013.338
5140.454
5295.136
5117.735
5062.863
5018.126
4998.184
4993.447
5004.431
5026.932
5061.68
5106.21
5158.353
5214.856
5272.169
5326.355
5370.771
5376.651
5603.654
5589.803
5620.608
5866.287
5905.816
5986.107
6044.033
6128.294
6292.842
7379.759
4060.579
4037.331
4047.794
4052.189
4054.638
4052.339
4049.296
4046.748
4050.227
4027.992
4008.865
4025.156
4032.437
4048.087
4070.639
4100.577
4138.119
4182.199
4231.952
4300.545
4342.108
4388.851
4451.197
4514.427
4576.447
4636.896
4693.695
4744.556
4792.186
4821.746
4852.414
4877.807
4893.601
4900.94
4900.436
4892.889
4885.332
4916.404
5016.042
4858.581
4795.168
4832.367
4832.732
4798.186
4747.986
4718.818
4705.995
4707.045
4721.948
4749.313
4787.502
4834.808
4889.054
4947.693
5007.979
5067.855
5127.908
5192.691
5266.656
5350.1
5420.21
5519.206
5641.517
5710.463
5759.905
5806.096
5811.847
5735.793
5760.6
5811.924
5850.496
5884.94
5916.251
5942.808
5964.705
5982.362
5995.636
6004.416
6008.727
6008.737
6004.816
5997.489
5987.459
5975.272
5961.795
5948.066
5934.987
5923.349
5913.635
5906.298
5901.605
5899.549
5900.061
5903.011
5907.937
5914.795
5923.167
5932.786
5943.46
5955.027
5967.387
5980.486
5994.288
6008.732
6023.76
6039.236
6055.092
6071.298
6087.846
6104.713
6121.793
6138.871
6155.64
6171.745
6186.843
6200.858
6215.126
6230.72
6244.72
6253.747
6261.774
6269.245
6276.057
6282.35
6288.447
6294.654
6301.307
6308.844
6317.556
6327.784
6339.845
6354.154
6370.933
6389.945
6411.524
6435.657
6462.557
6492.607
6525.717
6562.44
6603.144
6646.499
6684.708
6679.507
6620.742
6623.545
6663.83
6708.188
6744.834
6769.524
6785.936
6798.219
6808.551
6817.613
6826.336
6835.757
6846.491
6858.524
6871.368
6884.332
6896.931
6908.891
6920.272
6931.401
6942.323
6953.116
6964.775
7008.797
7016.74
7026.804
7036.882
7046.548
7055.804
7064.661
7073.095
7081.083
7088.615
7095.693
7102.322
7108.504
7114.25
7119.569
7124.471
7128.976
7133.097
7136.846
7140.237
7143.281
7145.987
7148.362
7150.409
7152.129
7153.514
7154.558
7155.239
7155.533
7155.395
7154.752
7153.486
7151.376
7147.96
7141.918
7133.621
7141.063
7145.544
7148.153
7149.83
7150.8
7151.151
7151.048
7150.538
7149.662
7148.458
7146.958
7145.189
7143.177
7140.941
7138.5
7135.867
7133.057
7130.08
7126.947
7123.664
7120.236
7116.663
7112.946
7109.082
7105.067
7100.894
7096.556
7092.045
7087.357
7082.484
7077.429
7072.411
7067.017
7060.859
7039.019
7029.307
7011.853
7004.289
6998.593
6991.494
6984.21
6977.218
6970.49
6963.821
6957.256
6950.883
6944.772
6938.982
6933.56
6928.548
6923.987
6919.873
6916.186
6912.891
6909.931
6907.239
6904.746
6902.381
6900.084
6897.8
6895.477
6893.079
6890.584
6887.973
6885.233
6882.342
6879.314
6876.134
6872.817
6869.386
6865.864
6862.291
6858.72
6855.212
6851.846
6848.712
6845.926
6843.694
6842.052
6840.106
6837.189
6833.959
6832.262
6831.339
6831.478
6832.601
6834.925
6835.952
6835.021
6844.532
6855.09
6864.739
6874.755
6881.695
6880.745
6860.638
6833.807
6835.519
6856.267
6878.651
6896.93
6910.644
6919.225
6923.44
6924.014
6919.893
6913.281
6908.685
6906.755
6905.384
6903.522
6900.944
6898.176
6896.005
6894.725
6894.221
6894.428
6895.084
6895.969
6896.849
6897.567
6898.048
6898.263
6898.209
6897.919
6897.447
6896.85
6896.186
6895.494
6894.804
6894.131
6893.469
6892.801
6892.101
6891.339
6890.478
6889.485
6888.331
6886.993
6885.459
6883.727
6881.808
6879.725
6877.513
6875.224
6872.913
6870.642
6868.487
6866.535
6864.866
6863.555
6862.67
6862.275
6862.422
6863.147
6864.469
6866.387
6868.88
6871.905
6875.396
6879.271
6883.432
6887.768
6892.156
6896.459
6900.529
6904.187
6907.202
6909.213
6909.826
6909.802
6918.451
6959.039
4891.788
4788.483
4664.013
4552.18
4448.543
4352.42
4263.227
4180.302
4108.595
3993.141
3930.486
3865.896
3804.628
3750.097
3702.376
3662.221
3629.78
3600.613
3554.174
3556.175
3534.22
3525.098
3525.587
3530.376
3539.447
3552.45
3569.343
3589.645
3610.894
3623.075
3648.181
3670.832
3692.448
3713.124
3731.967
3748.507
3763.686
3780.938
3774.231
3772.444
3773.86
3771.578
3766.758
3760.173
3753.028
3746.947
3743.156
3738.496
3744.31
3755.495
3771.384
3794.218
3824.535
3862.418
3907.804
3960.285
3971.334
4037.209
4099.175
4162.847
4228.79
4294.726
4357.811
4416.074
4467.827
4512.552
4550.984
4580.217
4599.58
4609.56
4611.186
4605.935
4596.707
4586.718
4576.303
4557.265
4519.786
4474.88
4445.079
4423.139
4399.237
4374.592
4356.96
4351.176
4359.443
4380.945
4414.185
4457.638
4509.765
4568.742
4632.676
4699.913
4769.464
4841.36
4916.389
4995.771
5078.227
5161.27
5245.641
5326.218
5393.41
5443.291
5476.146
5492.765
5501.031
5515.841
5543.378
5575.921
5607.626
5633.881
5655.851
5673.725
5687.679
5697.461
5702.809
5703.709
5700.391
5693.273
5682.946
5670.119
5655.643
5640.452
5625.594
5612.038
5600.516
5591.556
5585.431
5582.231
5581.895
5584.194
5588.792
5595.247
5603.203
5612.249
5622.265
5633.176
5644.894
5657.514
5671.113
5685.708
5701.258
5717.644
5734.727
5752.345
5770.345
5788.582
5806.898
5825.108
5842.979
5860.263
5876.733
5892.244
5906.824
5920.38
5932.783
5943.776
5953.106
5960.746
5966.993
5972.507
5977.439
5982.348
5987.469
5993.203
5999.995
6008.318
6018.583
6030.988
6045.737
6062.94
6082.605
6104.664
6129.161
6155.92
6184.862
6216.279
6248.508
6280.499
6312.062
6330.59
6342.043
6331.822
6346.021
6376.916
6408.393
6438.547
6463.674
6481.766
6495.871
6508.407
6519.856
6530.656
6541.52
6552.929
6564.68
6576.108
6587.157
6597.961
6608.609
6619.197
6629.827
6640.499
6651.344
6662.761
6737.835
6745.07
6752.717
6762.214
6771.484
6780.489
6789.132
6797.357
6805.141
6812.48
6819.371
6825.817
6831.826
6837.403
6842.561
6847.309
6851.662
6855.635
6859.242
6862.497
6865.409
6867.989
6870.242
6872.173
6873.781
6875.062
6876.006
6876.599
6876.815
6876.618
6875.952
6874.739
6872.874
6870.308
6867.393
6865.492
6866.724
6869.389
6871.121
6872.358
6873.109
6873.373
6873.22
6872.697
6871.832
6870.654
6869.189
6867.46
6865.488
6863.292
6860.889
6858.293
6855.516
6852.571
6849.466
6846.209
6842.801
6839.245
6835.539
6831.68
6827.663
6823.477
6819.117
6814.574
6809.848
6804.937
6799.863
6794.615
6789.272
6785.099
6713.382
6709.358
6704.469
6697.093
6688.925
6681.194
6674.002
6667.074
6660.24
6653.483
6646.874
6640.504
6634.453
6628.787
6623.561
6618.82
6614.581
6610.825
6607.516
6604.596
6601.991
6599.62
6597.403
6595.237
6593.092
6590.922
6588.637
6586.245
6583.726
6581.067
6578.263
6575.309
6572.195
6568.936
6565.527
6562.002
6558.39
6554.737
6551.095
6547.518
6544.056
6540.769
6537.712
6534.88
6532.234
6529.718
6527.177
6524.903
6523.297
6522.512
6522.646
6523.777
6525.972
6529.235
6532.531
6536.589
6542.146
6548.209
6554.201
6555.112
6554.533
6550.938
6543.212
6543.49
6557.482
6573.184
6586.61
6598.069
6606.522
6610.899
6611.179
6609.436
6608.56
6609.319
6608.569
6604.213
6598.197
6592.951
6589.462
6587.867
6587.314
6587.467
6588.174
6589.295
6590.51
6591.502
6592.219
6592.664
6592.811
6592.648
6592.234
6591.651
6590.968
6590.233
6589.494
6588.786
6588.123
6587.493
6586.87
6586.222
6585.511
6584.696
6583.739
6582.607
6581.274
6579.724
6577.953
6575.972
6573.804
6571.485
6569.064
6566.608
6564.187
6561.841
6559.696
6557.826
6556.305
6555.204
6554.587
6554.509
6555.008
6556.104
6557.799
6560.073
6562.884
6566.167
6569.839
6573.805
6577.963
6582.198
6586.39
6590.414
6594.199
6597.655
6600.991
6604.556
6610.032
6618.648
6632.413
3080.976
3145.682
3231.089
3333.549
3451.494
3584.127
3731.327
3892.181
4065.209
4245.854
4420.368
4617.856
4818.872
5022.665
5225.287
5423.173
5612.349
5788.991
5946.151
6067.105
6179.646
6265.333
6323.224
6351.773
6350.107
6318.568
6258.416
6172.032
6066.161
5937.309
5795.608
5642.389
5483.682
5323.143
5163.955
5008.713
4859.761
4719.429
4576.448
4449.428
4330.006
4218.417
4115.382
4019.629
3930.713
3848.018
3771.331
3697.954
3627.54
3564.377
3505.789
3452.702
3406.478
3367.592
3336.712
3319.2
3220.045
3208.449
3205.232
3205.583
3208.875
3215.991
3227.377
3242.593
3260.843
3281.495
3304.481
3328.263
3351.291
3374.163
3396.49
3417.513
3436.605
3453.038
3465.885
3474.446
3479.161
3479.37
3475.522
3468.597
3459.358
3448.555
3437.394
3427.36
3420.109
3417.772
3420.916
3430.049
3446.254
3470.346
3502.354
3542.491
3590.06
3646.454
3712.048
3778.263
3844.725
3914.528
3987.205
4059.795
4129.119
4193.027
4249.042
4297.383
4336.677
4365.648
4383.818
4391.239
4388.198
4376.129
4356.273
4329.989
4298.557
4266.021
4226.042
4177.413
4135.644
4106.222
4083.079
4063.101
4050.038
4048.735
4061.05
4086.52
4123.78
4171.485
4228.262
4292.454
4362.395
4436.538
4513.645
4592.968
4674.27
4757.22
4841.338
4924.162
5003.307
5078.243
5144.438
5196.841
5235.801
5265.282
5286.882
5306.057
5330.58
5359.644
5387.687
5411.312
5430.455
5445.493
5456.572
5463.443
5465.829
5463.708
5457.312
5447.085
5433.657
5417.834
5400.596
5383.065
5366.432
5351.738
5339.749
5330.932
5325.514
5323.471
5324.566
5328.414
5334.502
5342.179
5350.858
5360.285
5370.431
5381.335
5392.868
5405.391
5419.143
5434.205
5450.576
5468.133
5486.663
5505.917
5525.633
5545.565
5565.473
5585.11
5604.22
5622.547
5639.855
5655.949
5670.665
5683.888
5695.663
5705.884
5714.151
5720.503
5725.445
5729.303
5732.942
5736.196
5739.648
5743.863
5749.387
5756.729
5766.283
5778.299
5792.905
5810.103
5829.748
5851.599
5875.551
5901.416
5928.655
5956.995
5985.96
6014.202
6040.63
6063.198
6078.315
6084.02
6101.797
6130.857
6159.917
6187.501
6211.759
6232.225
6250.296
6266.223
6279.826
6291.759
6302.945
6313.954
6325.116
6336.485
6347.846
6358.995
6369.855
6380.319
6390.58
6400.746
6411.163
6421.43
6431.307
6442.33
6452.074
6460.939
6469.442
6478.106
6486.53
6494.491
6501.997
6509.051
6515.668
6521.844
6527.581
6532.89
6537.782
6542.272
6546.375
6550.106
6553.48
6556.509
6559.205
6561.577
6563.632
6565.374
6566.802
6567.916
6568.708
6569.17
6569.287
6569.043
6568.422
6567.426
6566.106
6564.624
6563.312
6562.645
6562.939
6563.901
6564.898
6565.589
6565.901
6565.855
6565.481
6564.797
6563.816
6562.552
6561.024
6559.251
6557.247
6555.03
6552.612
6550.008
6547.227
6544.285
6541.188
6537.94
6534.543
6530.997
6527.297
6523.441
6519.421
6515.222
6510.83
6506.235
6501.431
6496.423
6491.219
6485.836
6480.301
6474.489
6468.011
6461.262
6454.047
6446.716
6439.591
6432.693
6425.895
6419.097
6412.291
6405.531
6398.911
6392.536
6386.502
6380.896
6375.786
6371.22
6367.216
6363.757
6360.781
6358.211
6355.957
6353.918
6351.992
6350.082
6348.132
6346.097
6343.91
6341.566
6339.061
6336.393
6333.562
6330.567
6327.406
6324.081
6320.602
6316.996
6313.297
6309.548
6305.795
6302.075
6298.416
6294.846
6291.398
6288.109
6285.006
6282.148
6279.546
6277.271
6275.501
6274.588
6274.496
6275.244
6276.822
6278.929
6281.794
6285.831
6290.304
6294.474
6298.369
6301.294
6302.33
6300.649
6297.987
6300.925
6312.142
6323.482
6333.301
6342.237
6349.385
6355.419
6360.108
6361.946
6360.304
6356.858
6354.137
6352.981
6352.848
6352.389
6349.776
6346.307
6343.849
6342.943
6343.49
6344.883
6346.34
6347.522
6348.354
6348.904
6349.099
6348.86
6348.305
6347.587
6346.786
6345.94
6345.113
6344.357
6343.686
6343.077
6342.498
6341.912
6341.276
6340.543
6339.667
6338.608
6337.332
6335.82
6334.062
6332.062
6329.841
6327.433
6324.887
6322.265
6319.639
6317.089
6314.698
6312.555
6310.736
6309.32
6308.381
6307.977
6308.153
6308.935
6310.329
6312.322
6314.877
6317.931
6321.402
6325.2
6329.234
6333.401
6337.576
6341.666
6345.676
6349.578
6353.672
6357.964
6363.624
6369.8
6380.727
2758.339
2741.389
2723.875
2694.337
2679.982
2645.52
2654.229
2678.205
2715.101
2735.845
2743.052
2767.281
2812.018
2874.945
2955.298
3051.104
3161.892
3287.075
3424.9
3575.705
3738.513
3912.172
4094.579
4283.58
4477.489
4674.032
4869.797
5061.384
5245.166
5418.325
5574.496
5688.733
5798.993
5883.052
5936.58
5959.63
5952.259
5914.991
5849.464
5758.536
5646.104
5515.395
5370.423
5215.872
5056.501
4896.396
4738.791
4586.535
4441.02
4303.453
4173.692
4052.095
3938.906
3834.127
3737.52
3648.383
3565.629
3488.076
3414.737
3345.032
3278.798
3216.41
3158.933
3107.492
3063.034
3026.273
2997.042
2975.159
2958.432
2949.28
2945.976
2945.807
2949.381
2957.589
2970.453
2987.473
3007.91
3031.154
3056.188
3081.632
3107.186
3132.701
3157.504
3180.671
3201.314
3218.559
3231.79
3240.819
3244.849
3243.416
3237.454
3227.679
3214.467
3198.711
3182.116
3166.98
3155.519
3149.212
3149.222
3156.419
3171.335
3194.426
3226.32
3267.207
3317.5
3375.798
3441.278
3512.557
3587.77
3666.461
3747.24
3827.447
3904.325
3975.246
4039.151
4092.939
4135.51
4165.853
4183.179
4187.337
4177.904
4155.989
4122.762
4080.491
4032.039
3980.461
3925.769
3870.256
3821.611
3784.23
3756.725
3737.562
3728.084
3730.766
3746.925
3776.321
3817.87
3870.341
3932.507
4002.911
4079.847
4161.505
4246.206
4332.674
4420.072
4507.568
4594.187
4678.229
4758.088
4832.729
4899.483
4955.886
5001.766
5039.006
5069.045
5095.161
5121.524
5148.582
5173.741
5194.941
5211.727
5224.202
5232.444
5236.204
5235.204
5229.426
5219.134
5204.825
5187.212
5167.207
5145.962
5124.875
5105.483
5089
5076.174
5067.37
5062.719
5062.116
5065.173
5071.179
5079.296
5088.655
5098.468
5108.435
5118.889
5129.504
5140.4
5152.366
5165.877
5181.078
5198.016
5216.586
5236.526
5257.477
5279.058
5300.907
5322.688
5344.095
5364.82
5384.549
5402.999
5419.926
5435.134
5448.497
5459.943
5469.36
5476.665
5481.999
5485.681
5488.088
5489.372
5490.324
5491.518
5493.614
5497.28
5503.112
5511.572
5522.948
5537.271
5554.381
5573.971
5595.669
5619.169
5644.102
5669.98
5696.511
5723.347
5749.647
5774.486
5797.203
5816.402
5832.632
5853.538
5880.167
5907.184
5933.257
5957.779
5980.034
5999.878
6017.477
6033.163
6047.526
6061.069
6073.966
6086.425
6098.627
6110.384
6121.583
6132.257
6142.555
6152.63
6162.678
6172.533
6182.313
6191.612
6200.986
6210.401
6219.529
6228.233
6236.684
6244.778
6252.456
6259.697
6266.461
6272.806
6278.729
6284.234
6289.329
6294.015
6298.309
6302.223
6305.776
6308.981
6311.853
6314.401
6316.634
6318.56
6320.182
6321.502
6322.522
6323.239
6323.651
6323.756
6323.554
6323.058
6322.299
6321.348
6320.328
6319.423
6318.845
6318.775
6319.168
6319.689
6320.03
6320.085
6319.853
6319.348
6318.577
6317.54
6316.245
6314.703
6312.931
6310.941
6308.743
6306.35
6303.774
6301.022
6298.112
6295.052
6291.842
6288.485
6284.977
6281.31
6277.491
6273.499
6269.321
6264.938
6260.341
6255.511
6250.449
6245.13
6239.589
6233.729
6227.633
6221.166
6214.261
6207.427
6200.691
6193.864
6186.888
6179.81
6172.684
6165.565
6158.524
6151.656
6145.067
6138.864
6133.152
6128.019
6123.532
6119.718
6116.541
6113.917
6111.738
6109.889
6108.241
6106.667
6105.056
6103.332
6101.44
6099.343
6097.038
6094.535
6091.846
6088.986
6085.96
6082.763
6079.388
6075.846
6072.159
6068.356
6064.472
6060.553
6056.627
6052.702
6048.792
6044.931
6041.18
6037.614
6034.331
6031.351
6028.802
6026.986
6025.902
6025.547
6025.911
6026.957
6028.62
6030.995
6034.055
6037.468
6041.009
6044.474
6047.108
6048.84
6050.04
6051.245
6055.18
6062.967
6071.596
6079.363
6086.946
6093.905
6099.658
6103.202
6104.372
6104.408
6104.932
6106.656
6107.72
6106.008
6102.524
6099.723
6099
6100.284
6101.715
6102.378
6102.781
6103.335
6104.086
6104.891
6105.414
6105.448
6105.037
6104.342
6103.549
6102.697
6101.755
6100.826
6100.014
6099.335
6098.745
6098.209
6097.691
6097.137
6096.489
6095.695
6094.707
6093.483
6091.996
6090.235
6088.2
6085.908
6083.395
6080.71
6077.918
6075.097
6072.331
6069.711
6067.322
6065.227
6063.54
6062.34
6061.688
6061.632
6062.202
6063.409
6065.246
6067.681
6070.638
6074.024
6077.757
6081.762
6085.968
6090.235
6094.445
6098.64
6102.791
6107.155
6111.563
6117.1
6122.386
6131.75
2929.747
2904.141
2878.824
2829.538
2788.846
2715.445
2675.575
2636.225
2598.125
2561.572
2526.579
2494.639
2464.985
2439.347
2418.744
2403.227
2334.016
2335.602
2345.681
2360.717
2377.465
2401.125
2437.182
2488.244
2553.762
2634.671
2731.413
2843.141
2969.22
3108.803
3260.891
3424.304
3597.505
3779.114
3967.824
4161.096
4355.773
4549.374
4738.855
4922.466
5093.627
5247.002
5372.904
5483.222
5567.283
5620.9
5643.861
5636.169
5598.364
5531.974
5439.499
5324.646
5191.479
5044.523
4888.275
4727.991
4567.733
4410.734
4260.377
4117.901
3982.684
3854.814
3736.177
3627.543
3528.237
3437.476
3354.275
3277.045
3204.058
3134.145
3066.598
3001.346
2939.306
2881.709
2829.923
2785.418
2749.412
2721.883
2702.282
2689.209
2681.688
2678.575
2679.22
2684.214
2694.116
2708.902
2728.188
2751.369
2777.577
2805.567
2834.442
2863.792
2893.115
2921.608
2948.108
2971.427
2990.573
3004.862
3013.902
3017.297
3014.92
3007.006
2993.647
2974.743
2951.371
2926.304
2903.024
2884.634
2872.974
2868.873
2872.638
2884.558
2905.227
2935.652
2976.431
3027.707
3088.668
3158.626
3236.702
3321.134
3410.175
3501.805
3593.38
3681.907
3764.41
3838.305
3900.812
3949.786
3983.672
4000.749
4000.376
3982.894
3949.234
3900.477
3839.336
3769.5
3695.486
3621.775
3552.805
3493.668
3447.861
3415.649
3396.107
3389.102
3395.264
3415.029
3448.132
3494.001
3551.78
3620.4
3698.373
3783.836
3874.551
3968.223
4062.937
4157.406
4250.697
4341.83
4429.596
4512.707
4589.953
4659.809
4721.033
4773.235
4817.227
4854.364
4886.496
4915.586
4942.322
4965.941
4985.383
5000.126
5010.052
5015.138
5015.258
5010.252
5000.087
4984.989
4965.5
4942.449
4916.864
4890.141
4864.068
4840.6
4821.414
4807.438
4798.813
4795.353
4796.705
4802.336
4811.37
4822.531
4834.438
4845.78
4856.711
4867.172
4876.945
4887.164
4898.078
4910.979
4926.069
4943.492
4963.16
4984.714
5007.648
5031.432
5055.579
5079.633
5103.207
5125.941
5147.467
5167.435
5185.543
5201.547
5215.254
5226.518
5235.266
5241.535
5245.462
5247.284
5247.371
5246.112
5244.218
5242.444
5241.656
5242.741
5246.517
5253.593
5264.228
5278.324
5295.541
5315.366
5337.231
5360.634
5385.116
5410.216
5435.593
5460.983
5485.936
5510.1
5533.651
5556.069
5577.315
5600.509
5626.595
5653.377
5679.62
5704.638
5727.823
5749.097
5768.674
5786.742
5803.513
5819.2
5833.926
5847.759
5860.852
5873.172
5884.774
5895.763
5906.273
5916.399
5926.244
5935.771
5945.106
5954.146
5963.148
5972.269
5981.094
5989.409
5997.316
6004.874
6012.066
6018.87
6025.323
6031.339
6036.946
6042.141
6046.955
6051.387
6055.454
6059.161
6062.522
6065.551
6068.26
6070.66
6072.759
6074.563
6076.076
6077.301
6078.24
6078.895
6079.27
6079.372
6079.212
6078.815
6078.219
6077.486
6076.703
6075.985
6075.452
6075.201
6075.215
6075.32
6075.324
6075.128
6074.706
6074.053
6073.171
6072.055
6070.704
6069.121
6067.321
6065.311
6063.101
6060.702
6058.125
6055.373
6052.478
6049.442
6046.265
6042.951
6039.502
6035.905
6032.141
6028.187
6024.036
6019.667
6015.06
6010.199
6005.073
5999.654
5993.954
5987.953
5981.707
5975.184
5968.44
5961.646
5954.781
5947.758
5940.563
5933.245
5925.858
5918.457
5911.129
5903.982
5897.137
5890.718
5884.852
5879.663
5875.256
5871.673
5868.857
5866.674
5864.981
5863.646
5862.5
5861.373
5860.129
5858.674
5856.954
5854.948
5852.67
5850.152
5847.426
5844.53
5841.481
5838.262
5834.85
5831.259
5827.495
5823.555
5819.482
5815.337
5811.15
5806.918
5802.633
5798.32
5794.04
5789.911
5786.167
5782.747
5779.857
5777.787
5776.526
5775.969
5776.041
5776.704
5777.928
5779.72
5782.105
5784.962
5788.043
5791.089
5793.97
5796.838
5799.636
5802.49
5806.362
5812.031
5818.925
5825.804
5832.563
5838.393
5842.818
5846.209
5849.108
5851.742
5853.929
5855.231
5855.411
5854.794
5854.654
5855.397
5855.763
5855.369
5855.377
5856.749
5859.287
5861.768
5863.055
5863.465
5863.25
5862.619
5861.834
5860.959
5859.943
5858.819
5857.68
5856.653
5855.851
5855.248
5854.72
5854.235
5853.785
5853.314
5852.754
5852.044
5851.125
5849.945
5848.474
5846.698
5844.612
5842.231
5839.592
5836.749
5833.769
5830.736
5827.74
5824.883
5822.264
5819.884
5817.938
5816.501
5815.632
5815.38
5815.776
5816.836
5818.554
5820.926
5823.867
5827.247
5830.979
5834.999
5839.213
5843.524
5847.864
5852.231
5856.56
5861.026
5865.414
5870.579
5875.146
5883.189
3073.198
3040.51
3003.238
2953.96
2918.519
2847.464
2812.22
2776.956
2741.293
2705.053
2668.759
2632.407
2594.445
2556.336
2516.175
2409.565
2369.75
2330.781
2292.703
2255.808
2220.502
2187.483
2156.953
2129.537
2106.403
2088.316
2075.335
2069.834
2071.346
2079.356
2094.359
2119.024
2155.315
2204.494
2269.013
2348.791
2443.594
2553.169
2676.944
2814.079
2963.622
3124.592
3295.309
3474
3658.552
3846.772
4037.224
4226.735
4412.97
4593.253
4762.332
4915.551
5045.578
5152.447
5232.085
5281.949
5301.261
5289.869
5248.506
5178.673
5082.778
4964.3
4827.596
4678.146
4520.111
4359.385
4200.517
4046.585
3899.951
3761.583
3631.462
3509.752
3398.276
3297.271
3205.91
3123.389
3048.444
2978.673
2911.667
2846.011
2780.772
2716.06
2653.415
2594.73
2542.064
2497.677
2463.158
2438.521
2422.422
2412.273
2406.69
2404.591
2406.068
2412.279
2423.889
2441.01
2463.35
2490.227
2520.7
2553.275
2586.934
2621.296
2655.822
2689.583
2720.908
2748.105
2769.92
2785.658
2795.149
2798.396
2794.879
2783.927
2765.133
2737.824
2703.384
2666.278
2631.665
2604.214
2586.109
2577.062
2576.374
2584.08
2601.119
2629.195
2669.532
2722.319
2786.959
2862.806
2948.971
3044.037
3145.966
3252.003
3358.874
3462.994
3560.631
3648.245
3722.51
3780.511
3819.679
3837.776
3833.424
3806.534
3758.215
3689.803
3604.434
3507.181
3405.669
3308.595
3222.403
3150.592
3095.426
3058.052
3037.75
3032.937
3042.734
3066.698
3104.218
3154.751
3218.16
3294.136
3381.103
3476.547
3577.655
3681.408
3785.286
3887.748
3987.966
4085.186
4178.432
4266.582
4348.624
4423.554
4490.534
4549.171
4599.82
4643.317
4680.658
4712.891
4740.64
4763.855
4782.15
4795.236
4802.867
4804.815
4801.006
4791.409
4776.068
4755.258
4729.559
4699.82
4667.107
4633.086
4600.362
4571.756
4549.2
4533.513
4524.755
4522.6
4526.489
4535.755
4549.147
4564.715
4580.487
4593.717
4605.706
4616.456
4624.505
4632.709
4642.042
4653.975
4668.627
4686.418
4707.248
4730.622
4755.838
4782.167
4808.971
4835.709
4861.9
4887.082
4910.804
4932.657
4952.279
4969.355
4983.638
4994.959
5003.231
5008.451
5010.753
5010.406
5007.785
5003.363
4997.889
4992.335
4987.855
4985.641
4986.775
4992.067
5001.849
5015.876
5033.528
5053.999
5076.469
5100.236
5124.715
5149.43
5174.06
5198.453
5222.545
5246.433
5270.474
5294.769
5319.404
5345.341
5372.66
5400.17
5426.987
5452.643
5476.899
5499.781
5521.343
5541.516
5560.255
5577.626
5593.836
5608.969
5623.077
5636.22
5648.567
5660.133
5670.996
5681.288
5691.142
5700.611
5709.785
5718.689
5727.399
5735.922
5744.107
5751.867
5759.253
5766.315
5773.048
5779.422
5785.425
5791.052
5796.293
5801.148
5805.628
5809.728
5813.5
5816.943
5820.075
5822.899
5825.426
5827.663
5829.618
5831.294
5832.695
5833.823
5834.678
5835.267
5835.595
5835.675
5835.525
5835.171
5834.653
5834.021
5833.341
5832.689
5832.135
5831.728
5831.457
5831.237
5830.953
5830.525
5829.912
5829.102
5828.093
5826.877
5825.449
5823.809
5821.98
5819.953
5817.731
5815.326
5812.758
5810.032
5807.159
5804.139
5800.989
5797.713
5794.313
5790.787
5787.102
5783.218
5779.122
5774.779
5770.161
5765.249
5760.033
5754.498
5748.647
5742.495
5736.083
5729.45
5722.648
5715.727
5708.708
5701.565
5694.257
5686.781
5679.152
5671.431
5663.742
5656.232
5649.041
5642.299
5636.159
5630.797
5626.4
5623.061
5620.675
5619.03
5617.925
5617.227
5616.708
5616.129
5615.32
5614.173
5612.633
5610.7
5608.42
5605.865
5603.099
5600.178
5597.13
5593.929
5590.544
5586.936
5583.056
5578.905
5574.562
5570.118
5565.619
5561.066
5556.399
5551.599
5546.725
5541.941
5537.614
5533.599
5530.162
5527.9
5526.572
5525.838
5525.656
5525.992
5526.775
5528.07
5530.087
5532.662
5535.511
5538.528
5541.735
5545.17
5548.746
5552.408
5556.55
5561.594
5567.234
5572.846
5578.242
5583.215
5587.768
5591.854
5595.346
5598.081
5600.028
5601.723
5603.514
5605.33
5606.918
5607.997
5608.709
5609.742
5611.786
5614.159
5615.798
5617.181
5618.554
5620.023
5621.047
5620.991
5620.132
5618.883
5617.327
5615.72
5614.319
5613.184
5612.272
5611.55
5610.985
5610.549
5610.193
5609.83
5609.376
5608.766
5607.929
5606.792
5605.327
5603.529
5601.385
5598.9
5596.119
5593.099
5589.915
5586.653
5583.411
5580.308
5577.526
5574.799
5572.609
5570.956
5569.893
5569.469
5569.721
5570.664
5572.291
5574.565
5577.419
5580.775
5584.543
5588.619
5592.865
5597.225
5601.678
5606.158
5610.594
5615.077
5619.39
5624.072
5628.058
5634.89
3028.576
2984.372
2944.66
2893.779
2842.435
2795.899
2752.914
2713.188
2676.295
2639.358
2537.35
2502.51
2467.935
2432.98
2397.403
2361.2
2324.281
2286.378
2247.626
2208.722
2170.447
2131.153
2092.15
2053.681
2016.118
1979.703
1944.919
1911.736
1880.511
1852.502
1828.832
1811.159
1800.03
1795.967
1800.188
1813.702
1837.982
1874.22
1923.751
1987.428
2065.769
2158.801
2266.312
2387.804
2522.453
2669.245
2827.175
2993.938
3167.545
3346.79
3530.23
3716.719
3903.371
4086.123
4261.283
4423.884
4569.163
4692.251
4790.224
4861.025
4902.916
4915.068
4897.135
4849.88
4774.903
4674.459
4552.176
4412.373
4261.045
4103.53
3943.356
3784.902
3634.113
3493.379
3362.733
3242.593
3132.417
3032.396
2942.484
2862.121
2790.909
2727.46
2667.764
2607.972
2546.851
2483.836
2419.355
2355.338
2294.357
2240.032
2196.328
2165.003
2145.198
2134.193
2127.219
2124.424
2123.362
2124.598
2131.496
2145.194
2165.628
2192.442
2224.683
2261.063
2299.244
2338.52
2379.465
2421.304
2462.533
2500.427
2532.657
2557.476
2574.572
2584.879
2589.2
2585.908
2572.021
2545.745
2505.54
2454.059
2399.869
2350.653
2312.715
2287.69
2273.48
2267.486
2269.268
2280.803
2305.783
2345.956
2400.808
2469.445
2551.639
2646.94
2754.631
2872.679
2997.151
3123.522
3247.388
3364.329
3469.731
3559.13
3628.571
3675.344
3695.824
3687.749
3649.815
3583.62
3491.053
3375.312
3243.746
3108.372
2982.191
2874.393
2788.53
2725.045
2684.02
2664.158
2662.273
2675.885
2703.921
2746.012
2801.622
2870.894
2954.56
3052.316
3160.58
3274.311
3389.527
3503.421
3614.324
3721.711
3825.317
3924.582
4018.702
4106.858
4188.139
4261.794
4327.396
4384.926
4434.713
4477.265
4513.207
4543.036
4566.855
4584.615
4596.331
4601.978
4601.221
4593.835
4579.623
4558.571
4531.094
4497.933
4459.904
4417.897
4373.977
4332.073
4296.561
4270.02
4252.87
4244.477
4244.181
4251.414
4265.566
4284.862
4306.32
4326.431
4343.808
4356.459
4366.889
4373.712
4378.426
4385.431
4395.597
4409.289
4427.148
4449.052
4474.309
4501.944
4530.969
4560.62
4590.321
4619.502
4647.544
4673.9
4698.083
4719.646
4738.194
4753.398
4765.026
4772.964
4777.218
4777.923
4775.321
4769.735
4761.631
4751.814
4741.517
4732.289
4725.761
4723.435
4726.414
4735.18
4749.366
4767.934
4789.62
4813.295
4838.009
4862.972
4887.643
4911.773
4935.337
4958.579
4982.004
5006.206
5031.979
5059.542
5088.501
5118.014
5147.066
5175.073
5201.804
5227.236
5251.433
5274.44
5296.226
5316.8
5336.057
5353.948
5370.569
5385.979
5400.115
5413.148
5425.239
5436.51
5447.057
5457.023
5466.529
5475.658
5484.371
5492.708
5500.706
5508.36
5515.65
5522.578
5529.159
5535.39
5541.254
5546.755
5551.894
5556.661
5561.079
5565.155
5568.918
5572.357
5575.465
5578.308
5580.885
5583.205
5585.264
5587.065
5588.608
5589.892
5590.917
5591.684
5592.195
5592.46
5592.491
5592.312
5591.946
5591.433
5590.817
5590.148
5589.476
5588.843
5588.274
5587.763
5587.27
5586.745
5586.12
5585.332
5584.366
5583.245
5581.942
5580.454
5578.769
5576.892
5574.827
5572.587
5570.175
5567.604
5564.89
5562.039
5559.049
5555.937
5552.706
5549.352
5545.872
5542.235
5538.415
5534.396
5530.101
5525.487
5520.548
5515.27
5509.631
5503.633
5497.305
5490.704
5483.905
5476.978
5469.974
5462.926
5455.781
5448.432
5440.824
5432.917
5424.785
5416.624
5408.639
5400.974
5393.743
5387.133
5381.382
5376.842
5373.748
5371.895
5370.901
5370.484
5370.613
5370.922
5370.994
5370.67
5369.872
5368.527
5366.639
5364.313
5361.67
5358.821
5355.881
5352.959
5349.92
5346.585
5342.887
5338.816
5334.382
5329.677
5324.866
5320.029
5315.167
5310.166
5304.883
5299.394
5294.064
5288.801
5283.837
5280.214
5277.77
5276.173
5275.201
5274.845
5274.959
5275.426
5276.555
5278.284
5280.536
5283.185
5286.14
5289.455
5293.237
5297.451
5301.879
5306.368
5311.002
5315.73
5320.47
5325.362
5330.181
5334.556
5338.297
5341.398
5343.993
5346.556
5349.491
5352.576
5355.396
5357.748
5360.187
5362.288
5363.954
5366.801
5369.557
5371.702
5374.182
5376.113
5377.315
5377.777
5377.651
5377.247
5376.617
5375.45
5373.936
5372.38
5370.988
5369.743
5368.72
5368.012
5367.578
5367.284
5366.989
5366.584
5365.996
5365.169
5364.043
5362.564
5360.705
5358.463
5355.86
5352.935
5349.75
5346.38
5342.913
5339.441
5336.046
5332.755
5330.088
5327.746
5325.904
5324.655
5324.06
5324.161
5324.977
5326.493
5328.638
5331.361
5334.637
5338.377
5342.459
5346.771
5351.214
5355.707
5360.178
5364.555
5368.876
5372.981
5377.21
5380.811
5386.491
2771.797
2713.15
2592.992
2549.144
2506.268
2466.219
2428.654
2393.039
2358.72
2325.399
2293.049
2259.952
2226.435
2192.209
2157.287
2121.438
2084.605
2046.71
2007.683
1967.95
1928.724
1889.334
1850.043
1811.112
1772.578
1734.14
1696.1
1659.372
1624.708
1593.067
1566.164
1545.463
1531.549
1525.155
1527.466
1539.626
1562.802
1598.22
1646.77
1709.181
1785.891
1877.025
1982.355
2101.48
2233.416
2376.84
2529.511
2689.817
2857.249
3031.477
3210.94
3392.808
3573.723
3749.451
3915.717
4067.857
4201.258
4312.019
4397.324
4455.586
4485.798
4487.42
4460.572
4405.632
4324.605
4219.885
4095.121
3955.393
3803.394
3644.519
3484.227
3327.113
3180.792
3048.939
2930.978
2825.583
2730.883
2645.152
2568.483
2501.464
2444.135
2395.173
2348.862
2298.502
2241.392
2177.605
2110.804
2044.504
1980.43
1923.172
1880.05
1854.238
1843.007
1840.98
1837.667
1835.811
1836.191
1834.164
1840.032