/*--------------------------------*- C++ -*----------------------------------*\
| =========                 |                                                 |
| \\      /  F ield         | foam-extend: Open Source CFD                    |
|  \\    /   O peration     | Version:     3.1                                |
|   \\  /    A nd           | Web:         http://www.extend-project.de       |
|    \\/     M anipulation  |                                                 |
\*---------------------------------------------------------------------------*/
FoamFile
{
    version     2.0;
    format      ascii;
    class       surfaceScalarField;
    location    "14";
    object      phi;
}
// * * * * * * * * * * * * * * * * * * * * * * * * * * * * * * * * * * * * * //

dimensions      [0 3 -1 0 0 0 0];

internalField   nonuniform List<scalar> 
275122
(
-0.0003291722
0.0003350952
-2.775216e-07
-5.645505e-06
-0.0002997325
0.0002869931
1.114218e-06
1.162515e-05
-0.0003025481
0.0003113247
-3.215652e-07
-8.455036e-06
-0.0003425023
0.0003525782
-3.199932e-07
-9.755925e-06
-0.0003786396
0.0003823044
-3.454312e-07
-3.319426e-06
-0.0003843149
0.0003842614
-3.667309e-07
4.202304e-07
-0.0003818847
0.0003807313
-3.343287e-07
1.487759e-06
-0.0003763178
0.0003745526
-3.219466e-07
2.087111e-06
-0.0003685573
0.0003663798
-3.069862e-07
2.484522e-06
-0.0003590375
0.0003564199
-2.725259e-07
2.890191e-06
-0.0003480226
0.0003449913
-2.469894e-07
3.278279e-06
-0.0003354039
0.0003320094
-2.248407e-07
3.619409e-06
-0.0003213168
0.0003175614
-2.043868e-07
3.959786e-06
-0.0003057788
0.0003016735
-1.787767e-07
4.284017e-06
-0.0002887907
0.0002842946
-1.407151e-07
4.636783e-06
-0.0002702968
0.0002653968
-1.048579e-07
5.004919e-06
-0.0002504726
0.000245308
-7.491801e-08
5.23953e-06
-0.0002299382
0.0002248519
-6.475352e-08
5.151058e-06
-0.0002102998
0.0002057939
-9.428543e-08
4.600185e-06
-0.0001951636
0.0001928729
-3.479316e-07
2.638589e-06
-0.0002067458
0.0002130826
-8.603427e-07
-5.476427e-06
-0.0002095477
0.0002080521
-1.767882e-07
1.672309e-06
-0.0002056398
0.0002055893
-9.905068e-08
1.495019e-07
-0.0002237904
0.0002309008
2.284741e-07
-7.338916e-06
-0.0002293505
0.0002286425
2.891553e-07
4.188586e-07
-0.0002289926
0.000229047
-1.248934e-07
7.04437e-08
-0.0002290788
0.0002288072
-1.612506e-07
4.328804e-07
-0.0002271894
0.0002256809
-1.414316e-07
1.64996e-06
-0.0002139662
0.0002007391
-1.654465e-07
1.339249e-05
-0.0001475361
0.0001519017
4.250544e-09
-4.369779e-06
-0.0002219817
0.0002333174
-5.882028e-08
-1.127689e-05
-0.0002657186
0.0002765377
7.01784e-09
-1.082609e-05
-0.0003097997
0.0003209898
8.653311e-09
-1.119877e-05
-0.0003553211
0.0003670299
7.943054e-09
-1.171677e-05
-0.0004029166
0.0004151163
9.645601e-09
-1.22093e-05
-0.0004522768
0.0004648689
9.306216e-09
-1.260145e-05
-0.000503087
0.0005159825
8.661484e-09
-1.290412e-05
-0.0005548973
0.0005679994
8.290524e-09
-1.31104e-05
-0.0006071598
0.0006202319
7.551335e-09
-1.307966e-05
-0.0006590816
0.0006731669
1.99094e-07
-1.428442e-05
1.102431e-05
-0.0004572505
0.0004590045
7.243218e-10
-1.277912e-05
1.113243e-05
-0.0004641772
0.0004657129
-4.978702e-10
-1.266755e-05
1.12386e-05
-0.000469809
0.0004710191
-1.199253e-09
-1.244752e-05
1.136511e-05
-0.0004740682
0.0004748826
-1.263604e-09
-1.217823e-05
1.141832e-05
-0.0004767468
0.0004771862
-1.265843e-09
-1.185642e-05
1.13743e-05
-0.00047804
0.000478166
-1.083133e-09
-1.149924e-05
1.119417e-05
-0.000478126
0.000478019
-9.144037e-10
-1.108627e-05
1.09352e-05
-0.0004773161
0.0004769659
-9.396963e-10
-1.058411e-05
1.072186e-05
-0.0004753752
0.0004741634
-9.412582e-10
-9.509147e-06
8.415267e-06
-0.001923965
0.001922468
-5.849631e-11
-3.416439e-05
9.431406e-06
8.43016e-06
9.384319e-06
9.347404e-06
-0.001918293
0.001912425
-2.087293e-11
-3.20523e-05
9.643304e-06
9.317313e-06
9.611949e-06
9.191864e-06
-0.001906176
0.001899825
1.2997e-11
-3.05927e-05
9.306629e-06
9.163413e-06
9.282434e-06
8.992371e-06
-0.001893535
0.001886967
3.875818e-11
-2.952505e-05
9.081629e-06
8.962742e-06
9.056474e-06
8.971801e-06
-0.001879998
0.001872986
4.644625e-11
-2.898415e-05
9.047849e-06
8.950389e-06
9.026135e-06
9.044219e-06
-0.001865925
0.001859145
4.189011e-11
-2.949426e-05
9.112201e-06
9.025593e-06
9.092701e-06
9.259673e-06
-0.001852543
0.001846453
3.52109e-11
-3.106703e-05
9.337039e-06
9.24051e-06
9.320261e-06
9.568409e-06
-0.001840771
0.001835941
3.140999e-11
-3.355728e-05
9.640705e-06
9.551121e-06
9.626315e-06
1.002964e-05
-0.001831902
0.001828684
2.323222e-11
-3.709735e-05
1.014321e-05
1.001417e-05
1.012788e-05
1.031848e-05
-0.001824024
0.001824307
1.712575e-11
-4.21494e-05
1.06272e-05
1.030195e-05
1.061885e-05
1.176833e-05
-0.001824376
0.001824612
1.900293e-11
-4.749732e-05
1.186708e-05
1.176373e-05
1.186264e-05
1.258221e-05
-0.001825534
0.001827868
4.944164e-11
-5.270849e-05
1.25974e-05
1.258923e-05
1.260559e-05
1.349183e-05
-0.001831187
0.001835934
5.65061e-11
-5.891377e-05
1.35577e-05
1.351789e-05
1.359905e-05
1.450554e-05
-0.001841452
0.00184828
-4.568475e-11
-6.507754e-05
1.467249e-05
1.44755e-05
1.459542e-05
1.553825e-05
-0.001855759
0.001864478
-2.648882e-11
-7.09806e-05
1.564908e-05
1.547419e-05
1.559999e-05
1.648279e-05
-0.001873842
0.001884081
-9.537249e-11
-7.627453e-05
1.65949e-05
1.641832e-05
1.653943e-05
1.748664e-05
-0.001895007
0.001906417
-1.216475e-10
-8.121753e-05
1.757103e-05
1.731745e-05
1.7432e-05
1.922913e-05
-0.001918268
0.001928365
-7.510963e-11
-8.599769e-05
1.951213e-05
1.847334e-05
1.868586e-05
2.262911e-05
-0.001935929
0.001936687
-3.268016e-12
-8.968867e-05
2.422911e-05
2.096904e-05
2.110388e-05
4.899016e-05
-0.001932803
0.001957677
2.33125e-11
-7.386461e-05
3.946892e-05
-0.001989439
0.002003293
1.041609e-10
-5.332356e-05
5.615881e-05
-0.002008026
0.002014322
1.651748e-10
-6.245487e-05
4.771059e-05
-0.00202262
0.002029177
1.686407e-10
-5.426801e-05
3.097023e-05
-0.002034846
0.002042695
1.456359e-10
-3.881888e-05
1.333542e-05
-0.002052908
0.002061972
1.011011e-10
-2.239952e-05
4.891039e-06
-0.002069601
0.002075757
4.614954e-11
-1.104727e-05
-2.093018e-06
-0.002080888
0.002084516
1.599142e-12
-1.535306e-06
-8.37549e-06
-0.002087179
0.002088274
-3.770774e-11
7.280936e-06
-1.453459e-05
-0.002088443
0.00208709
-6.537791e-11
1.588798e-05
-2.048579e-05
-0.002084756
0.00208104
-6.930452e-11
2.420126e-05
-2.637078e-05
-0.002076381
0.002070385
-5.462823e-11
3.236666e-05
-3.219321e-05
-0.002063448
0.002055295
-2.68544e-11
4.034657e-05
-3.79702e-05
-0.002046202
0.002036047
9.747994e-12
4.812484e-05
-4.36411e-05
-0.002024958
0.002013022
4.468519e-11
5.557638e-05
-4.896951e-05
-0.002000149
0.001986694
6.824164e-11
6.242462e-05
-5.339734e-05
-0.00197222
0.001957452
7.760869e-11
6.816589e-05
-5.60297e-05
-0.001941456
0.001925447
7.358479e-11
7.203861e-05
-5.552002e-05
-0.001907636
0.001889927
5.947684e-11
7.322902e-05
-5.218697e-05
-0.001869655
0.0018505
4.533191e-11
7.134197e-05
-4.072219e-05
-0.001827226
0.001802533
4.320062e-11
6.541447e-05
-4.340783e-05
-0.00177932
0.001759456
4.995098e-11
6.327167e-05
-3.297844e-05
-0.00173429
0.001711691
5.686939e-11
5.557693e-05
-1.462599e-05
-0.001680116
0.001649943
4.888041e-11
4.479879e-05
-2.239231e-05
-0.001622919
0.001600448
1.886636e-11
4.486275e-05
-2.593419e-05
-0.001579642
0.001558388
-1.915384e-11
4.71879e-05
-2.703837e-05
-0.001537743
0.001518096
-4.934188e-11
4.668552e-05
-3.384754e-05
-0.001500448
0.001486026
-6.318336e-11
4.826901e-05
-5.478189e-05
-0.001473325
0.001473561
-5.693954e-11
5.454675e-05
-1.057539e-05
-0.001477916
0.001468631
-4.386998e-11
4.579277e-05
-7.799637e-06
-1.047967e-05
-7.652361e-06
-4.477208e-06
-0.001457587
0.001450628
-3.117116e-11
2.415994e-05
-4.2823e-06
-4.309596e-06
-4.132102e-06
-2.445094e-06
-0.001444381
0.001438833
-2.643455e-11
1.451505e-05
-2.128399e-06
-2.352997e-06
-2.040683e-06
-1.000603e-06
-0.001434033
0.001430821
-2.761344e-11
6.758738e-06
-8.190308e-07
-9.479743e-07
-7.785763e-07
-2.620559e-09
-0.001428672
0.001428015
-3.232343e-11
3.669102e-07
1.323653e-07
1.294469e-08
1.478421e-07
8.053864e-07
-0.001428227
0.001429821
-3.773631e-11
-5.082904e-06
9.21407e-07
8.200512e-07
9.417811e-07
1.504809e-06
-0.001432236
0.001435806
-4.313776e-11
-9.793683e-06
1.606526e-06
1.504619e-06
1.607235e-06
2.080748e-06
-0.001440067
0.001445319
-4.458173e-11
-1.373235e-05
2.16126e-06
2.078566e-06
2.159274e-06
2.535411e-06
-0.001451142
0.00145781
-4.227738e-11
-1.692556e-05
2.59542e-06
2.532939e-06
2.593812e-06
2.876159e-06
-0.00146496
0.001472815
-3.82267e-11
-1.943456e-05
2.916578e-06
2.872291e-06
2.914835e-06
3.109196e-06
-0.001481073
0.001489891
-3.174075e-11
-2.130686e-05
3.138027e-06
3.107006e-06
3.135124e-06
3.246928e-06
-0.001499026
0.001508585
-2.405882e-11
-2.256586e-05
3.258278e-06
3.246205e-06
3.255376e-06
3.294031e-06
-0.001518379
0.001528449
-1.989423e-11
-2.323194e-05
3.289806e-06
3.290782e-06
3.286809e-06
3.250866e-06
-0.001538679
0.001549051
-1.762229e-11
-2.333245e-05
3.23329e-06
3.247045e-06
3.2296e-06
3.125099e-06
-0.001559503
0.001569968
-1.350006e-11
-2.289646e-05
3.094933e-06
3.120951e-06
3.090753e-06
2.919576e-06
-0.001580449
0.001590836
-9.085761e-12
-2.196819e-05
2.876594e-06
2.913587e-06
2.871516e-06
2.623124e-06
-0.001601172
0.00161132
-6.204519e-12
-2.050744e-05
2.561745e-06
2.617369e-06
2.556562e-06
2.271047e-06
-0.001621362
0.001631085
-5.024826e-12
-1.867172e-05
2.208226e-06
2.266429e-06
2.203776e-06
1.885052e-06
-0.001640628
0.001649762
-4.353172e-12
-1.652798e-05
1.816832e-06
1.880485e-06
1.812408e-06
1.466561e-06
-0.001658662
0.001667081
-3.73307e-12
-1.413155e-05
1.394094e-06
1.461975e-06
1.389731e-06
1.029047e-06
-0.001675221
0.00168286
-2.905422e-12
-1.159301e-05
9.530173e-07
1.023781e-06
9.483473e-07
5.805363e-07
-0.001690212
0.001697028
-2.276341e-12
-8.994544e-06
5.128173e-07
5.763881e-07
5.089668e-07
1.468441e-07
-0.001703537
0.001709498
-1.573511e-12
-6.427499e-06
8.953641e-08
1.436646e-07
8.642085e-08
-2.630519e-07
-0.001715157
0.001720316
-7.96376e-13
-3.974975e-06
-3.256619e-07
-2.664155e-07
-3.288242e-07
-6.345103e-07
-0.001725187
0.001729605
-6.896522e-14
-1.754715e-06
-6.936739e-07
-6.379701e-07
-6.969194e-07
-9.57828e-07
0.001737491
3.778773e-12
1.991969e-07
-1.009677e-06
-9.611358e-07
-1.012814e-06
-0.001733749
-1.243177e-06
-0.001741019
0.001744219
4.925901e-12
1.855418e-06
-1.281511e-06
-1.24635e-06
-1.284592e-06
-1.495552e-06
-0.00174726
0.00174999
3.913637e-12
3.345765e-06
-1.539248e-06
-1.498602e-06
-1.542212e-06
-1.75277e-06
-0.001752591
0.001754923
3.798868e-12
4.776627e-06
-1.799463e-06
-1.755334e-06
-1.801865e-06
-2.029529e-06
-0.001757146
0.001759102
2.98402e-12
6.274646e-06
-2.083753e-06
-2.031376e-06
-2.085491e-06
-2.355728e-06
-0.00176094
0.001762469
1.301075e-12
8.026952e-06
-2.421157e-06
-2.356728e-06
-2.422034e-06
-2.750302e-06
-0.001763841
0.001764825
-1.443135e-12
1.017313e-05
-2.828353e-06
-2.75024e-06
-2.828069e-06
-3.216329e-06
-0.001765582
0.001765845
-4.336653e-12
1.277667e-05
-3.304847e-06
-3.214934e-06
-3.3031e-06
-3.733385e-06
-0.001765791
0.001765133
-6.11913e-12
1.577021e-05
-3.825982e-06
-3.730372e-06
-3.822473e-06
-4.261393e-06
-0.001764065
0.001762302
-5.244178e-12
1.897478e-05
-4.349741e-06
-4.256425e-06
-4.34419e-06
-4.75338e-06
-0.00176005
0.001757051
-1.972603e-12
2.215023e-05
-4.829632e-06
-4.746351e-06
-4.822023e-06
-5.167087e-06
-0.001753513
0.001749221
3.931422e-12
2.506092e-05
-5.226328e-06
-5.15842e-06
-5.216677e-06
-5.472543e-06
-0.001744387
0.001738864
1.032538e-11
2.746492e-05
-5.509915e-06
-5.461208e-06
-5.497983e-06
-5.639779e-06
-0.001732838
0.001726227
1.532144e-11
2.916984e-05
-5.651039e-06
-5.628069e-06
-5.639262e-06
-5.651997e-06
-0.001719183
0.001711687
1.853246e-11
3.005459e-05
-5.63587e-06
-5.643101e-06
-5.627726e-06
-5.50806e-06
-0.001703849
0.001695711
1.989431e-11
3.008261e-05
-5.465958e-06
-5.505566e-06
-5.465019e-06
-5.22337e-06
-0.001687333
0.001678809
1.934612e-11
2.930441e-05
-5.159999e-06
-5.22947e-06
-5.167961e-06
-4.830365e-06
-0.00167015
0.0016615
1.759476e-11
2.784732e-05
-4.753528e-06
-4.844504e-06
-4.769099e-06
-4.373041e-06
-0.001652822
0.001644304
1.449289e-11
2.588474e-05
-4.291456e-06
-4.391651e-06
-4.310388e-06
-3.893825e-06
-0.001635864
0.001627726
9.611402e-12
2.359144e-05
-3.8148e-06
-3.912028e-06
-3.832226e-06
-3.424044e-06
-0.001619766
0.001612238
2.706223e-12
2.110799e-05
-3.351664e-06
-3.438611e-06
-3.364807e-06
-2.979809e-06
-0.001604975
0.001598256
-6.495055e-12
1.85286e-05
-2.916196e-06
-2.989292e-06
-2.924001e-06
-2.562324e-06
-0.001591875
0.001586144
-1.712272e-11
1.587041e-05
-2.503445e-06
-2.566918e-06
-2.506564e-06
-2.137802e-06
-0.001580796
0.001576092
-2.758319e-11
1.309837e-05
-2.057792e-06
-2.139644e-06
-2.058725e-06
-1.61713e-06
-0.001571434
0.001567087
-3.595579e-11
1.026003e-05
-1.339381e-06
-1.617257e-06
-1.339068e-06
-1.037255e-06
-0.001563881
0.001560254
-4.101616e-11
7.879369e-06
-1.094156e-06
-1.03259e-06
-1.088109e-06
-1.233707e-06
-0.001558178
0.001556673
-4.408674e-11
6.335408e-06
-1.187082e-06
-1.227682e-06
-1.182104e-06
-1.00284e-06
-0.001555505
0.001554896
-4.48531e-11
4.524584e-06
-9.610619e-07
-9.967345e-07
-9.548465e-07
-8.044719e-07
-0.00155473
0.001555016
-4.236958e-11
2.841104e-06
-7.653293e-07
-7.984694e-07
-7.595725e-07
-6.397339e-07
-0.001555661
0.0015567
-3.910769e-11
1.453379e-06
-6.120986e-07
-6.340924e-07
-6.066108e-07
-5.262167e-07
-0.001558094
0.001559836
-3.42696e-11
3.12795e-07
-5.071232e-07
-5.203859e-07
-5.013759e-07
-4.633627e-07
-0.001561852
0.001564119
-2.821403e-11
-4.408487e-07
-4.549373e-07
-4.580762e-07
-4.497203e-07
-4.552999e-07
-0.001566592
0.001569246
-2.193277e-11
-8.436228e-07
-4.550594e-07
-4.504557e-07
-4.502662e-07
-5.048568e-07
-0.001572035
0.001574887
-1.630374e-11
-8.252382e-07
-5.133778e-07
-5.004433e-07
-5.089857e-07
-6.123742e-07
-0.001577811
0.001580682
-1.185712e-11
-3.950446e-07
-6.293393e-07
-6.083154e-07
-6.255158e-07
-7.681973e-07
-0.001583536
0.001586268
-8.741372e-12
3.797688e-07
-7.910164e-07
-7.647133e-07
-7.877135e-07
-9.658515e-07
-0.001588914
0.001591328
-6.642739e-12
1.502411e-06
-9.950244e-07
-9.628027e-07
-9.920601e-07
-1.19753e-06
-0.001593605
0.001595561
-2.932417e-12
2.896348e-06
-1.231379e-06
-1.194574e-06
-1.228555e-06
-1.444046e-06
-0.001597323
0.001598677
1.407485e-12
4.486175e-06
-1.478435e-06
-1.441371e-06
-1.475627e-06
-1.695329e-06
-0.001599772
0.001600378
-6.352976e-12
6.236793e-06
-1.729485e-06
-1.691643e-06
-1.726003e-06
-1.983403e-06
-0.001600751
0.001600647
3.719276e-12
8.10377e-06
-2.018246e-06
-1.981493e-06
-2.016455e-06
-2.276677e-06
-0.001600264
0.001599357
3.877728e-12
1.008179e-05
-2.312483e-06
-2.274708e-06
-2.310609e-06
-2.581609e-06
-0.001598144
0.001596384
9.315178e-12
1.215553e-05
-2.618254e-06
-2.579655e-06
-2.616397e-06
-2.910404e-06
-0.001594289
0.001591635
1.342937e-11
1.43788e-05
-2.953549e-06
-2.908514e-06
-2.951812e-06
-3.296059e-06
-0.001588566
0.00158479
2.233999e-11
1.707201e-05
-3.353897e-06
-3.294121e-06
-3.352213e-06
-3.756378e-06
-0.001580551
0.001575561
3.634141e-11
2.01418e-05
-3.822037e-06
-3.753539e-06
-3.819377e-06
-4.38448e-06
-0.001569802
0.001563371
4.539667e-11
2.418339e-05
-4.496827e-06
-4.378987e-06
-4.492043e-06
-5.213494e-06
-0.001556095
0.001547147
1.191929e-10
3.012974e-05
-5.394939e-06
-5.195423e-06
-5.378035e-06
-6.480471e-06
-0.001537071
0.001526227
1.520116e-10
3.706349e-05
-6.702331e-06
-6.41193e-06
-6.624966e-06
-8.82783e-06
-0.001512952
0.001497516
3.541265e-10
5.140529e-05
-9.434431e-06
-8.579978e-06
-9.126819e-06
-1.253316e-05
0.001468218
6.483145e-10
6.526156e-05
-0.001482629
-1.364271e-05
-1.184971e-05
-1.28258e-05
-2.109874e-05
-0.001453559
0.001442514
3.980328e-10
9.784452e-05
-2.2595e-05
-2.077904e-05
-2.232643e-05
-1.870875e-05
-0.001432
0.001411029
-1.10372e-10
9.248627e-05
-1.621085e-05
-1.938625e-05
-1.720869e-05
-8.530083e-06
-0.00137808
0.001339584
-1.197603e-10
7.109958e-05
-7.303775e-06
-9.094151e-06
-7.676293e-06
-3.539998e-06
-0.001297183
0.001254007
-2.400994e-11
5.666193e-05
-3.200552e-06
-3.56395e-06
-3.182001e-06
-1.306408e-06
-0.001211285
0.001169475
9.629261e-11
4.686657e-05
-1.178639e-06
-1.344142e-06
-1.227613e-06
-1.196774e-06
-0.001129493
0.001092304
1.312554e-10
4.237726e-05
-1.364991e-06
-1.238161e-06
-1.38897e-06
-2.052905e-06
-0.001058307
0.001027472
6.407916e-11
3.933962e-05
-2.198492e-06
-2.051201e-06
-2.20209e-06
-2.868877e-06
-0.0009999417
0.0009753708
-3.773017e-11
3.62976e-05
-2.984772e-06
-2.878568e-06
-2.99439e-06
-3.118585e-06
-0.000953161
0.0009328377
-1.211593e-10
3.283618e-05
-3.133431e-06
-3.123479e-06
-3.137265e-06
-2.994572e-06
-0.0009140088
0.0008964495
-1.795181e-10
2.950178e-05
-2.976751e-06
-2.994801e-06
-2.976156e-06
-2.772675e-06
-0.0008800474
0.0008648315
-2.292856e-10
2.623616e-05
-2.739795e-06
-2.770458e-06
-2.737073e-06
-2.443489e-06
-0.0008507857
0.0008380879
-2.579946e-10
2.236525e-05
-2.393002e-06
-2.440699e-06
-2.389959e-06
-2.021101e-06
-0.0008266285
0.000816593
-2.61189e-10
1.800431e-05
-1.965582e-06
-2.018721e-06
-1.963111e-06
-1.583172e-06
-0.0008077837
0.0008003255
-2.454295e-10
1.368902e-05
-1.533905e-06
-1.581381e-06
-1.53207e-06
-1.211477e-06
-0.0007939458
0.0007886861
-2.259389e-10
1.003097e-05
-1.17535e-06
-1.21014e-06
-1.174022e-06
-9.555812e-07
-0.0007842258
0.0007805783
-2.106803e-10
7.425075e-06
-9.340721e-07
-9.545863e-07
-9.331545e-07
-8.217777e-07
-0.0007774001
0.0007747635
-1.905972e-10
5.899737e-06
-8.102991e-07
-8.211157e-07
-8.097479e-07
-7.630103e-07
-0.0007723588
0.0007703348
-1.636899e-10
5.06793e-06
-7.592778e-07
-7.626422e-07
-7.588981e-07
-7.50261e-07
-0.0007684355
0.0007668185
-1.328759e-10
4.620731e-06
-7.51816e-07
-7.499783e-07
-7.515375e-07
-7.286909e-07
-0.0007653128
0.0007640786
-1.021563e-10
4.146893e-06
-7.276412e-07
-7.285622e-07
-7.276776e-07
-6.935804e-07
-0.0007630271
0.0007622796
-7.740872e-11
3.510042e-06
-6.878156e-07
-6.934481e-07
-6.876744e-07
-6.318465e-07
-0.0007617048
0.0007614887
-5.415431e-11
2.739763e-06
-6.300188e-07
-6.31773e-07
-6.299598e-07
-5.528739e-07
-0.0007614591
0.000761647
-4.113182e-11
2.003299e-06
-5.427369e-07
-5.529835e-07
-5.425528e-07
-1.904025e-07
-0.0007614799
0.0007611025
-2.402742e-11
9.385024e-07
-8.897911e-08
-1.913242e-07
-9.039798e-08
6.825319e-08
-0.0001881462
0.0001877246
1.749902e-11
3.533392e-07
-2.701563e-07
-0.0001865776
0.0001864655
-1.000617e-10
3.823802e-07
-3.572633e-07
-0.000186601
0.0001867496
-7.710213e-11
2.087325e-07
-3.843706e-07
-0.000187372
0.0001876205
-4.91575e-11
1.359204e-07
-3.891798e-07
-0.0001884437
0.0001887379
-2.685108e-11
9.507498e-08
-3.88429e-07
-0.0001896588
0.0001899777
-4.670078e-12
6.949209e-08
-3.864064e-07
-0.0001909593
0.0001912962
1.225069e-11
4.950231e-08
-3.866086e-07
-0.0001923289
0.0001926814
2.215963e-11
3.405804e-08
-3.890612e-07
-0.0001937588
0.0001941256
3.278759e-11
2.228019e-08
-3.934032e-07
-0.0001952447
0.0001956247
4.281808e-11
1.336803e-08
-3.993922e-07
-0.0001967823
0.0001971748
4.710178e-11
6.803664e-09
-4.067133e-07
-0.000198369
0.000198773
5.083018e-11
2.632376e-09
-4.156148e-07
-0.0002000007
0.0002004155
6.227989e-11
8.093108e-10
-4.260092e-07
-0.0002016741
0.0002020987
7.08766e-11
1.342281e-09
-4.375586e-07
-0.0002033857
0.0002038194
7.69332e-11
3.805185e-09
-4.502016e-07
-0.0002051329
0.0002055751
8.152013e-11
7.943321e-09
-4.637309e-07
-0.0002069133
0.0002073635
8.083299e-11
1.342398e-08
-4.780759e-07
-0.0002087254
0.0002091834
8.070127e-11
2.002149e-08
-4.932722e-07
-0.0002105682
0.0002110336
7.863527e-11
2.774756e-08
-5.092145e-07
-0.0002124404
0.0002129131
8.008054e-11
3.647087e-08
-5.258093e-07
-0.0002143412
0.0002148208
8.275256e-11
4.612276e-08
-5.431341e-07
-0.0002162695
0.0002167559
8.333896e-11
5.668613e-08
-5.609868e-07
-0.0002182244
0.0002187172
8.644408e-11
6.803956e-08
-5.794116e-07
-0.0002202049
0.000220704
9.405046e-11
8.021454e-08
-5.983361e-07
-0.00022221
0.0002227152
1.039242e-10
9.311498e-08
-6.177071e-07
-0.0002242391
0.00022475
1.045074e-10
1.067448e-07
-6.374556e-07
-0.0002262909
0.0002268075
9.923204e-11
1.206996e-07
-6.572203e-07
-0.0002283653
0.0002288874
1.035919e-10
1.349576e-07
-6.770027e-07
-0.0002304617
0.0002309895
1.13713e-10
1.490821e-07
-6.96447e-07
-0.000232581
0.0002331151
1.244618e-10
1.622879e-07
-7.145277e-07
-0.0002347257
0.0002352673
1.361347e-10
1.728068e-07
-7.293623e-07
-0.0002369019
0.0002374542
1.465582e-10
1.768706e-07
-7.364091e-07
-0.000239124
0.0002396947
1.685478e-10
1.65447e-07
-7.216453e-07
-0.0002414266
0.0002420353
1.936982e-10
1.127478e-07
-6.327846e-07
-0.0002439334
0.000244652
2.011004e-10
-8.610272e-08
6.617624e-07
-0.0002469302
0.0002471436
2.420067e-10
-8.753358e-07
1.367797e-06
-0.0002483519
0.0002487267
2.031019e-10
-1.742737e-06
1.390669e-06
-0.0002500372
0.0002504924
2.242067e-10
-1.846032e-06
1.462427e-06
-0.0002518736
0.000252341
2.040262e-10
-1.93005e-06
1.493883e-06
-0.0002537454
0.0002542118
1.740773e-10
-1.960529e-06
1.514809e-06
-0.0002556072
0.0002560696
1.299789e-10
-1.977345e-06
1.531957e-06
-0.0002574436
0.0002578967
9.094528e-11
-1.98513e-06
1.544272e-06
-0.0002592407
0.0002596825
6.179936e-11
-1.986166e-06
1.553391e-06
-0.0002609905
0.0002614199
4.466673e-11
-1.98281e-06
1.560953e-06
-0.0002626895
0.000263106
2.31638e-11
-1.977445e-06
1.567479e-06
-0.0002643365
0.00026474
1.731624e-11
-1.970975e-06
1.573311e-06
-0.0002659317
0.0002663225
3.278417e-11
-1.964211e-06
1.57917e-06
-0.0002674768
0.0002678557
4.613497e-11
-1.958088e-06
1.585341e-06
-0.0002689749
0.0002693426
5.884999e-11
-1.953177e-06
1.592044e-06
-0.0002704296
0.0002707873
6.243964e-11
-1.949817e-06
1.599156e-06
-0.0002718454
0.0002721942
6.667606e-11
-1.948039e-06
1.606884e-06
-0.000273227
0.0002735682
7.119444e-11
-1.948153e-06
1.615795e-06
-0.0002745797
0.0002749147
6.774056e-11
-1.950843e-06
1.626337e-06
-0.000275909
0.0002762392
6.408166e-11
-1.956579e-06
1.638763e-06
-0.0002772205
0.0002775472
6.571431e-11
-1.965594e-06
1.65304e-06
-0.0002785198
0.0002788445
6.317344e-11
-1.977866e-06
1.669293e-06
-0.0002798125
0.0002801366
5.852832e-11
-1.993493e-06
1.687602e-06
-0.0002811043
0.0002814292
6.134799e-11
-2.012556e-06
1.708037e-06
-0.0002824009
0.0002827279
6.612763e-11
-2.035092e-06
1.730629e-06
-0.0002837078
0.0002840383
6.660179e-11
-2.061132e-06
1.755205e-06
-0.0002850304
0.0002853658
5.538042e-11
-2.090606e-06
1.781608e-06
-0.0002863743
0.0002867159
5.056557e-11
-2.123254e-06
1.809569e-06
-0.0002877445
0.0002880934
5.761505e-11
-2.158561e-06
1.838684e-06
-0.0002891449
0.000289502
6.042313e-11
-2.195854e-06
1.868531e-06
-0.0002905783
0.000290944
6.215759e-11
-2.234291e-06
1.898449e-06
-0.0002920466
0.0002924213
6.094923e-11
-2.273233e-06
1.931301e-06
-0.0002935507
0.0002939338
6.161453e-11
-2.314495e-06
1.961645e-06
-0.0002950642
0.0002954558
3.293218e-11
-2.353336e-06
1.965839e-06
-0.0002966216
0.0002970299
1.162821e-10
-2.374291e-06
2.006913e-06
-0.0002983428
0.0002987861
2.531003e-10
-2.450536e-06
2.74987e-06
-0.0002979189
0.001218013
6.219834e-11
-1.103867e-05
6.109063e-07
2.751848e-06
5.96218e-07
-0.0002979227
-0.0003089202
-0.0003089209
1.438911e-06
-0.00122543
0.001229632
1.695375e-11
-1.087421e-05
1.917349e-06
1.417347e-06
1.89846e-06
1.743963e-06
-0.001233021
0.001236229
1.192374e-11
-1.039621e-05
1.865892e-06
1.727523e-06
1.850391e-06
1.793725e-06
-0.001239905
0.001243622
1.029249e-11
-1.100587e-05
1.864597e-06
1.77926e-06
1.850449e-06
1.869029e-06
-0.001247449
0.001251072
1.78691e-12
-1.119964e-05
1.933072e-06
1.855546e-06
1.919704e-06
1.922058e-06
-0.001254641
0.00125808
-1.649713e-12
-1.119202e-05
1.966817e-06
1.909546e-06
1.95446e-06
1.923764e-06
-0.001261543
0.001264965
-1.830936e-12
-1.118377e-05
1.969216e-06
1.910871e-06
1.957573e-06
1.959007e-06
-0.00126841
0.001271749
-3.023965e-12
-1.116646e-05
1.968051e-06
1.946039e-06
1.954204e-06
1.957202e-06
-0.001275107
0.001278361
-4.510092e-12
-1.107581e-05
1.965043e-06
1.946475e-06
1.953378e-06
1.94523e-06
-0.001281604
0.001284738
-9.23427e-12
-1.090358e-05
1.950192e-06
1.934793e-06
1.939567e-06
1.923252e-06
-0.001287841
0.001290819
-1.028834e-11
-1.065603e-05
1.925323e-06
1.91351e-06
1.9157e-06
1.89134e-06
-0.001293745
0.001296527
-1.160505e-11
-1.032903e-05
1.891271e-06
1.882405e-06
1.882368e-06
1.849797e-06
-0.001299238
0.001301786
-1.158609e-11
-9.926331e-06
1.847627e-06
1.841568e-06
1.83946e-06
1.799076e-06
-0.00130425
0.001306537
-1.227426e-11
-9.45861e-06
1.794479e-06
1.791396e-06
1.786837e-06
1.743465e-06
-0.001308724
0.00131072
-1.351857e-11
-8.944146e-06
1.738021e-06
1.736397e-06
1.730997e-06
1.688077e-06
-0.001312606
0.001314304
-1.401978e-11
-8.425134e-06
1.682109e-06
1.681571e-06
1.675686e-06
1.635675e-06
-0.001315889
0.001317288
-1.429185e-11
-7.919756e-06
1.630379e-06
1.629708e-06
1.624456e-06
1.591133e-06
-0.001318578
0.001319698
-1.410087e-11
-7.46466e-06
1.586413e-06
1.585674e-06
1.581023e-06
1.556735e-06
-0.001320715
0.001321583
-1.383469e-11
-7.078138e-06
1.553461e-06
1.551808e-06
1.548626e-06
1.534521e-06
-0.001322358
0.001323008
-1.350956e-11
-6.776404e-06
1.532997e-06
1.530073e-06
1.528623e-06
1.525664e-06
-0.001323581
0.001324055
-1.320087e-11
-6.56875e-06
1.525889e-06
1.52165e-06
1.521926e-06
1.530113e-06
-0.001324467
0.001324805
-1.246459e-11
-6.455657e-06
1.532164e-06
1.526514e-06
1.528643e-06
1.546554e-06
-0.001325098
0.00132534
-1.123904e-11
-6.429101e-06
1.550114e-06
1.543375e-06
1.547025e-06
1.57209e-06
-0.001325551
0.001325729
-9.855073e-12
-6.470317e-06
1.576798e-06
1.569245e-06
1.574067e-06
1.60405e-06
-0.001325888
0.001326032
-8.942927e-12
-6.565357e-06
1.609507e-06
1.601411e-06
1.606866e-06
1.638447e-06
-0.001326167
0.001326296
-7.943706e-12
-6.689405e-06
1.644134e-06
1.635954e-06
1.641632e-06
1.671965e-06
-0.001326423
0.00132655
-6.830984e-12
-6.821631e-06
1.67735e-06
1.669691e-06
1.67515e-06
1.702116e-06
-0.001326679
0.001326812
-5.661348e-12
-6.947856e-06
1.706934e-06
1.700078e-06
1.704944e-06
1.726957e-06
-0.00132695
0.001327096
-4.448686e-12
-7.058198e-06
1.730882e-06
1.725095e-06
1.729081e-06
1.744742e-06
-0.001327249
0.001327412
-3.052595e-12
-7.14419e-06
1.747483e-06
1.743048e-06
1.745854e-06
1.7545e-06
-0.001327583
0.001327771
-1.393797e-12
-7.205699e-06
1.755882e-06
1.753034e-06
1.754376e-06
1.756127e-06
-0.001327971
0.001328189
1.812486e-13
-7.239817e-06
1.75603e-06
1.754644e-06
1.754634e-06
1.749175e-06
-0.001328424
0.001328679
1.610345e-12
-7.248398e-06
1.748459e-06
1.74789e-06
1.747184e-06
1.739121e-06
-0.001328952
0.001329239
2.930662e-12
-7.238272e-06
1.737848e-06
1.737888e-06
1.736608e-06
1.725959e-06
-0.001329544
0.001329858
3.876441e-12
-7.212398e-06
1.724422e-06
1.724796e-06
1.723268e-06
1.711622e-06
-0.001330186
0.001330518
4.802195e-12
-7.174044e-06
1.710315e-06
1.710529e-06
1.709228e-06
1.697664e-06
-0.001330859
0.001331192
5.229841e-12
-7.119507e-06
1.696567e-06
1.696628e-06
1.69552e-06
1.684524e-06
-0.001331525
0.001331838
5.32408e-12
-7.047527e-06
1.68399e-06
1.683571e-06
1.683044e-06
1.673198e-06
-0.001332139
0.001332406
5.509964e-12
-6.958931e-06
1.673469e-06
1.672367e-06
1.672659e-06
1.664083e-06
-0.001332653
0.001332854
5.088149e-12
-6.856407e-06
1.6645e-06
1.663316e-06
1.6638e-06
1.654557e-06
-0.001333027
0.001333139
4.833538e-12
-6.732083e-06
1.65605e-06
1.653791e-06
1.65527e-06
1.642512e-06
-0.00133323
0.001333249
4.731963e-12
-6.589161e-06
1.643363e-06
1.641757e-06
1.642512e-06
1.621675e-06
-0.001333237
0.001333141
5.1024e-12
-6.38364e-06
1.618934e-06
1.620962e-06
1.618267e-06
1.576801e-06
-0.00133299
0.001332725
5.763237e-12
-6.028296e-06
1.570467e-06
1.576147e-06
1.569937e-06
1.468967e-06
-0.001332413
0.001332044
6.052286e-12
-5.464192e-06
1.448562e-06
1.468349e-06
1.448043e-06
1.243223e-06
-0.001331765
0.001331569
6.66641e-12
-4.599184e-06
1.154873e-06
1.242653e-06
1.15425e-06
9.559661e-07
-0.001331472
0.001331195
6.715338e-12
-3.503326e-06
9.345694e-07
9.555182e-07
9.340041e-07
8.534625e-07
-0.0013308
0.001330279
6.987743e-12
-2.866223e-06
8.404329e-07
8.529511e-07
8.399777e-07
7.178311e-07
-0.001329717
0.001329049
7.092472e-12
-2.184239e-06
7.088215e-07
7.175416e-07
7.084898e-07
5.810887e-07
-0.001328278
0.001327383
6.941691e-12
-1.421123e-06
5.771361e-07
5.80727e-07
5.767558e-07
4.227669e-07
-0.001326367
0.001325231
7.003751e-12
-5.567327e-07
4.235954e-07
4.224373e-07
4.232389e-07
2.269431e-07
-0.001323958
0.001322527
7.189353e-12
4.952194e-07
2.410927e-07
2.267117e-07
2.408045e-07
-2.290571e-08
-0.001320863
0.001318902
5.914349e-12
1.955803e-06
2.529426e-08
-2.239188e-08
2.572874e-08
-5.936916e-07
-0.001316969
0.00131563
5.501099e-12
3.000938e-06
-2.331627e-07
-5.952858e-07
-2.399106e-07
-4.810564e-07
-0.001314832
0.001310055
3.357976e-12
6.707278e-06
-4.813629e-07
-4.851221e-07
-4.822813e-07
-1.171635e-06
-0.00130556
0.00130168
4.286211e-12
9.039869e-06
-1.410522e-06
-1.168968e-06
-1.40863e-06
-1.945543e-06
-0.001297325
0.001292189
-7.074147e-12
1.327029e-05
-2.121657e-06
-1.945171e-06
-2.121526e-06
-3.026707e-06
-0.001286523
0.001280683
3.378954e-13
1.853273e-05
-3.316685e-06
-3.029559e-06
-3.32012e-06
-4.62334e-06
-0.001274022
0.001266434
-4.055936e-11
2.686999e-05
-5.009474e-06
-4.630392e-06
-5.018883e-06
-7.051608e-06
-0.001258742
0.001251465
-2.17003e-12
3.663741e-05
-7.601125e-06
-7.080058e-06
-7.628086e-06
-1.050592e-05
-0.00124324
0.001233776
-1.196051e-10
5.330163e-05
-1.138471e-05
-1.05287e-05
-1.141753e-05
-1.376956e-05
-0.00122622
0.001220475
-1.0375e-11
6.070199e-05
-1.373026e-05
-1.376402e-05
-1.369269e-05
-9.740315e-06
-0.001212231
0.001199404
1.327287e-10
4.870343e-05
-8.264172e-06
-9.667399e-06
-8.204144e-06
-3.163185e-06
-0.001182327
0.001162919
9.450529e-11
3.067448e-05
-2.480263e-06
-3.149516e-06
-2.474061e-06
-2.430273e-07
-0.001142563
0.001122669
7.993203e-12
2.062956e-05
-1.234051e-07
-2.446527e-07
-1.250311e-07
1.12338e-07
-0.001103094
0.001083951
-3.806238e-11
1.890753e-05
6.657791e-09
1.112298e-07
5.921487e-09
-4.368119e-07
-0.001064451
0.001044429
-7.61019e-11
2.194996e-05
-5.272217e-07
-4.369861e-07
-5.272723e-07
-1.177512e-06
-0.001023715
0.001002379
-4.581058e-11
2.624632e-05
-1.277785e-06
-1.177303e-06
-1.277454e-06
-1.961561e-06
-0.0009804357
0.0009583099
9.666301e-11
3.017378e-05
-2.063703e-06