/*--------------------------------*- C++ -*----------------------------------*\
| =========                 |                                                 |
| \\      /  F ield         | foam-extend: Open Source CFD                    |
|  \\    /   O peration     | Version:     3.1                                |
|   \\  /    A nd           | Web:         http://www.extend-project.de       |
|    \\/     M anipulation  |                                                 |
\*---------------------------------------------------------------------------*/
FoamFile
{
    version     2.0;
    format      ascii;
    class       volScalarField;
    location    "8";
    object      omega;
}
// * * * * * * * * * * * * * * * * * * * * * * * * * * * * * * * * * * * * * //

dimensions      [0 0 -1 0 0 0 0];

internalField   nonuniform List<scalar> 
119952
(
100.9966
124.2282
129.2489
120.5156
111.0938
111.8914
113.4957
115.2747
116.9998
119.2295
121.8367
124.7084
127.8119
131.1564
134.7612
138.6368
142.7943
147.259
152.0997
157.6874
138.5566
138.994
141.6935
124.6136
124.0499
124.4804
124.8031
124.5593
121.963
155.1882
686.1704
575.4939
485.8355
420.0168
369.8622
330.3419
297.9435
270.584
246.7102
220.6281
192.7869
177.5549
170.8178
168.7303
168.3112
162.0297
149.5219
133.9015
119.0139
96.83039
88.18797
82.36774
81.34256
85.55478
89.27188
89.2267
80.49448
67.82473
56.77468
48.32122
42.51684
37.78044
33.85892
30.75775
28.23121
26.14921
24.43848
23.05616
22.23032
21.21423
20.265
19.47083
18.82417
18.28396
17.82984
17.45741
17.16118
16.93542
16.77171
16.65636
16.57444
16.50999
16.4546
16.40386
16.35471
16.30363
16.24317
16.15949
16.08566
16.01954
15.92784
15.85475
15.82546
15.79411
15.7858
15.88622
16.40231
17.15626
17.27759
17.31902
17.31912
17.29665
17.26633
17.23636
17.2102
17.18868
17.17152
17.15811
17.14786
17.14022
17.13485
17.13154
17.13025
17.13108
17.13437
17.14072
17.15097
17.16596
17.18491
17.20745
17.23335
17.26236
17.29441
17.32956
17.368
17.41024
17.45726
17.51007
17.56752
17.6286
17.69336
17.76293
17.84073
17.92573
18.01359
18.10278
18.19245
18.28165
18.36858
18.45359
18.5379
18.62169
18.70514
18.78795
18.86958
18.947
19.01449
19.2603
19.60186
19.92595
20.20672
20.44076
20.63296
20.79086
20.92189
21.03248
21.12781
21.212
21.28828
21.35907
21.42631
21.49153
21.55586
21.6201
21.68479
21.75019
21.81612
21.88343
21.95362
22.02712
22.10431
22.18555
22.27122
22.36166
22.45723
22.55832
22.66534
22.77872
22.8989
23.02634
23.16154
23.30503
23.45738
23.61919
23.7911
23.9738
24.16805
24.37461
24.59435
24.82815
25.07689
25.34145
25.62256
25.92038
26.23393
26.54877
26.79143
30.28891
35.17974
38.03085
39.8171
41.04048
41.9606
42.71407
43.37347
43.97758
44.55113
45.11672
45.69198
46.2852
46.89949
47.53862
48.18277
48.84349
49.55981
50.30907
51.08925
51.90344
52.75239
53.63622
54.55485
55.50858
56.49739
57.52109
58.57816
59.66679
60.78433
61.92722
63.09035
64.26406
65.4284
66.47808
66.48318
65.50801
64.61888
63.76749
62.94032
62.12533
61.31339
60.49882
59.679
58.85387
58.0247
57.19324
56.36125
55.53081
54.70424
53.88439
53.07398
52.27401
51.4844
50.70553
49.93949
49.18881
48.45404
47.73647
47.03691
46.35601
45.69422
45.05176
44.42856
43.82468
43.24015
42.67486
42.12859
41.60044
41.09693
32.89317
32.48379
31.99066
31.42079
30.86031
30.32462
29.81859
29.35245
28.93004
28.55104
28.21084
27.90449
27.62704
27.3736
27.1396
26.92103
26.71447
26.51706
26.32645
26.14077
25.95857
25.77874
25.60046
25.42315
25.24643
25.07004
24.89386
24.71784
24.54198
24.36636
24.19109
24.0163
23.84215
23.66883
23.49654
23.32547
23.15585
22.98792
22.82192
22.65813
22.49691
22.33871
22.18429
22.03516
21.89436
21.7649
21.64598
21.53212
21.42303
21.31871
21.21899
21.12495
21.03807
20.96049
20.94317
20.85579
20.76381
20.6673
20.56411
20.45541
20.34323
20.23037
20.11952
20.01279
19.91175
19.81746
19.73046
19.65088
19.57851
19.51287
19.4533
19.39903
19.34924
19.30311
19.25987
19.21877
19.17914
19.14039
19.10195
19.06334
19.02415
18.98406
18.94284
18.90029
18.85628
18.81069
18.76344
18.71448
18.66379
18.61139
18.55732
18.50164
18.44441
18.38571
18.32565
18.26433
18.20188
18.13842
18.07407
18.00896
17.9432
17.87689
17.81015
17.74307
17.67575
17.60826
17.54068
17.47309
17.40554
17.3381
17.27081
17.20371
17.13682
17.07017
17.00377
16.93763
16.87173
16.80607
16.74062
16.67535
16.6102
16.54513
16.48005
16.41486
16.34944
16.28362
16.21718
16.14985
16.08124
16.01085
15.9379
15.86127
15.77905
15.68779
15.58007
15.43961
15.2302
14.91103
14.82628
791.1896
648.6896
556.791
491.2073
440.6235
399.4654
364.8347
334.9372
307.8458
262.8434
218.0075
188.0812
166.9231
151.0865
138.6215
128.3971
119.7363
112.2139
87.68653
82.9742
78.38696
74.03209
69.96183
66.22669
62.84234
59.801
57.08779
54.67397
52.58625
50.71157
48.9666
47.35128
45.86951
44.52586
43.321
42.24909
41.29859
40.73847
40.45138
40.07809
39.6648
39.25079
38.87042
38.56902
38.39185
38.37335
38.51543
39.10787
40.5186
42.99072
46.62371
50.96618
54.99876
57.99691
59.65268
59.83832
51.68494
49.58996
47.47563
45.93389
45.48296
46.45863
48.88311
51.9216
54.57016
56.23831
57.24473
57.31805
55.16847
50.51989
44.64749
38.91457
33.99092
30.04823
26.9567
24.47888
22.46203
20.7993
19.35308
18.08032
16.97703
16.03813
15.25165
14.6004
14.0639
13.62194
13.25591
12.94856
12.68658
12.46063
12.26367
12.09021
11.93583
11.79704
11.67254
11.56373
11.46861
11.38652
11.32117
11.26948
11.22828
11.19849
11.18062
11.17258
11.16608
11.16234
11.15799
11.15047
11.13906
11.12397
11.10582
11.0853
11.06302
11.03943
11.01489
10.98965
10.9639
10.93781
10.91149
10.88508
10.85869
10.83242
10.80636
10.78059
10.75523
10.73042
10.70631
10.68298
10.66049
10.63889
10.61825
10.59865
10.58018
10.56291
10.54688
10.5321
10.51858
10.50633
10.49534
10.48552
10.47672
10.46877
10.46155
10.45497
10.44903
10.44363
10.43854
10.43361
10.42891
10.42464
10.42003
10.41447
10.40761
10.39992
10.39339
10.38896
10.38698
10.3871
10.38858
10.39063
10.39249
10.39361
10.39358
10.39221
10.38951
10.38571
10.38081
10.3746
10.36711
10.35845
10.34879
10.33826
10.327
10.31514
10.30275
10.2899
10.27669
10.26322
10.24957
10.23584
10.2221
10.20843
10.19489
10.18154
10.16844
10.15565
10.1432
10.13116
10.11956
10.10846
10.09788
10.08786
10.07846
10.06971
10.06163
10.05427
10.04766
10.04183
10.03678
10.0325
10.02893
10.02595
10.02276
10.00772
10.42201
10.81868
11.04825
11.18969
11.284
11.35271
11.40713
11.45326
11.49441
11.53271
11.56992
11.60856
11.64994
11.69325
11.73797
11.78391
11.83083
11.87823
11.92697
11.97751
12.02993
12.08424
12.14067
12.19941
12.26056
12.32418
12.39025
12.45862
12.52905
12.60112
12.67412
12.74693
12.81732
12.88098
12.92971
12.9528
12.94884
12.93934
12.92774
12.91326
12.89555
12.87434
12.84936
12.82036
12.78712
12.74945
12.70717
12.66013
12.60827
12.55162
12.49028
12.42434
12.35393
12.27925
12.20055
12.11814
12.0324
11.94373
11.85259
11.75959
11.66539
11.57048
11.47532
11.38035
11.28601
11.1927
11.10082
11.0107
10.92319
10.84089
9.461163
9.364255
9.280242
9.203566
9.131477
9.063114
8.998139
8.936064
8.876511
8.819442
8.764643
8.711898
8.661038
8.611952
8.564556
8.518763
8.474482
8.431618
8.390074
8.349752
8.310552
8.272374
8.235122
8.1987
8.163018
8.127988
8.093527
8.059557
8.026009
7.992819
7.959934
7.927307
7.894902
7.862694
7.830666
7.798813
7.767142
7.735671
7.704436
7.67349
7.642915
7.61283
7.583401
7.554819
7.527236
7.500677
7.474953
7.449909
7.425607
7.402161
7.379654
7.358131
7.337687
7.319578
7.303933
7.286944
7.269355
7.252523
7.236833
7.222241
7.208609
7.195826
7.183809
7.172489
7.161814
7.15174
7.14224
7.133292
7.124878
7.116982
7.109583
7.10266
7.096188
7.090135
7.08447
7.079153
7.07414
7.069384
7.064829
7.060421
7.056105
7.051825
7.047529
7.043161
7.038671
7.034007
7.029122
7.023973
7.01852
7.012728
7.006566
7.000007
6.993032
6.985623
6.97777
6.969469
6.960719
6.951526
6.9419
6.931853
6.921402
6.910565
6.899363
6.887818
6.875951
6.863788
6.851351
6.838664
6.825748
6.812627
6.799319
6.785844
6.772218
6.758454
6.744565
6.730559
6.716443
6.702216
6.68788
6.673426
6.658847
6.644121
6.629231
6.614137
6.598806
6.58317
6.567167
6.550678
6.53359
6.515678
6.496706
6.476204
6.453606
6.427885
6.397874
6.362493
6.32207
6.281648
6.246498
727.7681
638.3242
565.9535
513.0432
473.1528
442.5947
418.7894
401.5822
391.8058
381.5657
177.7237
169.2082
163.5472
157.4444
151.6396
146.1052
140.7762
135.7906
130.799
92.50729
84.30331
80.25435
77.6545
75.58461
73.73509
72.00478
70.35667
68.76667
67.24049
65.47979
63.4874
61.48898
59.62434
57.95496
56.48805
55.20636
54.08539
53.07684
53.04759
52.65734
52.08739
51.4373
50.76582
50.1015
49.45644
48.83018
48.21922
47.61746
47.00515
46.36917
45.69477
44.96794
44.18072
43.33099
42.42224
41.46748
37.21557
36.28994
35.37073
34.462
33.56905
32.6981
31.85597
31.04952
30.28493
29.56672
28.8971
28.27753
27.70788
27.18612
26.70973
26.27572
25.87991
25.51854
25.1887
24.88854
24.61853
24.37991
24.17395
24.0042
23.87425
23.78526
23.76051
23.84137
24.05226
24.42342
24.99767
25.8266
26.94113
28.31427
29.86088
31.45828
32.94602
34.1185
35.2084
35.69322
35.64672
35.32952
35.04674
35.16107
35.90091
37.1352
38.62906
40.2431
42.0418
44.01593
45.7134
46.64562
46.69191
45.85112
44.14896
41.64499
38.51013
34.9972
31.40468
28.03832
25.11791
22.65922
20.57515
18.81431
17.34675
16.13731
15.1487
14.34059
13.67708
13.13105
12.67905
12.3018
11.98411
11.71424
11.48317
11.28412
11.11234
10.96457
10.83782
10.7313
10.64403
10.57197
10.51169
10.46071
10.41636
10.37423
10.33292
10.29604
10.2639
10.23498
10.20783
10.18144
10.15518
10.12864
10.10156
10.0738
10.04527
10.01593
9.985793
9.954863
9.923182
9.890799
9.857771
9.824154
9.79001
9.755418
9.720488
9.685364
9.650183
9.615048
9.580024
9.545162
9.510523
9.476185
9.442221
9.408707
9.375716
9.343317
9.311561
9.280485
9.250119
9.220475
9.191554
9.163349
9.135849
9.109041
9.082904
9.057396
9.032462
9.008054
8.984131
8.960598
8.937305
8.91413
8.891006
8.867996
8.845232
8.82281
8.800853
8.779459
8.758658
8.738417
8.718652
8.699253
8.6801
8.661082
8.642097
8.623045
8.603824
8.584358
8.564601
8.544528
8.524122
8.503379
8.482302
8.460898
8.439184
8.417181
8.394914
8.372412
8.349703
8.326816
8.30378
8.280625
8.257377
8.234065
8.210713
8.187347
8.163991
8.140669
8.117404
8.094218
8.071132
8.048168
8.025348
8.002689
7.980213
7.957936
7.935873
7.914037
7.892433
7.871058
7.849897
7.828909
7.808054
7.787512
7.781283
7.761847
7.737798
7.712761
7.688405
7.665373
7.64382
7.6237
7.604909
7.587346
7.570947
7.555683
7.54153
7.528456
7.516454
7.505583
7.495964
7.487685
7.480883
7.476042
7.473443
7.472636
7.473252
7.474856
7.476907
7.479487
7.482663
7.486426
7.490727
7.495426
7.500281
7.504886
7.508637
7.510727
7.510252
7.506749
7.501102
7.494116
7.485898
7.476508
7.465917
7.453989
7.440542
7.425396
7.408385
7.389368
7.368219
7.344832
7.31911
7.290985
7.260416
7.227396
7.191962
7.154194
7.114219
7.072207
7.028364
6.982929
6.936168
6.888269
6.839215
6.789096
6.738036
6.686202
6.63371
6.580749
6.527361
6.474016
6.420672
6.36578
6.331614
6.295969
6.258375
6.219547
6.180459
6.141722
6.103642
6.066283
6.029757
5.994137
5.959447
5.925691
5.892869
5.860977
5.830005
5.799933
5.770728
5.742356
5.714773
5.687932
5.661785
5.63628
5.611367
5.586994
5.563111
5.539668
5.516616
5.493909
5.471504
5.449361
5.427444
5.40572
5.384164
5.362753
5.341473
5.320313
5.299272
5.278355
5.257575
5.236957
5.216536
5.196359
5.176484
5.156965
5.137852
5.119163
5.100886
5.082979
5.06547
5.048386
5.031791
5.015674
5.000059
4.984904
4.970476
4.956744
4.943771
4.931542
4.919957
4.908939
4.898465
4.888547
4.879199
4.870426
4.862224
4.854588
4.847506
4.840965
4.834947
4.829432
4.824396
4.819814
4.815657
4.811897
4.808503
4.805442
4.802681
4.800184
4.797916
4.795839
4.793918
4.792118
4.790404
4.788741
4.787095
4.785434
4.783727
4.781944
4.780057
4.778043
4.775879
4.773544
4.77102
4.768294
4.765353
4.762189
4.758795
4.755169
4.751311
4.747222
4.742906
4.73837
4.733621
4.728668
4.72352
4.718189
4.712686
4.707023
4.70121
4.69526
4.689182
4.682989
4.676688
4.670288
4.663796
4.657218
4.650557
4.643815
4.636991
4.630085
4.623086
4.615992
4.608781
4.601445
4.593947
4.586271
4.578354
4.570165
4.561596
4.552589
4.542944
4.532557
4.521068
4.508341
4.493895
4.477841
4.459905
4.441306
4.423589
462.939
329.2996
474.8874
205.6558
157.3286
112.7316
95.36862
81.18182
70.09299
64.66515
62.42956
61.11925
59.8878
59.00486
58.38676
58.03881
57.86558
57.8557
57.9372
58.03834
58.05244
57.91953
57.8998
57.97425
57.90702
57.63671
57.13215
56.40456
55.5666
54.61676
53.5063
49.54911
48.41513
47.26995
46.11469
44.97613
43.89187
42.87912
41.94465
41.09073
40.31678
39.61414
38.97655
38.3973
37.87235
37.39777
36.96868
36.58006
36.22729
35.90541
35.61009
35.33598
35.07864
34.83533
34.60427
34.38353
34.17036
33.96056
33.74785
33.5247
33.27819
33.00608
32.7064
32.37726
32.01696
31.62494
31.19923
30.73105
30.26998
29.77276
29.24785
28.70506
28.15372
27.60255
27.05998
26.53268
26.02729
25.54816
25.09753
24.67607
24.28329
23.91769
23.57673
23.25686
22.95497
22.66899
22.39795
22.14187
21.90182
21.67968
21.47767
21.29852
21.15202
21.05542
21.01745
21.04714
21.15231
21.34303
21.63923
22.07122
22.66975
23.44563
24.38209
25.42711
26.49728
27.48735
28.32018
28.89473
29.16038
29.14938
28.98156
28.83259
28.85302
29.13818
29.71202
30.53197
31.59211
32.93576
34.5267
36.20086
37.7774
39.07137
39.94008
40.30695
40.11903
39.30992
37.78422
35.5565
32.78245
29.7232
26.7085
23.95172
21.5486
19.5174
17.82948
16.44444
15.31867
14.40613
13.66494
13.05978
12.56226
12.15043
11.8072
11.51932
11.27676
11.07187
10.89859
10.75261
10.63083
10.52949
10.44377
10.36999
10.30493
10.24514
10.18902
10.13749
10.09081
10.04823
10.00874
9.971487
9.935736
9.900881
9.866428
9.831995
9.79729
9.762101
9.726277
9.689719
9.652374
9.614219
9.575261
9.535519
9.495029
9.453845
9.412052
9.369766
9.327107
9.284171
9.241004
9.19762
9.154048
9.110336
9.066537
9.022713
8.978942
8.935301
8.891853
8.848659
8.805792
8.763327
8.721343
8.679912
8.639099
8.59896
8.559537
8.520857
8.48293
8.445757
8.409325
8.3736
8.338539
8.304105
8.270277
8.237057
8.204433
8.172355
8.140788
8.109722
8.079161
8.049105
8.019532
7.990403
7.961671
7.933284
7.905185
7.877314
7.84961
7.822019
7.794491
7.766985
7.73946
7.711885
7.684232
7.656481
7.628616
7.600626
7.572504
7.544246
7.515851
7.487324
7.458668
7.429891
7.401002
7.372011
7.342931
7.313773
7.284552
7.255283
7.225982
7.196665
7.16735
7.138055
7.108796
7.079592
7.05046
7.021417
6.992477
6.963657
6.934964
6.906409
6.877996
6.849746
6.821691
6.794045
6.767739
6.741443
6.714907
6.68821
6.661519
6.63498
6.608705
6.582786
6.557288
6.532269
6.507769
6.483825
6.460469
6.437726
6.415626
6.394207
6.373513
6.353592
6.334517
6.316373
6.299202
6.283027
6.26793
6.254126
6.241956
6.231108
6.221154
6.211655
6.202568
6.193836
6.185348
6.17692
6.168306
6.15924
6.149467
6.138855
6.12767
6.116112
6.104291
6.092173
6.079652
6.066604
6.052886
6.038349
6.02284
6.006212
5.988322
5.969035
5.948228
5.925794
5.901645
5.87572
5.847985
5.818436
5.787114
5.754047
5.719334
5.683071
5.645375
5.606386
5.566261
5.525171
5.483312
5.440908
5.398161
5.355318
5.312682
5.270144
5.227754
5.185242
5.143506
5.10243
5.062243
5.023083
4.98496
4.947834
4.911682
4.876522
4.842385
4.809265
4.777133
4.745981
4.715803
4.686577
4.658278
4.630872
4.604325
4.578596
4.553643
4.529419
4.505879
4.482975
4.460659
4.438884
4.417603
4.396771
4.376343
4.356278
4.336535
4.317076
4.29787
4.278883
4.26009
4.241469
4.223
4.204671
4.186472
4.168402
4.150464
4.132667
4.115026
4.097561
4.080298
4.06326
4.046472
4.029953
4.01371
3.997739
3.982055
3.966683
3.951657
3.936998
3.922741
3.908944
3.895671
3.882878
3.870513
3.858586
3.84714
3.836204
3.825795
3.815919
3.806578
3.797768
3.789485
3.781721
3.774466
3.76771
3.761438
3.755635
3.750284
3.745364
3.740857
3.736739
3.732989
3.729581
3.726491
3.723692
3.721157
3.71886
3.716773
3.714869
3.713123
3.711507
3.709995
3.708564
3.707187
3.705843
3.704509
3.703165
3.701791
3.700371
3.698889
3.69733
3.695683
3.693938
3.692087
3.690123
3.688043
3.685844
3.683525
3.681087
3.678532
3.675861
3.67308
3.670193
3.667205
3.664121
3.660948
3.657692
3.654358
3.650952
3.64748
3.643945
3.640352
3.636705
3.633004
3.629252
3.625447
3.621588
3.617669
3.613687
3.609631
3.605491
3.601249
3.596887
3.592375
3.587685
3.582763
3.577564
3.572
3.566003
3.559439
3.552241
3.544255
3.535503
3.525891
3.515795
3.505809
462.1201
303.9429
225.1149
200.7417
159.4615
131.7265
110.3897
101.266
91.7574
85.81658
80.68074
74.43873
68.57946
63.31942
58.71437
54.0206
47.78195
46.25275
45.16907
44.59637
44.47959
44.65232
44.94994
45.32958
45.73381
46.15162
46.58546
47.03899
47.51119
47.98968
48.4602
48.88821
49.20265
49.36407
49.35291
49.11148
48.6371
48.00541
47.23413
46.3502
45.42772
44.4202
43.35041
42.29368
41.23002
40.1793
39.18943
38.27136
37.4271
36.66289
35.98094
35.37925
34.85262
34.3966
34.00615
33.67643
33.40033
33.16805
32.96984
32.79562
32.63243
32.4654
32.28506
32.08863
31.87884
31.66134
31.44144
31.22231
31.00397
30.78016
30.54728
30.31036
30.0629
29.79809
29.51057
29.19702
28.85644
28.49096
28.10697
27.70894
27.29463
26.86799
26.43427
25.99937
25.56926
25.14991
24.74603
24.36226
24.00096
23.66247
23.34571
23.0488
22.76885
22.50168
22.2424
21.98737
21.73501
21.48563
21.24084
21.00315
20.77618
20.56524
20.37834
20.22175
20.10257
20.02749
20.00085
20.02262
20.09209
20.21817
20.42347
20.73552
21.17525
21.74598
22.42637
23.16759
23.89901
24.54271
25.02582
25.29739
25.34765
25.21865
24.99062
24.76114
24.62578
24.64953
24.86523
25.31166
26.0391
27.05475
28.28797
29.61503
30.92133
32.11597
33.14676
33.99218
34.60745
34.88491
34.71315
33.97607
32.6176
30.70148
28.4224
25.99373
23.61213
21.41852
19.49099
17.85371
16.49326
15.37688
14.46569
13.72177
13.11231
12.61071
12.1956
11.8502
11.56163
11.31967
11.11626
10.94501
10.80096
10.67928
10.57484
10.48358
10.40207
10.32811
10.26085
10.19963
10.14349
10.09146
10.04268
9.996351
9.951806
9.908449
9.865785
9.82341
9.781003
9.738316
9.695168
9.651436
9.607049
9.561973
9.516206
9.469764
9.422681
9.375019
9.326871
9.278354
9.229565
9.180537
9.131251
9.08168
9.031815
8.981649
8.931225
8.880607
8.829853
8.779
8.728095
8.677213
8.626452
8.575917
8.525714
8.475947
8.426709
8.378088
8.330157
8.282977
8.236596
8.19105
8.146358
8.10253
8.059571
8.017483
7.976272
7.935919
7.896379
7.857595
7.819511
7.782095
7.745325
7.709161
7.673551
7.638443
7.603785
7.569523
7.535604
7.501974
7.46858
7.435371
7.402302
7.369328
7.336408
7.303509
7.270597
7.237645
7.204633
7.17154
7.138352
7.105059
7.071654
7.038135
7.004501
6.970756
6.936907
6.902963
6.868934
6.834835
6.800682
6.766491
6.732281
6.698072
6.663886
6.629742
6.595663
6.56167
6.527784
6.494024
6.46041
6.426961
6.393694
6.36063
6.327799
6.295247
6.26305
6.23131
6.1999
6.168788
6.137984
6.107496
6.077323
6.047475
6.017968
5.988823
5.960061
5.931701
5.903762
5.876266
5.849232
5.822681
5.796635
5.771118
5.746154
5.721769
5.697991
5.674848
5.652365
5.630593
5.609598
5.589444
5.570181
5.551904
5.534703
5.51828
5.502296
5.486653
5.471285
5.456102
5.441015
5.425931
5.410833
5.395766
5.380793
5.365941
5.351156
5.336354
5.321436
5.30629
5.290799
5.274842
5.258295
5.241034
5.222935
5.20388
5.183758
5.16247
5.139933
5.116081
5.09087
5.064278
5.036304
5.00697
4.97632
4.94442
4.911358
4.877242
4.842196
4.806356
4.76987
4.732894
4.695572
4.658056
4.620467
4.582961
4.545652
4.508789
4.472397
4.436346
4.400592
4.365249
4.330501
4.296468
4.263229
4.23083
4.199292
4.168618
4.138812
4.10987
4.081781
4.054527
4.028086
4.002427
3.977519
3.953327
3.929812
3.906936
3.884658
3.862937
3.841734
3.821007
3.800717
3.780825
3.761294
3.742088
3.723175
3.704523
3.686105
3.667896
3.649874
3.632022
3.614325
3.596773
3.579362
3.562088
3.544956
3.527972
3.511148
3.494496
3.478031
3.46177
3.445725
3.429907
3.414327
3.398999
3.383946
3.369193
3.354768
3.3407
3.327016
3.313732
3.300846
3.288364
3.276306
3.264695
3.25354
3.242849
3.232626
3.222874
3.213597
3.204796
3.196467
3.188607
3.181207
3.17426
3.167754
3.161677
3.156013
3.150748
3.145864
3.141345
3.137172
3.133324
3.129781
3.126522
3.123525
3.12077
3.118233
3.115894
3.113732
3.111725
3.109853
3.108096
3.106435
3.104852
3.10333
3.101852
3.100402
3.098968
3.097535
3.096092
3.09463
3.093138
3.091611
3.090041
3.088425
3.086759
3.085041
3.083269
3.081445
3.079567
3.077638
3.07566
3.073633
3.071562
3.069449
3.067297
3.065108
3.062885
3.06063
3.058346
3.056033
3.053693
3.051325
3.048929
3.046503
3.044043
3.041545
3.039003
3.036408
3.033748
3.031012
3.02818
3.025231
3.022137
3.018867
3.015376
3.011623
3.00755
3.00312
2.998268
2.993003
2.987275
2.981252
2.975283
250.7393
184.2436
285.3664
138.9601
117.6545
99.52264
92.88087
87.80457
82.53297
79.64578
76.34716
72.24286
68.45724
64.62089
60.40978
53.6758
51.76828
50.05262
48.50442
47.11877
45.85019
44.74458
43.83625
43.12385
42.5982
42.22058
41.86619
41.57621
41.44755
41.50162
41.71635
42.05763
42.44279
42.80363
43.1313
43.43414
43.72662
44.02068
44.32022
44.61521
44.89785
45.14758
45.30073
45.30359
45.09158
44.69656
44.1374
43.44875
42.6586
41.79447
40.88022
39.94229
38.98838
38.05568
37.17322
36.35554
35.60393
34.91266
34.28533
33.72921
33.24705
32.83759
32.49846
32.22728
32.02192
31.879
31.78923
31.73847
31.71341
31.69835
31.66845
31.5961
31.46484
31.27478
31.03929
30.77632
30.5009
30.22307
29.94839
29.68056
29.4185
29.15697
28.89078
28.61484
28.32475
28.01757
27.6923
27.34987
26.99293
26.62633
26.25632
25.88584
25.51898
25.16018
24.81388
24.48439
24.17501
23.88788
23.62268
23.37717
23.14816
22.93164
22.72191
22.51177
22.29442
22.06607
21.82684
21.58014
21.33209
21.09194
20.86052
20.6403
20.43631
20.255
20.1024
19.98312
19.8981
19.84081
19.80187
19.78679
19.82224
19.93793
20.15353
20.4733
20.88539
21.36029
21.85045
22.29695
22.64103
22.83667
22.86316
22.73143
22.48084
22.17112
21.86966
21.6378
21.52631
21.58078
21.84163
22.32852
23.02576
23.88769
24.85476
25.86005
26.84204
27.75184
28.56949
29.27031
29.82285
30.15799
30.17248
29.76327
28.88322
27.5618
25.91196
24.08694
22.23637
20.47629
18.87945
17.48023
16.28437
15.27919
14.44222
13.74837
13.17349
12.69586
12.29762
11.96423
11.68389
11.44703
11.24577
11.07508
10.92894
10.80212
10.69053
10.59117
10.50198
10.42136
10.34789
10.28026
10.21738
10.1583
10.10217
10.04824
9.995864
9.944493
9.893681
9.843069
9.792377
9.741408
9.690032
9.638183
9.585838
9.533006
9.479713
9.426014
9.372004
9.317823
9.263607
9.209416
9.155231
9.101016
9.046754
8.992408
8.937948
8.88338
8.828713
8.773943
8.719072
8.664132
8.609182
8.554289
8.499529
8.444983
8.390736
8.336875
8.283486
8.230653
8.178456
8.126964
8.076241
8.026338
7.977298
7.929158
7.881942
7.835658
7.790286
7.745788
7.702118
7.659255
7.617164
7.575787
7.535063
7.494931
7.45533
7.416197
7.37747
7.339086
7.300986
7.26311
7.225404
7.187816
7.150298
7.112808
7.075308
7.037765
7.000152
6.962447
6.924634
6.8867
6.848639
6.810449
6.772132
6.733696
6.695151
6.656512
6.617794
6.57902
6.540211
6.501393
6.462592
6.423836
6.385154
6.346573
6.308124
6.269835
6.231733
6.193846
6.156202
6.118825
6.081742
6.044979
6.008565
5.972533
5.936917
5.901748
5.86701
5.832705
5.798844
5.765432
5.732467
5.699948
5.667873
5.636245
5.605066
5.574339
5.544066
5.514251
5.4849
5.456018
5.427611
5.399687
5.372252
5.345315
5.318886
5.292974
5.267593
5.242755
5.218486
5.19481
5.171758
5.149367
5.12768
5.106735
5.086554
5.066909
5.047634
5.028701
5.010085
4.991759
4.973706
4.955918
4.938441
4.921267
4.904338
4.887596
4.870961
4.854346
4.837657
4.820796
4.803662
4.786151
4.768157
4.749578
4.730314
4.710271
4.689365
4.667523
4.644685
4.620808
4.595863
4.569841
4.54275
4.514617
4.485488
4.455428
4.424515
4.392843
4.360514
4.327642
4.294344
4.260741
4.226952
4.193097
4.159287
4.125626
4.092195
4.059088
4.026414
3.994177
3.962312
3.930868
3.899945
3.86961
3.839912
3.810883
3.782543
3.754905
3.727971
3.701738
3.676192
3.651317
3.627091
3.603489
3.580481
3.558038
3.536128
3.514717
3.493773
3.473262
3.453151
3.433406
3.413997
3.394893
3.376064
3.357485
3.339131
3.320981
3.303015
3.285217
3.267574
3.250078
3.232721
3.215502
3.198421
3.181482
3.164692
3.148061
3.1316
3.115322
3.099237
3.083359
3.067702
3.052281
3.037116
3.02223
3.007646
2.993385
2.979465
2.965903
2.952713
2.939909
2.927505
2.915513
2.903945
2.892807
2.882105
2.871844
2.862026
2.852653
2.843724
2.835234
2.827178
2.819551
2.812343
2.805544
2.799143
2.793128
2.787486
2.782202
2.777261
2.772647
2.768344
2.764333
2.760597
2.757118
2.753877
2.750856
2.748039
2.745407
2.742943
2.740631
2.738455
2.736399
2.73445
2.732592
2.730813
2.7291
2.727443
2.725828
2.724247
2.72269
2.721149
2.719618
2.71809
2.716562
2.715029
2.71349
2.711942
2.710384
2.708815
2.707235
2.705643
2.704042
2.702431
2.70081
2.699182
2.697547
2.695905
2.694257
2.692603
2.690943
2.689276
2.687601
2.685915
2.684216
2.6825
2.680762
2.678995
2.677192
2.675342
2.673433
2.67145
2.669376
2.667191
2.664868
2.662384
2.659707
2.656817
2.653682
2.650305
2.646659
2.642836
2.639082
101.9897
78.00858
78.628
74.52679
72.22408
69.23157
66.45466
63.78076
61.26519
58.10122
52.63261
51.29823
50.03273
48.87839
47.79031
46.7686
45.86212
45.09997
44.48133
43.96469
43.36352
42.57454
41.87843
41.28407
40.78322
40.37274
40.05524
39.8217
39.65456
39.53298
39.43306
39.34625
39.30135
39.28509
39.33136
39.48335
39.68999
39.90072
40.10803
40.31627
40.53465
40.77053
41.02703
41.30415
41.56692
41.80066
41.96342
41.95202
41.75885
41.3775
40.84603
40.19988
39.48085
38.72212
37.9527
37.18983
36.44655
35.74001
35.09199
34.51575
33.99485
33.50967
33.05861
32.65083
32.29909
32.00892
31.78267
31.62353
31.53437
31.51779
31.57206
31.68352
31.83223
32.00107
32.1646
32.27487
32.27794
32.15039
31.90933
31.58816
31.22014
30.83298
30.44974
30.08775
29.74359
29.41348
29.09313
28.77811
28.46392
28.14645
27.82271
27.49149
27.15333
26.81031
26.46598
26.12632
25.80025
25.49152
25.20304
24.93785
24.69879
24.48712
24.30064
24.1345
23.98356
23.84297
23.70562
23.56006
23.39285
23.19483
22.96517
22.70976
22.4408
22.1807
21.92867
21.68412
21.44666
21.21947
21.00841
20.81761
20.64726
20.49134
20.33536
20.16846
20.00526
19.88015
19.82305
19.85104
19.96767
20.16346
20.41646
20.69282
20.95042
21.14356
21.23351
21.19835
21.03745
20.77105
20.43593
20.07788
19.74375
19.47644
19.31377
19.28829
19.42353
19.72719
20.18861
20.78145
21.46707
22.20428
22.96233
23.72189
24.46063
25.14311
25.73328
26.18671
26.44742
26.44775
26.13133
25.47165
24.49354
23.27289
21.91562
20.52505
19.18193
17.93898
16.8242
15.84698
15.00418
14.2853
13.67583
13.16075
12.72559
12.35721
12.04415
11.77653
11.54665
11.34924
11.17808
11.02823
10.89584
10.77791
10.67202
10.57618
10.48876
10.40828
10.33343
10.2631
10.19629
10.13215
10.06996
10.00911
9.949099
9.889522
9.830077
9.770565
9.710873
9.650955
9.590814
9.530477
9.470002
9.409502
9.349175
9.289242
9.229829
9.170925
9.112497
9.054611
8.997304
8.940447
8.884
8.827969
8.772256
8.716775
8.661457
8.606243
8.55109
8.495971
8.440883
8.385844
8.330891
8.27608
8.221482
8.167176
8.113247
8.059781
8.006861
7.954565
7.902961
7.852108
7.802046
7.7528
7.704369
7.656709
7.609826
7.563728
7.518353
7.473633
7.429512
7.385929
7.342818
7.300112
7.257745
7.215648
7.173757
7.13201
7.090348
7.048718
7.007072
6.965369
6.923574
6.881659
6.839601
6.797387
6.755007
6.712461
6.669752
6.626889
6.583887
6.540767
6.497554
6.454275
6.410964
6.367655
6.324385
6.281191
6.238113
6.195191
6.152465
6.109973
6.067759
6.02586
5.98431
5.943144
5.902394
5.862089
5.822258
5.782928
5.744125
5.705872
5.668186
5.631068
5.594518
5.558539
5.523135
5.488302
5.454034
5.420322
5.387162
5.354549
5.322478
5.290938
5.259924
5.229428
5.199442
5.16996
5.140976
5.112485
5.084484
5.05697
5.029941
5.003399
4.977336
4.951761
4.92668
4.902101
4.87804
4.854518
4.831558
4.809181
4.787403
4.766125
4.745243
4.724749
4.704632
4.684884
4.665515
4.646534
4.627912
4.609606
4.591571
4.573746
4.556064
4.538451
4.520829
4.503114
4.485221
4.467064
4.448555
4.429608
4.410141
4.390078
4.369347
4.347888
4.325651
4.302597
4.278702
4.253953
4.228356
4.20193
4.174709
4.14674
4.118086
4.088819
4.059019
4.028778
3.998189
3.967349
3.936356
3.905303
3.874284
3.843384
3.812679
3.782241
3.752147
3.722484
3.693248
3.664382
3.635933
3.607959
3.5805
3.553587
3.527241
3.501471
3.476281
3.451668
3.427622
3.404129
3.381171
3.358727
3.336774
3.315286
3.294237
3.273599
3.253346
3.233449
3.21388
3.194612
3.175619
3.156876
3.13836
3.12005
3.101927
3.083974
3.066178
3.048526
3.031011
3.013627
2.996372
2.979246
2.962251
2.945395
2.928684
2.912128
2.895739
2.879529
2.863511
2.847699
2.83211
2.816762
2.801676
2.78687
2.772363
2.758175
2.744321
2.730818
2.717678
2.704914
2.692537
2.680557
2.668983
2.657822
2.647077
2.636752
2.626847
2.617362
2.608295
2.599641
2.591395
2.583551
2.5761
2.569032
2.562339
2.556008
2.550028
2.544388
2.539074
2.534072
2.529366
2.52494
2.520778
2.516864
2.513184
2.509721
2.506462
2.503391
2.500495
2.497759
2.495173
2.492722
2.490397
2.488186
2.48608
2.484069
2.482142
2.480288
2.478497
2.47676
2.475071
2.473423
2.471812
2.470232
2.468681
2.467155
2.465651
2.464169
2.462707
2.461263
2.459836
2.458426
2.457032
2.455654
2.45429
2.452942
2.451608
2.450287
2.448978
2.44768
2.44639
2.445107
2.443828
2.442549
2.441266
2.439973
2.438664
2.437332
2.435967
2.43456
2.433097
2.431565
2.429948
2.428231
2.426395
2.424428
2.422313
2.420049
2.417621
2.415087
2.412631
141.3602
62.08703
53.3249
51.03735
49.27979
47.86934
46.825
45.97568
45.30743
44.79617
44.24167
43.40748
42.63023
41.91481
41.27091
40.69819
40.20308
39.77831
39.40397
39.05511
38.70632
38.38337
38.1239
37.92757
37.78053
37.6731
37.59131
37.51942
37.44262
37.34638
37.22235
37.07152
36.89744
36.74625
36.70091
36.7295
36.81866
36.95798
37.15447
37.41366
37.74544
38.10973
38.48842
38.8701
39.16185
39.32212
39.31328
39.09507
38.68517
38.12137
37.46429
36.7699
36.08785
35.44987
34.88145
34.38878
33.98377
33.66459
33.41524
33.19696
32.97912
32.75006
32.51785
32.30295
32.12708
32.00015
31.93295
31.9401
32.03245
32.21849
32.49667
32.84557
33.24014
33.66008
34.05775
34.33719
34.40504
34.2402
33.88932
33.41791
32.88258
32.32833
31.80398
31.31202
30.85097
30.41726
30.00735
29.61803
29.24544
28.88472
28.53138
28.18302
27.8397
27.50338
27.1775
26.86795
26.58588