/*--------------------------------*- C++ -*----------------------------------*\
| =========                 |                                                 |
| \\      /  F ield         | foam-extend: Open Source CFD                    |
|  \\    /   O peration     | Version:     3.1                                |
|   \\  /    A nd           | Web:         http://www.extend-project.de       |
|    \\/     M anipulation  |                                                 |
\*---------------------------------------------------------------------------*/
FoamFile
{
    version     2.0;
    format      ascii;
    class       volScalarField;
    location    "8";
    object      p;
}
// * * * * * * * * * * * * * * * * * * * * * * * * * * * * * * * * * * * * * //

dimensions      [1 -1 -2 0 0 0 0];

internalField   nonuniform List<scalar> 
119952
(
7728.174
7724.824
7734.394
7753.623
7773.987
7787.214
7800.479
7812.665
7823.614
7833.201
7841.37
7848.327
7854.205
7859.175
7863.407
7867.103
7870.408
7873.44
7876.189
7877.881
7892.547
7892.975
7895.97
7913.798
7917.659
7924.044
7931.022
7939.942
7955.383
8674.069
5679.353
5704.138
5772.479
5846.674
5928.413
6014.727
6107.115
6205.33
6308.868
6401.538
6507.753
6620.782
6728.925
6820.752
6883.14
6922.363
6977.296
7055.272
7144.525
7224.229
7280.477
7342.806
7396.875
7423.968
7431.552
7458.485
7443.831
7420.815
7402.228
7397.254
7412.689
7430.632
7442.035
7444.89
7442.407
7438.244
7435.787
7437.725
7444.874
7452.316
7465.036
7480.526
7496.695
7512.072
7526.448
7539.609
7551.363
7561.649
7570.504
7578.031
7584.537
7590.069
7594.845
7599.065
7602.906
7606.522
7610.06
7613.74
7618.156
7622.574
7627.154
7633.762
7641.128
7647.555
7654.476
7661.688
7667.971
7670.197
7676.733
7685.393
7694.241
7703.314
7712.583
7722.006
7731.532
7741.103
7750.666
7760.168
7769.56
7778.793
7787.826
7796.618
7805.133
7813.339
7821.21
7828.723
7835.859
7842.6
7848.93
7854.85
7860.365
7865.473
7870.176
7874.476
7878.379
7881.894
7885.03
7887.795
7890.201
7892.262
7893.993
7895.411
7896.533
7897.374
7897.954
7898.293
7898.41
7898.326
7898.058
7897.624
7897.044
7896.335
7895.521
7894.612
7893.607
7892.529
7891.636
7890.779
7889.954
7888.98
7888.009
7887.067
7886.165
7885.32
7884.541
7883.839
7883.222
7882.701
7882.284
7881.951
7881.725
7881.611
7881.61
7881.723
7881.95
7882.292
7882.729
7883.311
7883.997
7884.788
7885.68
7886.671
7887.754
7888.924
7890.175
7891.501
7892.895
7894.348
7895.854
7897.403
7898.989
7900.602
7902.234
7903.878
7905.524
7907.165
7908.792
7910.398
7911.974
7913.513
7915.006
7916.444
7917.813
7919.089
7920.242
7921.323
7923.163
7956.754
7956.918
7957.897
7958.907
7959.855
7960.736
7961.55
7962.295
7962.977
7963.6
7964.172
7964.686
7965.133
7965.533
7965.884
7966.18
7966.452
7966.706
7966.903
7967.058
7967.174
7967.253
7967.297
7967.3
7967.263
7967.182
7967.052
7966.86
7966.593
7966.23
7965.733
7965.043
7964.038
7962.452
7959.647
7956.483
7961.371
7965.174
7968.053
7970.53
7972.794
7974.918
7976.961
7978.958
7980.935
7982.905
7984.881
7986.872
7988.89
7990.938
7993.023
7995.148
7997.318
7999.539
8001.815
8004.148
8006.56
8009.02
8011.548
8014.149
8016.832
8019.59
8022.426
8025.34
8028.336
8031.416
8034.586
8037.852
8041.201
8044.536
8026.754
8025.401
8024.211
8028.14
8031.822
8035.159
8038.802
8042.637
8046.537
8050.484
8054.49
8058.566
8062.696
8066.877
8071.1
8075.359
8079.644
8083.953
8088.28
8092.62
8096.97
8101.325
8105.682
8110.037
8114.387
8118.728
8123.057
8127.372
8131.668
8135.944
8140.197
8144.424
8148.624
8152.795
8156.935
8161.043
8165.118
8169.161
8173.172
8177.155
8181.115
8185.06
8189.007
8192.978
8196.943
8200.671
8203.872
8206.773
8209.746
8212.77
8215.781
8218.786
8221.674
8223.755
8223.396
8228.191
8231.403
8233.822
8236.31
8238.729
8241.051
8243.313
8245.523
8247.675
8249.769
8251.796
8253.757
8255.651
8257.476
8259.232
8260.915
8262.526
8264.064
8265.529
8266.921
8268.241
8269.49
8270.667
8271.774
8272.812
8273.782
8274.685
8275.522
8276.295
8277.004
8277.652
8278.238
8278.764
8279.233
8279.644
8280
8280.301
8280.548
8280.744
8280.889
8280.985
8281.032
8281.031
8280.985
8280.893
8280.757
8280.578
8280.356
8280.092
8279.788
8279.442
8279.057
8278.632
8278.167
8277.663
8277.119
8276.536
8275.911
8275.246
8274.538
8273.785
8272.987
8272.14
8271.242
8270.288
8269.273
8268.192
8267.037
8265.799
8264.467
8263.025
8261.456
8259.735
8257.829
8255.697
8253.279
8250.492
8247.215
8243.243
8238.24
8231.924
8225.69
8228.904
8259.449
5784.224
5681.673
5578.31
5487.816
5413.662
5356.854
5316.853
5288.367
5272.61
5223.752
5245.45
5250.644
5260.703
5271.905
5283.466
5293.988
5302.541
5309.124
5302.067
5302.414
5281.723
5274.369
5266.437
5256.48
5246.49
5236.772
5227.487
5220.527
5217.109
5206.327
5206.696
5213.249
5224.469
5242.267
5267.254
5299.893
5341.888
5396.175
5441.439
5502.764
5576.085
5654.121
5738.849
5829.087
5924.023
6023.282
6125.795
6232.148
6336.324
6431.65
6516.423
6588.025
6651.699
6722.798
6802.59
6881.343
6915.29
6986.335
7034.411
7070.423
7097.975
7113.702
7122.404
7119.872
7101.079
7092.155
7107.998
7137.104
7152.527
7148.983
7140.38
7132.333
7126.353
7123.849
7126.297
7134.113
7144.872
7159.433
7176.058
7193.426
7209.834
7224.622
7237.987
7249.736
7259.821
7268.359
7275.613
7281.531
7286.579
7290.939
7294.808
7298.37
7301.803
7305.282
7308.988
7313.079
7317.553
7322.529
7328.243
7334.512
7340.831
7347.025
7353.158
7358.983
7364.624
7371.483
7379.496
7388.08
7396.973
7406.101
7415.41
7424.835
7434.314
7443.792
7453.213
7462.529
7471.691
7480.656
7489.384
7497.839
7505.991
7513.81
7521.276
7528.367
7535.071
7541.376
7547.28
7552.784
7557.885
7562.585
7566.889
7570.8
7574.327
7577.476
7580.258
7582.683
7584.763
7586.513
7587.949
7589.088
7589.947
7590.545
7590.902
7591.037
7590.969
7590.714
7590.293
7589.729
7589.041
7588.241
7587.362
7586.417
7585.448
7584.499
7583.569
7582.598
7581.608
7580.631
7579.686
7578.787
7577.942
7577.161
7576.454
7575.828
7575.287
7574.814
7574.496
7574.273
7574.152
7574.14
7574.238
7574.448
7574.77
7575.212
7575.762
7576.421
7577.187
7578.054
7579.019
7580.076
7581.221
7582.447
7583.748
7585.117
7586.547
7588.03
7589.558
7591.123
7592.718
7594.333
7595.961
7597.594
7599.224
7600.842
7602.442
7604.016
7605.555
7607.053
7608.503
7609.898
7611.236
7612.517
7613.754
7614.882
7678.949
7678.882
7680.29
7681.442
7682.452
7683.389
7684.25
7685.045
7685.779
7686.457
7687.077
7687.64
7688.144
7688.598
7689.005
7689.366
7689.695
7689.985
7690.231
7690.43
7690.595
7690.724
7690.813
7690.864
7690.875
7690.842
7690.759
7690.616
7690.401
7690.097
7689.678
7689.102
7688.321
7687.337
7686.4
7686.231
7687.892
7690.682
7693.143
7695.413
7697.581
7699.653
7701.664
7703.641
7705.605
7707.564
7709.53
7711.513
7713.532
7715.574
7717.653
7719.775
7721.944
7724.165
7726.442
7728.778
7731.177
7733.637
7736.156
7738.749
7741.433
7744.188
7747.018
7749.926
7752.914
7755.986
7759.143
7762.39
7765.773
7769.805
7714.652
7718.627
7720.881
7723.042
7725.934
7729.427
7733.177
7737.002
7740.901
7744.858
7748.858
7752.927
7757.07
7761.258
7765.485
7769.746
7774.034
7778.345
7782.675
7787.019
7791.372
7795.731
7800.092
7804.45
7808.803
7813.147
7817.479
7821.794
7826.092
7830.368
7834.621
7838.847
7843.045
7847.213
7851.348
7855.451
7859.519
7863.553
7867.553
7871.52
7875.454
7879.357
7883.221
7887.025
7890.725
7894.263
7897.586
7900.723
7903.778
7906.805
7909.794
7912.714
7915.502
7917.984
7920.054
7922.278
7924.969
7927.806
7930.476
7932.924
7935.226
7937.455
7939.635
7941.761
7943.822
7945.815
7947.741
7949.601
7951.394
7953.118
7954.772
7956.355
7957.866
7959.306
7960.675
7961.972
7963.199
7964.355
7965.443
7966.462
7967.413
7968.299
7969.119
7969.874
7970.567
7971.199
7971.769
7972.281
7972.734
7973.131
7973.472
7973.758
7973.992
7974.174
7974.305
7974.387
7974.421
7974.407
7974.347
7974.243
7974.094
7973.902
7973.668
7973.392
7973.075
7972.718
7972.321
7971.885
7971.409
7970.894
7970.34
7969.746
7969.112
7968.437
7967.72
7966.959
7966.153
7965.298
7964.393
7963.433
7962.414
7961.33
7960.175
7958.939
7957.613
7956.182
7954.633
7952.942
7951.089
7949.033
7946.75
7944.18
7941.323
7938.187
7935.077
7932.564
7931.789
7933.32
7937.661
3572.582
3742.146
3955.26
4197.588
4468.687
4768.87
5093.053
5441.078
5789.753
6145.054
6484.827
6817.457
7122.172
7391.828
7616.447
7791.929
7917.001
7993.18
8023.556
7967.014
7922.874
7849.291
7752.813
7638.804
7510.983
7372.828
7228.537
7081.816
6937.276
6783.869
6636.65
6487.102
6337.88
6189.138
6041.41
5895.904
5754.784
5621.171
5487.997
5369.01
5264.285
5176.527
5105.837
5051.657
5012.903
4988.084
4976.145
4971.701
4975.018
4985.181
4997.063
5009.611
5021.805
5032.529
5040.932
5047.409
4989.167
4987.653
4981.985
4973.696
4963.792
4952.718
4940.311
4927.687
4915.683
4904.699
4895.813
4890.907
4890.016
4894.017
4904.384
4922.18
4948.001
4982.289
5024.995
5075.945
5135.075
5201.425
5274.567
5354.136
5439.132
5529.418
5622.786
5718.349
5815.062
5911.052
6004.263
6093.376
6176.84
6255.8
6332.376
6410.658
6489.702
6568.983
6649.785
6716.481
6764.377
6798.933
6824.282
6843.523
6853.926
6854.506
6854.883
6857.748
6862.399
6872.342
6886.505
6898.121
6903.827
6900.197
6889.436
6879.567
6877.425
6883.356
6896.091
6912.773
6931.389
6949.891
6967.083
6982.59
6996.326
7008.198
7018.267
7026.594
7033.463
7039.097
7043.803
7047.825
7051.377
7054.649
7057.825
7061.077
7064.553
7068.38
7072.615
7077.307
7082.566
7088.249
7094.147
7100.07
7106.053
7112.083
7118.239
7125.185
7132.999
7141.365
7150.079
7159.062
7168.251
7177.578
7186.98
7196.396
7205.771
7215.054
7224.196
7233.151
7241.88
7250.346
7258.515
7266.361
7273.86
7280.992
7287.743
7294.105
7300.073
7305.644
7310.819
7315.597
7319.983
7323.981
7327.597
7330.837
7333.709
7336.224
7338.391
7340.226
7341.742
7342.958
7343.89
7344.558
7344.979
7345.172
7345.158
7344.954
7344.581
7344.06
7343.408
7342.641
7341.784
7340.862
7339.902
7338.93
7337.96
7336.967
7335.956
7334.953
7333.98
7333.05
7332.174
7331.361
7330.621
7329.961
7329.387
7328.901
7328.523
7328.247
7328.076
7328.015
7328.066
7328.228
7328.504
7328.892
7329.39
7329.997
7330.711
7331.527
7332.443
7333.453
7334.553
7335.735
7336.995
7338.325
7339.718
7341.167
7342.665
7344.203
7345.774
7347.37
7348.982
7350.604
7352.226
7353.842
7355.444
7357.025
7358.579
7360.098
7361.58
7363.018
7364.424
7365.785
7367.184
7368.623
7370.472
7371.793
7372.832
7373.824
7374.809
7375.745
7376.616
7377.422
7378.17
7378.859
7379.491
7380.076
7380.608
7381.09
7381.525
7381.912
7382.257
7382.563
7382.826
7383.043
7383.272
7383.45
7383.582
7383.676
7383.734
7383.753
7383.731
7383.65
7383.513
7383.315
7383.054
7382.738
7382.407
7382.161
7382.196
7382.789
7384.08
7385.936
7387.977
7389.989
7391.957
7393.901
7395.833
7397.761
7399.691
7401.631
7403.59
7405.574
7407.584
7409.632
7411.72
7413.852
7416.033
7418.267
7420.557
7422.907
7425.322
7427.806
7430.378
7432.965
7435.636
7438.39
7441.219
7444.128
7447.112
7450.183
7453.317
7456.544
7459.796
7463.116
7466.12
7468.842
7471.998
7475.663
7479.582
7483.524
7487.448
7491.391
7495.318
7499.329
7503.433
7507.55
7511.7
7515.894
7520.125
7524.387
7528.676
7532.989
7537.321
7541.667
7546.023
7550.386
7554.751
7559.114
7563.473
7567.823
7572.161
7576.484
7580.789
7585.072
7589.331
7593.565
7597.769
7601.942
7606.082
7610.188
7614.257
7618.29
7622.284
7626.24
7630.153
7634.018
7637.825
7641.557
7645.194
7648.714
7652.087
7655.307
7658.414
7661.456
7664.445
7667.362
7670.203
7673.033
7675.996
7678.798
7681.288
7683.596
7685.849
7688.079
7690.281
7692.448
7694.577
7696.662
7698.692
7700.66
7702.565
7704.406
7706.182
7707.891
7709.532
7711.103
7712.605
7714.036
7715.397
7716.687
7717.909
7719.061
7720.144
7721.159
7722.108
7722.991
7723.808
7724.562
7725.253
7725.883
7726.452
7726.962
7727.414
7727.809
7728.149
7728.434
7728.666
7728.846
7728.976
7729.056
7729.088
7729.072
7729.01
7728.903
7728.752
7728.558
7728.321
7728.043
7727.724
7727.365
7726.966
7726.528
7726.051
7725.535
7724.981
7724.387
7723.753
7723.08
7722.365
7721.608
7720.806
7719.959
7719.062
7718.114
7717.11
7716.045
7714.913
7713.708
7712.421
7711.043
7709.56
7707.96
7706.226
7704.344
7702.303
7700.107
7697.799
7695.483
7693.365
7691.703
7690.808
7691.073
7692.797
2399.854
2407.348
2425.887
2439.613
2479.064
2516.59
2601.938
2714.561
2849.367
2952.712
3030.424
3139.669
3281.565
3455.075
3658.682
3887.262
4142.818
4424.375
4729.833
5055.779
5395.311
5743.144
6088.252
6417.995
6721.41
6988.174
7210.193
7382.935
7505.323
7579.384
7612.017
7514.539
7479.141
7407.881
7307.01
7190.092
7061.696
6925.873
6786.772
6646.295
6504.971
6362.686
6219.644
6075.602
5930.861
5785.769
5640.989
5497.813
5358.061
5223.757
5097.528
4983.25
4884.154
4801.986
4737.737
4691.135
4660.837
4644.787
4640.664
4646.15
4658.092
4673.852
4691.396
4708.944
4724.708
4737.744
4747.295
4753.933
4758.409
4756.803
4749.185
4738.808
4726.82
4713.24
4698.251
4682.643
4667.154
4652.8
4640.837
4632.049
4627.526
4628.716
4636.744
4652.517
4676.823
4710.174
4752.827
4804.705
4864.94
4932.806
5008.078
5089.415
5175.857
5265.111
5356.818
5449.787
5542.87
5634.938
5725.08
5812.348
5896.497
5977.935
6058.272
6139.128
6221.108
6300.772
6373.083
6434.579
6483.281
6520.019
6548.107
6568.983
6582.047
6590.603
6596.96
6599.907
6605.17
6619.554
6638.636
6650.693
6650.792
6643.729
6635.837
6633.061
6638.028
6647.733
6659.538
6674.23
6691.268
6709.34
6727.137
6743.157
6756.955
6768.567
6778.126
6785.928
6792.232
6797.332
6801.52
6805.077
6808.216
6811.108
6813.945
6816.904
6820.114
6823.674
6827.644
6832.069
6836.975
6842.285
6847.874
6853.663
6859.646
6865.828
6872.302
6879.375
6887.108
6895.353
6903.972
6912.882
6922.011
6931.293
6940.661
6950.055
6959.418
6968.696
6977.84
6986.804
6995.546
7004.027
7012.216
7020.085
7027.608
7034.768
7041.55
7047.945
7053.949
7059.56
7064.776
7069.598
7074.029
7078.076
7081.742
7085.032
7087.953
7090.513
7092.723
7094.596
7096.148
7097.395
7098.357
7099.05
7099.495
7099.708
7099.711
7099.522
7099.161
7098.648
7098.001
7097.24
7096.388
7095.466
7094.497
7093.502
7092.493
7091.468
7090.436
7089.412
7088.414
7087.458
7086.554
7085.711
7084.939
7084.246
7083.638
7083.123
7082.709
7082.399
7082.195
7082.1
7082.116
7082.245
7082.486
7082.84
7083.305
7083.879
7084.561
7085.346
7086.232
7087.213
7088.284
7089.44
7090.674
7091.98
7093.352
7094.781
7096.261
7097.783
7099.34
7100.924
7102.528
7104.143
7105.761
7107.376
7108.98
7110.567
7112.13
7113.664
7115.166
7116.633
7118.074
7119.49
7120.918
7122.356
7123.795
7124.943
7125.994
7127.065
7128.115
7129.104
7130.02
7130.87
7131.66
7132.392
7133.068
7133.691
7134.262
7134.784
7135.259
7135.691
7136.083
7136.435
7136.752
7137.031
7137.275
7137.478
7137.645
7137.78
7137.882
7137.954
7138.004
7137.999
7137.977
7137.916
7137.836
7137.759
7137.735
7137.835
7138.175
7138.854
7139.975
7141.579
7143.394
7145.223
7147.064
7148.921
7150.791
7152.674
7154.573
7156.493
7158.438
7160.412
7162.418
7164.463
7166.55
7168.681
7170.861
7173.094
7175.382
7177.729
7180.138
7182.611
7185.152
7187.753
7190.427
7193.177
7196
7198.898
7201.872
7204.92
7208.044
7211.234
7214.512
7217.859
7221.546
7225.132
7228.578
7231.917
7235.32
7238.871
7242.565
7246.369
7250.253
7254.21
7258.235
7262.311
7266.439
7270.616
7274.835
7279.089
7283.374
7287.684
7292.015
7296.363
7300.722
7305.089
7309.459
7313.829
7318.194
7322.552
7326.898
7331.23
7335.543
7339.835
7344.103
7348.344
7352.556
7356.737
7360.883
7364.992
7369.064
7373.095
7377.084
7381.028
7384.922
7388.76
7392.533
7396.232
7399.842
7403.348
7406.732
7409.992
7413.145
7416.219
7419.231
7422.18
7425.075
7427.92
7430.676
7433.235
7435.655
7438.039
7440.417
7442.761
7445.045
7447.263
7449.418
7451.514
7453.55
7455.523
7457.431
7459.272
7461.045
7462.75
7464.385
7465.949
7467.444
7468.868
7470.222
7471.507
7472.722
7473.868
7474.945
7475.956
7476.899
7477.777
7478.591
7479.34
7480.028
7480.653
7481.219
7481.725
7482.174
7482.566
7482.902
7483.185
7483.414
7483.591
7483.718
7483.795
7483.823
7483.805
7483.74
7483.63
7483.476
7483.279
7483.039
7482.759
7482.438
7482.076
7481.676
7481.236
7480.758
7480.242
7479.687
7479.095
7478.463
7477.793
7477.082
7476.331
7475.538
7474.7
7473.817
7472.885
7471.902
7470.863
7469.764
7468.6
7467.365
7466.053
7464.655
7463.166
7461.579
7459.892
7458.115
7456.268
7454.406
7452.608
7451.013
7449.731
7448.983
7448.846
7449.573
2890.977
2801.901
2722.407
2622.906
2534.322
2417.753
2345.934
2280.747
2227.652
2184.879
2152.819
2132.761
2124.932
2130.376
2149.807
2185.829
2187.46
2261.781
2349.888
2446.918
2547.155
2658.6
2787.27
2938.619
3114.82
3316.109
3542.911
3795.715
4074.083
4377.22
4702.557
5044.366
5392.77
5736.293
6063.358
6362.437
6622.179
6835.225
6998.12
7110.41
7174.332
7193.586
7169.918
7123.942
7053.226
6957.96
6844.213
6718.578
6587.659
6454.923
6321.029
6186.061
6049.719
5911.897
5772.41
5631.04
5487.868
5343.532
5199.525
5057.87
4920.996
4791.87
4674.868
4574.724
4493.496
4432.19
4390.211
4365.804
4356.59
4359.918
4372.657
4392.069
4415.394
4440.148
4463.922
4485.038
4502.365
4515.395
4523.675
4527.579
4524.683
4517.351
4506.419
4492.747
4476.748
4458.809
4439.603
4419.954
4400.982
4384.012
4370.406
4361.564
4358.72
4362.935
4375.226
4396.641
4427.988
4469.622
4521.299
4582.483
4652.308
4729.648
4813.142
4900.669
4990.599
5081.961
5173.658
5264.591
5354.154
5442.351
5529.262
5614.11
5696.652
5778.132
5859.205
5939.403
6015.731
6085.459
6146.795
6198.05
6238.676
6270.065
6293.835
6311.287
6323.887
6332.959
6340.923
6352.099
6367.702
6382.556
6391.043
6393.38
6394.019
6395.564
6397.665
6400.628
6407.092
6419.903
6438.102
6457.784
6476.128
6492.871
6507.539
6520.189
6530.833
6539.508
6546.484
6552.034
6556.423
6559.94
6562.861
6565.427
6567.844
6570.293
6572.941
6575.883
6579.174
6582.88
6587.04
6591.662
6596.706
6602.086
6607.768
6613.742
6620.026
6626.683
6633.848
6641.563
6649.756
6658.332
6667.203
6676.296
6685.546
6694.891
6704.268
6713.62
6722.894
6732.037
6741.003
6749.75
6758.238
6766.436
6774.314
6781.849
6789.021
6795.816
6802.228
6808.251
6813.884
6819.126
6823.975
6828.439
6832.528
6836.239
6839.566
6842.52
6845.109
6847.341
6849.23
6850.796
6852.056
6853.027
6853.728
6854.178
6854.396
6854.401
6854.212
6853.849
6853.331
6852.679
6851.912
6851.051
6850.117
6849.129
6848.107
6847.064
6846.008
6844.95
6843.898
6842.872
6841.89
6840.958
6840.086
6839.285
6838.562
6837.925
6837.382
6836.937
6836.595
6836.361
6836.235
6836.221
6836.32
6836.532
6836.857
6837.294
6837.841
6838.496
6839.255
6840.116
6841.073
6842.121
6843.256
6844.469
6845.757
6847.111
6848.524
6849.99
6851.5
6853.047
6854.623
6856.22
6857.831
6859.448
6861.063
6862.671
6864.263
6865.835
6867.382
6868.9
6870.388
6871.849
6873.281
6874.693
6876.066
6877.381
6878.595
6879.747
6880.864
6881.932
6882.935
6883.871
6884.745
6885.559
6886.316
6887.016
6887.664
6888.261
6888.809
6889.311
6889.769
6890.186
6890.563
6890.903
6891.205
6891.472
6891.708
6891.913
6892.089
6892.238
6892.359
6892.446
6892.53
6892.589
6892.641
6892.706
6892.804
6892.978
6893.28
6893.796
6894.557
6895.6
6897.028
6898.641
6900.3
6902.023
6903.794
6905.597
6907.429
6909.291
6911.183
6913.107
6915.066
6917.062
6919.1
6921.182
6923.311
6925.49
6927.722
6930.011
6932.359
6934.768
6937.241
6939.78
6942.384
6945.057
6947.802
6950.62
6953.511
6956.476
6959.513
6962.622
6965.797
6969.039
6972.315
6975.572
6978.993
6982.404
6985.861
6989.506
6993.244
6997.052
7000.922
7004.848
7008.831
7012.872
7016.963
7021.102
7025.286
7029.511
7033.77
7038.06
7042.376
7046.713
7051.068
7055.435
7059.81
7064.19
7068.569
7072.945
7077.314
7081.671
7086.014
7090.339
7094.642
7098.921
7103.173
7107.395
7111.584
7115.738
7119.854
7123.929
7127.961
7131.947
7135.883
7139.765
7143.587
7147.342
7151.022
7154.616
7158.113
7161.506
7164.791
7167.979
7171.084
7174.117
7177.08
7179.973
7182.778
7185.48
7188.083
7190.61
7193.077
7195.485
7197.829
7200.105
7202.314
7204.461
7206.548
7208.573
7210.535
7212.431
7214.26
7216.021
7217.713
7219.336
7220.889
7222.373
7223.786
7225.13
7226.405
7227.611
7228.748
7229.818
7230.821
7231.757
7232.628
7233.434
7234.178
7234.859
7235.479
7236.039
7236.54
7236.983
7237.37
7237.701
7237.979
7238.203
7238.376
7238.498
7238.57
7238.594
7238.571
7238.502
7238.388
7238.23
7238.029
7237.786
7237.502
7237.178
7236.814
7236.411
7235.97
7235.491
7234.974
7234.42
7233.828
7233.199
7232.533
7231.828
7231.084
7230.3
7229.476
7228.608
7227.697
7226.738
7225.73
7224.669
7223.553
7222.377
7221.139
7219.836
7218.465
7217.029
7215.533
7213.994
7212.438
7210.913
7209.479
7208.228
7207.24
7206.647
7206.452
7206.836
3920.775
3777.119
3637.635
3486.356
3360.25
3189.743
3070.431
2954.992
2842.144
2733.316
2629.63
2531.068
2435.152
2344.273
2256.374
2099.683
2027.809
1964.7
1910.739
1866.946
1834.506
1813.796
1804.439
1806.911
1822.811
1853.777
1895.542
1958.262
2034.968
2123.641
2222.897
2335.714
2465.321
2614.239
2784.657
2978.382
3196.748
3439.972
3708.28
4000.983
4315.84
4648.4
4990.388
5331.197
5657.606
5955.717
6215.172
6428.266
6591.202
6703.721
6768.569
6791.26
6776.863
6734.448
6668.538
6579.497
6472.096
6354.479
6232.637
6108.877
5983.629
5856.825
5727.955
5596.6
5462.254
5324.358
5182.588
5037.487
4890.881
4745.065
4602.543
4467
4344.231
4241.569
4161.29
4104.054
4068.182
4051.289
4050.674
4063.512
4086.427
4116.118
4149.527
4183.712
4215.886
4243.954
4266.514
4282.96
4293.062
4296.798
4296.394
4289.938
4278.511
4263.018
4244.129
4222.432
4198.533
4173.18
4147.679
4123.97
4104.035
4089.261
4080.624
4079.334
4086.781
4104.352
4133.112
4173.325
4225.024
4288.142
4361.149
4442.139
4528.818
4618.852
4710.464
4802.255
4892.982
4981.592
5068.233
5156.882
5245.228
5330.327
5413.075
5494.703
5575.366
5654.236
5729.433
5799.078
5861.432
5914.874
5958.597
5993.341
6020.674
6041.767
6057.897
6071.24
6083.93
6097.029
6110.406
6122.833
6132.842
6140.761
6147.825
6153.809
6158.139
6163.477
6173.403
6187.677
6204.049
6221.514
6239.806
6257.475
6272.68
6285.054
6294.865
6302.459
6308.351
6312.904
6316.397
6319.117
6321.323
6323.267
6325.173
6327.19
6329.445
6332.04
6335.043
6338.497
6342.424
6346.82
6351.648
6356.868
6362.455
6368.406
6374.738
6381.485
6388.706
6396.418
6404.581
6413.133
6421.984
6431.051
6440.277
6449.602
6458.965
6468.309
6477.577
6486.718
6495.681
6504.425
6512.91
6521.103
6528.975
6536.5
6543.661
6550.444
6556.842
6562.856
6568.485
6573.723
6578.568
6583.031
6587.14
6590.89
6594.258
6597.252
6599.87
6602.113
6604.006
6605.573
6606.833
6607.803
6608.503
6608.95
6609.164
6609.163
6608.967
6608.595
6608.067
6607.404
6606.624
6605.747
6604.795
6603.785
6602.736
6601.663
6600.578
6599.501
6598.419
6597.353
6596.345
6595.388
6594.489
6593.66
6592.91
6592.246
6591.675
6591.203
6590.834
6590.572
6590.42
6590.38
6590.452
6590.639
6590.939
6591.351
6591.875
6592.507
6593.245
6594.085
6595.023
6596.052
6597.169
6598.366
6599.638
6600.978
6602.379
6603.834
6605.335
6606.875
6608.445
6610.039
6611.648
6613.266
6614.885
6616.497
6618.096
6619.678
6621.236
6622.768
6624.27
6625.743
6627.183
6628.589
6629.953
6631.27
6632.523
6633.709
6634.836
6635.906
6636.918
6637.868
6638.757
6639.589
6640.362
6641.08
6641.745
6642.359
6642.924
6643.443
6643.919
6644.353
6644.748
6645.107
6645.43
6645.721
6645.983
6646.215
6646.423
6646.607
6646.769
6646.914
6647.06
6647.204
6647.362
6647.537
6647.772
6648.087
6648.521
6649.126
6649.931
6650.95
6652.245
6653.715
6655.269
6656.898
6658.589
6660.328
6662.11
6663.931
6665.791
6667.69
6669.63
6671.612
6673.64
6675.714
6677.839
6680.016
6682.247
6684.536
6686.885
6689.295
6691.769
6694.309
6696.915
6699.59
6702.335
6705.153
6708.042
6711.005
6714.038
6717.142
6720.312
6723.545
6726.827
6730.161
6733.605
6737.115
6740.703
6744.292
6747.986
6751.752
6755.601
6759.519
6763.499
6767.538
6771.63
6775.773
6779.961
6784.19
6788.456
6792.753
6797.077
6801.424
6805.788
6810.166
6814.553
6818.944
6823.337
6827.726
6832.108
6836.479
6840.836
6845.174
6849.491
6853.783
6858.048
6862.282
6866.483
6870.646
6874.77
6878.852
6882.888
6886.875
6890.809
6894.685
6898.499
6902.245
6905.915
6909.502
6912.999
6916.401
6919.706
6922.918
6926.046
6929.095
6932.067
6934.959
6937.765
6940.489
6943.133
6945.696
6948.181
6950.592
6952.935
6955.212
6957.423
6959.57
6961.654
6963.674
6965.628
6967.515
6969.334
6971.084
6972.765
6974.377
6975.919
6977.391
6978.794
6980.127
6981.391
6982.587
6983.714
6984.774
6985.767
6986.694
6987.556
6988.354
6989.089
6989.762
6990.374
6990.926
6991.42
6991.856
6992.235
6992.56
6992.831
6993.048
6993.215
6993.33
6993.397
6993.415
6993.386
6993.311
6993.191
6993.028
6992.822
6992.574
6992.286
6991.958
6991.59
6991.184
6990.741
6990.26
6989.742
6989.189
6988.598
6987.972
6987.31
6986.612
6985.876
6985.104
6984.293
6983.444
6982.554
6981.623
6980.649
6979.631
6978.567
6977.455
6976.295
6975.087
6973.835
6972.543
6971.222
6969.891
6968.576
6967.317
6966.162
6965.177
6964.417
6963.963
6963.801
6964.094
4259.681
4202.321
4101.051
3949.002
3783.559
3625.126
3474.449
3334.006
3201.898
3072.143
2863.702
2744.315
2629.697
2518.367
2410.473
2306.502
2206.62
2110.449
2018.671
1932.551
1853.258
1779.991
1714.443
1657.229
1609.24
1571.82
1545.7
1531.424
1529.684
1541.129
1565.798
1604.014
1658.673
1728.416
1812.298
1909.119
2020.241
2148.285
2295.201
2461.595
2648.678
2857.84
3090.081
3346.294
3626.418
3928.923
4251.367
4584.584
4918.148
5238.239
5531.11
5785.743
5994.71
6154.688
6266.073
6332.269
6358.323
6350.33
6312.933
6250.509
6167.886
6070.751
5965.187
5855.182
5742.922
5628.788
5512.493
5392.73
5268.987
5140.518
5006.234
4865.31
4718.325
4567.388
4414.67
4262.658
4116.725
3985.272
3877.763
3798.546
3746.965
3719.65
3713.799
3725.835
3752.524
3789.678
3833.371
3880.055
3926.503
3969.588
4006.583
4035.749
4056.593
4069.481
4075.158
4074.738
4068.201
4055.756
4037.912
4015.486
3989.277
3959.767
3927.353
3893.506
3861.103
3833.057
3810.799
3794.918
3786.56
3787.317
3799.316
3824.584
3863.318
3915.721
3981.591
4059.536
4146.365
4238.426
4332.838
4427.723
4521.332
4612.133
4699.717
4787.817
4876.714
4962.926
5046.643
5129.114
5210.756
5291.434
5370.304
5445.857
5516.158
5579.497
5634.667
5681.068
5719.111
5749.844
5774.396
5794.25
5811.123
5826.139
5839.975
5853.393
5866.626
5879.005
5889.877
5899.277
5907.576
5915.6
5925.495
5938.502
5953.302
5969.35
5986.79
6004.437
6020.929
6035.634
6048.213
6058.16
6065.505
6070.832
6074.599
6077.23
6079.14
6080.646
6082.001
6083.385
6084.934
6086.756
6088.974
6091.668
6094.856
6098.537
6102.703
6107.331
6112.402
6117.893
6123.801
6130.138
6136.919
6144.161
6151.859
6159.977
6168.461
6177.245
6186.266
6195.461
6204.769
6214.126
6223.472
6232.751
6241.905
6250.884
6259.641
6268.136
6276.334
6284.205
6291.724
6298.871
6305.632
6312.003
6317.985
6323.58
6328.784
6333.591
6338.01
6342.051
6345.723
6349.054
6352.063
6354.704
6356.945
6358.829
6360.386
6361.637
6362.599
6363.292
6363.732
6363.939
6363.931
6363.726
6363.344
6362.806
6362.129
6361.335
6360.443
6359.472
6358.441
6357.368
6356.268
6355.156
6354.038
6352.937
6351.865
6350.826
6349.841
6348.917
6348.064
6347.289
6346.601
6346.005
6345.509
6345.115
6344.829
6344.653
6344.59
6344.639
6344.804
6345.082
6345.473
6345.976
6346.588
6347.307
6348.129
6349.051
6350.065
6351.166
6352.349
6353.608
6354.937
6356.328
6357.774
6359.267
6360.801
6362.366
6363.957
6365.565
6367.183
6368.805
6370.422
6372.027
6373.617
6375.185
6376.727
6378.24
6379.722
6381.169
6382.579
6383.946
6385.266
6386.526
6387.722
6388.858
6389.938
6390.96
6391.923
6392.828
6393.675
6394.464
6395.197
6395.876
6396.505
6397.085
6397.619
6398.11
6398.56
6398.972
6399.349
6399.692
6400.004
6400.288
6400.548
6400.785
6401.005
6401.212
6401.412
6401.614
6401.824
6402.059
6402.336
6402.661
6403.073
6403.596
6404.263
6405.099
6406.116
6407.321
6408.678
6410.14
6411.687
6413.305
6414.982
6416.711
6418.489
6420.314
6422.184
6424.102
6426.066
6428.08
6430.145
6432.262
6434.435
6436.664
6438.952
6441.3
6443.712
6446.188
6448.73
6451.339
6454.017
6456.766
6459.586
6462.478
6465.442
6468.477
6471.582
6474.755
6477.994
6481.295
6484.665
6488.114
6491.626
6495.2
6498.833
6502.537
6506.335
6510.2
6514.128
6518.116
6522.164
6526.267
6530.419
6534.618
6538.858
6543.135
6547.443
6551.78
6556.139
6560.517
6564.909
6569.311
6573.718
6578.126
6582.531
6586.93
6591.317
6595.691
6600.046
6604.38
6608.688
6612.969
6617.217
6621.431
6625.607
6629.742
6633.833
6637.876
6641.868
6645.805
6649.682
6653.496
6657.239
6660.907
6664.495
6667.996
6671.408
6674.729
6677.961
6681.107
6684.172
6687.155
6690.058
6692.879
6695.62
6698.279
6700.854
6703.35
6705.771
6708.122
6710.406
6712.623
6714.772
6716.854
6718.868
6720.815
6722.694
6724.503
6726.243
6727.914
6729.514
6731.045
6732.505
6733.896
6735.217
6736.47
6737.654
6738.769
6739.818
6740.799
6741.715
6742.566
6743.354
6744.078
6744.741
6745.343
6745.885
6746.369
6746.796
6747.166
6747.482
6747.744
6747.954
6748.112
6748.219
6748.277
6748.287
6748.251
6748.168
6748.042
6747.872
6747.659
6747.405
6747.111
6746.778
6746.406
6745.996
6745.549
6745.066
6744.547
6743.993
6743.404
6742.781
6742.123
6741.431
6740.705
6739.944
6739.149
6738.319
6737.453
6736.551
6735.613
6734.639
6733.627
6732.58
6731.498
6730.385
6729.245
6728.086
6726.923
6725.771
6724.657
6723.614
6722.68
6721.904
6721.322
6720.994
6720.891
6721.194
4001.256
3898.805
3664.184
3523.254
3380.143
3241.395
3107.473
2978.325
2853.163
2731.921
2615.878
2500.204
2386.682
2275.587
2167.678
2063.13
1962.066
1864.421
1770.63
1681.379
1598.751
1522.391
1453.117
1392.446
1341.22
1300.275
1270.56
1253.301
1249.1
1258.055
1280.284
1316.159
1366.447
1431.065
1510.527
1605.062
1714.869
1840.545
1983.363
2144.043
2323.701
2523.446
2744.586
2988.591
3255.782
3545.346
3854.656
4175.906
4497.973
4806.953
5089.351
5334.365
5535.312
5689.668
5798.701
5866.078
5896.201
5892.875
5860.264
5804.594
5732.65
5648.807
5556.935
5460.57
5362.243
5261.733
5157.909
5049.013
4934.799
4812.994
4682.012
4540.474
4389.701
4232.52
4069.911
3903.22
3741.084
3597.634
3484.945
3406.339
3361.604
3346.522
3356.074
3384.53
3428.01
3482.739
3544.218
3607.938
3669.947
3726.481
3774.18
3810.944
3836.562
3852.21
3859.336
3859.112
3851.942
3837.895
3817.099