/*--------------------------------*- C++ -*----------------------------------*\
| =========                 |                                                 |
| \\      /  F ield         | foam-extend: Open Source CFD                    |
|  \\    /   O peration     | Version:     3.1                                |
|   \\  /    A nd           | Web:         http://www.extend-project.de       |
|    \\/     M anipulation  |                                                 |
\*---------------------------------------------------------------------------*/
FoamFile
{
    version     2.0;
    format      ascii;
    class       volScalarField;
    location    "8";
    object      pd;
}
// * * * * * * * * * * * * * * * * * * * * * * * * * * * * * * * * * * * * * //

dimensions      [1 -1 -2 0 0 0 0];

internalField   nonuniform List<scalar> 
119952
(
7758.868
7762.239
7771.187
7787.149
7804.699
7818.565
7832.444
7845.243
7856.805
7867.005
7875.788
7883.357
7889.848
7895.431
7900.276
7904.586
7908.504
7912.148
7915.511
7917.816
7927.836
7928.525
7931.778
7944.46
7948.321
7954.706
7961.684
7970.604
7986.078
8704.763
5969.839
5991.083
6056.156
6127.084
6205.556
6288.598
6377.723
6472.671
6572.942
6663.463
6783.659
6896.687
7004.831
7096.658
7159.046
7198.269
7253.202
7331.178
7420.431
7530.792
7587.04
7649.368
7703.437
7730.53
7738.115
7765.048
7750.394
7727.377
7708.79
7703.817
7719.252
7737.195
7748.598
7751.453
7748.969
7744.807
7742.35
7744.288
7751.437
7758.878
7771.598
7787.088
7803.258
7818.635
7833.01
7846.171
7857.925
7868.212
7877.066
7884.593
7891.1
7896.632
7901.407
7905.627
7909.469
7913.085
7916.623
7920.302
7924.718
7929.136
7933.717
7940.325
7947.691
7954.118
7961.039
7968.25
7974.533
7976.759
7983.295
7991.956
8000.803
8009.876
8019.145
8028.569
8038.094
8047.665
8057.229
8066.73
8076.123
8085.356
8094.389
8103.18
8111.695
8119.902
8127.773
8135.286
8142.422
8149.162
8155.492
8161.412
8166.928
8172.036
8176.738
8181.038
8184.942
8188.457
8191.592
8194.358
8196.763
8198.825
8200.556
8201.973
8203.095
8203.936
8204.517
8204.855
8204.973
8204.888
8204.62
8204.186
8203.606
8202.897
8202.083
8201.174
8200.169
8199.092
8198.199
8197.341
8196.516
8195.543
8194.572
8193.629
8192.727
8191.882
8191.104
8190.402
8189.785
8189.263
8188.846
8188.513
8188.288
8188.174
8188.172
8188.285
8188.513
8188.854
8189.291
8189.873
8190.56
8191.35
8192.243
8193.233
8194.316
8195.487
8196.738
8198.064
8199.457
8200.911
8202.416
8203.966
8205.551
8207.165
8208.797
8210.44
8212.086
8213.727
8215.354
8216.96
8218.537
8220.076
8221.569
8223.006
8224.375
8225.651
8226.804
8227.885
8229.725
8232.66
8232.824
8233.803
8234.813
8235.761
8236.642
8237.456
8238.202
8238.883
8239.506
8240.079
8240.592
8241.04
8241.439
8241.79
8242.086
8242.358
8242.612
8242.809
8242.964
8243.08
8243.159
8243.203
8243.206
8243.169
8243.089
8242.958
8242.766
8242.499
8242.136
8241.639
8240.949
8239.944
8238.358
8235.554
8232.389
8237.278
8241.08
8243.959
8246.436
8248.7
8250.824
8252.867
8254.864
8256.841
8258.811
8260.787
8262.778
8264.796
8266.844
8268.929
8271.055
8273.225
8275.445
8277.721
8280.054
8282.467
8284.927
8287.454
8290.055
8292.738
8295.496
8298.332
8301.246
8304.242
8307.322
8310.492
8313.758
8317.107
8320.442
8333.317
8331.964
8330.774
8334.702
8338.384
8341.721
8345.365
8349.199
8353.099
8357.046
8361.052
8365.128
8369.259
8373.439
8377.663
8381.921
8386.207
8390.516
8394.842
8399.183
8403.533
8407.888
8412.244
8416.599
8420.949
8425.291
8429.62
8433.934
8438.231
8442.506
8446.759
8450.987
8455.187
8459.358
8463.497
8467.605
8471.68
8475.723
8479.735
8483.718
8487.677
8491.622
8495.569
8499.54
8503.506
8507.234
8510.435
8513.336
8516.308
8519.333
8522.344
8525.349
8528.237
8530.318
8529.959
8534.754
8537.966
8540.384
8542.872
8545.292
8547.614
8549.876
8552.085
8554.238
8556.331
8558.359
8560.319
8562.213
8564.039
8565.794
8567.478
8569.089
8570.627
8572.092
8573.484
8574.804
8576.052
8577.229
8578.337
8579.375
8580.345
8581.248
8582.085
8582.858
8583.567
8584.214
8584.8
8585.327
8585.795
8586.207
8586.562
8586.863
8587.111
8587.307
8587.452
8587.547
8587.594
8587.594
8587.547
8587.455
8587.319
8587.14
8586.918
8586.655
8586.35
8586.005
8585.619
8585.194
8584.73
8584.226
8583.682
8583.098
8582.474
8581.808
8581.1
8580.348
8579.55
8578.703
8577.804
8576.85
8575.835
8574.754
8573.6
8572.362
8571.03
8569.588
8568.019
8566.297
8564.392
8562.259
8559.842
8557.055
8553.778
8549.806
8544.803
8538.486
8532.253
8535.467
8566.011
6318.067
6212.234
6105.603
6011.842
5934.421
5874.345
5831.078
5799.324
5780.462
5744.908
5766.606
5771.8
5781.859
5793.061
5804.622
5815.144
5823.697
5830.281
5853.88
5854.226
5833.535
5826.181
5818.249
5808.292
5798.302
5788.585
5779.3
5772.339
5768.922
5758.139
5758.509
5765.061
5776.281
5794.08
5819.066
5851.691
5893.691
5947.987
5993.252
6054.577
6127.898
6205.933
6290.661
6380.893
6475.835
6575.094
6677.607
6783.96
6888.136
6983.375
7068.18
7139.837
7203.511
7274.611
7354.403
7433.156
7528.415
7599.46
7647.536
7683.548
7711.1
7726.827
7735.529
7732.997
7714.204
7705.28
7721.123
7750.229
7765.652
7762.108
7753.505
7745.458
7739.479
7736.974
7739.422
7747.238
7757.997
7772.558
7789.183
7806.551
7822.959
7837.748
7851.112
7862.861
7872.946
7881.484
7888.738
7894.656
7899.704
7904.064
7907.933
7911.495
7914.928
7918.407
7922.113
7926.204
7930.678
7935.654
7941.368
7947.637
7953.956
7960.15
7966.283
7972.108
7977.749
7984.608
7992.621
8001.205
8010.098
8019.226
8028.535
8037.96
8047.439
8056.917
8066.338
8075.654
8084.816
8093.781
8102.509
8110.964
8119.116
8126.935
8134.401
8141.492
8148.196
8154.501
8160.405
8165.909
8171.01
8175.71
8180.014
8183.925
8187.452
8190.601
8193.383
8195.808
8197.888
8199.638
8201.074
8202.212
8203.072
8203.67
8204.027
8204.162
8204.094
8203.838
8203.418
8202.854
8202.166
8201.366
8200.487
8199.542
8198.573
8197.624
8196.694
8195.723
8194.733
8193.756
8192.811
8191.912
8191.067
8190.286
8189.579
8188.953
8188.412
8187.939
8187.621
8187.398
8187.277
8187.265
8187.363
8187.573
8187.895
8188.337
8188.887
8189.546
8190.312
8191.179
8192.144
8193.201
8194.346
8195.572
8196.873
8198.242
8199.672
8201.155
8202.683
8204.248
8205.842
8207.458
8209.086
8210.719
8212.349
8213.967
8215.567
8217.14
8218.68
8220.178
8221.628
8223.023
8224.361
8225.642
8226.879
8228.007
8230.761
8230.695
8232.102
8233.254
8234.264
8235.202
8236.062
8236.857
8237.592
8238.27
8238.889
8239.452
8239.956
8240.411
8240.817
8241.179
8241.508
8241.798
8242.043
8242.243
8242.407
8242.536
8242.625
8242.676
8242.687
8242.654
8242.571
8242.428
8242.213
8241.91
8241.491
8240.915
8240.134
8239.149
8238.212
8238.043
8239.704
8242.495
8244.955
8247.225
8249.394
8251.465
8253.476
8255.454
8257.418
8259.376
8261.343
8263.325
8265.344
8267.386
8269.465
8271.587
8273.756
8275.977
8278.254
8280.59
8282.989
8285.449
8287.968
8290.561
8293.246
8296
8298.83
8301.738
8304.726
8307.798
8310.955
8314.203
8317.585
8321.617
8327.777
8331.752
8334.006
8336.167
8339.059
8342.552
8346.302
8350.127
8354.026
8357.983
8361.983
8366.052
8370.195
8374.383
8378.61
8382.871
8387.159
8391.47
8395.8
8400.144
8404.497
8408.856
8413.217
8417.575
8421.928
8426.272
8430.604
8434.919
8439.217
8443.493
8447.746
8451.972
8456.17
8460.338
8464.473
8468.576
8472.644
8476.678
8480.678
8484.645
8488.579
8492.482
8496.346
8500.15
8503.85
8507.388
8510.711
8513.848
8516.903
8519.93
8522.919
8525.839
8528.627
8531.109
8533.179
8535.403
8538.094
8540.931
8543.601
8546.049
8548.351
8550.58
8552.76
8554.886
8556.947
8558.94
8560.866
8562.726
8564.519
8566.243
8567.897
8569.48
8570.991
8572.431
8573.8
8575.097
8576.324
8577.48
8578.568
8579.587
8580.538
8581.424
8582.244
8582.999
8583.692
8584.324
8584.894
8585.406
8585.859
8586.256
8586.597
8586.883
8587.117
8587.299
8587.43
8587.512
8587.546
8587.532
8587.473
8587.368
8587.219
8587.027
8586.793
8586.517
8586.2
8585.843
8585.446
8585.01
8584.534
8584.019
8583.465
8582.871
8582.237
8581.562
8580.845
8580.084
8579.278
8578.423
8577.518
8576.558
8575.539
8574.455
8573.3
8572.064
8570.738
8569.307
8567.758
8566.067
8564.214
8562.158
8559.875
8557.305
8554.448
8551.312
8548.202
8545.689
8544.914
8546.445
8550.786
4353.568
4519.591
4729.437
4968.498
5236.329
5533.241
5854.161
6198.918
6544.327
6897.479
7251.233
7583.863
7888.578
8158.235
8382.854
8558.336
8683.407
8759.586
8789.963
8764.076
8719.937
8646.353
8549.876
8435.867
8308.045
8169.891
8025.599
7878.878
7734.338
7580.931
7433.712
7284.165
7134.942
6986.201
6838.473
6692.966
6551.847
6418.234
6285.06
6166.073
6061.347
5973.59
5902.9
5848.719
5809.965
5785.147
5773.208
5768.764
5772.062
5782.211
5794.125
5806.673
5818.868
5829.591
5837.994
5844.472
5847.542
5846.028
5840.36
5832.071
5822.167
5811.093
5798.686
5786.062
5774.058
5763.074
5754.188
5749.282
5748.391
5752.392
5762.759
5780.555
5806.373
5840.61
5883.177
5934.179
5993.407
6059.795
6132.941
6212.505
6297.491
6387.778
6481.153
6576.723
6673.437
6769.427
6862.636
6951.739
7035.201
7114.161
7190.73
7269.009
7348.064
7427.356
7508.16
7574.856
7622.752
7657.308
7682.657
7701.897
7712.3
7712.88
7713.257
7716.123
7720.774
7730.717
7744.88
7756.496
7762.202
7758.572
7747.811
7737.942
7735.8
7741.731
7754.466
7771.148
7789.764
7808.266
7825.458
7840.965
7854.701
7866.573
7876.642
7884.969
7891.838
7897.472
7902.179
7906.2
7909.752
7913.025
7916.2
7919.452
7922.928
7926.755
7930.99
7935.682
7940.941
7946.624
7952.522
7958.445
7964.428
7970.458
7976.614
7983.56
7991.374
7999.74
8008.454
8017.437
8026.626
8035.953
8045.355
8054.771
8064.147
8073.429
8082.571
8091.527
8100.255
8108.721
8116.89
8124.736
8132.235
8139.367
8146.118
8152.48
8158.448
8164.019
8169.194
8173.972
8178.358
8182.356
8185.972
8189.212
8192.084
8194.599
8196.766
8198.601
8200.117
8201.333
8202.265
8202.933
8203.354
8203.547
8203.533
8203.329
8202.956
8202.435
8201.783
8201.016
8200.159
8199.237
8198.277
8197.305
8196.335
8195.341
8194.331
8193.328
8192.355
8191.425
8190.549
8189.736
8188.996
8188.336
8187.762
8187.276
8186.898
8186.622
8186.451
8186.39
8186.441
8186.603
8186.879
8187.267
8187.765
8188.372
8189.086
8189.902
8190.818
8191.828
8192.928
8194.11
8195.37
8196.7
8198.093
8199.542
8201.04
8202.578
8204.149
8205.745
8207.357
8208.979
8210.601
8212.217
8213.819
8215.4
8216.954
8218.473
8219.955
8221.393
8222.799
8224.16
8225.559
8226.998
8228.847
8230.168
8231.207
8232.199
8233.184
8234.12
8234.991
8235.797
8236.545
8237.234
8237.866
8238.451
8238.983
8239.465
8239.9
8240.287
8240.632
8240.938
8241.201
8241.418
8241.647
8241.825
8241.957
8242.051
8242.109
8242.128
8242.106
8242.025
8241.888
8241.69
8241.429
8241.113
8240.782
8240.536
8240.571
8241.164
8242.455
8244.311
8246.352
8248.364
8250.332
8252.276
8254.208
8256.136
8258.066
8260.006
8261.965
8263.949
8265.959
8268.007
8270.095
8272.227
8274.408
8276.642
8278.932
8281.282
8283.697
8286.181
8288.753
8291.34
8294.011
8296.765
8299.594
8302.503
8305.487
8308.558
8311.692
8314.919
8318.171
8321.491
8324.495
8327.217
8330.373
8334.038
8337.957
8341.899
8345.823
8349.766
8353.693
8357.704
8361.808
8365.925
8370.075
8374.269
8378.5
8382.762
8387.051
8391.364
8395.696
8400.042
8404.398
8408.761
8413.126
8417.489
8421.848
8426.198
8430.536
8434.859
8439.164
8443.447
8447.706
8451.939
8456.144
8460.317
8464.457
8468.563
8472.632
8476.665
8480.659
8484.614
8488.528
8492.393
8496.2
8499.932
8503.569
8507.089
8510.462
8513.682
8516.789
8519.831
8522.82
8525.737
8528.578
8531.408
8534.371
8537.173
8539.663
8541.971
8544.224
8546.454
8548.656
8550.823
8552.952
8555.037
8557.067
8559.035
8560.94
8562.781
8564.557
8566.266
8567.907
8569.478
8570.98
8572.411
8573.772
8575.062
8576.284
8577.436
8578.519
8579.534
8580.483
8581.366
8582.183
8582.937
8583.628
8584.258
8584.827
8585.337
8585.789
8586.184
8586.524
8586.809
8587.041
8587.221
8587.351
8587.431
8587.463
8587.447
8587.385
8587.278
8587.127
8586.933
8586.696
8586.418
8586.099
8585.74
8585.341
8584.903
8584.426
8583.91
8583.356
8582.762
8582.128
8581.455
8580.74
8579.983
8579.181
8578.334
8577.437
8576.489
8575.485
8574.42
8573.288
8572.083
8570.796
8569.418
8567.935
8566.335
8564.601
8562.719
8560.678
8558.482
8556.174
8553.858
8551.74
8550.078
8549.183
8549.448
8551.172
3417.058
3412.998
3428.064
3451.269
3490.72
3558.902
3644.251
3756.874
3891.68
3995.025
4072.737
4181.982
4323.877
4497.388
4700.994
4929.574
5185.13
5466.688
5772.145
6098.091
6437.623
6785.457
7130.565
7460.308
7763.722
8030.487
8252.506
8425.248
8547.636
8621.697
8654.33
8618.164
8582.766
8511.506
8410.635
8293.717
8165.32
8029.498
7890.397
7749.92
7608.596
7466.311
7323.269
7179.225
7034.482
6889.39
6744.612
6601.437
6461.686
6327.382
6201.153
6086.875
5987.778
5905.609
5841.359
5794.758
5764.461
5748.412
5744.289
5749.775
5761.704
5777.295
5794.543
5812.169
5828.173
5841.35
5850.92
5857.558
5862.034
5860.428
5852.809
5842.433
5830.445
5816.865
5801.876
5786.266
5770.777
5756.424
5744.461
5735.674
5731.151
5732.341
5740.369
5756.142
5780.446
5813.77
5856.247
5908.081
5968.316
6036.292
6111.68
6193.037
6279.472
6368.719
6460.435
6553.41
6646.494
6738.56
6828.69
6915.906
6999.834
7080.97
7161.485
7242.66
7324.727
7404.397
7476.708
7538.204
7586.906
7623.644
7651.732
7672.608
7685.672
7694.228
7700.585
7703.531
7708.794
7723.179
7742.261
7754.318
7754.417
7747.354
7739.462
7736.686
7741.653
7751.358
7763.163
7777.855
7794.893
7812.965
7830.762
7846.782
7860.58
7872.192
7881.751
7889.553
7895.857
7900.957
7905.145
7908.702
7911.841
7914.733
7917.57
7920.529
7923.739
7927.299
7931.27
7935.694
7940.6
7945.91
7951.499
7957.288
7963.271
7969.454
7975.927
7983
7990.733
7998.978
8007.597
8016.507
8025.636
8034.918
8044.286
8053.68
8063.043
8072.321
8081.466
8090.429
8099.171
8107.652
8115.842
8123.71
8131.233
8138.393
8145.175
8151.57
8157.574
8163.185
8168.401
8173.223
8177.654
8181.701
8185.367
8188.657
8191.578
8194.138
8196.348
8198.221
8199.773
8201.02
8201.982
8202.675
8203.12
8203.333
8203.336
8203.147
8202.786
8202.273
8201.626
8200.865
8200.013
8199.091
8198.122
8197.127
8196.118
8195.093
8194.061
8193.037
8192.039
8191.083
8190.179
8189.336
8188.564
8187.871
8187.263
8186.748
8186.334
8186.024
8185.82
8185.725
8185.741
8185.869
8186.111
8186.465
8186.93
8187.504
8188.186
8188.971
8189.857
8190.838
8191.909
8193.065
8194.299
8195.605
8196.977
8198.406
8199.885
8201.408
8202.965
8204.549
8206.153
8207.768
8209.386
8211.001
8212.605
8214.192
8215.755
8217.289
8218.791
8220.258
8221.699
8223.114
8224.543
8225.981
8227.42
8228.568
8229.619
8230.69
8231.74
8232.728
8233.645
8234.495
8235.285
8236.017
8236.693
8237.316
8237.887
8238.409
8238.884
8239.316
8239.708
8240.06
8240.377
8240.656
8240.9
8241.103
8241.269
8241.405
8241.507
8241.579
8241.629
8241.624
8241.602
8241.541
8241.461
8241.384
8241.36
8241.46
8241.8
8242.479
8243.6
8245.204
8247.019
8248.848
8250.689
8252.546
8254.416
8256.299
8258.198
8260.118
8262.063
8264.037
8266.043
8268.088
8270.175
8272.306
8274.486
8276.719
8279.007
8281.354
8283.763
8286.236
8288.777
8291.378
8294.052
8296.802
8299.625
8302.523
8305.497
8308.545
8311.669
8314.859
8318.137
8321.484
8325.171
8328.757
8332.203
8335.542
8338.945
8342.496
8346.19
8349.994
8353.878
8357.835
8361.859
8365.936
8370.064
8374.241
8378.46
8382.714
8386.999
8391.309
8395.64
8399.988
8404.347
8408.714
8413.084
8417.454
8421.819
8426.177
8430.523
8434.855
8439.168
8443.46
8447.728
8451.969
8456.181
8460.362
8464.508
8468.617
8472.689
8476.72
8480.709
8484.653
8488.547
8492.385
8496.158
8499.857
8503.467
8506.973
8510.357
8513.617
8516.77
8519.844
8522.856
8525.805
8528.7
8531.545
8534.301
8536.86
8539.28
8541.664
8544.042
8546.386
8548.67
8550.888
8553.043
8555.139
8557.175
8559.148
8561.056
8562.897
8564.67
8566.375
8568.01
8569.574
8571.069
8572.493
8573.847
8575.132
8576.347
8577.493
8578.57
8579.581
8580.524
8581.402
8582.216
8582.965
8583.653
8584.278
8584.844
8585.35
8585.799
8586.191
8586.527
8586.81
8587.039
8587.216
8587.343
8587.42
8587.448
8587.43
8587.365
8587.255
8587.101
8586.904
8586.664
8586.384
8586.063
8585.701
8585.301
8584.861
8584.383
8583.867
8583.312
8582.72
8582.088
8581.418
8580.707
8579.956
8579.163
8578.325
8577.442
8576.51
8575.527
8574.488
8573.389
8572.225
8570.99
8569.678
8568.28
8566.791
8565.204
8563.517
8561.74
8559.893
8558.031
8556.233
8554.638
8553.356
8552.608
8552.471
8553.198
4159.322
4058.528
3968.01
3879.813
3791.229
3705.315
3633.497
3568.309
3515.215
3472.442
3440.382
3420.324
3412.495
3417.938
3437.37
3473.391
3536.335
3610.656
3698.763
3795.793
3896.03
4007.475
4136.145
4287.494
4463.695
4664.984
4891.786
5144.59
5422.958
5726.095
6051.432
6393.241
6741.645
7085.168
7412.233
7711.312
7971.054
8184.1
8346.995
8459.285
8523.207
8542.461
8518.793
8472.817
8402.101
8306.835
8193.088
8067.453
7936.534
7803.797
7669.904
7534.936
7398.594
7260.772
7121.284
6979.904
6836.721
6692.391
6548.395
6406.744
6269.871
6140.745
6023.743
5923.599
5842.366
5781.037
5739.06
5714.669
5705.464
5708.793
5721.531
5740.934
5764.028
5787.636
5811.342
5833.212
5851.107
5864.263
5872.55
5876.453
5873.558
5866.222
5855.289
5841.62
5825.623
5807.683
5788.474
5768.818
5749.848
5732.884
5719.281
5710.439
5707.595
5711.81
5724.101
5745.515
5776.86
5818.456
5869.918
5931.053
6000.929
6078.452
6162.012
6249.543
6339.473
6430.835
6522.529
6613.44
6702.851
6789.965
6872.375
6956.401
7042.855
7126.691
7208.068
7288.277
7364.606
7434.333
7495.669
7546.925
7587.551
7618.94
7642.71
7660.162
7672.762
7681.834
7689.797
7700.971
7716.572
7731.427
7739.917
7742.254
7742.894
7744.439
7746.54
7749.503
7755.967
7768.778
7786.977
7806.659
7825.003
7841.746
7856.414
7869.064
7879.708
7888.383
7895.359
7900.909
7905.298
7908.815
7911.736
7914.302
7916.719
7919.169
7921.817
7924.758
7928.049
7931.755
7935.915
7940.537
7945.581
7950.962
7956.643
7962.617
7968.901
7975.558
7982.723
7990.438
7998.631
8007.207
8016.078
8025.171
8034.421
8043.766
8053.143
8062.496
8071.769
8080.912
8089.879
8098.625
8107.113
8115.311
8123.189
8130.724
8137.896
8144.691
8151.103
8157.126
8162.759
8168.001
8172.85
8177.314
8181.403
8185.114
8188.441
8191.395
8193.984
8196.216
8198.105
8199.671
8200.931
8201.902
8202.603
8203.053
8203.271
8203.276
8203.087
8202.724
8202.206
8201.554
8200.787
8199.926
8198.992
8198.004
8196.982
8195.939
8194.883
8193.825
8192.773
8191.747
8190.765
8189.833
8188.961
8188.16
8187.437
8186.8
8186.257
8185.812
8185.47
8185.236
8185.11
8185.096
8185.195
8185.407
8185.732
8186.169
8186.716
8187.371
8188.13
8188.991
8189.948
8190.996
8192.131
8193.344
8194.632
8195.986
8197.399
8198.864
8200.374
8201.921
8203.497
8205.095
8206.706
8208.323
8209.938
8211.546
8213.138
8214.71
8216.256
8217.775
8219.263
8220.724
8222.156
8223.568
8224.941
8226.256
8227.47
8228.622
8229.739
8230.807
8231.81
8232.746
8233.62
8234.434
8235.19
8235.891
8236.539
8237.136
8237.684
8238.186
8238.644
8239.061
8239.438
8239.778
8240.08
8240.347
8240.583
8240.788
8240.964
8241.113
8241.234
8241.321
8241.405
8241.464
8241.516
8241.581
8241.679
8241.853
8242.155
8242.671
8243.432
8244.475
8245.903
8247.516
8249.175
8250.898
8252.669
8254.472
8256.304
8258.166
8260.058
8261.982
8263.941
8265.937
8267.975
8270.057
8272.186
8274.365
8276.597
8278.886
8281.234
8283.643
8286.116
8288.655
8291.259
8293.932
8296.677
8299.495
8302.386
8305.351
8308.388
8311.497
8314.672
8317.914
8321.19
8324.447
8327.868
8331.279
8334.736
8338.381
8342.119
8345.927
8349.797
8353.723
8357.706
8361.747
8365.838
8369.977
8374.161
8378.386
8382.645
8386.935
8391.251
8395.588
8399.943
8404.31
8408.685
8413.065
8417.444
8421.82
8426.189
8430.546
8434.889
8439.214
8443.517
8447.796
8452.048
8456.27
8460.459
8464.613
8468.729
8472.804
8476.836
8480.822
8484.758
8488.64
8492.462
8496.217
8499.897
8503.491
8506.988
8510.381
8513.666
8516.854
8519.959
8522.992
8525.955
8528.848
8531.653
8534.355
8536.958
8539.485
8541.952
8544.36
8546.704
8548.98
8551.189
8553.336
8555.423
8557.448
8559.41
8561.306
8563.135
8564.896
8566.588
8568.211
8569.764
8571.248
8572.661
8574.005
8575.28
8576.486
8577.623
8578.693
8579.696
8580.632
8581.503
8582.309
8583.053
8583.734
8584.354
8584.914
8585.415
8585.858
8586.245
8586.576
8586.854
8587.078
8587.251
8587.373
8587.445
8587.469
8587.446
8587.377
8587.263
8587.105
8586.904
8586.661
8586.377
8586.053
8585.689
8585.286
8584.845
8584.366
8583.849
8583.295
8582.703
8582.074
8581.408
8580.703
8579.959
8579.175
8578.351
8577.483
8576.572
8575.613
8574.605
8573.544
8572.428
8571.252
8570.014
8568.711
8567.34
8565.904
8564.408
8562.869
8561.313
8559.788
8558.354
8557.103
8556.115
8555.522
8555.327
8555.711
5428.41
5273.205
5130.273
4988.512
4862.406
4722.555
4603.243
4487.805
4374.957
4266.129
4162.443
4063.881
3967.965
3877.085
3789.186
3693.808
3621.934
3558.825
3504.864
3461.071
3428.631
3407.921
3398.564
3401.036
3416.936
3447.902
3489.667
3552.387
3629.093
3717.766
3817.022
3929.839
4059.446
4208.364
4378.782
4572.507
4790.873
5034.097
5302.405
5595.108
5909.965
6242.525
6584.513
6925.322
7251.731
7549.842
7809.297
8022.391
8185.327
8297.846
8362.694
8385.384
8370.988
8328.572
8262.663
8173.622
8066.221
7948.604
7826.762
7703
7577.751
7450.949
7322.08
7190.725
7056.378
6918.475
6776.687
6631.586
6484.984
6339.184
6196.668
6061.125
5938.356
5835.694
5755.405
5698.126
5662.251
5645.381
5644.794
5657.637
5680.552
5710.242
5743.638
5777.649
5808.218
5835.69
5858.809
5876.592
5887.154
5890.922
5890.517
5884.051
5872.624
5857.137
5838.254
5816.556
5792.653
5767.292
5741.791
5718.083
5698.156
5683.386
5674.749
5673.459
5680.906
5698.477
5727.237
5767.443
5819.084
5882.117
5955.16
6036.232
6122.94
6212.976
6304.588
6396.375
6487.022
6574.87
6655.445
6720.166
6808.973
6914.427
7006.202
7088.802
7169.491
7248.361
7323.558
7393.203
7455.555
7508.998
7552.721
7587.466
7614.799
7635.892
7652.022
7665.365
7678.054
7691.144
7704.491
7716.929
7726.96
7734.886
7741.95
7747.934
7752.264
7757.602
7767.528
7781.802
7798.174
7815.639
7833.931
7851.6
7866.805
7879.179
7888.99
7896.584
7902.476
7907.029
7910.522
7913.242
7915.448
7917.392
7919.298
7921.315
7923.57
7926.165
7929.168
7932.622
7936.549
7940.945
7945.773
7950.993
7956.58
7962.531
7968.863
7975.61
7982.831
7990.543
7998.707
8007.258
8016.109
8025.176
8034.402
8043.727
8053.09
8062.434
8071.702
8080.843
8089.806
8098.55
8107.035
8115.228
8123.1
8130.626
8137.786
8144.569
8150.967
8156.981
8162.61
8167.848
8172.693
8177.156
8181.265
8185.015
8188.383
8191.377
8193.995
8196.238
8198.131
8199.698
8200.958
8201.928
8202.628
8203.075
8203.289
8203.288
8203.092
8202.72
8202.192
8201.529
8200.749
8199.872
8198.92
8197.91
8196.861
8195.788
8194.703
8193.626
8192.544
8191.478
8190.47
8189.512
8188.614
8187.785
8187.035
8186.371
8185.8
8185.328
8184.959
8184.697
8184.545
8184.505
8184.577
8184.764
8185.064
8185.476
8186
8186.632
8187.37
8188.21
8189.147
8190.177
8191.294
8192.491
8193.763
8195.103
8196.504
8197.959
8199.46
8200.999
8202.57
8204.163
8205.773
8207.391
8209.01
8210.622
8212.221
8213.802
8215.36
8216.892
8218.395
8219.868
8221.308
8222.714
8224.078
8225.395
8226.648
8227.834
8228.961
8230.031
8231.043
8231.993
8232.882
8233.713
8234.487
8235.205
8235.87
8236.484
8237.049
8237.568
8238.044
8238.478
8238.873
8239.231
8239.555
8239.846
8240.108
8240.34
8240.548
8240.732
8240.894
8241.039
8241.185
8241.328
8241.487
8241.662
8241.897
8242.212
8242.646
8243.251
8244.056
8245.075
8246.37
8247.84
8249.394
8251.023
8252.714
8254.453
8256.234
8258.056
8259.916
8261.815
8263.755
8265.737
8267.765
8269.839
8271.964
8274.141
8276.372
8278.661
8281.01
8283.42
8285.894
8288.434
8291.04
8293.715
8296.46
8299.278
8302.167
8305.13
8308.163
8311.267
8314.437
8317.67
8320.952
8324.286
8327.73
8331.24
8334.828
8338.417
8342.111
8345.877
8349.726
8353.644
8357.624
8361.663
8365.755
8369.898
8374.086
8378.315
8382.581
8386.878
8391.202
8395.549
8399.913
8404.291
8408.678
8413.069
8417.462
8421.851
8426.233
8430.604
8434.961
8439.299
8443.616
8447.908
8452.173
8456.407
8460.608
8464.771
8468.895
8472.977
8477.013
8481
8484.934
8488.81
8492.624
8496.37
8500.04
8503.627
8507.124
8510.526
8513.831
8517.043
8520.171
8523.22
8526.192
8529.084
8531.89
8534.614
8537.258
8539.821
8542.306
8544.717
8547.06
8549.337
8551.548
8553.695
8555.779
8557.799
8559.753
8561.64
8563.459
8565.209
8566.89
8568.502
8570.044
8571.516
8572.919
8574.252
8575.516
8576.712
8577.839
8578.899
8579.892
8580.819
8581.681
8582.479
8583.214
8583.887
8584.499
8585.051
8585.545
8585.981
8586.36
8586.685
8586.956
8587.173
8587.34
8587.455
8587.522
8587.54
8587.511
8587.436
8587.316
8587.153
8586.947
8586.699
8586.411
8586.083
8585.715
8585.309
8584.866
8584.385
8583.867
8583.314
8582.723
8582.097
8581.435
8580.736
8580.001
8579.229
8578.418
8577.569
8576.679
8575.748
8574.774
8573.756
8572.692
8571.58
8570.42
8569.212
8567.96
8566.668
8565.347
8564.016
8562.701
8561.442
8560.287
8559.302
8558.542
8558.088
8557.926
8558.219
6007.929
5980.384
5879.113
5727.064
5561.621
5403.188
5252.511
5112.068
4979.96
4850.205
4703.077
4583.69
4469.072
4357.742
4249.848
4145.877
4045.995
3949.824
3858.046
3771.926
3692.633
3619.366
3553.818
3496.604
3448.615
3411.195
3385.075
3370.799
3369.059
3380.504
3405.173
3443.389
3498.048
3567.791
3651.673
3748.494
3859.616
3987.66
4134.576
4300.97
4488.053
4697.215
4929.456
5185.669
5465.793
5768.298
6090.742
6423.959
6757.523
7077.614
7370.485
7625.118
7834.085
7994.063
8105.448
8171.644
8197.698
8189.704
8152.305
8089.881
8007.26
7910.125
7804.562
7694.557
7582.295
7468.158
7351.864
7232.103
7108.362
6979.892
6845.609
6704.68
6557.676
6406.744
6254.04
6102.033
5956.1
5824.647
5717.138
5637.92
5586.316
5558.968
5553.143
5565.205
5591.899
5629.052
5672.746
5719.428
5765.806
5807.57
5843.203
5872.369
5894.753
5908.684
5914.526
5914.111
5907.565
5895.117
5877.28
5854.86
5828.652
5799.141
5766.718
5732.866
5700.468
5672.43
5650.174
5634.293
5625.935
5626.692
5638.691
5663.959
5702.692
5755.094
5820.963
5898.885
5985.659
6077.704
6172.145
6267.076
6360.658
6450.582
6516.704
6484.085
6594.838
6768.212
6883.208
6968.437
7050.131
7130.809
7209.679
7285.231
7355.531
7418.868
7474.039
7520.442
7558.486
7589.219
7613.771
7633.625
7650.498
7665.513
7679.327
7692.705
7705.938
7718.347
7729.247
7738.652
7746.951
7754.975
7764.87
7777.877
7792.677
7808.725
7826.165
7843.812
7860.304
7875.009
7887.588
7897.535
7904.88
7910.207
7913.974
7916.605
7918.515
7920.021
7921.376
7922.76
7924.309
7926.131
7928.349
7931.043
7934.231
7937.912
7942.078
7946.707
7951.777
7957.268
7963.176
7969.513
7976.294
7983.536
7991.234
7999.352
8007.836
8016.62
8025.641
8034.836
8044.144
8053.501
8062.847
8072.126
8081.28
8090.259
8099.016
8107.511
8115.709
8123.581
8131.099
8138.246
8145.007
8151.378
8157.36
8162.955
8168.159
8172.966
8177.385
8181.426
8185.098
8188.429
8191.438
8194.079
8196.32
8198.204
8199.761
8201.012
8201.974
8202.667
8203.107
8203.314
8203.306
8203.101
8202.719
8202.181
8201.504
8200.71
8199.818
8198.847
8197.816
8196.743
8195.643
8194.531
8193.413
8192.312
8191.24
8190.201
8189.216
8188.292
8187.439
8186.664
8185.975
8185.38
8184.883
8184.49
8184.204
8184.028
8183.964
8184.014
8184.178
8184.457
8184.848
8185.351
8185.963
8186.681
8187.504
8188.425
8189.439
8190.541
8191.724
8192.983
8194.312
8195.703
8197.149
8198.642
8200.175
8201.741
8203.332
8204.94
8206.558
8208.18
8209.797
8211.402
8212.991
8214.559
8216.101
8217.614
8219.097
8220.544
8221.954
8223.321
8224.641
8225.901
8227.097
8228.233
8229.313
8230.335
8231.298
8232.203
8233.05
8233.839
8234.572
8235.251
8235.88
8236.46
8236.994
8237.485
8237.935
8238.347
8238.724
8239.067
8239.379
8239.663
8239.923
8240.16
8240.38
8240.587
8240.787
8240.989
8241.199
8241.434
8241.711
8242.036
8242.448
8242.971
8243.638
8244.474
8245.491
8246.696
8248.053
8249.515
8251.062
8252.68
8254.357
8256.086
8257.864
8259.688
8261.559
8263.477
8265.441
8267.455
8269.52
8271.637
8273.81
8276.039
8278.327
8280.675
8283.087
8285.563
8288.105
8290.714
8293.392
8296.141
8298.961
8301.853
8304.817
8307.852
8310.957
8314.13
8317.369
8320.67
8324.04
8327.489
8331.001
8334.575
8338.208
8341.912
8345.71
8349.575
8353.503
8357.491
8361.539
8365.642
8369.794
8373.993
8378.233
8382.51
8386.818
8391.155
8395.514
8399.892
8404.284
8408.686
8413.093
8417.501
8421.906
8426.305
8430.692
8435.066
8439.421
8443.755
8448.063
8452.344
8456.592
8460.806
8464.982
8469.117
8473.208
8477.251
8481.243
8485.18
8489.057
8492.87
8496.614
8500.282
8503.87
8507.371
8510.783
8514.104
8517.336
8520.482
8523.547
8526.53
8529.433
8532.254
8534.995
8537.654
8540.229
8542.725
8545.146
8547.497
8549.781
8551.998
8554.147
8556.229
8558.243
8560.19
8562.069
8563.878
8565.618
8567.289
8568.889
8570.42
8571.88
8573.271
8574.592
8575.845
8577.029
8578.144
8579.193
8580.174
8581.09
8581.941
8582.729
8583.453
8584.116
8584.718
8585.26
8585.744
8586.171
8586.541
8586.857
8587.119
8587.329
8587.487
8587.594
8587.652
8587.662
8587.626
8587.543
8587.417
8587.247
8587.034
8586.78
8586.486
8586.153
8585.781
8585.371
8584.924
8584.441
8583.922
8583.368
8582.779
8582.156
8581.498
8580.806
8580.08
8579.319
8578.524
8577.694
8576.828
8575.926
8574.988
8574.014
8573.002
8571.955
8570.873
8569.76
8568.62
8567.461
8566.298
8565.146
8564.032
8562.989
8562.055
8561.279
8560.697
8560.369
8560.266
8560.569
5993.91
5922.117
5748.809
5607.879
5464.768
5326.02
5192.098
5062.95
4937.788
4816.546
4700.503
4584.829
4471.307
4360.212
4252.303
4147.755
4046.691
3949.046
3855.255
3766.004
3683.376
3607.016
3537.742
3477.071
3425.845
3384.9
3355.185
3337.926
3333.726
3342.68
3364.909
3400.784
3451.072
3515.69
3595.152
3689.687
3799.494
3925.17
4067.988
4228.668
4408.326
4608.071
4829.211
5073.216
5340.407
5629.971
5939.281
6260.531
6582.598
6891.578
7173.976
7418.99
7619.937
7774.293
7883.325
7950.703
7980.826
7977.5
7944.885
7889.214
7817.271
7733.43
7641.56
7545.195
7446.868
7346.356
7242.53
7133.635
7019.423
6897.619
6766.637
6625.098
6474.325
6317.143
6154.534
5987.843
5825.707
5682.258
5569.569
5490.963
5446.227
5431.135
5440.692
5469.152
5512.634
5567.364
5628.843
5692.562
5754.558
5810.837
5856.641
5893.267
5920.254
5936.73
5943.958
5943.736
5936.559
5922.505
5901.714
5875.189