/*--------------------------------*- C++ -*----------------------------------*\
| =========                 |                                                 |
| \\      /  F ield         | foam-extend: Open Source CFD                    |
|  \\    /   O peration     | Version:     3.1                                |
|   \\  /    A nd           | Web:         http://www.extend-project.de       |
|    \\/     M anipulation  |                                                 |
\*---------------------------------------------------------------------------*/
FoamFile
{
    version     2.0;
    format      ascii;
    class       volScalarField;
    location    "1.5";
    object      k;
}
// * * * * * * * * * * * * * * * * * * * * * * * * * * * * * * * * * * * * * //

dimensions      [0 2 -2 0 0 0 0];

internalField   nonuniform List<scalar> 
119952
(
0.0133554
0.01122633
0.01087423
0.01122431
0.01146469
0.01134135
0.01141227
0.01154028
0.01166546
0.01176706
0.01184055
0.01188763
0.01191233
0.01191909
0.011912
0.01189471
0.01187081
0.01184501
0.01182931
0.0118791
0.01306997
0.01275113
0.012766
0.01404866
0.013649
0.01343656
0.01323588
0.01304556
0.01254026
0.01664423
0.01549419
0.0142237
0.01373181
0.01373267
0.01402867
0.01447864
0.01499485
0.01552202
0.01603639
0.01658756
0.01690539
0.01825994
0.01992972
0.02166746
0.02334023
0.0248967
0.02632233
0.02762169
0.02880358
0.03426089
0.03504813
0.03585386
0.03671759
0.0376427
0.0386118
0.03960132
0.04058824
0.04155476
0.0424912
0.04332642
0.04408598
0.04482418
0.04557048
0.04633656
0.0471232
0.0479246
0.04874149
0.04963891
0.05038411
0.05058311
0.05084336
0.05116351
0.0514389
0.05160787
0.05172537
0.05183744
0.05195169
0.05206762
0.05218206
0.05229188
0.05239484
0.05248978
0.05257657
0.0526561
0.05273098
0.05280669
0.05289561
0.05302476
0.05322301
0.05343002
0.05368644
0.05409738
0.05446419
0.05462611
0.0546528
0.0545213
0.05404374
0.05318185
0.0527787
0.05248823
0.0522281
0.05198458
0.05176179
0.05156257
0.05138747
0.05123517
0.05110293
0.05098757
0.05088598
0.05079529
0.0507129
0.05063659
0.05056458
0.05049541
0.05042788
0.05036096
0.0502938
0.05022563
0.05015576
0.05008356
0.05000845
0.04992994
0.04984761
0.04976117
0.04967052
0.04957583
0.04947743
0.04937567
0.04927117
0.04916459
0.04905662
0.04894795
0.04883924
0.0487311
0.04862398
0.04851821
0.04841387
0.04831091
0.04820916
0.04810834
0.04800811
0.04790814
0.04780809
0.04770775
0.04760725
0.04750806
0.04742075
0.04736987
0.04728299
0.04712761
0.04691777
0.04667402
0.04641334
0.04614735
0.04588345
0.045626
0.04537728
0.04513826
0.04490907
0.04468941
0.04447869
0.04427623
0.04408134
0.04389337
0.04371174
0.0435359
0.04336536
0.04319973
0.04303898
0.04288288
0.04273042
0.04258095
0.04243439
0.04229065
0.0421495
0.04201069
0.04187392
0.04173893
0.04160548
0.04147335
0.04134234
0.04121227
0.04108297
0.04095429
0.04082609
0.04069824
0.04057061
0.04044311
0.04031563
0.04018808
0.0400604
0.0399326
0.03980463
0.03967659
0.03954863
0.03942191
0.03931424
0.03746547
0.03486756
0.03375729
0.03303542
0.03244107
0.03191396
0.03143883
0.03100923
0.03061984
0.03026537
0.02994087
0.02964177
0.02936422
0.02910477
0.02886121
0.02863205
0.02841438
0.02820588
0.02800596
0.02781369
0.02762817
0.02744862
0.02727434
0.02710467
0.02693921
0.02677752
0.02661929
0.02646434
0.02631257
0.02616407
0.02601915
0.02587851
0.02574407
0.02561793
0.02551264
0.02549955
0.02583054
0.02621177
0.02657652
0.0269117
0.02721533
0.02749106
0.02774211
0.02797301
0.02818749
0.02838853
0.02857858
0.02875949
0.02893279
0.02909964
0.02926096
0.02941745
0.02956968
0.02971809
0.02986304
0.03000486
0.0301438
0.0302801
0.03041401
0.03054575
0.03067561
0.03080379
0.03093056
0.03105612
0.03118071
0.03130454
0.03142776
0.03155058
0.03167338
0.0317952
0.03659109
0.03661139
0.03662273
0.03668965
0.03684285
0.03708435
0.03739833
0.03776167
0.03815128
0.03854874
0.03894044
0.03931766
0.03967559
0.04001224
0.0403274
0.04062193
0.04089724
0.04115501
0.04139691
0.0416246
0.04183956
0.04204312
0.04223645
0.04242054
0.04259625
0.04276431
0.04292538
0.04308004
0.04322886
0.04337234
0.04351096
0.04364517
0.04377543
0.04390214
0.04402568
0.04414643
0.04426467
0.04438069
0.04449469
0.04460679
0.04471705
0.04482534
0.04493129
0.0450341
0.04513174
0.04521954
0.0452898
0.04535347
0.04541439
0.04547437
0.04553445
0.04559501
0.04565604
0.04572897
0.04575072
0.04570324
0.04565621
0.04563636
0.04566157
0.04573993
0.04586965
0.04604212
0.04624572
0.04646817
0.0466988
0.04692936
0.04715412
0.04736951
0.04757361
0.04776569
0.04794577
0.04811435
0.0482722
0.04842019
0.04855921
0.04869013
0.04881378
0.04893091
0.04904221
0.04914829
0.0492497
0.04934696
0.0494405
0.04953073
0.04961802
0.04970269
0.04978503
0.0498653
0.04994374
0.05002057
0.05009597
0.05017012
0.05024317
0.05031526
0.05038652
0.05045708
0.05052704
0.05059652
0.05066562
0.05073444
0.0508031
0.0508717
0.05094033
0.0510091
0.05107808
0.05114735
0.05121696
0.05128697
0.05135739
0.05142823
0.05149947
0.05157109
0.05164302
0.05171517
0.05178747
0.05185978
0.05193199
0.05200399
0.05207566
0.05214691
0.05221771
0.05228804
0.05235793
0.05242751
0.05249696
0.05256653
0.0526366
0.05270768
0.05278047
0.05285592
0.05293542
0.05302103
0.05311586
0.05322539
0.05335961
0.05353918
0.05381242
0.05433402
0.05498268
0.0177893
0.01680053
0.01638472
0.01632997
0.01649174
0.01676932
0.017107
0.01746356
0.0178307
0.01765042
0.01804532
0.01909839
0.02042178
0.02181609
0.0231945
0.02450877
0.02574213
0.02689052
0.03210743
0.03280811
0.03350416
0.03422082
0.03498644
0.03580544
0.03666826
0.03755998
0.03846464
0.03936876
0.04026176
0.04107143
0.04183212
0.04257808
0.04332725
0.04409056
0.04487081
0.04566527
0.0464711
0.04723442
0.047887
0.04852114
0.04915493
0.04979843
0.05045824
0.0511377
0.05183555
0.05254794
0.05326979
0.05398126
0.05467383
0.05534473
0.05599657
0.05663573
0.05726893
0.05790176
0.05853772
0.05917304
0.0647468
0.06536493
0.06595623
0.06652321
0.06707156
0.06760783
0.06813753
0.06866453
0.0691904
0.069714
0.07023312
0.07074496
0.07124737
0.07174005
0.07222434
0.07270271
0.07317831
0.07365501
0.07412781
0.07453357
0.07487686
0.07519843
0.07548326
0.07571224
0.07589183
0.07603062
0.07614249
0.07623747
0.07632238
0.07640154
0.07647767
0.07655251
0.07662724
0.07670282
0.07678059
0.0768628
0.07695322
0.07705747
0.07717906
0.07731092
0.07745697
0.0776254
0.07780509
0.07794928
0.07804041
0.07805847
0.07798968
0.07783983
0.07770593
0.0776172
0.07755052
0.07749268
0.07743549
0.07737586
0.07731352
0.07724948
0.07718512
0.07712169
0.07706013
0.07700102
0.07694462
0.07689089
0.07683962
0.07679044
0.07674293
0.07669656
0.07665076
0.07660493
0.0765584
0.07651054
0.07646068
0.07640822
0.07635258
0.07629333
0.07623016
0.07616293
0.07609169
0.07601665
0.07593819
0.07585685
0.07577328
0.07568819
0.0756023
0.07551629
0.07543076
0.07534619
0.07526294
0.07518119
0.07510097
0.07502218
0.07494462
0.07486803
0.07479211
0.07471661
0.07464142
0.07456669
0.07449314
0.07442154
0.07435392
0.07429172
0.0742311
0.0741677
0.07409828
0.07402115
0.07393587
0.07384282
0.07374291
0.07363721
0.07352683
0.07341282
0.07329611
0.07317754
0.07305782
0.07293755
0.07281728
0.07269747
0.07257851
0.07246074
0.07234446
0.07222991
0.07211727
0.0720065
0.07189765
0.07179076
0.0716858
0.07158272
0.07148149
0.07138199
0.07128412
0.07118773
0.07109278
0.07099911
0.07090659
0.0708151
0.07072452
0.07063475
0.07054568
0.07045721
0.07036926
0.07028175
0.0701946
0.07010777
0.07002125
0.06993505
0.06984933
0.0697645
0.06968122
0.06960273
0.06678787
0.06517803
0.0646025
0.06433399
0.06415335
0.06399342
0.06383404
0.06367015
0.06350169
0.06333017
0.06315741
0.06298516
0.06281488
0.06264776
0.06248476
0.0623266
0.06217364
0.06202603
0.06188388
0.06174718
0.06161581
0.0614896
0.06136827
0.06125176
0.06113973
0.06103202
0.06092843
0.06082888
0.0607334
0.06064222
0.06055587
0.06047547
0.06040324
0.06034385
0.06030844
0.06031752
0.06036713
0.06044237
0.06053274
0.06063289
0.06073944
0.06085001
0.06096269
0.06107595
0.06118857
0.06129962
0.06140842
0.06151447
0.06161749
0.06171729
0.06181381
0.06190704
0.06199705
0.06208393
0.06216779
0.0622488
0.06232712
0.06240294
0.0624765
0.06254804
0.06261785
0.06268623
0.06275349
0.06281994
0.06288587
0.06295152
0.06301707
0.06308263
0.06314804
0.06320696
0.06803058
0.06819021
0.06830965
0.06839878
0.06846801
0.0685267
0.06858244
0.06864096
0.06870608
0.06877996
0.06886344
0.06895638
0.06905799
0.06916706
0.06928223
0.06940212
0.06952542
0.06965095
0.06977766
0.06990468
0.07003125
0.07015673
0.07028059
0.0704024
0.0705218
0.07063851
0.07075235
0.07086318
0.07097097
0.07107573
0.07117754
0.07127651
0.07137283
0.07146669
0.07155831
0.07164789
0.07173565
0.07182177
0.07190641
0.07198965
0.07207152
0.07215193
0.07223067
0.07230731
0.07238106
0.07245056
0.07251581
0.07257828
0.07263891
0.07269828
0.07275679
0.07281461
0.07287227
0.07292931
0.0729812
0.07302759
0.07306928
0.07310688
0.07314185
0.07317637
0.07321289
0.0732537
0.07330056
0.07335447
0.07341575
0.07348407
0.07355867
0.07363853
0.07372249
0.0738094
0.07389819
0.07398789
0.07407772
0.07416703
0.0742553
0.07434217
0.07442738
0.07451075
0.07459222
0.07467174
0.07474934
0.07482508
0.07489905
0.07497135
0.07504209
0.0751114
0.07517939
0.07524618
0.0753119
0.07537665
0.07544056
0.07550373
0.07556626
0.07562825
0.07568981
0.07575103
0.07581202
0.07587286
0.07593366
0.07599453
0.07605557
0.07611687
0.07617855
0.07624067
0.07630333
0.07636659
0.0764305
0.07649509
0.07656035
0.07662627
0.0766928
0.07675987
0.07682738
0.07689522
0.07696324
0.07703129
0.07709922
0.07716688
0.07723413
0.07730087
0.07736702
0.07743257
0.07749756
0.07756209
0.07762636
0.07769068
0.07775544
0.07782121
0.07788876
0.07795912
0.07803368
0.07811443
0.07820419
0.0783071
0.07842932
0.07858036
0.07877535
0.07902382
0.07925169
0.02743455
0.02411297
0.02735671
0.02981285
0.03126777
0.03212158
0.03261489
0.03286773
0.03295686
0.03319939
0.03577376
0.03903336
0.04158378
0.04341923
0.04468478
0.04555475
0.04617189
0.04664023
0.04701088
0.0534405
0.05336276
0.05336511
0.05348361
0.05369936
0.05396705
0.05424148
0.05448731
0.05467932
0.05479638
0.05478729
0.05466383
0.05447345
0.05425173
0.05401969
0.05379039
0.05357261
0.05337324
0.05321494
0.05293046
0.05266914
0.05245583
0.05230265
0.05221726
0.05220507
0.05226688
0.05240003
0.05259987
0.05286046
0.05316104
0.05349788
0.05386366
0.05425552
0.05467362
0.05511844
0.05558973
0.05608298
0.06143364
0.06195138
0.06247246
0.06299121
0.06350581
0.06401786
0.06453009
0.06504506
0.06556464
0.06608917
0.06661768
0.06715023
0.06768442
0.06821844
0.06875142
0.0692834
0.06981509
0.07034763
0.07088166
0.07141612
0.07195261
0.0724895
0.0730232
0.07355195
0.07407549
0.07459461
0.07511061
0.07562473
0.07613785
0.07664979
0.07715967
0.07766611
0.07816721
0.07866061
0.07914352
0.07961191
0.08007164
0.08054434
0.08092339
0.08132395
0.08173793
0.08215858
0.08258127
0.08300358
0.08342456
0.08384399
0.08426175
0.08467759
0.08509091
0.08550093
0.08590681
0.08630756
0.08670248
0.08709127
0.08747368
0.08784822
0.08820718
0.08852954
0.08881991
0.08908996
0.0893363
0.08955367
0.08973868
0.08989096
0.09001953
0.09013099
0.09023022
0.09032086
0.09040569
0.09048691
0.09056627
0.09064542
0.09072618
0.09081079
0.09090205
0.09100297
0.09111502
0.09123257
0.09135193
0.09147863
0.09160578
0.09171804
0.0917873
0.09180821
0.09177852
0.09170851
0.09164357
0.09160397
0.09158205
0.09156954
0.09156074
0.09155195
0.09154121
0.09152775
0.09151154
0.09149287
0.09147219
0.09144991
0.09142633
0.09140165
0.09137593
0.09134912
0.09132116
0.09129197
0.09126138
0.09122917
0.09119502
0.0911586
0.09111949
0.09107724
0.09103128
0.09098127
0.09092698
0.09086832
0.09080538
0.09073837
0.09066768
0.09059383
0.09051745
0.09043925
0.09035993
0.0902802
0.09020067
0.09012185
0.09004414
0.08996779
0.08989287
0.08981937
0.08974714
0.08967596
0.08960559
0.08953579
0.08946642
0.08939746
0.08932903
0.0892611
0.08919382
0.08912812
0.0890641
0.08900108
0.08893804
0.08887409
0.08880839
0.08874037
0.08866976
0.08859648
0.08852039
0.08844158
0.08836022
0.08827657
0.08819091
0.08810354
0.08801478
0.08792506
0.08783465
0.08774386
0.087653
0.08756238
0.08747225
0.08738272
0.08729394
0.08720604
0.08711908
0.0870331
0.08694821
0.08686435
0.08678146
0.08669954
0.08661858
0.08653845
0.08645907
0.08638038
0.08630229
0.08622474
0.08614765
0.08607097
0.08599462
0.08591855
0.08584271
0.08576708
0.08569165
0.08561641
0.08554148
0.08546663
0.08539015
0.08529921
0.08511296
0.08506404
0.08503954
0.08501134
0.08497402
0.08492741
0.08487222
0.0848094
0.08473968
0.08466393
0.08458302
0.08449787
0.08440941
0.08431855
0.08422617
0.08413305
0.08403987
0.08394722
0.08385558
0.08376536
0.08367684
0.08359034
0.08350602
0.08342402
0.08334444
0.08326736
0.08319291
0.08312127
0.08305273
0.0829877
0.08292693
0.08287193
0.08282502
0.08279114
0.08277517
0.08277319
0.08278517
0.08280805
0.08283887
0.08287552
0.08291646
0.08296064
0.08300727
0.08305573
0.08310553
0.08315633
0.0832077
0.08325931
0.0833109
0.08336221
0.08341305
0.08346325
0.08351269
0.08356127
0.08360894
0.08365568
0.08370153
0.08374655
0.08379083
0.08383453
0.08387781
0.08392089
0.08396398
0.08400729
0.08405104
0.08409538
0.08414045
0.08418673
0.08423647
0.08430481
0.0842804
0.08428395
0.08430358
0.08433214
0.08436519
0.08440037
0.08443685
0.08447476
0.08451473
0.08455751
0.0846038
0.08465412
0.08470881
0.08476796
0.08483148
0.08489914
0.08497059
0.08504542
0.08512314
0.08520325
0.08528527
0.08536868
0.08545301
0.08553779
0.0856226
0.08570707
0.08579088
0.08587376
0.08595551
0.08603601
0.08611516
0.08619296
0.08626943
0.08634465
0.0864187
0.08649171
0.08656378
0.08663503
0.08670554
0.08677535
0.08684447
0.08691283
0.08698028
0.08704655
0.08711126
0.08717392
0.08723454
0.08729363
0.08735168
0.08740904
0.08746593
0.08752249
0.08757878
0.0876345
0.08768861
0.08774108
0.087792
0.08784118
0.08788855
0.08793431
0.08797888
0.08802289
0.08806705
0.08811204
0.08815844
0.08820665
0.08825689
0.08830924
0.08836359
0.08841976
0.08847746
0.08853641
0.08859629
0.08865679
0.08871765
0.08877864
0.08883956
0.08890026
0.08896063
0.08902059
0.08908008
0.0891391
0.08919763
0.08925569
0.08931331
0.08937051
0.08942733
0.08948383
0.08954004
0.08959601
0.08965181
0.08970747
0.08976305
0.08981862
0.08987422
0.08992994
0.08998583
0.09004196
0.09009843
0.0901553
0.09021267
0.09027062
0.09032922
0.09038856
0.09044869
0.09050967
0.09057154
0.09063431
0.09069796
0.09076246
0.09082775
0.09089374
0.09096032
0.09102736
0.09109469
0.09116215
0.09122957
0.0912968
0.09136368
0.09143009
0.09149596
0.09156126
0.09162601
0.09169033
0.09175441
0.09181853
0.09188313
0.09194874
0.09201612
0.09208624
0.0921604
0.0922403
0.09232823
0.09242718
0.09254103
0.09267464
0.09283241
0.09300933
0.09316308
0.04050406
0.05278669
0.06889346
0.1138744
0.1260429
0.1539451
0.1563845
0.1568267
0.1565935
0.1558585
0.1538815
0.1508674
0.1465325
0.141882
0.137554
0.1333928
0.1293294
0.1253292
0.1213944
0.1175451
0.113807
0.1102138
0.1067655
0.1034799
0.100411
0.09760252
0.09508007
0.09284926
0.09090092
0.08921592
0.08775385
0.09137368
0.09035475
0.08942184
0.08857408
0.08780364
0.08709866
0.08644448
0.0858255
0.08522616
0.08463194
0.0840308
0.08341528
0.08278108
0.08212923
0.08146485
0.08079595
0.08013253
0.07948574
0.07886606
0.0782831
0.07774752
0.07726585
0.07684229
0.07648059
0.07618359
0.07595292
0.07578874
0.07569004
0.07565473
0.0756796
0.07576055
0.0758929
0.07607175
0.0762923
0.07655036
0.07684334
0.07718223
0.07746287
0.07778327
0.07813541
0.07851056
0.07889926
0.07929666
0.07970382
0.08012016
0.08054459
0.08097579
0.08141261
0.08185387
0.08229865
0.08274607
0.08319538
0.08364589
0.08409724
0.08454934
0.08500209
0.08545534
0.08591011
0.08636669
0.08682448
0.08728243
0.08773965
0.08819559
0.08865007
0.08910318
0.0895552
0.09000637
0.09045708
0.09090746
0.09135733
0.09180635
0.09225423
0.09270118
0.0931475
0.09359324
0.09402799
0.09445678
0.09488263
0.09530613
0.09572684
0.0961443
0.09655821
0.0969684
0.09737472
0.09777699
0.09817506
0.09856874
0.09895765
0.0993411
0.0997182
0.1000879
0.1004488
0.1007982
0.1011307
0.1014374
0.1017197
0.1019853
0.1022338
0.102458
0.1026532
0.1028243
0.1029763
0.1031133
0.1032383
0.1033542
0.103463
0.1035666
0.1036668
0.103765
0.103863
0.1039627
0.1040662
0.1041752
0.1042903
0.104409
0.1045283
0.1046456
0.1047577
0.1048526
0.1049195
0.1049529
0.1049526
0.1049267
0.1048979
0.1048797
0.104873
0.1048748
0.1048817
0.1048913
0.1049016
0.1049112
0.1049193
0.1049255
0.1049294
0.1049308
0.1049296
0.1049259
0.1049199
0.1049109
0.1048988
0.1048835
0.104865
0.1048432
0.1048179
0.104789
0.104756
0.1047188
0.1046773
0.1046311
0.1045803
0.1045246
0.1044643
0.1043996
0.1043309
0.1042586
0.1041833
0.1041059
0.1040269
0.103947
0.1038669
0.1037872
0.1037082
0.1036302
0.1035534
0.1034778
0.1034034
0.10333
0.1032572
0.103185
0.1031131
0.1030413
0.1029696
0.1028979
0.1028263
0.1027552
0.1026847
0.1026151
0.1025463
0.1024781
0.1024101
0.102342
0.1022734
0.102204
0.1021334
0.1020616
0.1019883
0.1019135
0.1018371
0.1017592
0.10168
0.1015996
0.1015182
0.1014359
0.1013531
0.1012699
0.1011866
0.1011033
0.1010203
0.1009375
0.1008553
0.1007735
0.1006923
0.1006118
0.1005319
0.1004527
0.1003741
0.1002962
0.1002188
0.1001419
0.1000654
0.09998916
0.09991318
0.09983739
0.09976175
0.09968622
0.09961075
0.09953532
0.09945993
0.09938456
0.09930921
0.0992338
0.09915749
0.09907684
0.0989835
0.09889955
0.09882487
0.09875603
0.09869011
0.09862506
0.0985596
0.0984929
0.09842436
0.09835373
0.09828095
0.09820614
0.09812954
0.09805144
0.09797235
0.09789265
0.09781271
0.09773294
0.09765368
0.09757521
0.09749788
0.09742193
0.09734749
0.09727478
0.09720403
0.09713538
0.09706906
0.09700536
0.0969447
0.09688762
0.09683518
0.09678984
0.09675367
0.09672678
0.09670807
0.09669885
0.09669908
0.09670741
0.0967223
0.09674227
0.09676617
0.09679311
0.09682241
0.09685351
0.09688606
0.09691978
0.09695432
0.09698942
0.09702497
0.09706075
0.09709663
0.09713247
0.09716817
0.09720366
0.09723889
0.09727385
0.09730856
0.09734306
0.09737747
0.09741188
0.09744646
0.09748137
0.09751692
0.09755323
0.09759046
0.09762875
0.09766828
0.09770928
0.09775212
0.09779711
0.09783467
0.09787034
0.09790669
0.09794446
0.09798351
0.09802344
0.09806397
0.09810501
0.09814665
0.09818914
0.0982328
0.09827798
0.09832499
0.09837413
0.09842559
0.09847949
0.09853587
0.09859469
0.09865583
0.09871911
0.0987843
0.09885113
0.09891929
0.09898847
0.09905835
0.09912863
0.09919901
0.09926926
0.09933917
0.0994086
0.09947744
0.09954565
0.09961321
0.09968016
0.09974656
0.09981249
0.09987803
0.09994325
0.1000082
0.100073
0.1001375
0.1002017
0.1002656
0.1003289
0.1003914
0.1004529
0.1005134
0.1005732
0.1006326
0.1006917
0.1007508
0.1008098
0.1008687
0.1009276
0.1009859
0.1010437
0.101101
0.1011577
0.1012137
0.1012687
0.1013226
0.1013754
0.1014272
0.1014781
0.1015283
0.1015781
0.1016275
0.101677
0.1017264
0.1017761
0.1018259
0.101876
0.1019262
0.1019767
0.1020273
0.1020781
0.1021289
0.1021799
0.1022309
0.102282
0.1023332
0.1023844
0.1024358
0.1024873
0.1025389
0.1025906
0.1026426
0.1026947
0.1027471
0.1027997
0.1028526
0.1029058
0.1029594
0.1030133
0.1030676
0.1031224
0.1031777
0.1032336
0.1032901
0.1033473
0.1034052
0.1034641
0.1035239
0.1035846
0.1036464
0.1037093
0.1037734
0.1038385
0.1039048
0.1039721
0.1040404
0.1041096
0.1041795
0.10425
0.104321
0.1043922
0.1044635
0.1045346
0.1046055
0.104676
0.104746
0.1048155
0.1048844
0.104953
0.1050214
0.10509
0.1051591
0.1052293
0.1053014
0.1053763
0.1054554
0.10554
0.1056322
0.1057342
0.1058488
0.1059785
0.1061246
0.1062812
0.1064172
0.02755106
0.03366195
0.03988017
0.0607935
0.08147108
0.1158757
0.1345332
0.1512969
0.1665814
0.1792518
0.1889951
0.1965176
0.2020369
0.2055946
0.2069468
0.2068996
0.2109336
0.2078694
0.204828
0.2017865
0.1985956
0.1950639
0.1911161
0.1865998
0.1817195
0.1765539
0.1712248
0.1658467
0.1605011
0.1552516
0.1501469
0.1452252
0.1405166
0.1360426
0.1318254
0.1278874
0.1242486
0.1209231
0.1179173
0.1152298
0.1128543
0.1107828
0.1088343
0.1071781
0.105759
0.1045282
0.1034546
0.1025097
0.1016647
0.1008928
0.1001702
0.09947642
0.09879493
0.0981139
0.09742572
0.09672721
0.09601914
0.09530563
0.09459342
0.09389113
0.09320818
0.09255459
0.09194064
0.09137511
0.09086475
0.0904146
0.09002817
0.08970744
0.08945293
0.08926394
0.08913866
0.0890744
0.08906793
0.08911544
0.08921275
0.0893555
0.08953949
0.08976086
0.09001647
0.09029433
0.09059513
0.09091898
0.09126471
0.09163019
0.09201305
0.09241039
0.09281959
0.09323828
0.09366431
0.09409586
0.09453152
0.09497024
0.09541117
0.09585359
0.09629699
0.09674106
0.0971857
0.09763081
0.09807607
0.09852171
0.09896815
0.09941544
0.09986328
0.1003113
0.1007592
0.1012067
0.1016538
0.1021007
0.1025483
0.1029975
0.1034478
0.1038998
0.1043545
0.1048141
0.1052828
0.105758
0.1062339
0.1067062
0.1071739
0.1076372
0.1080961
0.1085504
0.1089999
0.1094445
0.109884
0.1103184
0.1107474
0.111171
0.1115888
0.1120007
0.1124061
0.1128042
0.1131941
0.1135741
0.1139422
0.1142953
0.1146291
0.1149427
0.1152346
0.115504
0.1157498
0.1159724
0.1161746
0.1163599
0.116531
0.1166905
0.1168404
0.1169825
0.1171183
0.1172492
0.1173766
0.1175019
0.1176267
0.1177524
0.11788
0.1180097
0.1181398
0.1182677
0.1183906
0.1185038
0.1186003
0.1186744
0.1187226
0.1187451
0.1187477
0.1187431
0.1187412
0.1187453
0.1187551
0.1187695
0.1187871
0.1188067
0.1188271
0.1188475
0.1188669
0.1188848
0.1189006
0.1189127
0.1189202
0.118923
0.1189215
0.1189162
0.1189071
0.1188941
0.1188772
0.1188562
0.1188308
0.1188009
0.1187662
0.1187263
0.1186812
0.1186306
0.1185746
0.1185132
0.1184468
0.1183758
0.1183006
0.1182219
0.1181405
0.118057
0.1179722
0.1178869
0.1178014
0.1177165
0.1176323
0.1175492
0.1174671
0.1173861
0.1173059
0.1172265
0.1171475
0.1170687
0.1169899
0.1169109
0.1168318
0.1167523
0.1166728
0.1165932
0.1165139
0.1164349
0.1163565
0.1162786
0.116201
0.1161237
0.1160467
0.1159696
0.1158922
0.1158144
0.1157359
0.1156566
0.1155765
0.1154955
0.1154137
0.1153311
0.1152479
0.1151641
0.11508
0.1149957
0.1149114
0.1148271
0.1147429
0.114659
0.1145753
0.114492
0.1144091
0.1143265
0.1142442
0.1141623
0.1140805
0.113999
0.1139177
0.1138366
0.1137556
0.1136748
0.1135941
0.1135134
0.1134326
0.1133518
0.1132709
0.1131899
0.1131088
0.1130276
0.1129462
0.1128643
0.1127809
0.1126944
0.1126074
0.1125217
0.1124377
0.1123551
0.1122737
0.112193
0.1121126
0.112032
0.1119512
0.11187
0.1117883
0.1117063
0.1116241
0.1115419
0.1114601
0.1113789
0.1112984
0.1112191
0.1111409
0.1110643
0.1109892
0.110916
0.1108448
0.1107756
0.110709
0.1106451
0.1105842
0.110527
0.1104739
0.1104258
0.1103827
0.1103453
0.1103147
0.1102917
0.1102768
0.1102698
0.11027
0.1102762
0.1102874
0.1103026
0.110321
0.1103419
0.1103648
0.1103892
0.1104149
0.1104415
0.1104688
0.1104966
0.1105248
0.1105533
0.110582
0.1106108
0.1106397
0.1106685
0.1106973
0.1107263
0.1107553
0.1107846
0.1108142
0.1108443
0.1108753
0.1109073
0.1109404
0.1109748
0.1110107
0.1110483
0.1110876
0.1111288
0.1111716
0.1112145
0.1112575
0.1113012
0.1113458
0.1113914
0.1114379
0.1114852
0.1115332
0.111582
0.1116314
0.1116816
0.1117327
0.1117847
0.111838
0.1118926
0.1119486
0.112006
0.1120651
0.1121256
0.1121875
0.1122509
0.1123154
0.1123809
0.1124472
0.112514
0.1125812
0.1126485
0.1127158
0.1127829
0.1128496
0.1129159
0.1129819
0.1130474
0.1131125
0.1131773
0.1132419
0.1133065
0.1133709
0.1134354
0.1135
0.1135647
0.1136294
0.1136942
0.1137588
0.1138231
0.1138871
0.1139508
0.1140143
0.1140777
0.1141412
0.114205
0.114269
0.1143332
0.1143976
0.114462
0.1145265
0.1145909
0.1146553
0.1147196
0.1147835
0.1148468
0.1149094
0.1149712
0.1150319
0.1150915
0.11515
0.1152074
0.1152639
0.1153193
0.1153738
0.1154275
0.1154805
0.1155329
0.1155846
0.1156359
0.1156868
0.1157374
0.1157877
0.115838
0.1158882
0.1159384
0.1159887
0.1160393
0.1160901
0.1161412
0.1161926
0.1162445
0.1162968
0.1163496
0.1164028
0.1164567
0.116511
0.116566
0.1166216
0.1166779
0.1167349
0.1167926
0.1168512
0.1169107
0.1169711
0.1170325
0.1170951
0.1171588
0.1172238
0.11729
0.1173576
0.1174265
0.1174968
0.1175684
0.1176413
0.1177153
0.1177905
0.1178665
0.1179433
0.1180206
0.1180983
0.1181762
0.1182541
0.1183317
0.118409
0.1184858
0.1185622
0.1186381
0.1187136
0.118789
0.1188646
0.1189408
0.1190182
0.1190975
0.1191798
0.1192661
0.1193578
0.1194567
0.1195645
0.1196832
0.1198145
0.1199584
0.1201093
0.1202405
0.01341017
0.01638746
0.01890266
0.03093291
0.04372369
0.06075531
0.07279385
0.0855278
0.0982564
0.1107814
0.1232141
0.1366651
0.1498458
0.162712
0.1764098
0.1982297
0.2072948
0.2148525
0.2206474
0.2244245
0.226443
0.2269104
0.2260613
0.2240872
0.221724
0.2190272
0.2154336
0.2123786
0.2096477
0.2071042
0.2046145
0.2020223
0.1991944
0.1960193
0.1924544
0.1883889
0.1839135
0.1791573
0.1742391
0.169261
0.1643018
0.159423
0.1546755
0.1501001
0.145732
0.1416007
0.1377378
0.1341681
0.1309074
0.1279628
0.1253339
0.1230098
0.1209628
0.1191867
0.1176613
0.1163584
0.1152469
0.1142956
0.1134732
0.1127488
0.1120938
0.1114824
0.1108931
0.1103088
0.1097175
0.1091121
0.1084896
0.1078516
0.1072024
0.1065494
0.1059016
0.1052689
0.104662
0.104091
0.1035646
0.10309
0.1026727
0.1023164
0.1020233
0.101794
0.1016278
0.101523
0.101477
0.1014867
0.1015483
0.101658
0.1018119
0.102006
0.1022368
0.1024998
0.1027923
0.1031131
0.1034612
0.1038372
0.104239
0.1046598
0.1050953
0.1055422
0.105998
0.1064607
0.1069284
0.1073995
0.1078727
0.1083471
0.1088223
0.1092981
0.1097747
0.1102535
0.1107339
0.1112146
0.1116955
0.1121765
0.1126577
0.1131391
0.1136206
0.1141022
0.1145838
0.1150653
0.1155458
0.1160255
0.1165059
0.1169877
0.1174717
0.1179583
0.1184471
0.1189367
0.1194251
0.1199106
0.1203925
0.1208705
0.1213442
0.121813
0.1222765
0.1227343
0.123186
0.1236315
0.1240704
0.1245024
0.1249274
0.125345
0.1257548
0.1261561
0.126548
0.1269291
0.1272976
0.1276508
0.1279855
0.1283011
0.1285981
0.128876
0.1291342
0.1293732
0.1295948
0.1298013
0.1299949
0.1301774
0.1303504
0.1305154
0.1306734
0.1308256
0.130973
0.1311168
0.131258
0.1313976
0.131536
0.1316731
0.1318077
0.1319379
0.1320611
0.1321742
0.1322731
0.1323548
0.1324175
0.1324616
0.1324908
0.1325122
0.1325323
0.1325542
0.1325788
0.1326061
0.1326356
0.1326667
0.1326985
0.1327302
0.1327606
0.1327871
0.1328086
0.1328259
0.1328393
0.1328487
0.1328544
0.1328562
0.1328541
0.1328479
0.1328375
0.1328227
0.1328032
0.1327787
0.1327489
0.1327137
0.1326728
0.132626
0.1325734
0.1325151
0.1324514
0.1323826
0.1323093
0.1322321
0.1321518
0.132069
0.1319844
0.1318989
0.1318129
0.131727
0.1316415
0.1315568
0.1314729
0.1313898
0.1313075
0.1312257
0.1311442
0.1310628
0.1309813
0.1308995
0.1308174
0.1307349
0.1306521
0.1305691
0.130486
0.1304031
0.1303206
0.1302385
0.1301571
0.1300762
0.1299958
0.129916
0.1298365
0.1297572
0.1296778
0.1295982
0.1295184
0.1294383
0.1293578
0.1292768
0.1291956
0.129114
0.1290323
0.1289505
0.1288686
0.1287868
0.1287051
0.1286236
0.1285422
0.1284612
0.1283804
0.1282998
0.1282194
0.1281393
0.1280593
0.1279794
0.1278997
0.12782
0.1277402
0.1276604
0.1275804
0.1275003
0.1274199
0.1273393
0.1272583
0.1271769
0.1270952
0.127013
0.1269304
0.1268471
0.126763
0.1266777
0.1265912
0.1265041
0.1264168
0.1263296
0.1262424
0.1261556
0.1260689
0.1259825
0.1258964
0.1258106
0.1257253
0.1256404
0.1255562
0.1254729
0.1253906
0.1253095
0.1252299
0.1251518
0.1250755
0.1250011
0.1249287
0.1248584
0.1247903
0.1247245
0.1246611
0.1246003
0.1245423
0.1244874
0.124436
0.1243887
0.1243458
0.124308
0.1242759
0.12425
0.1242305
0.1242176
0.1242106
0.1242087
0.1242114
0.1242177
0.1242271
0.124239
0.1242528
0.1242682
0.1242849
0.1243025
0.1243209
0.1243399
0.1243593
0.124379
0.1243991
0.1244194
0.1244398
0.1244605
0.1244814
0.1245025
0.1245241
0.1245461
0.1245688
0.1245924
0.1246171
0.1246431
0.1246706
0.1246998
0.1247309
0.1247639
0.1247991
0.1248365
0.124876
0.1249173
0.1249602
0.1250048
0.1250509
0.1250985
0.1251475
0.1251976
0.1252487
0.1253007
0.1253535
0.125407
0.1254611
0.1255159
0.1255714
0.1256277
0.1256846
0.1257424
0.125801
0.1258604
0.1259206
0.1259814
0.126043
0.126105
0.1261674
0.12623
0.1262927
0.1263553
0.1264177
0.1264798
0.1265416
0.126603
0.126664
0.1267247
0.1267851
0.1268454
0.1269056
0.1269659
0.1270264
0.1270871
0.1271482
0.1272096
0.1272714
0.1273336
0.1273961
0.1274589
0.1275218
0.127585
0.1276485
0.1277124
0.1277768
0.1278417
0.1279072
0.1279732
0.1280398
0.1281068
0.1281741
0.1282418
0.1283098
0.1283779
0.1284459
0.1285138
0.1285811
0.1286477
0.1287134
0.128778
0.1288413
0.1289032
0.1289636
0.1290225
0.12908
0.129136
0.1291905
0.1292438
0.1292959
0.1293469
0.129397
0.1294463
0.1294949
0.1295431
0.129591
0.1296387
0.1296864
0.1297341
0.1297821
0.1298303
0.129879
0.1299281
0.1299778
0.130028
0.1300789
0.1301305
0.1301828
0.1302359
0.1302898
0.1303446
0.1304003
0.1304569
0.1305146
0.1305734
0.1306334
0.1306945
0.130757
0.1308209
0.1308862
0.130953
0.1310213
0.1310911
0.1311625
0.1312353
0.1313096
0.1313852
0.1314621
0.1315399
0.1316187
0.1316981
0.1317779
0.131858
0.1319381
0.1320181
0.1320977
0.1321769
0.1322557
0.132334
0.1324119
0.1324896
0.1325675
0.1326459
0.1327253
0.1328065
0.1328903
0.1329776
0.1330697
0.1331679
0.1332735
0.133388
0.1335124
0.1336464
0.1337849
0.133905
0.003906662
0.01626906
0.02532968
0.03507801
0.04507084
0.05582071
0.06754852
0.07967093
0.09239142
0.1068803
0.1296816
0.1412382
0.1529282
0.1642544
0.1751755
0.1857119
0.195703
0.2048924
0.2129448
0.2197102
0.2249183
0.2286483
0.2306117
0.230859
0.229476
0.2264169
0.2222431
0.2179078
0.2136586
0.2097902
0.2064431
0.2035774
0.2013024
0.1995161
0.1980984
0.1969238
0.1958482
0.1947249
0.19339
0.1916801
0.18948
0.1866741
0.1833669
0.1796807
0.1757316
0.1716165
0.1674111
0.1631859
0.1590058
0.1549288
0.1510016
0.1472687
0.1437701
0.1405363
0.1375882
0.1349381
0.132589
0.1305363
0.1287714
0.1272794
0.1260411
0.1250249
0.124197
0.1235238
0.1229721
0.1225089
0.1221038
0.1217302
0.1213655
0.1209923
0.1205981
0.1201758
0.1197228
0.1192411
0.118736
0.1182154
0.1176894
0.1171691
0.1166658
0.1161901
0.1157514
0.1153578
0.1150153
0.1147285
0.1145001
0.1143314
0.1142221
0.1141709
0.1141757
0.1142338
0.1143417
0.1144962
0.1146935
0.1149303
0.115203
0.1155087
0.1158454