/*--------------------------------*- C++ -*----------------------------------*\
| =========                 |                                                 |
| \\      /  F ield         | foam-extend: Open Source CFD                    |
|  \\    /   O peration     | Version:     3.1                                |
|   \\  /    A nd           | Web:         http://www.extend-project.de       |
|    \\/     M anipulation  |                                                 |
\*---------------------------------------------------------------------------*/
FoamFile
{
    version     2.0;
    format      ascii;
    class       volScalarField;
    location    "1.5";
    object      p;
}
// * * * * * * * * * * * * * * * * * * * * * * * * * * * * * * * * * * * * * //

dimensions      [1 -1 -2 0 0 0 0];

internalField   nonuniform List<scalar> 
119952
(
7200.334
7090.91
7061.374
7071.574
7087.25
7068.6
7059.492
7051.756
7045.008
7038.895
7033.269
7028.049
7023.18
7018.618
7014.375
7010.295
7006.262
7002.094
6996.851
6985.741
7017.654
6995.22
6985.801
7026.046
7016.418
7019.142
7019.998
7029.666
7069.161
7309.997
7114.692
7105.948
7100.851
7095.817
7090.27
7085.104
7079.917
7074.693
7069.695
7061.787
7038.098
7030.195
7021.607
7012.955
7004.381
6995.895
6987.154
6978.725
6970.427
6933.881
6923.261
6914.628
6906.48
6898.586
6890.846
6883.306
6875.951
6868.914
6862.276
6854.5
6848.148
6841.853
6835.779
6829.925
6824.308
6818.907
6814.077
6812.928
6820.646
6804.002
6798.093
6797.471
6795.186
6788.627
6782.176
6776.07
6770.357
6765.096
6760.243
6755.752
6751.584
6747.704
6744.074
6740.664
6737.361
6734.121
6730.886
6727.982
6727.55
6726.454
6723.943
6729.288
6737.22
6738.053
6740.579
6743.013
6740.292
6718.504
6715.208
6717.177
6718.688
6720.219
6721.605
6722.958
6724.319
6725.715
6727.165
6728.679
6730.265
6731.925
6733.661
6735.473
6737.359
6739.318
6741.346
6743.441
6745.6
6747.819
6750.095
6752.424
6754.804
6757.231
6759.704
6762.216
6764.76
6767.349
6769.972
6772.617
6775.286
6777.978
6780.689
6783.416
6786.157
6788.908
6791.669
6794.436
6797.206
6799.978
6802.748
6805.514
6808.273
6811.02
6813.75
6816.455
6819.116
6821.722
6824.525
6827.314
6830.148
6832.884
6835.584
6838.255
6840.893
6843.506
6846.092
6848.651
6851.182
6853.686
6856.162
6858.612
6861.034
6863.427
6865.792
6868.127
6870.432
6872.708
6874.953
6877.168
6879.348
6881.52
6883.639
6885.726
6887.785
6889.813
6891.809
6893.775
6895.71
6897.614
6899.486
6901.327
6903.137
6904.917
6906.666
6908.384
6910.072
6911.729
6913.354
6914.948
6916.511
6918.04
6919.535
6920.995
6922.414
6923.783
6925.078
6926.281
6927.815
6960.98
6961.245
6962.661
6964.016
6965.312
6966.563
6967.776
6968.955
6970.103
6971.222
6972.315
6973.378
6974.417
6975.43
6976.391
6977.326
6978.284
6979.199
6980.082
6980.933
6981.755
6982.546
6983.305
6984.029
6984.716
6985.361
6985.958
6986.5
6986.976
6987.369
6987.649
6987.763
6987.688
6987.085
6985.417
6982.453
6986.34
6988.981
6991.101
6992.88
6994.474
6995.938
6997.299
6998.58
6999.797
7000.957
7002.069
7003.139
7004.173
7005.173
7006.143
7007.085
7008.001
7008.894
7009.763
7010.611
7011.439
7012.247
7013.037
7013.808
7014.562
7015.3
7016.021
7016.727
7017.419
7018.098
7018.766
7019.43
7020.037
7020.667
6996.435
6993.401
6991.991
6992.344
6992.57
6992.939
6993.342
6993.721
6994.14
6994.547
6994.937
6995.311
6995.669
6996.009
6996.333
6996.64
6996.93
6997.204
6997.46
6997.7
6997.923
6998.129
6998.318
6998.491
6998.647
6998.787
6998.91
6999.017
6999.108
6999.184
6999.244
6999.289
6999.319
6999.336
6999.339
6999.331
6999.311
6999.283
6999.248
6999.211
6999.178
6999.159
6999.171
6999.248
6999.407
6999.51
6998.966
6998.346
6997.825
6997.327
6996.853
6996.397
6995.95
6995.422
6993.236
6993.547
6993.341
6992.786
6992.222
6991.65
6991.068
6990.474
6989.874
6989.26
6988.632
6987.991
6987.335
6986.665
6985.98
6985.282
6984.569
6983.842
6983.102
6982.348
6981.58
6980.799
6980.005
6979.198
6978.378
6977.545
6976.701
6975.844
6974.975
6974.095
6973.204
6972.301
6971.388
6970.464
6969.53
6968.587
6967.633
6966.671
6965.699
6964.719
6963.73
6962.733
6961.728
6960.716
6959.697
6958.67
6957.637
6956.598
6955.552
6954.5
6953.443
6952.379
6951.31
6950.236
6949.156
6948.07
6946.979
6945.882
6944.779
6943.669
6942.552
6941.427
6940.293
6939.15
6937.995
6936.827
6935.643
6934.441
6933.217
6931.966
6930.684
6929.362
6927.992
6926.56
6925.048
6923.432
6921.676
6919.726
6917.487
6914.793
6911.367
6906.813
6901.395
6901.28
6925.499
7139.373
7136.551
7132.616
7128.388
7124.571
7120.715
7116.931
7113.446
7109.379
7085.395
7080.224
7073.516
7066.598
7059.744
7052.755
7045.85
7038.673
7031.717
6996.903
6989.206
6979.878
6972.458
6965.171
6957.825
6950.561
6943.275
6935.948
6928.899
6921.099
6912.63
6905.241
6897.55
6889.718
6881.858
6873.913
6865.9
6858.022
6850.228
6840.154
6832.243
6824.036
6815.687
6807.241
6798.743
6790.197
6781.619
6772.919
6764.156
6755.505
6746.714
6737.947
6729.27
6720.662
6712.113
6703.649
6695.299
6623.766
6615.449
6607.1
6599.042
6591.208
6583.525
6576.003
6568.663
6561.523
6554.595
6547.84
6541.202
6534.81
6528.724
6522.948
6517.531
6512.609
6508.448
6505.18
6502.193
6496.533
6490.847
6486.739
6482.707
6477.673
6472.021
6466.484
6461.26
6456.353
6451.758
6447.467
6443.468
6439.739
6436.262
6433.019
6429.994
6427.207
6424.746
6422.825
6421.694
6421.218
6421.434
6423.23
6425.935
6427.396
6427.645
6426.528
6423.135
6417.203
6413.55
6413.068
6413.718
6414.612
6415.618
6416.743
6417.971
6419.287
6420.687
6422.172
6423.743
6425.397
6427.133
6428.948
6430.841
6432.808
6434.847
6436.953
6439.124
6441.355
6443.643
6445.983
6448.372
6450.811
6453.295
6455.82
6458.382
6460.98
6463.609
6466.267
6468.948
6471.65
6474.371
6477.108
6479.857
6482.617
6485.384
6488.157
6490.932
6493.707
6496.481
6499.249
6502.009
6504.759
6507.496
6510.219
6512.932
6515.654
6518.413
6521.192
6523.909
6526.606
6529.293
6531.959
6534.599
6537.213
6539.802
6542.362
6544.89
6547.392
6549.869
6552.319
6554.74
6557.133
6559.497
6561.832
6564.136
6566.411
6568.655
6570.868
6573.048
6575.199
6577.321
6579.412
6581.47
6583.496
6585.491
6587.455
6589.388
6591.289
6593.159
6594.997
6596.803
6598.581
6600.328
6602.044
6603.73
6605.384
6607.008
6608.6
6610.161
6611.69
6613.186
6614.648
6616.075
6617.467
6618.835
6620.184
6621.605
6684.222
6685.33
6686.66
6687.957
6689.22
6690.452
6691.654
6692.828
6693.974
6695.093
6696.185
6697.25
6698.289
6699.302
6700.287
6701.243
6702.178
6703.085
6703.962
6704.811
6705.629
6706.416
6707.171
6707.891
6708.572
6709.211
6709.802
6710.339
6710.809
6711.199
6711.485
6711.632
6711.593
6711.316
6710.875
6710.833
6712.277
6714.184
6715.929
6717.543
6719.031
6720.421
6721.728
6722.966
6724.148
6725.279
6726.368
6727.418
6728.435
6729.421
6730.378
6731.31
6732.217
6733.101
6733.964
6734.806
6735.629
6736.432
6737.218
6737.986
6738.737
6739.471
6740.19
6740.895
6741.585
6742.263
6742.932
6743.599
6744.284
6745.078
6684.797
6685.436
6685.486
6685.612
6685.963
6686.394
6686.823
6687.24
6687.646
6688.041
6688.423
6688.791
6689.143
6689.478
6689.797
6690.099
6690.384
6690.652
6690.904
6691.139
6691.357
6691.558
6691.743
6691.912
6692.064
6692.2
6692.319
6692.423
6692.511
6692.584
6692.641
6692.684
6692.713
6692.727
6692.729
6692.719
6692.697
6692.667
6692.629
6692.587
6692.544
6692.504
6692.469
6692.432
6692.359
6692.181
6691.833
6691.391
6690.939
6690.491
6690.05
6689.613
6689.192
6688.735
6688.064
6687.356
6686.764
6686.183
6685.588
6684.991
6684.396
6683.796
6683.186
6682.565
6681.931
6681.283
6680.621
6679.943
6679.252
6678.546
6677.827
6677.093
6676.346
6675.585
6674.811
6674.024
6673.224
6672.412
6671.587
6670.749
6669.899
6669.038
6668.164
6667.28
6666.384
6665.477
6664.56
6663.632
6662.694
6661.747
6660.79
6659.823
6658.848
6657.865
6656.873
6655.873
6654.865
6653.85
6652.827
6651.798
6650.763
6649.72
6648.672
6647.618
6646.558
6645.492
6644.42
6643.343
6642.261
6641.173
6640.079
6638.979
6637.873
6636.76
6635.64
6634.512
6633.375
6632.228
6631.069
6629.897
6628.709
6627.503
6626.275
6625.021
6623.735
6622.411
6621.04
6619.61
6618.109
6616.517
6614.809
6612.957
6610.926
6608.697
6606.361
6604.212
6603.27
6603.959
6607.263
7313.448
7306.3
7294.017
7279.885
7264.428
7248.442
7232.453
7216.871
7201.782
7186.646
7153.47
7139.344
7124.906
7111.678
7099.425
7088.069
7077.493
7067.582
7058.781
7019.687
7010.572
7001.455
6993.562
6985.931
6978.487
6971.184
6963.979
6956.893
6950.449
6942.108
6934.696
6927.515
6920.266
6913.036
6905.812
6898.592
6891.468
6884.912
6876.857
6868.369
6861.607
6854.683
6847.668
6840.658
6833.681
6826.728
6819.811
6812.557
6805.536
6798.595
6791.52
6784.459
6777.454
6770.49
6763.551
6756.679
6686.779
6679.711
6672.453
6665.19
6657.971
6650.766
6643.532
6636.251
6628.911
6621.473
6614.031
6606.401
6598.604
6590.772
6582.92
6575.021
6567.062
6559.041
6550.95
6542.778
6534.361
6525.827
6517.325
6508.827
6500.287
6491.701
6483.077
6474.418
6465.729
6456.993
6448.198
6439.419
6430.677
6421.982
6413.337
6404.761
6396.263
6387.941
6379.884
6371.484
6363.141
6355.066
6347.194
6339.467
6331.893
6324.49
6317.275
6310.248
6303.39
6296.731
6290.324
6284.197
6278.375
6272.896
6267.807
6263.149
6258.866
6254.814
6249.69
6244.368
6239.706
6235.151
6230.138
6224.858
6219.658
6214.692
6209.985
6205.546
6201.379
6197.482
6193.85
6190.477
6187.361
6184.513
6181.966
6179.789
6178.089
6177.019
6176.494
6176.544
6177.347
6178.419
6178.83
6178.424
6177.152
6174.828
6171.47
6169.201
6168.666
6168.994
6169.612
6170.412
6171.385
6172.502
6173.738
6175.082
6176.526
6178.066
6179.697
6181.417
6183.218
6185.101
6187.061
6189.094
6191.196
6193.363
6195.592
6197.877
6200.211
6202.598
6205.046
6207.537
6210.068
6212.637
6215.24
6217.874
6220.536
6223.222
6225.929
6228.655
6231.396
6234.15
6236.914
6239.686
6242.463
6245.243
6248.025
6250.804
6253.58
6256.349
6259.11
6261.862
6264.606
6267.344
6270.082
6272.829
6275.58
6278.305
6281.005
6283.686
6286.345
6288.979
6291.588
6294.173
6296.735
6299.251
6301.759
6304.242
6306.698
6309.124
6311.522
6313.891
6316.23
6318.539
6320.817
6323.065
6325.282
6327.469
6329.624
6331.748
6333.841
6335.902
6337.932
6339.93
6341.897
6343.833
6345.736
6347.608
6349.447
6351.253
6353.034
6354.783
6356.502
6358.189
6359.845
6361.47
6363.065
6364.628
6366.16
6367.66
6369.13
6370.57
6371.981
6373.373
6374.748
6376.128
6377.577
6378.946
6380.25
6381.522
6382.77
6383.99
6385.182
6386.346
6387.483
6388.594
6389.678
6390.737
6391.769
6392.776
6393.756
6394.709
6395.638
6396.539
6397.412
6398.256
6399.07
6399.853
6400.604
6401.32
6401.999
6402.637
6403.231
6403.774
6404.26
6404.682
6405.031
6405.303
6405.503
6405.675
6405.946
6406.552
6407.629
6409.004
6410.435
6411.827
6413.162
6414.443
6415.671
6416.85
6417.985
6419.08
6420.139
6421.165
6422.161
6423.13
6424.073
6424.992
6425.888
6426.762
6427.616
6428.451
6429.266
6430.064
6430.844
6431.606
6432.352
6433.082
6433.797
6434.496
6435.181
6435.852
6436.512
6437.162
6437.797
6438.437
6438.943
6439.191
6439.538
6440.025
6440.549
6441.051
6441.518
6441.96
6442.383
6442.791
6443.181
6443.554
6443.909
6444.247
6444.567
6444.87
6445.156
6445.425
6445.676
6445.911
6446.128
6446.329
6446.513
6446.681
6446.832
6446.966
6447.085
6447.188
6447.275
6447.347
6447.404
6447.446
6447.474
6447.487
6447.488
6447.476
6447.452
6447.418
6447.374
6447.322
6447.262
6447.195
6447.115
6447.013
6446.869
6446.657
6446.346
6445.957
6445.542
6445.12
6444.691
6444.253
6443.798
6443.326
6442.837
6442.251
6441.621
6440.991
6440.372
6439.763
6439.158
6438.551
6437.937
6437.314
6436.678
6436.03
6435.367
6434.689
6433.998
6433.292
6432.572
6431.838
6431.09
6430.328
6429.553
6428.765
6427.964
6427.149
6426.323
6425.484
6424.633
6423.77
6422.895
6422.009
6421.112
6420.204
6419.285
6418.356
6417.417
6416.468
6415.51
6414.542
6413.566
6412.581
6411.588
6410.587
6409.578
6408.561
6407.538
6406.508
6405.471
6404.427
6403.378
6402.323
6401.261
6400.195
6399.122
6398.044
6396.961
6395.872
6394.777
6393.677
6392.57
6391.457
6390.336
6389.208
6388.071
6386.925
6385.767
6384.597
6383.412
6382.21
6380.988
6379.742
6378.467
6377.159
6375.81
6374.413
6372.959
6371.438
6369.841
6368.164
6366.418
6364.648
6362.977
6361.599
6360.86
6361.076
6362.098
6270.134
6435.096
6570.978
6688.44
6785.925
6844.862
6907.857
6955.952
6991.785
7015.116
7026.236
7028.488
7021.695
7012.537
6999.895
6984.506
6967.698
6950.282
6932.844
6915.779
6899.404
6883.94
6869.087
6855.067
6841.865
6829.5
6817.969
6807.192
6797.112
6787.729
6779.177
6705.493
6697.656
6690.229
6682.65
6675.166
6667.891
6660.77
6653.733
6646.733
6639.701
6632.667
6625.561
6618.402
6611.27
6604.185
6597.132
6590.099
6583.08
6576.044
6568.933
6561.637
6554.399
6547.291
6540.248
6533.235
6526.242
6519.262
6512.29
6505.325
6498.302
6491.257
6484.251
6477.277
6470.319
6463.38
6456.445
6449.598
6442.919
6435.857
6428.511
6421.273
6414.136
6406.996
6399.805
6392.551
6385.232
6377.842
6370.355
6362.725
6355.013
6347.251
6339.429
6331.538
6323.573
6315.533
6307.411
6299.193
6290.807
6282.338
6273.861
6265.353
6256.791
6248.177
6239.519
6230.82
6222.082
6213.312
6204.517
6195.722
6186.944
6178.199
6169.495
6160.851
6152.282
6143.8
6135.37
6126.879
6118.513
6110.349
6102.36
6094.525
6086.85
6079.348
6072.029
6064.897
6057.962
6051.241
6044.758
6038.537
6032.596
6026.953
6021.621
6016.6
6011.824
6007.146
6002.106
5996.959
5992.084
5987.32
5982.404
5977.391
5972.458
5967.71
5963.184
5958.897
5954.862
5951.085
5947.567
5944.311
5941.323
5938.618
5936.224
5934.185
5932.557
5931.4
5930.68
5930.342
5930.491
5930.855
5930.842
5930.33
5929.28
5927.682
5925.724
5924.316
5923.819
5923.939
5924.389
5925.075
5925.96
5927.012
5928.203
5929.517
5930.943
5932.472
5934.1
5935.819
5937.624
5939.516
5941.485
5943.529
5945.643
5947.823
5950.066
5952.371
5954.736
5957.15
5959.601
5962.096
5964.633
5967.209
5969.82
5972.463
5975.134
5977.83
5980.548
5983.284
5986.036
5988.8
5991.575
5994.357
5997.143
5999.931
6002.719
6005.504
6008.285
6011.06
6013.828
6016.589
6019.342
6022.089
6024.832
6027.577
6030.318
6033.039
6035.738
6038.419
6041.078
6043.714
6046.326
6048.912
6051.47
6054.022
6056.527
6059.004
6061.453
6063.874
6066.267
6068.631
6070.967
6073.272
6075.548
6077.793
6080.008
6082.192
6084.345
6086.467
6088.558
6090.617
6092.645
6094.641
6096.606
6098.539
6100.441
6102.31
6104.146
6105.936
6107.725
6109.479
6111.198
6112.886
6114.542
6116.168
6117.762
6119.326
6120.86
6122.364
6123.839
6125.286
6126.707
6128.107
6129.491
6130.866
6132.237
6133.56
6134.852
6136.123
6137.369
6138.587
6139.775
6140.937
6142.072
6143.181
6144.264
6145.321
6146.353
6147.359
6148.339
6149.293
6150.222
6151.124
6151.998
6152.844
6153.661
6154.449
6155.204
6155.927
6156.615
6157.265
6157.875
6158.442
6158.963
6159.434
6159.859
6160.258
6160.64
6161.052
6161.573
6162.298
6163.293
6164.488
6165.753
6167.013
6168.248
6169.453
6170.623
6171.759
6172.86
6173.929
6174.967
6175.977
6176.961
6177.919
6178.854
6179.766
6180.657
6181.527
6182.378
6183.21
6184.023
6184.819
6185.598
6186.359
6187.104
6187.833
6188.546
6189.244
6189.926
6190.592
6191.243
6191.877
6192.483
6193.061
6193.566
6193.997
6194.453
6194.933
6195.412
6195.878
6196.329
6196.763
6197.183
6197.588
6197.977
6198.348
6198.703
6199.041
6199.362
6199.666
6199.952
6200.221
6200.473
6200.708
6200.926
6201.127
6201.311
6201.479
6201.63
6201.764
6201.883
6201.985
6202.072
6202.143
6202.199
6202.24
6202.266
6202.278
6202.276
6202.26
6202.232
6202.191
6202.138
6202.074
6201.996
6201.904
6201.793
6201.654
6201.477
6201.245
6200.947
6200.592
6200.206
6199.803
6199.383
6198.948
6198.495
6198.028
6197.533
6196.968
6196.365
6195.759
6195.159
6194.56
6193.958
6193.351
6192.736
6192.111
6191.473
6190.823
6190.158
6189.48
6188.788
6188.081
6187.361
6186.626
6185.878
6185.116
6184.34
6183.552
6182.75
6181.935
6181.108
6180.268
6179.416
6178.552
6177.677
6176.79
6175.892
6174.983
6174.063
6173.133
6172.193
6171.243
6170.284
6169.315
6168.338
6167.352
6166.357
6165.355
6164.345
6163.328
6162.303
6161.272
6160.234
6159.19
6158.14
6157.084
6156.022
6154.955
6153.882
6152.804
6151.721
6150.632
6149.538
6148.438
6147.333
6146.222
6145.104
6143.979
6142.846
6141.704
6140.553
6139.391
6138.215
6137.025
6135.817
6134.59
6133.339
6132.061
6130.752
6129.408
6128.024
6126.599
6125.134
6123.638
6122.136
6120.676
6119.346
6118.264
6117.586
6117.443
6117.59
5052.26
5070.055
5098.543
5117.597
5165.055
5204.358
5288.848
5394.224
5516.776
5653.221
5800.094
5945.752
6092.246
6230.899
6355.179
6462.285
6510.008
6577.329
6626.927
6661.058
6682.124
6692.213
6693.768
6689.001
6680.605
6669.656
6656.302
6641.202
6625.371
6609.49
6593.948
6578.984
6564.728
6551.182
6538.35
6526.276
6514.933
6504.272
6494.237
6484.761
6475.744
6467.098
6458.478
6450.537
6442.999
6435.552
6428.238
6421.101
6414.097
6407.152
6400.232
6393.335
6386.401
6379.415
6372.436
6365.479
6358.542
6351.614
6344.688
6337.755
6330.813
6323.808
6316.688
6309.607
6302.616
6295.663
6288.719
6281.782
6274.852
6267.922
6260.98
6254.022
6247.067
6240.123
6233.191
6226.269
6219.361
6212.467
6205.588
6198.678
6191.556
6184.348
6177.188
6170.057
6162.9
6155.69
6148.418
6141.08
6133.663
6126.152
6118.547
6110.86
6103.098
6095.259
6087.342
6079.344
6071.262
6063.089
6054.816
6046.432
6037.968
6029.452
6020.883
6012.257
6003.577
5994.85
5986.08
5977.273
5968.442
5959.562
5950.686
5941.827
5932.997
5924.206
5915.469
5906.794
5898.185
5889.642
5881.159
5872.787
5864.566
5856.502
5848.592
5840.844
5833.269
5825.876
5818.674
5811.672
5804.884
5798.325
5792.012
5785.957
5780.166
5774.64
5769.361
5764.274
5759.289
5754.217
5749.17
5744.244
5739.409
5734.571
5729.741
5725.007
5720.439
5716.073
5711.93
5708.026
5704.37
5700.968
5697.827
5694.954
5692.364
5690.075
5688.114
5686.512
5685.29
5684.434
5683.898
5683.655
5683.546
5683.306
5682.805
5681.998
5680.929
5679.741
5678.835
5678.451
5678.525
5678.919
5679.557
5680.401
5681.42
5682.589
5683.889
5685.309
5686.839
5688.471
5690.199
5692.018
5693.918
5695.899
5697.955
5700.082
5702.277
5704.534
5706.852
5709.226
5711.653
5714.124
5716.638
5719.193
5721.785
5724.411
5727.067
5729.751
5732.46
5735.189
5737.936
5740.699
5743.474
5746.258
5749.05
5751.846
5754.645
5757.443
5760.24
5763.033
5765.821
5768.603
5771.377
5774.144
5776.904
5779.657
5782.404
5785.142
5787.863
5790.564
5793.245
5795.905
5798.542
5801.155
5803.743
5806.305
5808.847
5811.359
5813.841
5816.296
5818.722
5821.118
5823.486
5825.824
5828.132
5830.409
5832.657
5834.873
5837.058
5839.212
5841.335
5843.427
5845.487
5847.516
5849.513
5851.478
5853.412
5855.315
5857.188
5859.032
5860.859
5862.626
5864.367
5866.08
5867.764
5869.418
5871.041
5872.635
5874.199
5875.733
5877.238
5878.716
5880.166
5881.591
5882.994
5884.377
5885.742
5887.087
5888.406
5889.699
5890.967
5892.209
5893.422
5894.609
5895.769
5896.902
5898.01
5899.092
5900.149
5901.18
5902.185
5903.166
5904.12
5905.05
5905.953
5906.83
5907.679
5908.501
5909.295
5910.059
5910.794
5911.496
5912.166
5912.803
5913.405
5913.974
5914.511
5915.022
5915.506
5915.998
5916.534
5917.161
5917.927
5918.863
5919.934
5921.072
5922.229
5923.382
5924.522
5925.642
5926.737
5927.806
5928.85
5929.868
5930.862
5931.832
5932.78
5933.706
5934.61
5935.495
5936.361
5937.207
5938.035
5938.846
5939.639
5940.415
5941.174
5941.917
5942.644
5943.354
5944.048
5944.726
5945.387
5946.03
5946.653
5947.252
5947.824
5948.36
5948.855
5949.331
5949.801
5950.266
5950.724
5951.17
5951.602
5952.02
5952.422
5952.809
5953.18
5953.534
5953.871
5954.191
5954.494
5954.781
5955.05
5955.301
5955.536
5955.754
5955.955
5956.139
5956.306
5956.457
5956.591
5956.709
5956.81
5956.896
5956.966
5957.02
5957.059
5957.083
5957.092
5957.086
5957.066
5957.032
5956.983
5956.921
5956.844
5956.751
5956.64
5956.506
5956.345
5956.148
5955.908
5955.618
5955.284
5954.918
5954.527
5954.116
5953.686
5953.235
5952.762
5952.258
5951.714
5951.145
5950.565
5949.98
5949.389
5948.791
5948.185
5947.569
5946.941
5946.302
5945.65
5944.984
5944.305
5943.611
5942.904
5942.182
5941.447
5940.698
5939.935
5939.159
5938.369
5937.567
5936.751
5935.923
5935.082
5934.229
5933.365
5932.488
5931.6
5930.701
5929.79
5928.869
5927.938
5926.997
5926.046
5925.085
5924.115
5923.136
5922.149
5921.153
5920.15
5919.139
5918.12
5917.094
5916.062
5915.023
5913.978
5912.927
5911.87
5910.807
5909.74
5908.667
5907.589
5906.506
5905.418
5904.325
5903.227
5902.123
5901.015
5899.901
5898.78
5897.653
5896.518
5895.376
5894.223
5893.061
5891.886
5890.698
5889.494
5888.273
5887.033
5885.771
5884.486
5883.179
5881.851
5880.51
5879.169
5877.853
5876.602
5875.474
5874.542
5873.877
5873.526
5873.325
5039.526
5012.166
4983.569
4941.375
4914.907
4857.091
4835.933
4817.826
4803.542
4793.884
4789.156
4792.35
4805.49
4829.874
4868.484
4874.025
4954.696
5054.4
5174.766
5312.018
5461.475
5617.137
5770.962
5915.189
6043.145
6151.386
6238.019
6307.491
6359.084
6394.75
6417.084
6428.291
6430.355
6425.635
6416.906
6406.177
6394.003
6380.402
6366.015
6351.537
6337.356
6323.665
6310.555
6298.082
6286.29
6275.171
6264.655
6254.698
6245.262
6236.289
6227.693
6219.438
6211.469
6203.841
6196.48
6189.261
6182.166
6175.217
6168.35
6161.492
6154.618
6147.781
6140.917
6134.025
6127.127
6120.223
6113.314
6106.399
6099.475
6092.539
6085.586
6078.589
6071.556
6064.542
6057.568
6050.618
6043.679
6036.747
6029.823
6022.899
6015.973
6009.047
6002.12
5995.198
5988.281
5981.37
5974.462
5967.549
5960.611
5953.631
5946.572
5939.463
5932.342
5925.208
5918.041
5910.827
5903.555
5896.215
5888.799
5881.298
5873.71
5866.034
5858.274
5850.43
5842.502
5834.486
5826.38
5818.18
5809.881
5801.484
5793.002
5784.449
5775.832
5767.153
5758.415
5749.624
5740.785
5731.906
5722.993
5714.087
5705.167
5696.252
5687.359
5678.502
5669.694
5660.948
5652.27
5643.669
5635.149
5626.734
5618.451
5610.316
5602.335
5594.516
5586.87
5579.405
5572.132
5565.059
5558.197
5551.559
5545.154
5538.99
5533.068
5527.382
5521.912
5516.62
5511.455
5506.335
5501.276
5496.322
5491.472
5486.691
5481.984
5477.395
5472.972
5468.743
5464.73
5460.947
5457.405
5454.112
5451.075
5448.303
5445.807
5443.598
5441.694
5440.106
5438.842
5437.884
5437.194
5436.721
5436.369
5436
5435.53
5434.892
5434.156
5433.418
5432.867
5432.652
5432.78
5433.187
5433.824
5434.659
5435.669
5436.833
5438.133
5439.556
5441.093
5442.736
5444.476
5446.31
5448.229
5450.228
5452.304
5454.451
5456.665
5458.943
5461.28
5463.673
5466.117
5468.609
5471.143
5473.716
5476.327
5478.971
5481.645
5484.346
5487.07
5489.815
5492.578
5495.356
5498.145
5500.944
5503.75
5506.56
5509.373
5512.185
5514.996
5517.803
5520.604
5523.4
5526.187
5528.967
5531.738
5534.5
5537.252
5539.992
5542.716
5545.421
5548.106
5550.769
5553.41
5556.027
5558.618
5561.186
5563.728
5566.243
5568.729
5571.187
5573.615
5576.015
5578.385
5580.725
5583.034
5585.313
5587.562
5589.779
5591.965
5594.12
5596.243
5598.334
5600.394
5602.423
5604.419
5606.384
5608.318
5610.22
5612.092
5613.934
5615.747
5617.522
5619.266
5620.981
5622.665
5624.319
5625.943
5627.537
5629.102
5630.638
5632.145
5633.624
5635.077
5636.504
5637.908
5639.29
5640.651
5641.991
5643.306
5644.596
5645.859
5647.097
5648.308
5649.493
5650.651
5651.784
5652.891
5653.973
5655.03
5656.061
5657.068
5658.049
5659.006
5659.937
5660.843
5661.724
5662.578
5663.406
5664.208
5664.982
5665.729
5666.447
5667.137
5667.799
5668.433
5669.041
5669.626
5670.196
5670.76
5671.34
5671.96
5672.648
5673.431
5674.326
5675.317
5676.368
5677.448
5678.535
5679.62
5680.694
5681.751
5682.79
5683.809
5684.807
5685.784
5686.74
5687.676
5688.592
5689.489
5690.366
5691.226
5692.068
5692.892
5693.698
5694.488
5695.261
5696.018
5696.758
5697.481
5698.188
5698.879
5699.553
5700.209
5700.847
5701.464
5702.059
5702.63
5703.173
5703.683
5704.17
5704.647
5705.117
5705.576
5706.023
5706.456
5706.873
5707.275
5707.662
5708.032
5708.385
5708.722
5709.041
5709.344
5709.63
5709.898
5710.15
5710.384
5710.602
5710.802
5710.986
5711.152
5711.302
5711.436
5711.553
5711.653
5711.738
5711.806
5711.858
5711.895
5711.916
5711.921
5711.911
5711.886
5711.846
5711.79
5711.719
5711.631
5711.525
5711.399
5711.249
5711.073
5710.864
5710.618
5710.332
5710.009
5709.655
5709.274
5708.871
5708.445
5707.997
5707.525
5707.028
5706.502
5705.953
5705.389
5704.814
5704.229
5703.634
5703.029
5702.413
5701.785
5701.145
5700.491
5699.824
5699.144
5698.449
5697.741
5697.019
5696.282
5695.532
5694.768
5693.991
5693.2
5692.397
5691.58
5690.75
5689.908
5689.054
5688.188
5687.31
5686.42
5685.52
5684.608
5683.685
5682.752
5681.809
5680.857
5679.894
5678.923
5677.942
5676.953
5675.956
5674.951
5673.938
5672.918
5671.89
5670.856
5669.816
5668.769
5667.717
5666.659
5665.596
5664.527
5663.454
5662.376
5661.293
5660.206
5659.114
5658.017
5656.916
5655.811
5654.7
5653.585
5652.464
5651.337
5650.204
5649.063
5647.914
5646.757
5645.589
5644.411
5643.222
5642.02
5640.805
5639.579
5638.344
5637.105
5635.871
5634.656
5633.483
5632.382
5631.393
5630.562
5629.92
5629.497
5629.167
5055.765
4983.202
4921.956
4862.078
4809.682
4766.508
4729.062
4696.315
4667.304
4639.908
4551.653
4530.167
4511.453
4495.969
4484.04
4476.605
4475.639
4483.409
4501.939
4534.38
4583.13
4655.804
4749.312
4864.612
5000.606
5153.049
5313.072
5471.44
5620.35
5753.517
5867.103
5959.094
6031.107
6084.79
6122.406
6146.575
6159.759
6164.196
6161.939
6154.811
6144.664
6132.938
6120.24
6107.129
6094.002
6081.158
6068.766
6056.828
6045.4
6034.539
6024.251
6014.508
6005.267
5996.471
5988.066
5979.995
5972.227
5964.702
5957.396
5950.268
5943.258
5936.349
5929.529
5922.793
5916.032
5909.262
5902.51
5895.712
5888.873
5882.001
5875.102
5868.181
5861.241
5854.285
5847.312
5840.321
5833.311
5826.288
5819.273
5812.28
5805.308
5798.353
5791.41
5784.48
5777.557
5770.64
5763.728
5756.819
5749.915
5743.017
5736.121
5729.222
5722.314
5715.384
5708.425
5701.42
5694.368
5687.283
5680.169
5673.02
5665.823
5658.566
5651.241
5643.84
5636.355
5628.785
5621.125
5613.375
5605.536
5597.605
5589.581
5581.461
5573.242
5564.929
5556.518
5548.016
5539.434
5530.78
5522.057
5513.271
5504.429
5495.537
5486.604
5477.64
5468.659
5459.669
5450.683
5441.718
5432.785
5423.899
5415.071
5406.311
5397.631
5389.039
5380.554
5372.196
5363.981
5355.919
5348.018
5340.289
5332.742
5325.386
5318.231
5311.285
5304.557
5298.054
5291.781
5285.735
5279.909
5274.288
5268.846
5263.549
5258.36
5253.271
5248.301
5243.454
5238.718
5234.099
5229.621
5225.315
5221.203
5217.305
5213.632
5210.195
5207.002
5204.061
5201.378
5198.962
5196.821
5194.962
5193.389
5192.099
5191.075
5190.285
5189.683
5189.201
5188.783
5188.341
5187.825
5187.327
5186.888
5186.598
5186.551
5186.767
5187.221
5187.885
5188.738
5189.76
5190.934
5192.246
5193.684
5195.238
5196.898
5198.659
5200.513
5202.454
5204.477
5206.576
5208.747
5210.985
5213.287
5215.648
5218.064
5220.53
5223.044
5225.6
5228.196
5230.828
5233.493
5236.188
5238.909
5241.652
5244.417
5247.198
5249.993
5252.8
5255.616
5258.439
5261.265
5264.094
5266.922
5269.748
5272.57
5275.386
5278.195
5280.997
5283.789
5286.571
5289.343
5292.102
5294.848
5297.577
5300.288
5302.978
5305.647
5308.293
5310.914
5313.511
5316.083
5318.628
5321.146
5323.635
5326.096
5328.528
5330.93
5333.302
5335.644
5337.956
5340.237
5342.486
5344.705
5346.892
5349.047
5351.171
5353.263
5355.323
5357.351
5359.348
5361.313
5363.246
5365.148
5367.019
5368.859
5370.668
5372.444
5374.189
5375.904
5377.588
5379.241
5380.865
5382.459
5384.024
5385.56
5387.068
5388.548
5390.002
5391.43
5392.834
5394.214
5395.572
5396.907
5398.218
5399.503
5400.763
5401.997
5403.205
5404.387
5405.544
5406.675
5407.782
5408.863
5409.919
5410.95
5411.957
5412.94
5413.898
5414.831
5415.74
5416.624
5417.484
5418.318
5419.128
5419.913
5420.672
5421.407
5422.117
5422.803
5423.467
5424.112
5424.741
5425.363
5425.987
5426.627
5427.302
5428.029
5428.825
5429.698
5430.64
5431.632
5432.654
5433.688
5434.726
5435.759
5436.782
5437.792
5438.786
5439.763
5440.722
5441.664
5442.588
5443.493
5444.381
5445.252
5446.105
5446.941
5447.761
5448.564
5449.35
5450.12
5450.873
5451.611
5452.331
5453.036
5453.724
5454.394
5455.047
5455.681
5456.295
5456.888
5457.458
5458.003
5458.523
5459.022
5459.508
5459.982
5460.443
5460.891
5461.323
5461.741
5462.143
5462.528
5462.898
5463.251
5463.587
5463.907
5464.209
5464.495
5464.763
5465.014
5465.248
5465.465
5465.665
5465.848
5466.014
5466.164
5466.296
5466.412
5466.511
5466.594
5466.661
5466.711
5466.745
5466.763
5466.765
5466.751
5466.721
5466.675
5466.612
5466.533
5466.435
5466.318
5466.181
5466.019
5465.831
5465.614
5465.364
5465.08
5464.762
5464.416
5464.043
5463.645
5463.225
5462.781
5462.315
5461.825
5461.31
5460.774
5460.221
5459.654
5459.075
5458.484
5457.881
5457.266
5456.639
5455.998
5455.344
5454.677
5453.995
5453.3
5452.591
5451.867
5451.13
5450.378
5449.613
5448.835
5448.043
5447.238
5446.42
5445.589
5444.745
5443.89
5443.022
5442.142
5441.251
5440.348
5439.434
5438.51
5437.575
5436.63
5435.676
5434.711
5433.738
5432.755
5431.764
5430.765
5429.758
5428.743
5427.72
5426.691
5425.656
5424.613
5423.565
5422.512
5421.452
5420.388
5419.319
5418.244
5417.166
5416.083
5414.997
5413.906
5412.811
5411.713
5410.61
5409.504
5408.394
5407.279
5406.16
5405.037
5403.909
5402.775
5401.635
5400.49
5399.338
5398.18
5397.016
5395.848
5394.678
5393.51
5392.35
5391.207
5390.095
5389.033
5388.045
5387.157
5386.4
5385.788
5385.349
5384.972
4771.012
4698.967
4568.778
4522.798
4480.867
4444.28
4411.932
4382.663
4355.465
4330.356
4307.009
4285.193
4264.997
4246.526
4230.634
4218.569
4212.133
4213.554
4226.144
4253.379
4298.06
4364.288
4454.598
4567.681
4703.021
4856.158
5017.905
5178.28
5328.813
5463.131
5577.452
5670.485
5743.335
5798.28
5837.74
5864.229
5880.154
5887.692
5888.867
5885.426
5877.888
5867.468
5856.222
5844.98
5833.734
5822.488
5811.512
5800.967
5790.879
5781.225
5772.011
5763.258
5754.921
5746.933
5739.241
5731.8
5724.574
5717.515
5710.601
5703.806
5697.094
5690.432
5683.784
5677.178
5670.548
5663.912
5657.227
5650.482
5643.682
5636.832
5629.938
5623.009
5616.05
5609.067
5602.064
5595.047
5588.019
5580.985
5573.959
5566.951
5559.964
5552.997
5546.048
5539.115
5532.197
5525.29
5518.393
5511.505
5504.624
5497.75
5490.877
5484.002
5477.118
5470.216
5463.289
5456.325
5449.319
5442.276
5435.197