/*--------------------------------*- C++ -*----------------------------------*\
| =========                 |                                                 |
| \\      /  F ield         | foam-extend: Open Source CFD                    |
|  \\    /   O peration     | Version:     3.1                                |
|   \\  /    A nd           | Web:         http://www.extend-project.de       |
|    \\/     M anipulation  |                                                 |
\*---------------------------------------------------------------------------*/
FoamFile
{
    version     2.0;
    format      ascii;
    class       volScalarField;
    location    "1.5";
    object      pd;
}
// * * * * * * * * * * * * * * * * * * * * * * * * * * * * * * * * * * * * * //

dimensions      [1 -1 -2 0 0 0 0];

internalField   nonuniform List<scalar> 
119952
(
7231.029
7128.325
7098.168
7105.1
7117.962
7099.952
7091.457
7084.334
7078.199
7072.699
7067.686
7063.08
7058.824
7054.874
7051.244
7047.778
7044.358
7040.803
7036.173
7025.676
7052.942
7030.77
7021.609
7056.708
7047.079
7049.804
7050.66
7060.328
7099.856
7340.692
7405.178
7392.892
7384.529
7376.228
7367.413
7358.975
7350.525
7342.034
7333.768
7323.712
7314.004
7306.101
7297.513
7288.861
7280.287
7271.802
7263.06
7254.631
7246.333
7240.444
7229.823
7221.19
7213.043
7205.149
7197.408
7189.869
7182.513
7175.476
7168.839
7161.062
7154.711
7148.416
7142.342
7136.488
7130.87
7125.469
7120.639
7119.491
7127.209
7110.565
7104.656
7104.034
7101.749
7095.19
7088.739
7082.633
7076.92
7071.658
7066.805
7062.314
7058.147
7054.266
7050.636
7047.226
7043.924
7040.683
7037.448
7034.545
7034.112
7033.017
7030.505
7035.851
7043.783
7044.615
7047.141
7049.576
7046.855
7025.066
7021.771
7023.74
7025.25
7026.782
7028.167
7029.521
7030.881
7032.278
7033.727
7035.242
7036.827
7038.488
7040.224
7042.036
7043.922
7045.88
7047.908
7050.003
7052.162
7054.381
7056.657
7058.987
7061.366
7063.794
7066.266
7068.778
7071.323
7073.912
7076.535
7079.18
7081.849
7084.54
7087.251
7089.978
7092.719
7095.471
7098.231
7100.998
7103.769
7106.541
7109.311
7112.077
7114.835
7117.582
7120.313
7123.017
7125.678
7128.284
7131.088
7133.876
7136.711
7139.447
7142.147
7144.817
7147.456
7150.069
7152.655
7155.214
7157.745
7160.248
7162.724
7165.174
7167.596
7169.99
7172.354
7174.689
7176.995
7179.27
7181.515
7183.73
7185.91
7188.082
7190.202
7192.289
7194.347
7196.375
7198.372
7200.338
7202.272
7204.176
7206.048
7207.889
7209.699
7211.479
7213.228
7214.947
7216.634
7218.291
7219.917
7221.511
7223.073
7224.602
7226.098
7227.557
7228.977
7230.346
7231.641
7232.844
7234.377
7236.886
7237.151
7238.567
7239.922
7241.218
7242.469
7243.682
7244.861
7246.01
7247.129
7248.221
7249.285
7250.324
7251.336
7252.297
7253.232
7254.19
7255.106
7255.988
7256.84
7257.662
7258.453
7259.211
7259.936
7260.622
7261.267
7261.864
7262.406
7262.883
7263.275
7263.555
7263.669
7263.594
7262.991
7261.323
7258.359
7262.246
7264.887
7267.008
7268.786
7270.38
7271.845
7273.205
7274.487
7275.703
7276.863
7277.975
7279.046
7280.079
7281.079
7282.049
7282.991
7283.907
7284.8
7285.669
7286.518
7287.345
7288.153
7288.943
7289.714
7290.468
7291.206
7291.927
7292.633
7293.325
7294.004
7294.672
7295.336
7295.943
7296.573
7302.997
7299.964
7298.553
7298.906
7299.133
7299.501
7299.905
7300.284
7300.702
7301.109
7301.5
7301.874
7302.231
7302.572
7302.895
7303.203
7303.493
7303.766
7304.023
7304.263
7304.485
7304.691
7304.88
7305.053
7305.209
7305.349
7305.472
7305.579
7305.671
7305.746
7305.806
7305.851
7305.882
7305.898
7305.902
7305.893
7305.874
7305.846
7305.811
7305.774
7305.741
7305.721
7305.734
7305.81
7305.97
7306.073
7305.528
7304.909
7304.388
7303.889
7303.416
7302.959
7302.512
7301.984
7299.799
7300.109
7299.903
7299.348
7298.785
7298.212
7297.631
7297.036
7296.437
7295.822
7295.195
7294.553
7293.898
7293.227
7292.543
7291.844
7291.131
7290.405
7289.664
7288.91
7288.143
7287.362
7286.567
7285.76
7284.94
7284.108
7283.263
7282.406
7281.538
7280.658
7279.766
7278.864
7277.951
7277.027
7276.093
7275.149
7274.196
7273.233
7272.262
7271.281
7270.293
7269.296
7268.291
7267.279
7266.259
7265.233
7264.2
7263.16
7262.115
7261.063
7260.005
7258.942
7257.873
7256.798
7255.718
7254.633
7253.542
7252.444
7251.341
7250.231
7249.114
7247.99
7246.856
7245.712
7244.557
7243.389
7242.205
7241.003
7239.779
7238.529
7237.247
7235.925
7234.554
7233.122
7231.61
7229.994
7228.238
7226.288
7224.05
7221.355
7217.929
7213.376
7207.957
7207.843
7232.062
7673.215
7667.112
7659.909
7652.415
7645.33
7638.207
7631.156
7624.403
7617.232
7606.552
7601.381
7594.672
7587.754
7580.901
7573.912
7567.007
7559.83
7552.874
7548.715
7541.019
7531.691
7524.271
7516.983
7509.637
7502.373
7495.088
7487.76
7480.712
7472.911
7464.443
7457.053
7449.363
7441.531
7433.67
7425.725
7417.713
7409.835
7402.04
7391.966
7384.056
7375.849
7367.499
7359.054
7350.555
7342.009
7333.432
7324.731
7315.968
7307.317
7298.527
7289.76
7281.082
7272.474
7263.925
7255.461
7247.111
7236.891
7228.574
7220.225
7212.167
7204.333
7196.65
7189.128
7181.788
7174.648
7167.72
7160.965
7154.327
7147.935
7141.849
7136.073
7130.656
7125.734
7121.573
7118.305
7115.318
7109.658
7103.972
7099.864
7095.832
7090.798
7085.146
7079.609
7074.385
7069.478
7064.883
7060.593
7056.593
7052.864
7049.387
7046.144
7043.119
7040.332
7037.871
7035.95
7034.819
7034.343
7034.559
7036.355
7039.06
7040.521
7040.77
7039.653
7036.26
7030.328
7026.675
7026.193
7026.843
7027.737
7028.743
7029.868
7031.096
7032.412
7033.812
7035.297
7036.868
7038.522
7040.258
7042.073
7043.966
7045.933
7047.972
7050.078
7052.249
7054.48
7056.768
7059.108
7061.497
7063.936
7066.42
7068.945
7071.507
7074.105
7076.734
7079.392
7082.073
7084.775
7087.496
7090.233
7092.982
7095.742
7098.509
7101.282
7104.057
7106.832
7109.606
7112.374
7115.134
7117.884
7120.621
7123.344
7126.057
7128.779
7131.538
7134.317
7137.034
7139.731
7142.418
7145.084
7147.724
7150.338
7152.927
7155.487
7158.015
7160.517
7162.994
7165.444
7167.865
7170.258
7172.622
7174.957
7177.261
7179.536
7181.78
7183.993
7186.173
7188.324
7190.446
7192.537
7194.595
7196.621
7198.616
7200.58
7202.513
7204.414
7206.284
7208.122
7209.928
7211.706
7213.453
7215.169
7216.855
7218.509
7220.133
7221.725
7223.286
7224.815
7226.311
7227.773
7229.2
7230.592
7231.96
7233.309
7234.73
7236.035
7237.142
7238.472
7239.769
7241.033
7242.264
7243.466
7244.64
7245.787
7246.906
7247.998
7249.063
7250.102
7251.114
7252.099
7253.056
7253.99
7254.897
7255.775
7256.623
7257.442
7258.229
7258.984
7259.703
7260.384
7261.024
7261.615
7262.151
7262.622
7263.012
7263.297
7263.444
7263.405
7263.129
7262.687
7262.646
7264.089
7265.996
7267.741
7269.356
7270.844
7272.233
7273.54
7274.779
7275.96
7277.092
7278.18
7279.231
7280.247
7281.233
7282.191
7283.122
7284.029
7284.914
7285.776
7286.619
7287.441
7288.245
7289.03
7289.798
7290.549
7291.284
7292.003
7292.707
7293.397
7294.075
7294.745
7295.412
7296.097
7296.89
7297.922
7298.561
7298.611
7298.737
7299.088
7299.519
7299.948
7300.365
7300.771
7301.166
7301.548
7301.916
7302.268
7302.603
7302.922
7303.224
7303.509
7303.777
7304.029
7304.264
7304.482
7304.683
7304.868
7305.037
7305.189
7305.325
7305.444
7305.548
7305.636
7305.709
7305.766
7305.809
7305.838
7305.852
7305.854
7305.844
7305.822
7305.792
7305.754
7305.712
7305.669
7305.629
7305.594
7305.557
7305.484
7305.306
7304.958
7304.516
7304.064
7303.616
7303.175
7302.738
7302.317
7301.86
7301.189
7300.481
7299.889
7299.308
7298.713
7298.116
7297.521
7296.921
7296.311
7295.69
7295.056
7294.408
7293.746
7293.068
7292.377
7291.671
7290.952
7290.218
7289.471
7288.71
7287.936
7287.149
7286.349
7285.537
7284.712
7283.874
7283.024
7282.163
7281.289
7280.405
7279.509
7278.602
7277.685
7276.757
7275.819
7274.872
7273.915
7272.948
7271.973
7270.99
7269.998
7268.998
7267.99
7266.975
7265.952
7264.923
7263.888
7262.845
7261.797
7260.743
7259.683
7258.617
7257.545
7256.468
7255.386
7254.298
7253.204
7252.104
7250.998
7249.885
7248.765
7247.637
7246.5
7245.353
7244.194
7243.022
7241.834
7240.628
7239.4
7238.146
7236.86
7235.536
7234.165
7232.735
7231.234
7229.642
7227.934
7226.082
7224.051
7221.822
7219.486
7217.337
7216.395
7217.084
7220.388
8094.434
8083.744
8068.195
8050.795
8032.071
8012.813
7993.561
7974.712
7956.356
7939.071
7919.876
7905.75
7891.313
7878.085
7865.832
7854.475
7843.9
7833.989
7825.188
7816.749
7807.635
7798.518
7790.625
7782.994
7775.549
7768.247
7761.042
7753.955
7747.512
7739.171
7731.759
7724.577
7717.328
7710.099
7702.874
7695.654
7688.53
7681.975
7673.919
7665.431
7658.669
7651.745
7644.731
7637.72
7630.744
7623.79
7616.874
7609.62
7602.599
7595.657
7588.583
7581.522
7574.516
7567.553
7560.614
7553.741
7545.154
7538.086
7530.828
7523.565
7516.346
7509.141
7501.908
7494.626
7487.286
7479.848
7472.406
7464.776
7456.979
7449.147
7441.295
7433.396
7425.437
7417.417
7409.325
7401.153
7392.736
7384.202
7375.7
7367.202
7358.662
7350.076
7341.452
7332.793
7324.104
7315.368
7306.573
7297.794
7289.052
7280.357
7271.713
7263.136
7254.638
7246.316
7238.259
7229.859
7221.516
7213.442
7205.569
7197.842
7190.268
7182.865
7175.65
7168.623
7161.765
7155.106
7148.699
7142.572
7136.75
7131.271
7126.182
7121.524
7117.241
7113.189
7108.065
7102.743
7098.081
7093.526
7088.513
7083.233
7078.033
7073.067
7068.36
7063.921
7059.754
7055.857
7052.225
7048.852
7045.736
7042.888
7040.341
7038.164
7036.464
7035.394
7034.869
7034.919
7035.722
7036.794
7037.205
7036.799
7035.527
7033.204
7029.845
7027.576
7027.041
7027.369
7027.987
7028.787
7029.76
7030.877
7032.113
7033.457
7034.901
7036.441
7038.072
7039.792
7041.593
7043.476
7045.436
7047.469
7049.571
7051.738
7053.967
7056.252
7058.586
7060.973
7063.421
7065.912
7068.443
7071.012
7073.615
7076.249
7078.911
7081.597
7084.304
7087.03
7089.771
7092.525
7095.289
7098.061
7100.838
7103.618
7106.4
7109.179
7111.955
7114.724
7117.485
7120.237
7122.981
7125.719
7128.457
7131.204
7133.955
7136.68
7139.38
7142.061
7144.72
7147.354
7149.963
7152.548
7155.11
7157.626
7160.134
7162.617
7165.073
7167.499
7169.897
7172.266
7174.605
7176.914
7179.192
7181.44
7183.657
7185.844
7187.999
7190.123
7192.216
7194.277
7196.307
7198.305
7200.272
7202.208
7204.111
7205.983
7207.822
7209.628
7211.409
7213.158
7214.877
7216.564
7218.22
7219.845
7221.44
7223.003
7224.535
7226.035
7227.505
7228.945
7230.356
7231.748
7233.123
7234.503
7235.952
7237.321
7238.625
7239.897
7241.145
7242.365
7243.557
7244.721
7245.858
7246.969
7248.053
7249.112
7250.144
7251.151
7252.13
7253.084
7254.013
7254.914
7255.787
7256.631
7257.445
7258.228
7258.979
7259.695
7260.374
7261.012
7261.606
7262.149
7262.635
7263.057
7263.406
7263.678
7263.878
7264.05
7264.321
7264.927
7266.004
7267.379
7268.81
7270.202
7271.537
7272.818
7274.046
7275.225
7276.36
7277.455
7278.514
7279.54
7280.536
7281.505
7282.448
7283.367
7284.263
7285.137
7285.991
7286.826
7287.641
7288.439
7289.219
7289.981
7290.727
7291.457
7292.172
7292.871
7293.556
7294.227
7294.887
7295.537
7296.172
7296.812
7297.318
7297.566
7297.913
7298.4
7298.924
7299.426
7299.893
7300.335
7300.758
7301.166
7301.556
7301.929
7302.284
7302.622
7302.942
7303.245
7303.531
7303.8
7304.051
7304.286
7304.503
7304.704
7304.888
7305.056
7305.207
7305.341
7305.46
7305.563
7305.65
7305.722
7305.779
7305.821
7305.849
7305.862
7305.863
7305.851
7305.827
7305.793
7305.749
7305.697
7305.637
7305.57
7305.49
7305.388
7305.244
7305.032
7304.721
7304.332
7303.917
7303.495
7303.066
7302.628
7302.173
7301.701
7301.212
7300.626
7299.996
7299.366
7298.747
7298.138
7297.533
7296.926
7296.312
7295.689
7295.053
7294.405
7293.742
7293.064
7292.373
7291.667
7290.947
7290.213
7289.465
7288.703
7287.928
7287.14
7286.338
7285.524
7284.698
7283.859
7283.008
7282.145
7281.27
7280.384
7279.487
7278.579
7277.66
7276.731
7275.792
7274.843
7273.885
7272.917
7271.941
7270.956
7269.963
7268.962
7267.953
7266.936
7265.913
7264.883
7263.846
7262.802
7261.753
7260.698
7259.636
7258.57
7257.497
7256.419
7255.336
7254.247
7253.152
7252.052
7250.945
7249.832
7248.711
7247.583
7246.446
7245.3
7244.142
7242.972
7241.787
7240.585
7239.363
7238.117
7236.842
7235.534
7234.185
7232.788
7231.334
7229.813
7228.216
7226.539
7224.793
7223.023
7221.352
7219.974
7219.235
7219.451
7220.473
7287.338
7440.746
7573.154
7700.097
7797.581
7887.174
7950.17
7998.265
8034.098
8057.428
8068.549
8070.801
8064.007
8054.849
8042.207
8026.819
8010.01
7992.594
7975.157
7958.091
7941.717
7926.252
7911.4
7897.379
7884.177
7871.812
7860.282
7849.504
7839.424
7830.041
7821.489
7809.118
7801.281
7793.854
7786.275
7778.791
7771.516
7764.395
7757.358
7750.358
7743.326
7736.292
7729.186
7722.027
7714.895
7707.81
7700.757
7693.724
7686.705
7679.669
7672.558
7665.262
7658.024
7650.916
7643.873
7636.86
7629.867
7622.887
7615.915
7608.95
7601.927
7594.882
7587.877
7580.902
7573.945
7567.005
7560.07
7553.223
7546.544
7539.482
7532.136
7524.898
7517.761
7510.621
7503.43
7496.176
7488.857
7481.467
7473.98
7466.35
7458.638
7450.876
7443.054
7435.163
7427.198
7419.158
7411.036
7402.818
7394.432
7385.963
7377.486
7368.978
7360.416
7351.802
7343.144
7334.445
7325.707
7316.937
7308.142
7299.347
7290.569
7281.824
7273.12
7264.476
7255.907
7247.425
7238.995
7230.504
7222.138
7213.974
7205.985
7198.15
7190.475
7182.973
7175.654
7168.522
7161.587
7154.866
7148.383
7142.162
7136.221
7130.578
7125.246
7120.225
7115.449
7110.771
7105.731
7100.584
7095.709
7090.945
7086.029
7081.016
7076.083
7071.335
7066.809
7062.522
7058.487
7054.71
7051.192
7047.936
7044.948
7042.243
7039.849
7037.81
7036.182
7035.025
7034.305
7033.967
7034.116
7034.48
7034.467
7033.955
7032.905
7031.307
7029.349
7027.941
7027.444
7027.564
7028.015
7028.7
7029.585
7030.637
7031.828
7033.142
7034.568
7036.097
7037.725
7039.444
7041.249
7043.141
7045.11
7047.154
7049.268
7051.448
7053.691
7055.996
7058.361
7060.775
7063.226
7065.721
7068.258
7070.834
7073.445
7076.088
7078.759
7081.455
7084.173
7086.909
7089.661
7092.425
7095.2
7097.982
7100.768
7103.556
7106.344
7109.129
7111.91
7114.685
7117.453
7120.214
7122.967
7125.714
7128.457
7131.202
7133.943
7136.664
7139.363
7142.044
7144.703
7147.339
7149.951
7152.537
7155.095
7157.647
7160.153
7162.629
7165.078
7167.499
7169.892
7172.256
7174.592
7176.897
7179.173
7181.418
7183.633
7185.817
7187.97
7190.092
7192.183
7194.242
7196.27
7198.266
7200.231
7202.164
7204.066
7205.935
7207.771
7209.561
7211.35
7213.103
7214.823
7216.511
7218.167
7219.793
7221.387
7222.951
7224.485
7225.989
7227.464
7228.911
7230.332
7231.732
7233.116
7234.491
7235.862
7237.185
7238.477
7239.748
7240.994
7242.212
7243.4
7244.562
7245.697
7246.806
7247.889
7248.946
7249.978
7250.984
7251.964
7252.918
7253.847
7254.749
7255.623
7256.469
7257.286
7258.074
7258.829
7259.552
7260.24
7260.89
7261.5
7262.067
7262.588
7263.059
7263.484
7263.883
7264.265
7264.677
7265.198
7265.923
7266.918
7268.113
7269.378
7270.638
7271.873
7273.078
7274.248
7275.384
7276.485
7277.554
7278.592
7279.602
7280.586
7281.544
7282.479
7283.391
7284.282
7285.152
7286.003
7286.835
7287.648
7288.444
7289.223
7289.984
7290.729
7291.458
7292.171
7292.869
7293.551
7294.217
7294.868
7295.502
7296.108
7296.686
7297.191
7297.622
7298.078
7298.558
7299.037
7299.503
7299.954
7300.388
7300.808
7301.213
7301.602
7301.973
7302.328
7302.666
7302.987
7303.291
7303.577
7303.846
7304.098
7304.333
7304.551
7304.752
7304.936
7305.104
7305.255
7305.389
7305.508
7305.61
7305.697
7305.768
7305.824
7305.865
7305.891
7305.903
7305.901
7305.885
7305.857
7305.816
7305.763
7305.699
7305.621
7305.529
7305.418
7305.279
7305.102
7304.87
7304.572
7304.217
7303.831
7303.428
7303.008
7302.573
7302.12
7301.653
7301.158
7300.593
7299.99
7299.384
7298.784
7298.185
7297.583
7296.976
7296.361
7295.736
7295.098
7294.448
7293.783
7293.105
7292.413
7291.706
7290.986
7290.251
7289.503
7288.741
7287.965
7287.177
7286.375
7285.56
7284.733
7283.893
7283.041
7282.177
7281.302
7280.415
7279.517
7278.608
7277.688
7276.758
7275.818
7274.868
7273.909
7272.94
7271.963
7270.977
7269.982
7268.98
7267.97
7266.953
7265.928
7264.897
7263.859
7262.815
7261.765
7260.709
7259.647
7258.58
7257.507
7256.429
7255.346
7254.257
7253.163
7252.063
7250.958
7249.847
7248.729
7247.604
7246.471
7245.329
7244.178
7243.016
7241.84
7240.65
7239.442
7238.215
7236.964
7235.686
7234.377
7233.033
7231.649
7230.224
7228.759
7227.263
7225.761
7224.301
7222.971
7221.889
7221.211
7221.068
7221.215
6320.605
6326.681
6344.146
6374.503
6421.961
6491.92
6576.411
6681.786
6804.339
6940.783
7087.657
7233.314
7379.808
7518.461
7642.741
7749.848
7858.883
7926.204
7975.802
8009.933
8030.999
8041.088
8042.643
8037.876
8029.48
8018.531
8005.177
7990.077
7974.246
7958.365
7942.823
7927.859
7913.603
7900.057
7887.225
7875.151
7863.808
7853.147
7843.112
7833.636
7824.619
7815.973
7807.353
7799.412
7791.874
7784.427
7777.113
7769.976
7762.971
7756.027
7749.107
7742.21
7735.276
7728.289
7721.311
7714.354
7707.417
7700.489
7693.563
7686.63
7679.688
7672.683
7665.563
7658.482
7651.491
7644.538
7637.594
7630.657
7623.727
7616.797
7609.855
7602.897
7595.942
7588.998
7582.066
7575.144
7568.236
7561.342
7554.463
7547.553
7540.431
7533.223
7526.063
7518.932
7511.775
7504.566
7497.293
7489.955
7482.538
7475.027
7467.422
7459.735
7451.973
7444.134
7436.217
7428.219
7420.137
7411.964
7403.691
7395.307
7386.843
7378.327
7369.758
7361.132
7352.453
7343.725
7334.955
7326.148
7317.317
7308.437
7299.561
7290.702
7281.872
7273.081
7264.344
7255.669
7247.06
7238.517
7230.034
7221.662
7213.441
7205.377
7197.467
7189.719
7182.144
7174.751
7167.549
7160.547
7153.759
7147.2
7140.887
7134.832
7129.041
7123.515
7118.236
7113.149
7108.164
7103.092
7098.045
7093.119
7088.284
7083.446
7078.616
7073.882
7069.314
7064.948
7060.805
7056.901
7053.245
7049.843
7046.702
7043.829
7041.239
7038.95
7036.989
7035.387
7034.166
7033.309
7032.773
7032.53
7032.421
7032.181
7031.68
7030.873
7029.804
7028.616
7027.71
7027.326
7027.4
7027.794
7028.432
7029.276
7030.295
7031.464
7032.764
7034.184
7035.714
7037.346
7039.074
7040.893
7042.793
7044.774
7046.83
7048.957
7051.152
7053.409
7055.727
7058.101
7060.528
7062.999
7065.513
7068.068
7070.66
7073.286
7075.942
7078.626
7081.335
7084.064
7086.811
7089.574
7092.349
7095.133
7097.925
7100.721
7103.52
7106.318
7109.115
7111.908
7114.696
7117.478
7120.252
7123.019
7125.779
7128.532
7131.279
7134.017
7136.738
7139.439
7142.12
7144.78
7147.417
7150.03
7152.618
7155.18
7157.722
7160.234
7162.716
7165.171
7167.597
7169.993
7172.361
7174.699
7177.007
7179.284
7181.532
7183.748
7185.933
7188.087
7190.21
7192.302
7194.362
7196.391
7198.388
7200.353
7202.287
7204.19
7206.063
7207.907
7209.734
7211.501
7213.242
7214.955
7216.639
7218.293
7219.916
7221.51
7223.074
7224.608
7226.113
7227.591
7229.041
7230.466
7231.869
7233.252
7234.617
7235.962
7237.281
7238.574
7239.842
7241.084
7242.297
7243.484
7244.644
7245.777
7246.885
7247.967
7249.024
7250.055
7251.06
7252.041
7252.995
7253.925
7254.828
7255.705
7256.554
7257.376
7258.17
7258.934
7259.669
7260.371
7261.041
7261.678
7262.28
7262.849
7263.386
7263.897
7264.381
7264.873
7265.409
7266.036
7266.802
7267.738
7268.809
7269.947
7271.104
7272.257
7273.397
7274.517
7275.612
7276.681
7277.725
7278.743
7279.737
7280.707
7281.655
7282.581
7283.485
7284.37
7285.236
7286.082
7286.91
7287.721
7288.514
7289.29
7290.049
7290.792
7291.519
7292.229
7292.923
7293.601
7294.262
7294.905
7295.528
7296.127
7296.699
7297.235
7297.73
7298.206
7298.676
7299.141
7299.599
7300.045
7300.477
7300.895
7301.297
7301.684
7302.055
7302.409
7302.746
7303.066
7303.369
7303.656
7303.925
7304.176
7304.411
7304.629
7304.83
7305.014
7305.181
7305.332
7305.466
7305.584
7305.685
7305.771
7305.841
7305.895
7305.934
7305.958
7305.967
7305.961
7305.941
7305.907
7305.858
7305.796
7305.719
7305.626
7305.515
7305.381
7305.22
7305.023
7304.783
7304.493
7304.159
7303.793
7303.402
7302.991
7302.561
7302.11
7301.637
7301.133
7300.589
7300.02
7299.44
7298.855
7298.264
7297.666
7297.06
7296.444
7295.816
7295.177
7294.525
7293.859
7293.18
7292.486
7291.779
7291.057
7290.322
7289.573
7288.81
7288.034
7287.244
7286.442
7285.626
7284.798
7283.957
7283.104
7282.24
7281.363
7280.475
7279.576
7278.665
7277.744
7276.813
7275.872
7274.921
7273.96
7272.99
7272.011
7271.024
7270.028
7269.025
7268.014
7266.995
7265.969
7264.937
7263.898
7262.853
7261.802
7260.745
7259.682
7258.615
7257.542
7256.464
7255.381
7254.293
7253.2
7252.102
7250.998
7249.89
7248.776
7247.655
7246.528
7245.393
7244.251
7243.098
7241.936
7240.761
7239.573
7238.369
7237.148
7235.908
7234.646
7233.361
7232.054
7230.726
7229.385
7228.044
7226.728
7225.477
7224.349
7223.417
7222.752
7222.401
7222.2
6547.161
6508.252
6476.207
6443.531
6417.063
6389.903
6368.745
6350.639
6336.354
6326.696
6321.968
6325.162
6338.303
6362.687
6401.297
6468.15
6548.821
6648.525
6768.891
6906.143
7055.6
7211.262
7365.087
7509.314
7637.27
7745.511
7832.144
7901.616
7953.209
7988.875
8011.209
8022.416
8024.48
8019.76
8011.031
8000.302
7988.128
7974.527
7960.14
7945.661
7931.481
7917.79
7904.68
7892.207
7880.415
7869.296
7858.78
7848.823
7839.387
7830.414
7821.818
7813.563
7805.593
7797.966
7790.605
7783.386
7776.291
7769.342
7762.475
7755.616
7748.743
7741.906
7735.041
7728.15
7721.251
7714.348
7707.439
7700.524
7693.6
7686.664
7679.711
7672.714
7665.681
7658.667
7651.693
7644.743
7637.804
7630.872
7623.948
7617.024
7610.098
7603.172
7596.245
7589.323
7582.406
7575.495
7568.587
7561.674
7554.736
7547.756
7540.697
7533.588
7526.467
7519.333
7512.166
7504.952
7497.68
7490.34
7482.924
7475.423
7467.835
7460.159
7452.399
7444.555
7436.627
7428.611
7420.505
7412.305
7404.006
7395.609
7387.127
7378.574
7369.957
7361.278
7352.54
7343.749
7334.91
7326.031
7317.118
7308.212
7299.292
7290.377
7281.484
7272.627
7263.819
7255.073
7246.395
7237.794
7229.274
7220.859
7212.576
7204.441
7196.46
7188.641
7180.995
7173.53
7166.256
7159.184
7152.322
7145.684
7139.279
7133.115
7127.193
7121.507
7116.037
7110.745
7105.58
7100.46
7095.401
7090.447
7085.597
7080.816
7076.109
7071.52
7067.097
7062.868
7058.855
7055.073
7051.53
7048.237
7045.2
7042.428
7039.932
7037.723
7035.819
7034.231
7032.967
7032.009
7031.319
7030.846
7030.494
7030.125
7029.655
7029.017
7028.281
7027.543
7026.992
7026.777
7026.905
7027.312
7027.949
7028.784
7029.794
7030.958
7032.258
7033.681
7035.218
7036.861
7038.601
7040.435
7042.354
7044.353
7046.429
7048.576
7050.79
7053.068
7055.405
7057.798
7060.243
7062.734
7065.268
7067.842
7070.452
7073.096
7075.77
7078.471
7081.195
7083.94
7086.703
7089.481
7092.27
7095.069
7097.875
7100.686
7103.498
7106.31
7109.121
7111.928
7114.729
7117.525
7120.312
7123.092
7125.863
7128.625
7131.377
7134.117
7136.841
7139.546
7142.231
7144.894
7147.535
7150.152
7152.743
7155.311
7157.853
7160.368
7162.854
7165.312
7167.74
7170.14
7172.51
7174.85
7177.159
7179.438
7181.687
7183.904
7186.09
7188.245
7190.368
7192.459
7194.519
7196.548
7198.544
7200.509
7202.443
7204.345
7206.217
7208.059
7209.872
7211.647
7213.391
7215.106
7216.79
7218.444
7220.068
7221.662
7223.227
7224.763
7226.27
7227.749
7229.202
7230.629
7232.033
7233.415
7234.776
7236.116
7237.431
7238.721
7239.984
7241.222
7242.433
7243.618
7244.776
7245.909
7247.016
7248.098
7249.155
7250.186
7251.193
7252.174
7253.131
7254.062
7254.968
7255.849
7256.703
7257.531
7258.333
7259.107
7259.854
7260.572
7261.262
7261.924
7262.558
7263.166
7263.751
7264.321
7264.885
7265.465
7266.085
7266.773
7267.556
7268.451
7269.442
7270.493
7271.573
7272.66
7273.745
7274.819
7275.876
7276.915
7277.934
7278.932
7279.909
7280.865
7281.801
7282.717
7283.614
7284.491
7285.351
7286.193
7287.017
7287.823
7288.613
7289.386
7290.143
7290.883
7291.606
7292.313
7293.004
7293.678
7294.334
7294.972
7295.589
7296.184
7296.755
7297.298
7297.808
7298.295
7298.772
7299.242
7299.701
7300.148
7300.581
7300.998
7301.4
7301.787
7302.157
7302.51
7302.847
7303.166
7303.469
7303.755
7304.023
7304.275
7304.509
7304.727
7304.927
7305.111
7305.277
7305.427
7305.561
7305.678
7305.778
7305.863
7305.931
7305.983
7306.02
7306.041
7306.046
7306.036
7306.011
7305.971
7305.915
7305.844
7305.756
7305.65
7305.524
7305.374
7305.198
7304.989
7304.743
7304.457
7304.134
7303.78
7303.399
7302.996
7302.57
7302.122
7301.65
7301.153
7300.627
7300.078
7299.514
7298.939
7298.354
7297.759
7297.154
7296.538
7295.91
7295.27
7294.616
7293.949
7293.269
7292.574
7291.866
7291.144
7290.407
7289.657
7288.893
7288.116
7287.325
7286.522
7285.705
7284.875
7284.033
7283.179
7282.313
7281.435
7280.545
7279.645
7278.733
7277.81
7276.877
7275.934
7274.982
7274.019
7273.048
7272.067
7271.078
7270.081
7269.076
7268.063
7267.043
7266.015
7264.981
7263.941
7262.894
7261.842
7260.784
7259.721
7258.652
7257.579
7256.501
7255.418
7254.331
7253.239
7252.142
7251.041
7249.936
7248.825
7247.71
7246.589
7245.462
7244.329
7243.188
7242.039
7240.882
7239.714
7238.536
7237.347
7236.145
7234.93
7233.704
7232.469
7231.23
7229.996
7228.781
7227.608
7226.507
7225.518
7224.687
7224.045
7223.622
7223.292
6804.015
6761.265
6700.018
6640.141
6587.745
6544.57
6507.124
6474.377
6445.366
6417.971
6391.028
6369.542
6350.828
6335.344
6323.415
6315.98
6315.014
6322.784
6341.314
6373.755
6422.505
6495.179
6588.687
6703.987
6839.981
6992.424
7152.447
7310.815
7459.725
7592.892
7706.478
7798.469
7870.482
7924.165
7961.781
7985.95
7999.134
8003.571
8001.314
7994.186
7984.039
7972.313
7959.615
7946.504
7933.377
7920.533
7908.141
7896.203
7884.775
7873.914
7863.626
7853.883
7844.641
7835.845
7827.441
7819.37
7811.602
7804.077
7796.771
7789.642
7782.633
7775.724
7768.904
7762.168
7755.406
7748.635
7741.884
7735.086
7728.247
7721.376
7714.477
7707.556
7700.616
7693.66
7686.687
7679.696
7672.686
7665.663
7658.648
7651.655
7644.683
7637.728
7630.785
7623.855
7616.932
7610.015
7603.103
7596.194
7589.29
7582.392
7575.496
7568.597
7561.689
7554.759
7547.8
7540.795
7533.743
7526.658
7519.544
7512.395
7505.198
7497.941
7490.616
7483.215
7475.73
7468.16
7460.5
7452.75
7444.911
7436.98
7428.956
7420.836
7412.617
7404.304
7395.893
7387.391
7378.809
7370.155
7361.432
7352.646
7343.804
7334.912
7325.979
7317.015
7308.034
7299.044
7290.058
7281.093
7272.16
7263.274
7254.446
7245.686
7237.006
7228.414
7219.929
7211.571
7203.356
7195.294
7187.393
7179.664
7172.117
7164.761
7157.606
7150.66
7143.932
7137.429
7131.156
7125.11
7119.284
7113.663
7108.221
7102.924
7097.735
7092.646
7087.676
7082.829
7078.093
7073.474
7068.996
7064.69
7060.578
7056.68
7053.007
7049.57
7046.377
7043.436
7040.753
7038.337
7036.196
7034.337
7032.764
7031.474
7030.45
7029.66
7029.058
7028.576
7028.158
7027.716
7027.2
7026.702
7026.263
7025.973
7025.926
7026.142
7026.596
7027.26
7028.113
7029.135
7030.309
7031.621
7033.059
7034.613
7036.273
7038.034
7039.888
7041.829
7043.852
7045.951
7048.122
7050.36
7052.662
7055.023
7057.439
7059.905
7062.419
7064.975
7067.571
7070.203
7072.868
7075.563
7078.284
7081.027
7083.792
7086.573
7089.368
7092.175
7094.991
7097.814
7100.641
7103.469
7106.297
7109.123
7111.945
7114.761
7117.57
7120.372
7123.164
7125.946
7128.718
7131.477
7134.223
7136.952
7139.663
7142.353
7145.022
7147.668
7150.289
7152.886
7155.458
7158.003
7160.521
7163.01
7165.471
7167.903
7170.305
7172.677
7175.019
7177.331
7179.612
7181.861
7184.08
7186.267
7188.422
7190.546
7192.638
7194.698
7196.726
7198.723
7200.688
7202.621
7204.523
7206.394
7208.234
7210.043
7211.819
7213.564
7215.279
7216.963
7218.616
7220.24
7221.834
7223.399
7224.935
7226.443
7227.923
7229.377
7230.805
7232.209
7233.589
7234.947
7236.282
7237.593
7238.878
7240.138
7241.372
7242.58
7243.762
7244.919
7246.05
7247.157
7248.238
7249.294
7250.325
7251.332
7252.315
7253.273
7254.206
7255.115
7255.999
7256.859
7257.693
7258.503
7259.288
7260.047
7260.782
7261.492
7262.178
7262.842
7263.487
7264.116
7264.738
7265.362
7266.002
7266.677
7267.404
7268.2
7269.073
7270.015
7271.007
7272.029
7273.063
7274.101
7275.134
7276.157
7277.167
7278.161
7279.138
7280.097
7281.039
7281.963
7282.868
7283.756
7284.627
7285.48
7286.316
7287.136
7287.939
7288.725
7289.495
7290.248
7290.986
7291.706
7292.411
7293.099
7293.769
7294.422
7295.056
7295.67
7296.263
7296.833
7297.378
7297.898
7298.397
7298.883
7299.357
7299.818
7300.266
7300.698
7301.116
7301.518
7301.903
7302.273
7302.626
7302.962
7303.282
7303.584
7303.87
7304.138
7304.389
7304.623
7304.84
7305.04
7305.223
7305.389
7305.539
7305.671
7305.787
7305.886
7305.969
7306.036
7306.086
7306.12
7306.138
7306.14
7306.126
7306.096
7306.05
7305.987
7305.908
7305.81
7305.693
7305.556
7305.394
7305.206
7304.989
7304.739
7304.455
7304.137
7303.791
7303.418
7303.02
7302.6
7302.156
7301.69
7301.2
7300.685
7300.149
7299.596
7299.029
7298.45
7297.859
7297.256
7296.641
7296.014
7295.373
7294.719
7294.052
7293.37
7292.675
7291.966
7291.242
7290.505
7289.753
7288.988
7288.21
7287.418
7286.613
7285.795
7284.964
7284.12
7283.265
7282.397
7281.517
7280.626
7279.723
7278.809
7277.885
7276.95
7276.005
7275.051
7274.086
7273.113
7272.13
7271.139
7270.14
7269.133
7268.118
7267.095
7266.066
7265.031
7263.988
7262.94
7261.887
7260.827
7259.763
7258.694
7257.619
7256.541
7255.458
7254.372
7253.281
7252.186
7251.088
7249.985
7248.879
7247.769
7246.654
7245.535
7244.412
7243.284
7242.15
7241.01
7239.865
7238.713
7237.555
7236.391
7235.223
7234.053
7232.885
7231.725
7230.582
7229.47
7228.408
7227.42
7226.532
7225.775
7225.163
7224.724
7224.347
6763.666
6722.279
6653.403
6607.423
6565.492
6528.904
6496.557
6467.288
6440.09
6414.981
6391.634
6369.818
6349.622
6331.151
6315.259
6303.193
6296.758
6298.179
6310.769
6338.004
6382.685
6448.913
6539.223
6652.306
6787.646
6940.783
7102.53
7262.905
7413.438
7547.756
7662.077
7755.11
7827.96
7882.905
7922.365
7948.854
7964.779
7972.317
7973.492
7970.051
7962.513
7952.093
7940.847
7929.604
7918.359
7907.113
7896.137
7885.592
7875.504
7865.85
7856.636
7847.882
7839.546
7831.557
7823.866
7816.425
7809.199
7802.14
7795.225
7788.43
7781.718
7775.057
7768.409
7761.803
7755.173
7748.535
7741.847
7735.104
7728.305
7721.455
7714.562
7707.633
7700.674
7693.692
7686.689
7679.672
7672.644
7665.61
7658.584
7651.576
7644.589
7637.622
7630.673
7623.74
7616.822
7609.915
7603.018
7596.13
7589.249
7582.375
7575.502
7568.627
7561.743
7554.841