/*--------------------------------*- C++ -*----------------------------------*\
| =========                 |                                                 |
| \\      /  F ield         | foam-extend: Open Source CFD                    |
|  \\    /   O peration     | Version:     3.1                                |
|   \\  /    A nd           | Web:         http://www.extend-project.de       |
|    \\/     M anipulation  |                                                 |
\*---------------------------------------------------------------------------*/
FoamFile
{
    version     2.0;
    format      ascii;
    class       surfaceScalarField;
    location    "1.5";
    object      phi;
}
// * * * * * * * * * * * * * * * * * * * * * * * * * * * * * * * * * * * * * //

dimensions      [0 3 -1 0 0 0 0];

internalField   nonuniform List<scalar> 
275122
(
-0.0001045601
0.0001056572
-5.66452e-08
-1.040435e-06
-9.424216e-05
8.99791e-05
3.349507e-07
3.928112e-06
-9.410722e-05
9.693746e-05
-6.394785e-08
-2.766301e-06
-0.000106158
0.0001092228
-6.398554e-08
-3.000826e-06
-0.0001168999
0.0001178672
-5.642983e-08
-9.108289e-07
-0.00011815
0.0001180343
-4.144378e-08
1.571304e-07
-0.0001172357
0.000116882
-3.150925e-08
3.85205e-07
-0.0001156703
0.0001152259
-2.484461e-08
4.693302e-07
-0.000113809
0.000113311
-1.978294e-08
5.177313e-07
-0.0001117588
0.000111223
-1.543599e-08
5.512244e-07
-0.0001095717
0.0001090074
-1.195909e-08
5.762675e-07
-0.0001072806
0.0001066943
-9.249965e-09
5.95488e-07
-0.0001049096
0.0001043066
-7.178862e-09
6.101247e-07
-0.0001024783
0.0001018629
-5.657318e-09
6.209923e-07
-0.0001000011
9.937595e-05
-4.119901e-09
6.292658e-07
-9.749845e-05
9.687179e-05
-3.330524e-09
6.299855e-07
-9.499144e-05
9.43668e-05
-2.987475e-09
6.276332e-07
-9.250657e-05
9.190281e-05
-4.987146e-09
6.087515e-07
-9.018537e-05
8.968231e-05
-2.037791e-08
5.234296e-07
-8.861649e-05
8.874821e-05
-1.123023e-07
-1.94252e-08
-9.826877e-05
0.0001016572
-2.941521e-07
-3.094254e-06
-0.0001029199
0.0001032331
-1.203838e-07
-1.928592e-07
-0.0001040274
0.0001046864
-6.710871e-08
-5.918582e-07
-0.0001159215
0.0001201047
8.351689e-08
-4.266762e-06
-0.0001212121
0.0001213612
1.736356e-07
-3.227132e-07
-0.0001224737
0.0001226161
7.720586e-08
-2.196717e-07
-0.000122597
0.0001224143
4.5612e-08
1.371319e-07
-0.0001213785
0.0001204564
4.294345e-08
8.791684e-07
-0.0001137734
0.0001067149
4.167244e-08
7.016821e-06
-0.0001292919
0.0001328875
3.130042e-09
-3.598715e-06
-8.27249e-05
8.664383e-05
-2.341288e-08
-3.895517e-06
-9.802429e-05
0.0001018477
1.45732e-09
-3.824878e-06
-0.0001135156
0.0001174645
1.4705e-09
-3.950421e-06
-0.0001295061
0.0001335766
1.415831e-09
-4.071872e-06
-0.0001458821
0.000150015
1.29012e-09
-4.134228e-06
-0.0001624465
0.0001666014
1.314403e-09
-4.156262e-06
-0.0001790919
0.0001832555
9.979298e-10
-4.164595e-06
-0.0001957157
0.0001998564
8.347521e-10
-4.141588e-06
-0.0002122543
0.0002163796
1.035577e-09
-4.126317e-06
-0.0002288638
0.0002332995
6.718991e-08
-4.502961e-06
3.662306e-06
-0.0001564141
0.0001566676
-3.869483e-10
-3.91542e-06
3.716786e-06
-0.000157404
0.0001575681
-2.641601e-10
-3.880601e-06
3.82825e-06
-0.0001578487
0.0001578828
-2.993204e-10
-3.862136e-06
3.911533e-06
-0.0001578345
0.0001577719
-2.116298e-10
-3.848693e-06
3.945659e-06
-0.0001575251
0.0001574124
-1.950817e-10
-3.832696e-06
3.944849e-06
-0.0001570605
0.0001569311
2.883107e-11
-3.815487e-06
3.949712e-06
-0.0001565397
0.0001563905
-1.752532e-10
-3.800297e-06
3.940685e-06
-0.0001559645
0.0001558085
-5.98851e-11
-3.784586e-06
4.046801e-06
-0.0001553153
0.0001550329
4.929961e-11
-3.764428e-06
3.399913e-06
-0.0006222667
0.0006220984
-3.484061e-12
-1.378517e-05
3.581059e-06
3.395832e-06
3.57666e-06
3.60591e-06
-0.0006215998
0.0006208107
-5.441015e-13
-1.379614e-05
3.68999e-06
3.603333e-06
3.686048e-06
3.656553e-06
-0.000619811
0.0006186815
3.025082e-12
-1.357318e-05
3.697298e-06
3.653916e-06
3.694929e-06
3.665871e-06
-0.000617486
0.0006162293
5.960998e-12
-1.344201e-05
3.685795e-06
3.66337e-06
3.683618e-06
3.65206e-06
-0.0006149801
0.0006136803
8.8751e-12
-1.332561e-05
3.66218e-06
3.650423e-06
3.66073e-06
3.645569e-06
-0.0006123479
0.0006110021
5.329758e-11
-1.323405e-05
3.645832e-06
3.644088e-06
3.644299e-06
3.628636e-06
-0.0006096511
0.0006082847
4.802907e-11
-1.314252e-05
3.626374e-06
3.628041e-06
3.625841e-06
3.613073e-06
-0.0006069149
0.0006055221
-1.996845e-12
-1.305561e-05
3.611219e-06
3.613488e-06
3.610651e-06
3.589954e-06
-0.000604134
0.000602668
-7.699903e-12
-1.290699e-05
3.597248e-06
3.589134e-06
3.596748e-06
3.367088e-06
-0.000601055
0.0006003445
1.358396e-11
-1.281222e-05
3.393616e-06
3.367867e-06
3.394042e-06
3.554489e-06
-0.0005989923
0.0005974804
3.920718e-12
-1.256033e-05
3.480611e-06
3.555654e-06
3.481432e-06
3.435873e-06
-0.000596218
0.000594968
7.013873e-12
-1.245269e-05
3.414744e-06
3.436743e-06
3.41536e-06
3.407747e-06
-0.0005937346
0.000592514
1.313682e-11
-1.239281e-05
3.398593e-06
3.408118e-06
3.398889e-06
3.387483e-06
-0.0005913036
0.0005900913
2.034223e-11
-1.232756e-05
3.382545e-06
3.387376e-06
3.382512e-06
3.379499e-06
-0.0005888713
0.0005876421
4.286482e-12
-1.228423e-05
3.3789e-06
3.37785e-06
3.377093e-06
3.388118e-06
-0.000586409
0.0005851682
-5.127612e-13
-1.230016e-05
3.391383e-06
3.379599e-06
3.381813e-06
3.451891e-06
-0.0005839246
0.0005826457
-5.336476e-12
-1.247952e-05
3.471351e-06
3.410764e-06
3.424421e-06
3.744435e-06
-0.0005812732
0.0005795163
-4.072583e-12
-1.30521e-05
3.850533e-06
3.571031e-06
3.642978e-06
4.662118e-06
-0.0005768595
0.0005722706
-2.311124e-12
-1.382006e-05
5.142509e-06
4.226978e-06
4.377404e-06
3.752472e-06
-0.0005662568
0.0005701511
-1.656292e-12
-7.646719e-06
4.946235e-06
-0.0005728435
0.0005726609
-9.247717e-14
-4.763661e-06
8.559927e-06
-0.0005711814
0.0005694545
-3.01119e-13
-6.833004e-06
7.420388e-06
-0.0005677516
0.0005660338
-1.957774e-13
-5.702647e-06
2.987028e-06
-0.0005647015
0.000564484
4.574993e-14
-2.7696e-06
3.036033e-07
-0.000564517
0.0005644239
3.955645e-13
-2.105632e-07
-9.67319e-07
-0.0005644587
0.000564505
7.416041e-13
9.21021e-07
-1.561143e-06
-0.0005645046
0.0005644495
1.386972e-12
1.616271e-06
-1.907743e-06
-0.0005643635
0.0005642366
2.117277e-12
2.034584e-06
-2.124681e-06
-0.0005640916
0.0005639262
2.600364e-12
2.290108e-06
-2.275855e-06
-0.0005637567
0.0005635809
2.890772e-12
2.451647e-06
-2.381528e-06
-0.0005634083
0.0005632384
3.110642e-12
2.551361e-06
-2.451513e-06
-0.0005630761
0.0005629235
3.264426e-12
2.604149e-06
-2.48821e-06
-0.0005627818
0.0005626558
3.328512e-12
2.614224e-06
-2.489354e-06
-0.0005625429
0.0005624522
3.231716e-12
2.580042e-06
-2.450827e-06
-0.000562383
0.0005623438
3.240025e-12
2.490023e-06
-2.327851e-06
-0.0005623265
0.0005623502
4.077574e-12
2.304186e-06
-2.055531e-06
-0.0005624075
0.000562513
2.742559e-12
1.950113e-06
-1.417722e-06
-0.0005626425
0.0005627898
2.408665e-12
1.270441e-06
2.451882e-07
-0.0005628688
0.0005626359
1.956476e-12
-1.228681e-08
1.929209e-06
-0.0005615124
0.0005609207
1.722792e-12
-1.337477e-06
1.36388e-06
-0.0005611176
0.0005613412
1.76573e-12
-1.587489e-06
4.807859e-06
-0.0005612694
0.000560322
1.377741e-12
-3.860446e-06
9.370317e-06
-0.0005567815
0.0005535024
7.323029e-13
-6.091144e-06
3.34064e-06
-0.0005516654
0.0005510188
2.571481e-13
-2.6941e-06
2.408918e-07
-0.0005504642
0.0005497118
-1.179693e-13
5.11443e-07
-2.933017e-06
-0.0005491459
0.000548555
-6.64389e-13
3.523941e-06
-8.450719e-06
-0.0005481789
0.0005483785
-1.095467e-12
8.251085e-06
-2.234933e-05
-0.0005499733
0.0005568021
-2.093728e-12
1.552047e-05
-4.276354e-06
-0.0005650481
0.0005662886
-2.169421e-12
1.364971e-05
-3.124856e-06
-4.311433e-06
-3.177484e-06
-1.735834e-06
-0.0005658613
0.0005654149
-1.624367e-12
7.18512e-06
-1.592299e-06
-1.778081e-06
-1.632513e-06
-1.083307e-06
-0.0005647867
0.0005641504
-1.999626e-12
4.875685e-06
-1.006317e-06
-1.115378e-06
-1.034431e-06
-8.13292e-07
-0.0005635892
0.0005631738
-2.014319e-12
3.661654e-06
-7.892657e-07
-8.35114e-07
-8.086047e-07
-7.039646e-07
-0.0005628523
0.0005626298
-1.835158e-12
3.039456e-06
-6.907009e-07
-7.181899e-07
-7.041032e-07
-6.457356e-07
-0.0005624661
0.0005623751
-2.304373e-12
2.679912e-06
-6.393074e-07
-6.557452e-07
-6.481316e-07
-6.144749e-07
-0.0005623248
0.0005623271
-2.606041e-12
2.459303e-06
-6.107334e-07
-6.204226e-07
-6.159691e-07
-5.953055e-07
-0.0005623583
0.000562429
-2.50773e-12
2.312158e-06
-5.928354e-07
-5.987499e-07
-5.959747e-07
-5.821354e-07
-0.0005625214
0.0005626444
-2.314184e-12
2.207034e-06
-5.804412e-07
-5.846001e-07
-5.828213e-07
-5.72947e-07
-0.0005627844
0.0005629489
-2.10616e-12
2.129331e-06
-5.718081e-07
-5.751257e-07
-5.73987e-07
-5.666164e-07
-0.0005631272
0.0005633258
-1.941498e-12
2.070674e-06
-5.659356e-07
-5.687077e-07
-5.679946e-07
-5.623002e-07
-0.0005635358
0.0005637624
-1.88342e-12
2.02529e-06
-5.618543e-07
-5.641362e-07
-5.63595e-07
-5.594145e-07
-0.0005639984
0.0005642486
-1.93318e-12
1.989729e-06
-5.591794e-07
-5.608262e-07
-5.605132e-07
-5.575933e-07
-0.0005645069
0.0005647773
-2.046242e-12
1.961866e-06
-5.575039e-07
-5.586711e-07
-5.585222e-07
-5.565596e-07
-0.0005650548
0.0005653427
-2.172472e-12
1.939945e-06
-5.565764e-07
-5.573892e-07
-5.573629e-07
-5.561049e-07
-0.0005656367
0.00056594
-2.26673e-12
1.922623e-06
-5.561949e-07
-5.56755e-07
-5.56813e-07
-5.560719e-07
-0.0005662486
0.0005665653
-2.326498e-12
1.908871e-06
-5.562114e-07
-5.565909e-07
-5.56707e-07
-5.563522e-07
-0.0005668868
0.0005672154
-2.381663e-12
1.897933e-06
-5.565284e-07
-5.567746e-07
-5.569328e-07
-5.568746e-07
-0.0005675483
0.0005678876
-2.436795e-12
1.889271e-06
-5.5708e-07
-5.572248e-07
-5.574163e-07
-5.575957e-07
-0.0005682308
0.0005685797
-2.513986e-12
1.882529e-06
-5.578251e-07
-5.578919e-07
-5.581111e-07
-5.58499e-07
-0.000568932
0.0005692895
-2.622703e-12
1.877517e-06
-5.587525e-07
-5.58756e-07
-5.590009e-07
-5.595891e-07
-0.0005696501
0.0005700153
-2.722724e-12
1.874178e-06
-5.598686e-07
-5.598161e-07
-5.600879e-07
-5.608779e-07
-0.0005703833
0.0005707553
-2.825109e-12
1.872492e-06
-5.611874e-07
-5.610802e-07
-5.613843e-07
-5.623797e-07
-0.0005711299
0.0005715081
-2.884359e-12
1.872375e-06
-5.627311e-07
-5.625582e-07
-5.629056e-07
-5.641851e-07
-0.0005718886
0.0005722721
-2.757026e-12
1.874352e-06
-5.646041e-07
-5.64333e-07
-5.647336e-07
-5.663968e-07
0.0005730454
-2.703799e-12
1.878858e-06
-5.668448e-07
-5.664931e-07
-5.669675e-07
-0.0005726576
-5.69018e-07
-0.000573435
0.0005738267
-5.156722e-12
1.886006e-06
-5.696489e-07
-5.692117e-07
-5.698316e-07
-5.715821e-07
-0.00057422
0.0005746135
-1.672883e-11
1.894916e-06
-5.721341e-07
-5.720631e-07
-5.72656e-07
-5.741583e-07
-0.0005750071
0.0005754003
-1.950356e-11
1.904663e-06
-5.745465e-07
-5.743548e-07
-5.747908e-07
-5.777182e-07
-0.0005757942
0.0005761887
-5.156535e-12
1.917575e-06
-5.782715e-07
-5.777766e-07
-5.782748e-07
-5.81504e-07
-0.0005765835
0.0005769774
-3.36715e-12
1.933882e-06
-5.821788e-07
-5.816952e-07
-5.823395e-07
-5.852671e-07
-0.0005773706
0.0005777626
-4.208671e-12
1.950843e-06
-5.860653e-07
-5.853545e-07
-5.861412e-07
-5.892027e-07
-0.0005781543
0.0005785445
-4.548634e-12
1.968173e-06
-5.899407e-07
-5.89263e-07
-5.899917e-07
-5.930534e-07
-0.0005789344
0.0005793228
-4.41384e-12
1.985312e-06
-5.937496e-07
-5.93084e-07
-5.937765e-07
-5.967483e-07
-0.0005797107
0.0005800972
-4.738996e-12
2.001896e-06
-5.973916e-07
-5.96773e-07
-5.974177e-07
-6.001935e-07
-0.0005804832
0.0005808678
-5.169142e-12
2.017397e-06
-6.007724e-07
-6.00231e-07
-6.008118e-07
-6.032936e-07
-0.0005812521
0.0005816351
-5.440411e-12
2.031294e-06
-6.038018e-07
-6.0335e-07
-6.038606e-07
-6.060085e-07
-0.0005820179
0.0005823997
-5.531431e-12
2.043278e-06
-6.064609e-07
-6.060851e-07
-6.065386e-07
-6.083643e-07
-0.0005827814
0.0005831626
-5.656052e-12
2.053283e-06
-6.087792e-07
-6.084544e-07
-6.088694e-07
-6.104208e-07
-0.000583544
0.0005839252
-5.874317e-12
2.061412e-06
-6.107997e-07
-6.105124e-07
-6.108898e-07
-6.122447e-07
-0.0005843068
0.0005846888
-6.096975e-12
2.067854e-06
-6.125953e-07
-6.123151e-07
-6.12653e-07
-6.138668e-07
-0.0005850715
0.0005854549
-6.278388e-12
2.072791e-06
-6.141734e-07
-6.139157e-07
-6.142303e-07
-6.152061e-07
-0.0005858392
0.0005862247
-6.416377e-12
2.076271e-06
-6.155249e-07
-6.153645e-07
-6.156986e-07
-6.163571e-07
-0.0005866115
0.0005869996
-6.67427e-12
2.078185e-06
-6.166338e-07
-6.165544e-07
-6.168141e-07
-6.172438e-07
-0.0005873892
0.0005877808
-7.195099e-12
2.078123e-06
-6.175296e-07
-6.173597e-07
-6.176333e-07
-6.177518e-07
-0.0005881744
0.000588571
-7.83002e-12
2.075086e-06
-6.179666e-07
-6.178623e-07
-6.180743e-07
-6.172287e-07
-0.0005889703
0.0005893744
-8.562963e-12
2.065141e-06
-6.172531e-07
-6.173455e-07
-6.17363e-07
-6.135448e-07
-0.0005897834
0.0005901995
-8.743526e-12
2.036783e-06
-6.127575e-07
-6.136919e-07
-6.128843e-07
-5.946139e-07
-0.0005906225
0.0005910338
-7.316018e-12
1.956392e-06
-5.890428e-07
-5.94856e-07
-5.892404e-07
-5.240206e-07
-0.000591397
0.0005916201
-7.05277e-12
1.811495e-06
-4.921705e-07
-5.249779e-07
-4.934526e-07
-5.37185e-07
-0.0005920391
0.0005922769
-6.248814e-12
1.922963e-06
-5.452785e-07
-5.353951e-07
-5.429005e-07
-5.360191e-07
-0.0005925342
0.00059282
-4.743054e-12
1.880681e-06
-5.485442e-07
-5.346519e-07
-5.472411e-07
-5.443036e-07
-0.0005931281
0.0005934344
-3.388708e-12
1.874137e-06
-5.467048e-07
-5.434586e-07
-5.460161e-07
-5.595802e-07
-0.0005937648
0.0005941121
-2.256063e-12
1.89351e-06
-5.613887e-07
-5.589923e-07
-5.608794e-07
-5.731881e-07
-0.0005944729
0.0005948437
-1.246146e-12
1.922968e-06
-5.741845e-07
-5.726877e-07
-5.737467e-07
-5.846011e-07
-0.0005952229
0.0005956079
-4.814947e-13
1.954621e-06
-5.855611e-07
-5.842138e-07
-5.852271e-07
-5.945532e-07
-0.000595998
0.0005963911
1.180041e-14
1.98644e-06
-5.954823e-07
-5.942767e-07
-5.952303e-07
-6.032089e-07
-0.0005967873
0.0005971847
1.770842e-13
2.016744e-06
-6.04066e-07
-6.02983e-07
-6.038565e-07
-6.107866e-07
-0.0005975839
0.0005979831
-1.166235e-13
2.045104e-06
-6.115922e-07
-6.105748e-07
-6.113725e-07
-6.1748e-07
-0.0005983834
0.0005987828
-9.636457e-13
2.07145e-06
-6.181317e-07
-6.172949e-07
-6.180005e-07
-6.233964e-07
-0.0005991827
0.0005995815
-1.984609e-12
2.096087e-06
-6.240791e-07
-6.233428e-07
-6.240595e-07
-6.28756e-07
-0.0005999802
0.0006003769
-3.186751e-12
2.119404e-06
-6.293289e-07
-6.287573e-07
-6.293015e-07
-6.337851e-07
-0.0006007732
0.0006011674
-4.366562e-12
2.141955e-06
-6.343226e-07
-6.337315e-07
-6.342735e-07
-6.385707e-07
-0.0006015609
0.0006019519
-5.378088e-12
2.164168e-06
-6.390674e-07
-6.38504e-07
-6.389997e-07
-6.431418e-07
-0.0006023419
0.0006027292
-6.1623e-12
2.186068e-06
-6.435967e-07
-6.430742e-07
-6.435194e-07
-6.47542e-07
-0.0006031154
0.0006034985
-6.548582e-12
2.207749e-06
-6.479501e-07
-6.47482e-07
-6.478943e-07
-6.517775e-07
-0.0006038803
0.0006042589
-6.593055e-12
2.229169e-06
-6.521728e-07
-6.517134e-07
-6.520998e-07
-6.558588e-07
-0.0006046361
0.0006050099
-6.279986e-12
2.250268e-06
-6.562443e-07
-6.557827e-07
-6.561566e-07
-6.598457e-07
-0.0006053821
0.000605751
-5.844995e-12
2.271113e-06
-6.602214e-07
-6.597741e-07
-6.601473e-07
-6.637679e-07
-0.0006061184
0.0006064827
-3.773838e-12
2.29158e-06
-6.642276e-07
-6.636717e-07
-6.641832e-07
-6.67035e-07
-0.0006068456
0.0006072033
4.335305e-12
2.311924e-06
-6.677337e-07
-6.670719e-07
-6.676899e-07
-6.6914e-07
-0.0006075583
0.0006079094
-5.388909e-12
2.327485e-06
-6.702254e-07
-6.691405e-07
-6.70071e-07
-6.727567e-07
-0.0006082602
0.0006086091
1.185806e-11
2.341645e-06
-6.724802e-07
-6.728238e-07
-6.724933e-07
-6.77041e-07
-0.0006089588
0.0006093046
1.120086e-12
2.361165e-06
-6.765647e-07
-6.769642e-07
-6.764883e-07
-6.801667e-07
-0.0006096483
0.0006099884
-1.28957e-12
2.380202e-06
-6.801413e-07
-6.800305e-07
-6.800072e-07
-6.833318e-07
0.0006106625
-2.396674e-13
2.397733e-06
-0.0006103271
-6.833696e-07
-6.832062e-07
-6.832704e-07
-6.862307e-07
-0.0006109966
0.0006113278
1.472467e-12
2.41388e-06
-6.86295e-07
-6.862302e-07
-6.863288e-07
-6.889374e-07
-0.0006116576
0.0006119844
2.178553e-12
2.429024e-06
-6.889236e-07
-6.889892e-07
-6.889717e-07
-6.915133e-07
-0.0006123098
0.0006126324
2.579564e-12
2.443384e-06
-6.91507e-07
-6.914999e-07
-6.914862e-07
-6.940961e-07
-0.0006129538
0.0006132726
3.094792e-12
2.457507e-06
-6.940694e-07
-6.940605e-07
-6.940325e-07
-6.966048e-07
-0.0006135901
0.0006139051
3.669615e-12
2.471254e-06
-6.965598e-07
-6.965603e-07
-6.965111e-07
-6.99079e-07
-0.000614219
0.0006145303
4.230204e-12
2.484717e-06
-6.99004e-07
-6.990384e-07
-6.989721e-07
-7.0149e-07
-0.0006148406
0.0006151484
4.595403e-12
2.497862e-06
-7.013987e-07
-7.014523e-07
-7.013538e-07
-7.038577e-07
-0.0006154552
0.0006157595
4.835808e-12
2.510702e-06
-7.037438e-07
-7.038014e-07
-7.036809e-07
-7.0619e-07
-0.0006160629
0.000616364
4.926616e-12
2.523252e-06
-7.060469e-07
-7.061304e-07
-7.05996e-07
-7.084596e-07
-0.0006166641
0.000616962
4.872146e-12
2.535508e-06
-7.082964e-07
-7.084074e-07
-7.082448e-07
-7.106983e-07
-0.000617259
0.0006175537
4.659886e-12
2.547531e-06
-7.105097e-07
-7.106283e-07
-7.104408e-07
-7.129032e-07
-0.0006178475
0.0006181392
4.297232e-12
2.55937e-06
-7.12704e-07
-7.128295e-07
-7.126445e-07
-7.15051e-07
-0.0006184301
0.0006187188
3.814843e-12
2.570957e-06
-7.148473e-07
-7.149981e-07
-7.147999e-07
-7.17174e-07
-0.0006190067
0.0006192925
3.391285e-12
2.582261e-06
-7.169674e-07
-7.170958e-07
-7.16891e-07
-7.192706e-07
-0.0006195776
0.0006198608
2.750952e-12
2.593283e-06
-7.190989e-07
-7.191486e-07
-7.189685e-07
-7.213407e-07
-0.0006201434
0.0006204241
2.251266e-12
2.603931e-06
-7.211559e-07
-7.211921e-07
-7.21033e-07
-7.23199e-07
-0.0006207043
0.0006209831
1.898509e-12
2.613796e-06
-7.231148e-07
-7.231512e-07
-7.23137e-07
-7.248534e-07
-0.0006212615
0.0006215385
1.124132e-12
2.622432e-06
-7.24851e-07
-7.24886e-07
-7.248753e-07
-7.262547e-07
-0.0006218153
0.0006220915
7.774101e-13
2.629087e-06
-7.264759e-07
-7.26206e-07
-7.263904e-07
-7.274638e-07
-0.0006223681
0.0006226456
-4.962016e-13
2.632758e-06
-7.277812e-07
-7.272612e-07
-7.277409e-07
-7.275524e-07
-0.0006229249
0.0006232075
-3.048382e-12
2.629192e-06
-7.285313e-07
-7.280929e-07
-7.275904e-07
-7.26855e-07
-0.0006234965
0.0006237961
-6.857869e-12
2.607461e-06
-7.26321e-07
-7.273722e-07
-7.265785e-07
-7.177313e-07
-0.0006241143
0.0006244355
-2.363269e-12
2.528571e-06
-7.07362e-07
-7.170327e-07
-7.076565e-07
-4.777829e-07
-0.0006245418
0.0006239869
-3.785269e-12
2.331249e-06
-4.104427e-07
-4.763661e-07
-4.118476e-07
-3.186711e-07
-0.000155405
0.000155107
2.382682e-11
6.166575e-07
-5.381514e-07
-0.0001546499
0.0001545938
-1.108928e-10
5.943331e-07
-6.162424e-07
-0.0001545555
0.0001545675
-8.438681e-11
6.042312e-07
-6.547051e-07
-0.000154642
0.0001546735
-5.290704e-11
6.23258e-07
-6.775694e-07
-0.0001547774
0.0001548136
-2.745228e-11
6.414075e-07
-6.926337e-07
-0.000154924
0.0001549609
-1.119252e-11
6.55778e-07
-7.034327e-07
-0.0001550709
0.0001551071
-1.338434e-12
6.672263e-07
-7.116788e-07
-0.0001552144
0.0001552495
4.100268e-12
6.765611e-07
-7.182475e-07
-0.0001553532
0.0001553871
1.03527e-11
6.843331e-07
-7.236597e-07
-0.0001554874
0.0001555201
1.507366e-11
6.909768e-07
-7.282939e-07
-0.0001556166
0.0001556483
8.852523e-12
6.966642e-07
-7.321074e-07
-0.0001557416
0.000155772
5.345241e-12
7.016359e-07
-7.355892e-07
-0.000155862
0.0001558914
1.114789e-11
7.061977e-07
-7.397118e-07
-0.0001559782
0.000156007
1.663071e-11
7.108838e-07
-7.420012e-07
-0.0001560938
0.0001561221
-1.474819e-12
7.137218e-07
-7.413786e-07
-0.0001562043
0.0001562303
-5.423592e-12
7.154093e-07
-7.441317e-07
-0.0001563069
0.0001563324
1.764207e-11
7.186248e-07
-7.474213e-07
-0.0001564092
0.0001564347
1.729344e-11
7.218697e-07
-7.497057e-07
-0.0001565106
0.0001565357
1.82786e-11
7.246638e-07
-7.514583e-07
-0.0001566098
0.0001566343
1.888453e-11
7.270055e-07
-7.529409e-07
-0.0001567068
0.0001567307
2.084641e-11
7.289954e-07
-7.542488e-07
-0.0001568019
0.0001568254
1.970602e-11
7.306921e-07
-7.553776e-07
-0.0001568956
0.0001569188
1.908293e-11
7.32105e-07
-7.563668e-07
-0.0001569883
0.0001570114
2.259527e-11
7.332433e-07
-7.572101e-07
-0.0001570807
0.0001571038
2.758231e-11
7.340895e-07
-7.578627e-07
-0.0001571736
0.0001571968
2.920934e-11
7.345821e-07
-7.581257e-07
-0.0001572675
0.0001572911
1.830672e-11
7.344496e-07
-7.580458e-07
-0.0001573639
0.0001573883
1.248401e-11
7.336058e-07
-7.573945e-07
-0.0001574642
0.0001574899
1.94826e-11
7.31716e-07
-7.560389e-07
-0.0001575712
0.0001575989
2.166636e-11
7.283341e-07
-7.535021e-07
-0.0001576888
0.00015772
2.38709e-11
7.223263e-07
-7.489458e-07
-0.0001578247
0.0001578626
2.449416e-11
7.109543e-07
-7.371132e-07
-0.0001579829
0.0001580294
5.362182e-11
6.905556e-07
-7.189765e-07
-0.000158209
0.0001582849
2.914648e-11
6.430872e-07
-6.468152e-07
-0.0001585724
0.0001587146
2.484464e-11
5.045718e-07
2.08078e-07
-0.0001592021
0.0001591203
3.246004e-11
-1.263325e-07
6.72033e-07
-0.0001588224
0.0001587619
1.459538e-11
-6.115464e-07
7.375866e-07
-0.0001586142
0.0001585829
1.042823e-11
-7.063043e-07
7.617619e-07
-0.0001585155
0.0001585019
5.685101e-12
-7.481939e-07
7.782493e-07
-0.0001584766
0.0001584731
8.504708e-13
-7.747641e-07
7.871885e-07
-0.0001584732
0.0001584769
-5.025926e-12
-7.909651e-07
7.939478e-07
-0.0001584974
0.0001585068
-6.246274e-12
-8.033482e-07
7.986898e-07
-0.0001585412
0.0001585547
-4.72793e-12
-8.122082e-07
8.023962e-07
-0.0001586001
0.0001586168
-5.466522e-12
-8.19092e-07
8.052725e-07
-0.0001586706
0.0001586898
-8.747138e-12
-8.244335e-07
8.075673e-07
-0.0001587501
0.0001587712
-9.480661e-12
-8.286409e-07
8.095763e-07
-0.0001588364
0.0001588588
-8.399164e-12
-8.320316e-07
8.112971e-07
-0.0001589278
0.0001589513
-7.665293e-12
-8.347988e-07
8.128491e-07
-0.0001590229
0.0001590472
-5.891215e-12
-8.371113e-07
8.142361e-07
-0.0001591207
0.0001591456
-6.479223e-12
-8.390401e-07
8.154855e-07
-0.0001592205
0.0001592457
-5.906831e-12
-8.406656e-07
8.166463e-07
-0.0001593215
0.0001593469
-4.354583e-12
-8.420508e-07
8.176979e-07
-0.0001594233
0.0001594488
-4.388284e-12
-8.432216e-07
8.18667e-07
-0.0001595254
0.0001595509
-4.900369e-12
-8.442154e-07
8.195537e-07
-0.0001596274
0.0001596529
-3.606748e-12
-8.450429e-07
8.203506e-07
-0.0001597291
0.0001597544
-3.112991e-12
-8.457161e-07
8.21073e-07
-0.0001598301
0.0001598553
-4.132244e-12
-8.462445e-07
8.21699e-07
-0.0001599303
0.0001599552
-2.862286e-12
-8.466236e-07
8.222469e-07
-0.0001600293
0.0001600539
-9.467744e-13
-8.468752e-07
8.227557e-07
-0.000160127
0.0001601512
-1.181377e-12
-8.47012e-07
8.231266e-07
-0.000160223
0.0001602469
-3.316802e-12
-8.470056e-07
8.23342e-07
-0.0001603173
0.0001603408
-3.533485e-12
-8.468376e-07
8.235468e-07
-0.0001604098
0.0001604328
-3.290245e-12
-8.465759e-07
8.236396e-07
-0.0001605002
0.0001605228
-2.944232e-12
-8.462125e-07
8.236727e-07
-0.0001605884
0.0001606105
-1.891192e-12
-8.457718e-07
8.236348e-07
-0.0001606743
0.000160696
-2.383759e-12
-8.452427e-07
8.236746e-07
-0.0001607576
0.0001607786
-2.437163e-12
-8.44656e-07
8.23032e-07
-0.0001608379
0.0001608585
-3.327831e-14
-8.436215e-07
8.270555e-07
-0.0001609216
0.0001609408
6.514631e-11
-8.463204e-07
8.738312e-07
-0.0001610001
0.0001610001
1.721255e-10
-8.740615e-07
8.077476e-07
-0.0001603892
0.0006478996
1.129396e-10
-3.171595e-06
7.538833e-08
8.293704e-07
5.692466e-08
-0.000160392
-0.0001628576
-0.0001628588
4.719687e-07
-0.0006498099
0.0006505013
1.041455e-12
-2.951741e-06
6.714334e-07
4.568286e-07
6.601026e-07
6.09018e-07
-0.000651071
0.0006515506
5.845626e-12
-3.011145e-06
6.646351e-07
6.005327e-07
6.573414e-07
6.711222e-07
-0.0006519657
0.0006522624
1.377134e-11
-3.028564e-06
7.00815e-07
6.648695e-07
6.950888e-07
7.075114e-07
-0.0006525167
0.00065273
1.240495e-11
-3.059266e-06
7.201489e-07
7.026307e-07
7.15654e-07
7.339195e-07
-0.000652929
0.0006530975
5.455733e-12
-3.111981e-06
7.412529e-07
7.303526e-07
7.379832e-07
7.493419e-07
-0.0006532616
0.0006534126
5.779757e-12
-3.161792e-06
7.586314e-07
7.467045e-07
7.560648e-07
7.799824e-07
-0.0006535266
0.000653622
1.59316e-12
-3.213344e-06
7.80966e-07
7.779229e-07
7.7905e-07
7.955427e-07
-0.000653708
0.000653783
-9.710021e-13
-3.25645e-06
7.965638e-07
7.941222e-07
7.952317e-07
8.081661e-07
-0.0006538512
0.0006539143
-1.091588e-12
-3.295886e-06
8.090888e-07
8.07285e-07
8.082627e-07
8.173945e-07
-0.0006539745
0.0006540329
-6.489043e-13
-3.32905e-06
8.183703e-07
8.16921e-07
8.179605e-07
8.243526e-07
-0.0006540904
0.0006541481
-4.20455e-13
-3.3565e-06
8.253154e-07
8.240903e-07
8.250756e-07
8.294421e-07
-0.0006542064
0.0006542659
-4.943464e-14
-3.378855e-06
8.303192e-07
8.293006e-07
8.301998e-07
8.330898e-07
-0.000654327
0.0006543901
4.257217e-13
-3.396921e-06
8.338738e-07
8.330544e-07
8.338441e-07
8.357024e-07
-0.000654455
0.0006545222
8.38185e-13
-3.411502e-06
8.363824e-07
8.357616e-07
8.364693e-07
8.375898e-07
-0.0006545913
0.0006546627
1.079711e-12
-3.423348e-06
8.381997e-07
8.377693e-07
8.383991e-07
8.389883e-07
-0.000654736
0.0006548114
1.229643e-12
-3.432992e-06
8.39544e-07
8.392314e-07
8.397883e-07
8.400652e-07
-0.0006548886
0.0006549677
7.15749e-13
-3.440911e-06
8.405682e-07
8.40299e-07
8.408017e-07
8.409177e-07
-0.0006550484
0.0006551309
-1.601318e-12
-3.44755e-06
8.413915e-07
8.411328e-07
8.416037e-07
8.416238e-07
-0.0006552148
0.0006553003
6.191534e-13
-3.453199e-06
8.420696e-07
8.417848e-07
8.422146e-07
8.422493e-07
-0.000655387
0.0006554751
6.173156e-12
-3.458126e-06
8.426732e-07
8.423158e-07
8.427186e-07
8.428003e-07
-0.0006555643
0.0006556548
3.801774e-12
-3.462519e-06
8.432067e-07
8.42813e-07
8.432143e-07
8.433107e-07
-0.0006557461
0.0006558386
-3.411405e-12
-3.466441e-06
8.43693e-07
8.43302e-07
8.436838e-07
8.437816e-07
-0.0006559317
0.0006560258
-5.900566e-12
-3.46986e-06
8.441486e-07
8.437459e-07
8.441349e-07
8.441875e-07
-0.0006561203
0.0006562157
-4.347494e-12
-3.472535e-06
8.445114e-07
8.441056e-07
8.444081e-07
8.444321e-07
-0.0006563115
0.0006564078
-1.138383e-12
-3.474446e-06
8.447821e-07
8.443067e-07
8.446252e-07
8.446202e-07
-0.0006565043
0.0006566011
3.177916e-12
-3.47563e-06
8.449026e-07
8.444879e-07
8.447803e-07
8.446988e-07
-0.000656698
0.0006567949
6.119288e-12
-3.476045e-06
8.449803e-07
8.445891e-07
8.448745e-07
8.447255e-07
-0.0006568917
0.0006569882
6.437802e-12
-3.475719e-06
8.449815e-07
8.446279e-07
8.448884e-07
8.446467e-07
-0.0006570844
0.0006571801
5.253192e-12
-3.47455e-06
8.448898e-07
8.445464e-07
8.447828e-07
8.444778e-07
-0.0006572753
0.0006573697
3.873368e-12
-3.472581e-06
8.446986e-07
8.443665e-07
8.44589e-07
8.442221e-07
-0.0006574635
0.0006575563
2.833111e-12
-3.469875e-06
8.444292e-07
8.441245e-07
8.443338e-07
8.438712e-07
-0.0006576483
0.000657739
2.155596e-12
-3.466391e-06
8.44063e-07
8.437742e-07
8.439596e-07
8.43436e-07
-0.0006578288
0.0006579171
1.767135e-12
-3.462167e-06
8.436087e-07
8.433231e-07
8.434929e-07
8.429089e-07
-0.0006580044
0.0006580899
1.606181e-12
-3.457227e-06
8.430674e-07
8.428057e-07
8.429686e-07
8.422789e-07
-0.0006581741
0.0006582564
1.556195e-12
-3.451461e-06
8.424153e-07
8.421805e-07
8.423168e-07
8.415215e-07
-0.0006583373
0.0006584159
1.577338e-12
-3.444695e-06
8.416379e-07
8.414101e-07
8.415213e-07
8.405858e-07
-0.000658493
0.0006585673
1.583791e-12
-3.43664e-06
8.406757e-07
8.404806e-07
8.405762e-07
8.394097e-07
-0.0006586398
0.000658709
1.58536e-12
-3.426721e-06
8.394399e-07
8.393263e-07
8.393616e-07
8.378476e-07
-0.000658776
0.0006588388
1.558858e-12
-3.413876e-06
8.377777e-07
8.37759e-07
8.377131e-07
8.356064e-07
-0.0006588988
0.0006589531
1.550635e-12
-3.396065e-06
8.353515e-07
8.355057e-07
8.35236e-07
8.320609e-07
-0.0006590038
0.0006590463
1.505988e-12
-3.36949e-06
8.315405e-07
8.31944e-07
8.313971e-07
8.259512e-07
-0.000659083
0.0006591072
1.466609e-12
-3.325575e-06
8.24847e-07
8.25827e-07
8.24731e-07
8.125689e-07
-0.0006591219
0.0006591208
1.411914e-12
-3.243173e-06
8.096867e-07
8.124717e-07
8.095894e-07
7.776145e-07
-0.000659114
0.0006590855
1.327214e-12
-3.069411e-06
7.714375e-07
7.775274e-07
7.7135e-07
6.602032e-07
-0.0006591047
0.0006592765
1.265384e-12
-2.728687e-06
6.183401e-07
6.601173e-07
6.182228e-07
5.696085e-07
-0.0006594849
0.0006596677
1.247059e-12
-2.459442e-06
5.687856e-07
5.694982e-07
5.686785e-07
5.541207e-07
-0.000659836
0.0006599919
1.255064e-12
-2.37011e-06
5.53085e-07
5.540192e-07
5.529806e-07
5.429252e-07
-0.0006601407
0.0006602784
1.280544e-12
-2.308337e-06
5.424927e-07
5.428295e-07
5.423969e-07
5.366734e-07
-0.0006604094
0.0006605321
1.768066e-12
-2.268967e-06
5.365206e-07
5.365861e-07
5.364332e-07
5.321531e-07
-0.0006606504
0.0006607625
3.881669e-12
-2.240289e-06
5.32015e-07
5.320725e-07
5.319313e-07
5.285828e-07
-0.0006608721
0.0006609756
2.052761e-11
-2.216779e-06
5.280611e-07
5.285835e-07
5.280083e-07
5.295033e-07
-0.0006610718
0.0006611659
3.507889e-12
-2.205737e-06
5.261707e-07
5.29607e-07
5.263369e-07
4.632511e-07
-0.0006613175
0.0006616799
8.223444e-13
-2.267879e-06
4.885309e-07
4.638632e-07
4.898294e-07
4.700741e-07
-0.0006619994
0.0006617853
1.293354e-13
-1.586015e-06
4.306124e-07
4.693787e-07
4.300541e-07
4.232148e-07
-0.0006616742
0.0006618498
-2.62984e-13
-1.768764e-06
3.720297e-07
4.246795e-07
3.733038e-07
3.984124e-07
-0.0006620603
0.000662292
-6.131793e-13
-1.801411e-06
3.856691e-07
3.992886e-07
3.863851e-07
4.0661e-07
-0.0006625154
0.0006627329
-9.504843e-13
-1.841801e-06
4.050983e-07
4.070887e-07
4.054812e-07
4.240863e-07
-0.0006629269
0.0006631021
-1.134398e-12
-1.87764e-06
4.269344e-07
4.243085e-07
4.271171e-07
4.426049e-07
-0.0006632554
0.0006633925
-1.161226e-12
-1.914778e-06
4.461852e-07
4.426924e-07
4.46263e-07
4.583271e-07
-0.0006635152
0.0006636245
-1.093152e-12
-1.949298e-06
4.61665e-07
4.583398e-07
4.616798e-07
4.746932e-07
-0.0006637167
0.0006637984
-1.023716e-12
-1.986002e-06
4.774513e-07
4.746942e-07
4.774583e-07
4.874231e-07
-0.0006638712
0.0006639364
-9.867051e-13
-2.019969e-06
4.89966e-07
4.874268e-07
4.899756e-07
4.979532e-07
-0.0006639953
0.0006640499
-9.747584e-13
-2.050181e-06
4.997928e-07
4.979686e-07
4.998142e-07
5.058413e-07
-0.0006641013
0.000664151
-9.609263e-13
-2.075696e-06
5.071308e-07
5.05868e-07
5.07162e-07