/*--------------------------------*- C++ -*----------------------------------*\
| =========                 |                                                 |
| \\      /  F ield         | foam-extend: Open Source CFD                    |
|  \\    /   O peration     | Version:     3.1                                |
|   \\  /    A nd           | Web:         http://www.extend-project.de       |
|    \\/     M anipulation  |                                                 |
\*---------------------------------------------------------------------------*/
FoamFile
{
    version     2.0;
    format      ascii;
    class       volScalarField;
    location    "7";
    object      k;
}
// * * * * * * * * * * * * * * * * * * * * * * * * * * * * * * * * * * * * * //

dimensions      [0 2 -2 0 0 0 0];

internalField   nonuniform List<scalar> 
119952
(
0.01065649
0.008423164
0.008113469
0.008640716
0.008924917
0.008826933
0.008895058
0.008972195
0.009001567
0.0089791
0.008915757
0.008825435
0.00871915
0.008604622
0.008487315
0.008370503
0.00825682
0.008150379
0.008059126
0.008016252
0.008762585
0.008452605
0.008377575
0.00905628
0.008696863
0.00848725
0.008304781
0.008147916
0.007849678
0.0148328
0.05421518
0.0518608
0.05013676
0.04905109
0.04844641
0.04814139
0.04793807
0.04775643
0.0474882
0.04713611
0.04481083
0.04467962
0.04552427
0.04675202
0.04807841
0.04930007
0.0502899
0.05124761
0.05239477
0.05789895
0.05944917
0.06087852
0.06211846
0.0631224
0.06384849
0.06424395
0.06427746
0.06395513
0.06342289
0.06260674
0.06148648
0.06024394
0.0589628
0.05770048
0.05649424
0.0553601
0.05429689
0.05322505
0.05271493
0.05163623
0.0506087
0.04983509
0.04912596
0.04835747
0.04753232
0.04671687
0.04592334
0.04514432
0.04436939
0.04359098
0.04280777
0.04202055
0.04123076
0.04043912
0.03965162
0.03887403
0.03810827
0.03735976
0.03670979
0.03610813
0.03544733
0.03502628
0.03487888
0.03459435
0.03429422
0.03404614
0.03364459
0.03255821
0.03182312
0.03130627
0.03089211
0.03053228
0.03021229
0.02992728
0.02967458
0.02945196
0.02925695
0.02908662
0.02893785
0.02880807
0.02869533
0.02859699
0.02851024
0.02843245
0.02836148
0.02829562
0.02823358
0.02817445
0.0281176
0.02806258
0.02800907
0.02795687
0.02790596
0.02785647
0.02780862
0.02776265
0.02771871
0.02767692
0.02763735
0.02760005
0.02756513
0.02753269
0.02750292
0.02747606
0.02745234
0.02743199
0.02741516
0.02740195
0.02739234
0.02738628
0.02738365
0.02738429
0.02738798
0.02739445
0.02740342
0.02741396
0.02743629
0.02748542
0.0275355
0.02756444
0.02756758
0.02754951
0.02751601
0.02747244
0.02742295
0.02737037
0.02731648
0.0272623
0.02720831
0.02715466
0.02710125
0.02704782
0.02699403
0.02693947
0.02688373
0.02682638
0.02676699
0.02670514
0.02664044
0.02657255
0.02650116
0.02642598
0.02634678
0.02626338
0.02617556
0.0260832
0.02598614
0.02588423
0.02577737
0.02566543
0.02554831
0.02542589
0.02529809
0.02516486
0.02502614
0.02488194
0.02473226
0.02457713
0.02441658
0.02425061
0.02407988
0.0239041
0.02372323
0.02353788
0.02334758
0.02315249
0.02296094
0.02256667
0.02176558
0.02112951
0.02061817
0.02017789
0.0197828
0.01941923
0.01908019
0.01876183
0.01846185
0.01817864
0.01791112
0.01765987
0.01742139
0.01719451
0.01698064
0.01677933
0.01659009
0.0164124
0.01624603
0.01609091
0.01594697
0.01581407
0.01569205
0.0155808
0.01547993
0.01538946
0.01530934
0.01523949
0.01518037
0.01513238
0.01509226
0.01506497
0.01504803
0.01503612
0.0149944
0.01508432
0.01519693
0.01529872
0.01539019
0.01546901
0.01553575
0.01559108
0.01563569
0.01567029
0.0156957
0.01571276
0.01572239
0.01572541
0.01572262
0.01571472
0.01570234
0.01568605
0.01566631
0.01564354
0.01561809
0.01559027
0.01556034
0.01552855
0.01549508
0.01546013
0.01542384
0.01538631
0.01534768
0.01530809
0.01526763
0.0152264
0.01518481
0.01514319
0.0151015
0.01492886
0.01497126
0.01496707
0.01491936
0.01484492
0.01475456
0.01465941
0.01456753
0.01448328
0.01440844
0.01434332
0.01428828
0.01424241
0.01420483
0.01417452
0.01415046
0.01413166
0.01411726
0.01410651
0.01409877
0.01409352
0.01409033
0.01408888
0.01408893
0.01409029
0.01409282
0.01409644
0.01410107
0.01410668
0.01411323
0.0141207
0.01412907
0.01413832
0.01414843
0.01415936
0.01417109
0.01418357
0.01419677
0.01421063
0.01422511
0.0142402
0.01425589
0.01427234
0.01429009
0.01431084
0.01433534
0.01435689
0.01437548
0.01439476
0.01441429
0.0144337
0.01445363
0.01447483
0.01450909
0.01458908
0.01457779
0.01456789
0.01455559
0.01453819
0.01451561
0.01448809
0.01445691
0.01442367
0.01438979
0.01435644
0.01432453
0.0142947
0.01426737
0.01424268
0.01422057
0.01420086
0.01418338
0.01416791
0.01415422
0.01414204
0.01413111
0.01412117
0.01411203
0.01410347
0.01409536
0.01408753
0.01407987
0.0140723
0.01406476
0.01405722
0.01404966
0.01404207
0.01403445
0.01402679
0.0140191
0.01401137
0.01400363
0.01399589
0.01398815
0.01398044
0.01397278
0.01396517
0.01395763
0.01395018
0.01394283
0.01393559
0.01392847
0.01392148
0.01391463
0.01390793
0.01390137
0.01389497
0.01388873
0.01388265
0.01387673
0.01387098
0.01386538
0.01385995
0.01385469
0.01384959
0.01384465
0.01383987
0.01383527
0.01383082
0.01382653
0.0138224
0.01381842
0.01381457
0.01381085
0.01380723
0.01380371
0.01380021
0.01379676
0.01379326
0.01378963
0.01378555
0.01378086
0.0137746
0.01376577
0.01375021
0.01371913
0.01364791
0.01353071
0.01370234
0.09611299
0.08972573
0.08977662
0.09237433
0.09570784
0.09896993
0.101833
0.1042003
0.1060789
0.1052166
0.1068401
0.1107395
0.1151646
0.1191969
0.122405
0.1247724
0.1262554
0.1269363
0.1417448
0.1397054
0.1375144
0.1351015
0.1326714
0.130411
0.1284312
0.1267711
0.1254167
0.1242764
0.123612
0.1228367
0.1219008
0.1209546
0.1200155
0.1190735
0.1181233
0.1171518
0.1161417
0.1152815
0.1143177
0.1130306
0.1116035
0.1100694
0.1084332
0.1067
0.1048633
0.1029375
0.1009151
0.09875549
0.09643743
0.09403058
0.09157243
0.08914822
0.08665055
0.08412245
0.08166799
0.07948374
0.08255893
0.08066277
0.07907743
0.07783754
0.07693246
0.07635974
0.07610492
0.07611871
0.07631988
0.07656546
0.07676838
0.0768595
0.07678719
0.07652911
0.07608558
0.07546393
0.07469525
0.07381029
0.07286857
0.07184295
0.07069068
0.06954732
0.06845347
0.0673819
0.06632441
0.06529741
0.06431329
0.06337178
0.06246675
0.06158965
0.06073018
0.05987921
0.05903154
0.05818496
0.05733705
0.05648703
0.05562867
0.05476569
0.05391997
0.05311223
0.05232573
0.0515966
0.0509836
0.0504337
0.04989773
0.04938649
0.04885052
0.04818887
0.04744166
0.04679156
0.04624441
0.04576841
0.04534916
0.04497717
0.04464573
0.04434937
0.04408403
0.0438466
0.0436344
0.04344499
0.04327642
0.04312748
0.04299578
0.04287912
0.04277543
0.04268282
0.04259957
0.04252418
0.04245539
0.0423921
0.04233339
0.04227853
0.04222691
0.04217807
0.04213162
0.04208734
0.04204512
0.04200492
0.04196676
0.04193068
0.04189675
0.04186505
0.0418357
0.04180885
0.04178471
0.04176351
0.04174547
0.04173079
0.04171964
0.0417121
0.04170821
0.04170789
0.04171102
0.0417173
0.04172645
0.04173807
0.0417534
0.04177569
0.04180179
0.04182909
0.04185804
0.0418879
0.04191736
0.04194506
0.04196984
0.0419908
0.04200732
0.04201892
0.04202527
0.04202607
0.04202111
0.04201017
0.04199307
0.04196961
0.04193962
0.04190291
0.04185933
0.0418087
0.04175086
0.04168565
0.04161292
0.04153254
0.04144437
0.04134829
0.04124419
0.04113199
0.04101162
0.04088299
0.04074606
0.04060076
0.04044704
0.04028484
0.04011408
0.03993471
0.03974664
0.0395498
0.03934409
0.03912945
0.03890575
0.03867293
0.03843086
0.0381797
0.03791901
0.03764918
0.03736864
0.03707921
0.03677832
0.03648647
0.03548473
0.0344478
0.03375939
0.03323623
0.03279038
0.03237794
0.03197814
0.03158141
0.0311832
0.03078158
0.03037595
0.02996667
0.02955559
0.02914329
0.02873005
0.02831658
0.02790416
0.02749418
0.02708734
0.02668468
0.02628701
0.02589506
0.0255095
0.0251309
0.02475992
0.02439705
0.02404268
0.02369714
0.02336066
0.0230334
0.02271557
0.02240675
0.02210645
0.02181342
0.02152682
0.02125368
0.02100604
0.02078439
0.02057819
0.02038325
0.02019811
0.02002147
0.01985239
0.0196902
0.01953428
0.01938413
0.01923926
0.01909923
0.0189636
0.01883198
0.01870397
0.01857921
0.01845737
0.01833812
0.01822117
0.01810628
0.0179932
0.01788173
0.01777169
0.01766294
0.01755537
0.01744888
0.01734342
0.01723895
0.01713546
0.01703297
0.01693159
0.01683137
0.01673246
0.01663521
0.01715587
0.01705154
0.01696626
0.01688675
0.01680778
0.01672831
0.01664865
0.01656911
0.01648986
0.01641122
0.01633358
0.01625729
0.01618265
0.01610997
0.01603954
0.0159716
0.01590638
0.01584409
0.01578489
0.0157289
0.01567625
0.01562701
0.01558123
0.01553894
0.01550013
0.01546478
0.01543282
0.01540417
0.01537874
0.01535641
0.01533705
0.0153205
0.0153066
0.01529517
0.01528602
0.01527896
0.01527379
0.01527031
0.01526831
0.01526763
0.01526809
0.0152696
0.01527212
0.01527568
0.01527995
0.01528424
0.01528731
0.01528903
0.01528983
0.01529024
0.01528993
0.01528922
0.01528838
0.0152939
0.01530077
0.01529663
0.01528606
0.01527436
0.01526299
0.01525199
0.01524121
0.01523047
0.01521961
0.01520846
0.0151969
0.01518487
0.01517236
0.01515939
0.01514598
0.0151322
0.01511812
0.0151038
0.01508935
0.01507487
0.01506042
0.01504612
0.01503202
0.01501821
0.01500477
0.01499174
0.0149792
0.0149672
0.01495577
0.01494496
0.0149348
0.01492533
0.01491656
0.01490851
0.01490117
0.01489457
0.01488868
0.0148835
0.01487902
0.01487523
0.01487211
0.01486963
0.01486778
0.01486653
0.01486584
0.01486571
0.01486609
0.01486695
0.01486827
0.01487003
0.01487218
0.01487471
0.01487758
0.01488078
0.01488428
0.01488806
0.0148921
0.01489638
0.01490088
0.0149056
0.01491052
0.01491563
0.01492092
0.01492639
0.01493203
0.01493782
0.01494379
0.0149499
0.01495619
0.01496259
0.0149692
0.01497585
0.01498273
0.01498955
0.01499659
0.01500329
0.01501006
0.01501579
0.01502088
0.01502286
0.01502162
0.01501476
0.01501323
0.01504067
0.01509574
0.07538475
0.07919688
0.08392895
0.08932903
0.09545054
0.1024207
0.1104879
0.1200608
0.1316756
0.1454846
0.2112939
0.2295625
0.2459639
0.2590498
0.2701258
0.2803773
0.2897617
0.2980544
0.3090426
0.3650615
0.3697349
0.371331
0.371255
0.3701306
0.3683767
0.3661624
0.3634848
0.3602812
0.35677
0.3524823
0.3483096
0.3441661
0.3399014
0.3354648
0.330884
0.3262093
0.3214884
0.3169317
0.3112982
0.3059549
0.3008667
0.296033
0.2914459
0.2870722
0.2828793
0.278834
0.2749
0.2710622
0.2672154
0.2632916
0.2592623
0.2550736
0.2506971
0.246102
0.2413045
0.2363058
0.2433961
0.2380581
0.2326838
0.2273778
0.2221241
0.2169306
0.2118325
0.2068767
0.2021221
0.1976168
0.1933738
0.1894059
0.1856802
0.182168
0.1788465
0.1756894
0.1726679
0.1697569
0.1669299
0.1641493
0.1613989
0.1586808
0.1559762
0.153262
0.1505235
0.1477535
0.144948
0.1421
0.1392128
0.1363252
0.1334181
0.1304203
0.1272671
0.1239581
0.12048
0.1168814
0.1131675
0.1093974
0.105668
0.1020419
0.09862168
0.09547448
0.09265157
0.09018178
0.08806944
0.08629914
0.08484286
0.08365951
0.08269762
0.08190216
0.08122867
0.08063268
0.08007018
0.07949738
0.0788859
0.07821188
0.07747547
0.07664571
0.07571651
0.07472042
0.07370161
0.07268231
0.07167476
0.07069501
0.06976136
0.06888593
0.06807074
0.06730984
0.06658867
0.06589263
0.06521303
0.0645418
0.06387181
0.06319777
0.06251789
0.06183301
0.06114828
0.06047144
0.05980737
0.05916783
0.05856783
0.05800308
0.05745649
0.05692287
0.05638903
0.05581977
0.05520352
0.05461613
0.05409272
0.0536297
0.05321683
0.0528463
0.05251348
0.052215
0.05194784
0.05170927
0.0514967
0.05130757
0.05113887
0.050987
0.05085183
0.05073429
0.05063271
0.05054491
0.05046903
0.05040333
0.05034628
0.0502964
0.05025238
0.05021308
0.05017746
0.05014458
0.05011366
0.05008407
0.05005535
0.05002718
0.04999934
0.04997173
0.04994428
0.049917
0.04988995
0.04986322
0.04983702
0.04981155
0.04978711
0.04976395
0.04974236
0.04972256
0.04970476
0.04968908
0.04967558
0.04966427
0.04965512
0.04964828
0.04964422
0.04964415
0.04964768
0.04965337
0.04966048
0.04966849
0.04967686
0.049685
0.04969218
0.04969768
0.04970073
0.04970059
0.04969656
0.04968797
0.04967417
0.0496546
0.04962872
0.04959603
0.04955609
0.0495085
0.04945289
0.04938894
0.04931636
0.04923491
0.04914439
0.0490446
0.04893541
0.0488167
0.0486884
0.04855045
0.04840282
0.0482455
0.0480785
0.04790184
0.04771557
0.04751971
0.04731431
0.04709942
0.04687507
0.04664129
0.0463981
0.04614549
0.04588349
0.045612
0.0453311
0.04504055
0.04474049
0.04443034
0.04411058
0.04377975
0.0434396
0.04308311
0.04268628
0.04231106
0.04194022
0.04156301
0.04117609
0.04077869
0.04037092
0.03995319
0.03952608
0.03909022
0.03864621
0.03819471
0.03773653
0.0372726
0.03680365
0.03633025
0.03585277
0.03537206
0.03488996
0.03440774
0.03392657
0.03344756
0.03297182
0.03250059
0.03203533
0.03157658
0.03112476
0.03068033
0.03024369
0.02981518
0.02939499
0.02898316
0.02858037
0.02818788
0.02780548
0.02743581
0.02708351
0.0267479
0.0264261
0.02611662
0.02581844
0.02553064
0.0252525
0.02498342
0.02472287
0.02447038
0.02422552
0.02398785
0.02375696
0.02353244
0.0233139
0.02310094
0.0228932
0.02269031
0.02249192
0.02229771
0.02210738
0.02192064
0.02173725
0.02155699
0.02137964
0.02120509
0.02103314
0.02086378
0.02069683
0.02053245
0.0203704
0.02021116
0.02005377
0.01989892
0.01975765
0.01961801
0.01947542
0.01933034
0.0191864
0.01904623
0.01891066
0.01877961
0.01865282
0.01853023
0.01841186
0.01829778
0.01818805
0.01808271
0.0179818
0.01788537
0.01779345
0.01770611
0.01762336
0.01754522
0.01747168
0.01740276
0.01733843
0.01727867
0.01722341
0.01717259
0.01712612
0.0170839
0.01704581
0.01701171
0.01698145
0.01695487
0.01693177
0.01691196
0.01689524
0.01688138
0.01687017
0.01686137
0.01685476
0.0168501
0.0168472
0.01684583
0.01684583
0.01684692
0.01684884
0.01685109
0.01685321
0.01685472
0.01685567
0.01685596
0.01685572
0.01685456
0.01685248
0.01684866
0.01684392
0.01683858
0.01683313
0.01682742
0.01682082
0.01681284
0.01680341
0.01679269
0.01678093
0.0167683
0.01675492
0.01674087
0.01672627
0.01671121
0.01669579
0.01668012
0.01666427
0.01664835
0.01663245
0.01661665
0.01660105
0.01658573
0.01657076
0.01655622
0.01654218
0.0165287
0.01651583
0.01650364
0.01649216
0.01648144
0.01647149
0.01646236
0.01645404
0.01644656
0.01643992
0.0164341
0.01642911
0.01642493
0.01642155
0.01641894
0.01641708
0.01641594
0.0164155
0.01641572
0.01641658
0.01641803
0.01642005
0.01642259
0.01642564
0.01642915
0.01643309
0.01643744
0.01644217
0.01644725
0.01645265
0.01645836
0.01646435
0.01647061
0.01647712
0.01648388
0.01649085
0.01649805
0.01650546
0.01651309
0.01652091
0.01652895
0.01653718
0.01654565
0.01655429
0.01656319
0.01657227
0.01658163
0.01659112
0.01660095
0.01661081
0.01662101
0.01663097
0.01664118
0.0166506
0.01666015
0.01666861
0.01667874
0.01669111
0.01671247
0.01674092
0.06339036
0.06789603
0.07203054
0.1023244
0.1338797
0.1716473
0.1973066
0.2225138
0.2455375
0.2664983
0.2845619
0.299608
0.3137377
0.3276161
0.3411807
0.3544874
0.3673589
0.3794234
0.3908667
0.4017
0.4118906
0.4215111
0.4303758
0.4382462
0.4447528
0.4502018
0.4546429
0.457937
0.4599639
0.4608243
0.4613337
0.46375
0.4626036
0.4611949
0.4595774
0.4577378
0.4556595
0.453351
0.4507095
0.4476873
0.4441642
0.4399516
0.4348006
0.4287796
0.4223381
0.4157617
0.409226
0.4028078
0.3965607
0.3904905
0.3845776
0.3788432
0.3732577
0.3678056
0.3624813
0.3572834
0.352213
0.3472723
0.3424485
0.3377167
0.3330515
0.3284102
0.3237252
0.3189431
0.3140037
0.3088681
0.3034739
0.2978517
0.2919167
0.2859046
0.2797492
0.2734427
0.2670584
0.2606615
0.2543103
0.2480549
0.2419349
0.2359694
0.2302176
0.2247266
0.2195429
0.2147004
0.2101663
0.2059072
0.2018886
0.1980764
0.1944349
0.1909299
0.1875306
0.1842086
0.1809414
0.1777114
0.1745063
0.1713158
0.1681356
0.1649883
0.1618575
0.1586747
0.1553871
0.1519795
0.1484236
0.1447105
0.1408213
0.1367887
0.1326141
0.1283643
0.1241139
0.1198861
0.1157415
0.1117573
0.108
0.1045137
0.1013199
0.0984232
0.09581635
0.09348415
0.09140803
0.08956803
0.08794259
0.08650603
0.08522877
0.08407737
0.08301843
0.08201815
0.08104719
0.08007503
0.07907938
0.07805054
0.077
0.07594557
0.07490068
0.07387834
0.0728953
0.07196795
0.07110732
0.07031762
0.0695965
0.06893683
0.06832889
0.06776157
0.06722241
0.06669928
0.06618219
0.06566466
0.06514153
0.0646138
0.06408711
0.06356764
0.06306434
0.06257837
0.06210524
0.06163826
0.06117408
0.06070284
0.06022207
0.05974737
0.05930623
0.05890734
0.05854789
0.05822354
0.05793172
0.05767076
0.05743887
0.05723408
0.05705446
0.05689811
0.05676316
0.05664748
0.05654885
0.0564643
0.05639321
0.05633555
0.0562918
0.05626028
0.05623924
0.05622697
0.05622187
0.05622248
0.05622736
0.05623511
0.05624451
0.05625444
0.05626394
0.05627225
0.05627875
0.05628298
0.05628459
0.05628334
0.05627907
0.05627174
0.0562614
0.05624821
0.05623242
0.05621432
0.05619427
0.05617264
0.05614979
0.0561261
0.0561019
0.05607752
0.0560533
0.05602964
0.05600701
0.05598626
0.05596772
0.05595077
0.05593473
0.05591925
0.05590407
0.05588886
0.05587315
0.05585636
0.05583783
0.05581686
0.05579274
0.05576472
0.05573207
0.05569408
0.05565005
0.05559935
0.05554135
0.05547548
0.05540122
0.05531812
0.05522575
0.05512376
0.05501185
0.05488975
0.05475727
0.05461426
0.05446062
0.0542963
0.05412128
0.05393559
0.0537393
0.05353249
0.05331528
0.05308782
0.05285024
0.05260272
0.05234541
0.05207847
0.05180203
0.05151623
0.05122117
0.05091692
0.05060355
0.050281
0.04994937
0.04960844
0.04925837
0.04889879
0.04853051
0.04815323
0.04776677
0.04737102
0.04696608
0.04655228
0.04613002
0.04569932
0.04526005
0.04481218
0.04435586
0.04389131
0.04341885
0.04293888
0.04245194
0.04195863
0.04145955
0.04095545
0.04044712
0.03993525
0.03942058
0.03890409
0.03838681
0.03786976
0.0373539
0.03684001
0.0363285
0.03582061
0.03531752
0.03482023
0.03432959
0.03384635
0.03337106
0.03290418
0.03244571
0.03199554
0.03155493
0.03112608
0.03071143
0.03031181
0.02992635
0.02955395
0.02919372
0.02884499
0.0285072
0.02817988
0.02786255
0.02755479
0.02725618
0.02696631
0.02668474
0.02641107
0.02614489
0.02588578
0.02563331
0.0253871
0.02514673
0.02491184
0.02468206
0.02445704
0.02423649
0.02402008
0.02380761
0.02359879
0.0233935
0.02319149
0.02299279
0.02279709
0.02260471
0.02241509
0.02222913
0.02204547
0.0218653
0.0216875
0.02151307
0.02134278
0.02117671
0.02101464
0.02085642
0.02070204
0.02055157
0.02040519
0.02026311
0.02012554
0.01999267
0.01986466
0.01974166
0.01962377
0.01951111
0.01940375
0.01930177
0.01920521
0.0191141
0.01902847
0.0189483
0.01887357
0.01880424
0.01874024
0.01868151
0.01862793
0.0185794
0.01853578
0.01849692
0.01846265
0.01843278
0.01840711
0.01838544
0.01836752
0.01835313
0.01834201
0.01833392
0.01832858
0.01832576
0.01832517
0.01832654
0.01832958
0.01833396
0.01833932
0.01834525
0.01835134
0.01835737
0.01836317
0.01836865
0.01837361
0.01837791
0.01838163
0.01838497
0.01838741
0.01838836
0.01838778
0.01838587
0.01838281
0.01837868
0.01837351
0.01836736
0.01836025
0.01835224
0.01834336
0.01833368
0.01832327
0.01831222
0.01830063
0.01828859
0.0182762
0.01826357
0.0182508
0.01823799
0.01822525
0.01821267
0.01820034
0.01818835
0.01817677
0.01816569
0.01815516
0.01814524
0.01813599
0.01812745
0.01811965
0.01811263
0.01810639
0.01810095
0.01809632
0.01809248
0.01808944
0.01808717
0.01808567
0.0180849
0.01808483
0.01808545
0.01808672
0.01808861
0.01809108
0.0180941
0.01809764
0.01810166
0.01810613
0.01811102
0.01811631
0.01812195
0.01812794
0.01813425
0.01814085
0.01814773
0.01815487
0.01816226
0.0181699
0.01817777
0.01818586
0.01819418
0.01820272
0.01821148
0.01822048
0.0182297
0.01823916
0.01824887
0.01825885
0.01826908
0.01827962
0.01829043
0.01830158
0.018313
0.01832478
0.0183368
0.01834918
0.01836186
0.01837504
0.01838906
0.01840438
0.01842231
0.01844326
0.01846779
0.04035069
0.04249936
0.04454964
0.05476632
0.06955096
0.09355618
0.110329
0.127779
0.146179
0.1645781
0.1832992
0.2035966
0.2249388
0.2464705
0.2687615
0.2937953
0.3310136
0.346512
0.3617457
0.3766688
0.3915745
0.4054184
0.4174725
0.427874
0.4366891
0.4437163
0.4492123
0.4535431
0.4568693
0.4592357
0.4606367
0.4610537
0.4604825
0.4589614
0.4567027
0.4538378
0.4506016
0.4475956
0.4443861
0.4418742
0.4402626
0.4390553
0.4378118
0.4377433
0.4382548
0.4390552
0.4400356
0.4410025
0.4417654
0.4421093
0.4418829
0.4409632
0.4391119
0.4362094
0.432776
0.4291183
0.4254216
0.42176
0.4181382
0.4145259
0.4108872
0.4071812
0.4033937
0.3995083
0.3955165
0.3914236
0.3872469
0.3830096
0.3787326
0.3744297
0.370101
0.3657322
0.361293
0.3567447
0.3520367
0.3471173
0.3419463
0.3365178
0.3309241
0.3250551
0.3188358
0.3123039
0.3055298
0.2985913
0.2915641
0.284524
0.2775439
0.2706914
0.2640209
0.2575791
0.2513933
0.24547
0.2398134
0.2344708
0.2294749
0.2248056
0.2204188
0.2162726
0.2123253
0.2085361
0.20487
0.2013003
0.1978046
0.1943752
0.1910111
0.1876769
0.1843161
0.1809114
0.177449
0.1739067
0.1702625
0.166489
0.1625649
0.1584627
0.15419
0.1497627
0.14522
0.1406066
0.1359648
0.1313516
0.1268362
0.1224824
0.1183382
0.1144333
0.1107817
0.1073869
0.1042459
0.1013517
0.09869421
0.09626216
0.09404196
0.09201821
0.09017219
0.08848302
0.08692664
0.08547791
0.08411011
0.0827973
0.08152053
0.08027215
0.07905178
0.07786173
0.07670667
0.07559555
0.07453969
0.07354941
0.07263194
0.07179055
0.07102463
0.07033009
0.06969992
0.06912467
0.06859367
0.06809656
0.06762408
0.06716843
0.06672474
0.06629072
0.06586573
0.0654502
0.06503865
0.06463214
0.06422944
0.06382998
0.06343221
0.06303261
0.06264298
0.06227819
0.06194661
0.06164907
0.06138358
0.06114836
0.06094211
0.06076342
0.06061069
0.06048221
0.06037639
0.06029166
0.06022651
0.06017946
0.060149
0.06013376
0.06013217
0.06014216
0.06016343
0.06019542
0.06023792
0.06028953
0.0603486
0.06041343
0.0604823
0.06055358
0.06062567
0.06069707
0.06076641
0.06083253
0.0608944
0.06095113
0.06100201
0.06104645
0.06108402
0.06111445
0.06113765
0.06115365
0.06116264
0.06116492
0.06116088
0.06115101
0.06113582
0.06111592
0.06109192
0.06106449
0.06103435
0.06100225
0.06096907
0.0609354
0.06090131
0.06086669
0.06083153
0.06079582
0.06075945
0.06072217
0.06068362
0.06064332
0.06060072
0.06055518
0.06050604
0.06045258
0.06039407
0.0603298
0.06025904
0.06018109
0.0600953
0.06000106
0.05989779
0.05978498
0.05966218
0.059529
0.05938511
0.05923024
0.05906421
0.05888687
0.05869815
0.05849805
0.0582866
0.05806391
0.05783013
0.05758543
0.05733006
0.05706425
0.05678829
0.05650246
0.05620705
0.05590235
0.05558862
0.05526611
0.05493504
0.05459558
0.05424787
0.05389203
0.0535281
0.05315625
0.05277655
0.05238947
0.05199525
0.05159374
0.05118376
0.05076529
0.05033859
0.04990373
0.04946059
0.04900907
0.04854911
0.04808078
0.04760421
0.04711961
0.04662722
0.04612738
0.04562055
0.04510722
0.04458793
0.04406327
0.04353387
0.04300042
0.04246374
0.04192471
0.04138419
0.04084309
0.04030229
0.03976264
0.03922502
0.03869035
0.03815949
0.03763324
0.03711233
0.03659745
0.03608924
0.0355883
0.03509544
0.03461179
0.0341389
0.03367847
0.03323156
0.03279819
0.03237779
0.03196982
0.03157384
0.03118951
0.03081648
0.03045441
0.03010295
0.02976175
0.02943045
0.02910867
0.02879601
0.02849206
0.02819643
0.02790868
0.0276284
0.02735515
0.02708852
0.0268281
0.0265735
0.02632436
0.02608032
0.02584108
0.02560633
0.02537585
0.02514939
0.02492681
0.02470788
0.02449262
0.0242808
0.0240725
0.02386733
0.02366541
0.02346699
0.02327229
0.02308121
0.02289374
0.02271008
0.02253055
0.02235538
0.02218475
0.02201881
0.02185769
0.02170156
0.02155058
0.0214049
0.02126465
0.02112996
0.02100095
0.02087772
0.02076036
0.02064894
0.02054353
0.0204442
0.02035096
0.02026381
0.02018273
0.02010771
0.02003868
0.01997557
0.0199183
0.01986676
0.0198208
0.01978028
0.01974503
0.01971486
0.01968956
0.0196689
0.01965264
0.01964053
0.01963231
0.01962768
0.01962638
0.01962808
0.01963248
0.01963926
0.01964806
0.01965852
0.01967025
0.01968286
0.01969607
0.01970962
0.01972333
0.01973701
0.0197505
0.01976367
0.01977629
0.01978803
0.01979868
0.01980824
0.01981671
0.01982404
0.01983017
0.01983505
0.01983867
0.01984104
0.01984221
0.01984219
0.01984106
0.01983887
0.0198357
0.01983164
0.01982679
0.01982125
0.01981512
0.01980851
0.01980152
0.01979427
0.01978685
0.01977938
0.01977193
0.01976462
0.01975751
0.01975071
0.01974427
0.01973826
0.01973275
0.01972779
0.01972341
0.01971965
0.01971653
0.01971407
0.01971228
0.01971115
0.01971069
0.01971088
0.01971171
0.01971316
0.0197152
0.01971782
0.01972098
0.01972466
0.01972882
0.01973344
0.01973849
0.01974394
0.01974976
0.01975593
0.01976243
0.01976923
0.01977632
0.01978367
0.01979129
0.01979914
0.01980723
0.01981555
0.0198241
0.01983286
0.01984185
0.01985107
0.01986051
0.0198702
0.01988013
0.01989032
0.01990078
0.01991154
0.0199226
0.019934
0.01994575
0.01995788
0.01997042
0.01998341
0.01999688
0.02001092
0.02002565
0.02004121
0.02005799
0.02007612
0.02009653
0.02011862
0.02014221
0.02006432
0.02302119
0.0249941
0.03524732
0.04677128
0.06134788
0.07281914
0.08526094
0.09822448
0.1114756
0.1255319
0.141639
0.158702
0.1773619
0.1995207
0.2329646
0.2483649
0.2642306
0.2800421
0.2957909
0.3114336
0.326857
0.3418231
0.3561403
0.3696048
0.3821089
0.3935581
0.4058185
0.4175897
0.4288389
0.4393791
0.4484706
0.4554171
0.4601613
0.4628397
0.4638882
0.4635079
0.4618622
0.4590999
0.4553501
0.4507302
0.4453977
0.4394305
0.4329146
0.426337
0.4198626
0.4131595
0.4077777
0.4032944
0.3999571
0.3979491
0.3974272
0.3983228
0.400516
0.4037325
0.4076272
0.4119047
0.4162118
0.4202744
0.4238379
0.4267593
0.4284054
0.4293526
0.4298342
0.4300952
0.4303254
0.4306077
0.4309173
0.4311564
0.4311953
0.4309184
0.4302316
0.4290758
0.4274222
0.4252667
0.4226329
0.4195684
0.4161322
0.4123805
0.4083607
0.4041035
0.3996201
0.3949061
0.3899466
0.3847192
0.3792042
0.3734113
0.3674647
0.3612453
0.3546847
0.3477785
0.3405627
0.3331023
0.3254728
0.3177545
0.3100296
0.3023791
0.2948777
0.287589
0.2805646
0.2738449
0.2674497
0.2613867
0.2556535
0.2502281
0.2451129
0.2403103
0.2358055
0.2315533
0.2275047
0.2236263
0.2198948
0.216271
0.2127034
0.2091399
0.2055619
0.2019504
0.1982897
0.1945663
0.1907636
0.1868619
0.1828359
0.1786666
0.1743335
0.1698328
0.1651753
0.160386
0.155499
0.1505474
0.1455907
0.1406925
0.1359117
0.1312976
0.1268852
0.1226955
0.1187386
0.1150168
0.1115269
0.1082622
0.1052144
0.1023743
0.09973198
0.09727639
0.09499536
0.09287475
0.09089884
0.08904988
0.08730942
0.08566096
0.08409203
0.08259421
0.08116223
0.07979311
0.07848724
0.07724792
0.0760797
0.07498696
0.0739728
0.07303815
0.07218166
0.07139989
0.07068742
0.07003727
0.0694415
0.06889196
0.0683803
0.06789961
0.06744421
0.06700962
0.06659245
0.06618959
0.06579738
0.06541257
0.06503343
0.06466037
0.06429605
0.06394687
0.06362166
0.06332678
0.06306441
0.06283409
0.06263471
0.06246509
0.06232393
0.06220966
0.06212063
0.06205519
0.0620118
0.06198903
0.06198558
0.06200026
0.06203202
0.06207992
0.06214286
0.06221975
0.06230938
0.06241016
0.06252142
0.06264205
0.062771
0.06290678
0.06304758
0.06319141
0.06333627
0.06348027
0.0636216
0.06375855
0.06388953
0.06401312
0.06412806
0.06423328
0.06432793
0.06441138
0.0644832
0.06454321
0.06459141
0.06462801
0.0646534
0.06466811
0.06467284
0.06466838
0.06465562
0.06463554
0.06460917
0.06457756
0.06454161
0.06450195
0.06445906
0.06441331
0.06436505
0.0643145
0.06426173
0.06420667
0.06414912
0.06408874
0.06402513
0.06395775
0.06388601
0.06380927
0.06372685
0.06363807
0.06354223
0.06343864
0.06332664
0.06320563
0.06307503
0.06293431
0.06278303
0.06262079
0.06244727
0.06226224
0.0620655
0.06185697
0.06163663
0.06140452
0.06116076
0.06090553
0.06063909
0.06036172
0.06007376
0.05977562
0.05946767
0.05915037
0.05882413
0.05848937
0.0581465
0.05779589
0.05743788
0.05707276
0.0567008
0.0563222
0.05593719
0.05554596
0.05514875
0.05474568
0.05433667
0.05392126
0.05349922
0.05307041
0.05263461
0.05219159
0.05174113
0.05128303
0.05081718
0.0503435
0.04986199
0.0493727
0.04887575
0.04837137
0.04785984
0.0473415
0.04681676
0.04628612
0.04575012
0.04520941
0.04466471
0.04411679
0.04356644
0.04301451
0.04246186
0.04190933
0.04135781
0.04080815
0.04026118
0.03971772
0.03917857
0.03864457
0.03811657
0.0375956
0.03708281
0.03657952
0.0360871
0.0356066
0.03513842
0.03468253
0.03423875
0.03380693
0.03338691
0.03297852
0.03258158
0.03219584
0.03182107
0.03145699
0.03110328
0.03075962
0.03042565
0.03010097
0.0297852
0.02947791
0.02917867
0.02888705
0.02860263
0.02832496
0.02805366
0.02778832
0.02752859
0.02727413
0.02702463
0.0267798
0.0265394
0.0263032
0.02607106
0.02584281
0.02561833
0.02539752
0.02518044
0.02496708
0.02475729
0.02455102
0.02434845
0.02414988
0.02395557
0.02376575
0.02358057
0.02340017
0.02322474
0.02305445
0.02288948
0.02273
0.02257618
0.02242817
0.02228612
0.02215017
0.02202044
0.02189703
0.02178004
0.02166955
0.02156563
0.0214683
0.0213776
0.02129353
0.02121607
0.02114518
0.0210808
0.02102285
0.02097124
0.02092582
0.02088646
0.02085298
0.02082519
0.02080288
0.0207858
0.02077371
0.02076633
0.02076338
0.02076455
0.02076952
0.02077794
0.02078948
0.02080375
0.02082038
0.02083898
0.02085917
0.02088062
0.02090302
0.02092611
0.02094965
0.0209734
0.02099709
0.02102047
0.02104333
0.02106545
0.02108671
0.02110699
0.02112616
0.02114414
0.02116083
0.02117617
0.02119013
0.02120267
0.0212138
0.02122351
0.02123184
0.02123886
0.02124462
0.02124923
0.02125277
0.02125534
0.02125705
0.021258
0.0212583
0.02125805
0.02125735
0.02125632
0.02125506
0.02125366
0.02125221
0.0212508
0.02124951
0.02124842
0.02124759
0.02124708
0.02124693
0.02124718
0.02124787
0.02124901
0.02125062
0.02125272
0.02125529
0.02125834
0.02126187
0.02126584
0.02127026
0.02127511
0.02128036
0.02128599
0.02129198
0.02129831
0.02130496
0.02131192
0.02131915
0.02132665
0.0213344
0.02134238
0.02135059
0.02135902
0.02136766
0.0213765
0.02138556
0.02139481
0.02140428
0.02141397
0.02142387
0.02143401
0.02144439
0.02145502
0.02146594
0.02147714
0.02148866
0.02150052
0.02151275
0.02152537
0.02153844
0.021552
0.02156609
0.0215808
0.02159621
0.02161247
0.02162972
0.02164825
0.02166818
0.02169007
0.02171324
0.02173653
0.00402891
0.01834304
0.02667897
0.0368413
0.04863167
0.06208914
0.07708455
0.09303889
0.1101243
0.1298385
0.1588774
0.1732758
0.1878555
0.2021481
0.2162168
0.2300434
0.2436251
0.2569238
0.2698614
0.2824378
0.2948038
0.3089594
0.3230867
0.3370851
0.3508259
0.3643261
0.3774605
0.3900247
0.4018028
0.4125245
0.4222883