/*--------------------------------*- C++ -*----------------------------------*\
| =========                 |                                                 |
| \\      /  F ield         | foam-extend: Open Source CFD                    |
|  \\    /   O peration     | Version:     3.1                                |
|   \\  /    A nd           | Web:         http://www.extend-project.de       |
|    \\/     M anipulation  |                                                 |
\*---------------------------------------------------------------------------*/
FoamFile
{
    version     2.0;
    format      ascii;
    class       volScalarField;
    location    "7";
    object      nut;
}
// * * * * * * * * * * * * * * * * * * * * * * * * * * * * * * * * * * * * * //

dimensions      [0 2 -1 0 0 0 0];

internalField   nonuniform List<scalar> 
119952
(
3.436015e-05
1.952947e-05
1.979227e-05
2.398202e-05
2.712224e-05
2.608361e-05
2.555965e-05
2.510664e-05
2.45482e-05
2.387367e-05
2.311726e-05
2.231515e-05
2.149512e-05
2.067591e-05
1.986965e-05
1.908138e-05
1.831516e-05
1.757271e-05
1.684183e-05
1.613343e-05
2.145637e-05
2.011933e-05
1.950147e-05
2.643005e-05
2.536242e-05
2.470747e-05
2.414325e-05
2.387131e-05
2.344141e-05
2.493926e-05
2.592155e-05
2.809186e-05
3.162165e-05
3.521317e-05
3.893357e-05
4.277451e-05
4.674126e-05
5.071763e-05
5.466643e-05
6.161655e-05
0.0002571617
0.0002877733
0.0003180131
0.0003454072
0.0003687683
0.0003786774
0.0003789596
0.0003807701
0.0003765641
0.0004867538
0.0004920398
0.000511725
0.000536465
0.000566943
0.000603648
0.000646212
0.000692706
0.0007410496
0.0007694549
0.0008260712
0.0008692721
0.0009046682
0.0009397168
0.0009746346
0.001008457
0.001042732
0.00107718
0.001118788
0.001049011
0.001161449
0.001182754
0.001189261
0.001203462
0.00124367
0.001271768
0.00129301
0.001314576
0.001336169
0.001357297
0.00137743
0.001396186
0.001413289
0.001428541
0.00144173
0.001453041
0.001462916
0.001472006
0.001481695
0.001492559
0.001503167
0.001513533
0.001530908
0.001551103
0.001565153
0.001575268
0.001575903
0.001539855
0.001455502
0.001427154
0.001416224
0.001412135
0.001410886
0.001411301
0.001412865
0.0014153
0.001418402
0.001421982
0.001425858
0.001429868
0.001433896
0.001437869
0.001441697
0.001445269
0.001448485
0.001451271
0.001453582
0.001455395
0.001456706
0.001457519
0.001457843
0.001457686
0.001457068
0.001456014
0.001454559
0.001452739
0.001450589
0.001448133
0.00144539
0.001442379
0.001439114
0.001435613
0.001431898
0.001427993
0.001423925
0.001419722
0.001415409
0.001411002
0.001406514
0.001401948
0.001397305
0.00139258
0.001387771
0.001382872
0.001377896
0.001372891
0.001368126
0.001364784
0.001353714
0.001337902
0.001321564
0.001305822
0.001291166
0.001277699
0.001265363
0.001254035
0.001243561
0.001233788
0.001224572
0.001215789
0.001207328
0.001199095
0.001191008
0.001183
0.001175009
0.001166984
0.001158881
0.001150657
0.001142277
0.00113371
0.001124926
0.001115901
0.001106616
0.001097051
0.001087194
0.001077032
0.001066554
0.001055748
0.001044604
0.001033109
0.001021254
0.001009028
0.0009964208
0.0009834222
0.0009700254
0.0009562245
0.0009420166
0.0009274012
0.0009123799
0.0008969637
0.0008811856
0.0008650132
0.0008485143
0.0008316379
0.0008144576
0.0007970451
0.0007796552
0.0007638161
0.0006819544
0.0005742745
0.0005156453
0.0004793481
0.0004538806
0.000434265
0.0004180558
0.0004039746
0.0003913146
0.0003796677
0.0003687846
0.0003584978
0.0003487498
0.000339557
0.0003306651
0.0003221161
0.0003139088
0.0003060209
0.0002984344
0.0002911431
0.0002841411
0.0002774228
0.000270979
0.0002647977
0.0002588691
0.0002531789
0.0002477175
0.0002424778
0.0002374541
0.0002326398
0.0002280605
0.0002236371
0.0002194759
0.000215612
0.0002122252
0.0002116757
0.0002115943
0.0002137319
0.000216215
0.0002191936
0.000222377
0.0002256315
0.0002289427
0.0002323011
0.000235673
0.0002390308
0.0002423886
0.0002457012
0.0002489696
0.0002521869
0.0002553485
0.0002584525
0.0002614977
0.0002644846
0.0002674145
0.0002702885
0.0002731089
0.0002758783
0.0002785997
0.0002812773
0.0002839112
0.0002864956
0.0002890777
0.0002916187
0.0002941375
0.0002966417
0.0002991395
0.0003014782
0.0003038409
0.0003067459
0.0003979398
0.0003753672
0.0003967377
0.0004121374
0.0004165303
0.0004205774
0.0004244721
0.0004282505
0.0004319345
0.0004355395
0.0004390786
0.0004425752
0.0004460392
0.0004494875
0.0004529321
0.0004563828
0.0004598474
0.0004633322
0.0004668419
0.0004703801
0.0004739492
0.0004775507
0.0004811855
0.0004848536
0.0004885541
0.0004922853
0.0004960448
0.0004998299
0.0005036371
0.0005074627
0.0005113021
0.0005151505
0.0005190027
0.0005228527
0.0005266947
0.0005305223
0.0005343288
0.0005381074
0.0005418509
0.000545552
0.000549203
0.0005527942
0.0005563136
0.0005597446
0.0005630717
0.0005662455
0.0005690122
0.0005714941
0.0005738738
0.0005761399
0.0005782859
0.0005803227
0.0005822685
0.0005845587
0.0005868889
0.0005874758
0.0005880086
0.0005885895
0.0005892449
0.000589977
0.0005907727
0.0005916306
0.0005925506
0.0005935318
0.0005945749
0.0005956797
0.0005968478
0.0005980816
0.0005993772
0.0006007281
0.0006021289
0.0006035778
0.0006050754
0.0006066223
0.0006082174
0.0006098587
0.0006115447
0.0006132749
0.0006150492
0.0006168671
0.0006187272
0.0006206275
0.0006225667
0.0006245439
0.0006265588
0.0006286109
0.0006306996
0.0006328236
0.0006349818
0.0006371727
0.0006393951
0.0006416478
0.0006439298
0.00064624
0.0006485773
0.0006509408
0.0006533293
0.000655742
0.0006581778
0.0006606358
0.0006631151
0.0006656149
0.0006681345
0.0006706733
0.0006732309
0.0006758069
0.0006784009
0.0006810126
0.0006836421
0.0006862895
0.0006889551
0.0006916394
0.0006943427
0.0006970661
0.0006998104
0.0007025768
0.0007053669
0.0007081826
0.000711026
0.0007138999
0.0007168073
0.000719752
0.0007227379
0.0007257709
0.0007288563
0.0007320029
0.0007352191
0.0007385196
0.0007419178
0.0007454349
0.0007490952
0.000752947
0.0007570396
0.0007614931
0.0007664631
0.000772306
0.0007795238
0.0007899252
0.00061428
4.205252e-05
4.544203e-05
5.122243e-05
5.830899e-05
6.600551e-05
7.38966e-05
8.175662e-05
8.948145e-05
9.793963e-05
0.0003856817
0.0004801617
0.0005813134
0.0006816826
0.0007761701
0.0008619204
0.0009383462
0.001005665
0.001064682
0.00150671
0.001548727
0.001590861
0.001632535
0.001675094
0.001720492
0.001770276
0.001825142
0.001884999
0.001948482
0.002017042
0.002085339
0.002153644
0.002222756
0.002292129
0.002360742
0.00242758
0.002491663
0.002552082
0.002598563
0.002627787
0.002653653
0.002677619
0.002698737
0.002715926
0.002727983
0.002733668
0.002731509
0.002719808
0.002696221
0.002658342
0.002606483
0.002542763
0.002470514
0.002377922
0.002268554
0.002150523
0.00203134
0.002281645
0.002176211
0.002085231
0.002010537
0.001953288
0.001913919
0.001891548
0.001884132
0.001888909
0.001875132
0.001857992
0.001861849
0.001878191
0.001900096
0.001924084
0.00195232
0.001978454
0.002004187
0.00201662
0.002039477
0.002101567
0.002128144
0.002129582
0.002146426
0.00217351
0.002199314
0.002220008
0.002239613
0.002260486
0.002283631
0.002309359
0.002338032
0.002369855
0.002404974
0.00244397
0.002487407
0.002523784
0.002550642
0.002577829
0.002605551
0.002633242
0.002661824
0.002691897
0.002696202
0.002738217
0.002761046
0.002797277
0.002811612
0.002822433
0.002836456
0.002853027
0.002871351
0.002891022
0.00291177
0.002933397
0.002955753
0.002978736
0.003002261
0.00302624
0.00305059
0.003075251
0.003100168
0.003125207
0.003150268
0.003175245
0.003200034
0.003224538
0.003248674
0.003272375
0.003295581
0.003318248
0.003340341
0.003361834
0.00338271
0.003402957
0.003422573
0.003441564
0.003459941
0.003477717
0.003494906
0.003511524
0.003527589
0.003543124
0.003558155
0.003572715
0.003586839
0.003600563
0.003613918
0.003626934
0.003639632
0.003652032
0.003664147
0.003675988
0.003687562
0.003698885
0.003709979
0.003720961
0.003731969
0.003742546
0.003752337
0.003761234
0.003769184
0.003776191
0.003782297
0.003787574
0.003792107
0.003795979
0.003799265
0.003802025
0.003804306
0.003806137
0.003807537
0.003808511
0.003809056
0.003809164
0.003808818
0.003807998
0.003806681
0.003804841
0.003802449
0.003799477
0.003795893
0.003791667
0.003786766
0.003781159
0.003774814
0.003767697
0.003759777
0.003751018
0.003741386
0.003730847
0.003719363
0.003706896
0.00369341
0.003678865
0.003663223
0.003646445
0.003628497
0.003609343
0.003588954
0.003567301
0.003544379
0.003520143
0.003494626
0.003467741
0.003439695
0.003410588
0.003386439
0.003174092
0.002969593
0.002845238
0.002760502
0.002696132
0.002642124
0.00259359
0.002548054
0.002504175
0.00246123
0.002418839
0.00237686
0.00233553
0.002294787
0.002254506
0.002214689
0.002175411
0.002136768
0.002098841
0.002061702
0.002025398
0.001989971
0.001955458
0.001921893
0.001889316
0.001857751
0.001827221
0.001797743
0.00176934
0.001742033
0.001715876
0.001690918
0.001667334
0.001645494
0.001626241
0.001611209
0.001599333
0.001589637
0.001581278
0.001573921
0.001567369
0.001561471
0.001556114
0.001551207
0.001546679
0.001542467
0.001538518
0.001534785
0.00153123
0.001527816
0.001524513
0.001521297
0.001518144
0.001515037
0.001511961
0.001508903
0.001505856
0.001502813
0.00149977
0.001496729
0.001493691
0.001490659
0.001487641
0.001484644
0.001481677
0.001478749
0.001475875
0.001473059
0.001470287
0.001467312
0.001736237
0.001737764
0.001739355
0.001740558
0.001741344
0.001741801
0.001742035
0.001742132
0.001742177
0.001742248
0.001742416
0.001742734
0.001743243
0.001743981
0.001744976
0.001746251
0.001747826
0.001749713
0.001751921
0.001754457
0.001757322
0.001760515
0.001764033
0.001767868
0.001772008
0.001776439
0.001781145
0.001786104
0.001791295
0.001796692
0.001802266
0.001807988
0.001813824
0.00181974
0.0018257
0.001831667
0.001837601
0.001843463
0.001849212
0.001854808
0.001860206
0.001865365
0.00187024
0.001874791
0.001878946
0.001882615
0.001885704
0.001888252
0.001890327
0.001891982
0.001893182
0.001893981
0.001894422
0.00189502
0.001895055
0.001894041
0.001892462
0.001890637
0.001888642
0.001886509
0.001884273
0.001881961
0.001879596
0.001877193
0.001874774
0.001872363
0.00186999
0.001867679
0.001865454
0.001863336
0.00186135
0.001859515
0.001857853
0.001856382
0.001855115
0.001854066
0.001853244
0.001852658
0.001852315
0.001852217
0.001852369
0.001852769
0.001853416
0.001854308
0.00185544
0.001856807
0.001858403
0.001860217
0.001862243
0.00186447
0.001866888
0.001869488
0.001872259
0.001875192
0.001878278
0.001881507
0.001884869
0.001888357
0.00189196
0.001895673
0.001899486
0.001903394
0.00190739
0.001911469
0.001915626
0.001919857
0.001924158
0.001928528
0.001932963
0.001937463
0.001942028
0.001946657
0.001951351
0.001956112
0.001960943
0.001965845
0.001970825
0.001975884
0.001981031
0.001986271
0.001991615
0.001997069
0.00200265
0.002008365
0.002014241
0.002020285
0.002026543
0.002033021
0.002039794
0.002046868
0.002054379
0.002062337
0.002070993
0.002080345
0.00209077
0.002102268
0.002116301
0.002134479
0.002155653
3.244229e-05
3.869963e-05
4.824822e-05
5.955049e-05
7.307591e-05
8.945647e-05
0.0001098691
0.0001358541
0.0001699278
0.0002303968
0.00112181
0.00133493
0.001543682
0.001698618
0.001822483
0.001946433
0.002078283
0.002208471
0.002357879
0.004213161
0.004419633
0.004534241
0.004625915
0.004707426
0.0047859
0.004862868
0.004934581
0.004999601
0.005060548
0.005144962
0.005257543
0.005373859
0.005478283
0.005565446
0.005636054
0.005692967
0.00573925
0.005782432
0.00570941
0.005687865
0.005694673
0.005717379
0.005747745
0.005780218
0.005811083
0.005837766
0.00585824
0.005870981
0.005874254
0.005867742
0.005851209
0.005823975
0.005785716
0.005736347
0.005676705
0.005606985
0.006293116
0.006215375
0.00613891
0.006068596
0.006005305
0.005950028
0.005903877
0.005867945
0.005843474
0.005831654
0.005831397
0.005840756
0.005857469
0.005879406
0.005904873
0.00593205
0.005959189
0.005984855
0.006007768
0.0060264
0.006039818
0.006047804
0.006049709
0.00604472
0.006032148
0.006011319
0.005981444
0.005941512
0.005890912
0.005831378
0.005761124
0.005671444
0.00555551
0.005412871
0.005243476
0.005050831
0.004838472
0.00461525
0.004345682
0.004082415
0.00384042
0.003624447
0.003436798
0.00327827
0.003147839
0.003043006
0.002960815
0.002898108
0.002851755
0.002818969
0.002797627
0.002785871
0.002782216
0.002785014
0.002793182
0.002805131
0.002820167
0.002835767
0.002850493
0.00286516
0.002879511
0.002892749
0.002904674
0.002915642
0.002926297
0.002937243
0.002948996
0.002961947
0.002972446
0.002975149
0.002981741
0.00299327
0.003010212
0.00303311
0.003061087
0.003092522
0.003124062
0.003152824
0.003178888
0.003200911
0.003207329
0.003213422
0.003238261
0.003284716
0.003343299
0.00343458
0.003461551
0.0034894
0.003519037
0.003550237
0.00358271
0.003616243
0.003650712
0.003686017
0.003722071
0.003758784
0.00379606
0.003833776
0.003871729
0.003909627
0.003947565
0.003985744
0.004024101
0.004062523
0.004100925
0.004139227
0.004177356
0.004215241
0.004252821
0.00429004
0.004326847
0.004363197
0.004399051
0.004434378
0.004469153
0.004503359
0.004536981
0.004570009
0.004602434
0.004634251
0.004665458
0.004696056
0.004726054
0.004755462
0.004784296
0.00481257
0.004840301
0.004867501
0.004894185
0.004920363
0.004946046
0.004971243
0.004995969
0.005020245
0.005044118
0.005067646
0.005090771
0.005113385
0.005135417
0.00515681
0.005177515
0.005197486
0.005216703
0.005235135
0.005252765
0.005269582
0.005285579
0.005300753
0.005315104
0.005328628
0.005341326
0.005353192
0.005364222
0.005374409
0.005383745
0.005392219
0.005399815
0.005406517
0.005412315
0.005417188
0.005421113
0.005424069
0.005426035
0.005426986
0.005426891
0.00542574
0.005423498
0.005420131
0.005415622
0.005409934
0.005403033
0.005394882
0.005385448
0.005374693
0.005362579
0.005349068
0.005334121
0.005317698
0.005299765
0.005280282
0.005259222
0.005236542
0.005212229
0.00518625
0.005158655
0.005128832
0.005084346
0.005049897
0.005018914
0.004988059
0.004955838
0.004921628
0.004885232
0.004846662
0.004806034
0.004763506
0.004719245
0.00467341
0.00462616
0.004577686
0.004528169
0.004477753
0.004426426
0.004374164
0.004321387
0.004268415
0.00421552
0.004162939
0.00411089
0.004059646
0.004009533
0.00396061
0.003912917
0.003866516
0.003821482
0.003777898
0.003735869
0.003695546
0.003657348
0.00362192
0.003589006
0.003558279
0.003529945
0.00350374
0.003479283
0.003456354
0.003434779
0.003414409
0.003395116
0.003376795
0.003359349
0.003342696
0.00332676
0.003311472
0.003296765
0.003282582
0.003268865
0.003255564
0.003242634
0.003230032
0.003217721
0.003205669
0.00319385
0.003182241
0.003170825
0.00315959
0.003148529
0.00313764
0.003126921
0.003116383
0.003106028
0.003095883
0.003085941
0.003076255
0.003066785
0.003058615
0.003042689
0.003027992
0.003014052
0.003000908
0.002988753
0.002977681
0.002967667
0.002958638
0.002950531
0.002943308
0.002936948
0.002931435
0.002926756
0.002922898
0.002919853
0.002917611
0.002916166
0.00291551
0.002915634
0.002916527
0.002918177
0.002920571
0.002923694
0.002927525
0.002932042
0.002937217
0.002943022
0.002949421
0.002956377
0.002963848
0.002971787
0.002980145
0.002988867
0.002997895
0.00300717
0.003016628
0.003026201
0.003035822
0.003045421
0.003054923
0.003064259
0.003073352
0.003082129
0.00309051
0.003098411
0.003105739
0.003112421
0.003118415
0.003123738
0.003128392
0.00313238
0.00313569
0.003138316
0.003140186
0.003141299
0.00314179
0.003141763
0.003141228
0.003140152
0.003138533
0.003136415
0.003133861
0.003130937
0.0031277
0.003124202
0.003120493
0.003116624
0.003112647
0.003108609
0.003104558
0.003100541
0.003096601
0.003092781
0.003089121
0.003085654
0.003082415
0.00307943
0.003076724
0.00307432
0.003072234
0.00307048
0.003069071
0.003068014
0.003067314
0.003066971
0.003066984
0.003067349
0.003068058
0.003069102
0.00307047
0.003072148
0.003074126
0.003076387
0.003078919
0.003081706
0.003084733
0.003087986
0.00309145
0.003095112
0.003098956
0.003102972
0.003107146
0.003111469
0.003115929
0.003120519
0.003125231
0.003130058
0.003134996
0.003140039
0.003145187
0.003150436
0.003155786
0.003161239
0.003166797
0.003172462
0.003178238
0.003184132
0.003190151
0.003196302
0.003202596
0.003209045
0.003215664
0.003222469
0.003229482
0.003236725
0.003244233
0.003252033
0.003260182
0.00326872
0.003277736
0.003287296
0.003297542
0.003308582
0.003320632
0.003333866
0.003348649
0.003365451
0.003384585
0.003405034
4.190548e-05
6.479144e-05
0.000158678
0.0005179204
0.0008754573
0.001532411
0.002060631
0.002700466
0.003422544
0.003993063
0.004392696
0.004705246
0.005020146
0.00533207
0.00564114
0.005940292
0.006217391
0.006455704
0.006668023
0.006856176
0.00702037
0.007160642
0.007264259
0.007339778
0.006965082
0.006644103
0.006369368
0.006141194
0.006005917
0.005958259
0.00613285
0.005941863
0.006154436
0.006347423
0.006574661
0.006838892
0.007138386
0.007461741
0.007825258
0.008220666
0.008696253
0.009292829
0.009735284
0.009822924
0.009894132
0.009953646
0.01
0.01
0.01
0.01
0.01
0.01
0.01
0.01
0.01
0.01
0.01
0.01
0.01
0.01
0.01
0.01
0.009953528
0.009874413
0.009781416
0.009674991
0.009555897
0.009429863
0.009281228
0.009139059
0.009000787
0.008865956
0.00873887
0.008622519
0.008518684
0.008427751
0.008348705
0.008279016
0.008219315
0.008170427
0.008133636
0.00810947
0.008094655
0.008086388
0.008082267
0.008080202
0.008078344
0.008075105
0.00806919
0.008059564
0.008045403
0.008026013
0.008000854
0.007969436
0.007931521
0.007888485
0.007838023
0.007772772
0.007686889
0.007578104
0.007443442
0.007281781
0.007091877
0.006876587
0.00663717
0.006379228
0.006105238
0.005820935
0.00553664
0.005262325
0.005005566
0.004771339
0.004562178
0.004378499
0.004219309
0.004082706
0.003966417
0.003868201
0.003786127
0.003718437
0.003663645
0.003620301
0.003587169
0.00356282
0.003546015
0.003534928
0.003528053
0.003524447
0.00352334
0.003523956
0.003525614
0.003527572
0.00352974
0.003532239
0.003535316
0.00353929
0.003544507
0.003551303
0.003559987
0.003570832
0.003584018
0.003599639
0.00361771
0.003638149
0.003652851
0.003658791
0.003664792
0.003672815
0.003676963
0.003683676
0.003702873
0.003744379
0.003799928
0.003881093
0.003956068
0.003988121
0.00402138
0.004056085
0.004092162
0.004129514
0.004168091
0.00420786
0.004248769
0.004290748
0.00433371
0.004377557
0.004422166
0.004467396
0.004513086
0.004558979
0.004605068
0.004651434
0.004698206
0.00474528
0.004792557
0.004839956
0.004887404
0.00493483
0.004982168
0.005029353
0.005076326
0.005123035
0.005169431
0.005215473
0.005261123
0.005306346
0.005351109
0.005395382
0.005439137
0.005482347
0.005524991
0.005567052
0.005608514
0.005649366
0.005689597
0.005729201
0.00576817
0.005806501
0.005844191
0.005881242
0.005917661
0.005953462
0.005988667
0.006023315
0.00605741
0.006090914
0.006123789
0.006156014
0.006187569
0.006218431
0.006248573
0.00627796
0.006306551
0.006334332
0.006361263
0.006387309
0.00641244
0.006436629
0.00645985
0.00648208
0.006503292
0.00652348
0.006542618
0.006560683
0.006577659
0.006593527
0.006608271
0.006621872
0.006634314
0.006645578
0.006655647
0.006664503
0.006672125
0.006678495
0.006683594
0.006687401
0.006689893
0.006691047
0.006690838
0.00668924
0.006686224
0.006681762
0.006675822
0.006668371
0.006659375
0.006648796
0.006636599
0.006622743
0.006607195
0.006589912
0.006570869
0.006550025
0.006527385
0.006502811
0.006475363
0.006446059
0.006415283
0.006383098
0.006349454
0.006314257
0.006277403
0.00623886
0.006198596
0.006156618
0.006112962
0.006067691
0.006020892
0.005972668
0.005923117
0.005872392
0.005820597
0.00576785
0.005714312
0.005660173
0.005605616
0.005550872
0.005496106
0.00544142
0.005386761
0.005332472
0.005278846
0.005226139
0.005174585
0.005124406
0.005075794
0.005028996
0.004983992
0.004940613
0.004899031
0.004859423
0.004821917
0.004786457
0.004752836
0.004720936
0.004690598
0.004661695
0.00463412
0.00460778
0.004582561
0.004558436
0.00453531
0.004513095
0.004491694
0.004471094
0.004451212
0.004431979
0.004413337
0.004395231
0.004377615
0.004360445
0.004343684
0.004327299
0.004311265
0.004295559
0.00428017
0.004265084
0.004250302
0.004235822
0.004221661
0.004207816
0.004194305
0.004181156
0.004168439
0.004156128
0.004143826
0.004131549
0.004119523
0.004107937
0.004096886
0.004086423
0.004076592
0.004067439
0.004059012
0.004051364
0.004044544
0.004038599
0.004033567
0.00402948
0.004026365
0.004024244
0.004023136
0.004023055
0.00402401
0.004026004
0.00402904
0.004033118
0.004038228
0.004044358
0.004051489
0.004059598
0.004068657
0.004078629
0.004089476
0.00410115
0.004113599
0.004126763
0.004140579
0.004154975
0.004169877
0.004185203
0.004200867
0.00421678
0.00423285
0.004248978
0.004265067
0.004281015
0.004296719
0.004312075
0.004326977
0.004341323
0.004355015
0.004367975
0.004380158
0.00439153
0.004402062
0.004411719
0.004420469
0.004428306
0.004435254
0.004441268
0.004446312
0.00445042
0.004453648
0.004456046
0.004457662
0.004458541
0.004458734
0.004458289
0.00445726
0.004455701
0.004453669
0.004451228
0.004448441
0.004445372
0.004442085
0.004438645
0.004435114
0.004431551
0.004428014
0.004424554
0.004421221
0.004418059
0.004415108
0.004412403
0.004409978
0.004407858
0.004406066
0.004404621
0.004403535
0.004402818
0.004402474
0.004402504
0.004402904
0.004403669
0.004404789
0.004406255
0.004408052
0.004410169
0.004412588
0.004415296
0.004418274
0.004421508
0.00442498
0.004428675
0.004432577
0.004436673
0.004440948
0.004445391
0.004449992
0.004454741
0.00445963
0.004464653
0.004469805
0.004475085
0.004480489
0.004486018
0.004491674
0.00449746
0.004503381
0.004509442
0.004515651
0.004522018
0.004528554
0.004535272
0.004542188
0.004549321
0.004556691
0.004564326
0.004572253
0.004580512
0.004589142
0.004598199
0.004607743
0.004617855
0.004628629
0.004640177
0.004652653
0.004666196
0.004681062
0.004697356
0.004715525
0.004735237
0.004755997
2.739518e-05
4.217655e-05
6.102019e-05
0.0002861963
0.0004581011
0.0007426909
0.001040914
0.001307191
0.001638774
0.001959027
0.002304748
0.002754135
0.003276806
0.003861272
0.004514531
0.005338003
0.006759204
0.007288614
0.007768707
0.008168912
0.008490792
0.008737078
0.008924693
0.009067892
0.009168717
0.009218961
0.008994824
0.008710435
0.008422078
0.008113411
0.00778958
0.007455747
0.007114183
0.006777156
0.006455494
0.006166886
0.005895788
0.005665141
0.005503746
0.005415706
0.0053611
0.005407854
0.005582667
0.005728738
0.005952935
0.006246389
0.006580963
0.006968344
0.007413448
0.007953446
0.008605355
0.009368526
0.01
0.01
0.01
0.01
0.01
0.01
0.01
0.01
0.01
0.01
0.01
0.01
0.01
0.01
0.01
0.01
0.01
0.01
0.01
0.01
0.01
0.01
0.01
0.01
0.01
0.01
0.01
0.01
0.01
0.01
0.01
0.01
0.01
0.01
0.01
0.01
0.01
0.01
0.009953988
0.009895615
0.00984345
0.009799261
0.009764473
0.009737569
0.009715851
0.009697071
0.009679279
0.009660813
0.009640429
0.009617264
0.009590739
0.009561171
0.009529106
0.009492209
0.00944549
0.009386735
0.009313738
0.009223595
0.009113458
0.008980358
0.008822084
0.008636362
0.008423632
0.008185197
0.007924591
0.007646057
0.007354362
0.007056175
0.006759354
0.006471327
0.006198078
0.005943782
0.005710746
0.005499673
0.005310049
0.005140592
0.004989659
0.004855635
0.004737056
0.004632747
0.004541716
0.004463157
0.004396228
0.004340093
0.004293568
0.004255448
0.004224603
0.004199983
0.004180548
0.004165238
0.00415276
0.004142333
0.004133411
0.004125662
0.004118952
0.004113315
0.004108926
0.004106072
0.004105098
0.004106344
0.004110113
0.004116646
0.004126065
0.004138308
0.00415354
0.004171637
0.004192393
0.004215536
0.004213221
0.004222184
0.004248424
0.004289614
0.004344295
0.004379602
0.004409627
0.004440954
0.004473798
0.004508166
0.004544009
0.004581304
0.004620043
0.004660208
0.004701765
0.00474466
0.004788825
0.004834181
0.00488063
0.004928067
0.004976371
0.005025432
0.005075115
0.005125214
0.005175751
0.005226763
0.005278336
0.005330377
0.005382788
0.00543549
0.005488403
0.005541455
0.005594577
0.005647705
0.005700779
0.005753747
0.005806557
0.00585916
0.005911508
0.005963554
0.006015251
0.006066554
0.00611742
0.006167807
0.006217677
0.00626699
0.006315712
0.006363812
0.006411261
0.006458037
0.006504125
0.006549513
0.006594203
0.0066382
0.006681521
0.006724172
0.006766138
0.0068074
0.006847947
0.00688777
0.006926857
0.006965191
0.007002749
0.007039502
0.007075412
0.007110473
0.007144642
0.007177878
0.007210146
0.007241405
0.007271642
0.007300816
0.007328893
0.007355845
0.007381645
0.007406268
0.00742969
0.00745189
0.007472848
0.007492543
0.007510957
0.007528072
0.007543872
0.007558341
0.007571461
0.007583218
0.007593596
0.007602579
0.00761015
0.007616292
0.007620986
0.007624213
0.007625952
0.007626178
0.007624868
0.007621992
0.007617521
0.007611423
0.007603662
0.007594206
0.007583016
0.007570063
0.007555315
0.00753876
0.007520361
0.007499985
0.007477562
0.007453123
0.007426716
0.007398365
0.007368073
0.007335842
0.007301681
0.007265605
0.007227643
0.007187836
0.007146236
0.007102914
0.007057951
0.007011443
0.006963493
0.006914219
0.006863743
0.006812204
0.006759756
0.006706563
0.006652794
0.006598616
0.006544186
0.006489654
0.006435189
0.006380979
0.006327207
0.006274052
0.006221687
0.006170279
0.006119989
0.00607095
0.006023283
0.005977123
0.005932617
0.005889891
0.005848984
0.005809839
0.005772356
0.005736447
0.005702033
0.005669039
0.005637395
0.005607031
0.005577879
0.005549869
0.005522934
0.005497004
0.005472014
0.00544787
0.005424576
0.00540205
0.005380222
0.005359037
0.005338446
0.005318406
0.005298877
0.00527983
0.005261235
0.005243074
0.005225303
0.005207975
0.00519107
0.005174584
0.00515852
0.005142906
0.005127751
0.005113093
0.005098933
0.005085284
0.005072184
0.005059685
0.005047825
0.005036642
0.005026197
0.005016556
0.005007775
0.004999904
0.004992989
0.004987077
0.004982212
0.004978439
0.004975796
0.004974321
0.004974047
0.004975003
0.004977215
0.004980703
0.004985483
0.004991568
0.004998969
0.005007687
0.005017717
0.005029047
0.005041661
0.005055537
0.005070644
0.005086944
0.005104392
0.005122935
0.005142514
0.005163059
0.005184494
0.005206737
0.005229696
0.005253275
0.00527737
0.005301872
0.005326668
0.005351638
0.005376662
0.005401615
0.005426371
0.005450802
0.005474785
0.0054982
0.005520938
0.00554291
0.005564042
0.005584269
0.00560353
0.005621771
0.00563895
0.005655022
0.005669932
0.00568366
0.005696217
0.005707624
0.005717896
0.005727051
0.005735115
0.005742126
0.005748128
0.00575317
0.005757305
0.005760594
0.005763102
0.005764902
0.005766064
0.005766667
0.005766785
0.005766495
0.005765872
0.005764987
0.00576391
0.005762707
0.005761439
0.005760166
0.005758941
0.005757813
0.005756827
0.00575602
0.005755429
0.00575508
0.005754998
0.005755199
0.005755697
0.005756498
0.005757608
0.005759025
0.005760747
0.005762766
0.005765074
0.00576766
0.005770512
0.005773617
0.005776959
0.005780525
0.005784301
0.005788271
0.005792423
0.005796744
0.005801223
0.005805851
0.005810619
0.00581552
0.00582055
0.005825706
0.005830985
0.005836389
0.005841919
0.005847579
0.005853374
0.005859311
0.005865399
0.005871649
0.005878072
0.005884683
0.005891498
0.005898535
0.005905818
0.00591337
0.005921222
0.005929406
0.005937964
0.005946941
0.005956392
0.005966385
0.005976996
0.00598832
0.00600046
0.006013557
0.006027727
0.006043179
0.006059964
0.006078421
0.006098112
0.006118315
2.871834e-05
4.295137e-05
8.941577e-05
0.0002601529
0.0004085583
0.0006353954
0.0008099885
0.001005032
0.001233588
0.001452234
0.001706981
0.002034039
0.00240068
0.002833853
0.003395421
0.00442652
0.004870871
0.005334133
0.005806191
0.006284122
0.006770119
0.007252439
0.007713847
0.008142148
0.008526143
0.008863979
0.009174606
0.009496733
0.009766523
0.009975166
0.01
0.009857609
0.009500459
0.009164344
0.008833649
0.008525885
0.008244893
0.007980895
0.007725882
0.007470503
0.007210077
0.006941965
0.006664697
0.006362901
0.006055969
0.005744331
0.005456137
0.005229374
0.005083461
0.005021064
0.005044111
0.005135345
0.005294987
0.005522103
0.005831932
0.00623808
0.006729655
0.007340907
0.00809018
0.008955528
0.009967614
0.01
0.01
0.01
0.01
0.01
0.01
0.01
0.01
0.01
0.01
0.01
0.01
0.01
0.01
0.01
0.01
0.01
0.01
0.01
0.01
0.01
0.01
0.01
0.01
0.01
0.01
0.01
0.01
0.01
0.01
0.01
0.01
0.01
0.01
0.01
0.01
0.01
0.01
0.01
0.01
0.01
0.01
0.01
0.01
0.01
0.01000001
0.01000001
0.01
0.01
0.01
0.01
0.01
0.01
0.01
0.01
0.01
0.01
0.01
0.01
0.01
0.01
0.01
0.009892669
0.009691046
0.009465096
0.009216656
0.008948515
0.008663944
0.008368636
0.008069164
0.007772164
0.007483624
0.007208324
0.006949534
0.006709022
0.006487249
0.006283678
0.00609717
0.005926382
0.005770041
0.005627141
0.005496982
0.00537914
0.005273331
0.005179347
0.005096714
0.005024899
0.004963208
0.00491079
0.004866679
0.004829768
0.004798583
0.004771933
0.004748749
0.004728139
0.004709421
0.004692143
0.004676085
0.00466125
0.004647832
0.004636157
0.004626622
0.004619636
0.004615556
0.004614395
0.004616606
0.004622249
0.004631257
0.004643524
0.004658833
0.00467673
0.004696568
0.004717965
0.004740441
0.004764205
0.004789374
0.004816106
0.004844496
0.004874535
0.004906173
0.004939379
0.004974142
0.00501046
0.005048325
0.005087717
0.005128609
0.005170963
0.005214725
0.005259835
0.005306217
0.005353792
0.005402469
0.005452148
0.005502735
0.005554115
0.005606108
0.005658715
0.005711936
0.005765822
0.005820297
0.005875259
0.005930623
0.005986309
0.006042248
0.006098373
0.006154623
0.006210941
0.006267268
0.006323551
0.006379733
0.006435758
0.006491569
0.006547109
0.006602318
0.006657139
0.006711514
0.006765388
0.006818711
0.006871439
0.006923536
0.006974971
0.007025725
0.007075786
0.007125151
0.007173813
0.007221761
0.007268979
0.007315456
0.007361182
0.007406146
0.007450333
0.007493726
0.007536303
0.007578034
0.007618879
0.007658843
0.00769788
0.007735947
0.00777301
0.007809033
0.007843983
0.007877824
0.007910526
0.007942057
0.00797239
0.008001499
0.008029357
0.008055943
0.008081236
0.008105218
0.00812787
0.008149177
0.008169125
0.008187702
0.008204895
0.008220694
0.008235087
0.008248066
0.008259619
0.008269735
0.008278403
0.00828561
0.008291341
0.008295579
0.008298304
0.008299493
0.008299121
0.00829716
0.008293579
0.008288345
0.008281428
0.008272796
0.00826242
0.008250266
0.008236277
0.008220385
0.008202545
0.00818273
0.008160914