/*--------------------------------*- C++ -*----------------------------------*\
| =========                 |                                                 |
| \\      /  F ield         | foam-extend: Open Source CFD                    |
|  \\    /   O peration     | Version:     3.1                                |
|   \\  /    A nd           | Web:         http://www.extend-project.de       |
|    \\/     M anipulation  |                                                 |
\*---------------------------------------------------------------------------*/
FoamFile
{
    version     2.0;
    format      ascii;
    class       volScalarField;
    location    "7";
    object      pd;
}
// * * * * * * * * * * * * * * * * * * * * * * * * * * * * * * * * * * * * * //

dimensions      [1 -1 -2 0 0 0 0];

internalField   nonuniform List<scalar> 
119952
(
8497.349
8449.327
8444.331
8465.775
8487.909
8489.545
8496.104
8502.613
8509.236
8515.799
8522.299
8528.657
8534.838
8540.854
8546.666
8552.228
8557.474
8562.257
8565.975
8565.813
8592.538
8583.278
8583.513
8615.486
8614.318
8621.208
8626.332
8636.364
8663.841
9284.951
6853.815
6895.789
6947.016
7002.824
7058.311
7113.282
7170.348
7227.018
7285.221
7326.437
7393.861
7456.303
7517.085
7577.856
7637.786
7696.112
7751.602
7803.649
7857.345
7932.66
7950.507
7977.772
8011.433
8041.665
8072.107
8104.324
8136.702
8168.372
8197.608
8224.149
8252.539
8277.983
8301.815
8324.759
8346.616
8367.512
8388.036
8411.073
8438.057
8441.639
8452.342
8468.803
8481.48
8489.873
8496.832
8503.801
8510.517
8517.081
8523.537
8529.855
8536.008
8541.975
8547.752
8553.27
8558.511
8563.451
8568.144
8573.01
8579.751
8585.489
8590.441
8601.524
8613.314
8618.611
8624.008
8628.299
8626.732
8611.606
8611.573
8616.029
8619.719
8623.327
8626.633
8629.73
8632.681
8635.521
8638.267
8640.93
8643.518
8646.036
8648.491
8650.887
8653.224
8655.502
8657.723
8659.889
8662.001
8664.059
8666.065
8668.019
8669.924
8671.78
8673.587
8675.347
8677.06
8678.727
8680.349
8681.925
8683.456
8684.943
8686.386
8687.786
8689.142
8690.456
8691.728
8692.961
8694.156
8695.314
8696.438
8697.528
8698.586
8699.614
8700.606
8701.563
8702.472
8703.349
8704.482
8705.758
8707.049
8708.037
8709.01
8709.977
8710.936
8711.893
8712.849
8713.802
8714.751
8715.695
8716.633
8717.563
8718.482
8719.39
8720.283
8721.159
8722.016
8722.853
8723.669
8724.481
8725.174
8725.951
8726.638
8727.286
8727.88
8728.456
8728.997
8729.501
8729.969
8730.398
8730.788
8731.139
8731.452
8731.726
8731.963
8732.162
8732.323
8732.448
8732.536
8732.586
8732.599
8732.59
8732.527
8732.406
8732.237
8731.993
8731.624
8731.108
8730.952
8732.513
8732.485
8732.223
8732.043
8731.813
8731.534
8731.224
8730.899
8730.557
8730.199
8729.831
8729.451
8729.052
8728.641
8728.288
8727.917
8727.546
8727.179
8726.82
8726.472
8726.136
8725.813
8725.504
8725.207
8724.922
8724.64
8724.355
8724.053
8723.721
8723.332
8722.85
8722.137
8721.116
8719.462
8716.551
8712.607
8719.337
8724.332
8728.426
8731.939
8735.283
8738.492
8741.629
8744.729
8747.824
8750.925
8754.044
8757.186
8760.357
8763.561
8766.797
8770.068
8773.373
8776.711
8780.082
8783.483
8786.914
8790.371
8793.854
8797.36
8800.889
8804.436
8808
8811.581
8815.179
8818.793
8822.435
8826.139
8829.78
8833.228
8849.136
8847.312
8843.644
8847.515
8851.241
8854.152
8857.345
8860.77
8864.186
8867.561
8870.958
8874.38
8877.794
8881.205
8884.61
8888.005
8891.387
8894.753
8898.104
8901.439
8904.757
8908.059
8911.346
8914.617
8917.875
8921.119
8924.351
8927.572
8930.783
8933.985
8937.181
8940.371
8943.557
8946.741
8949.925
8953.111
8956.303
8959.505
8962.721
8965.959
8969.23
8972.55
8975.949
8979.461
8983.04
8986.331
8988.907
8991.114
8993.498
8996.054
8998.672
9001.35
9003.927
9005.46
9003.341
9009.156
9012.711
9015.003
9017.573
9020.15
9022.636
9025.115
9027.606
9030.108
9032.611
9035.105
9037.585
9040.053
9042.505
9044.94
9047.355
9049.747
9052.114
9054.455
9056.768
9059.053
9061.308
9063.533
9065.726
9067.887
9070.015
9072.109
9074.168
9076.191
9078.177
9080.124
9082.032
9083.899
9085.725
9087.507
9089.244
9090.935
9092.578
9094.172
9095.715
9097.206
9098.642
9100.022
9101.345
9102.608
9103.809
9104.948
9106.022
9107.028
9107.965
9108.83
9109.622
9110.337
9110.974
9111.531
9112.003
9112.388
9112.684
9112.885
9112.99
9112.992
9112.888
9112.673
9112.339
9111.88
9111.289
9110.554
9109.666
9108.611
9107.372
9105.929
9104.259
9102.332
9100.107
9097.51
9094.473
9090.894
9086.631
9081.416
9074.815
9066.467
9058.327
9062.606
9101.762
6770.783
6666.172
6543.597
6428.408
6320.274
6219.239
6125.671
6040.786
5967.121
5874.589
5831.616
5789.925
5757.231
5736.471
5727.774
5730.788
5744.306
5767.442
5825.153
5869.672
5893.085
5936.589
5987.617
6040.734
6096.529
6154.055
6212.696
6272.738
6330.113
6383.114
6445.009
6504.133
6562.493
6620.145
6677.324
6734.089
6791.104
6851.337
6895.816
6947.694
7004.965
7060.987
7116.802
7172.629
7229.814
7287.616
7344.226
7402.612
7463.401
7523.193
7581.925
7639.402
7695.872
7750.431
7802.228
7849.727
7907.609
7951.64
7984.662
8015.914
8048.359
8081.895
8115.429
8148.088
8179.387
8209.141
8236.918
8262.673
8287.384
8311.274
8334.126
8355.802
8376.516
8396.475
8415.726
8433.305
8447.11
8458.747
8470.502
8481.773
8491.484
8499.58
8506.793
8513.682
8520.419
8526.985
8533.366
8539.525
8545.433
8551.102
8556.57
8561.852
8567.019
8572.218
8577.678
8583.597
8589.865
8596.576
8604.045
8611.403
8616.933
8620.444
8621.819
8620.635
8617.622
8617.087
8619.109
8622.133
8625.256
8628.217
8631.058
8633.836
8636.56
8639.216
8641.801
8644.32
8646.777
8649.171
8651.511
8653.794
8656.02
8658.191
8660.309
8662.375
8664.389
8666.353
8668.268
8670.135
8671.955
8673.729
8675.457
8677.14
8678.78
8680.374
8681.925
8683.433
8684.896
8686.317
8687.695
8689.03
8690.323
8691.575
8692.787
8693.962
8695.099
8696.202
8697.273
8698.313
8699.326
8700.313
8701.284
8702.254
8703.257
8704.328
8705.431
8706.482
8707.482
8708.449
8709.403
8710.353
8711.298
8712.24
8713.177
8714.11
8715.038
8715.958
8716.87
8717.77
8718.657
8719.528
8720.38
8721.211
8722.019
8722.799
8723.544
8724.289
8724.972
8725.632
8726.258
8726.852
8727.41
8727.929
8728.41
8728.851
8729.254
8729.618
8729.943
8730.231
8730.48
8730.693
8730.87
8731.011
8731.116
8731.187
8731.223
8731.226
8731.194
8731.131
8731.024
8730.885
8730.705
8730.523
8730.316
8730.116
8731.961
8730.806
8730.805
8730.717
8730.507
8730.255
8729.977
8729.68
8729.369
8729.047
8728.716
8728.38
8728.041
8727.705
8727.374
8727.042
8726.706
8726.377
8726.062
8725.755
8725.459
8725.175
8724.902
8724.64
8724.387
8724.139
8723.886
8723.622
8723.328
8722.984
8722.556
8721.996
8721.242
8720.294
8719.432
8719.553
8722.096
8725.896
8729.339
8732.611
8735.813
8738.93
8742.007
8745.072
8748.141
8751.223
8754.326
8757.458
8760.62
8763.817
8767.049
8770.316
8773.619
8776.956
8780.326
8783.729
8787.161
8790.62
8794.106
8797.615
8801.146
8804.696
8808.265
8811.849
8815.45
8819.067
8822.705
8826.361
8830.096
8834.729
8840.019
8844.855
8847.608
8849.449
8851.746
8854.743
8858.114
8861.556
8864.962
8868.343
8871.73
8875.134
8878.547
8881.958
8885.36
8888.749
8892.124
8895.485
8898.831
8902.161
8905.474
8908.772
8912.055
8915.322
8918.576
8921.816
8925.043
8928.26
8931.466
8934.664
8937.854
8941.039
8944.219
8947.397
8950.574
8953.753
8956.936
8960.127
8963.33
8966.55
8969.791
8973.055
8976.335
8979.599
8982.784
8985.81
8988.597
8991.182
8993.715
8996.294
8998.901
9001.494
9003.969
9006.097
9007.662
9009.519
9012.21
9015.272
9018.203
9020.876
9023.385
9025.85
9028.329
9030.827
9033.324
9035.807
9038.273
9040.724
9043.161
9045.582
9047.984
9050.365
9052.722
9055.054
9057.36
9059.638
9061.887
9064.106
9066.294
9068.45
9070.573
9072.662
9074.716
9076.733
9078.713
9080.655
9082.556
9084.416
9086.234
9088.009
9089.738
9091.42
9093.054
9094.638
9096.171
9097.651
9099.076
9100.444
9101.755
9103.005
9104.194
9105.319
9106.379
9107.371
9108.293
9109.143
9109.92
9110.62
9111.241
9111.781
9112.237
9112.605
9112.884
9113.068
9113.156
9113.141
9113.021
9112.788
9112.438
9111.964
9111.358
9110.611
9109.713
9108.649
9107.409
9105.969
9104.316
9102.411
9100.235
9097.728
9094.862
9091.558
9087.838
9083.718
9079.629
9076.298
9075.119
9076.484
9081.144
3831.935
3934.135
4076.813
4246.521
4443.758
4669.217
4924.668
5209.837
5523.112
5855.174
6211.519
6584.691
6962.78
7334.609
7691.206
8024.638
8322.216
8572.171
8765.86
8915.285
8997.848
9030.402
9016.634
8962.801
8875.478
8761.411
8626.061
8475.581
8317.999
8146.864
7977.331
7804.664
7634.332
7468.74
7309.342
7156.858
7012.111
6875.994
6737.497
6612.188
6492.807
6379.961
6274.428
6175.715
6084.648
6002.13
5929.996
5866.27
5810.671
5770.234
5741.235
5723.513
5717.582
5723.367
5740.197
5767.682
5808.807
5853.894
5898.893
5946.923
5999.795
6055.995
6113.716
6172.091
6230.959
6290.336
6350.089
6409.532
6467.885
6524.914
6581.879
6638.623
6694.932
6750.677
6805.743
6860.18
6914.199
6967.091
7019.955
7073.603
7128.056
7183.218
7238.785
7294.942
7351.753
7409.167
7466.435
7524.058
7580.85
7636.966
7691.519
7744.421
7794.722
7843.969
7894.262
7939.403
7976.888
8011.062
8045.382
8080.247
8114.711
8147.976
8179.518
8209.16
8237.17
8263.847
8289.28
8313.444
8336.292
8357.907
8378.312
8397.674
8415.764
8432.595
8447.35
8459.631
8470.917
8481.857
8491.851
8500.507
8508.17
8515.346
8522.277
8528.988
8535.459
8541.684
8547.673
8553.455
8559.058
8564.493
8569.803
8575.125
8580.589
8586.297
8592.255
8598.315
8604.512
8610.53
8615.425
8618.619
8620.257
8620.312
8619.713
8619.856
8621.422
8623.964
8626.761
8629.496
8632.159
8634.793
8637.402
8639.965
8642.473
8644.925
8647.327
8649.671
8651.962
8654.197
8656.38
8658.509
8660.588
8662.617
8664.596
8666.527
8668.411
8670.248
8672.041
8673.789
8675.494
8677.156
8678.775
8680.351
8681.884
8683.374
8684.822
8686.227
8687.59
8688.91
8690.189
8691.427
8692.625
8693.784
8694.907
8695.995
8697.051
8698.078
8699.08
8700.062
8701.032
8702.001
8702.981
8703.985
8705.026
8706.046
8707.014
8707.951
8708.877
8709.801
8710.723
8711.642
8712.557
8713.468
8714.374
8715.272
8716.162
8717.041
8717.907
8718.757
8719.589
8720.4
8721.188
8721.95
8722.683
8723.392
8724.065
8724.705
8725.313
8725.886
8726.422
8726.92
8727.379
8727.8
8728.181
8728.525
8728.83
8729.098
8729.33
8729.525
8729.686
8729.812
8729.905
8729.965
8729.994
8729.991
8729.959
8729.896
8729.808
8729.695
8729.573
8729.444
8729.386
8729.43
8729.886
8729.973
8729.732
8729.428
8729.166
8728.923
8728.665
8728.388
8728.099
8727.8
8727.495
8727.182
8726.868
8726.556
8726.243
8725.933
8725.628
8725.365
8725.105
8724.845
8724.595
8724.359
8724.134
8723.923
8723.723
8723.532
8723.345
8723.156
8722.958
8722.742
8722.502
8722.247
8722.023
8721.96
8722.292
8723.355
8725.327
8728.007
8730.955
8733.927
8736.879
8739.829
8742.795
8745.786
8748.802
8751.847
8754.925
8758.038
8761.189
8764.379
8767.608
8770.875
8774.18
8777.521
8780.897
8784.306
8787.746
8791.214
8794.708
8798.226
8801.765
8805.324
8808.899
8812.491
8816.093
8819.711
8823.329
8826.965
8830.577
8834.259
8837.606
8840.259
8843.104
8846.433
8850.056
8853.749
8857.407
8861.002
8864.538
8868.031
8871.5
8874.959
8878.408
8881.844
8885.263
8888.664
8892.048
8895.414
8898.763
8902.095
8905.41
8908.708
8911.99
8915.255
8918.506
8921.743
8924.967
8928.179
8931.38
8934.572
8937.755
8940.931
8944.103
8947.27
8950.435
8953.601
8956.768
8959.94
8963.118
8966.304
8969.497
8972.69
8975.871
8979.017
8982.103
8985.091
8987.943
8990.647
8993.265
8995.867
8998.482
9001.077
9003.661
9006.321
9009.288
9012.145
9014.615
9016.864
9019.099
9021.387
9023.724
9026.098
9028.506
9030.944
9033.398
9035.852
9038.3
9040.739
9043.168
9045.583
9047.981
9050.36
9052.717
9055.05
9057.359
9059.64
9061.894
9064.118
9066.311
9068.473
9070.602
9072.697
9074.757
9076.78
9078.766
9080.713
9082.62
9084.486
9086.309
9088.088
9089.822
9091.509
9093.147
9094.736
9096.273
9097.756
9099.185
9100.558
9101.872
9103.126
9104.318
9105.447
9106.51
9107.506
9108.432
9109.287
9110.068
9110.772
9111.399
9111.944
9112.407
9112.782
9113.069
9113.262
9113.36
9113.357
9113.25
9113.033
9112.701
9112.249
9111.668
9110.952
9110.091
9109.074
9107.889
9106.524
9104.959
9103.178
9101.159
9098.884
9096.335
9093.531
9090.52
9087.466
9084.595
9082.271
9080.77
9080.68
9082.175
3415.351
3389.637
3380.985
3376.64
3381.174
3407.356
3449.902
3519.897
3609.051
3664.475
3688.565
3735.94
3814.938
3924.407
4063.265
4228.058
4419.3
4636.816
4881.756
5154.609
5454.46
5779.857
6125.497
6487.286
6857.535
7226.58
7582.431
7913.419
8207.8
8456.931
8655.48
8822.572
8904.579
8929.671
8905.76
8843.692
8749.922
8630.65
8492.058
8339.988
8179.137
8013.431
7844.909
7676.303
7511.577
7352.845
7200.705
7055.321
6916.674
6784.424
6658.126
6537.962
6423.4
6314.352
6211.308
6114.874
6025.82
5945.082
5873.526
5812.103
5761.78
5723.112
5696.721
5683.019
5681.682
5692.178
5713.396
5745.626
5788.574
5834.883
5882.438
5935.121
5991.96
6051.34
6111.794
6172.594
6233.435
6293.997
6354.169
6413.962
6474.248
6530.543
6587.324
6643.668
6699.251
6754.01
6808.054
6861.547
6914.158
6966
7018.054
7070.914
7124.547
7178.758
7233.423
7288.719
7344.328
7400.34
7456.614
7512.75
7568.48
7623.456
7677.53
7730.186
7782.009
7831.903
7878.957
7923.257
7963.821
8001.566
8038.148
8074.215
8109.419
8143.225
8175.297
8205.624
8234.397
8261.722
8287.586
8312.033
8335.113
8356.903
8377.403
8396.664
8414.594
8431.128
8445.937
8458.9
8470.61
8481.541
8491.614
8500.66
8508.815
8516.392
8523.612
8530.542
8537.19
8543.585
8549.755
8555.712
8561.472
8567.054
8572.501
8577.891
8583.292
8588.765
8594.314
8599.852
8605.311
8610.486
8614.866
8618.066
8620.113
8621.162
8621.663
8622.355
8623.826
8626.011
8628.509
8631.048
8633.567
8636.077
8638.579
8641.055
8643.49
8645.879
8648.22
8650.51
8652.751
8654.942
8657.08
8659.166
8661.204
8663.193
8665.134
8667.03
8668.883
8670.691
8672.456
8674.178
8675.859
8677.498
8679.096
8680.652
8682.166
8683.639
8685.07
8686.459
8687.807
8689.112
8690.376
8691.599
8692.782
8693.927
8695.035
8696.108
8697.15
8698.165
8699.155
8700.126
8701.086
8702.041
8703
8703.973
8704.958
8705.929
8706.871
8707.793
8708.705
8709.614
8710.519
8711.421
8712.319
8713.212
8714.1
8714.981
8715.853
8716.715
8717.564
8718.397
8719.212
8720.006
8720.777
8721.523
8722.24
8722.929
8723.585
8724.208
8724.796
8725.349
8725.865
8726.342
8726.78
8727.18
8727.54
8727.863
8728.147
8728.395
8728.606
8728.781
8728.922
8729.03
8729.105
8729.149
8729.163
8729.148
8729.107
8729.041
8728.955
8728.853
8728.747
8728.653
8728.603
8728.618
8728.656
8728.469
8728.225
8728.019
8727.834
8727.637
8727.412
8727.166
8726.904
8726.633
8726.356
8726.075
8725.794
8725.514
8725.24
8724.976
8724.721
8724.474
8724.23
8723.995
8723.777
8723.576
8723.392
8723.226
8723.076
8722.943
8722.825
8722.722
8722.632
8722.562
8722.523
8722.546
8722.68
8723.016
8723.696
8724.86
8726.623
8728.933
8731.566
8734.31
8737.095
8739.919
8742.79
8745.708
8748.668
8751.67
8754.714
8757.8
8760.93
8764.103
8767.32
8770.577
8773.876
8777.212
8780.586
8783.994
8787.434
8790.904
8794.402
8797.924
8801.468
8805.031
8808.611
8812.206
8815.811
8819.425
8823.041
8826.652
8830.245
8833.758
8837.196
8840.71
8844.284
8847.78
8851.172
8854.539
8857.94
8861.372
8864.813
8868.248
8871.676
8875.101
8878.522
8881.935
8885.338
8888.727
8892.101
8895.459
8898.8
8902.127
8905.435
8908.727
8912.004
8915.265
8918.511
8921.743
8924.961
8928.167
8931.362
8934.546
8937.721
8940.888
8944.049
8947.205
8950.357
8953.507
8956.656
8959.805
8962.954
8966.103
8969.248
8972.384
8975.499
8978.58
8981.61
8984.565
8987.423
8990.178
8992.861
8995.513
8998.162
9000.811
9003.475
9006.157
9008.794
9011.226
9013.538
9015.891
9018.338
9020.835
9023.336
9025.825
9028.309
9030.793
9033.277
9035.755
9038.222
9040.676
9043.118
9045.544
9047.953
9050.341
9052.707
9055.049
9057.365
9059.655
9061.917
9064.149
9066.351
9068.521
9070.658
9072.762
9074.83
9076.861
9078.855
9080.81
9082.725
9084.598
9086.428
9088.215
9089.955
9091.649
9093.294
9094.889
9096.432
9097.922
9099.357
9100.735
9102.055
9103.315
9104.514
9105.648
9106.717
9107.719
9108.652
9109.514
9110.302
9111.014
9111.649
9112.203
9112.675
9113.062
9113.36
9113.567
9113.679
9113.693
9113.605
9113.41
9113.104
9112.681
9112.136
9111.461
9110.65
9109.693
9108.583
9107.309
9105.861
9104.229
9102.404
9100.387
9098.185
9095.837
9093.403
9091.006
9088.783
9086.91
9085.6
9085.061
9085.261
4162.543
4069.474
3985.013
3903.883
3819.928
3739.436
3669.578
3604.102
3547.85
3497.267
3455.9
3420.856
3394.152
3376.627
3369.21
3372.097
3391.629
3422.99
3466.849
3517.031
3566.654
3623.144
3695.027
3786.499
3899.129
4036.969
4199.917
4388.671
4604.273
4847.188
5117.67
5415.595
5739.571
6085.784
6447.525
6816.502
7183.766
7536.18
7863.276
8150.561
8390.579
8576.81
8705.337
8783.332
8810.548
8790.636
8731.718
8640.849
8524.881
8389.446
8240.88
8083.901
7920.758
7754.381
7589.799
7430.66
7277.982
7131.876
6992.344
6859.224
6732.1
6610.12
6492.952
6380.587
6272.936
6170.342
6073.528
5983.47
5901.288
5828.246
5765.483
5713.923
5674.585
5648.341
5635.525
5635.983
5649.162
5674.429
5710.175
5754.307
5804.402
5858.581
5916.676
5977.786
6040.742
6104.459
6168.193
6231.488
6293.99
6355.54
6415.965
6474.185
6534.497
6592.236
6648.456
6703.354
6757.12
6809.91
6861.85
6913.044
6963.85
7014.828
7066.36
7118.547
7171.209
7224.677
7278.731
7333.328
7388.21
7443.32
7498.393
7553.235
7607.42
7661.043
7713.678
7765.161
7814.474
7861.558
7906.729
7949.542
7989.95
8028.599
8066.016
8102.174
8136.808
8169.709
8200.844
8230.291
8258.137
8284.445
8309.293
8332.74
8354.834
8375.571
8394.957
8412.95
8429.49
8444.503
8457.981
8470.145
8481.297
8491.563
8500.946
8509.525
8517.484
8525.002
8532.179
8539.061
8545.676
8552.039
8558.163
8564.068
8569.778
8575.323
8580.743
8586.077
8591.368
8596.621
8601.763
8606.695
8611.279
8615.282
8618.468
8620.802
8622.408
8623.536
8624.655
8626.189
8628.197
8630.487
8632.87
8635.266
8637.665
8640.064
8642.448
8644.803
8647.119
8649.393
8651.621
8653.804
8655.937
8658.023
8660.065
8662.06
8664.007
8665.906
8667.762
8669.575
8671.346
8673.077
8674.769
8676.422
8678.035
8679.608
8681.142
8682.636
8684.09
8685.503
8686.876
8688.207
8689.497
8690.746
8691.953
8693.121
8694.25
8695.343
8696.401
8697.429
8698.428
8699.404
8700.362
8701.307
8702.245
8703.182
8704.122
8705.063
8705.997
8706.915
8707.819
8708.715
8709.606
8710.494
8711.379
8712.26
8713.138
8714.01
8714.875
8715.733
8716.579
8717.413
8718.231
8719.03
8719.809
8720.564
8721.294
8721.995
8722.666
8723.304
8723.908
8724.477
8725.009
8725.503
8725.959
8726.376
8726.753
8727.091
8727.391
8727.652
8727.877
8728.065
8728.217
8728.335
8728.421
8728.475
8728.499
8728.495
8728.465
8728.41
8728.334
8728.241
8728.136
8728.028
8727.924
8727.834
8727.748
8727.641
8727.486
8727.315
8727.139
8726.951
8726.744
8726.517
8726.275
8726.021
8725.76
8725.495
8725.228
8724.961
8724.697
8724.44
8724.19
8723.948
8723.717
8723.498
8723.295
8723.11
8722.944
8722.8
8722.678
8722.581
8722.509
8722.464
8722.45
8722.471
8722.537
8722.667
8722.892
8723.257
8723.833
8724.705
8725.954
8727.637
8729.731
8732.116
8734.663
8737.303
8740.018
8742.803
8745.652
8748.56
8751.52
8754.532
8757.594
8760.705
8763.865
8767.07
8770.321
8773.614
8776.949
8780.322
8783.732
8787.175
8790.648
8794.15
8797.677
8801.227
8804.796
8808.382
8811.98
8815.588
8819.201
8822.814
8826.417
8830.002
8833.558
8837.125
8840.694
8844.171
8847.555
8850.924
8854.334
8857.79
8861.271
8864.751
8868.22
8871.675
8875.119
8878.553
8881.976
8885.384
8888.778
8892.155
8895.515
8898.858
8902.184
8905.492
8908.783
8912.057
8915.315
8918.558
8921.785
8924.999
8928.199
8931.387
8934.563
8937.73
8940.888
8944.038
8947.181
8950.319
8953.452
8956.581
8959.706
8962.826
8965.941
8969.046
8972.136
8975.203
8978.238
8981.225
8984.152
8987.009
8989.793
8992.52
8995.211
8997.889
9000.555
9003.21
9005.828
9008.384
9010.89
9013.386
9015.887
9018.393
9020.895
9023.385
9025.865
9028.342
9030.82
9033.298
9035.773
9038.239
9040.694
9043.137
9045.565
9047.976
9050.367
9052.738
9055.085
9057.407
9059.704
9061.973
9064.213
9066.423
9068.601
9070.748
9072.86
9074.937
9076.978
9078.981
9080.945
9082.869
9084.751
9086.591
9088.386
9090.135
9091.837
9093.491
9095.094
9096.645
9098.143
9099.586
9100.972
9102.3
9103.568
9104.774
9105.917
9106.994
9108.004
9108.945
9109.816
9110.613
9111.336
9111.981
9112.547
9113.031
9113.431
9113.745
9113.968
9114.099
9114.134
9114.07
9113.902
9113.627
9113.241
9112.737
9112.112
9111.36
9110.474
9109.449
9108.28
9106.96
9105.488
9103.864
9102.099
9100.209
9098.237
9096.233
9094.291
9092.495
9090.992
9089.864
9089.245
9088.98
5370.194
5218.069
5078.789
4941.833
4821.085
4688.316
4575.06
4466.754
4361.931
4260.819
4164.86
4073.876
3985.413
3901.085
3819.135
3729.498
3659.765
3596.309
3539.431
3489.526
3446.734
3411.401
3384.099
3365.237
3354.855
3353.692
3360.728
3382.027
3413.302
3452.858
3500.343
3559.328
3632.485
3722.875
3833.477
3965.585
4121.392
4302.581
4509.842
4743.88
5005.038
5293.069
5606.621
5942.873
6296.388
6658.839
7026.195
7375.733
7700.555
7986.864
8225.628
8411.543
8541.948
8619.212
8647.063
8629.821
8574.36
8487.704
8377.116
8248.834
8106.964
7955.279
7797.929
7638.884
7482.812
7332.152
7187.747
7049.768
6918.071
6792.137
6671.293
6554.657
6441.618
6331.865
6225.308
6122.412
6024.128
5931.774
5846.864
5771.047
5705.731
5652.043
5611.216
5584.37
5571.988
5573.924
5589.578
5618.165
5657.982
5707.092
5763.323
5824.401
5888.702
5955.157
6022.872
6090.956
6158.646
6225.43
6291.023
6355.258
6417.965
6478.966
6538.966
6596.967
6652.977
6707.23
6759.797
6811.105
6861.353
6910.826
6959.939
7009.105
7058.798
7109.205
7160.617
7212.819
7265.694
7319.115
7372.936
7427.078
7481.358
7535.577
7589.466
7642.838
7695.245
7746.166
7795.957
7844.263
7890.773
7935.177
7977.399
8017.736
8056.509
8093.751
8129.342
8163.139
8195.084
8225.233
8253.691
8280.549
8305.89
8329.768
8352.223
8373.263
8392.893
8411.099
8427.864
8443.189
8457.098
8469.71
8481.222
8491.799
8501.523
8510.476
8518.79
8526.61
8534.042
8541.146
8547.954
8554.489
8560.768
8566.812
8572.637
8578.264
8583.717
8589.022
8594.196
8599.225
8604.057
8608.605
8612.784
8616.492
8619.597
8622.062
8623.964
8625.494
8626.958
8628.621
8630.566
8632.72
8634.971
8637.254
8639.547
8641.843
8644.131
8646.398
8648.633
8650.832
8652.989
8655.104
8657.174
8659.2
8661.182
8663.117
8665.008
8666.86
8668.67
8670.441
8672.17
8673.862
8675.517
8677.136
8678.718
8680.264
8681.773
8683.245
8684.678
8686.073
8687.428
8688.743
8690.018
8691.252
8692.446
8693.6
8694.715
8695.794
8696.838
8697.851
8698.837
8699.798
8700.741
8701.669
8702.588
8703.502
8704.413
8705.322
8706.226
8707.12
8708.005
8708.883
8709.757
8710.629
8711.498
8712.364
8713.227
8714.085
8714.936
8715.78
8716.613
8717.432
8718.236
8719.022
8719.786
8720.526
8721.239
8721.924
8722.578
8723.198
8723.783
8724.332
8724.844
8725.317
8725.75
8726.144
8726.497
8726.811
8727.086
8727.323
8727.522
8727.684
8727.811
8727.905
8727.966
8727.996
8727.998
8727.972
8727.922
8727.849
8727.757
8727.65
8727.531
8727.407
8727.28
8727.154
8727.025
8726.891
8726.74
8726.566
8726.371
8726.161
8725.938
8725.703
8725.457
8725.202
8724.942
8724.679
8724.416
8724.155
8723.898
8723.648
8723.408
8723.18
8722.965
8722.767
8722.587
8722.428
8722.292
8722.183
8722.102
8722.053
8722.039
8722.064
8722.133
8722.256
8722.446
8722.722
8723.114
8723.658
8724.406
8725.41
8726.719
8728.363
8730.325
8732.544
8734.943
8737.467
8740.09
8742.799
8745.587
8748.445
8751.366
8754.348
8757.387
8760.48
8763.626
8766.823
8770.068
8773.358
8776.691
8780.065
8783.477
8786.924
8790.403
8793.91
8797.444
8801
8804.576
8808.168
8811.773
8815.386
8819.003
8822.619
8826.228
8829.827
8833.413
8836.986
8840.518
8843.991
8847.431
8850.88
8854.354
8857.844
8861.338
8864.825
8868.299
8871.761
8875.21
8878.648
8882.073
8885.483
8888.878
8892.255
8895.616
8898.959
8902.283
8905.591
8908.88
8912.152
8915.406
8918.645
8921.868
8925.076
8928.27
8931.451
8934.62
8937.778
8940.926
8944.065
8947.196
8950.319
8953.435
8956.544
8959.646
8962.741
8965.825
8968.896
8971.95
8974.98
8977.978
8980.935
8983.843
8986.697
8989.496
8992.248
8994.965
8997.658
9000.33
9002.978
9005.596
9008.187
9010.759
9013.308
9015.836
9018.347
9020.849
9023.347
9025.841
9028.332
9030.821
9033.308
9035.789
9038.261
9040.723
9043.171
9045.604
9048.02
9050.417
9052.793
9055.147
9057.477
9059.781
9062.058
9064.307
9066.526
9068.715
9070.871
9072.993
9075.08
9077.132
9079.145
9081.12
9083.055
9084.947
9086.797
9088.603
9090.363
9092.075
9093.738
9095.351
9096.912
9098.42
9099.873
9101.268
9102.606
9103.883
9105.099
9106.252
9107.339
9108.36
9109.311
9110.193
9111.002
9111.736
9112.395
9112.975
9113.474
9113.89
9114.222
9114.465
9114.618
9114.678
9114.641
9114.505
9114.266
9113.921
9113.466
9112.897
9112.21
9111.402
9110.469
9109.409
9108.223
9106.911
9105.48
9103.945
9102.327
9100.663
9098.996
9097.402
9095.934
9094.709
9093.738
9093.148
9092.741
5924.748
5906.468
5811.776
5663.267
5500.542
5344.968
5197.203
5060.5
4932.992
4808.43
4669.049
4556.925
4449.879
4346.399
4246.496
4150.429
4058.328
3969.66
3884.794
3804.732
3729.842
3659.317
3594.262
3535.692
3483.542
3437.831
3399.139
3368.068
3345.02
3330.152
3323.768
3327.212
3341.498
3365.588
3399.564
3444.119
3501.411
3573.86
3663.508
3771.77
3900.188
4050.338
4223.839
4421.919
4645.639
4895.769
5172.4
5474.559
5800.472
6144.993
6500.544
6858.116
7202.082
7520.132
7799.899
8032.091
8211.541
8336.937
8410.559
8437.075
8421.728
8370.801
8291.359
8188.491
8067.524
7933.684
7790.638
7643.785
7496.393
7351.544
7211.462
7077.425
6949.713
6827.965
6711.194
6598.397
6488.365
6380.25
6273.431
6167.681
6063.714
5962.836
5866.744
5777.397
5697.115
5628.039
5571.453
5528.569
5500.8
5488.86
5492.672
5511.645
5545.026
5591.318
5648.137
5712.679
5782.034
5854.009
5927.363
6001.291
6074.968
6147.636
6218.786
6288.132
6355.517
6420.812
6483.887
6544.764
6603.132
6658.855
6711.915
6763.047
6812.585
6860.681
6907.769
6954.456
7001.351
7048.892
7097.423
7147.092
7197.789
7249.362
7301.622
7354.394
7407.575
7461.041
7514.684
7568.288
7621.64
7674.397
7725.962
7776.691
7826.09
7874.138
7920.14
7964.027
8006.007
8046.183
8084.584
8121.19
8155.923
8188.732
8219.67
8248.837
8276.322
8302.206
8326.553
8349.412
8370.811
8390.767
8409.29
8426.388
8442.083
8456.417
8469.478
8481.413
8492.365
8502.449
8511.759
8520.41
8528.523
8536.201
8543.512
8550.499
8557.193
8563.614
8569.779
8575.702
8581.396
8586.873
8592.146
8597.215
8602.065
8606.661
8610.949
8614.874
8618.375
8621.388
8623.902
8625.989
8627.791
8629.495
8631.266
8633.185
8635.241
8637.378
8639.55
8641.737
8643.928
8646.115
8648.285
8650.43
8652.542
8654.617
8656.653
8658.648
8660.601
8662.512
8664.38
8666.208
8667.999
8669.749
8671.462
8673.141
8674.787
8676.401
8677.979
8679.526
8681.038
8682.518
8683.964
8685.373
8686.748
8688.085
8689.384
8690.644
8691.865
8693.046
8694.189
8695.292
8696.36
8697.392
8698.393
8699.366
8700.315
8701.243
8702.156
8703.057
8703.95
8704.838
8705.721
8706.6
8707.472
8708.338
8709.198
8710.056
8710.912
8711.767
8712.619
8713.468
8714.313
8715.151
8715.981
8716.801
8717.607
8718.397
8719.168
8719.918
8720.642
8721.34
8722.007
8722.643
8723.244
8723.81
8724.338
8724.827
8725.277
8725.686
8726.055
8726.383
8726.671
8726.919
8727.128
8727.299
8727.433
8727.532
8727.597
8727.631
8727.634
8727.609
8727.557
8727.483
8727.387
8727.273
8727.144
8727.004
8726.855
8726.702
8726.546
8726.386
8726.221
8726.041
8725.841
8725.624
8725.396
8725.159
8724.913
8724.658
8724.397
8724.133
8723.868
8723.604
8723.344
8723.091
8722.847
8722.615
8722.397
8722.196
8722.014
8721.855
8721.72
8721.614
8721.54
8721.501
8721.5
8721.544
8721.637
8721.787
8722.005
8722.304
8722.703
8723.226
8723.904
8724.773
8725.868
8727.22
8728.843
8730.728
8732.84
8735.132
8737.564
8740.11
8742.755
8745.488
8748.302
8751.188
8754.142
8757.159
8760.237
8763.371
8766.56
8769.8
8773.089
8776.422
8779.799
8783.215
8786.667
8790.152
8793.667
8797.208
8800.773
8804.357
8807.958
8811.571
8815.192
8818.817
8822.442
8826.062
8829.673
8833.27
8836.844
8840.39
8843.91
8847.416
8850.918
8854.422
8857.926
8861.425
8864.917
8868.398
8871.867
8875.323
8878.767
8882.195
8885.609
8889.006
8892.385
8895.747
8899.091
8902.415
8905.721
8909.009
8912.278
8915.53
8918.765
8921.984
8925.187
8928.376
8931.55
8934.712
8937.861
8941
8944.127
8947.245
8950.354
8953.453
8956.544
8959.626
8962.696
8965.755
8968.798
8971.822
8974.822
8977.793
8980.728
8983.622
8986.472
8989.278
8992.044
8994.776
8997.481
9000.162
9002.82
9005.455
9008.068
9010.658
9013.223
9015.766
9018.294
9020.815
9023.332
9025.843
9028.35
9030.851
9033.347
9035.835
9038.313
9040.781
9043.235
9045.674
9048.095
9050.498
9052.881
9055.241
9057.579
9059.891
9062.177
9064.435
9066.664
9068.863
9071.03
9073.163
9075.261
9077.324
9079.349
9081.336
9083.282
9085.187
9087.049
9088.866
9090.638
9092.362
9094.037
9095.661
9097.234
9098.753
9100.217
9101.624
9102.973
9104.262
9105.489
9106.653
9107.752
9108.785
9109.749
9110.644
9111.466
9112.215
9112.889
9113.485
9114.001
9114.437
9114.788
9115.054
9115.232
9115.32
9115.314
9115.213
9115.014
9114.715
9114.311
9113.802
9113.185
9112.458
9111.62
9110.672
9109.616
9108.458
9107.207
9105.879
9104.495
9103.088
9101.696
9100.375
9099.167
9098.151
9097.322
9096.791
9096.367
5914.429
5851.407
5683.662
5545.343
5404.791
5268.828
5138.243
5013.166
4892.908
4777.313
4667.397
4558.907
4453.112
4349.932
4249.916
4153.08
4059.795
3969.865
3883.223
3800.845
3724.168
3651.805
3584.18
3522.613
3467.562
3419.445
3378.589
3345.235
3319.608
3302.467
3294.288
3295.318
3305.941
3326.125
3356.787
3399.605
3456.189
3527.324
3614.356
3718.694
3841.842
3985.254
4150.465
4338.921
4551.876
4790.703
5055.616
5346.095
5660.275
5993.569
6338.371
6684.071
7016.715
7322.621
7590.197
7810.938
7980.733
8099.269
8169.463
8195.859
8184.293
8139.186
8065.695
7969.963
7857.095
7733.787
7603.219
7468.705
7333.405
7200.415
7072.195
6950.353
6834.978
6725.228
6619.541
6516.489
6414.084
6311.356
6207.497
6102.195
5996.311
5891.572
5790.413
5695.41
5609.184
5534.197
5472.642
5426.568
5397.385
5385.649
5391.552
5414.978
5455.372
5510.692
5577.872
5653.189
5732.852
5814.171
5895.917