/*--------------------------------*- C++ -*----------------------------------*\
| =========                 |                                                 |
| \\      /  F ield         | foam-extend: Open Source CFD                    |
|  \\    /   O peration     | Version:     3.1                                |
|   \\  /    A nd           | Web:         http://www.extend-project.de       |
|    \\/     M anipulation  |                                                 |
\*---------------------------------------------------------------------------*/
FoamFile
{
    version     2.0;
    format      ascii;
    class       surfaceScalarField;
    location    "7";
    object      phi;
}
// * * * * * * * * * * * * * * * * * * * * * * * * * * * * * * * * * * * * * //

dimensions      [0 3 -1 0 0 0 0];

internalField   nonuniform List<scalar> 
275122
(
-8.073623e-05
8.096376e-05
-1.624741e-08
-2.11285e-07
-7.181901e-05
6.8071e-05
2.948967e-07
3.453115e-06
-6.974167e-05
7.135539e-05
-5.78528e-08
-1.555864e-06
-7.707581e-05
7.908424e-05
-6.126505e-08
-1.947169e-06
-8.431032e-05
8.505828e-05
-5.580759e-08
-6.921547e-07
-8.555654e-05
8.566304e-05
-4.870584e-08
-5.780163e-08
-8.561349e-05
8.55166e-05
-3.812199e-08
1.350139e-07
-8.507513e-05
8.48908e-05
-2.982157e-08
2.141517e-07
-8.425413e-05
8.401486e-05
-2.336682e-08
2.626393e-07
-8.322455e-05
8.293789e-05
-1.830936e-08
3.049695e-07
-8.201976e-05
8.169642e-05
-1.45199e-08
3.378662e-07
-8.068261e-05
8.03304e-05
-1.211679e-08
3.643205e-07
-7.924169e-05
7.886813e-05
-1.003309e-08
3.835887e-07
-7.772128e-05
7.733078e-05
-7.973239e-09
3.984786e-07
-7.613959e-05
7.573696e-05
-6.4984e-09
4.091271e-07
-7.451457e-05
7.410326e-05
-5.497824e-09
4.168111e-07
-7.285943e-05
7.244478e-05
-5.351598e-09
4.200045e-07
-7.120546e-05
7.08058e-05
-8.261819e-09
4.079204e-07
-6.967113e-05
6.935036e-05
-2.667449e-08
3.47442e-07
-6.870895e-05
6.885059e-05
-1.023944e-07
-3.924488e-08
-7.624578e-05
7.8778e-05
-2.291854e-07
-2.303034e-06
-8.004634e-05
8.041938e-05
-8.466646e-08
-2.883767e-07
-8.124719e-05
8.18026e-05
-3.454404e-08
-5.208705e-07
-9.038309e-05
9.335337e-05
1.052224e-07
-3.075503e-06
-9.44052e-05
9.469228e-05
1.24635e-07
-4.117173e-07
-9.580703e-05
9.600069e-05
4.147444e-08
-2.35139e-07
-9.627034e-05
9.623308e-05
1.464428e-08
2.26146e-08
-9.568047e-05
9.50465e-05
1.377945e-08
6.201912e-07
-8.989886e-05
8.431895e-05
1.344186e-08
5.566472e-06
-0.0001609045
0.0001651299
3.758621e-09
-4.229216e-06
-0.0001833816
0.0001923871
-4.770021e-08
-8.957773e-06
-0.0002179035
0.0002265295
7.213471e-09
-8.633204e-06
-0.0002525531
0.0002612567
7.533042e-09
-8.711136e-06
-0.0002875404
0.0002963765
7.86865e-09
-8.843938e-06
-0.0003231645
0.00033216
7.888341e-09
-9.003335e-06
-0.0003592828
0.0003683313
7.63386e-09
-9.056185e-06
-0.0003951807
0.0004040782
7.053873e-09
-8.904595e-06
-0.0004308398
0.0004396418
6.923099e-09
-8.808936e-06
-0.0004656525
0.0004741901
6.394241e-09
-8.544049e-06
-0.0004989094
0.0005081336
1.524698e-07
-9.376649e-06
7.486795e-06
-0.000343529
0.0003438169
2.119511e-10
-7.774912e-06
6.912349e-06
-0.000344037
0.000343957
2.945382e-10
-6.832634e-06
6.438037e-06
-0.0003431898
0.0003427322
1.836432e-10
-5.980594e-06
5.87393e-06
-0.0003407348
0.000339847
1.580921e-10
-4.986302e-06
5.168856e-06
-0.0003365574
0.0003352357
-3.238001e-10
-3.8469e-06
4.317161e-06
-0.0003306933
0.0003289865
-9.335454e-10
-2.609434e-06
3.395402e-06
-0.000323357
0.00032132
-1.468811e-09
-1.356922e-06
2.52697e-06
-0.0003147984
0.0003125227
-1.753717e-09
-2.495016e-07
2.154299e-06
-0.0003040249
0.0002998613
-2.290944e-09
2.011546e-06
-4.959789e-08
-0.001243338
0.001224453
6.945376e-11
1.749295e-05
7.573982e-07
-5.861107e-08
7.42621e-07
6.389752e-07
-0.001202945
0.001181128
2.404206e-11
1.917326e-05
6.914968e-07
6.317788e-07
6.813011e-07
2.805399e-07
-0.001160398
0.001140414
-1.289044e-11
1.901192e-05
2.128372e-07
2.733515e-07
2.053785e-07
2.378352e-07
-0.001120678
0.001100798
-4.378278e-11
1.882269e-05
2.964849e-07
2.315408e-07
2.91656e-07
6.251025e-07
-0.00108071
0.001060619
-6.441374e-11
1.742421e-05
7.112098e-07
6.213842e-07
7.086785e-07
1.138526e-06
-0.001040711
0.001021058
-7.547366e-11
1.493854e-05
1.220418e-06
1.137255e-06
1.218819e-06
1.651557e-06
-0.001001842
0.0009830451
-5.740471e-11
1.205236e-05
1.72224e-06
1.650388e-06
1.720883e-06
2.002837e-06
-0.0009649555
0.0009474831
4.413525e-12
9.365035e-06
2.051899e-06
2.001663e-06
2.050998e-06
2.125296e-06
-0.0009308961
0.0009148383
5.403076e-11
7.359186e-06
2.225008e-06
2.124157e-06
2.224146e-06
1.748026e-06
-0.0009008589
0.0008879428
5.309894e-11
5.270634e-06
2.073029e-06
1.749767e-06
2.074631e-06
2.140969e-06
-0.0008740173
0.0008607771
1.840831e-11
4.95664e-06
1.999289e-06
2.142333e-06
2.001011e-06
1.95437e-06
-0.0008486253
0.0008371829
-2.049039e-11
3.729284e-06
1.900655e-06
1.956064e-06
1.902012e-06
1.930406e-06
-0.0008261266
0.0008154559
-3.855877e-11
2.979517e-06
1.913154e-06
1.933153e-06
1.914506e-06
1.865407e-06
-0.0008051822
0.0007953382
-3.46055e-11
2.433109e-06
1.839708e-06
1.865644e-06
1.840189e-06
1.798989e-06
-0.0007858661
0.0007767631
-2.152864e-11
1.947285e-06
1.780612e-06
1.797096e-06
1.779022e-06
1.762092e-06
-0.0007679933
0.0007595105
-1.273776e-11
1.480596e-06
1.750187e-06
1.750803e-06
1.73914e-06
1.772427e-06
-0.0007513222
0.0007433589
-1.006344e-11
9.736773e-07
1.768927e-06
1.726462e-06
1.721782e-06
1.935617e-06
-0.0007356345
0.0007279173
-9.852086e-12
3.19692e-07
1.957832e-06
1.750867e-06
1.753225e-06
2.724741e-06
-0.0007196496
0.0007097998
-9.504218e-12
-3.673012e-07
2.975987e-06
2.261221e-06
2.255174e-06
-1.167511e-06
-0.000699648
0.0006975822
-9.448271e-12
3.233267e-06
-3.859848e-07
-0.000694158
0.0006879414
-7.400783e-12
6.602626e-06
2.672369e-06
-0.0006812963
0.0006748207
-3.767447e-12
3.803214e-06
2.159472e-06
-0.0006685462
0.0006623005
1.179885e-12
4.086176e-06
-3.366864e-07
-0.0006562427
0.0006510109
7.002423e-12
5.568506e-06
-2.327886e-06
-0.0006461924
0.0006414701
1.119076e-11
7.050171e-06
-2.931017e-06
-0.000636871
0.0006324347
1.2664e-11
7.36729e-06
-3.115985e-06
-0.000628138
0.000623991
1.224563e-11
7.26291e-06
-3.126869e-06
-0.0006199689
0.0006161041
1.150783e-11
6.99168e-06
-3.066486e-06
-0.0006123726
0.0006088022
1.158829e-11
6.636858e-06
-2.943105e-06
-0.0006053753
0.000602111
1.225494e-11
6.20737e-06
-2.792814e-06
-0.0005989948
0.0005960431
1.301296e-11
5.744552e-06
-2.646083e-06
-0.0005932358
0.0005905903
1.347593e-11
5.291515e-06
-2.518621e-06
-0.0005880745
0.0005857114
1.271941e-11
4.881676e-06
-2.37396e-06
-0.0005834547
0.0005813458
1.043514e-11
4.482806e-06
-2.237599e-06
-0.0005793274
0.0005774507
7.545291e-12
4.114335e-06
-2.081261e-06
-0.0005756595
0.000574011
4.65359e-12
3.729713e-06
-1.794968e-06
-0.000572449
0.000571028
1.924016e-12
3.215959e-06
-1.231928e-06
-0.0005696869
0.0005684615
-5.803491e-13
2.457386e-06
1.305173e-07
-0.0005672338
0.0005657832
-2.626101e-12
1.320075e-06
1.56479e-06
-0.0005636707
0.0005621905
-4.000408e-12
-8.459531e-08
1.121526e-06
-0.0005613304
0.0005605299
-5.029937e-12
-3.209779e-07
3.856115e-06
-0.0005595395
0.0005578511
-5.309044e-12
-2.167701e-06
7.557791e-06
-0.0005540287
0.000550757
-4.776033e-12
-4.286124e-06
2.999946e-06
-0.0005486293
0.00054749
-4.216605e-12
-1.860614e-06
6.047085e-07
-0.0005463557
0.0005451189
-3.132723e-12
6.320407e-07
-1.80679e-06
-0.0005439527
0.0005429068
-2.057641e-12
2.852687e-06
-6.185163e-06
-0.0005420657
0.0005417244
-1.054481e-12
6.52639e-06
-1.772619e-05
-0.0005424915
0.0005481144
-1.367876e-13
1.21033e-05
-3.291834e-06
-0.0005542674
0.0005546528
9.868572e-13
1.099404e-05
-2.370438e-06
-3.315187e-06
-2.402018e-06
-1.387151e-06
-0.0005542129
0.0005540421
1.524809e-12
5.568558e-06
-1.275214e-06
-1.423312e-06
-1.312144e-06
-8.348438e-07
-0.0005536271
0.0005531131
1.961042e-12
3.749564e-06
-7.519982e-07
-8.660354e-07
-7.827469e-07
-5.902498e-07
-0.0005526342
0.0005523016
2.281818e-12
2.703253e-06
-5.683103e-07
-6.173457e-07
-5.947717e-07
-4.846534e-07
-0.0005520581
0.00055192
2.414464e-12
2.087963e-06
-4.710653e-07
-5.039349e-07
-4.901666e-07
-4.183428e-07
-0.0005518475
0.0005518658
2.520455e-12
1.667744e-06
-4.097381e-07
-4.334484e-07
-4.245202e-07
-3.745183e-07
-0.000551933
0.0005520734
2.615597e-12
1.368289e-06
-3.684586e-07
-3.860847e-07
-3.796998e-07
-3.424493e-07
-0.0005522485
0.0005524835
2.66977e-12
1.143536e-06
-3.379817e-07
-3.513935e-07
-3.466455e-07
-3.175038e-07
-0.0005527477
0.0005530631
2.635856e-12
9.610076e-07
-3.139786e-07
-3.244007e-07
-3.206244e-07
-2.968126e-07
-0.0005534059
0.0005537944
2.536693e-12
8.032685e-07
-2.939012e-07
-3.02098e-07
-2.989954e-07
-2.793323e-07
-0.0005542082
0.0005546637
2.445025e-12
6.652233e-07
-2.769825e-07
-2.834423e-07
-2.809371e-07
-2.647519e-07
-0.0005551421
0.0005556588
2.377374e-12
5.446687e-07
-2.628277e-07
-2.679416e-07
-2.658706e-07
-2.524793e-07
-0.0005561969
0.0005567714
2.32532e-12
4.370757e-07
-2.509303e-07
-2.549051e-07
-2.532461e-07
-2.427014e-07
-0.0005573653
0.0005579911
2.273548e-12
3.466582e-07
-2.416796e-07
-2.44589e-07
-2.434846e-07
-2.354512e-07
-0.0005586342
0.0005593065
2.25124e-12
2.710161e-07
-2.347268e-07
-2.369489e-07
-2.361629e-07
-2.299905e-07
-0.0005599951
0.0005607099
2.280489e-12
2.067119e-07
-2.29573e-07
-2.312023e-07
-2.307379e-07
-2.263051e-07
-0.0005614396
0.0005621928
2.35936e-12
1.537273e-07
-2.261563e-07
-2.273074e-07
-2.271238e-07
-2.241844e-07
-0.0005629595
0.0005637471
2.469456e-12
1.109624e-07
-2.242722e-07
-2.250341e-07
-2.250957e-07
-2.234962e-07
-0.0005645468
0.000565365
2.599104e-12
7.787492e-08
-2.238027e-07
-2.242339e-07
-2.2452e-07
-2.240691e-07
-0.0005661939
0.0005670391
2.689201e-12
5.332829e-08
-2.245494e-07
-2.247219e-07
-2.251855e-07
-2.256267e-07
-0.0005678938
0.0005687629
2.769387e-12
3.574145e-08
-2.262399e-07
-2.262109e-07
-2.268125e-07
-2.27966e-07
-0.0005696405
0.0005705308
2.881005e-12
2.409032e-08
-2.287012e-07
-2.285215e-07
-2.292432e-07
-2.310305e-07
-0.0005714286
0.0005723376
2.977105e-12
1.781291e-08
-2.318761e-07
-2.315365e-07
-2.323761e-07
-2.347557e-07
-0.0005732533
0.0005741785
2.900572e-12
1.658158e-08
-2.357039e-07
-2.352211e-07
-2.361628e-07
-2.390986e-07
-0.0005751096
0.0005760489
3.069208e-12
2.009116e-08
-2.401448e-07
-2.395165e-07
-2.40551e-07
-2.439968e-07
0.0005779441
3.068235e-12
2.795364e-08
-2.450952e-07
-2.443581e-07
-2.45465e-07
-0.0005769931
-2.493076e-07
-0.0005788992
0.0005798599
2.900191e-12
3.978155e-08
-2.505039e-07
-2.497143e-07
-2.509228e-07
-2.550069e-07
-0.0005808241
0.0005817925
2.939263e-12
5.483172e-08
-2.561999e-07
-2.554282e-07
-2.566092e-07
-2.610195e-07
-0.0005827637
0.0005837383
3.104723e-12
7.269811e-08
-2.622748e-07
-2.613733e-07
-2.626227e-07
-2.673594e-07
-0.0005847151
0.0005856946
2.907681e-12
9.319717e-08
-2.686549e-07
-2.676964e-07
-2.689922e-07
-2.74017e-07
-0.000586676
0.0005876593
3.193578e-12
1.160742e-07
-2.753565e-07
-2.743356e-07
-2.75677e-07
-2.809792e-07
-0.0005886441
0.0005896303
3.035671e-12
1.411301e-07
-2.82359e-07
-2.812913e-07
-2.826704e-07
-2.88219e-07
-0.0005906176
0.0005916058
2.912e-12
1.681281e-07
-2.896307e-07
-2.885193e-07
-2.899345e-07
-2.957002e-07
-0.0005925948
0.0005935842
3.104662e-12
1.968221e-07
-2.971423e-07
-2.9599e-07
-2.974305e-07
-3.033611e-07
-0.0005945743
0.0005955644
2.784405e-12
2.268046e-07
-3.048083e-07
-3.036434e-07
-3.050945e-07
-3.110957e-07
-0.0005965548
0.0005975452
3.035716e-12
2.574143e-07
-3.125413e-07
-3.113693e-07
-3.128138e-07
-3.187833e-07
-0.0005985359
0.0005995266
3.108278e-12
2.878346e-07
-3.202019e-07
-3.190515e-07
-3.204714e-07
-3.263073e-07
-0.0006005177
0.000601509
3.519836e-12
3.1715e-07
-3.276816e-07
-3.265614e-07
-3.279374e-07
-3.335022e-07
-0.0006025009
0.0006034937
3.012229e-12
3.443862e-07
-3.34819e-07
-3.337544e-07
-3.350682e-07
-3.403098e-07
-0.0006044873
0.0006054826
3.196258e-12
3.689078e-07
-3.415595e-07
-3.405464e-07
-3.417964e-07
-3.466828e-07
-0.0006064794
0.0006074787
3.232279e-12
3.902136e-07
-3.478764e-07
-3.468969e-07
-3.480754e-07
-3.52546e-07
-0.00060848
0.000609485
2.842304e-12
4.076771e-07
-3.536268e-07
-3.527201e-07
-3.538204e-07
-3.577308e-07
-0.0006104926
0.0006115053
2.715625e-12
4.208216e-07
-3.587713e-07
-3.579858e-07
-3.590417e-07
-3.622752e-07
-0.0006125214
0.0006135439
3.318294e-12
4.289626e-07
-3.631576e-07
-3.625701e-07
-3.634308e-07
-3.659822e-07
-0.0006145704
0.0006156054
2.184038e-12
4.308705e-07
-3.667525e-07
-3.662053e-07
-3.669745e-07
-3.684967e-07
-0.0006166458
0.0006176973
4.729095e-12
4.241283e-07
-3.691189e-07
-3.687115e-07
-3.693259e-07
-3.682034e-07
-0.0006187539
0.0006198257
9.151418e-12
4.012468e-07
-3.680791e-07
-3.684247e-07
-3.682887e-07
-3.629462e-07
-0.0006209066
0.0006220093
9.347075e-12
3.459069e-07
-3.610721e-07
-3.632486e-07
-3.61364e-07
-3.340596e-07
-0.0006231106
0.0006242092
-3.419471e-12
2.10687e-07
-3.201459e-07
-3.345713e-07
-3.205072e-07
-2.566396e-07
-0.000625212
0.0006262146
1.678588e-12
-1.30838e-07
-1.776636e-07
-2.576342e-07
-1.797821e-07
-2.660221e-07
-0.0006272887
0.0006282187
2.386993e-12
1.590178e-07
-2.820505e-07
-2.622735e-07
-2.78693e-07
-3.233544e-07
-0.0006292844
0.0006303972
3.063417e-12
1.867117e-07
-3.276222e-07
-3.220215e-07
-3.265096e-07
-3.350565e-07
-0.0006314993
0.0006326191
2.852397e-12
2.231596e-07
-3.372093e-07
-3.341887e-07
-3.365162e-07
-3.468455e-07
-0.0006337558
0.0006349126
2.587549e-12
2.308088e-07
-3.475514e-07
-3.462214e-07
-3.469757e-07
-3.547629e-07
-0.0006360826
0.0006372696
3.256352e-12
2.315858e-07
-3.550255e-07
-3.542398e-07
-3.545389e-07
-3.614065e-07
-0.0006384691
0.0006396856
2.849311e-12
2.290706e-07
-3.617851e-07
-3.609869e-07
-3.614014e-07
-3.669002e-07
-0.000640915
0.000642161
2.415004e-12
2.218209e-07
-3.673315e-07
-3.665811e-07
-3.670267e-07
-3.713095e-07
-0.0006434197
0.0006446949
2.424973e-12
2.104148e-07
-3.717392e-07
-3.710494e-07
-3.714839e-07
-3.748437e-07
-0.0006459825
0.0006472865
2.359275e-12
1.95832e-07
-3.753115e-07
-3.746201e-07
-3.750725e-07
-3.777925e-07
-0.0006486029
0.0006499354
2.569461e-12
1.790914e-07
-3.781772e-07
-3.776008e-07
-3.780333e-07
-3.802311e-07
-0.00065128
0.0006526408
1.953707e-12
1.608861e-07
-3.80681e-07
-3.801395e-07
-3.806281e-07
-3.823702e-07
-0.0006540137
0.0006554023
1.888954e-12
1.415632e-07
-3.827404e-07
-3.823567e-07
-3.827043e-07
-3.844006e-07
-0.0006568029
0.0006582192
2.527047e-12
1.219947e-07
-3.847754e-07
-3.843595e-07
-3.847403e-07
-3.864418e-07
-0.0006596475
0.0006610911
2.836038e-12
1.027914e-07
-3.868296e-07
-3.864019e-07
-3.867945e-07
-3.885717e-07
-0.0006625467
0.0006640174
2.403421e-12
8.433131e-08
-3.889786e-07
-3.885306e-07
-3.889339e-07
-3.908678e-07
-0.0006655
0.0006669972
2.996514e-12
6.700912e-08
-3.912795e-07
-3.908437e-07
-3.912747e-07
-3.933971e-07
-0.0006685062
0.0006700294
3.569981e-12
5.124479e-08
-3.938639e-07
-3.933912e-07
-3.938489e-07
-3.962242e-07
-0.0006715642
0.0006731128
2.90026e-12
3.729595e-08
-3.967444e-07
-3.962147e-07
-3.967207e-07
-3.994112e-07
-0.0006746728
0.0006762461
2.024896e-12
2.545377e-08
-3.999694e-07
-3.994117e-07
-3.999714e-07
-4.029877e-07
-0.0006778304
0.0006794277
2.520306e-12
1.58786e-08
-4.035966e-07
-4.029985e-07
-4.036e-07
-4.069847e-07
-0.0006810348
0.0006826553
3.302359e-12
8.67588e-09
-4.075911e-07
-4.069786e-07
-4.075924e-07
-4.116038e-07
-0.0006842866
0.0006859278
3.381022e-12
6.500682e-09
-4.122706e-07
-4.116048e-07
-4.122852e-07
-4.162291e-07
-0.0006875788
0.0006892444
3.227499e-12
7.289408e-10
-4.169429e-07
-4.162509e-07
-4.169523e-07
-4.215892e-07
-0.0006909157
0.0006926014
2.203568e-12
2.192457e-09
-4.223646e-07
-4.215963e-07
-4.223458e-07
-4.274525e-07
-0.0006942925
0.0006959971
2.198731e-12
6.927887e-09
-4.283481e-07
-4.274277e-07
-4.282749e-07
-4.338647e-07
0.0006994305
2.201686e-12
1.497522e-08
-0.0006977083
-4.347144e-07
-4.337959e-07
-4.347085e-07
-4.405975e-07
-0.0007011605
0.0007028999
2.541189e-12
2.52222e-08
-4.416326e-07
-4.406174e-07
-4.417017e-07
-4.479e-07
-0.0007046468
0.0007064022
2.408109e-12
3.82883e-08
-4.488653e-07
-4.479947e-07
-4.489168e-07
-4.557219e-07
-0.0007081645
0.0007099347
2.383985e-12
5.480726e-08
-4.56738e-07
-4.55746e-07
-4.56767e-07
-4.640747e-07
-0.0007117115
0.0007134953
2.218081e-12
7.462745e-08
-4.651297e-07
-4.640701e-07
-4.651298e-07
-4.729346e-07
-0.0007152851
0.0007170812
2.321347e-12
9.78756e-08
-4.740301e-07
-4.729196e-07
-4.740068e-07
-4.823146e-07
-0.0007188828
0.0007206898
2.45621e-12
1.245406e-07
-4.834172e-07
-4.823061e-07
-4.834263e-07
-4.921766e-07
-0.0007225018
0.0007243181
2.626261e-12
1.54675e-07
-4.93338e-07
-4.921811e-07
-4.933273e-07
-5.025333e-07
-0.000726139
0.0007279632
2.532137e-12
1.883773e-07
-5.03756e-07
-5.025316e-07
-5.037286e-07
-5.134505e-07
-0.0007297913
0.0007316217
2.287574e-12
2.258599e-07
-5.147054e-07
-5.134506e-07
-5.147003e-07
-5.248618e-07
-0.0007334554
0.0007352903
2.675667e-12
2.671051e-07
-5.261505e-07
-5.24862e-07
-5.261463e-07
-5.367718e-07
-0.0007371278
0.0007389652
2.728773e-12
3.121753e-07
-5.380556e-07
-5.367468e-07
-5.380501e-07
-5.491828e-07
-0.0007408045
0.0007426425
2.882374e-12
3.61273e-07
-5.504861e-07
-5.491583e-07
-5.504775e-07
-5.619789e-07
-0.0007444816
0.0007463181
2.607942e-12
4.140392e-07
-5.632772e-07
-5.619962e-07
-5.632651e-07
-5.752118e-07
-0.0007481546
0.0007499875
2.777037e-12
4.70116e-07
-5.763407e-07
-5.752061e-07
-5.762731e-07
-5.88887e-07
-0.0007518191
0.0007536466
3.103777e-12
5.300565e-07
-5.899998e-07
-5.888584e-07
-5.898523e-07
-6.034219e-07
-0.0007554711
0.0007572859
-1.428046e-12
5.969224e-07
-6.025177e-07
-6.032755e-07
-6.025134e-07
-6.148016e-07
-0.0007590928
0.0007609028
2.870056e-12
6.537688e-07
-6.170428e-07
-6.147964e-07
-6.171084e-07
-6.300821e-07
-0.0007627076
0.0007645053
9.368463e-15
7.253276e-07
-6.31522e-07
-6.300981e-07
-6.313463e-07
-6.405779e-07
-0.0007662932
0.0007680736
-6.725439e-12
7.882448e-07
-6.430894e-07
-6.412289e-07
-6.43683e-07
-6.528983e-07
-0.000769839
0.0007716113
3.776643e-12
8.483887e-07
-6.575832e-07
-6.528908e-07
-6.573013e-07
-6.64354e-07
-0.0007733681
0.0007751407
-3.74146e-11
8.908688e-07
-6.673081e-07
-6.645211e-07
-6.673069e-07
-6.687882e-07
-0.0007768807
0.0007786779
-1.280178e-11
8.846227e-07
-6.727529e-07
-6.679867e-07
-6.72259e-07
-6.460282e-07
-0.0007804394
0.0007822731
1.102941e-11
7.57884e-07
-6.496981e-07
-6.462188e-07
-6.496796e-07
-5.097141e-07
-0.000783887
0.0007851941
5.548349e-12
4.511741e-07
-3.688273e-07
-5.097599e-07
-3.700355e-07
-1.642005e-08
-0.0001953348
0.0001948776
-1.771288e-11
4.737148e-07
-4.24109e-07
-0.000194184
0.0001940878
-7.077111e-11
5.204134e-07
-5.742284e-07
-0.0001940876
0.0001941503
-5.22528e-11
5.11583e-07
-6.561515e-07
-0.0001944508
0.0001945733
-1.690857e-11
5.336896e-07
-7.09498e-07
-0.000194982
0.0001951252
8.516931e-12
5.662581e-07
-7.480903e-07
-0.0001955657
0.0001957128
1.844315e-11
6.010219e-07
-7.788137e-07
-0.0001961519
0.0001962952
2.233747e-11
6.355001e-07
-8.044926e-07
-0.0001967173
0.0001968538
2.849183e-11
6.67982e-07
-8.272064e-07
-0.0001972525
0.0001973805
3.566325e-11
6.991207e-07
-8.477744e-07
-0.0001977527
0.0001978716
3.909207e-11
7.289073e-07
-8.667167e-07
-0.0001982153
0.0001983246
3.248316e-11
7.57337e-07
-8.853149e-07
-0.0001986396
0.0001987395
2.982086e-11
7.854273e-07
-8.972232e-07
-0.0001990336
0.0001991241
4.557146e-11
8.066613e-07
-9.069718e-07
-0.0001993765
0.0001994547
3.451907e-11
8.287526e-07
-9.23725e-07
-0.0001996802
0.0001997511
2.86032e-11
8.528385e-07
-9.365605e-07
-0.0001999521
0.0002000142
2.053225e-11
8.744357e-07
-9.473953e-07
-0.0002001889
0.0002002422
1.394922e-11
8.940566e-07
-9.570266e-07
-0.000200391
0.0002004356
1.609865e-11
9.124332e-07
-9.654933e-07
-0.0002005586
0.0002005947
3.115332e-11
9.294502e-07
-9.72534e-07
-0.0002006932
0.0002007212
4.942921e-11
9.444524e-07
-9.782365e-07
-0.000200797
0.0002008177
5.055745e-11
9.574722e-07
-9.82618e-07
-0.0002008728
0.0002008869
3.60564e-11
9.684467e-07
-9.857921e-07
-0.0002009233
0.0002009316
2.415305e-11
9.774321e-07
-9.880436e-07
-0.0002009514
0.0002009549
2.232383e-11
9.845827e-07
-9.888615e-07
-0.0002009602
0.0002009599
2.332345e-11
9.891673e-07
-9.901428e-07
-0.0002009535
0.0002009503
2.330368e-11
9.933727e-07
-9.897014e-07
-0.0002009338
0.0002009292
1.496013e-11
9.942818e-07
-9.882122e-07
-0.0002009062
0.0002009011
1.206393e-11
9.933354e-07
-9.835945e-07
-0.0002008753
0.0002008699
1.442335e-11
9.889557e-07
-9.776644e-07
-0.000200848
0.0002008425
2.322968e-11
9.83148e-07
-9.606392e-07
-0.0002008309
0.000200831
6.716959e-11
9.604704e-07
-9.535812e-07
-0.0002008394
0.0002008415
4.58181e-11
9.513555e-07
-9.32734e-07
-0.0002008869
0.0002009041
4.333333e-11
9.155169e-07
-8.940966e-07
-0.000201015
0.0002010627
2.644453e-11
8.463788e-07
-8.230364e-07
-0.0002013049
0.0002014598
1.713125e-11
6.681098e-07
1.881817e-07
-0.000201981
0.0002018693
3.466026e-11
-7.651427e-08
7.204561e-07
-0.0002016041
0.0002015852
1.374441e-11
-7.015782e-07
8.15814e-07
-0.0002015426
0.0002015435
2.581627e-11
-8.166497e-07
8.601489e-07
-0.0002016021
0.0002016298
2.068398e-11
-8.879309e-07
8.880165e-07
-0.0002017359
0.0002017763
2.127812e-11
-9.283892e-07
9.092382e-07
-0.000201909
0.0002019576
1.872464e-11
-9.578387e-07
9.26931e-07
-0.0002021121
0.0002021666
1.989269e-11
-9.815006e-07
9.42053e-07
-0.0002023376
0.0002023972
2.136035e-11
-1.001648e-06
9.556705e-07
-0.0002025817
0.0002026453
2.002527e-11
-1.019236e-06
9.677024e-07
-0.0002028407
0.0002029078
1.242919e-11
-1.034721e-06
9.783208e-07
-0.000203113
0.0002031831
6.225413e-12
-1.048389e-06
9.879369e-07
-0.000203397
0.0002034698
9.199172e-12
-1.060755e-06
9.966118e-07
-0.0002036916
0.0002037669
9.800557e-12
-1.071935e-06
1.004598e-06
-0.0002039958
0.0002040733
1.107659e-11
-1.082187e-06
1.011881e-06
-0.0002043087
0.0002043883
9.621758e-12
-1.091518e-06
1.018586e-06
-0.0002046294
0.0002047109
8.761213e-12
-1.100079e-06
1.02482e-06
-0.0002049572
0.0002050403
1.054753e-11
-1.107954e-06
1.03063e-06
-0.0002052912
0.0002053758
9.391391e-12
-1.115211e-06
1.036076e-06
-0.0002056306
0.0002057164
7.83639e-12
-1.121906e-06
1.041187e-06
-0.0002059746
0.0002060615
9.631891e-12
-1.128061e-06
1.045983e-06
-0.0002063223
0.0002064101
9.345203e-12
-1.133706e-06
1.050507e-06
-0.0002066731
0.0002067614
7.798011e-12
-1.138871e-06
1.054737e-06
-0.0002070259
0.0002071147
9.802209e-12
-1.143562e-06
1.058738e-06
-0.0002073802
0.0002074692
1.282054e-11
-1.147837e-06
1.06259e-06
-0.000207735
0.0002078241
1.331352e-11
-1.151746e-06
1.066182e-06
-0.0002080895
0.0002081786
7.358576e-12
-1.15526e-06
1.069511e-06
-0.0002084433
0.0002085321
2.653847e-12
-1.158335e-06
1.072597e-06
-0.0002087954
0.0002088838
4.96195e-12
-1.160994e-06
1.075445e-06
-0.0002091453
0.0002092331
6.502722e-12
-1.163257e-06
1.078099e-06
-0.000209492
0.0002095791
7.550539e-12
-1.165175e-06
1.080698e-06
-0.0002098349
0.0002099211
7.048862e-12
-1.16686e-06
1.084104e-06
-0.0002101724
0.0002102569
6.400109e-12
-1.168599e-06
1.083846e-06
-0.0002104981
0.0002105827
7.870067e-12
-1.168457e-06
1.076303e-06
-0.0002108251
0.000210917
2.208805e-11
-1.168196e-06
1.088227e-06
-0.0002112145
0.0002112606
1.120982e-10
-1.134465e-06
1.376569e-06
-0.0002095491
0.0008632942
7.613209e-12
-5.100677e-06
5.948447e-08
1.380006e-06
4.509416e-08
-0.0002095536
-0.0002209751
-0.0002209769
6.603476e-07
-0.0008669179
0.0008678012
6.926431e-12
-4.198229e-06
1.01483e-06
6.422353e-07
9.974736e-07
8.378266e-07
-0.0008682753
0.0008690079
6.752601e-12
-4.162924e-06
8.914149e-07
8.233865e-07
8.777064e-07
8.869879e-07
-0.0008701577
0.0008712496
6.174253e-12
-4.705988e-06
9.326873e-07
8.742217e-07
9.20133e-07
9.519026e-07
-0.0008722625
0.0008730609
4.821185e-12
-4.665239e-06
9.932014e-07
9.401987e-07
9.816127e-07
9.824347e-07
-0.0008737873
0.0008744543
3.992553e-12
-4.618167e-06
1.003947e-06
9.714781e-07
9.932578e-07
9.85327e-07
-0.0008751607
0.0008758661
3.878715e-12
-4.650723e-06
9.98332e-07
9.741583e-07
9.875002e-07
1.000159e-06
-0.0008765895
0.0008772892
4.070235e-12
-4.700063e-06
1.01016e-06
9.89625e-07
1.000441e-06
1.015519e-06
-0.0008779949
0.0008786861
4.518206e-12
-4.749357e-06
1.022958e-06
1.006099e-06
1.013571e-06
1.035083e-06
-0.0008793846
0.0008800547
4.836763e-12
-4.791673e-06
1.034765e-06
1.026534e-06
1.025169e-06
1.048857e-06
-0.0008807156
0.0008813674
4.822714e-12
-4.838472e-06
1.052654e-06
1.040617e-06
1.04451e-06
1.060092e-06
-0.000882022
0.0008826608
4.958118e-12
-4.871157e-06
1.063473e-06
1.052595e-06
1.056155e-06
1.072463e-06
-0.000883293
0.0008839112
5.285675e-12
-4.90108e-06
1.07564e-06
1.065706e-06
1.069027e-06
1.083968e-06
-0.0008845244
0.0008851264
5.410999e-12
-4.930883e-06
1.086538e-06
1.077866e-06
1.080563e-06
1.094282e-06
-0.0008857231
0.0008863097
5.443339e-12
-4.957168e-06
1.096384e-06
1.088817e-06
1.091036e-06
1.103551e-06
-0.0008868909
0.0008874634
5.482228e-12
-4.980591e-06
1.105302e-06
1.098676e-06
1.100529e-06
1.11176e-06
-0.0008880307
0.0008885908
5.302599e-12
-5.001378e-06
1.113224e-06
1.10739e-06
1.108935e-06
1.11907e-06
-0.0008891459
0.000889695
4.983764e-12
-5.020104e-06
1.120335e-06
1.115132e-06
1.116464e-06
1.125583e-06
-0.0008902396
0.0008907793
4.782097e-12
-5.037183e-06
1.126686e-06
1.122045e-06
1.123219e-06
1.131451e-06
-0.0008913148
0.0008918465
4.55255e-12
-5.053095e-06
1.132431e-06
1.128255e-06
1.129295e-06
1.136721e-06
-0.0008923746
0.0008928996
4.184166e-12
-5.067958e-06
1.137626e-06
1.13381e-06
1.13476e-06
1.141527e-06
-0.0008934215
0.0008939413
3.861896e-12
-5.082292e-06
1.142365e-06
1.138884e-06
1.139778e-06
1.14596e-06
-0.0008944584
0.000894974
3.744313e-12
-5.096365e-06
1.146752e-06
1.143586e-06
1.144438e-06
1.150084e-06
-0.0008954875
0.0008960001
3.750308e-12
-5.110234e-06
1.150841e-06
1.147933e-06
1.148751e-06
1.153911e-06
-0.0008965111
0.0008970219
3.733878e-12
-5.123866e-06
1.154618e-06
1.151888e-06
1.152592e-06
1.157378e-06
-0.0008975316
0.0008980416
3.621487e-12
-5.137041e-06
1.158074e-06
1.155448e-06
1.156147e-06
1.160609e-06
-0.0008985507
0.0008990607
3.418267e-12
-5.150208e-06
1.161256e-06
1.158837e-06
1.159535e-06
1.163618e-06
-0.0008995702
0.0009000808
3.135706e-12
-5.163195e-06
1.16427e-06
1.16202e-06
1.162705e-06
1.166484e-06
-0.0009005912
0.0009011029
2.818202e-12
-5.176042e-06
1.167122e-06
1.165013e-06
1.165681e-06
1.169144e-06
-0.0009016148
0.0009021282
2.621208e-12
-5.188502e-06
1.169769e-06
1.167773e-06
1.168415e-06
1.171597e-06
-0.0009026419
0.0009031573
2.666757e-12
-5.200408e-06
1.172207e-06
1.170312e-06
1.170939e-06
1.173835e-06
-0.0009036731
0.0009041906
2.909369e-12
-5.211611e-06
1.174432e-06
1.172647e-06
1.173269e-06
1.175825e-06
-0.0009047087
0.0009052283
3.208164e-12
-5.221816e-06
1.176406e-06
1.174716e-06
1.175314e-06
1.177532e-06
-0.0009057487
0.0009062702
3.47106e-12
-5.230639e-06
1.178099e-06
1.176486e-06
1.177062e-06
1.178916e-06
-0.0009067926
0.0009073155
3.68676e-12
-5.237764e-06
1.179467e-06
1.177943e-06
1.178516e-06
1.179923e-06
-0.0009078395
0.0009083632
3.886728e-12
-5.242653e-06
1.180456e-06
1.179014e-06
1.179563e-06
1.180457e-06
-0.0009088881
0.0009094116
4.103696e-12
-5.244673e-06
1.180982e-06
1.179593e-06
1.180122e-06
1.180409e-06
-0.0009099363
0.0009104582
4.327754e-12
-5.242934e-06
1.180937e-06
1.179602e-06
1.180149e-06
1.179627e-06
-0.0009109813
0.0009114995
4.572313e-12
-5.236454e-06
1.180189e-06
1.178899e-06
1.179491e-06
1.177867e-06
-0.000912019
0.0009125309
4.868158e-12
-5.223347e-06
1.178512e-06
1.177196e-06
1.177869e-06
1.174638e-06
-0.0009130438
0.0009135459
5.113874e-12
-5.200775e-06
1.175413e-06
1.173956e-06
1.174708e-06
1.169024e-06
-0.0009140478
0.0009145338
5.207764e-12
-5.162699e-06
1.170009e-06
1.168315e-06
1.169286e-06
1.159285e-06
-0.0009150153
0.000915474
5.254453e-12
-5.096643e-06
1.160304e-06
1.15862e-06
1.159668e-06
1.139563e-06
-0.0009159175
0.0009163337
5.46259e-12
-4.971543e-06
1.138691e-06
1.138972e-06
1.138122e-06
1.08577e-06
-0.0009167366
0.0009171607
5.723693e-12
-4.741727e-06
1.073615e-06
1.085202e-06
1.073064e-06
9.68292e-07
-0.0009176518
0.0009182386
5.72053e-12
-4.38078e-06
9.292557e-07
9.677515e-07
9.286903e-07
8.246693e-07
-0.0009188703
0.0009195041
5.659307e-12
-3.900849e-06
8.093172e-07
8.241959e-07
8.088555e-07
7.943123e-07
-0.0009201087
0.0009206765
5.539935e-12
-3.751414e-06
7.979151e-07
7.938975e-07
7.97511e-07
7.861563e-07
-0.0009212374
0.0009217833
4.874861e-12
-3.689783e-06
7.862039e-07
7.857461e-07
7.857911e-07
7.709662e-07
-0.0009223278
0.0009228469
3.254745e-12
-3.603863e-06
7.718097e-07
7.705708e-07
7.71425e-07
7.586726e-07
-0.0009233585
0.0009238333
-2.056821e-12
-3.514716e-06
7.616501e-07
7.583086e-07
7.612884e-07
7.393663e-07
-0.0009243026
0.0009247342
-2.232578e-11
-3.392965e-06
7.417145e-07
7.389876e-07
7.413113e-07
6.988715e-07
-0.0009251767
0.0009256826
-7.625625e-11
-3.273646e-06
6.855001e-07
6.984395e-07
6.849731e-07
4.941849e-07
-0.0009266334
0.0009282169
-6.808221e-11
-3.733804e-06
5.81213e-07
4.936158e-07
5.813345e-07
8.274199e-07
-0.0009293105
0.0009285536
1.246293e-10
-2.307386e-06
7.01911e-07
8.30259e-07
7.04506e-07
6.954428e-07
-0.0009282546
0.0009286425
6.257541e-11
-3.017754e-06
6.148222e-07
7.003395e-07
6.191759e-07
6.671211e-07
-0.0009289345
0.0009292683
3.101592e-11
-2.927436e-06
6.25717e-07
6.712156e-07
6.295669e-07
6.344103e-07
-0.0009295236
0.0009298979
1.517006e-11
-2.856056e-06
6.030289e-07
6.379138e-07
6.063249e-07
6.195153e-07
-0.0009302735
0.000930708
8.071399e-12
-2.882201e-06
6.013325e-07
6.225926e-07
6.04237e-07
6.26168e-07
-0.000931119
0.0009315334
6.671984e-12
-2.906935e-06
6.173493e-07
6.290636e-07
6.200182e-07
6.347202e-07
-0.0009319261
0.0009323254
1.029285e-11
-2.932285e-06
6.294933e-07
6.37043e-07
6.317243e-07
6.422171e-07
-0.0009327108
0.0009330988
9.990581e-12
-2.955414e-06
6.395316e-07
6.442173e-07
6.414646e-07
6.498397e-07
-0.0009334724
0.0009338442
4.557407e-12
-2.972476e-06
6.48787e-07
6.515747e-07
6.504619e-07
6.573504e-07
-0.0009342027
0.0009345579
6.043912e-13
-2.98737e-06
6.572621e-07
6.588654e-07
6.587175e-07
6.641631e-07
-0.0009349025
0.0009352436
3.679954e-12
-3.001216e-06
6.645487e-07
6.655184e-07
6.658514e-07
6.703412e-07
-0.000935575
0.0009359012
9.1841e-12
-3.010466e-06
6.70461e-07
6.715684e-07
6.71841e-07