/*--------------------------------*- C++ -*----------------------------------*\
| =========                 |                                                 |
| \\      /  F ield         | foam-extend: Open Source CFD                    |
|  \\    /   O peration     | Version:     3.1                                |
|   \\  /    A nd           | Web:         http://www.extend-project.de       |
|    \\/     M anipulation  |                                                 |
\*---------------------------------------------------------------------------*/
FoamFile
{
    version     2.0;
    format      ascii;
    class       volScalarField;
    location    "18";
    object      alpha1;
}
// * * * * * * * * * * * * * * * * * * * * * * * * * * * * * * * * * * * * * //

dimensions      [0 0 0 0 0 0 0];

internalField   nonuniform List<scalar> 
119952
(
0.9999999
1
1
1
1
1
1
1
1
1
1
1
1
1
1
1
1
1
1
1
1
1
1
1
1
1
1
1
1
1
1
1
1
1
1
1
1
1
1
1
1
1
1
1
1
1
1
1
1
1
1
1
1
1
0.9999999
0.9999999
1
1
1
0.9999997
0.9999999
1
0.9999998
0.9999996
1
1
0.9999998
1
1
0.9999999
0.9999998
1
1
1
0.9999999
1
1
1
1
1
1
1
1
1
1
1
1
1
1
1
1
1
1
1
1
1
1
1
1
1
1
1
1
1
1
0.9999997
0.9999964
0.9999834
0.9999837
0.9999906
0.9999989
1
1
1
1
1
1
1
1
1
0.9999999
1
1
1
1
1
1
0.9999998
0.9999999
1
1
1
1
1
0.9999997
0.9999999
1
1
1
1
1
1
1
0.9999999
1
1
1
1
0.9999998
1
1
0.9999998
1
1
0.9999998
1
1
1
1
1
1
1
1
1
0.9999997
0.9999999
1
1
1
1
1
0.9999996
0.9999996
1
1
1
0.9999999
0.9999995
1
1
1
1
0.9999995
0.9999997
0.9999999
0.9999999
1
1
1
1
0.9999996
0.9999999
1
1
0.9999996
0.9999999
1
1
1
1
1
1
1
1
1
1
1
1
1
1
1
1
1
1
1
1
1
1
1
1
1
1
1
1
1
1
1
1
1
1
1
1
1
1
1
1
1
1
1
1
1
1
1
1
1
1
1
1
1
1
1
1
1
1
1
1
1
1
1
1
1
1
1
1
1
1
1
1
1
1
1
1
1
1
1
1
1
1
1
1
1
1
1
1
1
1
1
1
1
1
1
1
1
1
1
1
1
1
1
1
1
1
1
1
1
1
1
1
1
1
1
1
1
1
1
1
1
1
1
1
1
1
1
1
1
1
1
1
1
1
1
1
1
1
1
1
1
1
1
1
1
1
1
1
1
1
1
1
1
1
1
1
1
1
1
1
1
1
1
1
1
1
1
1
1
1
1
1
1
1
1
1
1
1
1
1
1
1
1
1
1
1
1
1
1
1
1
1
1
1
1
1
1
1
1
1
1
1
1
1
1
1
1
1
1
1
1
1
1
1
1
1
1
1
0.9999999
1
1
1
1
1
1
1
1
0.9999998
0.9999999
1
1
0.9999999
1
1
1
1
1
1
1
0.9999999
0.9999999
1
1
1
0.9999999
1
1
1
1
1
1
1
1
1
1
1
1
1
1
1
1
1
1
1
1
1
1
1
1
1
1
1
1
1
1
1
1
1
1
1
0.9999999
1
1
1
1
1
1
1
1
1
0.9999999
0.9999999
1
1
1
1
1
1
1
1
1
1
1
1
1
1
1
1
1
1
0.9999999
0.9999997
0.9999991
0.9999971
0.9999897
0.9999725
0.9999514
0.9999378
0.9998781
0.9995618
0.9982302
0.9932742
0.9615367
0.8520493
0.8768701
0.9619938
0.9968404
0.9999506
0.9999999
1
1
1
1
1
1
1
1
1
0.9999999
1
1
1
1
0.9999999
0.9999999
1
1
1
1
1
0.9999999
0.9999999
1
1
1
1
1
1
0.9999999
0.9999999
1
1
1
1
1
1
1
1
1
0.9999999
0.9999998
0.9999999
1
1
1
1
1
0.9999999
0.9999999
0.9999999
0.9999999
1
1
0.9999999
0.9999999
1
1
1
0.9999999
0.9999998
0.9999999
1
1
1
1
1
1
1
0.9999999
0.9999997
0.9999998
0.9999999
1
1
1
1
1
1
1
1
1
1
1
1
1
1
1
0.9999999
0.9999999
1
1
1
1
1
1
1
1
1
1
1
1
1
1
0.9999999
0.9999999
1
0.9999999
1
1
1
1
1
1
1
1
1
1
1
1
1
1
1
1
1
1
1
1
1
1
1
1
1
1
1
1
1
1
1
1
1
1
1
1
1
1
1
1
1
1
1
1
1
1
1
1
1
1
1
1
1
1
1
1
1
1
1
1
1
1
1
1
1
1
1
1
1
1
1
1
1
1
1
1
1
1
1
1
1
1
1
1
1
1
1
1
1
1
1
1
1
1
1
1
1
1
1
1
1
1
1
1
1
1
1
1
1
1
1
1
1
1
1
1
1
1
1
1
1
1
1
1
1
0.9999999
0.9999999
0.9999999
1
0.9999999
0.9999999
0.9999997
0.9999991
0.999998
0.9999978
0.9999985
0.9999997
1
1
1
1
1
1
1
1
1
1
1
1
1
1
1
1
1
1
1
1
1
1
1
1
1
1
1
1
1
1
0.9999999
0.9999999
1
1
1
1
1
1
1
1
1
1
1
1
1
1
1
1
1
1
1
1
1
1
1
1
1
1
1
1
1
1
1
1
1
1
1
1
1
1
1
1
1
1
1
1
1
1
1
1
1
1
1
1
1
1
1
1
1
1
1
1
1
0.9999999
0.9999999
0.9999999
1
1
1
1
1
1
1
1
1
1
1
0.9999999
0.9999999
1
1
1
1
1
1
1
1
0.9999999
0.9999999
1
1
1
1
1
1
1
1
1
1
1
1
1
1
1
1
1
1
1
1
1
1
1
1
1
1
1
1
1
1
1
1
1
1
1
1
1
1
1
1
1
1
1
1
1
1
1
1
1
1
1
1
1
1
1
1
1
1
0.9999999
1
1
1
1
1
1
1
1
0.9999995
0.9999954
0.9999732
0.9998492
0.9992022
0.9973644
0.9955906
0.9962179
0.9988564
0.9988265
0.9958736
0.9765701
0.8560965
0.8161119
0.8161119
0.8341145
0.9511326
0.9965704
0.9999615
0.9999999
1
0.9999999
0.9999999
0.9999999
1
1
1
1
1
1
1
1
0.9999999
1
1
1
1
1
1
1
1
1
1
1
1
1
1
1
1
1
1
1
1
1
1
1
1
1
1
1
1
0.9999999
0.9999999
1
1
1
1
1
1
0.9999999
0.9999999
0.9999999
0.9999999
1
1
1
1
1
1
1
1
1
1
1
1
0.9999999
0.9999999
0.9999999
0.9999999
1
1
1
1
1
0.9999999
0.9999999
1
1
1
1
1
1
1
1
1
1
1
1
0.9999999
0.9999999
0.9999999
1
1
1
1
1
1
1
1
1
1
1
1
0.9999999
0.9999999
0.9999999
0.9999999
1
1
1
1
1
1
1
1
1
1
1
1
1
1
1
1
1
1
1
1
1
1
1
1
1
1
1
1
1
1
1
1
1
1
1
1
1
1
1
1
1
1
1
1
1
1
1
1
1
1
1
1
1
1
1
1
1
1
1
1
1
1
1
1
1
1
1
1
1
1
1
1
1
1
1
1
1
1
1
1
1
1
1
1
1
1
1
1
1
1
1
1
1
1
1
1
1
1
1
1
1
1
1
1
1
1
1
1
1
1
1
1
1
1
1
1
1
1
1
1
1
1
0.9999998
0.9999993
0.9999972
0.9999933
0.9999926
0.9999955
0.9999991
0.9999991
0.9999974
0.9999878
0.9999583
0.9999583
0.9999841
0.999998
0.9999999
1
1
1
1
1
1
1
1
1
1
1
1
1
1
1
1
1
1
1
1
1
1
1
1
1
1
1
1
1
0.9999999
0.9999996
0.9999997
0.9999999
1
1
1
1
1
1
1
1
1
1
1
1
1
1
1
1
1
1
1
1
1
1
1
1
1
1
1
1
1
1
1
1
1
1
1
1
1
1
1
1
1
1
1
1
1
1
1
1
1
1
1
1
1
1
1
1
1
1
1
1
1
1
1
1
1
1
1
1
1
1
1
1
1
1
0.9999999
0.9999999
0.9999999
0.9999999
1
1
1
1
1
1
1
1
1
1
1
1
1
1
1
1
1
1
1
1
1
1
1
1
1
1
1
1
1
1
1
1
1
1
1
1
1
1
1
1
1
1
1
1
1
1
1
1
1
1
1
1
1
1
1
1
1
1
1
1
1
1
1
1
1
1
1
1
1
1
1
1
1
1
1
1
1
1
1
1
0.9999999
1
1
1
1
1
1
0.9999999
0.999995
0.9999452
0.99959
0.9961831
0.9733552
0.9351299
0.9419858
0.9775595
0.9980283
0.9980082
0.9789145
0.852923
0.8330132
0.8927566
0.9283013
0.934208
0.9513668
0.9789966
0.9963732
0.999851
0.999999
1
1
1
1
1
1
1
1
1
1
1
1
1
1
1
1
1
1
1
1
1
0.9999999
0.9999998
0.9999998
0.9999999
1
1
1
1
1
1
1
1
1
1
1
1
1
1
1
1
1
1
1
1
1
1
1
1
0.9999999
0.9999999
0.9999999
1
1
1
1
1
1
1
0.9999999
1
1
1
1
1
1
0.9999999
0.9999999
0.9999999
1
1
1
1
1
1
1
1
1
1
1
1
1
1
1
1
1
1
1
1
1
1
1
1
1
1
1
1
1
1
1
1
1
0.9999999
0.9999999
0.9999999
1
1
1
1
1
1
1
1
1
1
1
1
1
1
1
1
1
1
1
1
1
1
1
1
1
1
1
1
1
1
1
1
1
1
1
1
1
1
1
1
1
1
1
1
1
1
1
1
1
1
1
1
1
1
1
1
1
1
1
1
1
1
1
1
1
1
1
1
1
1
1
1
1
1
1
1
1
1
1
1
0.9999999
0.9999996
0.9999986
0.9999947
0.9999839
0.9999791
0.9999888
0.9999982
0.9999999
1
1
1
1
1
1
1
1
1
1
1
1
1
1
1
1
1
1
0.9999999
0.9999999
0.9999999
1
1
1
1
1
1
1
1
1
0.9999999
0.9999997
0.9999986
0.9999942
0.9999755
0.9999087
0.9998306
0.999872
0.999966
0.9999974
0.9999976
0.9999864
0.9998907
0.9997437
0.9998473
0.9999684
0.9999982
1
1
1
1
1
1
1
1
1
1
1
1
1
1
1
1
1
1
1
1
1
1
1
1
1
1
1
1
1
1
0.9999998
0.9999991
0.999999
0.9999994
0.9999999
1
1
1
1
1
1
1
1
1
1
0.9999999
0.9999998
0.9999998
0.9999999
1
1
1
1
1
1
1
1
1
1
1
1
1
1
1
1
1
1
1
1
1
1
1
1
1
1
1
1
1
1
1
1
1
1
1
1
1
1
1
1
1
1
1
1
1
1
1
1
1
1
1
1
1
1
1
1
1
1
1
1
1
1
1
1
1
1
1
1
1
1
1
1
1
0.9999999
0.9999999
1
1
1
1
1
1
1
1
1
1
1
1
1
1
1
1
1
1
1
1
1
1
1
1
1
1
1
1
1
1
1
1
1
1
1
1
1
1
1
1
1
1
1
1
1
1
1
1
1
1
1
1
1
1
1
1
1
1
1
1
1
1
1
1
1
1
1
0.9999999
1
1
1
1
1
1
1
1
1
1
1
1
1
1
1
1
1
1
1
0.9999993
0.9999757
0.9996287
0.996174
0.9686088
0.8321666
0.8087645
0.8731216
0.9769355
0.9967865
0.9946431
0.9784016
0.9284518
0.8674469
0.6776631
0.2549137
0.141775
0.3092371
0.7765746
0.9790567
0.999536
0.9999982
1
1
1
1
1
1
1
1
1
1
1
1
1
1
1
1
1
0.9999999
0.9999992
0.9999945
0.9999798
0.999959
0.9999653
0.9999836
0.9999973
0.9999999
1
1
1
1
1
0.9999999
0.9999998
0.9999997
0.9999995
0.9999994
0.9999996
0.9999999
1
1
1
1
1
1
1
1
1
1
1
1
1
1
1
1
1
1
1
1
1
0.9999999
0.9999999
1
1
1
1
1
0.9999999
0.9999999
0.9999999
1
1
1
1
1
1
1
1
1
1
1
1
1
1
1
1
1
1
1
1
1
1
1
1
1
1
1
1
1
1
1
1
1
1
0.9999999
0.9999999
1
1
1
1
1
1
1
1
1
1
1
1
1
1
1
1
1
1
1
1
1
1
1
1
1
1
1
1
1
1
1
1
1
1
1
1
1
1
1
1
1
1
1
1
1
1
1
1
1
0.9999999
0.9999998
0.9999998
0.9999998
0.9999999
1
1
1
1
1
1
1
1
1
1
1
1
1
1
1
1
1
1
1
1
1
1
1
1
0.9999997
0.9999986
0.9999918
0.9999517
0.9997723
0.9996079
0.9997439
0.9999438
0.9999969
1
1
1
1
1
1
1
1
1
1
1
1
1
1
1
1
1
1
0.9999999
0.9999997
0.9999996
0.9999998
1
1
1
1
1
1
1
1
0.9999999
0.9999996
0.9999969
0.9999779
0.9998727
0.9994227
0.9984027
0.99829
0.9991842
0.9998874
0.9999946
0.9999959
0.9999656
0.9997355
0.9993887
0.999582
0.9999014
0.9999937
0.9999999
1
1
1
1
1
1
1
1
1
1
0.9999999
0.9999996
0.9999992
0.9999994
0.9999997
0.9999999
1
1
1
1
1
1
1
1
1
1
1
1
1
1
0.9999998
0.9999991
0.9999992
0.9999996
0.9999997
0.9999997
0.9999997
0.9999995
0.9999994
0.9999996
0.9999999
1
0.9999999
0.9999998
0.9999994
0.9999986
0.9999986
0.9999993
0.9999999
1
1
1
1
1
1
1
1
1
1
1
1
1
1
1
1
1
1
1
1
1
1
1
1
1
1
1
1
1
1
1
1
1
1
1
1
1
1
1
1
1
1
1
1
1
1
1
1
1
1
1
1
1
1
1
1
1
1
1
1
1
1
1
1
1
1
1
1
1
1
1
1
1
1
1
1
1
1
1
1
1
1
1
1
1
1
1
1
1
1
1
1
1
1
1
1
1
1
1
1
1
1
1
1
1
1
1
1
1
1
1
1
1
1
1
1
1
1
1
1
1
1
1
1
1
1
1
1
1
1
1
1
1
1
1
1
1
1
1
1
1
1
0.9999997
0.9999977
0.99999
0.9999834
0.999986
0.9999918
0.999996
0.9999965
0.9999961
0.9999941
0.9999928
0.999993
0.999994
0.9999956
0.9999975
0.999999
0.9999998
1
1
1
1
1
1
1
1
1
1
1
1
0.9999999
0.9999969
0.9998963
0.9979218
0.9831474
0.8608962
0.8084911
0.8218418
0.9375891
0.9684657
0.946861
0.8993248
0.7425398
0.3143293
0.06446946
0.01857947
0.01457683
0.01457683
0.01894371
0.1018336
0.609134
0.9575871
0.9990952
0.9999974
1
1
1
1
1
1
0.9999999
0.9999999
1
1
1
1
1
0.9999999
0.9999999
0.9999983
0.9999802
0.9998355
0.9993255
0.9989817
0.9992073
0.9997368
0.9999689
0.9999989
0.9999999
0.9999999
0.9999999
0.9999999
0.9999998
0.9999996
0.9999987
0.9999956
0.9999912
0.9999913
0.9999955
0.9999993
1
1
1
1
1
1
1
1
1
1
1
1
1
1
1
1
1
1
0.9999999
0.9999999
1
1
1
1
1
1
1
1
1
1
1
1
1
1
1
0.9999999
1
1
1
1
1
1
1
1
1
1
0.9999999
0.9999999
0.9999999
0.9999999
1
1
1
1
1
1
1
1
1
1
1
1
1
1
1
1
1
1
1
1
1
1
1
1
1
1
1
1
1
1
1
1
1
1
1
1
1
1
1
1
1
1
1
1
1
1
0.9999999
0.9999998
0.9999998
0.9999998
0.9999998
0.9999998
0.9999996
0.9999994
0.9999995
0.9999998
1
1
1
1
1
1
1
1
0.9999999
0.9999997
0.9999986
0.9999964
0.9999969
0.999999
0.9999999
1
0.9999999
0.9999998
0.9999998
0.9999999
1
1
1
1
1
1
1
1
1
1
1
1
1
1
1
1
1
1
0.9999999
0.9999992
0.9999931
0.9999576
0.9997716
0.9990165
0.9983105
0.9988796
0.9997529
0.9999862
0.9999999
1
1
1
1
1
1
1
1
1
1
1
1
1
1
1
1
0.9999999
0.9999996
0.9999987
0.9999983
0.999999
0.9999998
1
1
1
0.9999999
0.9999998
0.9999993
0.9999972
0.9999931
0.9999877
0.9999752
0.9999263
0.9996217
0.9972264
0.988157
0.9891135
0.9957149
0.9994729
0.9999855
0.9999967
0.9999841
0.9997727
0.9984585
0.9984611
0.9994136
0.9999346
0.9999984
1
1
1
1
0.9999999
0.9999995
0.999998
0.9999914
0.9999625
0.9998916
0.9998928
0.9999604
0.9999956
0.9999992
0.9999988
0.9999979
0.9999986
0.9999996
1
1
1
1
1
1
1
1
1
1
0.9999999
0.9999999
0.9999999
0.9999999
0.9999998
0.9999994
0.999998
0.9999932
0.9999812
0.999975
0.9999849
0.9999971
0.9999998
0.9999999
0.9999995
0.999998
0.9999932
0.999987
0.9999879
0.9999949
0.9999994
1
1
1
1
1
1
1
1
1
1
1
1
1
1
1
1
1
1
1
1
1
1
1
1
1
1
1
1
1
1
1
1
1
1
1
1
1
1
1
1
1
1
1
1
1
1
1
1
1
1
1
1
1
1
1
1
1
1
1
1
1
1
1
1
1
1
1
1
1
1
1
1
1
1
1
1
1
1
1
1
1
1
1
1
1
1
1
1
1
1
1
1
1
1
0.9999999
0.9999999
0.9999999
0.9999999
0.9999999
1
1
1
1
0.9999999
0.9999997
0.9999997
0.9999997
0.9999997
0.9999996
0.9999996
0.9999996
0.9999997
0.9999998
0.9999998
0.9999997
0.9999993
0.9999989
0.9999988
0.999999
0.9999993
0.9999993
0.9999992
0.9999986
0.9999971
0.9999942
0.9999919
0.9999921
0.9999951
0.9999981
0.9999984
0.999998
0.999996
0.9999929
0.9999925
0.9999939
0.9999959
0.9999964
0.999996
0.9999946
0.9999935
0.9999936
0.9999943
0.9999956
0.999996
0.9999958
0.9999949
0.9999928
0.9999847
0.9999171
0.9995439
0.9992193
0.9993191
0.9996017
0.9998227
0.9998549
0.9998503
0.9998409
0.9998195
0.9997681
0.9996974
0.9996924
0.9997086
0.9997441
0.9997481
0.9997435
0.9998195
0.9999633
0.9999986
1
1
1
1
1
1
1
1
0.9999998
0.9999981
0.9999815
0.9996503
0.9934712
0.951308
0.9463692
0.945993
0.9275394
0.8736207
0.7592493
0.444719
0.126617
0.01936047
0.01187256
0.02612158
0.07681066
0.0650401
0.02327614
0.01457683
0.01635004
0.2023588
0.798377
0.9894242
0.9999178
0.9999999
1
1
1
0.9999998
0.9999995
0.9999996
0.9999999
1
1
0.9999999
0.9999998
0.9999996
0.9999991
0.9999913
0.999885
0.9988596
0.9951208
0.9919482
0.9950912
0.9987808
0.9998849
0.9999857
0.999986
0.9999868
0.9999889
0.9999919
0.9999935
0.9999934
0.9999908
0.9999769
0.9999461
0.9999437
0.9999679
0.9999931
0.9999995
0.9999999
0.9999999
0.9999999
0.9999999
0.9999999
0.9999999
0.9999999
0.9999999
0.9999999
0.9999999
0.9999999
0.9999998
0.9999997
0.9999988
0.9999941
0.9999872
0.9999904
0.9999971
0.9999997
1
1
1
1
1
1
1
1
1
1
1
1
1
0.9999999
0.9999996
0.9999996
0.9999998
1
1
1
1
1
1
1
0.9999998
0.9999992
0.9999977
0.9999978
0.9999989
0.9999997
0.9999998
0.9999997
0.9999992
0.9999965
0.999991
0.9999912
0.9999963
0.9999994
1
1
1
1
1
1
1
1
1
1
1
1
1
1
1
1
1
1
1
1
1
1
1
1
1
1
1
1
1
0.9999999
0.9999999
0.9999998
0.9999997
0.9999995
0.9999988
0.9999973
0.9999947
0.9999889
0.999974
0.9999405
0.9998968
0.9998689
0.9998465
0.9998373
0.9998747
0.9999648
0.9999974
1
1
1
1
1
1
1
1
0.9999998
0.9999986
0.9999929
0.9999745
0.9999728
0.9999864
0.9999981
0.9999999
0.9999999
0.9999998
0.9999988
0.9999988
0.9999996
1
1
1
1
1
1
1
1
1
1
1
0.9999999
0.9999996
0.999998
0.9999935
0.9999926
0.999994
0.9999979
0.9999998
0.9999995
0.9999931
0.9999033
0.9991366
0.9950393
0.9913433
0.994396
0.9987786
0.9999333
0.9999994
1
1
1
1
1
1
1
1
1
1
1
1
1
1
1
0.9999999
0.9999997
0.9999981
0.9999926
0.9999907
0.9999944
0.9999989
0.9999995
0.999999
0.9999958
0.9999806
0.9999576
0.9999664
0.9999853
0.9999596
0.9997104
0.9988632
0.9977562
0.9961068
0.9874777
0.9823865
0.9823865
0.9823865
0.986702
0.996938
0.9997728
0.9999701
0.9999242
0.9990569
0.9977135
0.9977135
0.9988988
0.9998365
0.9999943
0.9999999
0.9999999
0.9999989
0.9999938
0.9999727
0.9998839
0.9994925
0.9983937
0.9982654
0.9992699
0.9999109
0.9999897
0.9999867
0.9999732
0.9999794
0.9999943
0.9999995
1
1
1
1
1
1
1
1
1
0.9999999
0.9999998
0.9999997
0.9999993
0.9999987
0.9999982
0.9999977
0.9999839
0.9997646
0.999392
0.9995993
0.9998972
0.999993
0.9999999
0.9999999
0.9999994
0.9999877
0.9999203
0.9999093
0.9999093
0.9999636
0.9999956
0.9999999
1
1
1
1
1
1
1
1
1
1
1
1
1
1
1
1
1
1
1
1
1
1
1
1
1
1
1
1
1
1
1
1
1
1
1
1
1
1
1
1
1
1
1
1
1
1
1
1
1
1
1
1
1
1
1
1
1
1
1
1
1
1
1
1
1
1
1
1
1
1
1
1
1
1
1
1
1
1
1
1
1
1
0.9999998
0.9999995
0.9999993
0.9999993
0.9999994
0.9999997
0.9999998
0.9999997
0.9999994
0.9999979
0.9999929
0.9999767
0.9999324
0.9998688
0.999851
0.9998614
0.9999055
0.9999599
0.9999781
0.9999784
0.9999719
0.9999451
0.9998781
0.9997792
0.9996972
0.999652
0.9996484
0.999704
0.9998578
0.9999299
0.9999245
0.9998773
0.9997284
0.9995182
0.9994858
0.9996085
0.9998146
0.9998754
0.9998617
0.9997767
0.9994969
0.9989015
0.9984655
0.998551
0.9991176
0.9997189
0.9997891
0.9997271
0.9994209
0.9988742
0.9987968
0.9990407
0.9994627
0.9995268
0.999453
0.9991448
0.9986618
0.9985794
0.9990157
0.9996224
0.9996847
0.999624
0.9994928
0.999406
0.9992516
0.9984463
0.9947555
0.9907322
0.993743
0.9978607
0.9979177
0.9972191
0.9957872
0.995237
0.9954511
0.9955473
0.9949518
0.9919954
0.9804422
0.9538329
0.9443193
0.9711817
0.9959161
0.9998757
0.999998
0.9999999
0.9999998
0.9999996
0.999998
0.9999935
0.9999923
0.9999969
0.9999998
0.9999999
0.9999969
0.9999149
0.9990685
0.9961463
0.9937411
0.985253
0.949303
0.8534072
0.5549236
0.165077
0.02371123
0.01183596
0.01179273
0.01171843
0.01165349
0.1404106
0.5095034
0.4168756
0.1111289
0.01457683
0.01457683
0.08305173
0.6496918
0.9726076
0.9996553
0.9999995
1
0.9999995
0.9999973
0.9999967
0.9999984
0.9999998
1
0.9999999
0.9999991
0.9999978
0.9999975
0.9999955
0.9999577
0.9995654
0.9969621
0.9844927
0.978457
0.9858554
0.9961902
0.9990686
0.9989899
0.9987865
0.9987987
0.9989106
0.9991211
0.9993749
0.9996373
0.9997615
0.9997143
0.99967
0.9997396
0.9998321
0.9999142
0.9999605
0.999965
0.9999614
0.9999566
0.9999569
0.9999629
0.9999614
0.9999476
0.9999568
0.999981
0.9999922
0.9999921
0.9999879
0.999955
0.999808
0.9997692
0.9998672
0.9999767
0.9999985
0.9999999
1
1
1
1
1
1
1
1
1
1
1
1
0.9999997
0.9999985
0.9999976
0.9999986
0.9999997
1
1
1
0.9999999
0.9999998
0.9999998
0.9999997
0.9999993
0.9999957
0.9999916
0.9999935
0.9999948
0.9999941
0.9999859
0.9999146
0.9997526
0.9997508
0.9998887
0.999981
0.9999989
0.9999999
1
1
1
1
1
1
1
1
0.9999999
0.9999998
0.9999999
1
1
1
1
1
1
1
0.9999999
0.9999999
0.9999999
1
1
1
1
0.9999999
0.9999999
0.9999999
0.9999998
0.999999
0.9999959
0.9999879
0.9999756
0.9999703
0.9999697
0.9999456
0.9997997
0.9994866
0.9990786
0.9983688
0.9970982
0.9967592
0.996768
0.9967775
0.9986044
0.999823
0.9999951
1
1
1
1
1
0.9999999
0.9999999
0.9999994
0.9999969
0.999986
0.9999184
0.9998115
0.999884
0.9999749
0.9999985
1
1
0.9999999
0.9999988
0.9999982
0.9999986
0.9999996
1
1
1
1
0.9999999
0.9999999
0.9999998
0.9999994
0.9999983
0.9999948
0.9999802
0.9999243
0.9997849
0.9996331
0.9996473
0.9998422
0.9999779
0.9999991
0.9999994
0.9999968
0.9999542
0.9992389
0.9888072
0.9720302
0.9769641
0.9927605
0.9993749
0.9999897
1
1
1
1
1
1
1
1
1
1
1
1
1
1
1
1
0.9999997
0.9999943
0.9999712
0.9999693
0.9999707
0.9999905
0.9999936
0.9999825
0.9999082
0.9995584
0.9988058
0.9987843
0.9994658
0.9999492
0.9999259
0.9990921
0.9838971
0.9480906
0.9487442
0.9779779
0.997152
0.9997585
0.9997588
0.9979663
0.9925358
0.9948516
0.998645
0.9998922
0.9999977
0.9999994
0.9999995
0.9999996
0.9999998
0.9999999
0.9999999
0.9999993
0.999986
0.9998407
0.9986257
0.9910391
0.9825581
0.9886158
0.9974521
0.9998393
0.9999678
0.9999023
0.999868
0.9999162
0.9999846
0.9999993
1
1
1
1
1
1
1
1
0.9999998
0.9999993
0.9999964
0.9999753
0.9996919
0.9975856
0.9968122
0.9976073
0.9994109
0.9999488
0.9998524
0.9992398
0.9991787
0.9996504
0.9999561
0.9999987
1
0.9999997
0.9999981
0.9999929
0.9999852
0.9999845
0.9999892
0.999997
0.9999998
1
1
1
1
1
1
1
1
1
0.9999999
1
1
1
1
1
1
1
1
1
1
1
1
1
1
1
1
1
1
1
1
1
1
1
1
1
1
1
1
1
1
1
1
1
1
1
1
1
1
1
1
1
1
1
1
1
1
1
1
1
1
1
1
1
1
1
1
1
1
1
1
1
1
1
1
1
1
1
1
1
1
1
1
1
1
1
1
1
1
1
1
1
1
1
0.9999999
0.9999999
0.9999998
0.9999993
0.9999969
0.9999848
0.9999294
0.9997446
0.9994952
0.9994585
0.9995169
0.9996978
0.9998781
0.9999124
0.9998943
0.9997813
0.9993693
0.997891
0.9924996
0.9804186
0.9754664
0.9785485
0.9886105
0.9967644
0.9977657
0.9971401
0.9956574
0.9942333
0.9916663
0.9836837
0.9677284
0.9609164
0.966184
0.9826609
0.9960897
0.9978118
0.9961784
0.9871107
0.967547
0.9630093
0.970701
0.9864497
0.9953571
0.9961154
0.9945846
0.986923
0.9643218
0.9404527
0.9435949
0.9714771
0.99509
0.9968433
0.994273
0.9834944
0.9622015
0.9585209
0.9750285
0.9942302
0.994717
0.9895362
0.9659869
0.9384637
0.9542067
0.9887087
0.9977739
0.9967899
0.9884287
0.9762427
0.9845839
0.9954479
0.992714
0.9610916
0.9541463
0.9761443
0.9952774
0.9912961
0.9601126
0.9026423
0.9016936
0.9278991
0.9375676
0.9370387
0.9024095
0.5165071
0.2156909
0.3708031
0.8296674
0.9879681
0.9996973
0.9999958
0.9999976
0.999994
0.9999651
0.9998209
0.9997768
0.9998965
0.999988
0.9999994
0.9999997
0.9999987
0.9999826
0.9993194
0.9833976
0.9629578
0.9682635
0.9288476
0.6223585
0.1569618
0.02052025
0.01184419
0.01184408
0.01183733
0.01171843
0.01165349
0.01165348
0.2767817
0.7172844
0.6805908
0.2259561
0.01959475
0.01457683
0.0693548
0.6105965
0.9657304
0.999493
0.9999984
0.9999993
0.9999923
0.999989
0.9999936
0.999999
0.9999998
0.9999993
0.9999964
0.9999931
0.9999912
0.9999784
0.9998571
0.998839
0.9923926
0.9720534
0.9666914
0.9775846
0.9877549
0.9860312
0.9801958
0.9667891
0.9445716
0.9424309
0.9488302
0.9636113
0.9796508
0.9905532
0.9966341
0.9992507
0.9996864
0.9995886
0.9967884
0.994631
0.9958653
0.998312
0.9994049
0.9991738
0.9983286
0.9985552
0.9994286
0.999914
0.9999583
0.9999505
0.999895
0.9994786
0.9982807
0.9983063
0.9993105
0.9998858
0.9999894
0.9999991
1
1
1
1
1
1
1
1
1
1
1
0.9999998
0.9999986
0.9999879
0.9999825
0.999986
0.9999961
0.9999997
1
1
1
1
0.9999999
0.9999995
0.9999966
0.999989
0.9999887
0.99999
0.9999896
0.9999762
0.9997409
0.9987113
0.9985922
0.9990979
0.9998169
0.9999831
0.9999965
0.9999992
0.9999999
1
1
1
1
0.9999998
0.9999988
0.9999945
0.9999932
0.9999958
0.9999992
0.9999999
1
1
1
1
1
1
0.9999999
0.9999997
0.9999997
0.9999999
1
1
1
1
1
0.9999993
0.9999981
0.9999981
0.9999974
0.9999791
0.9997493
0.998522
0.9967177
0.9967568
0.9982216
0.9995563
0.998915
0.9909426
0.9865869
0.9865869
0.9877019
0.9959254
0.9996322
0.999959
0.9999586
0.9999614
0.9999833
0.9999976
0.9999993
0.9999991
0.9999988
0.9999979
0.9999944
0.9999815
0.9999507
0.9998281
0.9996218
0.9996207
0.9996877
0.9999104
0.9999933
0.9999999
1
1
1
0.9999999
0.9999999
0.9999999
0.9999999
0.9999999
0.9999996
0.9999974
0.9999867
0.9999538
0.9999203
0.999922
0.9999255
0.9998444
0.9994119
0.9980173
0.9937937
0.9918997
0.995223
0.9990556
0.9999526
0.9999971
0.9999965
0.9999854
0.999909
0.9991882
0.9909671
0.972348
0.9720302
0.9741358
0.9911538
0.9992073
0.9999877
1
1
1
1
1
1
1
1
0.9999997
0.9999939
0.9999247
0.9998842
0.9999105
0.9999761
0.9999984
0.9999999
0.9999999
0.9999995
0.9999994
0.9999996
0.9999996
0.9999972
0.99996
0.9996113
0.9969358
0.9895515
0.9909734
0.9971844
0.9997589
0.9999658
0.9998876
0.9982464
0.9725511
0.9474224
0.9474224
0.962634
0.99258
0.9970512
0.9926179
0.9842634
0.9884178
0.9971153
0.9998016
0.9999959
0.9999984
0.9999968
0.9999961
0.9999975
0.9999995
0.9999999
0.9999998
0.999997
0.9999278
0.9983107
0.9753671
0.9557505
0.960833
0.9868345
0.9986669
0.9998716
0.9997702
0.9997553
0.9998735
0.999972
0.9999981
0.9999999
0.9999996
0.9999977
0.9999857
0.9998977
0.9992709
0.998609
0.9988255
0.9995866
0.9998389
0.9997407
0.9981968
0.9958294
0.9960285
0.9981953
0.9996298
0.9999646
0.9999915
0.999963
0.9994454
0.997833
0.9985242
0.9996182
0.9999722
0.9999996
1
1
1
0.9999999
0.9999998
0.9999997
0.9999996
0.9999997
0.9999998
1
1
1
0.9999999
1
1
1
1
1
1
1
1
1
1
1
1
1
1
1
1
1
1
1
1
1
1
1
1
1
1
1
1
0.9999999
1
1
1
1
1
1
1
1
1
1
1
1
1
1
1
1
1
1
1
1
1
1
1
1
1
1
1
1
1
1
1
1
1
1
1
1
1
1
1
1
1
1
1
1
1
1
1
1
1
1
1
1
1
1
1
1
1
1
1
1
1
1
1
1
1
1
1
0.9999999
0.9999993
0.9999973
0.9999926
0.9999828
0.9999615
0.999922
0.9998647
0.9998165
0.9997631
0.9995745
0.9987644
0.99527
0.9823791
0.9601707
0.9547126
0.9598152
0.9758076
0.9902146
0.9933642
0.9932261
0.9914237
0.9823179
0.951592
0.8584195
0.6423413
0.5547628
0.6207274
0.8198115
0.9548627
0.9566281
0.9085411
0.8338536
0.838602
0.8603629
0.8054971
0.5227286
0.4234039
0.5846418
0.8741893
0.9621123
0.9602176
0.9446785
0.7847883
0.4825985
0.5328212
0.7873557
0.8825278
0.8817587
0.9073568
0.9135803
0.6931853
0.232068
0.2719931
0.6876891
0.9419853
0.9737523
0.967673
0.8150344
0.3959401
0.4712487
0.8155472
0.9666684
0.976365
0.9312711
0.5475913
0.397727
0.6944277
0.952369
0.980623
0.9584248
0.81965
0.8102272
0.9325203
0.9865275
0.9768477
0.8963476
0.8899198
0.9615299
0.9895133
0.9803833
0.9150005
0.5504461
0.2679784
0.3906259
0.681913
0.6635879
0.2976887
0.2047544
0.2047544
0.2047544
0.5293449
0.9366362
0.9978632
0.999913
0.9999528
0.9998238
0.9978645
0.9975616
0.9988802
0.9998262
0.9999844
0.9999986
0.9999994
0.9999982
0.9999825
0.9998832
0.9984867
0.9471003
0.8872638
0.895299
0.7777352
0.2828575
0.062913
0.02746345
0.0206871
0.01507507
0.01227419
0.01176145
0.01165354
0.0116424
0.09420842
0.619884
0.6437633
0.2269122
0.02003075
0.01457683
0.08632046
0.6495723
0.9711535
0.9995854
0.9999982
0.999999
0.9999921
0.9999921
0.9999974
0.9999991
0.9999976
0.9999859
0.9999807
0.9999835
0.9999566
0.9994677
0.9956356
0.9878513
0.9597689
0.9566001
0.9672738
0.9563043
0.9022086
0.7967336
0.7020533
0.5969725
0.392283
0.271403
0.2826755
0.3846037
0.6953381
0.929152
0.984708
0.9938732
0.9977405
0.9995545
0.9994584
0.9980858
0.9876934
0.9845918
0.9845918
0.9915634
0.9985347
0.999824
0.9998372
0.9998173
0.9994741
0.9964466
0.9875935
0.9896463
0.9968246
0.9996086
0.9999575
0.9999966
0.9999996
0.9999997
0.9999997
0.9999998
0.9999999
1
1
1
1
1
0.9999999
0.9999984
0.9999788
0.9999553
0.999962
0.9999867
0.9999981
0.9999988
0.9999988
0.9999988
0.9999988
0.9999988
0.9999985
0.9999976
0.9999955
0.999992
0.9999878
0.9999817
0.9999495
0.9995459
0.9976608
0.9973807
0.9983375
0.9996764
0.9999522
0.9999771
0.9999907
0.9999981
0.9999993
0.9999993
0.9999992
0.9999987
0.9999956
0.99998
0.9999153
0.9998693
0.9999102
0.9999769
0.999998
0.9999998
1
1
1
1
1
1
0.9999998
0.9999993
0.9999992
0.9999995
0.9999999
1
1
1
1
1
0.9999999
0.9999994
0.9999947
0.9999629
0.9998138
0.9995869
0.998431
0.9809852
0.9666268
0.9699885
0.9894231
0.9989043
0.9999067
0.9998909
0.9998182
0.9996807
0.9995877
0.999608
0.9997769
0.9999629
0.999991
0.9999897
0.9999843
0.9999826
0.9999843
0.9999841
0.9999779
0.9999324
0.9995286
0.9977911
0.9978332
0.9992222
0.9999195
0.9999979
1
1
1
1
0.9999999
0.9999992
0.9999967
0.9999915
0.9999921
0.9999959
0.9999962
0.9999938
0.9999875
0.9999456
0.9995552
0.9975605
0.9951388
0.9955098
0.9979705
0.9986165
0.9920302
0.97115
0.9706165
0.9782013
0.9950247
0.9992103
0.9994532
0.9996947
0.9999111
0.9998489
0.9980534
0.9802085
0.9720302
0.9720302
0.9782567
0.9935368
0.9993312
0.9999769
0.9999996
0.9999999
0.9999999
0.9999998
0.9999968
0.9999479
0.999746
0.9997875
0.9999332
0.9999951
0.9999947
0.99995
0.9998911
0.9999383
0.9999878
0.9999994
0.9999997
0.9999996
0.999999
0.9999987
0.9999989
0.9999987
0.9999851
0.9996474
0.9928866
0.9697655
0.9718724
0.9896583
0.9988555
0.9999533
0.9999619
0.9997144
0.9946017
0.9676649
0.9725498
0.990373
0.9938584
0.9915489
0.9650669
0.9234206
0.9443166
0.9849514
0.9989216
0.9999785
0.9999943
0.9999713
0.9999655
0.9999804
0.9999969
0.9999999
0.9999999
0.9999997
0.9999942
0.9998579
0.9964338
0.9658921
0.9557505
0.9738585
0.9950677
0.9994534
0.9997902
0.9998853
0.9999376
0.9999782
0.9999972
0.9999996
0.9999989
0.9999878
0.9998826
0.9989809
0.9958707
0.9960564
0.9987331
0.9993936
0.9991878
0.995488
0.9919288
0.9938222
0.9980544
0.9997549
0.9999838
0.9999994
0.9999996
0.9999968
0.999934
0.9988643
0.9973435
0.9973435
0.9986671
0.9998076
0.9999936
1
1
1
1
1
1
1
1
1
0.9999998
0.9999991
0.9999961
0.9999566
1
1
1
1
1
1
1
1
1
0.9999999
1
1
1
0.9999999
1
1
1
1
1
1
1
1
1
1
1
1
1
1
1
1
1
1
1
1
1
1
1
1
1
1
1
1
1
1
1
1
1
1
1
1
1
1
1
1
1
1
1
1
1
1
1
1
1
1
1
1
1
1
1
1
1
1
1
1
1
1
1
1
1
1
1
1
1
1
1
1
1
1
1
1
1
1
1
1
1
1
1
1
1
1
1
1
1
1
1
1
1
0.9999997
0.9999956
0.9999597
0.9997392
0.9989878
0.9976957
0.996015
0.993465
0.9895841
0.9839748
0.9787456
0.9776982
0.9746687
0.9562419
0.9008146
0.7508486
0.5294808
0.4822118
0.5334104
0.7066323
0.8513296
0.8579629
0.8480157
0.8365171
0.7526687
0.3921753
0.09213099
0.03055528
0.02811926
0.03564239
0.1767391
0.6052335
0.627278
0.3565248
0.1291932
0.1350683
0.1568966
0.134545
0.05650093
0.03091364
0.06291834
0.3934964
0.5608404
0.3714473
0.0948143
0.02684527
0.02817019
0.106685
0.3291071
0.3240023
0.1736086
0.04941421
0.03118152
0.02561092
0.02763755
0.1033211
0.2231464
0.2153561
0.1455331
0.06684672
0.04909309
0.1116907
0.3908556
0.3642845
0.1786972
0.05546922
0.03689198
0.04030697
0.3041695
0.6177587
0.463857
0.2016276
0.139577
0.3168685
0.8093742
0.9456852
0.7307767
0.4818485
0.595649
0.893226
0.9876509
0.9726232
0.6308408
0.1342845
0.098095
0.1086662
0.098095
0.098095
0.1828963
0.7136147
0.8818251
0.8818389
0.881759
0.7493308
0.7254822
0.8068893
0.9337315
0.9899742
0.998036
0.998984
0.9990325
0.9994868
0.9999126
0.9999517
0.9999388
0.9999545
0.9999779
0.9999506
0.9997932
0.9981495
0.9681713
0.8340248
0.766492
0.786944
0.6782073
0.4902661
0.3610728
0.283
0.2114535
0.1505637
0.08896601
0.02779301
0.01163115
0.02284951
0.1457512
0.217553
0.117898
0.01599034
0.01584486
0.1233754
0.7102357
0.978711
0.999718
0.9999988
0.999999
0.9999986
0.9999975
0.9999964
0.9999824
0.9999504
0.9999718
0.9999601
0.9996711
0.9979372
0.99468
0.9706609
0.9477136
0.9525804
0.9327504
0.8636593
0.6559283
0.2617159
0.04882252
0.0212428
0.02123027
0.02387467
0.02611425
0.02957142
0.04879977
0.14025
0.551476
0.9183136
0.9929154
0.9995365
0.9997148
0.9997148
0.9987617
0.9919654
0.9881454
0.9927524
0.9980119
0.9998127
0.999889
0.9997305
0.9970386
0.9766892
0.9669653
0.9730797
0.9919444
0.9992569
0.9999827
0.9999976
0.9999976
0.9999973
0.9999974
0.9999979
0.999999
0.9999997
0.9999999
0.9999999
0.9999998
0.999999
0.999992
0.9999533
0.9999355
0.9999533
0.9999878
0.9999966
0.9999966
0.9999966
0.9999962
0.9999945
0.9999893
0.9999738
0.9999392
0.9999116
0.9998893
0.9998044
0.9991801
0.9957602
0.9929021
0.9941464
0.9965812
0.9985424
0.9989016
0.998872
0.9994153
0.9998939
0.9999948
0.9999992
0.9999986
0.999989
0.9999217
0.9995249
0.9974708
0.993813
0.994708
0.9983037
0.99984
0.9999931
0.9999993
1
1
1
1
1
0.9999997
0.9999959
0.9999889
0.9999905
0.9999965
0.9999996
1
1
1
1
1
1
0.9999997
0.999997
0.9999805
0.9998648
0.9985487
0.9830106
0.9672923
0.9704451
0.9886247
0.9975885
0.9978844
0.9976659
0.9985189
0.9996965
0.9999841
0.9999944
0.9999944
0.9999945
0.9999949
0.9999949
0.9999846
0.9999453
0.9998476
0.9997805
0.9997982
0.999912
0.9999383
0.9996862
0.9963752
0.9944456
0.9945804
0.9977404
0.9997068
0.999992
0.9999999
1
0.9999999
0.9999989
0.9999918
0.999939
0.9997021
0.9994806
0.9995551
0.9998079
0.9999763
0.9999819
0.9998647
0.9992191
0.998121
0.9960677
0.9800816
0.9690816
0.9690816
0.9731354
0.9919652
0.9992769
0.9995831
0.9994448
0.9989357
0.9968805
0.9789997
0.9703502
0.9713475
0.988906
0.9989548
0.9982583
0.9905908
0.984898
0.9895953
0.996676
0.9996588
0.9998454
0.9996447
0.9993486
0.9994846
0.9998421
0.9999887
0.9999723
0.9997555
0.9996626
0.9997109
0.9999117
0.9999923
0.9999983
0.9999938
0.9999913
0.9999923
0.9999917
0.9999862
0.9999594
0.9998741
0.9997315
0.9997031
0.999843
0.9999062
0.9998321
0.9987298
0.9833589
0.9687148
0.9687148
0.9841465
0.9976077
0.9993483
0.9983827
0.9970857
0.9947672
0.9947298
0.9955157
0.9955157
0.991222
0.9171633
0.8467013
0.8467013
0.884395
0.975058
0.9987919
0.9999632
0.9999773
0.9999645
0.999974
0.9999893
0.9999957
0.9999956
0.9999974
0.9999987
0.9999928
0.9998672
0.998005
0.9883055
0.9840236
0.9898203
0.9975354
0.9996852
0.999846
0.9998381
0.9998993
0.9999753
0.9999984
0.9999996
0.999995
0.999873
0.9973578
0.9888861
0.9884367
0.9943145
0.9992872
0.9989579
0.9937727
0.9852679
0.9915886
0.9982796
0.999895
0.9999986
0.9999999
0.9999999
0.9999999
0.9999982
0.9999873
0.999954
0.9999053
0.9998905
0.9999014
0.9999434
0.9999889
0.9999995
1
1
1
1
0.9999999
0.9999998
0.9999994
0.9999971
0.9999765
0.9994901
0.9972015
0.9970121
1
1
1
1
1
0.9999999
1
1
1
1
1
1
1
1
1
1
1
1
1
1
1
1
1
1
1
1
1
1
1
1
1
1
1
1
1
1
1
1
1
1
1
1
1
1
1
1
1
1
1
1
1
1
0.9999999
1
1
1
1
1
1
1
1
1
1
1
1
1
1
1
1
1
1
1
1
1
1
1
1
1