/*--------------------------------*- C++ -*----------------------------------*\
| =========                 |                                                 |
| \\      /  F ield         | foam-extend: Open Source CFD                    |
|  \\    /   O peration     | Version:     3.1                                |
|   \\  /    A nd           | Web:         http://www.extend-project.de       |
|    \\/     M anipulation  |                                                 |
\*---------------------------------------------------------------------------*/
FoamFile
{
    version     2.0;
    format      ascii;
    class       volScalarField;
    location    "18";
    object      k;
}
// * * * * * * * * * * * * * * * * * * * * * * * * * * * * * * * * * * * * * //

dimensions      [0 2 -2 0 0 0 0];

internalField   nonuniform List<scalar> 
119952
(
0.0673338
0.06294862
0.06085982
0.05798647
0.05448191
0.05093721
0.04808851
0.04553114
0.04338304
0.04174215
0.04068993
0.0402388
0.04034905
0.04083231
0.04151728
0.04235663
0.04331624
0.04434087
0.04559512
0.04749649
0.05164069
0.05288472
0.05589592
0.06117448
0.06418314
0.06872385
0.07393537
0.07931653
0.08287721
0.02292678
0.09229667
0.09002736
0.08767941
0.08606703
0.08521022
0.08496367
0.08512721
0.08552154
0.0860229
0.08658175
0.08266291
0.08290628
0.08523434
0.08837146
0.09161769
0.09462347
0.0972857
0.09956854
0.101457
0.1104086
0.11145
0.1119445
0.1120229
0.111868
0.1116567
0.111496
0.1114742
0.1115887
0.1117954
0.1124529
0.1130211
0.1135186
0.1140291
0.1145514
0.1150584
0.1155174
0.1158319
0.1161454
0.1184922
0.1183647
0.1173527
0.1168864
0.1164185
0.1153684
0.1138109
0.1121233
0.1105078
0.1090499
0.1077769
0.1066523
0.1055794
0.104379
0.1029564
0.1013368
0.09961558
0.09796311
0.09674804
0.09648897
0.09786194
0.1015311
0.1078646
0.1178884
0.1326813
0.1507661
0.1708911
0.1925343
0.2160241
0.2368039
0.2551883
0.2734342
0.2908272
0.306061
0.3176837
0.324647
0.3266465
0.3236318
0.3160091
0.303976
0.2861244
0.2594087
0.2161249
0.185382
0.1887793
0.1997952
0.1995181
0.1854686
0.1649365
0.145631
0.1305361
0.119363
0.111266
0.1052382
0.1006373
0.09704691
0.09428141
0.09226402
0.09095917
0.090331
0.09032264
0.09085455
0.0918218
0.09309472
0.09448858
0.09580269
0.09686244
0.09753128
0.09770407
0.09729775
0.09637835
0.09509158
0.09348239
0.09159246
0.08945622
0.08710225
0.08454751
0.0817969
0.07891335
0.07632733
0.07441698
0.07319179
0.07303078
0.07379867
0.07512441
0.07649368
0.07765468
0.0784632
0.07887433
0.07891059
0.07862206
0.07804214
0.07720593
0.07620095
0.07506435
0.07379955
0.07240787
0.07089871
0.06929803
0.06764201
0.06597302
0.06433145
0.06275599
0.06128233
0.05993581
0.05872623
0.05763732
0.05665013
0.05575013
0.0549247
0.05416119
0.05344649
0.05276786
0.05211437
0.05147949
0.05086212
0.05026527
0.04968107
0.04909493
0.04851231
0.04794636
0.04740827
0.04690841
0.0464587
0.04606707
0.04573651
0.04547098
0.04527986
0.04518935
0.04536496
0.04570485
0.04570395
0.04563036
0.04547683
0.04525478
0.04496913
0.04460966
0.0441792
0.04368319
0.04313099
0.04252463
0.04187115
0.04119412
0.04052806
0.03987443
0.03921886
0.03854626
0.03784728
0.03712718
0.03638317
0.03563953
0.03493909
0.03430212
0.03373535
0.03324075
0.03281875
0.03246944
0.03219179
0.03198271
0.03183652
0.03174797
0.03171303
0.03172733
0.03178003
0.03177698
0.03208194
0.03246368
0.03282394
0.03316783
0.03349802
0.03382112
0.03414094
0.0344554
0.03475733
0.03503731
0.03528555
0.03549399
0.03565693
0.03576886
0.03582817
0.03583467
0.03578944
0.03569567
0.03555659
0.03537349
0.0351552
0.03491168
0.03465233
0.03438582
0.03412013
0.03386151
0.03361408
0.03338176
0.03316736
0.0329709
0.03278382
0.03260783
0.03244343
0.03229415
0.03213053
0.03220601
0.03220268
0.03204325
0.03181819
0.03157089
0.03132832
0.03110758
0.03091747
0.0307611
0.03063986
0.0305538
0.03050238
0.03048461
0.03049925
0.03054489
0.03061994
0.03072296
0.03085303
0.03100926
0.03119272
0.03140902
0.03166176
0.03195449
0.03229019
0.03266846
0.0330829
0.0335167
0.03394506
0.0343386
0.03467018
0.03492128
0.03508095
0.03514792
0.03512705
0.03502509
0.03484821
0.0346015
0.03428993
0.03391915
0.03349667
0.03303338
0.032543
0.03203894
0.03153629
0.03104873
0.03056847
0.03010668
0.02967238
0.02926582
0.02888782
0.02854065
0.02822954
0.0279732
0.0278571
0.02760286
0.02736565
0.02715593
0.02697109
0.02681175
0.0266799
0.02657795
0.02650763
0.02646884
0.02645813
0.02646836
0.02648983
0.02651273
0.02652984
0.02653791
0.02653695
0.02652907
0.02651795
0.0265087
0.02650672
0.02651582
0.02653792
0.02657366
0.02662179
0.02667933
0.02674296
0.0268103
0.02688054
0.02695443
0.02703347
0.02711978
0.02721612
0.02732582
0.02745159
0.02759011
0.02773108
0.02786254
0.0279731
0.02805428
0.02810071
0.02810898
0.02807774
0.02800827
0.02790351
0.02776732
0.02760346
0.02741591
0.02720985
0.02698916
0.02675718
0.02651735
0.02627321
0.02602827
0.02578583
0.02554963
0.02532302
0.02510827
0.02490726
0.02472158
0.02455255
0.02440115
0.02426726
0.02415038
0.02405005
0.0239651
0.02389372
0.0238341
0.02378465
0.02374418
0.02371177
0.02368675
0.02366824
0.0236548
0.02364414
0.02363356
0.02361999
0.02360058
0.02357213
0.02353091
0.0234694
0.02337065
0.02319193
0.02291069
0.02311011
0.1086708
0.1009235
0.1011822
0.1044247
0.1085654
0.1126291
0.1162591
0.1193777
0.1220379
0.1224947
0.1269743
0.1340377
0.1417511
0.1489651
0.1551599
0.1602476
0.1643504
0.1675845
0.1893645
0.1896148
0.1896677
0.189244
0.1885895
0.1879273
0.1873103
0.1867744
0.1863164
0.1858182
0.1856142
0.1853103
0.1846331
0.1838085
0.1829563
0.1821434
0.1813943
0.1806877
0.1799629
0.1794334
0.1789608
0.1780256
0.1769745
0.1759012
0.1748103
0.1737402
0.1726988
0.17168
0.1707004
0.169734
0.1687677
0.1678882
0.167086
0.1663222
0.1655694
0.1648003
0.1640032
0.1632151
0.1725317
0.1713129
0.1701064
0.1689014
0.1676717
0.1664233
0.1651835
0.1639883
0.162893
0.1619161
0.1610936
0.1604788
0.160067
0.1598153
0.1596869
0.1596383
0.1596544
0.1597691
0.1601119
0.1604011
0.1600936
0.159546
0.1589529
0.1580056
0.1565527
0.1546411
0.1524114
0.1499569
0.1473642
0.1447253
0.142113
0.1395523
0.1370402
0.1345723
0.1321615
0.1299073
0.1280638
0.1270392
0.1276973
0.1311099
0.1383125
0.1501999
0.1672139
0.1890777
0.214585
0.2421932
0.2702764
0.2973601
0.3226402
0.3474072
0.371802
0.3948188
0.4147559
0.4298959
0.439285
0.4426296
0.4398865
0.4316993
0.4181464
0.398266
0.3700429
0.3350825
0.3007512
0.2722639
0.2516575
0.2356205
0.2202672
0.2042557
0.1878737
0.1720299
0.1575366
0.1448163
0.1340413
0.1254765
0.1190274
0.114487
0.1116856
0.1104851
0.1107517
0.1123198
0.1149622
0.1183785
0.122198
0.1260204
0.1294826
0.1323021
0.1343
0.1354082
0.1356611
0.1351866
0.1341844
0.1327258
0.1308685
0.1286544
0.126106
0.1232252
0.1200154
0.1165045
0.1127718
0.108849
0.1048915
0.1010679
0.09751989
0.09435261
0.09163078
0.08938398
0.08761336
0.08629862
0.08540406
0.08488181
0.08467432
0.08471338
0.08491729
0.08519112
0.08543167
0.08553871
0.08542949
0.08505124
0.08438732
0.0834562
0.0823035
0.08099066
0.07958367
0.07814382
0.07672699
0.07538743
0.07416186
0.07306269
0.07209103
0.07123903
0.07049245
0.0698318
0.06923639
0.06868538
0.06816168
0.0676495
0.06713418
0.06659911
0.06603282
0.06542549
0.06477433
0.06408488
0.0633611
0.06261708
0.06185202
0.06107113
0.06026873
0.0594823
0.05845314
0.05696034
0.05569437
0.05460636
0.05366776
0.05286258
0.05218497
0.05163784
0.05122606
0.0509494
0.05080035
0.05076213
0.05080845
0.05090406
0.05100762
0.05107517
0.05106461
0.05094209
0.05068687
0.05029533
0.04977741
0.04915236
0.04844945
0.04770128
0.04693796
0.04618457
0.04546135
0.04478408
0.04416458
0.0436079
0.04311337
0.04267758
0.04229401
0.04195205
0.04163776
0.04134595
0.04110154
0.0409065
0.040734
0.04056719
0.04039484
0.0402089
0.04000424
0.03977823
0.03952984
0.03925974
0.03897069
0.03866774
0.03835758
0.0380477
0.03774583
0.03745886
0.03719251
0.03695159
0.03673884
0.03655456
0.03639694
0.03626309
0.03614958
0.03605259
0.03596898
0.03589668
0.03583444
0.03578153
0.03573757
0.035702
0.03567417
0.03565279
0.03563681
0.03562735
0.03679792
0.03678124
0.03679401
0.03682551
0.03686241
0.03689999
0.03693939
0.03698284
0.03703233
0.03708976
0.03715742
0.03723784
0.03733346
0.03744595
0.03757546
0.03771998
0.03787511
0.0380344
0.03819012
0.03833405
0.03845815
0.03855464
0.03861655
0.03863855
0.03861749
0.0385528
0.03844677
0.0383047
0.03813545
0.03794832
0.0377433
0.03752071
0.03728196
0.03702925
0.03676496
0.03649134
0.03621029
0.03592335
0.03563156
0.03533556
0.03503572
0.03473221
0.03442473
0.03411377
0.03379974
0.03348302
0.03316491
0.03285177
0.03255297
0.03227848
0.03203761
0.03184077
0.03168737
0.03158565
0.03153654
0.03152324
0.03154428
0.03160239
0.03169712
0.03182691
0.03198948
0.03218151
0.0323975
0.03262828
0.03286078
0.0330797
0.0332708
0.03342448
0.03353778
0.03361386
0.03366031
0.03368749
0.03370716
0.03373039
0.0337653
0.03381585
0.03388193
0.03395887
0.03403818
0.03410982
0.03416413
0.03419308
0.03419047
0.03415172
0.03407352
0.03395383
0.03379225
0.03359092
0.03335583
0.03309994
0.03283128
0.03255488
0.03227621
0.03200015
0.03173032
0.03146876
0.03121607
0.0309718
0.03073485
0.03050381
0.03027721
0.03005362
0.0298319
0.02961113
0.02939076
0.02917071
0.02895126
0.02873304
0.02851662
0.02830274
0.0280928
0.02788855
0.02769165
0.02750363
0.02732564
0.02715871
0.027003
0.02685646
0.02671645
0.02658026
0.02644531
0.02630948
0.02617129
0.02602977
0.0258847
0.02573546
0.02558143
0.02542227
0.02525872
0.02509119
0.02492033
0.024746
0.02456796
0.02438759
0.0242028
0.02401716
0.02383959
0.02371012
0.02361489
0.05901731
0.06418536
0.0701568
0.07660484
0.08358246
0.09127616
0.1001088
0.1107388
0.1243799
0.1430308
0.216758
0.2343971
0.2507643
0.2643848
0.2775547
0.2903015
0.3024181
0.3140127
0.328404
0.4019017
0.4114555
0.4164138
0.4192619
0.4206277
0.420863
0.4202192
0.4187992
0.4164877
0.4135939
0.4094835
0.4053583
0.4013142
0.3972678
0.3931057
0.3887917
0.3843353
0.3797645
0.3753688
0.3695578
0.3638961
0.3583034
0.3528298
0.347488
0.342278
0.3372166
0.3323358
0.3276755
0.3233181
0.3191786
0.315242
0.3114894
0.3078463
0.304251
0.3006779
0.2971206
0.2935802
0.3028436
0.2993694
0.2958158
0.2922742
0.2887651
0.2852849
0.2818396
0.278441
0.2751297
0.2719169
0.2687663
0.2656955
0.2627037
0.2597781
0.2569496
0.2542694
0.2517628
0.2494208
0.2471946
0.2449773
0.2427182
0.2404278
0.2381089
0.2358198
0.2336087
0.2314978
0.2294721
0.2274909
0.2255267
0.2235939
0.2217086
0.2198884
0.21815
0.2164997
0.2149049
0.2133443
0.2117545
0.2100973
0.2084198
0.2066997
0.2049149
0.2030486
0.2011037
0.1991087
0.1971127
0.1951775
0.1933638
0.1917282
0.1903425
0.1892595
0.1884865
0.187986
0.1877007
0.1875802
0.1875938
0.1877255
0.1879448
0.1881319
0.1880423
0.1875901
0.1868128
0.1856234
0.1839554
0.181828
0.1793184
0.1764937
0.1734204
0.170178
0.1668491
0.1635047
0.160214
0.1570455
0.1540895
0.1515303
0.1497107
0.1491657
0.1507071
0.1558467
0.1659926
0.1821216
0.2043728
0.2319852
0.2632196
0.2953882
0.3258162
0.3536512
0.3801195
0.4068995
0.4341582
0.4606599
0.4844048
0.503433
0.5163666
0.5223877
0.5208319
0.5116458
0.4956568
0.4724673
0.4424645
0.4080851
0.3732272
0.3403319
0.310677
0.2841037
0.2597789
0.2370651
0.2158036
0.1962821
0.1788512
0.1637369
0.1510162
0.1406355
0.132882
0.1277047
0.1249297
0.1244103
0.1259862
0.1294096
0.1342938
0.1401181
0.1462724
0.1521529
0.1572697
0.1612773
0.1639877
0.165384
0.1656046
0.1649246
0.1635488
0.1616075
0.1592099
0.1564381
0.1533438
0.1499513
0.1462782
0.1423349
0.1381497
0.1337408
0.1291723
0.124537
0.1199265
0.1154334
0.111144
0.107131
0.103449
0.1001316
0.09719532
0.09464528
0.09247831
0.09068228
0.08923429
0.08809883
0.0872268
0.08655506
0.08601005
0.08551624
0.08500641
0.08443061
0.08376183
0.08299699
0.08215347
0.08126237
0.08036003
0.07948088
0.07865701
0.0779236
0.07730139
0.07679302
0.07639042
0.07607779
0.07583342
0.07563503
0.0754617
0.07529453
0.07511656
0.07491333
0.07467457
0.07439057
0.07405743
0.07366818
0.07322342
0.07271188
0.07214031
0.07151128
0.07083502
0.07009593
0.06926257
0.0683818
0.06745023
0.06647102
0.06544915
0.06439188
0.06331085
0.0622217
0.06114333
0.06009674
0.05910392
0.05818619
0.05736187
0.05664355
0.05603568
0.05553324
0.05512171
0.05477837
0.05447556
0.05418525
0.05388341
0.05355352
0.053188
0.05278759
0.0523594
0.05191464
0.05146614
0.05102592
0.05061195
0.0502438
0.04992942
0.04967216
0.04947105
0.04932227
0.0492208
0.049164
0.04915061
0.04916962
0.04920375
0.04923823
0.04925959
0.04925548
0.04921531
0.04913021
0.04899337
0.0488007
0.04855131
0.04824734
0.04789337
0.04749587
0.04706272
0.04660301
0.04612706
0.04564652
0.04517448
0.04471829
0.04428188
0.04386918
0.043484
0.04313149
0.04281915
0.04255131
0.04232781
0.04214735
0.0420074
0.04190465
0.04183478
0.04179332
0.0417741
0.04176893
0.04180134
0.0418447
0.04189323
0.04194256
0.04199445
0.04205355
0.042124
0.04220852
0.04230908
0.0424277
0.04256698
0.04272997
0.04291964
0.04313789
0.04338457
0.04365682
0.04394905
0.04425335
0.0445603
0.04485966
0.04514059
0.04539197
0.04560303
0.04576409
0.04586739
0.04590788
0.0458841
0.04579901
0.04566076
0.04547773
0.04525421
0.04499441
0.04470155
0.04437829
0.04402727
0.04365168
0.04325542
0.04284318
0.04242007
0.04199149
0.0415628
0.0411393
0.04072535
0.04032464
0.03993977
0.03957335
0.03922802
0.0389076
0.03861507
0.03835365
0.03812533
0.03793371
0.03778812
0.03770039
0.03767124
0.03769673
0.0377739
0.0378987
0.03806692
0.038275
0.03851947
0.03879501
0.03909221
0.03939651
0.03968925
0.03995116
0.04016725
0.0403311
0.04044602
0.04052266
0.04057528
0.04061959
0.0406713
0.04074317
0.04084202
0.0409684
0.04111707
0.04127629
0.04143108
0.0415671
0.04167246
0.04173802
0.04175681
0.04172334
0.0416332
0.04148335
0.04127278
0.04100376
0.04068321
0.04032404
0.03994403
0.03955262
0.03915713
0.03876264
0.0383724
0.03798838
0.03761174
0.037243
0.0368823
0.03652954
0.03618455
0.03584721
0.03551751
0.03519564
0.03488206
0.03457748
0.03428285
0.03399915
0.03372734
0.03346821
0.03322227
0.03298978
0.03277053
0.0325638
0.03236807
0.03218082
0.0319992
0.03182153
0.0316456
0.03146885
0.03128855
0.03110204
0.03090686
0.03070087
0.03048225
0.03025043
0.03000611
0.02975072
0.0294857
0.02921337
0.02893557
0.0286552
0.02837358
0.02809362
0.02781907
0.02755433
0.02730199
0.0270689
0.02685832
0.04557611
0.05195714
0.05771643
0.08974608
0.1218039
0.1617513
0.188172
0.214518
0.2392106
0.2623935
0.2828952
0.3007206
0.3180309
0.3355458
0.3531478
0.3705153
0.3873686
0.4039658
0.4203057
0.4362717
0.4517588
0.4664516
0.4799836
0.4921072
0.5031568
0.5132429
0.5222419
0.5299299
0.535862
0.5400556
0.5428919
0.5605973
0.5583768
0.554998
0.5507745
0.5458552
0.5404042
0.5345833
0.5285279
0.5223733
0.5162252
0.5100475
0.5038304
0.4975302
0.4911223
0.4845929
0.4779484
0.4712173
0.4644183
0.4573825
0.4502336
0.4430996
0.4359553
0.4287598
0.4214836
0.4141355
0.4067707
0.3994899
0.3924072
0.3856461
0.3793323
0.3735239
0.3681994
0.363277
0.3586612
0.3542571
0.3500154
0.3458322
0.3414083
0.3370464
0.3327338
0.3284658
0.3242561
0.3201219
0.3160744
0.312136
0.3083477
0.3047398
0.3013022
0.2979874
0.2947237
0.2914862
0.2883311
0.2853584
0.2826496
0.2802131
0.2779732
0.2757969
0.273558
0.2711909
0.2687196
0.2662333
0.2638289
0.2615639
0.2594252
0.25735
0.2552812
0.253199
0.2511244
0.2491089
0.2472006
0.245403
0.2436799
0.2419722
0.2402336
0.2384359
0.236597
0.2346945
0.232693
0.2305722
0.2283383
0.2260308
0.2237169
0.2214813
0.219416
0.2176204
0.2161963
0.2152164
0.2146864
0.2145383
0.214672
0.2150038
0.2154736
0.216018
0.2165407
0.2168923
0.2168473
0.2162699
0.2152176
0.2136623
0.2116132
0.2091236
0.2062558
0.203049
0.1995316
0.1957523
0.1917881
0.1877408
0.1837399
0.1799334
0.176509
0.173768
0.1721924
0.1725156
0.1758295
0.1837257
0.1981768
0.2201676
0.2497415
0.2858364
0.3256152
0.3639658
0.3963214
0.4223528
0.4456617
0.469525
0.4946035
0.5199146
0.5437902
0.5646689
0.5810304
0.5902942
0.5902006
0.580758
0.5638356
0.5387732
0.5065999
0.4705698
0.433893
0.3982021
0.3642892
0.3328763
0.3040724
0.2774667
0.2528475
0.2303299
0.2101649
0.192584
0.1777353
0.1656554
0.1563868
0.1503916
0.1476137
0.1479377
0.1511217
0.1567092
0.1640214
0.1722204
0.180421
0.1878225
0.1938656
0.1982079
0.2007158
0.2014872
0.2008233
0.199206
0.1968488
0.1939386
0.1906198
0.1869905
0.1831079
0.1789979
0.17467
0.1701206
0.1653468
0.1603387
0.1551376
0.1498076
0.1444213
0.1390557
0.1337872
0.12869
0.1238281
0.1192515
0.11499
0.1110569
0.1074575
0.1041921
0.1012575
0.09864578
0.09634439
0.09433467
0.09259007
0.09107549
0.0897497
0.08857034
0.08750012
0.08651227
0.08559361
0.0847441
0.08397305
0.08329338
0.08271743
0.08225537
0.08192149
0.08173349
0.08168114
0.0817408
0.08188373
0.08208003
0.08230207
0.0825275
0.08273976
0.0829233
0.08306477
0.08315461
0.08318685
0.08315506
0.08305369
0.08287468
0.08261158
0.08225496
0.08180968
0.08126613
0.08061546
0.07985104
0.07896804
0.0779677
0.07685446
0.07563613
0.074325
0.07293753
0.07149378
0.07001662
0.06853115
0.06706386
0.06564135
0.06428865
0.06302698
0.06187152
0.06083003
0.0599026
0.05908251
0.05835786
0.05771408
0.05713667
0.05661345
0.05613587
0.05569951
0.05530352
0.05494941
0.0546404
0.05438018
0.05418168
0.05406046
0.05401731
0.05404978
0.05415235
0.05431724
0.05453543
0.05479687
0.05508831
0.05539303
0.0556936
0.05597376
0.05621917
0.05641705
0.05655575
0.05662554
0.05661981
0.05653584
0.05637445
0.05613896
0.05583444
0.05546742
0.05504597
0.05458011
0.05408232
0.05356544
0.05303716
0.05250737
0.05198529
0.05147932
0.0509966
0.05054264
0.05012838
0.04976331
0.04944828
0.04918234
0.04896254
0.04878498
0.04864425
0.04853537
0.04845256
0.04839361
0.04835471
0.04833369
0.04832993
0.04834394
0.04837689
0.04843014
0.04850512
0.04860377
0.04872893
0.04888469
0.04907592
0.04930722
0.04958139
0.0498982
0.05025384
0.05064134
0.05105142
0.05147317
0.05189449
0.05230223
0.05268252
0.05302172
0.05330749
0.0535299
0.0536825
0.05376356
0.05377712
0.05373348
0.05363697
0.05349349
0.05330679
0.05307755
0.05280544
0.05249138
0.05213827
0.05175066
0.05133432
0.05089577
0.05044212
0.04998076
0.04951892
0.04906294
0.04861848
0.04819045
0.04778363
0.04740256
0.04705174
0.04673502
0.04645576
0.04621649
0.04601952
0.04586587
0.04575614
0.04569683
0.04569859
0.04575779
0.04586959
0.04603089
0.0462395
0.0464917
0.04677896
0.0470855
0.04738847
0.04766162
0.04788141
0.04803396
0.04811992
0.04815385
0.04815727
0.04815183
0.048158
0.04819495
0.04827651
0.04840627
0.04857881
0.04877999
0.04898634
0.04917571
0.0493319
0.0494434
0.04950266
0.04950421
0.04944326
0.04931582
0.04911936
0.04885401
0.04852444
0.04814194
0.04772391
0.04729249
0.0468592
0.04642903
0.04600242
0.04557828
0.04515584
0.04473493
0.04431573
0.04389844
0.04348329
0.04307066
0.04266123
0.04225614
0.04185697
0.04146571
0.04108461
0.04071614
0.04036288
0.04002725
0.03971107
0.03941506
0.03913881
0.03888087
0.03863892
0.03840986
0.03818999
0.03797519
0.03776133
0.03754445
0.0373211
0.03708836
0.03684389
0.03658591
0.03631333
0.0360257
0.03572325
0.03540687
0.03507797
0.0347386
0.03439115
0.03403867
0.03368435
0.0333319
0.03298359
0.03264292
0.03231412
0.03199967
0.03170243
0.03143581
0.02282524
0.02552719
0.02816198
0.03780554
0.05051851
0.07210832
0.08722419
0.1032503
0.1204402
0.137871
0.1559052
0.1756693
0.1968124
0.2184622
0.2409919
0.2662497
0.3051502
0.3234924
0.3422398
0.3613285
0.3810005
0.4004724
0.4190781
0.4368039
0.4535287
0.4696535
0.485246
0.5003055
0.5147681
0.5284909
0.5413319
0.5531371
0.5635087
0.5723302
0.5788617
0.5832883
0.5858577
0.5862129
0.5844366
0.5808255
0.5761659
0.5702477
0.561448
0.5530668
0.5448122
0.5365699
0.5284063
0.5204187
0.5126991
0.5053592
0.4985043
0.4922209
0.4865057
0.481278
0.4763714
0.4715775
0.466692
0.4615839
0.4562196
0.4506639
0.4450499
0.4393305
0.4335023
0.4277094
0.4219419
0.4161281
0.4102047
0.4041619
0.3980551
0.3919988
0.386158
0.3807324
0.3758771
0.3716335
0.3679216
0.3646156
0.3615802
0.3587181
0.3559035
0.3530215
0.3500103
0.3468384
0.3435203
0.3401221
0.3367127
0.333334
0.3300297
0.3268691
0.3239208
0.3211862
0.3185678
0.3159296
0.3132297
0.3105746
0.3081434
0.3060745
0.304372
0.3028997
0.3014436
0.2997845
0.2978385
0.2956689
0.2934212
0.2912647
0.2892949
0.2874732
0.2856811
0.2838167
0.2818441
0.279809
0.2778164
0.2759507
0.2742105
0.2725269
0.2708086
0.2689897
0.2670547
0.2650276
0.2629231
0.2607236
0.2584151
0.2559932
0.2534848
0.2510067
0.2487164
0.2467598
0.2453001
0.2444857
0.2443915
0.2449615
0.2460267
0.2474065
0.2489752
0.2506339
0.2522416
0.2535623
0.2542426
0.2539531
0.2525931
0.2504553
0.2476386
0.2442477
0.2404409
0.236353
0.232027
0.2274581
0.2226575
0.2176863
0.2126668
0.2077825
0.2032661
0.1994244
0.1967139
0.1958115
0.1977194
0.2038975
0.2161273
0.2368869
0.2676043
0.308728
0.3587213
0.4116012
0.4575669
0.4897335
0.5089188
0.5226265
0.5368952
0.5533477
0.5720115
0.5928349
0.6152601
0.638694
0.6584103
0.6666216
0.661999
0.6447492
0.6097281
0.5693004
0.5262741
0.4841355
0.4443617
0.4076499
0.3742401
0.343807
0.315937
0.2901038
0.2662823
0.2447682
0.2258709
0.2098504
0.1969241
0.1872807
0.1814352
0.1796214
0.1817289
0.1873453
0.1956739
0.2056235
0.2160513
0.2258831
0.2342698
0.2406557
0.244732
0.2464129
0.2458952
0.2437067
0.2405615
0.2366739
0.2323254
0.2277051
0.2229051
0.2179518
0.2128366
0.2075345
0.2020202
0.1962878
0.1903401
0.1842097
0.1779585
0.1716586
0.1653778
0.1591672
0.1531039
0.1472582
0.1416777
0.136388
0.1313972
0.1267061
0.1223123
0.1182127
0.114407
0.1108976
0.107686
0.1047724
0.1021538
0.09982206
0.09776262
0.09595634
0.09438315
0.09302617
0.09187439
0.09092237
0.09016747
0.08960727
0.08923798
0.08905289
0.08904089
0.08920466
0.08952668
0.08996659
0.09048565
0.09105039
0.09163416
0.09221553
0.09277602
0.09330055
0.09377617
0.09419075
0.09453108
0.09478279
0.0949314
0.09496375
0.09486745
0.0946321
0.09424543
0.0936968
0.09297889
0.0920881
0.09102574
0.08979734
0.08841329
0.08688905
0.08524413
0.08350084
0.08168348
0.07981788
0.07793116
0.07605127
0.07420623
0.07242299
0.07072592
0.06913498
0.06766359
0.06631913
0.06510439
0.06401828
0.06305697
0.06221517
0.06148742
0.06086906
0.06035674
0.05994843
0.05964311
0.05943966
0.05933535
0.05934133
0.05946661
0.05970222
0.06003607
0.06045352
0.06093846
0.06147367
0.0620403
0.06261771
0.06318493
0.06372272
0.06421405
0.06464332
0.06499631
0.06526164
0.06543255
0.06550729
0.06548781
0.06537792
0.06518236
0.06490686
0.06455895
0.06414891
0.06369088
0.06319178
0.06266188
0.06211278
0.06155569
0.06100118
0.06045901
0.05993789
0.05944512
0.05899297
0.0585848
0.05822005
0.05789639
0.05760993
0.05735606
0.05713016
0.0569287
0.05674969
0.05659243
0.05645723
0.05634522
0.0562579
0.05619674
0.05616293
0.05615788
0.05618425
0.05624687
0.05635277
0.05651
0.05672552
0.05700285
0.0573407
0.05773314
0.0581709
0.05864274
0.059136
0.05963646
0.06012803
0.06059358
0.06101644
0.06138195
0.06167879
0.06190047
0.06204685
0.06212544
0.06214879
0.06212033
0.06204872
0.06193594
0.06177746
0.06156861
0.06130946
0.06100419
0.0606588
0.06027999
0.05987487
0.05945079
0.05901502
0.05857458
0.05813612
0.05770572
0.05728884
0.05689069
0.05651649
0.05617143
0.05586018
0.05558634
0.05535199
0.05515784
0.05500349
0.05488879
0.05481308
0.05477795
0.05479716
0.05487088
0.05499988
0.05518546
0.05542367
0.05569978
0.05598683
0.05624976
0.05645337
0.05657133
0.05659413
0.05653453
0.05642453
0.05629999
0.05618872
0.05611395
0.05609819
0.05615698
0.05629007
0.0564818
0.05670197
0.05691343
0.05708952
0.05721473
0.05728122
0.05728576
0.05722595
0.05709878
0.05690147
0.05663253
0.0562933
0.05589113
0.05544276
0.05497376
0.05451046
0.05406453
0.05363443
0.0532119
0.05278954
0.05236379
0.05193379
0.05149959
0.05106117
0.05061835
0.05017115
0.04972033
0.04926768
0.04881596
0.04836863
0.0479295
0.04750283
0.04709344
0.04670616
0.04634455
0.04600962
0.04569965
0.04541091
0.04513865
0.04487761
0.04462227
0.04436701
0.04410668
0.04383725
0.04355605
0.04326141
0.04295227
0.0426281
0.04228895
0.04193541
0.04156836
0.041189
0.04079879
0.04039969
0.03999421
0.03958539
0.03917701
0.03877285
0.03837705
0.03798987
0.03761727
0.03726079
0.03692637
0.03662839
0.009943068
0.01154563
0.01279223
0.01903666
0.02623122
0.03572133
0.04350023
0.05229863
0.06182797
0.07195835
0.08305899
0.09613335
0.1104495
0.1264227
0.1455225
0.1749672
0.1906528
0.2071585
0.2239445
0.2409699
0.2581635
0.275403
0.2925309
0.3093951
0.325846
0.3418422
0.3573982
0.3741802
0.3912157
0.4087489
0.4267778
0.4447732
0.462028
0.4781541
0.493452
0.5079774
0.5217214
0.5345911
0.546415
0.5569512
0.5659887
0.5732965
0.5778735
0.5800558
0.579474
0.5763625
0.5709686
0.5635472
0.5543903
0.5439287
0.5326195
0.5209419
0.509158
0.497719
0.4868246
0.4765489
0.4669594
0.4581152
0.4500718
0.4429044
0.4367175
0.4316183
0.427632
0.42463
0.4223266
0.420298
0.4181429
0.4156617
0.4127626
0.4094416
0.4056125
0.4016982
0.3979479
0.3944833
0.3912554
0.3881117
0.3848952
0.3815281
0.3780264
0.3744834
0.3710828
0.3681024
0.3658026
0.3642683
0.3633856
0.3629557
0.3627819
0.3626877
0.3624864
0.3619732
0.3609876
0.3594915
0.3575936
0.3554867
0.3533285
0.3512009
0.3491859
0.347412
0.3459617
0.3447519
0.3435243
0.342034
0.3402939
0.3386016
0.3373221
0.3366652
0.336527
0.3365249
0.3362346
0.3353384
0.3338143
0.3318983
0.3299201
0.3281828
0.3267858
0.3255513
0.324204
0.3225702
0.3206445
0.3185812
0.3166004
0.3148128
0.3131423
0.3114325
0.3095438
0.3074097
0.3050657
0.3026158
0.3001684
0.2977084
0.2951789
0.2925578
0.2899196
0.2873978
0.2852053
0.2837031
0.2833006
0.2841783
0.2863185
0.2894198
0.2930428
0.2968699
0.3007722
0.3046335
0.3081982
0.3109544
0.3121353
0.3110546
0.3075962
0.3025315
0.2964028
0.2895612
0.2823927
0.2751773
0.2680263
0.260938
0.253894
0.2469271
0.2401584
0.233806
0.2281759
0.2237043
0.2210393
0.2211159
0.2253102
0.2356163
0.254406
0.2845555
0.3285779
0.3871344
0.4579668
0.5295177
0.5838599
0.6135971
0.6216043
0.6199757
0.6188927
0.622632
0.6329237
0.6527493
0.6839994
0.7334165
0.7915926
0.8229565
0.8103672
0.7762485
0.7461351
0.6744748
0.5990802
0.5371958
0.48643
0.4440571
0.4081273
0.3768404
0.3491593
0.323744
0.3000443
0.2785618
0.2597188
0.2439104
0.2315349
0.2230259
0.2189808
0.2196906
0.2249593
0.2341513
0.2461163
0.2593348
0.272292
0.2837797
0.2930594
0.2996642
0.3032607
0.3037482
0.3014621
0.2973558
0.2921357
0.2862187
0.2800348
0.2738252
0.2676244
0.2613552
0.2549228
0.2482418
0.2412551
0.2339655
0.2264326
0.2187189
0.2109135
0.2031166
0.195426
0.1879119
0.1806392
0.1736627
0.167012
0.1606867
0.1546654
0.1489439
0.1435153
0.1383743
0.1335197
0.1289567
0.1246967
0.1207565
0.1171534
0.1139014
0.1110077
0.1084714
0.1062843
0.1044339
0.1029062
0.1016897
0.1007743
0.1001493
0.0998003
0.09970804
0.09984668
0.1001819
0.1006907
0.1013584
0.1021419
0.1030033
0.1039134
0.104848
0.1057847
0.1067012
0.107574
0.1083773
0.1090824
0.1096595
0.1100823
0.1103361
0.1104077
0.1102734
0.1099191
0.1093362
0.1085214
0.1074766
0.1062084
0.1047253
0.1030435
0.1011895
0.09919182
0.09707903
0.09487855
0.09261695
0.09032078
0.08801818
0.08573824
0.08350966
0.08135939
0.07931129
0.07738522
0.07559725
0.07395957
0.07248046
0.07116467
0.07001421
0.06902913
0.06820812
0.06754916
0.06704985
0.0667076
0.06651898
0.06647847
0.06657606
0.06682403
0.06721637
0.06773386
0.06835531
0.06905833
0.06981954
0.07061411
0.07141621
0.072201
0.07294642
0.07363273
0.07424121
0.0747554
0.07516396
0.07546259
0.07565295
0.07573932
0.07572593
0.07561652
0.07541555
0.07513055
0.0747742
0.07435655
0.07388286
0.07336679
0.07282133
0.07225859
0.07168998
0.07112609
0.0705765
0.07004976
0.06955445
0.0690933
0.06866407
0.0682629
0.06788474
0.06752455
0.06717867
0.06684616
0.06652891
0.06623064
0.06595557
0.06570748
0.065489
0.06530128
0.06514427
0.06501858
0.06492801
0.06488127
0.06489122
0.06497177
0.06513371
0.06538104
0.06570963
0.06610915
0.06656664
0.06706847
0.0676001
0.06814462
0.06868179
0.06919007
0.06964966
0.07004414
0.07036167
0.07059699
0.07075356
0.07084463
0.07088192
0.070874
0.07083373
0.07076024
0.07064184
0.07046994
0.07024638
0.06997866
0.06967458
0.06934125
0.06898547
0.06861385
0.06823281
0.06784849
0.06746641
0.06709121
0.06672697
0.06637793
0.06604904
0.06574599
0.06547421
0.06523728
0.06503583
0.06486766
0.06472924
0.06461783
0.06453231
0.06447406
0.06445094
0.06448144
0.06457479
0.06473837
0.0649668
0.06523364
0.06549389
0.06569643
0.06579733
0.06577132
0.06561773
0.06536415
0.06506471
0.06477263
0.06451876
0.0643279
0.06422882
0.06424035
0.06435603
0.06454716
0.0647599
0.0649379
0.06505347
0.06509806
0.06507266
0.06498075
0.06482376
0.06460087
0.06431071
0.0639526
0.06352844
0.06304702
0.06252963
0.06201258
0.06152869
0.0610875
0.06067599
0.06027328
0.05986575
0.05944954
0.05902504
0.0585927
0.05815178
0.05770068
0.05723801
0.0567637
0.0562797
0.05578999
0.05529973
0.05481445
0.05434048
0.05388587
0.05345942
0.05306745
0.05271071
0.05238425
0.05207983
0.05178859
0.05150242
0.05121397
0.05091648
0.05060446
0.05027485
0.0499272
0.04956248
0.04918196
0.04878708
0.04837966
0.04796152
0.04753401
0.04709801
0.04665445
0.04620463
0.04575077
0.0452958
0.04484387
0.04439902
0.04396606
0.04354766
0.04314533
0.04276161
0.0424062
0.04209282
0.002455714
0.009541461
0.01419153
0.0195825
0.0255765
0.03242249
0.04021789
0.04876046
0.05831686
0.06982056
0.08716898
0.0975872
0.1088776
0.1207456
0.1332418
0.1463018
0.1598524
0.1737718
0.1878837
0.2020482
0.2162495
0.2322795
0.2485422
0.2648557
0.2810976
0.2972097
0.3130798
0.3287187
0.3440405
0.3589357
0.3736011
0.388192
0.4031082
0.4180253
0.4330057
0.4479965
0.462603
0.4765277
0.4898902
0.5026982
0.5148937
0.526351
0.5368625
0.5460059
0.5534094
0.5584197
0.5605125
0.5594937
0.5556642
0.5490241
0.5397994
0.5284384
0.51541
0.5011835
0.4862776
0.4711967
0.4564351
0.4424085
0.429453
0.4178136
0.4075919
0.3987722
0.3912825
0.3850518
0.3800728
0.3764364
0.3742898
0.3737201
0.3744873
0.3760867
0.3778246
0.3789653
0.3789845
0.3779664
0.3762037
0.3741008
0.3721574
0.3707033
0.3698298
0.3694059
0.3691753
0.3688961
0.3684526
0.3678678
0.3672816
0.3669983
0.3674768
0.369179
0.3722076
0.3762815
0.3810337
0.3860942
0.3910565
0.3954037
0.3985468
0.4000845
0.4001195
0.3992006
0.3979556