/*--------------------------------*- C++ -*----------------------------------*\
| =========                 |                                                 |
| \\      /  F ield         | foam-extend: Open Source CFD                    |
|  \\    /   O peration     | Version:     3.1                                |
|   \\  /    A nd           | Web:         http://www.extend-project.de       |
|    \\/     M anipulation  |                                                 |
\*---------------------------------------------------------------------------*/
FoamFile
{
    version     2.0;
    format      ascii;
    class       volScalarField;
    location    "18";
    object      p;
}
// * * * * * * * * * * * * * * * * * * * * * * * * * * * * * * * * * * * * * //

dimensions      [1 -1 -2 0 0 0 0];

internalField   nonuniform List<scalar> 
119952
(
5423.458
4176.029
4005.72
4198.848
4385.723
4278.66
4253.356
4249.095
4260.023
4277.19
4302.463
4334.737
4373.012
4415.3
4456.505
4495.351
4530.175
4558.563
4573.687
4534.62
4794.663
4629.663
4585.866
4926.592
4798.325
4807.191
4772.338
4815.922
5220.271
6816.895
2581.478
2554.682
2566.917
2577.596
2589.919
2603.8
2620.566
2638.152
2659.466
2653.938
2656.349
2695.529
2714.917
2739.854
2766.442
2796.738
2829.351
2863.259
2901.062
2957.735
2971.835
2998.202
3043.352
3089.535
3135.969
3183.052
3230.977
3276.901
3327.152
3360.643
3401.565
3445.583
3486.578
3525.145
3563.101
3601.689
3647.885
3739.3
3913.51
3815.866
3807.811
3906.799
3954.149
3969.015
3960.964
3969.411
3988.352
4013.177
4044.27
4080.631
4120.659
4162.019
4202.364
4240.28
4274.213
4302.738
4325.993
4346.3
4372.442
4387.563
4388.749
4425.133
4480.738
4454.07
4399.835
4324.546
4153.38
3736.247
3544.358
3454.486
3351.774
3250.855
3152.516
3065.446
3001.444
2973.294
2996.466
3094.695
3273.183
3480.425
3508.046
3205.605
3116.887
3351.49
3623.293
3821.889
3962.578
4073.565
4169.228
4257.229
4337.69
4411.871
4475.441
4527.641
4567.94
4596.703
4614.696
4623.093
4623.44
4617.655
4607.916
4596.549
4585.478
4576.989
4573.477
4576.74
4587.904
4608.178
4637.88
4676.569
4722.649
4774.498
4830.136
4887.303
4943.384
4995.321
5043.341
5100.563
5147.82
5171.548
5198.058
5224.532
5251.22
5278.282
5304.599
5329.623
5353.327
5375.862
5397.384
5418.141
5438.521
5458.898
5479.46
5500.314
5521.447
5542.788
5564.22
5585.662
5607.126
5628.469
5649.719
5670.804
5691.751
5712.68
5733.464
5753.943
5774.164
5794.194
5814.002
5833.537
5852.742
5871.558
5889.921
5907.786
5925.194
5942.11
5958.292
5973.841
5988.531
6002.603
6015.957
6028.609
6040.642
6051.936
6062.427
6071.636
6079.176
6130.656
6146.603
6150.066
6162.769
6172.799
6183.473
6194.332
6205.034
6215.771
6226.361
6236.731
6246.882
6256.773
6266.473
6276.106
6285.766
6295.466
6305.175
6314.804
6324.221
6333.423
6342.184
6350.394
6358.049
6365.124
6371.575
6377.352
6382.387
6386.616
6389.94
6392.224
6393.254
6392.722
6389.915
6382.941
6372.862
6386.785
6395.901
6402.211
6406.515
6409.653
6411.793
6413.163
6413.973
6414.373
6414.483
6414.409
6414.256
6414.158
6414.178
6414.391
6414.841
6415.552
6416.572
6417.929
6419.646
6421.669
6423.975
6426.548
6429.349
6432.361
6435.532
6438.831
6442.202
6445.618
6449.039
6452.741
6456.151
6459.259
6461.564
6455.577
6452.322
6439.858
6441.404
6445.035
6446.569
6447.977
6449.88
6451.985
6454.027
6456.054
6458.089
6460.128
6462.154
6464.144
6466.062
6467.856
6469.463
6470.81
6471.823
6472.471
6472.766
6472.745
6472.438
6471.916
6471.246
6470.466
6469.663
6468.832
6467.971
6467.093
6466.202
6465.341
6464.483
6463.601
6462.66
6461.626
6460.475
6459.198
6457.806
6456.308
6454.76
6453.217
6451.81
6450.51
6448.515
6444.576
6440.182
6436.293
6432.663
6429.147
6425.882
6422.521
6418.509
6406.384
6408.093
6408.256
6405.919
6403.419
6401.256
6399.159
6397.13
6395.185
6393.314
6391.503
6389.73
6387.987
6386.29
6384.682
6383.224
6381.987
6381.033
6380.403
6380.109
6380.139
6380.448
6380.972
6381.636
6382.345
6383.008
6383.562
6383.97
6384.221
6384.315
6384.274
6384.107
6383.829
6383.462
6382.978
6382.516
6381.983
6381.428
6380.849
6380.238
6379.575
6378.833
6378.006
6377.059
6375.969
6374.718
6373.29
6371.684
6369.908
6367.953
6365.826
6363.534
6361.085
6358.487
6355.751
6352.911
6349.927
6346.812
6343.561
6340.167
6336.623
6332.917
6329.023
6324.939
6320.672
6316.237
6311.627
6306.836
6301.854
6296.669
6291.264
6285.611
6279.672
6273.394
6266.708
6259.52
6251.702
6243.122
6233.462
6222.281
6208.875
6192.692
6176.955
6182.634
6243.594
3810.908
3681.31
3548.406
3418.834
3302.609
3196.987
3101.78
3017.896
2944.265
2830.005
2775.081
2718.799
2663.942
2615.053
2572.291
2534.86
2502.701
2471.585
2416.028
2415.812
2382.759
2356.831
2340.186
2325.793
2313.746
2303.879
2294.987
2289.351
2288.451
2271.067
2269.103
2269.446
2268.425
2269.083
2271.539
2275.208
2282.051
2298.37
2287.085
2287.784
2299.17
2310.086
2322.025
2335.141
2349.858
2365.806
2381.367
2398.301
2422.988
2447.586
2471.513
2497.496
2526.238
2557.936
2592.768
2632.496
2613.792
2659.525
2703.847
2748.893
2795.549
2843.451
2891.694
2939.571
2986.718
3031.882
3075.698
3117.733
3156.891
3193.439
3229.165
3266.034
3306.436
3352.813
3404.749
3452.766
3479.674
3494.704
3523.293
3556.739
3584.974
3607.709
3632.506
3663.899
3702.085
3745.512
3792.203
3840.069
3887.289
3932.355
3974.163
4011.787
4044.68
4073.442
4097.568
4117.064
4131.335
4138.67
4137.281
4118.756
4064.191
3962.524
3811.692
3614.776
3398.765
3209.79
3070.972
2956.398
2848.476
2743.052
2645.743
2572.42
2534.286
2549.821
2608.654
2713.611
2805.467
2910.689
2954.802
3016.813
3222.94
3452.605
3618.884
3756.399
3865.16
3955.183
4034.347
4106.088
4164.128
4214.717
4255.297
4284.922
4303.828
4312.563
4312.158
4304.491
4291.669
4275.96
4259.842
4245.891
4236.423
4233.575
4238.925
4253.923
4279.331
4314.875
4359.709
4412.031
4469.429
4529.214
4588.83
4646.248
4700.587
4750.939
4796.773
4838.609
4873.602
4903.902
4931.868
4958.989
4985.797
5011.619
5036.028
5059.102
5081.133
5102.363
5123.111
5143.717
5164.358
5185.129
5206.055
5227.085
5248.121
5269.078
5289.916
5310.622
5331.194
5351.658
5372.022
5392.369
5412.53
5433.065
5452.453
5472.09
5491.655
5511.049
5530.229
5549.14
5567.711
5585.875
5603.565
5620.765
5637.47
5653.478
5668.761
5683.349
5697.235
5710.448
5722.96
5734.88
5746.353
5757.502
5768.503
5779.903
5852.763
5866.023
5875.957
5886.094
5897.229
5908.183
5919.314
5930.542
5941.75
5952.845
5963.774
5974.464
5984.886
5995.065
6005.055
6014.898
6024.609
6034.175
6043.53
6052.609
6061.347
6069.63
6077.394
6084.607
6091.24
6097.253
6102.613
6107.256
6111.093
6114.063
6116.072
6116.992
6116.65
6115.038
6112.838
6112.102
6115.87
6122.169
6126.768
6130.224
6132.894
6134.78
6136.036
6136.817
6137.24
6137.425
6137.478
6137.5
6137.582
6137.807
6138.237
6138.917
6139.888
6141.159
6142.739
6144.639
6146.829
6149.268
6151.934
6154.794
6157.814
6160.95
6164.169
6167.44
6170.74
6174.044
6177.328
6180.528
6183.754
6189.3
6128.933
6134.639
6138.096
6138.851
6138.846
6139.48
6140.965
6142.905
6144.936
6146.927
6148.894
6150.877
6152.879
6154.869
6156.804
6158.63
6160.291
6161.733
6162.913
6163.792
6164.341
6164.573
6164.524
6164.227
6163.742
6163.133
6162.447
6161.75
6161.065
6160.371
6159.748
6159.141
6158.559
6157.978
6157.354
6156.646
6155.818
6154.852
6153.731
6152.444
6151.008
6149.421
6147.654
6145.682
6143.404
6140.647
6137.449
6133.676
6129.796
6125.982
6122.337
6118.922
6115.619
6112.296
6107.962
6103.247
6100.236
6098.189
6096.256
6094.187
6092.049
6089.912
6087.797
6085.701
6083.621
6081.573
6079.592
6077.729
6076.043
6074.618
6073.527
6072.802
6072.44
6072.416
6072.713
6073.211
6073.843
6074.587
6075.269
6075.829
6076.256
6076.543
6076.692
6076.711
6076.613
6076.415
6076.142
6075.829
6075.435
6075.231
6074.964
6074.697
6074.425
6074.1
6073.68
6073.124
6072.403
6071.502
6070.409
6069.118
6067.628
6065.937
6064.065
6062.02
6059.807
6057.438
6054.922
6052.271
6049.52
6046.569
6043.516
6040.334
6037.004
6033.515
6029.861
6026.063
6021.974
6017.756
6013.377
6008.833
6004.134
5999.282
5994.261
5989.071
5983.704
5978.119
5972.297
5966.185
5959.724
5952.833
5945.446
5937.421
5928.855
5919.827
5910.957
5903.376
5899.04
5898.015
5900.372
2934.933
3032.239
3153.149
3291.472
3446.683
3618.041
3804.015
4003.084
4212.619
4426.531
4631.734
4854.88
5074.365
5285.706
5485.476
5670.179
5833.604
5969.262
6070.978
6116.387
6151.624
6150.967
6115.151
6046.456
5947.762
5823.011
5676.541
5513.215
5341.139
5152.392
4963.195
4768.706
4574.148
4381.476
4192.718
4009.751
3835.15
3671.059
3504.993
3357.061
3218.717
3092.121
2976.337
2871.123
2776.095
2690.622
2614.576
2543.588
2477.302
2420.464
2368.204
2320.614
2278.329
2241.386
2210.271
2192.373
2081.567
2061.08
2048.611
2035.856
2022.008
2008.825
1997.401
1987.784
1979.883
1973.087
1967.772
1965.58
1963.747
1961.419
1959.682
1959.616
1961.635
1965.752
1971.358
1977.526
1984.632
1991.613
1998.097
2006.371
2016.644
2028.974
2043.092
2058.846
2076.562
2096.549
2117.62
2139.816
2164.016
2190.665
2219.54
2250.968
2284.596
2322.179
2365.679
2410.135
2453.342
2498.594
2547.179
2597.907
2649.104
2699.416
2747.925
2794.375
2838.013
2878.442
2915.803
2950.5
2983.391
3015.81
3048.717
3082.108
3116.024
3150.087
3176.605
3193.689
3214.217
3242.794
3275.274
3309.081
3345.738
3388.637
3438.258
3492.692
3549.496
3606.468
3661.836
3714.427
3763.323
3807.623
3846.904
3881.206
3909.258
3929.661
3940.801
3938.304
3917.467
3873.332
3791.872
3660.85
3485.397
3286.947
3089.277
2916.938
2779.016
2656.301
2539.335
2424.308
2316.988
2236.801
2191.117
2184.781
2194.32
2258.485
2371.049
2514.292
2632.543
2768.007
3006.983
3257.436
3438.661
3587.428
3705.96
3798.518
3872.862
3934.835
3985.766
4026.398
4055.807
4074.06
4082.188
4080.995
4070.763
4053.169
4030.83
4006.501
3983.186
3963.792
3950.784
3946.242
3951.628
3968.263
3996.961
4037.438
4088.357
4147.445
4211.517
4277.07
4341.087
4401.576
4457.287
4507.754
4553.215
4594.896
4631.864
4663.677
4692.62
4720.373
4747.224
4772.813
4796.916
4819.702
4841.719
4862.934
4883.719
4904.366
4925.061
4945.886
4966.866
4987.947
5009.021
5030.01
5050.828
5071.413
5091.741
5111.819
5131.662
5151.296
5170.658
5189.507
5209.294
5228.546
5247.591
5266.517
5285.312
5303.931
5322.31
5340.37
5357.995
5375.222
5391.984
5407.91
5423.041
5437.55
5451.268
5464.253
5476.589
5488.427
5499.796
5510.87
5521.912
5532.957
5544.727
5556.451
5567.578
5578.261
5589.016
5600.063
5611.41
5622.957
5634.634
5646.378
5658.112
5669.755
5681.245
5692.544
5703.618
5714.43
5724.937
5735.094
5744.821
5754.06
5762.757
5770.862
5778.34
5785.179
5791.373
5796.898
5801.716
5805.853
5809.178
5811.716
5813.465
5814.399
5814.626
5814.435
5814.344
5815.054
5817.065
5820.036
5823.002
5825.388
5827.072
5828.159
5828.814
5829.141
5829.228
5829.163
5829.046
5828.983
5829.073
5829.391
5829.993
5830.915
5832.182
5833.808
5835.795
5838.115
5840.719
5843.601
5846.636
5849.815
5853.085
5856.417
5859.758
5863.084
5866.348
5869.541
5872.609
5875.568
5878.371
5881.361
5884.236
5885.773
5886.591
5887.691
5889.371
5891.441
5893.671
5895.92
5898.122
5900.268
5902.384
5904.494
5906.595
5908.655
5910.625
5912.451
5914.076
5915.456
5916.553
5917.36
5917.863
5918.072
5918.014
5917.726
5917.261
5916.681
5916.041
5915.414
5914.924
5914.38
5913.999
5913.701
5913.456
5913.216
5912.915
5912.495
5911.919
5911.161
5910.2
5909.011
5907.58
5905.894
5903.955
5901.741
5899.214
5896.318
5893.043
5889.374
5885.542
5881.716
5878.022
5874.307
5870.764
5867.236
5864.217
5861.473
5858.508
5855.518
5852.649
5849.931
5847.364
5844.902
5842.48
5840.05
5837.614
5835.225
5832.954
5830.866
5829.022
5827.526
5826.485
5825.913
5825.744
5825.907
5826.472
5827.21
5827.849
5828.694
5829.429
5829.941
5830.278
5830.465
5830.524
5830.479
5830.346
5830.134
5829.882
5829.64
5829.442
5829.386
5829.357
5829.398
5829.462
5829.469
5829.341
5829.014
5828.457
5827.66
5826.62
5825.341
5823.835
5822.112
5820.19
5818.087
5815.818
5813.399
5810.842
5808.157
5805.357
5802.426
5799.373
5796.179
5792.823
5789.283
5785.546
5781.571
5777.52
5773.235
5768.769
5764.147
5759.379
5754.518
5749.472
5744.319
5739.034
5733.599
5727.976
5722.138
5716.046
5709.67
5702.989
5696.016
5688.769
5681.513
5674.588
5668.471
5663.754
5660.852
5659.71
2430.302
2417.071
2405.215
2381.953
2376.072
2354.437
2376.59
2416.296
2471.984
2512.14
2540.505
2590.445
2663.867
2758.121
2871.596
3002.83
3148.815
3309.748
3484.481
3671.348
3869.167
4075.717
4287.892
4501.076
4711.647
4916.793
5109.84
5287.286
5444.702
5578.335
5686.592
5710.94
5746.137
5741.591
5697.855
5621.25
5515.641
5384.765
5233.357
5066.7
4889.851
4705.859
4517.461
4327.052
4136.735
3948.461
3764.014
3585.241
3414.435
3252.359
3099.947
2958.29
2826.955
2706.231
2596.481
2497.594
2408.928
2329.392
2257.465
2191.96
2132.122
2077.187
2027.01
1981.671
1941.241
1905.905
1875.588
1849.857
1825.905
1808.238
1795.076
1781.368
1767.266
1754.463
1743.508
1734.2
1726.22
1720.284
1716.843
1714.675
1712.526
1710.499
1709.184
1709.116
1710.887
1714.482
1720.036
1727.83
1734.668
1740.783
1747.698
1755.889
1765.731
1777.72
1791.851
1807.8
1825.499
1844.662
1865.064
1887.125
1911.242
1937.237
1965.237
1995.799
2029.903
2067.572
2108.414
2152.138
2198.389
2247.807
2300.345
2354.746
2409.354
2462.573
2513.367
2561.142
2605.138
2645.006
2680.637
2712.008
2739.617
2764.683
2787.97
2809.826
2830.757
2850.723
2867.297
2880.523
2896.776
2921.143
2954.084
2994.518
3042.312
3097.776
3159.924
3226.558
3295.093
3363.178
3429.062
3491.75
3550.435
3604.306
3652.941
3695.722
3730.839
3756.64
3768.7
3761.614
3730.993
3669.455
3561.479
3395.474
3182.94
2961.798
2766.739
2610.883
2479.553
2350.337
2229.702
2115.135
2006.691
1911.785
1837.598
1801.493
1717.973
1792.178
1952.848
2122.464
2305.285
2516.022
2759.712
3013.872
3226.731
3397.548
3534.616
3640.074
3720.368
3781.923
3827.451
3858.778
3877.29
3883.455
3877.768
3861.967
3837.719
3806.711
3771.168
3734.435
3700.541
3673.105
3654.758
3647.107
3651.536
3669.573
3702.013
3748.454
3807.419
3875.808
3949.448
4023.758
4094.628
4159.597
4217.838
4269.611
4315.474
4356.479
4393.046
4425.353
4454.68
4482.259
4508.476
4533.326
4556.807
4578.979
4600.316
4621.133
4641.744
4662.279
4682.988
4703.99
4725.397
4747.096
4768.787
4790.374
4811.72
4832.708
4853.264
4873.357
4892.996
4912.218
4931.074
4949.663
4968.342
4986.855
5005.245
5023.587
5041.905
5060.162
5078.296
5096.192
5113.706
5130.954
5147.704
5163.424
5178.464
5192.876
5206.423
5219.195
5231.275
5242.777
5253.824
5264.613
5275.259
5285.928
5296.755
5307.559
5318.276
5328.886
5339.64
5350.786
5362.355
5374.281
5386.502
5398.947
5411.519
5424.108
5436.617
5448.96
5461.057
5472.82
5484.192
5495.161
5505.498
5515.175
5524.157
5532.407
5539.905
5546.65
5552.647
5557.896
5562.403
5566.202
5569.239
5571.585
5573.203
5574.187
5574.668
5574.845
5575.004
5575.463
5576.504
5578.153
5579.983
5581.48
5582.434
5582.889
5583.034
5582.952
5582.699
5582.36
5582.037
5581.838
5581.858
5582.173
5582.847
5583.919
5585.399
5587.288
5589.586
5592.234
5595.188
5598.395
5601.774
5605.265
5608.801
5612.355
5615.819
5619.212
5622.472
5625.572
5628.482
5631.226
5633.817
5636.191
5638.14
5639.669
5641.386
5643.352
5645.332
5647.224
5649.075
5650.953
5652.885
5654.872
5656.913
5659.003
5661.117
5663.206
5665.206
5667.046
5668.663
5670.016
5671.065
5671.797
5672.225
5672.365
5672.235
5671.87
5671.326
5670.672
5669.977
5669.301
5668.65
5668.322
5668.097
5667.998
5668.027
5668.114
5668.138
5668.004
5667.668
5667.109
5666.312
5665.257
5663.919
5662.267
5660.278
5657.955
5655.301
5652.293
5648.933
5645.261
5641.412
5637.509
5633.644
5629.814
5626.132
5622.602
5619.241
5615.896
5612.628
5609.568
5606.754
5604.145
5601.654
5599.197
5596.708
5594.15
5591.516
5588.874
5586.337
5584.009
5581.946
5580.305
5579.271
5578.84
5578.88
5579.271
5579.925
5581.047
5582.234
5583.201
5583.987
5584.474
5584.724
5584.791
5584.744
5584.633
5584.442
5584.174
5583.882
5583.638
5583.52
5583.593
5583.688
5583.957
5584.325
5584.668
5584.848
5584.763
5584.377
5583.691
5582.713
5581.456
5579.937
5578.18
5576.21
5574.054
5571.736
5569.274
5566.688
5563.993
5561.197
5558.292
5555.266
5552.095
5548.748
5545.196
5541.42
5537.413
5533.215
5528.814
5524.241
5519.521
5514.688
5509.723
5504.745
5499.673
5494.506
5489.241
5483.853
5478.33
5472.639
5466.789
5460.758
5454.612
5448.389
5442.354
5436.611
5431.547
5427.365
5424.21
5421.162
2627.736
2597.245
2568.516
2515.095
2470.877
2393.754
2351.091
2309.438
2269.776
2232.796
2198.124
2167.291
2140.576
2119.48
2104.691
2096.973
2040.219
2055.186
2079.855
2111.614
2148.076
2195.191
2257.755
2336.571
2434.225
2549.501
2681.525
2829.319
2991.813
3167.634
3355.272
3553.33
3758.392
3967.314
4177.969
4386.288
4589.016
4782.173
4957.197
5109.485
5235.058
5328.983
5384.672
5412.052
5404.788
5360.651
5282.77
5175.181
5042.124
4888.698
4720.435
4542.823
4359.637
4173.79
3987.535
3801.907
3618.347
3438.525
3263.418
3095.381
2936.064
2785.786
2645.833
2517.383
2400.606
2295.446
2201.653
2118.429
2044.307
1977.316
1915.698
1858.613
1805.915
1757.311
1712.706
1672.408
1637.288
1607.829
1584.307
1565.651
1550.505
1537.245
1524.166
1511.507
1500.201
1490.212
1481.18
1473.435
1468.413
1465.28
1463.794
1462.497
1460.552
1458.797
1457.863
1458.255
1462.671
1469.022
1475.629
1482.811
1488.58
1495.386
1502.993
1511.92
1523.661
1538.088
1553.814
1571.073
1590.171
1610.285
1631.726
1655.153
1679.961
1706.133
1735.241
1767.977
1804.137
1844.548
1889.75
1939.516
1993.521
2050.869
2110.098
2169.652
2227.399
2281.908
2332.356
2378.086
2418.051
2451.452
2478.077
2498.742
2515.237
2528.405
2538.405
2545.626
2550.173
2552.826
2556.306
2565.315
2584.09
2615.767
2662.098
2721.661
2791.296
2867.847
2948.727
3031.139
3112.479
3190.977
3265.792
3336.369
3402.084
3462.545
3516.901
3562.812
3597.667
3617.351
3615.238
3582.493
3508.113
3370.189
3152.154
2887.086
2640.953
2451.044
2307.326
2172.143
2039.64
1922.696
1813.514
1692.541
1579.414
1531.84
1438.823
1411.68
1437.179
1557.748
1748.406
1991.067
2247.673
2511.864
2774.763
3011.723
3200.802
3361.899
3485.189
3575.183
3639.512
3682.627
3706.964
3714.8
3707.863
3687.457
3654.735
3612.328
3563.189
3509.707
3456.208
3408.178
3369.876
3343.725
3331.166
3333.557
3352.343
3388.85
3443.367
3513.875
3595.789
3683.191
3769.661
3849.704
3920.634
3982.38
4035.83
4081.962
4122.011
4157.389
4189.066
4217.84
4244.551
4269.801
4293.841
4316.765
4338.665
4359.61
4380.004
4400.513
4420.98
4441.663
4462.703
4484.172
4506.099
4528.311
4550.546
4572.546
4594.128
4615.156
4635.54
4655.245
4674.286
4692.722
4710.748
4728.586
4746.298
4763.96
4781.623
4799.346
4817.09
4834.898
4852.677
4870.31
4887.588
4904.264
4920.074
4935.121
4949.31
4962.581
4974.99
4986.651
4997.705
5008.31
5018.659
5028.811
5038.887
5048.957
5059.08
5069.303
5079.663
5090.303
5101.42
5113.101
5125.327
5138.036
5151.136
5164.503
5178
5191.495
5204.861
5217.971
5230.689
5242.882
5254.541
5265.57
5275.878
5285.37
5294.009
5301.782
5308.694
5314.758
5319.993
5324.418
5328.043
5330.891
5333.005
5334.442
5335.326
5335.783
5335.944
5335.992
5336.129
5336.524
5337.21
5337.966
5338.544
5338.72
5338.496
5338.049
5337.433
5336.723
5335.989
5335.332
5334.875
5334.721
5334.951
5335.618
5336.745
5338.344
5340.441
5342.99
5345.957
5349.266
5352.842
5356.586
5360.416
5364.259
5368.028
5371.714
5375.221
5378.522
5381.594
5384.41
5386.968
5389.27
5391.301
5393.127
5394.874
5396.65
5398.428
5400.134
5401.762
5403.397
5405.118
5406.953
5408.903
5410.972
5413.152
5415.403
5417.652
5419.81
5421.782
5423.487
5424.886
5425.939
5426.643
5427.031
5427.119
5426.913
5426.448
5425.791
5425.026
5424.253
5423.563
5422.799
5422.387
5422.198
5422.225
5422.518
5422.997
5423.412
5423.569
5423.443
5423.055
5422.393
5421.429
5420.136
5418.501
5416.503
5414.113
5411.334
5408.181
5404.689
5400.921
5396.978
5392.96
5388.953
5384.998
5381.149
5377.405
5373.782
5370.29
5367.002
5363.955
5361.191
5358.638
5356.187
5353.738
5351.195
5348.482
5345.587
5342.611
5339.727
5337.082
5334.658
5332.712
5331.639
5331.373
5331.634
5332.197
5333.277
5334.833
5336.702
5337.956
5338.786
5339.252
5339.417
5339.359
5339.228
5339.049
5338.778
5338.434
5338.09
5337.825
5337.75
5338.033
5338.13
5338.597
5339.281
5340.01
5340.546
5340.721
5340.501
5339.909
5338.972
5337.715
5336.165
5334.352
5332.31
5330.077
5327.68
5325.15
5322.514
5319.794
5316.999
5314.127
5311.159
5308.054
5304.759
5301.228
5297.434
5293.376
5289.083
5284.585
5279.913
5275.101
5270.185
5265.2
5260.205
5255.19
5250.146
5245.065
5239.93
5234.732
5229.45
5224.101
5218.68
5213.269
5207.899
5202.771
5197.946
5193.652
5189.874
5186.741
5183.213
2825.416
2785.033
2741.283
2686.933
2645.572
2568.85
2528.593
2488.81
2448.676
2408.029
2367.311
2326.489
2284.355
2242.254
2198.385
2088.025
2045.384
2004.079
1964.379
1926.69
1891.606
1859.726
1831.701
1808.563
1790.659
1779.328
1775.038
1781.492
1797.303
1822.245
1857.006
1904.213
1966.291
2045.522
2142.012
2255.45
2385.213
2530.498
2690.511
2863.705
3047.879
3240.72
3439.762
3642.887
3850.088
4055.26
4255.067
4443.638
4614.276
4761.327
4880.661
4969.527
5024.179
5045.094
5031.571
4983.077
4901.3
4789.771
4652.891
4496.177
4325.431
4146.845
3964.625
3781.775
3600.81
3422.603
3247.199
3075.8
2909.601
2748.662
2594.256
2448.414
2313.057
2189.643
2078.255
1979.143
1892.435
1817.181
1751.278
1691.55
1635.569
1582.568
1532.36
1484.66
1439.919
1399.199
1363.934
1335.912
1315.711
1301.643
1289.915
1278.429
1266.406
1254.881
1244.897
1235.859
1226.817
1217.816
1211.849
1212.724
1212.783
1212.063
1209.631
1207.178
1205.13
1204.131
1208.501
1217.195
1222.47
1228.686
1234.011
1240.577
1247.106
1254.324
1265.878
1281.26
1296.84
1314.059
1333.691
1352.999
1373.305
1396.2
1419.663
1442.599
1468.749
1499.075
1533.62
1574.132
1621.155
1674.215
1733.201
1796.921
1863.119
1929.497
1993.826
2053.914
2109.111
2158.083
2198.685
2229.508
2250.19
2262.485
2269.708
2272.864
2270.598
2263.287
2250.748
2234.957
2221.494
2218.489
2229.348
2257.887
2309.888
2382.853
2469.312
2562.489
2659.687
2757.983
2854.352
2946.916
3035.035
3118.63
3197.534
3271.605
3339.961
3400.247
3450.719
3486.052
3498.978
3472.586
3391.851
3218.786
2931.412
2598.303
2318.805
2117.665
1975.172
1840.908
1717.165
1616.756
1571.756
1539.474
1533.67
1484.725
1422.949
1383.551
1354.688
1359.92
1443.875
1692.021
1995.654
2279.043
2556.263
2806.562
3013.753
3190.768
3329.991
3430.595
3499.977
3542.965
3563.085
3562.712
3543.385
3507.181
3456.423
3393.814
3322.837
3246.813
3171.44
3104.814
3053.111
3018.398
2999.914
2997.621
3015.09
3056.319
3121.047
3206.493
3307.167
3414.379
3517.73
3609.406
3687.129
3752.369
3806.991
3852.729
3891.525
3925.262
3955.314
3982.571
4007.833
4031.657
4054.317
4075.997
4096.848
4117.108
4137.067
4157.749
4178.324
4199.183
4220.534
4242.467
4264.878
4287.701
4310.724
4333.579
4355.951
4377.596
4398.339
4418.097
4436.91
4454.908
4472.302
4489.332
4506.188
4523.03
4539.975
4557.073
4574.416
4591.966
4609.689
4627.423
4644.824
4661.661
4677.651
4692.679
4706.688
4719.673
4731.688
4742.839
4753.316
4763.351
4773.115
4782.678
4792.102
4801.476
4810.907
4820.502
4830.387
4840.708
4851.659
4863.375
4875.859
4889.047
4902.818
4917.008
4931.447
4945.982
4960.448
4974.685
4988.551
5001.879
5014.515
5026.378
5037.464
5047.632
5056.801
5064.944
5072.066
5078.192
5083.362
5087.628
5091.038
5093.648
5095.526
5096.747
5097.41
5097.625
5097.528
5097.245
5096.918
5096.663
5096.504
5096.34
5096.019
5095.377
5094.465
5093.407
5092.256
5091.037
5089.813
5088.703
5087.876
5087.453
5087.51
5088.115
5089.267
5090.969
5093.25
5096.089
5099.399
5103.1
5107.088
5111.242
5115.454
5119.632
5123.694
5127.582
5131.251
5134.65
5137.73
5140.46
5142.839
5144.902
5146.713
5148.375
5149.962
5151.509
5153.03
5154.532
5156.036
5157.588
5159.229
5160.988
5162.894
5164.988
5167.283
5169.729
5172.223
5174.637
5176.827
5178.672
5180.172
5181.25
5181.903
5182.254
5182.309
5182.034
5181.458
5180.665
5179.754
5178.875
5178.388
5177.182
5176.596
5176.318
5176.363
5176.995
5178.099
5179
5179.403
5179.455
5179.221
5178.673
5177.776
5176.5
5174.819
5172.714
5170.175
5167.213
5163.859
5160.165
5156.208
5152.091
5147.906
5143.732
5139.609
5135.57
5131.648
5127.897
5124.352
5121.069
5118.062
5115.368
5112.901
5110.533
5108.152
5105.639
5102.848
5099.728
5096.402
5093.117
5090.132
5087.179
5084.674
5083.562
5083.594
5084.453
5085.86
5087.359
5088.964
5091.212
5092.918
5093.905
5094.367
5094.458
5094.328
5094.098
5093.796
5093.424
5093.013
5092.621
5092.299
5092.111
5092.006
5092.557
5093.255
5094.289
5095.511
5096.513
5096.99
5096.926
5096.403
5095.484
5094.203
5092.594
5090.688
5088.535
5086.187
5083.673
5081.037
5078.323
5075.559
5072.757
5069.916
5067.018
5064.008
5060.798
5057.312
5053.518
5049.408
5045.026
5040.426
5035.65
5030.732
5025.714
5020.676
5015.697
5010.769
5005.867
5000.989
4996.12
4991.25
4986.364
4981.48
4976.607
4971.816
4967.124
4962.675
4958.475
4954.816
4951.423
4948.496
4945.021
2836.443
2783.647
2729.721
2665.209
2602.428
2547.19
2496.773
2450.636
2408.212
2365.951
2258.426
2218.976
2179.875
2140.479
2100.488
2059.89
2018.616
1976.434
1933.567
1890.889
1849.132
1806.878
1765.371
1724.979
1686.142
1649.391
1614.704
1582.502
1554.325
1531.226
1514.252
1505.181
1505.359
1515.696
1537.196
1570.665
1617.862
1680.197
1758.77
1853.936
1965.587
2093.166
2235.949
2392.989
2561.77
2739.815
2926.677
3120.294
3320.579
3523.816
3725.048
3919.361
4100.771
4262.911
4400.074
4507.915
4583.757
4625.781
4633.83
4609.091
4552.319
4464.553
4348.501
4207.904
4048.344
3875.668
3696.154
3514.946
3335.641
3161.038
2992.397
2828.637
2668.693
2513.525
2362.807
2217.757
2081.351
1954.646
1838.579
1733.916
1641.939
1564.154
1499.904
1446.026
1396.56
1348.611
1302.037
1256.017
1209.16
1162.543
1119.52
1083.347
1057.62
1040.932
1031.385
1024.2
1016.682
1006.202
995.5012
987.35
979.8696
971.0283
961.1995
953.5802
957.3961
962.677
961.82
956.7382
953.3509
950.9328
949.319
952.8733
963.6115
968.6546
969.5112
974.8472
983.9666
990.4651
994.3929
1005.716
1023.147
1036.178
1052.535
1076.159
1094.88
1113.228
1135.677
1157.238
1174.28
1196.903
1224.056
1255.583
1295.758
1344.365
1400.471
1465.307
1537.542
1614.113
1691.174
1763.671
1829.362
1890.31
1945.423
1989.378
2018.412
2030.734
2031.711
2029.458
2022.578
2008.219
1985.283
1952.223
1910.394
1872.007
1852.465
1851.421
1875.766
1938.314
2028.348
2133.606
2244.685
2359.974
2475.761
2588.233
2695.399
2797.003
2893.67
2985.932
3074.466
3159.227
3238.249
3309.76
3362.282
3404.271
3400.141
3331.102
3120.402
2740.756
2305.606
1952.459
1717.448
1586.995
1519.167
1485.672
1449.849
1446.617
1501.266
1548.929
1512.225
1393.531
1333.562
1304.433
1303.186
1337.577
1456.369
1786.651
2079.461
2351.329
2606.27
2835.635
3022.767
3174.27
3283.442
3359.978
3406.585
3424.706
3417.401
3387.667
3337.276
3267.905
3182.67
3085.66
2980.765
2877.227
2788.168
2720.676
2675.582
2651.803
2646.225
2660.53
2704.242
2781.928
2886.741
3011.504
3145.426
3271.772
3377.931
3462.821
3531.017
3585.847
3629.819
3665.892
3696.855
3724.397
3749.395
3772.699
3794.719
3815.63
3835.793
3855.483
3874.548
3894.043
3913.99
3933.925
3954.597
3976.039
3998.582
4021.951
4045.778
4069.806
4093.715
4117.134
4139.706
4161.123
4181.177
4199.851
4217.352
4234.011
4250.155
4266.089
4282.056
4298.215
4314.675
4331.544
4348.892
4366.693
4384.832
4402.549
4419.818
4436.127
4451.228
4465.081
4477.729
4489.245
4499.762
4509.541
4518.886
4527.992
4536.926
4545.679
4554.328
4562.979
4571.795
4581.06
4590.967
4601.714
4613.441
4626.187
4639.897
4654.422
4669.518
4684.932
4700.497
4716.034
4731.338
4746.23
4760.59
4774.337
4787.204
4799.142
4810.071
4819.89
4828.541
4836.012
4842.316
4847.497
4851.631
4854.815
4857.145
4858.704
4859.585
4859.899
4859.722
4859.214
4858.484
4857.634
4856.76
4855.884
4854.957
4853.863
4852.448
4850.783
4849.042
4847.291
4845.492
4843.679
4841.995
4840.696
4839.923
4839.743
4840.27
4841.453
4843.186
4845.687
4848.82
4852.496
4856.633
4861.089
4865.701
4870.328
4874.857
4879.219
4883.366
4887.248
4890.789
4893.911
4896.571
4898.777
4900.595
4902.127
4903.498
4904.815
4906.137
4907.49
4908.871
4910.283
4911.74
4913.268
4914.908
4916.733
4918.841
4921.285
4923.999
4926.844
4929.644
4932.181
4934.243
4935.937
4936.969
4937.578
4937.915
4937.986
4937.658
4936.954
4935.998
4934.873
4933.606
4932.05
4931.487
4930.832
4930.312
4930.478
4931.895
4933.746
4934.894
4935.408
4935.607
4935.507
4935.056
4934.207
4932.919
4931.163
4928.927
4926.209
4923.023
4919.407
4915.43
4911.193
4906.81
4902.385
4897.988
4893.656
4889.415
4885.311
4881.416
4877.804
4874.522
4871.62
4869.068
4866.748
4864.52
4862.322
4860.034
4857.369
4854.17
4850.573
4846.895
4843.565
4839.701
4835.998
4835.365
4836.934
4839.016
4840.991
4842.444
4843.989
4846.299
4848.415
4849.628
4850.057
4850.075
4849.887
4849.496
4848.97
4848.429
4847.929
4847.499
4847.172
4847.005
4846.998
4847.2
4847.781
4849.206
4851.301
4853.025
4853.729
4853.712
4853.204
4852.269
4850.937
4849.241
4847.204
4844.903
4842.408
4839.721
4836.934
4834.114
4831.288
4828.465
4825.651
4822.84
4819.973
4816.906
4813.501
4809.712
4805.52
4801.042
4796.344
4791.471
4786.434
4781.305
4776.206
4771.231
4766.378
4761.624
4756.955
4752.357
4747.811
4743.302
4738.847
4734.459
4730.192
4726.059
4722.172
4718.524
4715.295
4712.287
4709.629
4706.308
2571.057
2502.676
2366.311
2312.649
2261.143
2213.856
2170.042
2128.886
2089.491
2051.455
2014.618
1977.09
1939.189
1900.565
1861.234
1820.95
1779.678
1737.381
1694.061
1650.264
1607.442
1565.013
1523.06
1481.725
1440.771
1400.522
1362.001
1326.032
1293.797
1267.201
1247.67
1236.047
1233.554
1241.241
1260.413
1292.29
1338.32
1399.542
1476.688
1570.075
1679.699
1804.819
1944.385
2096.135
2257.901
2429.594
2611.407
2801.307
2996.904
3194.238
3388.159
3573.045
3742.858
3891.398
4013.16
4104.094
4162.052
4186.725
4179.188
4141.229
4074.725
3980.601
3860.811
3718.65
3558.435
3386.331
3206.861
3025.667
2850.397
2684.59
2527.504
2376.336
2228.383
2084.235
1946.203
1816.52
1694.769
1579.175
1470.781
1372.694
1288.668
1221.618
1170.831
1132.533
1095.156
1055.361
1015.127
974.3997
930.3632
883.0454
836.9005
795.9949
765.4394
756.1199
757.6459
756.7437