/*--------------------------------*- C++ -*----------------------------------*\
| =========                 |                                                 |
| \\      /  F ield         | foam-extend: Open Source CFD                    |
|  \\    /   O peration     | Version:     3.1                                |
|   \\  /    A nd           | Web:         http://www.extend-project.de       |
|    \\/     M anipulation  |                                                 |
\*---------------------------------------------------------------------------*/
FoamFile
{
    version     2.0;
    format      ascii;
    class       volScalarField;
    location    "18";
    object      pd;
}
// * * * * * * * * * * * * * * * * * * * * * * * * * * * * * * * * * * * * * //

dimensions      [1 -1 -2 0 0 0 0];

internalField   nonuniform List<scalar> 
119952
(
5454.153
4213.444
4042.514
4232.374
4416.435
4310.012
4285.321
4281.673
4293.214
4310.994
4336.88
4369.768
4408.655
4451.556
4493.375
4532.834
4568.271
4597.272
4613.009
4574.555
4829.951
4665.214
4621.674
4957.254
4828.987
4837.853
4803
4846.584
5250.966
6847.589
2871.964
2841.626
2850.595
2858.006
2867.062
2877.671
2891.174
2905.493
2923.539
2915.863
2932.255
2971.435
2990.823
3015.76
3042.348
3072.644
3105.257
3139.166
3176.968
3264.298
3278.397
3304.764
3349.914
3396.098
3442.531
3489.615
3537.54
3583.464
3633.714
3667.205
3708.128
3752.145
3793.141
3831.707
3869.663
3908.252
3954.447
4045.863
4220.072
4122.428
4114.374
4213.361
4260.712
4275.577
4267.526
4275.973
4294.914
4319.739
4350.832
4387.193
4427.221
4468.581
4508.927
4546.843
4580.776
4609.3
4632.555
4652.862
4679.005
4694.125
4695.312
4731.696
4787.3
4760.633
4706.397
4631.108
4459.943
4042.81
3850.92
3761.049
3658.337
3557.417
3459.079
3372.009
3308.006
3279.856
3303.028
3401.252
3579.741
3786.985
3814.608
3512.168
3423.45
3658.053
3929.855
4128.451
4269.141
4380.127
4475.79
4563.791
4644.252
4718.433
4782.004
4834.203
4874.503
4903.265
4921.259
4929.655
4930.003
4924.218
4914.479
4903.112
4892.041
4883.551
4880.039
4883.303
4894.467
4914.741
4944.443
4983.132
5029.212
5081.061
5136.699
5193.866
5249.947
5301.883
5349.904
5407.126
5454.382
5478.11
5504.621
5531.094
5557.783
5584.845
5611.161
5636.186
5659.89
5682.424
5703.946
5724.704
5745.083
5765.461
5786.022
5806.876
5828.01
5849.35
5870.782
5892.224
5913.688
5935.031
5956.282
5977.367
5998.314
6019.243
6040.027
6060.506
6080.727
6100.757
6120.565
6140.1
6159.305
6178.12
6196.484
6214.349
6231.756
6248.672
6264.854
6280.403
6295.094
6309.166
6322.52
6335.172
6347.204
6358.498
6368.989
6378.198
6385.738
6406.562
6422.509
6425.972
6438.675
6448.705
6459.38
6470.238
6480.94
6491.677
6502.267
6512.638
6522.788
6532.68
6542.379
6552.012
6561.672
6571.372
6581.081
6590.71
6600.127
6609.329
6618.09
6626.301
6633.955
6641.03
6647.481
6653.258
6658.293
6662.522
6665.846
6668.131
6669.16
6668.628
6665.822
6658.847
6648.768
6662.691
6671.808
6678.117
6682.421
6685.559
6687.7
6689.069
6689.879
6690.28
6690.389
6690.315
6690.162
6690.064
6690.085
6690.298
6690.748
6691.459
6692.478
6693.835
6695.553
6697.576
6699.881
6702.454
6705.255
6708.267
6711.438
6714.738
6718.109
6721.525
6724.946
6728.647
6732.057
6735.165
6737.47
6762.139
6758.884
6746.42
6747.966
6751.597
6753.131
6754.54
6756.443
6758.547
6760.589
6762.616
6764.651
6766.691
6768.717
6770.707
6772.625
6774.419
6776.025
6777.372
6778.386
6779.033
6779.328
6779.307
6779
6778.478
6777.809
6777.029
6776.226
6775.395
6774.533
6773.655
6772.764
6771.904
6771.046
6770.164
6769.223
6768.188
6767.037
6765.76
6764.368
6762.87
6761.323
6759.78
6758.372
6757.073
6755.077
6751.139
6746.744
6742.855
6739.226
6735.71
6732.444
6729.083
6725.072
6712.947
6714.656
6714.818
6712.482
6709.982
6707.819
6705.721
6703.692
6701.748
6699.876
6698.066
6696.293
6694.55
6692.853
6691.245
6689.786
6688.549
6687.596
6686.966
6686.672
6686.702
6687.011
6687.534
6688.198
6688.907
6689.571
6690.124
6690.533
6690.784
6690.878
6690.837
6690.669
6690.392
6690.024
6689.54
6689.079
6688.545
6687.99
6687.411
6686.8
6686.138
6685.396
6684.569
6683.621
6682.531
6681.28
6679.852
6678.246
6676.47
6674.515
6672.389
6670.097
6667.648
6665.05
6662.313
6659.474
6656.49
6653.374
6650.123
6646.73
6643.185
6639.479
6635.585
6631.502
6627.235
6622.8
6618.19
6613.399
6608.417
6603.232
6597.827
6592.174
6586.234
6579.956
6573.27
6566.083
6558.264
6549.684
6540.025
6528.844
6515.438
6499.254
6483.518
6489.197
6550.157
4344.751
4211.871
4075.7
3942.86
3823.369
3714.479
3616.004
3528.853
3452.118
3351.161
3296.238
3239.956
3185.098
3136.209
3093.447
3056.017
3023.858
2992.741
2967.84
2967.624
2934.571
2908.643
2891.999
2877.606
2865.559
2855.692
2846.8
2841.163
2840.263
2822.88
2820.916
2821.258
2820.237
2820.895
2823.352
2827.021
2833.863
2850.183
2838.897
2839.596
2850.983
2861.898
2873.837
2886.953
2901.671
2917.619
2933.18
2950.114
2974.8
2999.398
3023.326
3049.308
3078.051
3109.749
3144.58
3184.308
3226.916
3272.65
3316.972
3362.018
3408.674
3456.576
3504.819
3552.696
3599.843
3645.007
3688.823
3730.858
3770.016
3806.564
3842.29
3879.159
3919.561
3965.938
4017.874
4065.891
4092.799
4107.829
4136.418
4169.864
4198.099
4220.834
4245.631
4277.024
4315.21
4358.637
4405.328
4453.194
4500.414
4545.48
4587.288
4624.912
4657.805
4686.567
4710.693
4730.189
4744.46
4751.795
4750.406
4731.881
4677.316
4575.649
4424.817
4227.9
4011.884
3822.898
3684.067
3569.485
3461.526
3355.908
3257.784
3181.426
3123.856
3072.342
3146.375
3303.461
3416.657
3523.783
3567.927
3629.938
3836.065
4065.73
4232.009
4369.524
4478.285
4568.308
4647.472
4719.213
4777.253
4827.842
4868.422
4898.047
4916.953
4925.688
4925.283
4917.616
4904.794
4889.085
4872.967
4859.016
4849.548
4846.7
4852.05
4867.048
4892.456
4928
4972.834
5025.156
5082.554
5142.339
5201.955
5259.373
5313.712
5364.064
5409.898
5451.734
5486.727
5517.027
5544.993
5572.114
5598.921
5624.744
5649.153
5672.227
5694.258
5715.488
5736.236
5756.842
5777.483
5798.254
5819.18
5840.21
5861.246
5882.203
5903.041
5923.747
5944.319
5964.783
5985.147
6005.494
6025.655
6046.19
6065.578
6085.215
6104.78
6124.174
6143.354
6162.265
6180.836
6199
6216.69
6233.89
6250.595
6266.603
6281.886
6296.474
6310.36
6323.573
6336.085
6348.005
6359.478
6370.627
6381.628
6393.028
6404.575
6417.836
6427.77
6437.906
6449.041
6459.995
6471.127
6482.354
6493.562
6504.658
6515.587
6526.277
6536.698
6546.878
6556.868
6566.711
6576.422
6585.987
6595.343
6604.422
6613.159
6621.442
6629.206
6636.42
6643.053
6649.066
6654.426
6659.068
6662.906
6665.876
6667.884
6668.805
6668.462
6666.85
6664.65
6663.914
6667.683
6673.982
6678.58
6682.036
6684.706
6686.593
6687.848
6688.63
6689.053
6689.238
6689.29
6689.312
6689.395
6689.619
6690.049
6690.73
6691.701
6692.971
6694.551
6696.452
6698.642
6701.08
6703.746
6706.607
6709.627
6712.762
6715.981
6719.252
6722.552
6725.856
6729.141
6732.341
6735.567
6741.113
6742.058
6747.764
6751.221
6751.976
6751.971
6752.605
6754.09
6756.03
6758.061
6760.052
6762.019
6764.002
6766.004
6767.994
6769.929
6771.755
6773.416
6774.858
6776.038
6776.917
6777.466
6777.698
6777.649
6777.352
6776.867
6776.258
6775.572
6774.875
6774.19
6773.496
6772.873
6772.266
6771.684
6771.103
6770.479
6769.771
6768.943
6767.977
6766.856
6765.569
6764.133
6762.546
6760.779
6758.807
6756.529
6753.772
6750.574
6746.801
6742.921
6739.108
6735.462
6732.047
6728.744
6725.421
6721.087
6716.372
6713.361
6711.314
6709.381
6707.312
6705.174
6703.037
6700.922
6698.826
6696.746
6694.698
6692.717
6690.854
6689.168
6687.743
6686.652
6685.927
6685.565
6685.541
6685.838
6686.336
6686.968
6687.712
6688.394
6688.954
6689.381
6689.668
6689.817
6689.836
6689.738
6689.539
6689.266
6688.953
6688.559
6688.356
6688.089
6687.822
6687.55
6687.225
6686.805
6686.249
6685.528
6684.627
6683.534
6682.243
6680.753
6679.062
6677.19
6675.145
6672.932
6670.563
6668.047
6665.396
6662.645
6659.694
6656.641
6653.459
6650.129
6646.64
6642.986
6639.188
6635.099
6630.881
6626.502
6621.958
6617.259
6612.407
6607.386
6602.196
6596.829
6591.244
6585.422
6579.31
6572.849
6565.958
6558.571
6550.546
6541.98
6532.952
6524.082
6516.501
6512.165
6511.14
6513.497
3715.919
3809.683
3927.326
4062.382
4214.326
4382.412
4565.123
4760.924
4967.193
5178.956
5398.14
5621.286
5840.771
6052.112
6251.882
6436.585
6600.01
6735.668
6837.385
6913.449
6948.686
6948.03
6912.213
6843.519
6744.825
6620.073
6473.603
6310.278
6138.201
5949.455
5760.258
5565.769
5371.211
5178.538
4989.78
4806.813
4632.213
4468.121
4302.055
4154.124
4015.78
3889.184
3773.399
3668.185
3573.157
3487.685
3411.639
3340.65
3274.365
3217.527
3165.266
3117.676
3075.391
3038.449
3007.334
2989.435
2939.942
2919.455
2906.986
2894.231
2880.383
2867.2
2855.776
2846.159
2838.258
2831.462
2826.147
2823.955
2822.121
2819.794
2818.057
2817.991
2820.01
2824.127
2829.733
2835.901
2843.007
2849.988
2856.472
2864.746
2875.019
2887.349
2901.467
2917.221
2934.937
2954.924
2975.995
2998.191
3022.391
3049.04
3077.915
3109.343
3142.971
3180.554
3224.054
3268.51
3311.717
3356.969
3405.554
3456.282
3507.479
3557.791
3606.3
3652.75
3696.388
3736.817
3774.178
3808.875
3841.766
3874.185
3907.092
3940.483
3974.399
4008.462
4034.98
4052.064
4072.592
4101.169
4133.649
4167.456
4204.113
4247.012
4296.633
4351.067
4407.871
4464.843
4520.211
4572.802
4621.698
4665.998
4705.279
4739.581
4767.633
4788.036
4799.176
4796.679
4775.842
4731.706
4650.244
4519.202
4343.642
4144.638
3945.392
3771.532
3634.149
3513.696
3396.704
3279.145
3155.276
2971.801
2891.837
2885.501
2910.474
3074.963
3226.483
3372.634
3490.918
3626.382
3865.358
4115.811
4297.036
4445.803
4564.335
4656.893
4731.237
4793.21
4844.141
4884.773
4914.182
4932.435
4940.563
4939.37
4929.138
4911.544
4889.205
4864.876
4841.561
4822.167
4809.159
4804.617
4810.003
4826.638
4855.336
4895.813
4946.732
5005.82
5069.892
5135.445
5199.462
5259.951
5315.662
5366.129
5411.59
5453.271
5490.239
5522.052
5550.995
5578.748
5605.599
5631.188
5655.291
5678.077
5700.094
5721.309
5742.094
5762.741
5783.436
5804.261
5825.241
5846.322
5867.396
5888.385
5909.203
5929.788
5950.116
5970.194
5990.037
6009.671
6029.033
6047.882
6067.669
6086.921
6105.966
6124.892
6143.687
6162.306
6180.685
6198.745
6216.37
6233.597
6250.359
6266.284
6281.416
6295.925
6309.643
6322.628
6334.964
6346.802
6358.171
6369.245
6380.287
6391.332
6403.102
6414.826
6425.953
6436.636
6447.391
6458.438
6469.785
6481.332
6493.009
6504.753
6516.487
6528.13
6539.62
6550.919
6561.993
6572.805
6583.312
6593.469
6603.196
6612.435
6621.132
6629.237
6636.715
6643.554
6649.748
6655.273
6660.091
6664.228
6667.553
6670.091
6671.84
6672.774
6673.001
6672.81
6672.719
6673.429
6675.44
6678.411
6681.377
6683.763
6685.447
6686.534
6687.189
6687.516
6687.603
6687.538
6687.421
6687.358
6687.448
6687.766
6688.368
6689.29
6690.557
6692.183
6694.17
6696.49
6699.094
6701.976
6705.011
6708.19
6711.46
6714.792
6718.133
6721.459
6724.723
6727.916
6730.984
6733.943
6736.746
6739.736
6742.611
6744.148
6744.966
6746.066
6747.746
6749.816
6752.046
6754.295
6756.497
6758.644
6760.759
6762.869
6764.97
6767.03
6769
6770.826
6772.451
6773.831
6774.928
6775.735
6776.238
6776.447
6776.389
6776.101
6775.636
6775.056
6774.416
6773.789
6773.299
6772.755
6772.374
6772.076
6771.831
6771.591
6771.29
6770.87
6770.294
6769.536
6768.575
6767.386
6765.955
6764.269
6762.33
6760.116
6757.589
6754.693
6751.418
6747.749
6743.917
6740.091
6736.397
6732.682
6729.139
6725.611
6722.592
6719.848
6716.883
6713.893
6711.024
6708.306
6705.739
6703.277
6700.855
6698.425
6695.989
6693.6
6691.329
6689.241
6687.397
6685.901
6684.86
6684.288
6684.119
6684.282
6684.847
6685.584
6686.222
6687.063
6687.798
6688.313
6688.652
6688.839
6688.897
6688.844
6688.685
6688.474
6688.244
6688.014
6687.817
6687.761
6687.732
6687.773
6687.837
6687.844
6687.716
6687.389
6686.832
6686.035
6684.995
6683.716
6682.21
6680.487
6678.565
6676.462
6674.193
6671.774
6669.217
6666.532
6663.732
6660.801
6657.748
6654.554
6651.198
6647.658
6643.921
6639.946
6635.895
6631.61
6627.144
6622.522
6617.754
6612.893
6607.847
6602.694
6597.409
6591.974
6586.351
6580.513
6574.421
6568.045
6561.364
6554.391
6547.144
6539.888
6532.963
6526.846
6522.129
6519.227
6518.085
3447.506
3422.722
3407.391
3393.609
3387.728
3396.75
3418.903
3458.608
3514.296
3554.453
3582.817
3632.757
3706.179
3800.434
3913.909
4045.142
4191.127
4352.061
4526.793
4713.66
4911.48
5118.029
5330.204
5543.389
5753.96
5959.105
6152.152
6329.598
6487.015
6620.648
6728.904
6814.565
6849.762
6845.216
6801.48
6724.875
6619.266
6488.39
6336.982
6170.325
5993.476
5809.484
5621.086
5430.677
5240.359
5052.086
4867.639
4688.866
4518.06
4355.984
4203.572
4061.915
3930.58
3809.856
3700.106
3601.219
3512.553
3433.017
3361.09
3295.585
3235.747
3180.812
3130.635
3085.296
3044.866
3009.53
2979.213
2953.482
2929.53
2911.863
2898.701
2884.993
2870.891
2858.088
2847.133
2837.825
2829.845
2823.909
2820.468
2818.3
2816.151
2814.124
2812.809
2812.74
2814.512
2818.107
2823.661
2831.455
2838.293
2844.408
2851.323
2859.514
2869.356
2881.345
2895.476
2911.425
2929.124
2948.287
2968.689
2990.75
3014.867
3040.862
3068.862
3099.424
3133.528
3171.197
3212.039
3255.763
3302.014
3351.432
3403.97
3458.371
3512.979
3566.198
3616.992
3664.767
3708.763
3748.631
3784.262
3815.633
3843.242
3868.308
3891.595
3913.451
3934.382
3954.348
3970.922
3984.148
4000.401
4024.768
4057.709
4098.143
4145.937
4201.401
4263.549
4330.183
4398.718
4466.803
4532.687
4595.375
4654.06
4707.931
4756.566
4799.347
4834.464
4860.265
4872.325
4865.239
4834.618
4773.074
4665.044
4498.647
4282.357
4036.052
3798.858
3650.559
3558.441
3451.788
3331.131
3195.517
2948.193
2831.341
2823.008
2826.085
2749.076
2842.194
3033.321
3222.091
3408.745
3619.646
3863.337
4117.497
4330.356
4501.173
4638.241
4743.699
4823.993
4885.548
4931.076
4962.403
4980.915
4987.08
4981.393
4965.592
4941.344
4910.336
4874.793
4838.06
4804.166
4776.73
4758.383
4750.732
4755.161
4773.198
4805.638
4852.079
4911.044
4979.433
5053.073
5127.383
5198.253
5263.222
5321.463
5373.236
5419.099
5460.104
5496.671
5528.978
5558.305
5585.884
5612.101
5636.951
5660.432
5682.604
5703.941
5724.758
5745.369
5765.904
5786.613
5807.615
5829.022
5850.721
5872.412
5893.999
5915.345
5936.333
5956.889
5976.982
5996.621
6015.843
6034.699
6053.288
6071.967
6090.48
6108.87
6127.212
6145.529
6163.787
6181.921
6199.816
6217.331
6234.579
6251.329
6267.049
6282.089
6296.501
6310.048
6322.82
6334.9
6346.402
6357.449
6368.238
6378.884
6389.553
6400.38
6411.184
6421.901
6432.511
6443.265
6454.411
6465.98
6477.906
6490.127
6502.572
6515.144
6527.733
6540.242
6552.585
6564.682
6576.445
6587.817
6598.786
6609.122
6618.8
6627.782
6636.032
6643.53
6650.275
6656.272
6661.521
6666.028
6669.827
6672.864
6675.21
6676.828
6677.812
6678.293
6678.47
6678.629
6679.088
6680.129
6681.778
6683.608
6685.105
6686.059
6686.514
6686.659
6686.577
6686.324
6685.985
6685.662
6685.463
6685.483
6685.798
6686.472
6687.544
6689.024
6690.913
6693.211
6695.859
6698.813
6702.02
6705.399
6708.89
6712.426
6715.98
6719.444
6722.837
6726.097
6729.197
6732.107
6734.851
6737.442
6739.816
6741.765
6743.294
6745.011
6746.977
6748.957
6750.849
6752.7
6754.578
6756.51
6758.497
6760.538
6762.628
6764.742
6766.831
6768.831
6770.671
6772.288
6773.641
6774.69
6775.422
6775.85
6775.99
6775.86
6775.495
6774.951
6774.297
6773.602
6772.926
6772.275
6771.947
6771.721
6771.623
6771.652
6771.738
6771.757
6771.612
6771.27
6770.722
6769.935
6768.882
6767.544
6765.892
6763.903
6761.58
6758.926
6755.918
6752.558
6748.886
6745.037
6741.134
6737.269
6733.439
6729.757
6726.227
6722.866
6719.521
6716.253
6713.193
6710.379
6707.77
6705.279
6702.822
6700.333
6697.775
6695.141
6692.499
6689.962
6687.634
6685.571
6683.93
6682.896
6682.464
6682.503
6682.89
6683.523
6684.571
6685.672
6686.685
6687.575
6688.096
6688.346
6688.401
6688.249
6687.975
6687.898
6687.764
6687.505
6687.263
6687.145
6687.218
6687.313
6687.582
6687.95
6688.293
6688.473
6688.388
6688.002
6687.316
6686.338
6685.081
6683.563
6681.805
6679.835
6677.679
6675.361
6672.899
6670.313
6667.618
6664.822
6661.917
6658.891
6655.72
6652.373
6648.821
6645.045
6641.038
6636.84
6632.439
6627.865
6623.145
6618.312
6613.348
6608.37
6603.298
6598.131
6592.866
6587.478
6581.955
6576.264
6570.414
6564.383
6558.237
6552.014
6545.979
6540.235
6535.172
6530.99
6527.835
6524.787
3896.081
3853.872
3814.118
3772.001
3727.783
3681.317
3638.653
3597
3557.338
3520.358
3485.687
3454.854
3428.139
3407.042
3392.254
3384.536
3389.094
3404.061
3428.73
3460.489
3496.951
3544.066
3606.63
3685.446
3783.1
3898.376
4030.4
4178.194
4340.688
4516.509
4704.147
4902.205
5107.267
5316.189
5526.844
5735.163
5937.891
6131.048
6306.072
6458.36
6583.933
6677.858
6733.547
6760.927
6753.663
6709.526
6631.645
6524.056
6390.999
6237.573
6069.31
5891.698
5708.512
5522.665
5336.409
5150.782
4967.222
4787.4
4612.293
4444.256
4284.939
4134.661
3994.708
3866.258
3749.481
3644.321
3550.528
3467.304
3393.182
3326.191
3264.573
3207.488
3154.79
3106.186
3061.581
3021.283
2986.163
2956.704
2933.182
2914.526
2899.38
2886.12
2873.041
2860.382
2849.076
2839.087
2830.055
2822.31
2817.288
2814.155
2812.669
2811.372
2809.427
2807.672
2806.738
2807.13
2811.546
2817.897
2824.504
2831.686
2837.455
2844.261
2851.868
2860.795
2872.536
2886.963
2902.689
2919.948
2939.046
2959.16
2980.601
3004.028
3028.836
3055.008
3084.116
3116.852
3153.012
3193.423
3238.625
3288.391
3342.396
3399.744
3458.973
3518.527
3576.274
3630.783
3681.231
3726.961
3766.926
3800.327
3826.952
3847.617
3864.112
3877.28
3887.28
3894.501
3899.048
3901.701
3905.181
3914.19
3932.965
3964.642
4010.973
4070.536
4140.171
4216.722
4297.602
4380.014
4461.354
4539.852
4614.667
4685.244
4750.959
4811.42
4865.776
4911.687
4946.542
4966.226
4964.113
4931.367
4856.955
4718.563
4495.874
4193.669
3763.713
3542.276
3485.263
3489.944
3384.186
3264.354
3133.29
2945.022
2749.706
2446.445
1783.876
1604.306
1855.419
2605.611
3069.065
3339.316
3596.546
3860.739
4123.638
4360.598
4549.677
4710.774
4834.064
4924.058
4988.387
5031.502
5055.839
5063.675
5056.738
5036.332
5003.61
4961.203
4912.064
4858.582
4805.083
4757.052
4718.744
4692.573
4679.985
4682.385
4701.195
4737.721
4792.242
4862.75
4944.664
5032.066
5118.536
5198.579
5269.509
5331.255
5384.704
5430.836
5470.885
5506.263
5537.941
5566.715
5593.426
5618.676
5642.716
5665.64
5687.54
5708.485
5728.879
5749.388
5769.855
5790.538
5811.578
5833.047
5854.974
5877.186
5899.421
5921.421
5943.003
5964.031
5984.415
6004.12
6023.161
6041.597
6059.623
6077.461
6095.173
6112.835
6130.498
6148.221
6165.965
6183.773
6201.552
6219.185
6236.463
6253.139
6268.949
6283.996
6298.185
6311.456
6323.865
6335.526
6346.58
6357.185
6367.534
6377.686
6387.762
6397.832
6407.955
6418.178
6428.538
6439.178
6450.295
6461.976
6474.202
6486.911
6500.011
6513.378
6526.875
6540.37
6553.736
6566.846
6579.564
6591.757
6603.416
6614.445
6624.752
6634.245
6642.884
6650.657
6657.569
6663.633
6668.868
6673.293
6676.918
6679.766
6681.88
6683.317
6684.201
6684.658
6684.819
6684.867
6685.004
6685.399
6686.085
6686.841
6687.419
6687.595
6687.371
6686.924
6686.308
6685.598
6684.864
6684.207
6683.75
6683.596
6683.826
6684.493
6685.62
6687.219
6689.316
6691.865
6694.832
6698.141
6701.717
6705.461
6709.291
6713.134
6716.903
6720.589
6724.096
6727.397
6730.469
6733.285
6735.843
6738.145
6740.176
6742.001
6743.749
6745.525
6747.303
6749.009
6750.637
6752.272
6753.993
6755.828
6757.778
6759.847
6762.027
6764.278
6766.527
6768.685
6770.657
6772.362
6773.761
6774.814
6775.518
6775.906
6775.994
6775.788
6775.323
6774.666
6773.901
6773.128
6772.438
6771.673
6771.262
6771.071
6771.089
6771.328
6771.566
6771.759
6772.099
6772.242
6771.926
6771.268
6770.304
6769.011
6767.376
6765.378
6762.988
6760.209
6757.056
6753.564
6749.796
6745.853
6741.835
6737.828
6733.873
6730.024
6726.28
6722.657
6719.165
6715.877
6712.829
6710.065
6707.513
6705.062
6702.613
6700.07
6697.357
6694.462
6691.486
6688.602
6685.957
6683.533
6681.586
6680.509
6680.218
6680.338
6680.294
6680
6681.404
6684.478
6686.679
6687.654
6688.121
6688.245
6687.878
6687.279
6687.361
6687.52
6687.3
6686.965
6686.7
6686.625
6686.908
6687.005
6687.472
6688.156
6688.885
6689.421
6689.596
6689.376
6688.784
6687.846
6686.589
6685.04
6683.226
6681.185
6678.952
6676.555
6674.025
6671.389
6668.669
6665.874
6663.002
6660.034
6656.929
6653.634
6650.103
6646.309
6642.251
6637.958
6633.459
6628.787
6623.975
6619.059
6614.075
6609.08
6604.065
6599.02
6593.94
6588.805
6583.607
6578.324
6572.976
6567.555
6562.143
6556.772
6551.644
6546.82
6542.527
6538.749
6535.616
6532.088
4333.051
4281.119
4233.921
4189.089
4147.729
4101.663
4061.405
4021.623
3981.488
3940.841
3900.123
3859.302
3817.168
3775.066
3731.197
3682.15
3639.509
3598.204
3558.504
3520.815
3485.731
3453.851
3425.826
3402.688
3384.784
3373.453
3369.163
3375.617
3391.428
3416.37
3451.131
3498.338
3560.416
3639.647
3736.137
3849.575
3979.338
4124.623
4284.636
4457.83
4642.004
4834.845
5033.887
5237.012
5444.213
5649.385
5849.192
6037.763
6208.401
6355.452
6474.786
6563.652
6618.304
6639.219
6625.696
6577.202
6495.425
6383.896
6247.016
6090.302
5919.556
5740.97
5558.75
5375.9
5194.934
5016.728
4841.324
4669.925
4503.726
4342.787
4188.381
4042.539
3907.182
3783.768
3672.38
3573.268
3486.56
3411.306
3345.403
3285.675
3229.694
3176.693
3126.485
3078.785
3034.044
2993.324
2958.059
2930.037
2909.836
2895.768
2884.04
2872.554
2860.531
2849.006
2839.022
2829.984
2820.942
2811.941
2805.974
2806.849
2806.908
2806.188
2803.756
2801.303
2799.255
2798.256
2802.626
2811.32
2816.595
2822.811
2828.136
2834.702
2841.231
2848.449
2860.003
2875.385
2890.965
2908.184
2927.816
2947.123
2967.43
2990.325
3013.788
3036.724
3062.874
3093.2
3127.745
3168.257
3215.28
3268.34
3327.326
3391.046
3457.244
3523.622
3587.951
3648.039
3703.236
3752.208
3792.81
3823.633
3844.311
3856.594
3863.807
3866.967
3864.71
3857.405
3844.868
3829.076
3815.61
3812.602
3823.462
3852.003
3904.006
3976.974
4063.435
4156.614
4253.812
4352.108
4448.477
4541.041
4629.16
4712.755
4791.659
4865.73
4934.086
4994.372
5044.844
5080.177
5093.103
5066.706
4985.811
4809.602
4498.704
3970.946
3608.008
3428.125
3469.926
3384.824
3226.682
3050.585
2755.95
2041.866
1638.232
1516.22
1448.071
1408.674
1386.764
1523.974
2415.658
3218.616
3588.338
3873.164
4150.388
4400.687
4607.878
4784.893
4924.116
5024.72
5094.102
5137.089
5157.21
5156.837
5137.51
5101.306
5050.548
4987.939
4916.962
4840.935
4765.533
4698.677
4646.162
4610.902
4592.777
4591.326
4609.165
4650.442
4715.172
4800.617
4901.292
5008.504
5111.855
5203.53
5281.251
5346.487
5401.102
5446.841
5485.643
5519.385
5549.439
5576.696
5601.958
5625.782
5648.442
5670.122
5690.973
5711.233
5731.192
5751.874
5772.449
5793.308
5814.659
5836.592
5859.003
5881.826
5904.849
5927.704
5950.076
5971.721
5992.464
6012.222
6031.035
6049.033
6066.427
6083.457
6100.313
6117.155
6134.1
6151.198
6168.541
6186.091
6203.814
6221.548
6238.949
6255.786
6271.776
6286.804
6300.813
6313.798
6325.813
6336.964
6347.441
6357.476
6367.24
6376.803
6386.227
6395.601
6405.032
6414.627
6424.512
6434.833
6445.784
6457.5
6469.984
6483.172
6496.943
6511.132
6525.572
6540.107
6554.573
6568.81
6582.676
6596.004
6608.64
6620.503
6631.589
6641.757
6650.926
6659.069
6666.191
6672.317
6677.487
6681.753
6685.163
6687.773
6689.651
6690.871
6691.535
6691.749
6691.653
6691.37
6691.043
6690.788
6690.629
6690.465
6690.144
6689.502
6688.59
6687.532
6686.381
6685.162
6683.938
6682.828
6682.001
6681.578
6681.635
6682.24
6683.392
6685.093
6687.375
6690.214
6693.523
6697.224
6701.212
6705.367
6709.579
6713.757
6717.819
6721.707
6725.376
6728.775
6731.855
6734.585
6736.964
6739.026
6740.836
6742.494
6744.082
6745.632
6747.154
6748.657
6750.161
6751.713
6753.354
6755.113
6757.019
6759.113
6761.408
6763.854
6766.348
6768.762
6770.952
6772.797
6774.297
6775.375
6776.028
6776.379
6776.434
6776.159
6775.583
6774.79
6773.879
6773
6772.513
6771.306
6770.71
6770.376
6770.124
6769.554
6769.534
6771.341
6773.134
6773.558
6773.346
6772.798
6771.901
6770.625
6768.944
6766.839
6764.3
6761.338
6757.984
6754.29
6750.333
6746.216
6742.031
6737.857
6733.734
6729.695
6725.773
6722.022
6718.476
6715.192
6712.184
6709.491
6707.026
6704.658
6702.277
6699.764
6696.973
6693.853
6690.526
6687.238
6684.246
6681.284
6678.759
6677.57
6677.117
6674.162
6661.129
6664.151
6676.266
6684.498
6687.02
6688.025
6688.467
6688.221
6685.998
6685.773
6686.987
6687.445
6687.135
6686.746
6686.424
6686.236
6686.13
6686.682
6687.379
6688.411
6689.623
6690.579
6690.943
6690.88
6690.465
6689.602
6688.327
6686.717
6684.81
6682.658
6680.312
6677.798
6675.162
6672.448
6669.684
6666.882
6664.041
6661.143
6658.133
6654.923
6651.437
6647.643
6643.533
6639.151
6634.55
6629.775
6624.856
6619.836
6614.79
6609.792
6604.854
6599.968
6595.109
6590.244
6585.375
6580.488
6575.602
6570.722
6565.92
6561.229
6556.792
6552.599
6548.941
6545.548
6542.621
6539.146
4584.692
4561.71
4507.784
4443.271
4380.49
4325.252
4274.835
4228.698
4186.274
4144.013
4097.801
4058.351
4019.25
3979.854
3939.863
3899.265
3857.991
3815.809
3772.942
3730.264
3688.507
3646.253
3604.746
3564.354
3525.517
3488.766
3454.079
3421.877
3393.7
3370.601
3353.627
3344.556
3344.734
3355.071
3376.571
3410.04
3457.237
3519.572
3598.145
3693.311
3804.962
3932.541
4075.324
4232.364
4401.145
4579.19
4766.052
4959.669
5159.954
5363.191
5564.423
5758.736
5940.146
6102.286
6239.449
6347.29
6423.132
6465.156
6473.205
6448.466
6391.694
6303.928
6187.876
6047.279
5887.719
5715.043
5535.529
5354.321
5175.016
5000.413
4831.772
4668.012
4508.068
4352.9
4202.182
4057.132
3920.726
3794.021
3677.954
3573.291
3481.314
3403.529
3339.279
3285.401
3235.935
3187.986
3141.412
3095.392
3048.535
3001.918
2958.895
2922.722
2896.995
2880.307
2870.76
2863.575
2856.057
2845.577
2834.876
2826.725
2819.244
2810.403
2800.574
2792.955
2796.77
2802.051
2801.194
2796.113
2792.726
2790.307
2788.693
2792.247
2802.984
2808.027
2808.884
2814.221
2823.34
2829.839
2833.765
2845.086
2862.511
2875.538
2891.896
2915.525
2934.252
2952.6
2975.049
2996.606
3013.642
3036.264
3063.42
3094.951
3135.127
3183.732
3239.836
3304.67
3376.905
3453.478
3530.541
3603.039
3668.729
3729.675
3784.784
3828.724
3857.635
3869.271
3869.652
3867.582
3861.222
3847.268
3824.391
3791.323
3749.476
3711.05
3691.414
3690.24
3714.576
3777.153
3867.253
3972.518
4083.589
4199.017
4315.068
4427.605
4534.774
4636.378
4733.045
4825.307
4913.841
4998.602
5077.624
5149.134
5201.657
5243.643
5239.481
5169.835
4947.783
4490.676
4046.452
3692.614
3423.701
3194.19
2916.243
2304.903
1684.673
1484.392
1525.285
1599.126
1655.546
1515.228
1378.531
1333.42
1335.431
1711.551
2925.329
3606.596
3918.685
4190.704
4445.645
4675.01
4862.142
5013.645
5122.816
5199.353
5245.96
5264.081
5256.776
5227.042
5176.651
5107.28
5022.043
4925.019
4819.928
4714.506
4618.58
4545.258
4505.939
4488.938
4485.389
4499.879
4543.591
4621.278
4726.096
4850.864
4984.789
5111.135
5217.29
5302.153
5370.293
5425.119
5469.135
5505.255
5536.229
5563.772
5588.769
5612.074
5634.094
5655.005
5675.168
5694.858
5713.923
5733.418
5753.365
5773.3
5793.971
5815.413
5837.955
5861.315
5885.129
5909.164
5933.085
5956.509
5979.081
6000.498
6020.552
6039.226
6056.727
6073.386
6089.53
6105.464
6121.431
6137.59
6154.05
6170.919
6188.267
6206.068
6224.206
6241.923
6259.193
6275.502
6290.603
6304.456
6317.104
6328.62
6339.137
6348.916
6358.261
6367.366
6376.297
6385.05
6393.701
6402.353
6411.17
6420.434
6430.341
6441.082
6452.799
6465.546
6479.265
6493.796
6508.893
6524.307
6539.872
6555.409
6570.713
6585.605
6599.965
6613.712
6626.579
6638.517
6649.446
6659.265
6667.916
6675.387
6681.691
6686.872
6691.006
6694.19
6696.52
6698.079
6698.959
6699.273
6699.097
6698.589
6697.859
6697.009
6696.135
6695.259
6694.332
6693.238
6691.823
6690.157
6688.417
6686.665
6684.865
6683.049
6681.36
6680.05
6679.251
6679.008
6679.455
6680.587
6682.279
6684.763
6687.965
6691.806
6696.004
6700.464
6705.076
6709.703
6714.232
6718.594
6722.741
6726.623
6730.164
6733.285
6735.943
6738.139
6739.924
6741.452
6742.848
6744.186
6745.512
6746.864
6748.246
6749.655
6751.113
6752.643
6754.283
6756.108
6758.216
6760.66
6763.374
6766.219
6769.019
6771.556
6773.618
6775.311
6776.344
6776.952
6777.289
6777.357
6777.021
6776.316
6775.362
6774.244
6772.98
6771.424
6770.85
6770.029
6768.101
6760.739
6755.366
6762.825
6772.026
6774.661
6774.981
6774.882
6774.431
6773.582
6772.294
6770.538
6768.302
6765.584
6762.398
6758.782
6754.805
6750.568
6746.185
6741.76
6737.363
6733.031
6728.79
6724.686
6720.788
6717.166
6713.88
6710.985
6708.441
6706.122
6703.893
6701.689
6699.374
6696.666
6693.483
6689.921
6686.196
6682.408
6676.987
6671.251
6667.588
6653.303
6646.032
6648.007
6649.46
6658.933
6680.049
6687.373
6688.948
6689.293
6687.717
6685.061
6684.671
6686.322
6687.504
6687.294
6686.874
6686.547
6686.377
6686.362
6686.525
6686.943
6687.648
6687.725
6689.213
6691.762
6692.924
6692.56
6691.62
6690.263
6688.578
6686.569
6684.277
6681.783
6679.096
6676.309
6673.489
6670.663
6667.84
6665.026
6662.215
6659.348
6656.281
6652.876
6649.086
6644.894
6640.415
6635.715
6630.842
6625.779
6620.247
6614.464
6609.87
6605.565
6600.986
6596.33
6591.732
6587.185
6582.655
6578.076
6573.667
6569.4
6565.367
6561.539
6557.899
6554.67
6551.662
6549.004
6545.683
4563.711
4525.988
4450.936
4397.274
4345.768
4298.481
4254.667
4213.511
4174.116
4136.08
4099.243
4061.715
4023.814
3985.19
3945.859
3905.575
3864.303
3822.006
3778.686
3734.889
3692.067
3649.638
3607.685
3566.35
3525.396
3485.147
3446.626
3410.657
3378.422
3351.826
3332.295
3320.672
3318.179
3325.866
3345.038
3376.915
3422.945
3484.167
3561.313
3654.7
3764.324
3889.444
4029.01
4180.76
4342.526
4514.219
4696.032
4885.932
5081.529
5278.863
5472.784
5657.67
5827.483
5976.023
6097.785
6188.719
6246.677
6271.35
6263.813
6225.854
6159.35
6065.226
5945.436
5803.275
5643.06
5470.956
5291.486
5110.292
4935.022
4769.215
4612.129
4460.961
4313.008
4168.86
4030.828
3901.145
3779.394
3663.8
3555.406
3457.318
3373.291
3306.242
3255.455
3217.157
3179.78
3139.986
3099.751
3059.02
3014.973
2967.622
2921.385
2880.347
2849.754
2840.456
2842.074
2841.285
2839.481
2829.195
2818.168
2812.936