/*--------------------------------*- C++ -*----------------------------------*\
| =========                 |                                                 |
| \\      /  F ield         | foam-extend: Open Source CFD                    |
|  \\    /   O peration     | Version:     3.1                                |
|   \\  /    A nd           | Web:         http://www.extend-project.de       |
|    \\/     M anipulation  |                                                 |
\*---------------------------------------------------------------------------*/
FoamFile
{
    version     2.0;
    format      ascii;
    class       surfaceScalarField;
    location    "18";
    object      phi;
}
// * * * * * * * * * * * * * * * * * * * * * * * * * * * * * * * * * * * * * //

dimensions      [0 3 -1 0 0 0 0];

internalField   nonuniform List<scalar> 
275122
(
-0.0003495691
0.0003538743
-3.038002e-07
-4.001416e-06
-0.0003105353
0.0002955896
1.180787e-06
1.376486e-05
-0.000303932
0.0003105737
-3.202813e-07
-6.321337e-06
-0.0003318471
0.0003387619
-4.057497e-07
-6.509001e-06
-0.0003548659
0.0003562474
-4.600591e-07
-9.214016e-07
-0.0003469762
0.0003428216
-4.051226e-07
4.559755e-06
-0.0003312776
0.0003272561
-3.866459e-07
4.408129e-06
-0.0003140403
0.0003096165
-3.638889e-07
4.787736e-06
-0.000296801
0.000292698
-3.350526e-07
4.43811e-06
-0.0002811306
0.0002775665
-2.986555e-07
3.862787e-06
-0.000267801
0.0002648871
-2.543019e-07
3.168207e-06
-0.000257127
0.0002548842
-2.146153e-07
2.457413e-06
-0.0002493288
0.0002478512
-1.820986e-07
1.659652e-06
-0.0002439492
0.0002428113
-1.65753e-07
1.303658e-06
-0.0002398152
0.0002389496
-1.464947e-07
1.012027e-06
-0.0002366761
0.0002360268
-1.280077e-07
7.772723e-07
-0.0002342989
0.0002338078
-1.121954e-07
6.033171e-07
-0.0002324473
0.0002321344
-1.020019e-07
4.149551e-07
-0.0002314029
0.0002314595
-1.281496e-07
7.160448e-08
-0.0002325463
0.0002340176
-4.023335e-07
-1.068969e-06
-0.000265278
0.0002756351
-6.854009e-07
-9.671719e-06
-0.0002854045
0.0002882649
-2.655019e-07
-2.59491e-06
-0.0002998819
0.0003041106
-1.387697e-07
-4.089926e-06
-0.0003475608
0.0003616245
3.834308e-07
-1.44471e-05
-0.0003769885
0.0003818036
3.083252e-07
-5.123419e-06
-0.0003985126
0.000403668
-1.641703e-08
-5.13899e-06
-0.0004178319
0.0004219227
1.342586e-08
-4.104267e-06
-0.0004328087
0.0004347175
2.505379e-09
-1.911247e-06
-0.0004247335
0.000402198
3.808122e-08
2.249742e-05
-0.0002030567
0.000208087
5.003675e-09
-5.035333e-06
-0.000258131
0.0002712464
-6.822034e-08
-1.304714e-05
-0.0003082156
0.0003205355
8.513956e-09
-1.232834e-05
-0.0003579889
0.0003705916
9.05471e-09
-1.261176e-05
-0.0004087065
0.0004215362
9.601002e-09
-1.283927e-05
-0.0004604094
0.0004734906
9.9752e-09
-1.309123e-05
-0.0005132135
0.0005265377
1.140746e-08
-1.333563e-05
-0.0005668382
0.0005803326
1.261711e-08
-1.3507e-05
-0.0006210062
0.0006346082
1.054119e-08
-1.361262e-05
-0.0006754644
0.000689102
7.307496e-09
-1.364494e-05
-0.000729237
0.0007439945
2.212425e-07
-1.497875e-05
1.190042e-05
-0.0005053567
0.0005071739
1.149361e-09
-1.371871e-05
1.208598e-05
-0.0005120779
0.000513515
-6.770442e-10
-1.352243e-05
1.223214e-05
-0.0005175357
0.0005187968
-1.587252e-09
-1.349165e-05
1.248553e-05
-0.0005221492
0.0005231093
-1.951087e-09
-1.34437e-05
1.2667e-05
-0.0005257391
0.0005264628
-1.791524e-09
-1.338883e-05
1.277404e-05
-0.0005282355
0.0005287489
-1.192801e-09
-1.328627e-05
1.288171e-05
-0.0005299569
0.0005302643
-1.117945e-09
-1.318797e-05
1.289318e-05
-0.0005310168
0.0005311943
-1.824044e-09
-1.306885e-05
1.315532e-05
-0.0005314059
0.0005305654
-1.077863e-09
-1.23137e-05
1.049649e-05
-0.002159283
0.00216494
-2.666948e-11
-4.922509e-05
1.133025e-05
1.045553e-05
1.128589e-05
1.228646e-05
-0.002165752
0.002164657
-2.551153e-11
-4.857029e-05
1.258001e-05
1.22555e-05
1.254314e-05
1.21316e-05
-0.002163585
0.002162466
-5.459716e-11
-4.771305e-05
1.231361e-05
1.210027e-05
1.228648e-05
1.212481e-05
-0.002161416
0.002160018
-6.603142e-11
-4.735222e-05
1.227925e-05
1.209444e-05
1.225162e-05
1.219844e-05
-0.002158325
0.002156469
-6.981033e-11
-4.709271e-05
1.230582e-05
1.21699e-05
1.22744e-05
1.224647e-05
-0.002154671
0.002152839
-5.876145e-11
-4.726429e-05
1.233263e-05
1.221548e-05
1.230187e-05
1.239637e-05
-0.002151055
0.002149427
-3.309881e-11
-4.798986e-05
1.24402e-05
1.236713e-05
1.241374e-05
1.257778e-05
-0.002147901
0.002146665
-1.367544e-11
-4.911284e-05
1.262329e-05
1.255046e-05
1.259758e-05
1.281806e-05
-0.002146097
0.002145813
2.305756e-12
-5.123815e-05
1.296564e-05
1.279497e-05
1.294344e-05
1.254244e-05
-0.002143945
0.002145521
-1.269759e-11
-5.211662e-05
1.274757e-05
1.251564e-05
1.273484e-05
1.365292e-05
-0.00214675
0.002147398
-2.415312e-11
-5.537983e-05
1.372284e-05
1.364397e-05
1.371232e-05
1.385619e-05
-0.002148295
0.00214968
-1.136431e-11
-5.663666e-05
1.377737e-05
1.384777e-05
1.377032e-05
1.41109e-05
-0.002151503
0.0021537
-1.076974e-10
-5.853624e-05
1.406671e-05
1.410331e-05
1.405926e-05
1.434568e-05
-0.002156238
0.002159005
3.720629e-12
-6.010265e-05
1.432811e-05
1.433876e-05
1.432371e-05
1.450777e-05
-0.002161918
0.00216494
-2.640099e-11
-6.098253e-05
1.44844e-05
1.44919e-05
1.447678e-05
1.456944e-05
-0.002168032
0.002171036
-1.842982e-11
-6.110798e-05
1.4523e-05
1.45183e-05
1.449271e-05
1.469202e-05
-0.00217403
0.002176692
-1.682362e-11
-6.088978e-05
1.463156e-05
1.44549e-05
1.444875e-05
1.543416e-05
-0.002178547
0.002178554
-1.256276e-11
-6.047975e-05
1.562115e-05
1.46594e-05
1.475886e-05
1.86785e-05
-0.002175233
0.002163848
-1.257155e-11
-5.925115e-05
1.975319e-05
1.637349e-05
1.583053e-05
1.965458e-05
-0.002147042
0.002167045
-5.810492e-12
-3.965768e-05
1.091019e-05
-0.002182937
0.002183687
-8.315381e-13
-1.166028e-05
2.049114e-05
-0.002178401
0.0021726
1.192635e-11
-1.468975e-05
9.095545e-06
-0.002166623
0.002159895
1.993959e-11
-2.366747e-06
-1.082937e-05
-0.002152849
0.002146036
3.069938e-11
1.764165e-05
-3.228459e-05
-0.002140776
0.002135677
4.20341e-11
3.738367e-05
-3.941252e-05
-0.002127798
0.00211744
5.314369e-11
4.977069e-05
-4.549179e-05
-0.002106509
0.002093966
6.314223e-11
5.803386e-05
-4.746771e-05
-0.002079911
0.002064233
7.729406e-11
6.314581e-05
-4.659471e-05
-0.002047303
0.002028961
9.595698e-11
6.493621e-05
-4.306094e-05
-0.002009599
0.001989303
1.083354e-10
6.335677e-05
-3.749248e-05
-0.001968423
0.001947169
9.344794e-11
5.87471e-05
-3.084731e-05
-0.001925722
0.00190463
4.92493e-11
5.193879e-05
-2.423032e-05
-0.001883956
0.001864399
-7.782005e-12
4.378782e-05
-1.771707e-05
-0.001845683
0.001828675
-5.585513e-11
3.472482e-05
-1.129423e-05
-0.001812761
0.001798996
-8.014547e-11
2.505921e-05
-4.942744e-06
-0.001786462
0.001776528
-8.584537e-11
1.487714e-05
2.09039e-06
-0.001767799
0.00176189
-8.555214e-11
3.818378e-06
9.979152e-06
-0.001757192
0.001755687
-8.663927e-11
-8.474019e-06
2.0036e-05
-0.001754711
0.001756886
-8.621172e-11
-2.221086e-05
3.316781e-05
-0.001757874
0.001762371
-7.260397e-11
-3.766563e-05
3.839734e-05
-0.001771013
0.001783092
-5.863692e-11
-5.047612e-05
5.486766e-05
-0.001793588
0.001807681
-5.29417e-11
-6.896124e-05
8.002247e-05
-0.001817094
0.001827958
-4.943229e-11
-9.08866e-05
7.249633e-05
-0.001843799
0.00186697
-4.156459e-11
-9.566644e-05
6.666257e-05
-0.001893774
0.001921673
-4.104961e-11
-9.456213e-05
6.018697e-05
-0.00194948
0.001979023
-3.598619e-11
-8.972924e-05
4.075747e-05
-0.00200903
0.002042393
-3.278634e-11
-7.411946e-05
-1.665633e-05
-0.002075942
0.002139314
-2.669346e-11
-4.67156e-05
-1.783648e-06
-0.002206018
0.002242439
-1.214665e-11
-3.735973e-05
2.366393e-06
-1.843395e-06
2.198983e-06
8.264991e-06
-0.002269516
0.002299254
-1.015539e-11
-6.271421e-05
8.420565e-06
8.068835e-06
8.222253e-06
1.021044e-05
-0.002327562
0.002354641
-4.403684e-12
-6.831567e-05
1.059777e-05
1.001422e-05
1.041402e-05
1.089775e-05
-0.002381928
0.002409833
6.418275e-12
-7.11572e-05
1.08836e-05
1.073881e-05
1.073229e-05
1.073436e-05
-0.002438065
0.002466044
1.897934e-11
-7.045545e-05
1.063378e-05
1.06013e-05
1.050767e-05
9.767605e-06
-0.002493855
0.002520163
2.921804e-11
-6.461986e-05
9.498924e-06
9.654279e-06
9.39073e-06
7.692944e-06
-0.002545391
0.002567679
5.497215e-11
-5.191058e-05
7.212297e-06
7.59552e-06
7.121264e-06
4.363716e-06
-0.002588142
0.002604842
6.604371e-11
-3.257851e-05
3.658855e-06
4.275944e-06
3.579764e-06
8.886745e-08
-0.002618966
0.002627864
8.212411e-11
-7.712598e-06
-6.242452e-07
3.502974e-08
-6.851556e-07
-5.131999e-06
-0.002632725
0.002631018
1.21924e-10
2.419335e-05
-6.166635e-06
-5.073977e-06
-6.113844e-06
-1.218455e-05
-0.002624796
0.002613539
2.204762e-10
6.159372e-05
-1.369037e-05
-1.15201e-05
-1.294221e-05
-2.420211e-05
-0.002598093
0.002580701
4.418348e-10
0.000114304
-2.776132e-05
-2.110918e-05
-2.38391e-05
-4.74894e-05
-0.002565773
0.002552641
7.398961e-10
0.0002037056
-5.719148e-05
-4.019837e-05
-4.569585e-05
-9.426304e-05
-0.002547163
0.002550148
3.838168e-10
0.0003534782
-9.827856e-05
-7.616484e-05
-8.775654e-05
-7.824629e-05
-0.002557349
0.002535732
-4.387964e-10
0.0003462119
-7.053881e-05
-9.095707e-05
-8.485218e-05
-3.669981e-05
-0.002464562
0.002349682
-4.75141e-10
0.0002706238
-3.082387e-05
-4.904354e-05
-3.917546e-05
-1.239377e-05
-0.002214285
0.002079033
3.216473e-11
0.0001840162
-1.089849e-05
-1.389742e-05
-1.157444e-05
-2.848808e-06
-0.001954484
0.001845944
4.514356e-10
0.0001197425
-2.580828e-06
-2.987412e-06
-2.78533e-06
-1.217818e-06
-0.001754221
0.001677576
3.830991e-10
8.230733e-05
-1.428052e-06
-1.397015e-06
-1.619107e-06
-1.560482e-06
-0.00161395
0.001562297
-7.429926e-11
5.835111e-05
-1.653365e-06
-1.70626e-06
-1.7777e-06
-1.218929e-06
-0.001520162
0.001487356
-4.473468e-10
3.7584e-05
-1.118069e-06
-1.275245e-06
-1.165792e-06
6.618348e-09
-0.001461341
0.001442402
-5.335797e-10
1.870643e-05
1.321413e-07
-1.486729e-08
1.093108e-07
1.48647e-06
-0.001428576
0.001420164
-4.315965e-10
2.028342e-06
1.712843e-06
1.476181e-06
1.708787e-06
2.987147e-06
-0.001415213
0.001414345
-2.840624e-10
-1.150178e-05
3.188715e-06
2.993878e-06
3.200514e-06
4.324471e-06
-0.001416105
0.001421241
-1.726144e-10
-2.280403e-05
4.493429e-06
4.340314e-06
4.510746e-06
5.327132e-06
0.001437613
-1.096959e-10
-3.102043e-05
5.438651e-06
5.341808e-06
5.456905e-06
-0.001428157
5.988293e-06
-0.001448414
0.001461153
-8.076686e-11
-3.685619e-05
6.058563e-06
6.000345e-06
6.069885e-06
6.400655e-06
-0.001474921
0.001490164
-7.632345e-11
-4.094344e-05
6.440611e-06
6.411041e-06
6.447649e-06
6.630436e-06
-0.001506173
0.001523323
-8.259533e-11
-4.371168e-05
6.642822e-06
6.637798e-06
6.650819e-06
6.713765e-06
-0.001541054
0.001559616
-9.040772e-11
-4.541549e-05
6.707097e-06
6.719783e-06
6.712977e-06
6.666328e-06
-0.001578586
0.001598086
-9.834867e-11
-4.612074e-05
6.640089e-06
6.67084e-06
6.644258e-06
6.485063e-06
-0.001617821
0.001637784
-1.020646e-10
-4.581622e-05
6.438501e-06
6.488015e-06
6.441158e-06
6.170427e-06
-0.001657823
0.001677808
-1.012073e-10
-4.453804e-05
6.104533e-06
6.172099e-06
6.105933e-06
5.72483e-06
-0.00169771
0.001717285
-9.845926e-11
-4.230425e-05
5.639095e-06
5.725557e-06
5.639619e-06
5.139006e-06
-0.001736654
0.001755468
-9.404581e-11
-3.915741e-05
5.032956e-06
5.139092e-06
5.032853e-06
4.392085e-06
-0.00177396
0.001791629
-8.786316e-11
-3.497929e-05
4.263502e-06
4.391891e-06
4.263298e-06
3.561103e-06
-0.001808797
0.001824858
-8.112485e-11
-3.001567e-05
3.416869e-06
3.560592e-06
3.416323e-06
2.627148e-06
-0.001840259
0.0018543
-7.435992e-11
-2.422221e-05
2.464731e-06
2.626251e-06
2.463919e-06
1.599235e-06
-0.001867532
0.001879256
-6.701063e-11
-1.776415e-05
1.42162e-06
1.598197e-06
1.420893e-06
4.924982e-07
-0.001890059
0.001899176
-5.818535e-11
-1.076744e-05
3.332243e-07
4.918107e-07
3.329159e-07
-6.061097e-07
-0.001907256
0.001913665
-4.728434e-11
-3.668586e-06
-7.647632e-07
-6.051541e-07
-7.64888e-07
-1.704343e-06
-0.001918954
0.001922619
-3.47966e-11
3.506005e-06
-1.881502e-06
-1.703493e-06
-1.880853e-06
-2.77007e-06
-0.001925284
0.001926414
-2.277776e-11
1.028228e-05
-2.937148e-06
-2.769624e-06
-2.936208e-06
-3.756562e-06
-0.001926622
0.001925504
-1.032641e-11
1.642239e-05
-3.896675e-06
-3.755521e-06
-3.895845e-06
-4.648645e-06
-0.001923563
0.001920541
3.357189e-12
2.183526e-05
-4.760111e-06
-4.644238e-06
-4.760155e-06
-5.473544e-06
-0.001916819
0.001912279
1.766069e-11
2.660418e-05
-5.563596e-06
-5.466506e-06
-5.560414e-06
-6.311462e-06
-0.001907187
0.001901541
3.286911e-11
3.098938e-05
-6.372301e-06
-6.29862e-06
-6.360422e-06
-7.284869e-06
-0.00189551
0.001889178
5.0654e-11
3.544968e-05
-7.309511e-06
-7.249576e-06
-7.273006e-06
-8.471216e-06
-0.001882789
0.001876424
7.006087e-11
3.993645e-05
-8.412471e-06
-8.374864e-06
-8.313199e-06
-9.284652e-06
-0.001869748
0.001859803
8.7318e-11
4.489373e-05
-8.323646e-06
-9.147052e-06
-8.193044e-06
-9.041084e-06
-0.001849343
0.001838464
1.012754e-10
4.627047e-05
-8.795728e-06
-8.874797e-06
-8.680076e-06
-1.139894e-05
-0.001831196
0.001821542
1.137176e-10
5.517022e-05
-1.15093e-05
-1.124314e-05
-1.13657e-05
-1.057917e-05
-0.001808736
0.001794851
1.112208e-10
5.579669e-05
-1.039104e-05
-1.055587e-05
-1.038563e-05
-9.801246e-06
-0.001780398
0.0017643
9.516539e-11
5.504128e-05
-9.57834e-06
-9.881383e-06
-9.682434e-06
-8.438453e-06
-0.001746638
0.001727582
8.190159e-11
5.249833e-05
-8.179206e-06
-8.543265e-06
-8.281355e-06
-7.05841e-06
-0.001707467
0.001686562
6.062277e-11
4.884503e-05
-6.843435e-06
-7.131474e-06
-6.906802e-06
-5.898702e-06
-0.001665132
0.001643464
2.809476e-11
4.499823e-05
-5.730603e-06
-5.937323e-06
-5.763001e-06
-4.973263e-06
-0.001621817
0.001600499
-1.551612e-11
4.101236e-05
-4.853999e-06
-4.994879e-06
-4.872656e-06
-4.266246e-06
-0.001579641
0.001559514
-5.952898e-11
3.704915e-05
-4.178491e-06
-4.283329e-06
-4.194551e-06
-3.741973e-06
-0.001540131
0.001521719
-9.1244e-11
3.328692e-05
-3.679568e-06
-3.758233e-06
-3.695215e-06
-3.36634e-06
-0.001504183
0.001487711
-1.06223e-10
2.987887e-05
-3.323646e-06
-3.38046e-06
-3.337077e-06
-3.101688e-06
-0.001472148
0.001457665
-1.035857e-10
2.684561e-05
-3.068927e-06
-3.112875e-06
-3.078974e-06
-2.878923e-06
-0.001444059
0.001431471
-8.802878e-11
2.40484e-05
-2.844912e-06
-2.885054e-06
-2.851811e-06
-2.651989e-06
-0.00141966
0.001408764
-6.827756e-11
2.144318e-05
-2.61887e-06
-2.654945e-06
-2.621454e-06
-2.408247e-06
-0.001398546
0.001389169
-5.235435e-11
1.893226e-05
-2.37e-06
-2.407733e-06
-2.368917e-06
-2.145723e-06
-0.001380399
0.00137242
-4.537305e-11
1.648176e-05
-2.108259e-06
-2.143516e-06
-2.105413e-06
-1.887768e-06
-0.001365001
0.001358346
-4.710264e-11
1.413428e-05
-1.855077e-06
-1.884833e-06
-1.851695e-06
-1.658913e-06
-0.001352224
0.001346851
-5.40126e-11
1.194846e-05
-1.632767e-06
-1.654879e-06
-1.628669e-06
-1.454588e-06
-0.001341982
0.001337809
-6.011579e-11
9.935931e-06
-1.429894e-06
-1.451758e-06
-1.427047e-06
-1.262567e-06
-0.001334084
0.001331001
-5.964562e-11
8.087163e-06
-1.242142e-06
-1.260217e-06
-1.239694e-06
-1.090379e-06
-0.001328321
0.001326236
-5.435892e-11
6.411441e-06
-1.075235e-06
-1.087734e-06
-1.072821e-06
-9.463253e-07
-0.001324539
0.001323389
-4.924444e-11
4.897741e-06
-9.293607e-07
-9.444517e-07
-9.275088e-07
-8.193214e-07
-0.001322589
0.001322294
-4.473632e-11
3.542157e-06
-8.058337e-07
-8.177495e-07
-8.042622e-07
-7.139689e-07
-0.001322314
0.001322796
-4.164076e-11
2.350756e-06
-7.037911e-07
-7.126471e-07
-7.024435e-07
-6.286264e-07
-0.001323597
0.00132482
-3.861317e-11
1.273136e-06
-6.206922e-07
-6.274836e-07
-6.194814e-07
-5.612816e-07
0.001328199
-3.638031e-11
3.551115e-07
-0.001326321
-5.560794e-07
-5.602254e-07
-5.551814e-07
-5.113106e-07
-0.00133031
0.0013328
-3.132504e-11
-4.539879e-07
-5.072296e-07
-5.10576e-07
-5.066181e-07
-4.827423e-07
-0.001335514
0.001338518
-2.396721e-11
-1.076156e-06
-4.815203e-07
-4.822883e-07
-4.810074e-07
-4.736937e-07
-0.001341714
0.00134515
-1.477121e-11
-1.540133e-06
-4.7482e-07
-4.732221e-07
-4.74389e-07
-4.83307e-07
-0.00134874
0.001352524
-7.8211e-12
-1.845678e-06
-4.86531e-07
-4.828799e-07
-4.861366e-07
-5.100624e-07
-0.00135643
0.001360484
-4.701923e-12
-2.00377e-06
-5.152709e-07
-5.096897e-07
-5.149033e-07
-5.532963e-07
-0.001364628
0.001368873
-2.62704e-12
-2.018572e-06
-5.603022e-07
-5.530115e-07
-5.600592e-07
-6.116724e-07
-0.001373177
0.001377537
7.084528e-13
-1.896556e-06
-6.203686e-07
-6.114486e-07
-6.201426e-07
-6.838049e-07
-0.001381925
0.001386324
5.408182e-12
-1.643482e-06
-6.939791e-07
-6.836267e-07
-6.937786e-07
-7.67658e-07
-0.001390719
0.001395082
9.763242e-12
-1.27022e-06
-7.788568e-07
-7.675361e-07
-7.78727e-07
-8.582719e-07
-0.001399412
0.001403679
9.80961e-12
-8.107689e-07
-8.695338e-07
-8.581845e-07
-8.694969e-07
-9.489119e-07
-0.001407891
0.001412013
7.370188e-12
-3.064557e-07
-9.590586e-07
-9.487915e-07
-9.590744e-07
-1.030929e-06
-0.001416028
0.001419959
7.5625e-12
2.038462e-07
-1.037029e-06
-1.030203e-06
-1.036232e-06
-1.12759e-06
-0.001423812
0.00142755
4.169994e-12
7.987075e-07
-1.141486e-06
-1.127232e-06
-1.140687e-06
-1.222838e-06
-0.001431162
0.001434616
9.038107e-12
1.482879e-06
-1.245065e-06
-1.223603e-06
-1.246047e-06
-1.361455e-06
-0.001437982
0.001441215
1.695385e-11
2.239526e-06
-1.375012e-06
-1.361235e-06
-1.374724e-06
-1.473897e-06
-0.0014443
0.001447204
7.66232e-12
3.018415e-06
-1.487444e-06
-1.473349e-06
-1.487158e-06
-1.593338e-06
-0.00144993
0.001452457
6.91945e-12
3.872865e-06
-1.60692e-06
-1.592572e-06
-1.606976e-06
-1.708021e-06
-0.001454795
0.0014569
5.639752e-12
4.74824e-06
-1.71795e-06
-1.707542e-06
-1.719045e-06
-1.83166e-06
-0.00145879
0.001460461
2.852561e-12
5.67764e-06
-1.842554e-06
-1.831179e-06
-1.843564e-06
-1.960724e-06
-0.001461892
0.001463098
1.47029e-12
6.666288e-06
-1.977155e-06
-1.959938e-06
-1.974493e-06
-2.090463e-06
-0.00146405
0.001464767
3.483636e-12
7.706794e-06
-2.122927e-06
-2.090143e-06
-2.119971e-06
-2.232269e-06
-0.001465191
0.00146536
2.790758e-12
8.826888e-06
-2.268656e-06
-2.230129e-06
-2.265322e-06
-2.318754e-06
-0.001465257
0.001464884
-1.097559e-13
9.650495e-06
-2.324958e-06
-2.322674e-06
-2.31201e-06
-2.170279e-06
-0.001464293
0.001462377
-9.538017e-13
9.51703e-06
-1.634027e-06
-2.162586e-06
-1.634043e-06
-8.178402e-07
-0.0003637057
0.0003615148
1.284417e-09
3.007384e-06
-2.58094e-06
-0.0003586682
0.000357745
6.930186e-10
3.5035e-06
-2.500518e-06
-0.0003548247
0.0003538327
7.568204e-10
3.491769e-06
-2.575536e-06
-0.0003508839
0.0003499135
1.57475e-10
3.545783e-06
-2.71842e-06
-0.0003469897
0.0003459871
-3.150796e-10
3.721275e-06
-2.739507e-06
-0.0003429038
0.0003418436
-7.661709e-10
3.80047e-06
-2.789338e-06
-0.0003385919
0.0003374752
-1.120454e-09
3.907131e-06
-2.783639e-06
-0.0003340321
0.0003328553
-1.17278e-09
3.961588e-06
-2.776e-06
-0.0003292701
0.0003280528
-1.416439e-09
3.994674e-06
-2.734506e-06
-0.0003243711
0.0003231338
-1.520721e-09
3.973324e-06
-2.660498e-06
-0.0003194182
0.0003181819
-7.226404e-10
3.897492e-06
-2.568956e-06
-0.0003145133
0.0003133117
-4.079424e-10
3.77089e-06
-2.450656e-06
-0.0003098
0.0003086684
-3.262507e-10
3.582604e-06
-2.296808e-06
-0.0003054013
0.0003043636
-2.388146e-10
3.334727e-06
-2.116255e-06
-0.0003014082
0.0003004858
-1.805894e-10
3.038799e-06
-1.929498e-06
-0.0002979016
0.0002971114
-1.668655e-10
2.719831e-06
-1.751518e-06
-0.0002949369
0.0002942865
-2.295793e-10
2.402135e-06
-1.589367e-06
-0.0002925289
0.0002920155
-3.2604e-10
2.103055e-06
-1.457218e-06
-0.0002906598
0.0002902777
-3.310056e-10
1.839613e-06
-1.335157e-06
-0.0002893028
0.0002890395
-2.430344e-10
1.598773e-06
-1.245809e-06
-0.0002883881
0.0002882296
-1.547169e-10
1.404501e-06
-1.195772e-06
-0.0002878918
0.0002878292
-1.073065e-10
1.258443e-06
-1.146861e-06
-0.0002877596
0.0002877811
-7.148548e-11
1.125456e-06
-1.102462e-06
-0.0002879544
0.0002880534
-3.889565e-11
1.003532e-06
-1.064666e-06
-0.0002884511
0.0002886215
-6.025641e-12
8.942043e-07
-1.034494e-06
-0.0002892261
0.0002894621
2.120742e-11
7.98542e-07
-1.0122e-06
-0.0002902545
0.0002905499
2.914991e-11
7.167652e-07
-9.972713e-07
-0.0002915116
0.00029186
3.582976e-11
6.488669e-07
-9.893905e-07
-0.0002929715
0.000293367
4.032732e-11
5.93879e-07
-9.880959e-07
-0.0002946109
0.0002950474
3.486032e-11
5.515119e-07
-9.916243e-07
-0.0002964038
0.0002968762
2.369059e-11
5.192317e-07
-9.972279e-07
-0.0002983321
0.0002988377
1.139534e-11
4.916199e-07
-9.991724e-07
-0.0003003836
0.0003009254
1.71767e-11
4.57355e-07
-9.798844e-07
-0.0003025777
0.0003031721
3.168609e-11
3.854454e-07
-8.790173e-07
-0.0003050427
0.0003057799
3.853072e-11
1.417684e-07
6.949845e-07
-0.000308109
0.0003082348
9.369888e-11
-8.208332e-07
1.417447e-06
-0.0003092731
0.0003097136
6.988245e-11
-1.858043e-06
1.546517e-06
-0.0003108649
0.0003112775
1.315846e-10
-1.95927e-06
1.583479e-06
-0.0003125335
0.0003129533
1.733704e-10
-2.003434e-06
1.575391e-06
-0.0003141886
0.0003145868
2.235732e-10
-1.973863e-06
1.549861e-06
-0.0003157368
0.0003161006
2.524158e-10
-1.913934e-06
1.517969e-06
-0.0003171361
0.0003174571
2.696712e-10
-1.839253e-06
1.485523e-06
-0.0003183549
0.0003186271
2.596731e-10
-1.758067e-06
1.454814e-06
-0.0003193744
0.0003195953
2.272602e-10
-1.675863e-06
1.425196e-06
-0.0003201846
0.0003203519
1.472837e-10
-1.592633e-06
1.397613e-06
-0.0003207788
0.0003208914
8.545205e-11
-1.510292e-06
1.374799e-06
-0.0003211559
0.0003212137
4.982963e-11
-1.432622e-06
1.356304e-06
-0.0003213122
0.0003213182
9.169027e-12
-1.362244e-06
1.342916e-06
-0.0003212694
0.0003212276
-1.359207e-11
-1.301128e-06
1.333222e-06
-0.0003210429
0.00032096
-3.124203e-11
-1.250212e-06
1.328708e-06
-0.0003206622
0.0003205462
-4.150399e-11
-1.21267e-06
1.328985e-06
-0.0003201612
0.0003200202
-7.040034e-11
-1.187949e-06
1.336357e-06
-0.0003195696
0.0003194095
-1.161206e-10
-1.176171e-06
1.358427e-06
-0.000318921
0.0003187508
-1.615922e-10
-1.18799e-06
1.383216e-06
-0.0003182694
0.0003181053
-1.788092e-10
-1.218948e-06
1.414384e-06
-0.0003176301
0.0003174763
-1.528026e-10
-1.26039e-06
1.449751e-06
-0.0003170438
0.0003169082
-1.472104e-10
-1.314037e-06
1.49039e-06
-0.0003165418
0.000316432
-1.349383e-10
-1.380412e-06
1.536471e-06
-0.0003161516
0.0003160741
-1.09884e-10
-1.458797e-06
1.586389e-06
-0.0003158975
0.0003158568
-8.939074e-11
-1.545585e-06
1.639738e-06
-0.0003157968
0.0003157974
-1.027705e-10
-1.640274e-06
1.695258e-06
-0.0003158582
0.0003159011
-1.034953e-10
-1.7381e-06
1.752757e-06
-0.0003160921
0.0003161795
-8.670013e-11
-1.840074e-06
1.809058e-06
-0.0003164959
0.0003166266
-7.71385e-11
-1.939671e-06
1.864565e-06
-0.0003170689
0.0003172411
-5.189721e-11
-2.036703e-06
1.916631e-06
-0.000317804
0.0003180158
-3.232256e-11
-2.128441e-06
1.962725e-06
-0.0003186887
0.0003189382
-1.008689e-10
-2.212058e-06
1.993153e-06
-0.0003197166
0.0003200061
-4.221275e-11
-2.282606e-06
2.029217e-06
-0.0003208865
0.000321207
-8.436249e-12
-2.349686e-06
2.064669e-06
-0.0003223147
0.0003226592
1.661668e-10
-2.40936e-06
2.844043e-06
-0.0003210057
0.001319442
-2.113798e-11
-1.095485e-05
5.247155e-07
2.849104e-06
5.072862e-07
-0.000321011
-0.0003365965
-0.0003365988
1.473237e-06
-0.001326842
0.00133053
-7.258466e-12
-1.061963e-05
2.017045e-06
1.447188e-06
1.994039e-06
1.815595e-06
-0.001333328
0.001336063
-2.138202e-12
-1.02039e-05
1.93791e-06
1.796072e-06
1.919444e-06
1.86766e-06
-0.001339414
0.00134291
-7.53797e-12
-1.107738e-05
1.940175e-06
1.85042e-06
1.92328e-06
1.968718e-06
-0.001346522
0.001349922
-1.678371e-11
-1.138986e-05
2.042594e-06
1.952622e-06
2.026704e-06
2.036788e-06
-0.001353258
0.001356502
-2.137124e-11
-1.146375e-05
2.087564e-06
2.021681e-06
2.072853e-06
2.069201e-06
-0.001359814
0.001363062
-2.156895e-11
-1.153187e-05
2.088408e-06
2.052e-06
2.074232e-06
2.091234e-06
-0.001366329
0.001369582
-1.910385e-11
-1.16246e-05
2.108827e-06
2.076548e-06
2.095009e-06
2.112749e-06
-0.001372857
0.001376078
-1.627508e-11
-1.167464e-05
2.127683e-06
2.098951e-06
2.114391e-06
2.13716e-06
-0.001379295
0.001382464
-1.378266e-11
-1.171604e-05
2.149164e-06
2.124468e-06
2.136627e-06
2.156009e-06
-0.001385627
0.00138874
-1.007443e-11
-1.173351e-05
2.16551e-06
2.144451e-06
2.154176e-06
2.170428e-06
-0.001391843
0.001394897
-5.484609e-12
-1.173064e-05
2.177894e-06
2.159963e-06
2.167544e-06
2.180147e-06
-0.001397937
0.001400932
-2.095824e-12
-1.170792e-05
2.185996e-06
2.170644e-06
2.176624e-06
2.183262e-06
-0.001403912
0.001406852
-5.447572e-13
-1.166307e-05
2.187172e-06
2.174577e-06
2.178541e-06
2.175829e-06
-0.001409781
0.001412673
1.011529e-13
-1.158286e-05
2.177314e-06
2.16792e-06
2.169267e-06
2.152918e-06
-0.001415559
0.001418409
6.68148e-13
-1.144258e-05
2.150856e-06
2.145517e-06
2.14343e-06
2.107345e-06
-0.001421255
0.001424059
1.623338e-12
-1.120566e-05
2.100116e-06
2.100353e-06
2.093163e-06
2.031189e-06
-0.00142686
0.001429609
3.199703e-12
-1.083425e-05
2.01791e-06
2.02483e-06
2.011099e-06
1.919903e-06
-0.001432353
0.001435034
5.362737e-12
-1.030939e-05
1.900478e-06
1.913767e-06
1.89398e-06
1.781814e-06
-0.001437704
0.001440283
7.582808e-12
-9.650628e-06
1.759914e-06
1.775941e-06
1.753895e-06
1.641685e-06
-0.001442819
0.001445214
9.672249e-12
-8.907194e-06
1.620297e-06
1.636389e-06
1.614687e-06
1.496245e-06
-0.001447532
0.001449678
1.267539e-11
-8.075254e-06
1.472882e-06
1.49146e-06
1.468023e-06
1.346491e-06
-0.001451721
0.00145355
1.504597e-11
-7.162114e-06
1.324426e-06
1.342313e-06
1.320292e-06
1.207507e-06
-0.001455231
0.001456643
1.615697e-11
-6.197552e-06
1.189261e-06
1.203682e-06
1.185881e-06
1.087376e-06
-0.001457847
0.001458719
1.785245e-11
-5.187696e-06
1.074031e-06
1.083903e-06
1.070615e-06
9.855822e-07
-0.001459326
0.00145956
2.139201e-11
-4.15091e-06
9.762167e-07
9.823431e-07
9.727607e-07
9.032017e-07
-0.001459504
0.001459043
2.310575e-11
-3.136112e-06
8.981297e-07
9.001753e-07
8.951343e-07
8.383202e-07
-0.001458237
0.001457026
1.644435e-11
-2.128818e-06
8.343898e-07
8.356001e-07
8.317912e-07
7.801601e-07
-0.001455494
0.001453577
2.308156e-12
-1.192845e-06
7.766056e-07
7.779916e-07
7.745987e-07
7.266115e-07
-0.00145136
0.001448807
-1.273229e-11
-3.428285e-07
7.229976e-07
7.250575e-07
7.215667e-07
6.777941e-07
-0.001445989
0.00144286
-2.176775e-11
4.320327e-07
6.719089e-07
6.767209e-07
6.709208e-07
6.361246e-07
-0.001439505
0.001435918
-2.207804e-11
1.053215e-06
6.315761e-07
6.353682e-07
6.308363e-07
6.07124e-07
-0.001432157
0.001428224
-1.468121e-11
1.511182e-06
6.04132e-07
6.065016e-07
6.034936e-07
5.929465e-07
-0.001424163
0.001419986
-2.987529e-12
1.809145e-06
5.91831e-07
5.923237e-07
5.912412e-07
5.93724e-07
-0.001415718
0.001411377
9.911005e-12
1.965536e-06
5.944925e-07
5.93181e-07
5.939895e-07
6.085313e-07
-0.001406977
0.001402539
2.037409e-11
1.999107e-06
6.111471e-07
6.080786e-07
6.106956e-07
6.371348e-07
-0.00139807
0.001393596
2.710493e-11
1.917893e-06
6.415576e-07
6.366981e-07
6.41104e-07
6.800108e-07
-0.001389119
0.001384671
2.972511e-11
1.715558e-06
6.863939e-07
6.796539e-07
6.860346e-07
7.368394e-07
-0.001380254
0.0013759
2.948808e-11
1.390528e-06
7.451417e-07
7.365503e-07
7.448241e-07
8.075871e-07
-0.001371605
0.001367399
2.688933e-11
9.54408e-07
8.18227e-07
8.073212e-07
8.180246e-07
8.866779e-07
-0.001363277
0.001359283
2.270328e-11
4.256687e-07
8.977935e-07
8.862013e-07
8.971984e-07
9.709184e-07
-0.001355427
0.001351706
1.787161e-11
-1.89346e-07
9.844129e-07
9.704e-07
9.841134e-07
1.073705e-06
-0.001348114
0.001344658
1.253181e-11
-8.705975e-07
1.089528e-06
1.073657e-06
1.089504e-06
1.172058e-06
-0.001341324
0.001338149
3.328535e-12
-1.540426e-06
1.185412e-06
1.172178e-06
1.185506e-06
1.218663e-06
-0.00133511
0.001332308
3.35534e-12
-2.073187e-06
1.218362e-06
1.218939e-06
1.218585e-06
1.129423e-06
-0.00132979
0.001327724
-4.503495e-11
-2.330311e-06
1.068967e-06
1.128881e-06
1.068677e-06
1.065128e-06
-0.001325863
0.00132422
-4.75072e-11
-2.603383e-06
1.059017e-06
1.065275e-06
1.057402e-06
1.118688e-06
-0.001322728
0.001321429
-7.916413e-11
-3.201854e-06
1.132985e-06
1.117749e-06
1.131794e-06
1.183048e-06
-0.001320295
0.001319385
-4.457445e-11
-3.842949e-06
1.193098e-06
1.182813e-06
1.193809e-06
1.237596e-06
-0.00131863
0.001318075
-1.756974e-11
-4.416735e-06
1.248758e-06
1.237201e-06
1.248369e-06
1.293659e-06
-0.001317654
0.001317409
-3.220292e-11
-4.945774e-06
1.302464e-06
1.293276e-06
1.301519e-06
1.345441e-06
-0.001317293
0.001317345
-1.791273e-11
-5.442566e-06
1.350247e-06
1.344269e-06
1.350537e-06
1.358744e-06
-0.001317558
0.001317959
-4.519095e-11
-5.803544e-06
1.34446e-06
1.356342e-06
1.342327e-06
1.232036e-06
-0.001318595
0.00132023
-2.418966e-11
-6.642465e-06
1.276381e-06
1.227947e-06
1.271631e-06
1.587795e-06
-0.001322371
0.001321867
-2.316406e-11
-5.638893e-06
1.473428e-06
1.598378e-06
1.483265e-06
1.521698e-06
-0.001321795
0.0013225
-6.820679e-12
-6.562089e-06
1.39646e-06
1.532431e-06
1.406344e-06
1.50127e-06
-0.001323573
0.001324884
-5.004834e-12
-7.213459e-06
1.440739e-06
1.510461e-06
1.449293e-06
1.520637e-06
-0.001326158
0.001327633
-4.642492e-12
-7.498246e-06
1.483521e-06
1.528419e-06
1.490901e-06
1.543036e-06
-0.001329174
0.0013309
-2.09526e-12
-7.862176e-06
1.518419e-06
1.549799e-06
1.524877e-06
1.575323e-06
-0.001332667
0.001334555
-3.103197e-12
-8.174808e-06
1.562038e-06
1.581357e-06
1.567896e-06
1.612701e-06
-0.001336477
0.001338509
-1.005521e-12
-8.481633e-06
1.606711e-06
1.618282e-06
1.612023e-06
1.650487e-06
-0.001340583
0.001342766
3.38488e-12
-8.787864e-06
1.647065e-06
1.65533e-06
1.651685e-06
1.68113e-06
-0.001345003
0.001347348
3.505146e-12
-9.075786e-06
1.680588e-06
1.68526e-06
1.684568e-06
1.702809e-06
-0.001349746
0.001352241
1.391591e-12
-9.311576e-06
1.701349e-06
1.706565e-06
1.705061e-06
1.706355e-06
-0.001354788
0.001357409
8.929251e-13
-9.444503e-06
1.702303e-06
1.709828e-06
1.705634e-06
1.685293e-06
-0.001360067
0.001362755
1.30414e-12
-9.420026e-06
1.677909e-06
1.688422e-06
1.680861e-06
1.636499e-06
-0.001365455
0.001368126
1.205819e-12
-9.200498e-06
1.625583e-06
1.639245e-06
1.628184e-06
1.561852e-06
-0.001370774
0.001373331
5.62784e-13
-8.782078e-06
1.548234e-06
1.564291e-06
1.55055e-06
1.469596e-06
-0.001375826
0.001378181
-1.658332e-13
-8.208784e-06
1.454851e-06
1.471783e-06
1.45694e-06
1.372113e-06
-0.001380445
0.001382541
-7.721617e-13
-7.559847e-06