/*--------------------------------*- C++ -*----------------------------------*\
| =========                 |                                                 |
| \\      /  F ield         | foam-extend: Open Source CFD                    |
|  \\    /   O peration     | Version:     3.1                                |
|   \\  /    A nd           | Web:         http://www.extend-project.de       |
|    \\/     M anipulation  |                                                 |
\*---------------------------------------------------------------------------*/
FoamFile
{
    version     2.0;
    format      ascii;
    class       volScalarField;
    location    "1.5";
    object      k;
}
// * * * * * * * * * * * * * * * * * * * * * * * * * * * * * * * * * * * * * //

dimensions      [0 2 -2 0 0 0 0];

internalField   nonuniform List<scalar> 
119952
(
0.01368061
0.01157478
0.01119666
0.01149679
0.01169951
0.01155764
0.01161913
0.01174598
0.01187575
0.01198517
0.01206772
0.01212399
0.01215736
0.01217206
0.01217218
0.01216145
0.01214356
0.01212351
0.01211343
0.01216935
0.01334699
0.01303105
0.01304949
0.01432073
0.01391664
0.01370198
0.0134991
0.01330728
0.01280585
0.01719876
0.01571726
0.01445037
0.01395606
0.01395567
0.01424878
0.01469956
0.01521739
0.01574727
0.01626478
0.01681992
0.01711013
0.01844623
0.02010486
0.02183434
0.02350025
0.02505508
0.0264802
0.02777948
0.02896158
0.03441776
0.03520048
0.0359963
0.03684722
0.03775752
0.03871168
0.03968651
0.0406607
0.04161737
0.04254744
0.04338124
0.04413838
0.04487132
0.0456095
0.04636565
0.04714125
0.04793195
0.04873884
0.04962902
0.05039752
0.05060177
0.05085914
0.05117971
0.05145333
0.05161694
0.05172351
0.0518233
0.05192599
0.05203206
0.05213843
0.05224186
0.0523399
0.05243118
0.05251537
0.0525931
0.0526667
0.05274144
0.05282922
0.05295663
0.05315469
0.0533616
0.05361526
0.05402801
0.05440437
0.05457317
0.05460744
0.05448881
0.05403358
0.05317242
0.05276593
0.05247678
0.05221991
0.05197854
0.05175579
0.05155533
0.05137792
0.05122217
0.05108584
0.0509663
0.05086073
0.05076638
0.05068074
0.05060169
0.05052748
0.05045672
0.0503883
0.05032128
0.05025485
0.05018831
0.050121
0.05005237
0.04998189
0.04990905
0.04983337
0.04975439
0.04967181
0.0495854
0.04949498
0.04940054
0.04930229
0.04920061
0.04909597
0.04898899
0.04888034
0.0487708
0.04866109
0.04855187
0.04844358
0.04833651
0.04823083
0.04812654
0.04802356
0.04792175
0.04782085
0.0477207
0.04762131
0.04752396
0.04743913
0.04739125
0.04731184
0.04716753
0.04696958
0.04673661
0.04648469
0.04622521
0.04596574
0.04571099
0.04546363
0.04522502
0.04499561
0.04477529
0.0445636
0.04435992
0.04416357
0.04397388
0.04379025
0.0436121
0.04343891
0.04327033
0.04310637
0.04294689
0.04279096
0.04263797
0.04248785
0.04234058
0.04219601
0.04205393
0.04191408
0.04177622
0.04164012
0.04150555
0.04137233
0.04124028
0.0411092
0.04097895
0.04084938
0.04072034
0.04059172
0.0404634
0.04033526
0.04020723
0.04007923
0.03995126
0.03982327
0.03969535
0.03956762
0.03944114
0.039334
0.03755845
0.03500112
0.0338911
0.0331747
0.03258791
0.03206679
0.03159521
0.03116695
0.0307772
0.0304211
0.03009408
0.02979187
0.02951077
0.02924741
0.02900001
0.02876671
0.0285447
0.0283319
0.02812781
0.02793158
0.02774236
0.02755941
0.0273821
0.0272098
0.02704206
0.02687853
0.02671888
0.02656292
0.02641055
0.02626182
0.02611706
0.02597696
0.02584335
0.02571802
0.0256134
0.02559563
0.02592592
0.02631088
0.02668107
0.02702237
0.02733245
0.02761441
0.02787115
0.02810722
0.02832637
0.0285316
0.02872542
0.02890976
0.02908621
0.02925599
0.02942006
0.02957918
0.02973393
0.02988481
0.0300322
0.03017641
0.0303177
0.03045629
0.03059238
0.03072615
0.03085778
0.03098743
0.03111529
0.03124151
0.03136631
0.03148993
0.03161254
0.03173443
0.03185611
0.03197643
0.03674345
0.03675861
0.03675934
0.0368089
0.03694017
0.03715804
0.03744945
0.03779326
0.03816742
0.03855359
0.03893782
0.0393107
0.03966673
0.04000326
0.04031957
0.04061614
0.0408941
0.04115492
0.04140016
0.04163136
0.04184997
0.04205731
0.04225457
0.04244278
0.04262282
0.04279545
0.0429613
0.0431209
0.04327472
0.04342318
0.04356667
0.04370555
0.04384016
0.04397086
0.04409796
0.04422179
0.04434263
0.04446076
0.0445764
0.04468971
0.04480079
0.04490955
0.0450157
0.0451185
0.04521608
0.04530386
0.04537359
0.04543643
0.04549625
0.04555486
0.0456134
0.04567227
0.04573146
0.04580365
0.04582781
0.04577944
0.04572905
0.04570211
0.04571643
0.0457811
0.04589607
0.04605425
0.04624542
0.0464581
0.04668181
0.04690818
0.04713112
0.0473466
0.04755227
0.047747
0.04793049
0.04810297
0.048265
0.0484173
0.04856064
0.04869581
0.04882357
0.04894461
0.04905959
0.0491691
0.04927367
0.04937381
0.04946996
0.04956252
0.04965186
0.04973832
0.0498222
0.04990377
0.04998328
0.05006097
0.05013703
0.05021164
0.05028498
0.05035719
0.05042842
0.05049878
0.05056839
0.05063737
0.05070581
0.05077381
0.05084148
0.05090891
0.0509762
0.05104344
0.05111075
0.05117821
0.05124592
0.05131395
0.05138238
0.05145126
0.05152065
0.05159057
0.05166102
0.051732
0.05180347
0.05187539
0.05194769
0.05202029
0.0520931
0.05216603
0.05223901
0.05231197
0.05238492
0.05245787
0.05253094
0.05260431
0.05267829
0.05275331
0.05283
0.05290927
0.05299247
0.05308159
0.05317968
0.05329211
0.05342864
0.05360935
0.05388128
0.05440066
0.05507969
0.01830665
0.01727873
0.01685573
0.0168038
0.01697057
0.01725068
0.01758736
0.01793976
0.01830016
0.01809857
0.0184808
0.01953165
0.02085605
0.02225134
0.02362835
0.02493972
0.02616754
0.02730778
0.03256277
0.03324396
0.03392038
0.03461802
0.03536706
0.03617252
0.03702528
0.03790972
0.03880988
0.03971189
0.04060535
0.04141557
0.04217686
0.04292304
0.0436724
0.04443545
0.04521483
0.04600784
0.04681126
0.04757256
0.04822185
0.04885143
0.0494802
0.05011771
0.05077071
0.05144272
0.05213241
0.05283599
0.05354885
0.05425187
0.05493616
0.05559905
0.05624258
0.05687256
0.05749565
0.05811762
0.0587423
0.05936626
0.06493127
0.06553726
0.06611749
0.06667418
0.06721279
0.06773939
0.06825923
0.06877618
0.06929196
0.06980554
0.07031511
0.07081838
0.07131298
0.07179846
0.07227587
0.07274731
0.07321575
0.07368536
0.07415285
0.07455558
0.07489487
0.07521376
0.07549789
0.07572648
0.07590203
0.07603939
0.07614891
0.07624079
0.07632206
0.07639721
0.07646909
0.07653957
0.07660997
0.07668135
0.07675506
0.07683337
0.07692008
0.07702073
0.07713859
0.07726816
0.07741189
0.07757877
0.07775899
0.07790476
0.07799814
0.07801904
0.07795313
0.07780413
0.07766867
0.07757895
0.07751213
0.07745512
0.07739938
0.07734143
0.07728068
0.07721789
0.0771543
0.07709112
0.07702936
0.07696971
0.07691255
0.076858
0.07680595
0.07675619
0.0767084
0.07666223
0.07661724
0.07657299
0.07652898
0.07648468
0.07643952
0.07639294
0.07634436
0.07629323
0.07623904
0.07618136
0.07611985
0.07605432
0.07598474
0.07591125
0.0758342
0.07575405
0.07567141
0.07558699
0.07550156
0.07541581
0.07533035
0.07524566
0.07516212
0.07507996
0.0749993
0.07492016
0.07484244
0.07476604
0.07469084
0.07461699
0.07454508
0.07447562
0.07441001
0.07434955
0.07429066
0.07422921
0.07416197
0.07408715
0.07400421
0.07391344
0.07381569
0.07371202
0.07360354
0.0734913
0.07337626
0.0732592
0.0731408
0.07302161
0.0729021
0.07278267
0.07266367
0.0725454
0.07242819
0.0723123
0.07219788
0.07208502
0.07197383
0.07186441
0.0717568
0.07165104
0.0715471
0.07144497
0.07134458
0.07124584
0.07114867
0.07105296
0.0709586
0.07086548
0.07077347
0.07068247
0.07059237
0.07050307
0.07041448
0.07032651
0.0702391
0.0701522
0.07006577
0.06997984
0.06989455
0.06981031
0.06972788
0.06965107
0.06688206
0.06525668
0.0646646
0.06438898
0.06420773
0.06405071
0.06389591
0.06373718
0.06357378
0.06340678
0.06323771
0.06306813
0.06289942
0.06273273
0.0625691
0.06240929
0.06225377
0.06210287
0.06195682
0.0618158
0.06167986
0.06154896
0.06142302
0.06130194
0.06118553
0.06107376
0.06096645
0.06086354
0.06076509
0.06067131
0.06058272
0.06050042
0.06042662
0.06036587
0.06032921
0.06033731
0.06038641
0.0604618
0.06055274
0.06065381
0.06076162
0.06087384
0.06098856
0.06110424
0.06121964
0.0613338
0.06144599
0.06155567
0.06166249
0.06176624
0.0618668
0.06196415
0.0620583
0.06214933
0.06223732
0.06232239
0.06240466
0.06248427
0.06256135
0.06263609
0.06270866
0.06277927
0.06284816
0.06291558
0.06298179
0.06304706
0.06311163
0.06317568
0.06323916
0.06329616
0.06811057
0.06826655
0.0683844
0.06847266
0.06854098
0.06859822
0.06865165
0.06870691
0.06876788
0.06883688
0.068915
0.06900233
0.0690983
0.06920192
0.06931197
0.0694272
0.06954636
0.06966833
0.0697921
0.0699168
0.0700417
0.07016619
0.07028973
0.0704119
0.07053233
0.07065071
0.07076678
0.07088035
0.07099125
0.07109938
0.07120468
0.07130716
0.07140685
0.07150384
0.07159825
0.07169023
0.07177995
0.07186755
0.07195319
0.07203697
0.07211894
0.07219906
0.07227716
0.07235287
0.07242546
0.07249355
0.0725571
0.07261766
0.07267621
0.07273334
0.07278951
0.07284491
0.07290022
0.07295519
0.07300518
0.07304994
0.07309047
0.07312729
0.07316163
0.07319542
0.0732309
0.07327025
0.07331523
0.07336697
0.07342593
0.07349198
0.07356454
0.07364271
0.07372545
0.07381163
0.07390021
0.07399018
0.07408071
0.07417107
0.07426067
0.07434907
0.07443592
0.07452099
0.07460413
0.07468525
0.07476433
0.07484141
0.07491654
0.07498981
0.07506132
0.07513119
0.07519955
0.07526651
0.07533221
0.07539676
0.07546029
0.07552291
0.07558473
0.07564586
0.07570639
0.07576642
0.07582605
0.07588538
0.07594449
0.07600348
0.07606246
0.07612152
0.07618076
0.07624029
0.0763002
0.07636058
0.07642154
0.07648315
0.07654547
0.07660855
0.07667242
0.07673709
0.07680253
0.07686872
0.07693559
0.07700306
0.07707102
0.07713936
0.07720796
0.0772767
0.0773455
0.07741427
0.07748298
0.07755168
0.07762047
0.07768954
0.07775923
0.07783
0.07790254
0.0779778
0.07805712
0.0781424
0.07823638
0.0783431
0.07846858
0.07862217
0.07881946
0.07907159
0.07930545
0.0263263
0.02406059
0.02766015
0.03007914
0.03150202
0.03237022
0.03290186
0.03319869
0.03333122
0.03363616
0.03660384
0.04018303
0.04291458
0.04485874
0.04619384
0.04711241
0.04776453
0.048256
0.0486403
0.05526043
0.0551775
0.05517278
0.05528372
0.0554894
0.0557443
0.05600494
0.0562385
0.05642226
0.05653516
0.05652507
0.05640781
0.0562297
0.05602459
0.05581077
0.0555984
0.05539326
0.05519949
0.05503835
0.05472926
0.05443641
0.0541846
0.05398397
0.05384413
0.05377176
0.05376899
0.0538347
0.05396555
0.05415689
0.05438881
0.05465836
0.05495897
0.05528826
0.05564661
0.05603452
0.05645159
0.05689291
0.06221856
0.06268967
0.06316608
0.06364315
0.06412055
0.0646003
0.06508478
0.06557597
0.06607522
0.06658241
0.06709615
0.06761615
0.0681395
0.06866395
0.06918811
0.06971177
0.07023527
0.07075947
0.07128479
0.07181018
0.0723372
0.0728644
0.07338832
0.07390729
0.07442109
0.0749305
0.07543677
0.07594112
0.07644436
0.07694628
0.077446
0.07794206
0.07843234
0.07891412
0.07938382
0.07983837
0.08028716
0.08074965
0.08111862
0.08150911
0.08191288
0.0823236
0.0827368
0.08314999
0.08356212
0.08397288
0.08438212
0.08478952
0.08519462
0.08559668
0.08599489
0.08638833
0.08677626
0.08715827
0.08753408
0.08790233
0.08825597
0.08857393
0.08885936
0.08912455
0.0893664
0.08957723
0.08975957
0.08990935
0.09003562
0.09014464
0.09024114
0.09032879
0.09041041
0.09048823
0.09056408
0.09063958
0.09071658
0.09079737
0.09088473
0.09098173
0.09108986
0.09120292
0.0913189
0.09144327
0.09156857
0.09167985
0.09174849
0.09176907
0.09173918
0.09166797
0.09160085
0.09155947
0.0915364
0.09152336
0.09151457
0.09150618
0.09149607
0.09148332
0.09146775
0.09144963
0.09142938
0.09140744
0.09138419
0.09135991
0.09133479
0.09130891
0.09128228
0.09125483
0.09122648
0.09119712
0.09116655
0.09113453
0.09110074
0.09106482
0.09102636
0.09098495
0.09094018
0.0908917
0.09083921
0.0907825
0.09072152
0.09065641
0.09058749
0.09051521
0.09044018
0.09036317
0.09028492
0.09020608
0.09012722
0.09004886
0.08997139
0.0898951
0.08982019
0.0897467
0.08967463
0.08960387
0.08953433
0.08946607
0.08939926
0.08933353
0.08926863
0.08920516
0.08914306
0.08908161
0.08901984
0.08895687
0.0888918
0.0888243
0.08875413
0.08868124
0.08860559
0.08852731
0.08844661
0.0883637
0.08827883
0.08819223
0.08810417
0.08801492
0.08792472
0.08783386
0.0877426
0.08765127
0.08755996
0.08746902
0.08737859
0.08728883
0.08719988
0.08711186
0.0870249
0.08693889
0.086854
0.08677022
0.08668742
0.08660566
0.08652487
0.08644497
0.08636588
0.08628752
0.08620982
0.08613271
0.08605612
0.08598001
0.08590432
0.08582903
0.08575411
0.0856796
0.08560559
0.08553172
0.0854565
0.0853669
0.08517921
0.08512898
0.08510474
0.08507778
0.08504224
0.08499777
0.08494499
0.08488466
0.08481745
0.08474406
0.08466523
0.08458171
0.08449433
0.0844039
0.08431125
0.08421718
0.0841224
0.08402757
0.08393326
0.08383998
0.08374818
0.08365821
0.08357041
0.08348487
0.08340192
0.08332173
0.08324445
0.0831703
0.08309957
0.08303273
0.08297054
0.08291447
0.08286687
0.08283304
0.08281688
0.08281496
0.0828274
0.08285109
0.08288303
0.08292106
0.08296362
0.0830096
0.08305821
0.08310881
0.08316092
0.0832141
0.083268
0.08332227
0.08337661
0.08343077
0.08348454
0.08353774
0.08359021
0.08364182
0.0836925
0.08374216
0.08379079
0.08383837
0.08388492
0.08393052
0.08397524
0.08401921
0.08406259
0.08410557
0.08414834
0.08419107
0.08423401
0.08427759
0.0843242
0.08438911
0.08436278
0.08436331
0.08437965
0.08440498
0.08443523
0.084468
0.0845023
0.08453813
0.08457599
0.08461654
0.08466044
0.08470821
0.08476019
0.08481652
0.08487718
0.08494201
0.08501071
0.08508294
0.0851583
0.08523634
0.08531662
0.08539872
0.08548219
0.08556662
0.08565161
0.08573678
0.08582177
0.08590628
0.08599001
0.08607274
0.08615427
0.08623448
0.08631328
0.08639063
0.08646654
0.08654104
0.0866142
0.0866861
0.0867568
0.08682636
0.0868948
0.08696208
0.08702808
0.0870926
0.08715527
0.08721564
0.08727372
0.08733007
0.08738522
0.08743955
0.08749333
0.08754674
0.08759995
0.08765271
0.08770403
0.08775397
0.08780275
0.08785022
0.08789635
0.08794129
0.08798541
0.08802925
0.08807345
0.08811865
0.08816537
0.08821404
0.08826488
0.08831796
0.08837321
0.08843045
0.08848939
0.08854971
0.08861108
0.08867316
0.08873562
0.08879821
0.08886066
0.08892279
0.08898445
0.08904552
0.08910594
0.08916566
0.08922466
0.08928296
0.08934058
0.08939757
0.08945397
0.08950983
0.08956522
0.08962019
0.08967481
0.08972914
0.08978323
0.08983715
0.08989097
0.08994474
0.08999853
0.09005241
0.09010645
0.09016073
0.09021532
0.09027031
0.09032579
0.09038184
0.09043856
0.09049603
0.09055431
0.0906135
0.09067363
0.09073474
0.09079686
0.09085997
0.09092405
0.09098905
0.0910549
0.09112148
0.0911887
0.09125642
0.09132452
0.09139287
0.09146136
0.09152991
0.0915985
0.09166714
0.09173594
0.09180509
0.09187492
0.09194588
0.09201862
0.09209405
0.09217339
0.09225826
0.09235087
0.09245415
0.09257188
0.09270889
0.0928698
0.09305022
0.09320797
0.03999811
0.05227539
0.0670233
0.1116147
0.1257597
0.1529247
0.1558641
0.1565766
0.1565824
0.1558845
0.1539165
0.1509365
0.1466784
0.1422085
0.1380792
0.1341116
0.1302264
0.126381
0.1225746
0.1188294
0.1151782
0.111665
0.1082985
0.1051069
0.1021463
0.09945788
0.0970585
0.09494393
0.09309667
0.09149175
0.09008476
0.09376149
0.09276169
0.09183185
0.09097683
0.09019171
0.08946737
0.08879199
0.08815264
0.08753594
0.08692893
0.08632007
0.08570161
0.08506831
0.08441963
0.08375868
0.08309129
0.0824252
0.08176955
0.08113312
0.08052408
0.0799521
0.07942359
0.07894319
0.07851562
0.07814504
0.07783465
0.07758629
0.07740061
0.07727713
0.07721404
0.07720845
0.07725663
0.0773544
0.07749742
0.07768171
0.07790465
0.07817708
0.07839259
0.07865134
0.07894394
0.07925989
0.07959594
0.07995066
0.08032179
0.08070712
0.08110456
0.0815123
0.08192881
0.08235245
0.08278169
0.0832154
0.08365228
0.0840912
0.08453141
0.08497247
0.0854141
0.08585609
0.08629948
0.08674464
0.08719111
0.08763793
0.08808425
0.08852957
0.08897367
0.08941661
0.08985859
0.09029971
0.09074029
0.09118053
0.09162035
0.09205947
0.09249769
0.09293524
0.09337218
0.09380838
0.09423373
0.09465319
0.09506974
0.09548411
0.09589599
0.09630492
0.09671058
0.09711276
0.09751124
0.0979058
0.09829625
0.09868239
0.09906386
0.09943996
0.09980983
0.1001724
0.1005263
0.1008688
0.1011949
0.1014953
0.1017708
0.102027
0.1022643
0.1024835
0.1026768
0.1028454
0.1029945
0.1031282
0.10325
0.1033624
0.1034678
0.1035679
0.1036646
0.1037592
0.1038535
0.1039495
0.1040491
0.1041541
0.1042652
0.1043799
0.104495
0.1046082
0.1047172
0.1048098
0.1048743
0.1049058
0.1049039
0.1048764
0.1048456
0.1048255
0.1048173
0.1048178
0.1048238
0.1048327
0.1048425
0.1048519
0.1048599
0.104866
0.1048701
0.1048719
0.1048714
0.1048685
0.1048631
0.1048556
0.1048461
0.1048342
0.1048197
0.1048025
0.1047828
0.1047603
0.1047349
0.1047062
0.1046741
0.1046381
0.1045981
0.1045536
0.1045045
0.1044508
0.1043925
0.1043297
0.1042628
0.1041922
0.1041185
0.1040421
0.1039639
0.1038845
0.1038046
0.1037249
0.1036457
0.1035676
0.1034908
0.1034154
0.1033414
0.1032687
0.1031972
0.1031266
0.1030566
0.1029872
0.102918
0.1028493
0.102781
0.1027131
0.1026455
0.1025781
0.1025104
0.1024423
0.1023735
0.1023036
0.1022326
0.1021606
0.1020872
0.1020125
0.1019364
0.1018589
0.1017801
0.1016999
0.1016185
0.1015361
0.1014529
0.1013691
0.1012848
0.1012003
0.1011157
0.1010313
0.1009472
0.1008635
0.1007803
0.1006978
0.1006159
0.1005348
0.1004544
0.1003748
0.1002959
0.1002177
0.1001403
0.1000633
0.09998689
0.09991083
0.09983513
0.09975974
0.09968461
0.09960973
0.09953508
0.09946066
0.09938647
0.09931236
0.09923755
0.0991586
0.09906687
0.09898403
0.09891016
0.0988422
0.09877729
0.0987134
0.09864919
0.09858362
0.0985162
0.09844655
0.0983745
0.09830004
0.09822333
0.09814465
0.09806442
0.09798287
0.09790062
0.09781807
0.09773564
0.09765376
0.09757283
0.09749308
0.09741493
0.09733866
0.09726457
0.09719275
0.09712363
0.09705753
0.09699486
0.09693623
0.09688271
0.09683714
0.09680087
0.09677363
0.09675495
0.09674612
0.09674713
0.09675665
0.09677304
0.09679468
0.09682053
0.09684965
0.09688132
0.09691497
0.09695022
0.09698659
0.09702393
0.09706196
0.09710053
0.09713924
0.0971781
0.09721695
0.09725566
0.09729411
0.09733221
0.0973699
0.09740713
0.0974439
0.09748022
0.09751612
0.09755169
0.09758705
0.09762234
0.09765773
0.09769339
0.0977295
0.09776629
0.09780385
0.0978429
0.09788386
0.09791757
0.09794937
0.09798183
0.09801587
0.09805147
0.09808831
0.0981261
0.09816474
0.09820426
0.09824485
0.09828676
0.09833027
0.09837566
0.09842319
0.09847304
0.09852535
0.09858015
0.09863745
0.09869717
0.09875919
0.09882332
0.09888936
0.09895706
0.09902615
0.09909635
0.09916735
0.09923886
0.0993106
0.09938229
0.09945371
0.09952464
0.09959494
0.09966448
0.0997332
0.09980107
0.09986809
0.09993428
0.09999969
0.1000644
0.1001283
0.1001916
0.1002542
0.1003159
0.1003768
0.1004365
0.100495
0.1005523
0.1006086
0.1006642
0.1007196
0.1007747
0.1008298
0.1008849
0.10094
0.1009948
0.1010493
0.1011037
0.1011579
0.1012118
0.1012653
0.1013183
0.1013708
0.1014227
0.1014742
0.1015255
0.1015767
0.101628
0.1016795
0.1017312
0.1017833
0.1018357
0.1018883
0.1019412
0.1019942
0.1020473
0.1021004
0.1021533
0.1022061
0.1022587
0.1023111
0.1023632
0.1024151
0.1024668
0.1025183
0.1025696
0.1026208
0.1026719
0.1027229
0.102774
0.102825
0.1028762
0.1029275
0.102979
0.1030306
0.1030825
0.1031347
0.1031873
0.1032403
0.1032937
0.1033476
0.1034022
0.1034574
0.1035134
0.1035702
0.1036279
0.1036867
0.1037465
0.1038074
0.1038696
0.1039329
0.1039975
0.1040633
0.1041302
0.1041983
0.1042674
0.1043375
0.1044083
0.1044798
0.1045518
0.1046242
0.1046969
0.1047698
0.1048428
0.104916
0.1049895
0.1050635
0.1051382
0.1052143
0.1052923
0.1053732
0.1054579
0.1055482
0.1056457
0.1057527
0.1058719
0.1060058
0.1061558
0.1063162
0.1064562
0.02674547
0.03249143
0.03827122
0.05774544
0.07741545
0.1101015
0.1281504
0.1445328
0.1595781
0.1725373
0.1829653
0.1910905
0.1973273
0.2015061
0.2035719
0.2042056
0.2086736
0.2059289
0.2031445
0.2003186
0.1972979
0.1939239
0.1901224
0.1858179
0.1810842
0.1760761
0.1709033
0.1656831
0.1604959
0.155402
0.1504487
0.1456765
0.1411202
0.1368073
0.132765
0.1290154
0.1255735
0.1224456
0.1196298
0.1171172
0.1148956
0.1129492
0.1110848
0.1094888
0.1081134
0.1069187
0.1058709
0.1049407
0.1041014
0.1033291
0.1026031
0.1019054
0.101221
0.1005391
0.09985187
0.09915531
0.0984487
0.09773437
0.0970171
0.09630365
0.09560186
0.09492036
0.0942686
0.09365508
0.09308678
0.09256946
0.09210774
0.09170501
0.09136336
0.09108377
0.09086603
0.09070898
0.09061072
0.09056861
0.09057935
0.09063926
0.09074461
0.0908918
0.09107785
0.09129065
0.09153102
0.09179892
0.09209346
0.09241214
0.09275202
0.09311018
0.093484
0.09387082
0.09426859
0.0946752
0.09508887
0.09550819
0.09593185
0.09635861
0.09678739
0.09721733
0.09764779
0.09807834
0.09850871
0.09893942
0.09937116
0.09980427
0.1002385
0.1006734
0.1011086
0.1015439
0.1019791
0.1024142
0.1028494
0.1032853
0.1037226
0.1041622
0.1046057
0.1050559
0.1055163
0.1059811
0.1064459
0.1069073
0.1073645
0.1078179
0.1082675
0.1087131
0.1091544
0.1095914
0.1100236
0.110451
0.1108733
0.1112902
0.1117014
0.1121067
0.1125053
0.1128963
0.1132787
0.1136508
0.1140102
0.1143533
0.1146755
0.1149785
0.1152641
0.1155314
0.1157743
0.1159938
0.1161925
0.1163738
0.1165407
0.1166959
0.1168415
0.1169793
0.1171109
0.1172378
0.1173612
0.1174826
0.1176034
0.1177251
0.1178488
0.1179745
0.1181007
0.1182247
0.1183439
0.1184537
0.1185472
0.1186183
0.1186638
0.1186839
0.1186841
0.1186771
0.118673
0.1186751
0.118683
0.1186957
0.1187119
0.1187302
0.1187497
0.1187692
0.1187882
0.1188058
0.1188217
0.1188356
0.1188463
0.1188531
0.1188559
0.1188545
0.1188496
0.1188415
0.1188301
0.1188154
0.1187973
0.1187756
0.11875
0.1187203
0.1186862
0.1186474
0.1186035
0.1185546
0.1185004
0.118441
0.1183765
0.1183074
0.118234
0.1181569
0.1180768
0.1179943
0.1179102
0.1178253
0.1177401
0.1176552
0.117571
0.1174879
0.1174059
0.1173251
0.1172455
0.1171669
0.1170891
0.1170118
0.1169348
0.1168578
0.1167808
0.1167036
0.1166263
0.1165489
0.1164715
0.116394
0.1163165
0.116239
0.1161615
0.1160836
0.1160055
0.1159271
0.1158482
0.1157686
0.1156882
0.115607
0.115525
0.1154421
0.1153585
0.1152741
0.1151891
0.1151037
0.115018
0.1149321
0.1148461
0.1147603
0.1146748
0.1145895
0.1145047
0.1144202
0.1143363
0.1142528
0.1141697
0.1140871
0.1140048
0.1139228
0.1138411
0.1137598
0.1136787
0.1135979
0.1135173
0.1134369
0.1133566
0.1132765
0.1131965
0.1131165
0.1130366
0.1129564
0.1128749
0.1127904
0.1127054
0.1126214
0.112539
0.1124581
0.1123781
0.1122987
0.1122194
0.1121398
0.1120596
0.1119785
0.1118966
0.1118138
0.1117302
0.111646
0.1115616
0.1114772
0.1113931
0.1113096
0.1112272
0.1111461
0.1110666
0.110989
0.1109136
0.1108407
0.1107706
0.1107036
0.1106401
0.1105807
0.1105261
0.1104767
0.1104324
0.1103943
0.1103636
0.1103408
0.1103265
0.1103206
0.1103222
0.1103302
0.1103434
0.1103609
0.1103818
0.1104054
0.1104312
0.1104587
0.1104875
0.1105174
0.110548
0.1105792
0.1106109
0.1106428
0.1106748
0.1107069
0.1107389
0.1107708
0.1108025
0.110834
0.1108654
0.1108965
0.1109275
0.1109585
0.1109897
0.111021
0.1110528
0.1110852
0.1111185
0.1111527
0.111188
0.1112248
0.1112629
0.1113009
0.1113391
0.111378
0.111418
0.1114592
0.1115017
0.1115455
0.1115903
0.1116362
0.1116832
0.1117312
0.1117805
0.1118309
0.1118827
0.111936
0.1119908
0.1120472
0.1121052
0.1121649
0.1122262
0.1122891
0.1123534
0.112419
0.1124857
0.1125534
0.1126217
0.1126906
0.1127597
0.1128288
0.1128978
0.1129664
0.1130346
0.1131022
0.1131692
0.1132355
0.1133011
0.1133662
0.1134307
0.1134947
0.1135582
0.1136213
0.1136839
0.1137461
0.1138077
0.1138687
0.113929
0.1139887
0.114048
0.114107
0.114166
0.1142251
0.1142845
0.1143441
0.114404
0.1144642
0.1145246
0.1145853
0.1146464
0.1147079
0.1147696
0.1148314
0.114893
0.1149545
0.1150155
0.1150761
0.1151362
0.1151957
0.1152546
0.115313
0.1153706
0.1154277
0.1154841
0.1155399
0.1155951
0.1156497
0.1157036
0.115757
0.1158099
0.1158623
0.1159142
0.1159658
0.116017
0.1160681
0.116119
0.1161698
0.1162206
0.1162715
0.1163225
0.1163737
0.1164252
0.1164769
0.116529
0.1165815
0.1166344
0.1166877
0.1167417
0.1167961
0.1168513
0.1169071
0.1169636
0.117021
0.1170793
0.1171386
0.117199
0.1172605
0.1173232
0.1173873
0.1174527
0.1175196
0.1175879
0.1176576
0.1177288
0.1178014
0.1178753
0.1179504
0.1180267
0.1181039
0.118182
0.1182607
0.1183399
0.1184196
0.1184995
0.1185798
0.1186603
0.1187412
0.1188227
0.1189052
0.118989
0.1190749
0.1191637
0.1192564
0.1193545
0.1194593
0.1195729
0.119697
0.1198333
0.1199819
0.1201373
0.1202731
0.01294195
0.01577588
0.01814049
0.02957554
0.04169859
0.05782361
0.06922568
0.08133794
0.09347953
0.1054414
0.117345
0.1302852
0.1429681
0.1553728
0.1685859
0.1895779
0.1984752
0.2063898
0.2126183
0.2172132
0.21998
0.2212745
0.2211999
0.2200737
0.218169
0.2159513
0.212825
0.2101024
0.2076806
0.2053799
0.2030666
0.2006075
0.1978827
0.1947831
0.1912844
0.1873309
0.1829573
0.1783034
0.1734933
0.168633
0.1638041
0.1590717
0.1544854
0.1500867
0.1459185
0.1420143
0.1383977
0.135083
0.132076
0.1293757
0.1269753
0.1248586
0.1229916
0.1213668
0.1199638
0.1187565
0.1177174
0.1168184
0.1160313
0.1153293
0.1146875
0.1140837
0.113499
0.1129181
0.1123299
0.1117269
0.1111055
0.1104656
0.1098102
0.1091448
0.1084766
0.1078144
0.1071678
0.1065466
0.1059596
0.1054147
0.1049183
0.1044756
0.1040903
0.1037648
0.1035
0.1032959
0.1031515
0.1030648
0.1030333
0.1030538
0.1031231
0.1032379
0.1033948
0.1035898
0.1038208
0.104087
0.1043891
0.1047221
0.1050798
0.1054586
0.1058549
0.1062662
0.10669
0.1071239
0.1075658
0.1080138
0.1084663
0.108922
0.1093798
0.1098386
0.110298
0.1107574
0.1112166
0.1116757
0.1121355
0.1125972
0.1130606
0.1135249
0.1139897
0.114455
0.1149207
0.1153868
0.1158535
0.1163211
0.11679
0.1172608
0.1177339
0.1182097
0.1186874
0.1191654
0.1196418
0.1201152
0.1205847
0.12105
0.121511
0.1219671
0.1224184
0.1228644
0.1233051
0.1237402
0.1241694
0.1245924
0.1250091
0.1254189
0.1258215
0.1262161
0.1266018
0.1269773
0.1273411
0.127691
0.1280244
0.1283379
0.1286315
0.1289057
0.1291599
0.1293947
0.1296117
0.1298135
0.1300022
0.1301798
0.130348
0.1305082
0.1306617
0.1308095
0.1309527
0.1310925
0.1312298
0.1313655
0.1315001
0.1316334
0.1317644
0.1318909
0.1320107
0.1321204
0.1322161
0.1322946
0.1323541
0.1323952
0.1324214
0.1324399
0.1324572
0.1324765
0.1324987
0.1325238
0.1325514
0.1325808
0.1326112
0.1326419
0.1326721
0.1327009
0.1327259
0.1327463
0.1327627
0.1327753
0.1327845
0.1327902
0.1327924
0.1327913
0.1327867
0.1327785
0.1327666
0.1327507
0.1327305
0.1327059
0.1326764
0.1326419
0.132602
0.1325566
0.1325057
0.1324492
0.1323873
0.1323204
0.1322489
0.1321733
0.1320943
0.1320126
0.1319289
0.1318439
0.1317584
0.1316727
0.1315874
0.1315027
0.131419
0.1313362
0.1312542
0.1311731
0.1310925
0.1310123
0.1309322
0.1308521
0.1307717
0.130691
0.13061
0.1305287
0.1304473
0.1303659
0.1302845
0.1302033
0.1301224
0.1300419
0.1299614
0.1298811
0.1298009
0.1297206
0.1296402
0.1295594
0.1294782
0.1293967
0.1293146
0.1292321
0.1291492
0.129066
0.1289826
0.1288991
0.1288155
0.1287321
0.1286488
0.1285657
0.1284829
0.1284004
0.1283182
0.1282364
0.128155
0.1280738
0.127993
0.1279124
0.127832
0.1277518
0.1276717
0.1275917
0.1275117
0.1274316
0.1273515
0.1272712
0.1271908
0.1271102
0.1270293
0.126948
0.1268661
0.126783
0.1266989
0.1266142
0.1265292
0.126444
0.1263589
0.1262737
0.1261885
0.1261032
0.1260177
0.125932
0.1258461
0.1257601
0.1256742
0.1255884
0.125503
0.1254182
0.1253344
0.1252518
0.1251706
0.1250912
0.1250137
0.1249384
0.1248654
0.1247951
0.1247276
0.1246631
0.124602
0.1245444
0.124491
0.1244421
0.1243982
0.1243598
0.1243276
0.1243021
0.1242835
0.1242717
0.1242663
0.1242664
0.1242713
0.1242802
0.1242924
0.1243073
0.1243243
0.1243431
0.1243633
0.1243845
0.1244066
0.1244293
0.1244524
0.1244759
0.1244996
0.1245234
0.1245473
0.1245712
0.124595
0.1246189
0.1246427
0.1246666
0.1246906
0.1247149
0.1247394
0.1247646
0.1247905
0.1248173
0.1248453
0.1248746
0.1249053
0.1249378
0.124972
0.1250078
0.1250451
0.1250841
0.1251249
0.1251674
0.1252115
0.1252573
0.1253044
0.125353
0.1254027
0.1254536
0.1255055
0.1255585
0.1256124
0.1256674
0.1257233
0.1257803
0.1258382
0.1258973
0.1259573
0.1260182
0.1260801
0.1261428
0.1262062
0.1262701
0.1263345
0.1263991
0.1264637
0.1265283
0.1265926
0.1266566
0.1267201
0.126783
0.1268455
0.1269073
0.1269686
0.1270295
0.1270899
0.12715
0.1272099
0.1272695
0.127329
0.1273883
0.1274475
0.1275065
0.1275653
0.127624
0.1276828
0.1277418
0.127801
0.1278608
0.127921
0.1279819
0.1280433
0.1281054
0.1281681
0.1282315
0.1282956
0.1283603
0.1284256
0.1284912
0.1285571
0.128623
0.1286887
0.128754
0.1288187
0.1288826
0.1289456
0.1290077
0.1290686
0.1291284
0.1291869
0.1292442
0.1293003
0.1293553
0.1294091
0.1294618
0.1295136
0.1295645
0.1296146
0.1296641
0.1297131
0.1297617
0.12981
0.1298582
0.1299064
0.1299546
0.130003
0.1300516
0.1301006
0.13015
0.1301998
0.1302502
0.1303011
0.1303527
0.130405
0.1304581
0.1305119
0.1305666
0.1306223
0.130679
0.1307368
0.1307958
0.130856
0.1309176
0.1309806
0.131045
0.1311111
0.1311787
0.131248
0.1313189
0.1313914
0.1314654
0.1315409
0.1316178
0.131696
0.1317752
0.1318553
0.1319362
0.1320178
0.1320998
0.1321821
0.1322648
0.1323478
0.1324312
0.1325152
0.1326001
0.1326863
0.1327743
0.132865
0.1329591
0.1330579
0.1331624
0.1332742
0.1333946
0.1335244
0.1336636
0.1338072
0.1339321
0.00389527
0.01624228
0.02519006
0.03469013
0.0443349
0.05464224
0.06584112
0.07739217
0.08953523
0.1034426
0.1255969
0.1366127
0.1477733
0.1585973
0.1690395
0.1791087
0.1886477
0.1974347
0.2052048
0.2118032
0.2172386
0.2215114
0.2240553
0.2249182
0.2243005
0.2222764
0.2189832
0.2150373
0.2111942
0.2076436
0.2045679
0.2019517
0.199876
0.198244
0.1969358
0.1958278
0.1947825
0.1936586
0.1922997
0.1905523
0.1883134
0.1855083
0.1821951
0.1785156
0.1745966
0.1705393
0.1664302
0.1623419
0.1583333
0.1544629
0.15078
0.1473227
0.144119
0.1411881
0.1385412
0.1361825
0.1341095
0.1323139
0.1307798
0.1294849
0.1284046
0.1275123
0.1267798
0.1261779
0.1256775
0.1252504
0.1248706
0.1245145
0.1241625
0.1237985
0.1234109
0.1229924
0.1225395
0.1220528
0.121536
0.1209957
0.1204405
0.1198804
0.1193262
0.1187886
0.1182775
0.1178018
0.1173692
0.1169857
0.1166559
0.1163827
0.116168
0.116012
0.1159141
0.1158727
0.1158855
0.1159496
0.1160621
0.1162198
0.1164196
0.1166589
0.1169349
0.1172445
0.1175836
0.1179479
0.118334