/*--------------------------------*- C++ -*----------------------------------*\
| =========                 |                                                 |
| \\      /  F ield         | foam-extend: Open Source CFD                    |
|  \\    /   O peration     | Version:     3.1                                |
|   \\  /    A nd           | Web:         http://www.extend-project.de       |
|    \\/     M anipulation  |                                                 |
\*---------------------------------------------------------------------------*/
FoamFile
{
    version     2.0;
    format      ascii;
    class       volScalarField;
    location    "1.5";
    object      omega;
}
// * * * * * * * * * * * * * * * * * * * * * * * * * * * * * * * * * * * * * //

dimensions      [0 0 -1 0 0 0 0];

internalField   nonuniform List<scalar> 
119952
(
166.741
200.8026
188.9897
168.8946
154.9459
157.0101
160.7263
165.0576
169.5936
174.1799
178.7742
183.3836
188.0372
192.7721
197.6283
202.6461
207.8698
213.3599
219.2485
226.0882
194.9295
194.6618
196.8651
170.786
168.3649
167.0646
165.8259
164.6461
161.3485
186.9113
329.1652
268.4634
225.9933
197.6561
177.4731
162.2189
150.003
139.8585
131.1936
121.2335
95.64326
79.15563
68.5852
61.46668
56.47848
52.8448
50.07991
47.87225
46.00861
36.07524
34.10144
32.28657
30.68215
29.30339
28.13841
27.16215
26.34383
25.65318
25.06862
24.51626
23.91876
23.29061
22.66372
22.06725
21.52018
21.02898
20.58777
20.18635
20.40249
20.52555
20.39184
20.1492
19.88501
19.62652
19.38928
19.18368
19.00989
18.86818
18.75778
18.67622
18.61996
18.585
18.56724
18.56264
18.56659
18.57264
18.56838
18.52974
18.47093
18.41287
18.32512
18.21551
18.15754
18.13581
18.18304
18.40299
19.25237
20.9023
21.30558
21.408
21.40729
21.36672
21.30885
21.24501
21.18274
21.12701
21.08059
21.04468
21.01959
21.00503
21.00035
21.00465
21.01693
21.03623
21.06159
21.09221
21.12734
21.16639
21.2088
21.25413
21.302
21.35211
21.40421
21.45813
21.51361
21.57057
21.62892
21.68858
21.74949
21.81165
21.8751
21.93982
22.00579
22.07297
22.14131
22.21084
22.28167
22.35391
22.4277
22.5032
22.58052
22.6598
22.74116
22.82461
22.90973
22.9938
23.0722
23.44257
23.94993
24.41663
24.81084
25.13437
25.39804
25.6144
25.79466
25.94792
26.08129
26.2002
26.30875
26.41004
26.50645
26.59975
26.69131
26.78213
26.87299
26.96451
27.05723
27.15113
27.24589
27.34247
27.44186
27.5438
27.64813
27.75482
27.86393
27.97557
28.08992
28.20711
28.32728
28.45056
28.57707
28.70699
28.84046
28.97766
29.1188
29.26408
29.41374
29.56807
29.72736
29.89194
30.06211
30.23818
30.42058
30.60948
30.80466
31.00041
31.1774
36.80668
43.71756
46.85336
48.4577
49.37974
49.972
50.39762
50.73919
51.04127
51.32876
51.61617
51.91109
52.21838
52.54197
52.88009
53.22915
53.59409
53.98101
54.38476
54.80389
55.23839
55.68847
56.15432
56.63645
57.13455
57.64906
58.18056
58.72875
59.2939
59.87596
60.47421
61.08641
61.69506
62.3112
62.82484
62.33235
60.96703
59.95588
59.16304
58.50481
57.92968
57.40334
56.90744
56.43077
55.96679
55.51225
55.06577
54.62591
54.19238
53.76512
53.34417
52.92955
52.5213
52.11942
51.72389
51.33465
50.95164
50.57477
50.20394
49.83905
49.47984
49.12644
48.77915
48.43738
48.10116
47.77047
47.44524
47.12563
46.81109
46.49248
37.81155
36.35866
34.92722
33.61641
32.48005
31.53012
30.75712
30.13849
29.64716
29.25644
28.94274
28.68666
28.47314
28.2908
28.13133
27.98865
27.85843
27.73753
27.62369
27.51528
27.41108
27.31022
27.21204
27.11604
27.02185
26.92923
26.83796
26.74787
26.65885
26.57082
26.48371
26.39747
26.31208
26.22753
26.14379
26.06089
25.97881
25.89759
25.81725
25.73784
25.65944
25.58223
25.50651
25.43305
25.36376
25.30236
25.24806
25.19632
25.14637
25.09777
25.0503
25.0039
24.95829
24.91482
24.8773
24.74344
24.51796
24.23102
23.91787
23.60825
23.32264
23.07208
22.86015
22.68535
22.54332
22.42857
22.33555
22.25929
22.19562
22.14121
22.09351
22.05058
22.01101
21.97376
21.9381
21.90351
21.86962
21.83618
21.80302
21.77003
21.73714
21.70432
21.67154
21.6388
21.6061
21.57347
21.54092
21.50846
21.47613
21.44393
21.41188
21.38001
21.34834
21.31686
21.2856
21.25458
21.22379
21.19325
21.16296
21.13295
21.1032
21.07374
21.04456
21.01568
20.98709
20.95881
20.93083
20.90315
20.87577
20.84868
20.82187
20.79533
20.76904
20.74299
20.71714
20.69147
20.66595
20.64054
20.61521
20.58991
20.56462
20.53927
20.51383
20.48824
20.46244
20.43636
20.40991
20.38296
20.35535
20.32684
20.29702
20.26531
20.23065
20.19092
20.14172
20.0728
19.96177
19.77426
20.03658
329.204
270.7238
231.6346
204.008
183.396
167.2696
154.19
143.2591
133.508
113.5638
92.47373
78.88895
69.61198
62.95722
57.99337
54.16701
51.12543
48.62718
38.11553
36.18142
34.33202
32.63618
31.12371
29.79772
28.64611
27.65139
26.79253
26.0489
25.41518
24.80037
24.17762
23.55495
22.94774
22.37059
21.83458
21.34571
20.90562
20.70145
20.58666
20.34973
20.03948
19.69006
19.32602
18.96476
18.61774
18.29196
17.99122
17.71461
17.45261
17.19594
16.93985
16.68432
16.43227
16.18773
15.95474
15.74094
14.14986
13.9724
13.8134
13.66425
13.52033
13.37977
13.24234
13.10871
12.9799
12.85682
12.73953
12.62686
12.51732
12.40978
12.30369
12.1992
12.09712
11.99934
11.91066
11.84012
11.78333
11.73573
11.6953
11.65996
11.62696
11.59549
11.56474
11.53397
11.50323
11.47305
11.44407
11.41682
11.39166
11.36873
11.34786
11.32845
11.30938
11.28897
11.26662
11.24482
11.22256
11.19985
11.18031
11.16848
11.16804
11.18801
11.23802
11.32903
11.42785
11.51042
11.57938
11.63526
11.67982
11.71476
11.74165
11.76194
11.77697
11.78792
11.79579
11.80145
11.80563
11.8089
11.81171
11.81442
11.81727
11.82044
11.82404
11.82816
11.83285
11.83812
11.84399
11.85044
11.85747
11.86507
11.87321
11.88188
11.89106
11.90072
11.91082
11.92133
11.9322
11.94338
11.95482
11.96646
11.97823
11.9901
12.00203
12.014
12.026
12.03805
12.05014
12.06231
12.07455
12.08688
12.09925
12.11155
12.12361
12.1362
12.15324
12.17679
12.20701
12.24265
12.28195
12.32315
12.36482
12.40587
12.44554
12.48339
12.51918
12.55285
12.58442
12.61404
12.64185
12.66802
12.69275
12.7162
12.73853
12.7599
12.78039
12.80012
12.81921
12.8378
12.85599
12.87382
12.89137
12.9087
12.92584
12.94285
12.95978
12.97669
12.99358
13.01051
13.02751
13.04462
13.06185
13.07924
13.09682
13.1146
13.13261
13.15087
13.16939
13.18818
13.20724
13.22654
13.246
13.26532
13.28332
13.28833
13.9878
14.54856
14.83622
15.0113
15.13845
15.24259
15.33294
15.41291
15.48393
15.54693
15.60272
15.65216
15.6961
15.73536
15.77065
15.80264
15.832
15.85931
15.88503
15.90954
15.93314
15.95609
15.97867
16.00093
16.02303
16.04504
16.06701
16.08895
16.11079
16.13235
16.15332
16.17306
16.19028
16.20214
16.20176
16.17927
16.14373
16.10098
16.05426
16.00607
15.95818
15.91178
15.86757
15.82584
15.78666
15.74991
15.71539
15.68287
15.6521
15.62282
15.59483
15.56792
15.54194
15.51674
15.49219
15.46822
15.44473
15.42167
15.399
15.37668
15.3547
15.33302
15.31166
15.2906
15.26984
15.24939
15.22926
15.20948
15.1901
15.17441
13.78812
13.72258
13.67285
13.62785
13.5821
13.53343
13.48151
13.42704
13.37116
13.31512
13.26003
13.20677
13.15598
13.10806
13.06322
13.02149
12.98283
12.94707
12.91404
12.88351
12.85525
12.82903
12.80465
12.78189
12.76058
12.74053
12.7216
12.70366
12.68658
12.67027
12.65462
12.63957
12.62504
12.61098
12.59732
12.58404
12.5711
12.55847
12.54615
12.53413
12.52242
12.51107
12.50016
12.48982
12.4802
12.47145
12.46338
12.4558
12.44858
12.44165
12.43497
12.42854
12.42239
12.41673
12.41139
12.40496
12.39617
12.38395
12.36766
12.34726
12.32317
12.29616
12.26713
12.23703
12.20669
12.17684
12.148
12.12055
12.09472
12.0706
12.04822
12.02753
12.00841
11.99076
11.97443
11.95929
11.94522
11.93207
11.91976
11.90816
11.89719
11.88678
11.87686
11.86736
11.85824
11.84946
11.84098
11.83277
11.82481
11.81707
11.80953
11.80218
11.795
11.78799
11.78113
11.77442
11.76785
11.76141
11.7551
11.74892
11.74286
11.73692
11.7311
11.72539
11.7198
11.71432
11.70894
11.70366
11.69848
11.69338
11.68837
11.68343
11.67855
11.67371
11.66891
11.66412
11.65934
11.65453
11.64969
11.64479
11.63982
11.63474
11.62954
11.62417
11.61862
11.61284
11.60677
11.60036
11.59351
11.58609
11.57793
11.56875
11.55813
11.54539
11.52955
11.50931
11.48348
11.45543
11.43792
425.3517
345.8996
317.6937
289.8211
263.6067
240.5043
220.3845
202.9164
187.6754
171.3277
121.0483
95.43021
81.86136
73.89335
68.6212
64.69653
61.49793
58.73149
56.23931
43.22488
40.38388
37.85836
35.69086
33.86413
32.33106
31.03759
29.93371
28.97787
28.14296
27.3603
26.55703
25.74716
24.95648
24.20631
23.5093
22.87043
22.28905
21.75072
21.63327
21.36542
21.00809
20.60554
20.1855
19.7664
19.35997
18.97368
18.61191
18.27682
17.96576
17.67184
17.38968
17.11633
16.85112
16.59488
16.3491
16.11792
14.44591
14.26278
14.10077
13.95227
13.81216
13.67734
13.54621
13.41814
13.29314
13.17154
13.05385
12.94008
12.82967
12.7219
12.61619
12.51217
12.40971
12.30899
12.21048
12.11665
12.02903
11.94668
11.86794
11.79117
11.71507
11.63887
11.56223
11.48527
11.40835
11.33195
11.25639
11.1818
11.10817
11.03549
10.96392
10.89371
10.82424
10.75369
10.72231
10.68168
10.63517
10.58478
10.5317
10.47669
10.42036
10.36325
10.30592
10.24888
10.19252
10.13704
10.08247
10.02877
9.975876
9.923843
9.872909
9.823656
9.777164
9.734862
9.696863
9.663127
9.633676
9.608044
9.584941
9.565007
9.546896
9.529788
9.513178
9.496824
9.480665
9.464738
9.449124
9.433882
9.418974
9.404227
9.38932
9.373833
9.357658
9.342073
9.327523
9.313678
9.301639
9.292683
9.290728
9.297423
9.31483
9.342961
9.373197
9.401269
9.427372
9.451579
9.473728
9.493711
9.511498
9.527137
9.540734
9.552448
9.56247
9.571016
9.578309
9.584567
9.589998
9.594787
9.599098
9.603072
9.606822
9.610442
9.61401
9.617591
9.621238
9.624996
9.628903
9.632992
9.63729
9.641817
9.646588
9.651614
9.656893
9.662406
9.668127
9.674021
9.680045
9.686139
9.692251
9.698342
9.704386
9.710366
9.716272
9.722101
9.727856
9.733545
9.739178
9.744765
9.750303
9.755767
9.761127
9.766598
9.772774
9.780169
9.789172
9.799953
9.812476
9.826506
9.841728
9.857827
9.874469
9.891373
9.908312
9.925105
9.941614
9.957744
9.973435
9.988653
10.00339
10.01762
10.03136
10.04462
10.05744
10.06979
10.08172
10.09326
10.10444
10.11528
10.12582
10.1361
10.1461
10.15586
10.16543
10.1748
10.18399
10.19305
10.202
10.21084
10.21962
10.22833
10.237
10.24564
10.25427
10.26288
10.27149
10.28011
10.28873
10.29735
10.30592
10.31436
10.32261
10.33106
10.35331
10.35453
10.35279
10.35388
10.35899
10.36776
10.3794
10.39308
10.4081
10.42387
10.43993
10.45592
10.47158
10.48675
10.50128
10.51513
10.52827
10.54069
10.55243
10.56353
10.57403
10.58398
10.59341
10.60237
10.61089
10.619
10.62673
10.63406
10.64096
10.64737
10.65315
10.65799
10.66142
10.66239
10.66013
10.65568
10.64917
10.641
10.63149
10.62096
10.60965
10.59781
10.58563
10.57329
10.56096
10.5487
10.53664
10.52483
10.51331
10.50211
10.49124
10.4807
10.47048
10.46058
10.45097
10.44166
10.43263
10.42385
10.41534
10.40707
10.39903
10.39124
10.38367
10.37632
10.36919
10.36229
10.35563
10.34916
10.34274
10.33445
10.36489
10.38352
10.39423
10.39917
10.39955
10.39607
10.38925
10.37953
10.36735
10.35314
10.33734
10.32038
10.30264
10.28447
10.26615
10.24794
10.23002
10.21253
10.1956
10.17929
10.16364
10.14868
10.13441
10.12082
10.1079
10.0956
10.0839
10.07278
10.06219
10.05209
10.04246
10.03326
10.02445
10.01601
10.0079
10.00011
9.992601
9.985366
9.978391
9.971669
9.965204
9.959009
9.953109
9.947542
9.942351
9.937559
9.933123
9.928981
9.925091
9.921422
9.917955
9.914681
9.911594
9.908732
9.906089
9.903433
9.900492
9.896975
9.892611
9.88719
9.880591
9.872789
9.863842
9.853879
9.843076
9.831633
9.819755
9.807636
9.795451
9.783348
9.771448
9.759843
9.748602
9.737769
9.727372
9.717421
9.707918
9.698852
9.690211
9.681975
9.674123
9.666633
9.659481
9.652648
9.64611
9.639849
9.633845
9.628082
9.622543
9.617214
9.612081
9.607132
9.602356
9.597743
9.593284
9.588971
9.584796
9.580754
9.576837
9.573041
9.569361
9.565793
9.562331
9.558973
9.555713
9.552546
9.549468
9.546473
9.543554
9.540705
9.537917
9.535182
9.53249
9.529831
9.527193
9.524563
9.521929
9.519278
9.516594
9.513862
9.511068
9.508192
9.505216
9.502117
9.498871
9.495446
9.491805
9.487902
9.483674
9.479038
9.473883
9.468051
9.461326
9.453414
9.443946
9.432535
9.418993
9.404193
9.391541
348.1453
272.0733
247.2038
98.18056
83.77572
49.66088
45.76234
42.50196
38.5377
36.29056
34.84681
33.69276
32.96475
31.77043
30.41769
29.20003
28.13827
27.19972
26.35335
25.57757
24.85824
24.18714
23.54499
22.90064
22.25317
21.61537
21.00125
20.4204
19.87747
19.37349
18.91312
16.89256
16.51526
16.16754
15.83946
15.52687
15.22864
14.94484
14.67594
14.42237
14.18435
13.96124
13.75164
13.55403
13.36707
13.18979
13.0215
12.86174
12.71024
12.5674
12.43529
12.31304
12.199
12.09155
11.98932
11.89129
11.79682
11.70554
11.61727
11.53201
11.44972
11.37031
11.29359
11.2193
11.14716
11.07689
11.00811
10.93849
10.90489
10.86446
10.81991
10.77308
10.72471
10.67509
10.62449
10.57312
10.52117
10.46887
10.41649
10.36418
10.31207
10.26023
10.20866
10.15734
10.10626
10.05541
10.00487
9.954898
9.905839
9.857871
9.811013
9.765127
9.719976
9.675303
9.630876
9.586529
9.542173
9.497782
9.453373
9.408964
9.364545
9.320073
9.27546
9.230614
9.185774
9.14141
9.101181
9.063191
9.026379
8.990142
8.954127
8.918138
8.882083
8.845953
8.809798
8.773717
8.737826
8.70224
8.667056
8.632349
8.598191
8.564669
8.531925
8.500187
8.469784
8.441059
8.414187
8.389329
8.3666
8.345641
8.326976
8.310475
8.295594
8.281867
8.268926
8.2565
8.244408
8.232537
8.220827
8.209234
8.197694
8.186115
8.174376
8.162363
8.150096
8.137979
8.126454
8.115923
8.106577
8.099436
8.095656
8.096042
8.101132
8.110413
8.121181
8.131848
8.142266
8.152536
8.162632
8.172469
8.181954
8.190997
8.199519
8.207468
8.214814
8.221558
8.227724
8.233353
8.238491
8.243189
8.247503
8.251534
8.255343
8.25898
8.262486
8.265902
8.269268
8.27262
8.275995
8.279426
8.282941
8.286564
8.290312
8.294191
8.298202
8.302339
8.306587
8.310926
8.315331
8.319778
8.324234
8.328665
8.333037
8.33732
8.341493
8.345544
8.349468
8.35327
8.356961
8.360553
8.364063
8.367515
8.370943
8.374398
8.377999
8.381888
8.386214
8.391104
8.396646
8.402888
8.409787
8.417335
8.42545
8.434025
8.442987
8.452244
8.461717
8.471339
8.481059
8.490811
8.500538
8.510202
8.519783
8.529252
8.538584
8.547751
8.556739
8.565537
8.574138
8.582537
8.59073
8.598722
8.606527
8.614112
8.62151
8.628725
8.635767
8.642644
8.649367
8.655945
8.66239
8.668721
8.674952
8.681091
8.687147
8.693125
8.699032
8.704869
8.710636
8.716333
8.721961
8.72747
8.732877
8.738352
8.744994
8.75046
8.7548
8.75865
8.762573
8.766962
8.771989
8.77772
8.784146
8.791193
8.798754
8.80671
8.814946
8.823364
8.831843
8.840281
8.848628
8.856828
8.864838
8.87264
8.880184
8.887456
8.894474
8.901203
8.907641
8.913759
8.919563
8.925027
8.930111
8.934762
8.938833
8.941973
8.943982
8.944876
8.944767
8.943571
8.94135
8.938256
8.934398
8.929867
8.924781
8.91923
8.913297
8.907071
8.900597
8.893934
8.887156
8.880327
8.873472
8.866609
8.859786
8.853027
8.846352
8.839777
8.833316
8.826978
8.820774
8.81471
8.808794
8.803032
8.797432
8.792003
8.786719
8.781598
8.776643
8.77187
8.767255
8.762796
8.758524
8.754659
8.754629
8.756291
8.758443
8.760405
8.761774
8.762304
8.761845
8.760317
8.757695
8.754002
8.749294
8.743656
8.737191
8.730014
8.722244
8.713999
8.705394
8.696531
8.687506
8.678403
8.669294
8.660239
8.651291
8.642489
8.633869
8.625454
8.617266
8.609316
8.601615
8.594167
8.586972
8.580027
8.573328
8.566868
8.560639
8.554633
8.548841
8.543257
8.537876
8.532697
8.52772
8.522954
8.518408
8.514099
8.510042
8.506243
8.502686
8.499348
8.496206
8.493246
8.490454
8.487824
8.485351
8.48304
8.480884
8.478827
8.476791
8.474693
8.472437
8.469931
8.467088
8.463841
8.460141
8.455966
8.451316
8.446213
8.440697
8.434818
8.428636
8.422213
8.415612
8.408891
8.402108
8.39531
8.388541
8.381836
8.375225
8.368733
8.362377
8.356172
8.350126
8.344247
8.338539
8.333002
8.327638
8.322444
8.317418
8.312556
8.307855
8.30331
8.298917
8.29467
8.290566
8.286598
8.282762
8.279054
8.275468
8.272001
8.268647
8.265402
8.262263
8.259224
8.256281
8.25343
8.250666
8.247983
8.245376
8.24284
8.240368
8.237953
8.235588
8.233265
8.230975
8.22871
8.226461
8.224218
8.22197
8.219708
8.21742
8.215096
8.212721
8.210283
8.207766
8.205153
8.202422
8.199548
8.196501
8.193242
8.189723
8.185884
8.181643
8.1769
8.171525
8.165362
8.158235
8.149982
8.14055
8.13027
8.120772
362.5978
254.7667
199.1469
151.5573
117.7262
80.01253
62.78625
54.34659
47.3027
43.55368
41.26622
39.99581
38.85706
37.62913
36.45369
35.31454
32.89734
31.65029
30.42559
29.22166
28.06032
26.93754
25.85413
24.82351
23.83939
22.89874
22.00742
21.16885
20.38368
19.65066
18.9674
18.33079
17.73789
17.18452
16.66652
16.18013
15.72228
15.29058
14.88324
14.49897
14.1368
13.79394
13.51311
13.24027
12.97796
12.72702
12.4878
12.26044
12.04497
11.84139
11.64964
11.46963
11.30111
11.14373
10.99698
10.8603
10.73309
10.61472
10.50458
10.40207
10.30671
10.21815
10.13597
10.05967
9.988734
9.92259
9.860688
9.802516
9.747622
9.69561
9.646143
9.598927
9.553704
9.510237
9.468293
9.427648
9.388085
9.3494
9.311529
9.277118
9.244586
9.212917
9.181471
9.149972
9.118271
9.08631
9.054014
9.021368
8.988397
8.955141
8.921648
8.887982
8.854198
8.820337
8.786426
8.752481
8.718511
8.684526
8.650559
8.616673
8.582937
8.549397
8.516079
8.482977
8.450058
8.417266
8.384534
8.351795
8.318988
8.286058
8.252945
8.219572
8.185823
8.151512
8.116492
8.081236
8.046137
8.011807
7.978438
7.946027
7.914479
7.883673
7.853489
7.823827
7.794608
7.765783
7.737328
7.709245
7.681554
7.654288
7.627487
7.601203
7.575497
7.550453
7.526178
7.502797
7.48042
7.458999
7.438633
7.419475
7.401962
7.386006
7.371455
7.358087
7.345681
7.334034
7.322973
7.312355
7.30207
7.292035
7.282182
7.272436
7.262727
7.25299
7.243185
7.233347
7.223656
7.214365
7.205723
7.198062
7.191846
7.187509
7.18538
7.1856
7.187868
7.191172
7.194743
7.198378
7.2021
7.205931
7.209866
7.213885
7.217955
7.222034
7.226083
7.230071
7.233974
7.237779
7.241543
7.24529
7.24902
7.252723
7.256351
7.25989
7.263344
7.266723
7.270042
7.273318
7.276573
7.27983
7.283112
7.286442
7.28984
7.293323
7.296901
7.300579
7.304352
7.308211
7.312137
7.316107
7.320095
7.324073
7.32801
7.331878
7.335653
7.339313
7.342848
7.346252
7.349529
7.352688
7.355742
7.35871
7.361612
7.364472
7.367321
7.370202
7.373165
7.376262
7.379549
7.383076
7.386885
7.391
7.395439
7.400228
7.405313
7.410689
7.416331
7.42223
7.428375
7.434716
7.441229
7.447891
7.454672
7.461546
7.468483
7.475455
7.482435
7.489398
7.496321
7.503186
7.509974
7.516672
7.52327
7.529761
7.536137
7.542395
7.548536
7.554559
7.560469
7.566269
7.571965
7.577561
7.583053
7.588442
7.593733
7.598929
7.604034
7.609049
7.613977
7.618818
7.623569
7.628231
7.632797
7.637272
7.641702
7.646228
7.650688
7.654935
7.658985
7.662909
7.666806
7.670767
7.674874
7.679188
7.683744
7.688555
7.693618
7.69891
7.704405
7.710075
7.715841
7.721683
7.727558
7.733429
7.739262
7.74502
7.750674
7.7562
7.761574
7.766781
7.771758
7.776492
7.780946
7.785071
7.788808
7.792082
7.794945
7.797278
7.798985
7.800008
7.800322
7.799957
7.798986
7.797494
7.795506
7.793099
7.790323
7.787222
7.78384
7.780206
7.776356
7.772323
7.768142
7.763851
7.759455
7.754983
7.750441
7.745869
7.741284
7.736706
7.732149
7.727629
7.723159
7.718753
7.714427
7.710205
7.70605
7.701982
7.698015
7.694155
7.690405
7.686762
7.68323
7.679818
7.676602
7.673989
7.672021
7.670588
7.669535
7.668702
7.667936
7.667103
7.66609
7.664803
7.663173
7.66115
7.658705
7.655826
7.652514
7.648785
7.644665
7.640185
7.635384
7.630302
7.62498
7.619462
7.613788
7.607998
7.602129
7.596217
7.590292
7.584384
7.578519
7.572717
7.566999
7.561378
7.555867
7.550475
7.545207
7.540068
7.53506
7.530184
7.525441
7.520833
7.516362
7.512032
7.507849
7.50382
7.499956
7.496264
7.492748
7.489405
7.486223
7.483194
7.480308
7.47756
7.474945
7.472458
7.470097
7.467858
7.46572
7.463655
7.461633
7.459622
7.457583
7.455477
7.453265
7.450911
7.448382
7.445655
7.442712
7.439543
7.436148
7.432534
7.428711
7.424699
7.420517
7.416188
7.411738
7.407191
7.40257
7.397899
7.393198
7.388488
7.383786
7.379107
7.374466
7.369873
7.365339
7.360873
7.356481
7.35217
7.347945
7.343809
7.339764
7.335813
7.331958
7.328197
7.324532
7.320962
7.317485
7.314102
7.310809
7.307605
7.304487
7.301453
7.298501
7.295625
7.292824
7.290092
7.287425
7.284819
7.282267
7.279766
7.277308
7.274888
7.2725
7.270137
7.267791
7.265458
7.263129
7.260798
7.258456
7.256098
7.253714
7.251295
7.248831
7.246311
7.243721
7.241043
7.238258
7.23534
7.232259
7.228978
7.225448
7.221615
7.217407
7.212744
7.207534
7.201682
7.195109
7.187792
7.179913
7.17252
197.7754
149.2661
214.9028
106.1743
88.5977
71.28829
65.67275
60.82213
55.82817
52.73547
49.60729
45.89366
42.66944
40.01701
37.99247
35.25687
35.09918
35.326
35.81325
36.33334
36.71073
36.82755
36.62068
36.0728
35.18342
34.14497
32.87731
31.57827
30.28583
29.00426
27.74854
26.52957
25.35411
24.22292
23.14287
22.12594
21.17546
20.288
19.45991
18.68795
17.96893
17.29893
16.67427
16.09091
15.54524
15.03417
14.55499
14.10524
13.68275
13.28557
12.91204
12.56069
12.23339
11.92726
11.64033
11.37107
11.11829
10.88109
10.65874
10.45063
10.25627
10.07523
9.907086
9.751418
9.607786
9.475704
9.354631
9.243978
9.143102
9.051325
8.967953
8.892281
8.823609
8.761263
8.704591
8.652963
8.605776
8.562465
8.522509
8.485432
8.450806
8.418248
8.387416
8.358007
8.329748
8.302389
8.275702
8.249475
8.22354
8.197977
8.172668
8.147345
8.12174
8.095892
8.069882
8.043743
8.017458
7.991004
7.964368
7.937553
7.910586
7.883498
7.856317
7.829068
7.801768
7.774429
7.747054
7.719641
7.692188
7.664694
7.637149
7.609483
7.581737
7.553969
7.526202
7.498437
7.470664
7.442862
7.415007
7.387077
7.359051
7.330913
7.302653
7.274286
7.245883
7.217566
7.189457
7.161701
7.134419
7.107695
7.081564
7.056026
7.031065
7.006653
6.98276
6.959358
6.936422
6.913938
6.891899
6.870307
6.849173
6.828511
6.808348
6.788714
6.769646
6.751181
6.733354
6.716371
6.700308
6.685192
6.671063
6.657906
6.645654
6.634209
6.623471
6.613339
6.60372
6.59453
6.585697
6.577161
6.568866
6.560755
6.552777
6.544895
6.537093
6.529394
6.521884
6.514696
6.507979
6.501922
6.496742
6.492622
6.489694
6.487982
6.487326
6.487319
6.48759
6.487976
6.488447
6.489009
6.489672
6.490451
6.491358
6.492408
6.493611
6.495
6.496654
6.498581
6.500699
6.502949
6.505297
6.507715
6.51018
6.512679
6.515203
6.517749
6.520317
6.522912
6.525541
6.528216
6.53095
6.533755
6.536644
6.539627
6.542707
6.545887
6.549161
6.552516
6.555938
6.559403
6.562887
6.566363
6.569804
6.573184
6.576483
6.579681
6.582768
6.585738
6.588592
6.591336
6.593982
6.596544
6.599041
6.601492
6.603917
6.606341
6.608786
6.611274
6.613827
6.616467
6.619212
6.62208
6.625086
6.628246
6.631585
6.635066
6.6387
6.642505
6.646484
6.65063
6.654937
6.659398
6.664003
6.668737
6.673586
6.67853
6.683552
6.688632
6.693751
6.698892
6.704036
6.70917
6.714278
6.71935
6.724376
6.729347
6.734257
6.739101
6.743877
6.748581
6.753211
6.757768
6.762251
6.766661
6.770998
6.775264
6.77946
6.783587
6.787646
6.791637
6.79556
6.799415
6.803203
6.806925
6.810593
6.814229
6.817831
6.821379
6.824863
6.828286
6.831663
6.835018
6.838378
6.841772
6.845228
6.848765
6.852398
6.856134
6.859974
6.863914
6.867939
6.872034
6.876181
6.88036
6.884551
6.888733
6.892883
6.896982
6.901011
6.90495
6.908777
6.91247
6.916004
6.91935
6.922473
6.925331
6.927889
6.930103
6.931928
6.933326
6.934281
6.934801
6.934917
6.934668
6.934087
6.933207
6.932055
6.930658
6.929039
6.927217
6.925211
6.923039
6.920717
6.918263
6.915692
6.913027
6.910255
6.907406
6.904495
6.901535
6.898541
6.895526
6.892501
6.88948
6.886486
6.883514
6.880556
6.877635
6.874755
6.871921
6.869136
6.866403
6.863721
6.861095
6.858541
6.856115
6.853858
6.85179
6.849907
6.848192
6.846612
6.845127
6.843693
6.842264
6.840797
6.839252
6.837592
6.835788
6.833818
6.831663
6.829313
6.826764
6.824014
6.82107
6.81794
6.814636
6.811173
6.807568
6.80384
6.800008
6.796093
6.792114
6.788091
6.784043
6.779985
6.775933
6.771901
6.767898
6.763936
6.760019
6.756156
6.75235
6.748607
6.74493
6.741324
6.737794
6.734345
6.730985
6.727721
6.724557
6.721499
6.718547
6.715698
6.712951
6.710301
6.707748
6.705288
6.702921
6.700645
6.698456
6.696346
6.694304
6.69232
6.690379
6.688468
6.686572
6.684674
6.682755
6.680798
6.678787
6.676705
6.674539
6.672278
6.669915
6.667443
6.664863
6.662174
6.65938
6.656487
6.653501
6.650432
6.647288
6.644079
6.640816
6.637509
6.634168
6.630803
6.627422
6.624036
6.620652
6.617278
6.613922
6.61059
6.607287
6.60402
6.600792
6.597608
6.594471
6.591383
6.588348
6.585367
6.582441
6.579571
6.576756
6.573998
6.571294
6.568644
6.566046
6.563498
6.560997
6.558541
6.556126
6.553748
6.551404
6.54909
6.5468
6.544532
6.542281
6.540042
6.537811
6.535584
6.533357
6.531124
6.528883
6.526626
6.52435
6.522046
6.519707
6.517322
6.514879
6.512364
6.509757
6.507037
6.504175
6.501139
6.497891
6.494386
6.490574
6.486401
6.481817
6.476781
6.471282
6.465436
6.459949
90.00064
57.44096
52.89998
49.83601
48.28611
46.443
44.72222
43.17147
41.82991
40.11591
36.22225
35.50903
34.8633
34.33405
33.90504
33.58499
33.45221
33.56391
33.93193
34.50073
35.1854
36.00309
36.80619
37.48754
37.9387
38.08371
37.80595
37.13783
36.21444
35.09575
33.8506
32.52267
31.16673
29.80925
28.47411
27.18188
25.94477
24.76872
23.6518
22.5898
21.58625
20.65274
19.78554
18.97608
18.21981
17.5127
16.84988
16.2272
15.64054
15.08673
14.56358
14.06923
13.60199
13.16033
12.74279
12.34804
11.97477
11.62209
11.28934
10.97569
10.68025
10.4022
10.14081
9.895425
9.665491
9.450539
9.250166
9.064013
8.891741
8.733008
8.587439
8.454606
8.33401
8.225076
8.12715
8.039506
7.961357
7.891878
7.830232
7.77558
7.727103
7.684012
7.645562
7.611061
7.57988
7.551446
7.525251
7.500848
7.477842
7.455892
7.434699
7.414006
7.393586
7.373242
7.352827
7.332233
7.311393
7.290298
7.268958
7.247418
7.2257
7.203815
7.181755
7.159477
7.13696
7.114312
7.091593
7.068839
7.046072
7.023306
7.000548
6.977799
6.955055
6.932309
6.909561
6.886831
6.864201
6.841634
6.81907
6.796481
6.773851
6.751169
6.728431
6.705634
6.682782
6.659884
6.636959
6.614037
6.591159
6.56838
6.545755
6.52334
6.501184
6.479337
6.457838
6.436722
6.416016
6.395737
6.375896
6.356497
6.337541
6.319025
6.300948
6.283308
6.266106
6.249346
6.233035
6.217186
6.201817
6.186951
6.172619
6.158851
6.145672
6.133105
6.121173
6.109891
6.099254
6.089231
6.079777
6.070841
6.062372
6.054319
6.046636
6.03928
6.032212
6.025394
6.018788
6.012361
6.00609
5.999966
5.994001
5.988236
5.982735
5.977576
5.972853
5.968659
5.965065
5.96213
5.959849
5.958128
5.956793
5.955664
5.954636
5.953671
5.952764
5.951932
5.951199
5.9506
5.950183
5.950049
5.950212
5.950606
5.951201
5.951969
5.952891
5.95395
5.955131
5.956421
5.957808
5.959287
5.960849
5.962494
5.964221
5.966032
5.967932
5.969926
5.972022
5.974224
5.976535
5.978958
5.981489
5.98412
5.98684
5.989633
5.99248
5.995357
5.998242
6.001111
6.003941
6.006713
6.009411
6.012024
6.014545
6.016973
6.019311
6.021567
6.023751
6.025878
6.02796
6.030014
6.032054
6.034094
6.036146
6.03822
6.040325
6.042468
6.044656
6.046897
6.049199
6.051577
6.054017
6.056539
6.059147
6.06185
6.064654
6.067563
6.070579
6.073701
6.076926
6.08025
6.083664
6.087159
6.090725
6.094349
6.09802
6.101725
6.105454
6.109195
6.112938
6.116676
6.1204
6.124104
6.127782
6.13143
6.135045
6.138623
6.142163
6.145663
6.149123
6.15254
6.155915
6.159248
6.162538
6.165785
6.168989
6.172149
6.175266
6.17834
6.181372
6.184365
6.187326
6.190257
6.193161
6.196037
6.198886
6.20171
6.204514
6.207307
6.210098
6.212895
6.215708
6.218545
6.221412
6.224311
6.227243
6.230206
6.233194
6.236201
6.23922
6.24224
6.245252
6.248245
6.251208
6.25413
6.257
6.259804
6.262528
6.265157
6.267673
6.270055
6.27228
6.274322
6.276154
6.277751
6.279093
6.280167
6.280976
6.281531
6.281849
6.28195
6.281851
6.281567
6.281113
6.280503
6.279746
6.278854
6.277835
6.276699
6.275452
6.274105
6.272665
6.271138
6.269532
6.267856
6.266118
6.264327
6.262492
6.260621
6.258724
6.256816
6.254884
6.252946
6.251004
6.249062
6.247124
6.245192
6.243267
6.24135
6.239443
6.237547
6.235673
6.23383
6.232028
6.230276
6.228581
6.226943
6.22536
6.223824
6.222325
6.220849
6.219381
6.217904
6.216402
6.214861
6.213264
6.2116
6.209857
6.208027
6.206104
6.204083
6.201963
6.199746
6.197435
6.195035
6.192552
6.189996
6.187376
6.184701
6.181982
6.179229
6.17645
6.173656
6.170852
6.168047
6.165244
6.16245
6.159669
6.156903
6.154158
6.151437
6.148744
6.146084
6.143461
6.140881
6.138349
6.135868
6.133441
6.131068
6.128751
6.12649
6.124284
6.122135
6.120043
6.118006
6.116026
6.114098
6.112218
6.110383
6.108588
6.106827
6.105097
6.10339
6.101699
6.100019
6.09834
6.096655
6.094956
6.093236
6.091488
6.089705
6.087882
6.086016
6.084102
6.08214
6.080128
6.078066
6.075955
6.073797
6.071594
6.069349
6.067065
6.064746
6.062396
6.06002
6.057623
6.055208
6.052781
6.050345
6.047907
6.045469
6.043036
6.040612
6.0382
6.035804
6.033426
6.031069
6.028734
6.026425
6.024141
6.021885
6.019655
6.017453
6.015278
6.013129
6.011005
6.008905
6.006826
6.004766
6.002724
6.000698
5.998683
5.996679
5.994683
5.992693
5.990707
5.988722
5.986737
5.984749
5.982757
5.980757
5.978747
5.976722
5.974678
5.972607
5.970502
5.968352
5.966145
5.963863
5.961491
5.959004
5.956378
5.953586
5.950596
5.947378
5.943903
5.940149
5.93611
5.931862
5.927893
111.6298
42.36457
33.99827
32.20649
31.32057
30.85757
30.66342
30.63955
30.73735
30.94093
31.15844
31.22644
31.34804
31.56294
31.88783
32.34036
32.94788
33.72111
34.63134
35.59644
36.52842
37.45012
38.17046
38.58493
38.54914
38.15689
37.3884
36.33898
35.08138
33.69981
32.25722
30.81141
29.39085
28.02411
26.72832
25.51261
24.37787
23.32102
22.33539
21.41098
20.54608
19.74156
18.98935
18.28299
17.61784
16.98851
16.38969
15.81793
15.27087
14.74692
14.24493
13.7641
13.30379
12.86348
12.44268
12.04094
11.65778
11.29276
10.94548
10.61552
10.30237
10.00555
9.724623
9.459159
9.208798
8.973238
8.752236
8.545598
8.353164
8.17478
8.010272
7.859417
7.721917
7.597385
7.485325
7.385137
7.296117
7.217476
7.148359
7.087868
7.035084
6.989092
6.949001
6.913963
6.883185
6.855942
6.831576
6.809505
6.789219
6.770273
6.752288
6.734955
6.718026
6.701284
6.684527