/*--------------------------------*- C++ -*----------------------------------*\
| =========                 |                                                 |
| \\      /  F ield         | foam-extend: Open Source CFD                    |
|  \\    /   O peration     | Version:     3.1                                |
|   \\  /    A nd           | Web:         http://www.extend-project.de       |
|    \\/     M anipulation  |                                                 |
\*---------------------------------------------------------------------------*/
FoamFile
{
    version     2.0;
    format      ascii;
    class       surfaceScalarField;
    location    "1.5";
    object      phi;
}
// * * * * * * * * * * * * * * * * * * * * * * * * * * * * * * * * * * * * * //

dimensions      [0 3 -1 0 0 0 0];

internalField   nonuniform List<scalar> 
275122
(
-0.0001078709
0.0001090217
-6.117931e-08
-1.089669e-06
-9.718811e-05
9.279168e-05
3.432978e-07
4.053135e-06
-9.702132e-05
9.992877e-05
-7.072913e-08
-2.836722e-06
-0.0001094162
0.0001125766
-7.045048e-08
-3.08996e-06
-0.0001205034
0.0001215063
-6.303737e-08
-9.399087e-07
-0.0001218043
0.0001216924
-4.671273e-08
1.586395e-07
-0.0001208935
0.0001205376
-3.614089e-08
3.921274e-07
-0.0001193135
0.0001188634
-2.877022e-08
4.788127e-07
-0.0001174271
0.0001169217
-2.31264e-08
5.285164e-07
-0.0001153449
0.0001148001
-1.819539e-08
5.629889e-07
-0.0001131198
0.0001125451
-1.419756e-08
5.889289e-07
-0.000110785
0.000110187
-1.105548e-08
6.090937e-07
-0.0001083649
0.0001077488
-8.624636e-09
6.247065e-07
-0.0001058792
0.0001052496
-6.769888e-09
6.36428e-07
-0.0001033452
0.0001027061
-5.4777e-09
6.445422e-07
-0.0001007788
0.0001001346
-4.106911e-09
6.482895e-07
-9.820043e-05
9.755859e-05
-3.752647e-09
6.455926e-07
-9.564951e-05
9.502883e-05
-5.945334e-09
6.266221e-07
-9.326245e-05
9.274571e-05
-2.155727e-08
5.383019e-07
-9.165157e-05
9.178956e-05
-1.164548e-07
-2.153544e-08
-0.0001016486
0.0001051819
-3.051138e-07
-3.228172e-06
-0.0001065028
0.0001068211
-1.2205e-07
-1.962457e-07
-0.0001076507
0.000108335
-6.757512e-08
-6.1666e-07
-0.0001199822
0.0001243454
8.568399e-08
-4.448898e-06
-0.0001254739
0.0001256148
1.789732e-07
-3.198162e-07
-0.0001267688
0.0001269206
7.565543e-08
-2.274521e-07
-0.0001269074
0.0001267193
4.405831e-08
1.4406e-07
-0.0001256518
0.0001246983
4.252733e-08
9.110077e-07
-0.0001177822
0.0001104686
4.239183e-08
7.271177e-06
-0.0001343061
0.0001380533
3.202313e-09
-3.750341e-06
-8.36148e-05
8.758374e-05
-2.36038e-08
-3.945331e-06
-9.91067e-05
0.0001029759
1.520285e-09
-3.870683e-06
-0.0001147901
0.0001187898
1.541592e-09
-4.001182e-06
-0.0001309967
0.0001351363
1.542495e-09
-4.141098e-06
-0.0001476208
0.0001517789
1.459364e-09
-4.1596e-06
-0.0001644115
0.0001686398
1.347253e-09
-4.229647e-06
-0.0001813352
0.0001855736
1.11991e-09
-4.239526e-06
-0.000198262
0.0002024782
9.328846e-10
-4.217188e-06
-0.0002151239
0.0002193345
9.888399e-10
-4.211643e-06
-0.0002320771
0.000236612
6.856428e-08
-4.603476e-06
3.727996e-06
-0.0001587311
0.0001590116
-1.474299e-10
-4.008378e-06
3.784702e-06
-0.0001598393
0.0001600369
-1.192171e-10
-3.982121e-06
3.902448e-06
-0.0001604121
0.0001604774
-2.099668e-10
-3.967558e-06
4.007062e-06
-0.0001605163
0.0001604676
-1.689683e-10
-3.95814e-06
3.99564e-06
-0.0001602962
0.0001602391
-2.14514e-11
-3.938602e-06
4.038481e-06
-0.0001599659
0.0001598652
-5.986435e-11
-3.937668e-06
4.049748e-06
-0.0001595497
0.0001594275
-2.943549e-10
-3.927219e-06
4.052936e-06
-0.0001590801
0.0001589469
-7.612844e-11
-3.919604e-06
4.165967e-06
-0.0001585213
0.0001582603
3.214494e-11
-3.90495e-06
3.504051e-06
-0.0006356865
0.0006357507
-2.338138e-11
-1.44564e-05
3.696868e-06
3.499417e-06
3.691851e-06
3.729765e-06
-0.0006354355
0.0006348537
-2.500666e-11
-1.450466e-05
3.817184e-06
3.726742e-06
3.812836e-06
3.782117e-06
-0.0006340574
0.0006331188
-2.044614e-11
-1.42704e-05
3.825247e-06
3.779123e-06
3.822542e-06
3.781696e-06
-0.0006321008
0.0006311082
-3.338831e-12
-1.415522e-05
3.794976e-06
3.77902e-06
3.792122e-06
3.797338e-06
-0.0006300255
0.0006288988
-6.233686e-12
-1.406485e-05
3.801078e-06
3.794381e-06
3.79876e-06
3.783485e-06
-0.0006277708
0.0006266135
-5.107272e-11
-1.398008e-05
3.78663e-06
3.7824e-06
3.784926e-06
3.77378e-06
-0.0006254433
0.0006242512
-1.994902e-10
-1.389545e-05
3.771177e-06
3.772664e-06
3.770163e-06
3.761693e-06
-0.0006230526
0.0006218329
-1.349143e-10
-1.381335e-05
3.756263e-06
3.760132e-06
3.755093e-06
3.744986e-06
-0.0006206123
0.0006193006
-6.12566e-11
-1.368443e-05
3.753655e-06
3.74439e-06
3.753107e-06
3.534451e-06
-0.0006178132
0.0006171867
-3.093431e-11
-1.35805e-05
3.568845e-06
3.534709e-06
3.569068e-06
3.709087e-06
-0.0006161677
0.0006147973
-1.138945e-11
-1.334765e-05
3.65141e-06
3.705797e-06
3.651803e-06
3.600238e-06
-0.0006136536
0.0006125416
-1.211762e-11
-1.324194e-05
3.575989e-06
3.601058e-06
3.576607e-06
3.569317e-06
-0.0006114475
0.0006103665
-1.303048e-11
-1.317734e-05
3.559335e-06
3.569877e-06
3.559867e-06
3.548711e-06
-0.0006093018
0.0006082245
-1.959981e-11
-1.310918e-05
3.544613e-06
3.548632e-06
3.544546e-06
3.542277e-06
-0.0006071398
0.0006060438
-8.177306e-11
-1.306905e-05
3.542156e-06
3.540654e-06
3.540044e-06
3.552767e-06
-0.0006049392
0.0006038226
-8.72886e-11
-1.308356e-05
3.556351e-06
3.54435e-06
3.546813e-06
3.620232e-06
-0.0006027005
0.0006015374
-2.507057e-11
-1.326667e-05
3.640409e-06
3.57731e-06
3.591804e-06
3.924744e-06
-0.0006002739
0.0005986024
-1.853719e-11
-1.384882e-05
4.034648e-06
3.743428e-06
3.817535e-06
4.86565e-06
-0.0005959859
0.0005913861
-6.678031e-12
-1.462899e-05
5.373163e-06
4.418736e-06
4.571237e-06
4.175376e-06
-0.0005853031
0.0005894421
6.186661e-12
-8.314442e-06
5.230176e-06
-0.0005923638
0.0005923354
8.375028e-13
-5.201738e-06
9.066209e-06
-0.0005909163
0.0005892273
-2.870294e-12
-7.377217e-06
7.869733e-06
-0.0005875799
0.0005859236
-5.412897e-12
-6.213402e-06
3.274224e-06
-0.0005846447
0.0005845232
-6.637302e-12
-3.152763e-06
4.52947e-07
-0.0005846938
0.0005847441
-7.401739e-12
-5.032792e-07
-8.4627e-07
-0.0005848364
0.0005849824
-7.18758e-12
7.003218e-07
-1.470277e-06
-0.0005850735
0.0005851029
-7.433832e-12
1.440848e-06
-1.839758e-06
-0.0005850976
0.0005850449
-7.533656e-12
1.892494e-06
-2.071658e-06
-0.0005849696
0.0005848685
-7.421916e-12
2.172837e-06
-2.235065e-06
-0.00058476
0.0005846408
-7.156517e-12
2.354314e-06
-2.351462e-06
-0.0005845222
0.0005844028
-6.828902e-12
2.470856e-06
-2.4313e-06
-0.0005842891
0.000584182
-6.471265e-12
2.538434e-06
-2.477758e-06
-0.0005840845
0.0005840004
-6.082203e-12
2.561838e-06
-2.486696e-06
-0.0005839302
0.0005838793
-5.715004e-12
2.537584e-06
-2.449938e-06
-0.0005838457
0.00058384
-5.33077e-12
2.455664e-06
-2.335548e-06
-0.0005838602
0.0005839196
-4.847981e-12
2.276122e-06
-2.059589e-06
-0.0005840121
0.0005841518
-4.383271e-12
1.919888e-06
-1.405334e-06
-0.0005843149
0.0005844947
-3.871415e-12
1.22553e-06
3.045651e-07
-0.0005846059
0.0005843851
-3.349714e-12
-8.376924e-08
2.060724e-06
-0.0005832354
0.0005826384
-2.864332e-12
-1.463729e-06
1.452224e-06
-0.0005828654
0.0005831184
-2.804192e-12
-1.705169e-06
5.006757e-06
-0.0005830631
0.0005821003
-2.357979e-12
-4.043916e-06
9.790222e-06
-0.0005784264
0.0005750047
-1.874693e-12
-6.368495e-06
3.466971e-06
-0.0005731109
0.0005724653
-1.436625e-12
-2.821432e-06
2.479661e-07
-0.0005719036
0.0005711218
-1.062258e-12
5.339038e-07
-3.046457e-06
-0.0005705361
0.0005699231
-8.262727e-13
3.659467e-06
-8.759425e-06
-0.0005695339
0.0005697375
-7.039284e-13
8.555867e-06
-2.315406e-05
-0.0005713537
0.0005784422
-6.500812e-13
1.606557e-05
-4.460324e-06
-0.0005870422
0.0005883264
-6.541071e-13
1.4231e-05
-3.249024e-06
-4.497487e-06
-3.308269e-06
-1.794441e-06
-0.0005878641
0.0005874036
-4.05816e-13
7.464305e-06
-1.649778e-06
-1.853553e-06
-1.705963e-06
-1.128215e-06
-0.0005867556
0.0005860912
-9.05924e-14
5.100303e-06
-1.048182e-06
-1.172587e-06
-1.086967e-06
-8.455472e-07
-0.0005854969
0.0005850505
4.159173e-13
3.839386e-06
-8.200661e-07
-8.77733e-07
-8.495889e-07
-7.330278e-07
-0.0005847005
0.000584453
1.008023e-12
3.196067e-06
-7.198603e-07
-7.555251e-07
-7.401079e-07
-6.765657e-07
-0.0005842679
0.0005841581
1.493942e-12
2.827863e-06
-6.703047e-07
-6.898122e-07
-6.81315e-07
-6.449747e-07
-0.0005840898
0.0005840744
1.901856e-12
2.600268e-06
-6.407118e-07
-6.520831e-07
-6.470745e-07
-6.247229e-07
-0.000584088
0.0005841413
2.219788e-12
2.448598e-06
-6.219473e-07
-6.292129e-07
-6.260779e-07
-6.115259e-07
-0.000584217
0.0005843238
2.466189e-12
2.341849e-06
-6.096585e-07
-6.147605e-07
-6.127404e-07
-6.026441e-07
-0.0005844483
0.0005845977
2.660016e-12
2.263639e-06
-6.013164e-07
-6.05241e-07
-6.038233e-07
-5.964837e-07
-0.0005847612
0.0005849451
2.814228e-12
2.204466e-06
-5.955848e-07
-5.986091e-07
-5.97612e-07
-5.922234e-07
-0.0005851405
0.0005853526
2.933144e-12
2.15865e-06
-5.915527e-07
-5.938827e-07
-5.931003e-07
-5.89362e-07
-0.0005855744
0.0005858104
3.02138e-12
2.122835e-06
-5.889079e-07
-5.905627e-07
-5.900361e-07
-5.875621e-07
-0.0005860548
0.0005863113
3.085091e-12
2.094814e-06
-5.872581e-07
-5.8845e-07
-5.880925e-07
-5.865519e-07
-0.0005865751
0.0005868494
3.131801e-12
2.072793e-06
-5.863585e-07
-5.872079e-07
-5.869755e-07
-5.86119e-07
-0.0005871299
0.0005874197
3.168851e-12
2.055395e-06
-5.860026e-07
-5.866116e-07
-5.864698e-07
-5.860835e-07
-0.0005877151
0.0005880186
3.198843e-12
2.041483e-06
-5.860178e-07
-5.864769e-07
-5.863984e-07
-5.863215e-07
-0.000588327
0.0005886426
3.223067e-12
2.030239e-06
-5.862924e-07
-5.866634e-07
-5.866281e-07
-5.86767e-07
-0.0005889627
0.0005892893
3.237232e-12
2.021096e-06
-5.867676e-07
-5.870785e-07
-5.870745e-07
-5.873848e-07
-0.0005896199
0.0005899564
3.236415e-12
2.013674e-06
-5.874124e-07
-5.876687e-07
-5.876912e-07
-5.881543e-07
-0.0005902965
0.000590642
3.223192e-12
2.007723e-06
-5.882088e-07
-5.884087e-07
-5.884581e-07
-5.890622e-07
-0.0005909909
0.0005913446
3.197082e-12
2.003084e-06
-5.891421e-07
-5.892879e-07
-5.893635e-07
-5.901063e-07
-0.0005917015
0.0005920629
3.150658e-12
1.999689e-06
-5.902119e-07
-5.903071e-07
-5.904095e-07
-5.913074e-07
-0.0005924271
0.0005927953
3.088426e-12
1.997586e-06
-5.914441e-07
-5.914811e-07
-5.916156e-07
-5.927342e-07
-0.0005931662
0.0005935408
3.0363e-12
1.996974e-06
-5.929259e-07
-5.928605e-07
-5.930429e-07
-5.945272e-07
0.0005942988
2.56758e-12
1.998082e-06
-5.948e-07
-5.94628e-07
-5.948931e-07
-0.000593918
-5.960217e-07
-0.0005946821
0.0005950678
1.916706e-12
2.000261e-06
-5.963056e-07
-5.966082e-07
-5.970085e-07
-5.974558e-07
-0.0005954542
0.0005958421
-7.572117e-12
2.002913e-06
-5.97584e-07
-5.978222e-07
-5.979575e-07
-5.99971e-07
-0.0005962317
0.0005966235
-1.231264e-12
2.008482e-06
-6.002053e-07
-5.999771e-07
-6.001525e-07
-6.027345e-07
-0.000597017
0.0005974117
1.679474e-12
2.017377e-06
-6.031273e-07
-6.029004e-07
-6.032529e-07
-6.057271e-07
-0.0005978071
0.0005982026
2.137314e-12
2.028707e-06
-6.062073e-07
-6.0588e-07
-6.063663e-07
-6.090804e-07
-0.0005985985
0.0005989943
1.967763e-12
2.041925e-06
-6.096903e-07
-6.091533e-07
-6.097689e-07
-6.127005e-07
-0.0005993903
0.0005997855
2.033236e-12
2.056882e-06
-6.133234e-07
-6.127485e-07
-6.133759e-07
-6.165002e-07
-0.0006001809
0.0006005751
2.178564e-12
2.07314e-06
-6.171293e-07
-6.165391e-07
-6.171732e-07
-6.203672e-07
-0.0006009691
0.0006013618
2.397236e-12
2.090119e-06
-6.209912e-07
-6.204034e-07
-6.210311e-07
-6.241839e-07
-0.0006017541
0.000602145
1.998976e-12
2.107164e-06
-6.247858e-07
-6.242267e-07
-6.24832e-07
-6.278324e-07
-0.0006025354
0.0006029243
1.533845e-12
2.123683e-06
-6.283993e-07
-6.278897e-07
-6.284591e-07
-6.311879e-07
-0.0006033128
0.0006036998
1.166582e-12
2.138922e-06
-6.317039e-07
-6.312616e-07
-6.317786e-07
-6.341895e-07
-0.0006040864
0.0006044718
8.469171e-13
2.15246e-06
-6.346598e-07
-6.342761e-07
-6.347449e-07
-6.368538e-07
-0.000604857
0.0006052412
5.250383e-13
2.164157e-06
-6.372871e-07
-6.369401e-07
-6.373686e-07
-6.392054e-07
-0.0006056255
0.0006060094
1.560835e-13
2.173889e-06
-6.396163e-07
-6.392662e-07
-6.396609e-07
-6.412465e-07
-0.0006063935
0.0006067777
-2.06277e-13
2.181561e-06
-6.416102e-07
-6.412805e-07
-6.416492e-07
-6.428704e-07
-0.0006071625
0.000607548
-5.371964e-13
2.187011e-06
-6.432287e-07
-6.430095e-07
-6.433833e-07
-6.441562e-07
-0.0006079344
0.0006083219
-7.721198e-13
2.189965e-06
-6.444371e-07
-6.443319e-07
-6.445969e-07
-6.449968e-07
-0.0006087107
0.0006091015
-9.04542e-13
2.189873e-06
-6.452633e-07
-6.450892e-07
-6.453416e-07
-6.452635e-07
-0.0006094942
0.0006098902
-9.834356e-13
2.185616e-06
-6.4545e-07
-6.453472e-07
-6.455296e-07
-6.442869e-07
-0.0006102891
0.0006106934
-9.510024e-13
2.173051e-06
-6.442782e-07
-6.443699e-07
-6.443563e-07
-6.398573e-07
-0.000611103
0.0006115209
-1.315462e-12
2.140094e-06
-6.390118e-07
-6.399613e-07
-6.391052e-07
-6.192941e-07
-0.0006119467
0.0006123611
-2.89078e-12
2.051645e-06
-6.135263e-07
-6.195379e-07
-6.137199e-07
-5.442676e-07
-0.0006127242
0.0006129399
-1.785259e-12
1.897566e-06
-5.112412e-07
-5.452281e-07
-5.125998e-07
-5.587927e-07
-0.0006133645
0.0006136021
-1.768032e-12
2.003614e-06
-5.641821e-07
-5.566283e-07
-5.615833e-07
-5.578648e-07
-0.0006138606
0.0006141487
-1.841413e-12
1.966011e-06
-5.705816e-07
-5.564208e-07
-5.692265e-07
-5.656927e-07
-0.0006144597
0.0006147683
-2.223525e-12
1.957718e-06
-5.682407e-07
-5.64798e-07
-5.675483e-07
-5.807425e-07
-0.0006151018
0.0006154534
-2.619624e-12
1.97408e-06
-5.82676e-07
-5.801383e-07
-5.821603e-07
-5.942173e-07
-0.0006158192
0.0006161961
-3.256365e-12
2.001244e-06
-5.952975e-07
-5.937146e-07
-5.948669e-07
-6.057319e-07
-0.000616582
0.0006169747
-3.925571e-12
2.031634e-06
-6.067604e-07
-6.053501e-07
-6.06434e-07
-6.159091e-07
-0.0006173731
0.0006177752
-4.528884e-12
2.063005e-06
-6.169024e-07
-6.156381e-07
-6.166567e-07
-6.248363e-07
-0.0006181809
0.0006185883
-5.109605e-12
2.093373e-06
-6.257591e-07
-6.24614e-07
-6.255515e-07
-6.326686e-07
-0.0006189979
0.000619408
-5.6429e-12
2.121926e-06
-6.335435e-07
-6.324566e-07
-6.333241e-07
-6.395705e-07
-0.0006198194
0.0006202305
-6.010988e-12
2.148306e-06
-6.402679e-07
-6.393812e-07
-6.401367e-07
-6.456282e-07
-0.0006206423
0.0006210534
-6.140843e-12
2.172732e-06
-6.463191e-07
-6.455656e-07
-6.462969e-07
-6.510453e-07
-0.0006214646
0.0006218744
-6.043324e-12
2.195475e-06
-6.515949e-07
-6.510364e-07
-6.515634e-07
-6.560513e-07
-0.0006222841
0.0006226921
-5.744094e-12
2.217067e-06
-6.565498e-07
-6.559849e-07
-6.564949e-07
-6.607577e-07
-0.0006230998
0.0006235056
-5.285718e-12
2.238045e-06
-6.612184e-07
-6.60675e-07
-6.611438e-07
-6.65227e-07
-0.0006239108
0.0006243138
-4.724113e-12
2.258565e-06
-6.656494e-07
-6.651416e-07
-6.655672e-07
-6.695304e-07
-0.0006247161
0.000625116
-3.951304e-12
2.27888e-06
-6.698987e-07
-6.694597e-07
-6.698485e-07
-6.736933e-07
-0.0006255149
0.0006259112
-3.08279e-12
2.299096e-06
-6.740398e-07
-6.736338e-07
-6.73984e-07
-6.777345e-07
-0.0006263064
0.0006266986
-2.138998e-12
2.319256e-06
-6.780735e-07
-6.776817e-07
-6.780158e-07
-6.817446e-07
-0.0006270897
0.0006274777
-1.393608e-12
2.33956e-06
-6.820987e-07
-6.817062e-07
-6.820652e-07
-6.857902e-07
-0.0006278647
0.000628249
-9.818913e-13
2.359913e-06
-6.86393e-07
-6.857442e-07
-6.863562e-07
-6.886948e-07
-0.0006286316
0.0006290084
2.448916e-12
2.380049e-06
-6.896329e-07
-6.887522e-07
-6.897826e-07
-6.914855e-07
-0.0006293826
0.0006297543
9.517558e-12
2.39606e-06
-6.927447e-07
-6.910513e-07
-6.924773e-07
-6.954973e-07
-0.0006301251
0.0006304955
1.573803e-11
2.411129e-06
-6.95152e-07
-6.956763e-07
-6.952226e-07
-6.995049e-07
-0.0006308653
0.000631231
2.75734e-12
2.43134e-06
-6.990421e-07
-6.994557e-07
-6.989869e-07
-7.028789e-07
-0.0006315944
0.0006319543
1.627723e-12
2.451432e-06
-7.028543e-07
-7.027755e-07
-7.027435e-07
-7.062914e-07
0.0006326674
1.217657e-12
2.470205e-06
-0.0006323125
-7.063593e-07
-7.061869e-07
-7.062655e-07
-7.094333e-07
-0.0006330208
0.0006333712
1.249062e-12
2.487601e-06
-7.09535e-07
-7.094346e-07
-7.095594e-07
-7.123598e-07
-0.00063372
0.0006340656
8.60286e-13
2.503922e-06
-7.123797e-07
-7.12396e-07
-7.124037e-07
-7.15127e-07
-0.0006344097
0.0006347508
1.523879e-13
2.51937e-06
-7.151531e-07
-7.150834e-07
-7.150933e-07
-7.178822e-07
-0.0006350905
0.0006354273
-7.385858e-13
2.534518e-06
-7.178913e-07
-7.178003e-07
-7.178017e-07
-7.205458e-07
-0.0006357628
0.0006360956
-1.452508e-12
2.549208e-06
-7.20541e-07
-7.204439e-07
-7.204318e-07
-7.231573e-07
-0.0006364271
0.0006367559
-2.096017e-12
2.563529e-06
-7.231258e-07
-7.230556e-07
-7.230318e-07
-7.256946e-07
-0.0006370835
0.0006374085
-2.632731e-12
2.577468e-06
-7.256512e-07
-7.255935e-07
-7.255434e-07
-7.281833e-07
-0.0006377323
0.0006380536
-3.046779e-12
2.591082e-06
-7.281182e-07
-7.280665e-07
-7.279986e-07
-7.30635e-07
-0.0006383738
0.0006386915
-3.582953e-12
2.604444e-06
-7.305439e-07
-7.305252e-07
-7.30442e-07
-7.330226e-07
-0.0006390081
0.0006393223
-3.808731e-12
2.617487e-06
-7.329116e-07
-7.329286e-07
-7.328178e-07
-7.353642e-07
-0.0006396354
0.0006399462
-3.983239e-12
2.630178e-06
-7.352312e-07
-7.352591e-07
-7.351238e-07
-7.376647e-07
-0.000640256
0.0006405636
-4.023049e-12
2.642609e-06
-7.375248e-07
-7.375568e-07
-7.374285e-07
-7.399067e-07
-0.0006408702
0.0006411746
-3.953973e-12
2.65476e-06
-7.397529e-07
-7.398264e-07
-7.396772e-07
-7.421246e-07
-0.000641478
0.0006417794
-3.845641e-12
2.666606e-06
-7.419565e-07
-7.420181e-07
-7.418569e-07
-7.443024e-07
-0.0006420799
0.0006423784
-3.71786e-12
2.678152e-06
-7.4418e-07
-7.44161e-07
-7.440191e-07
-7.464488e-07
-0.0006426762
0.0006429721
-3.3574e-12
2.689306e-06
-7.463259e-07
-7.462808e-07
-7.461836e-07
-7.483615e-07
-0.0006432674
0.0006435612
-3.134542e-12
2.699631e-06
-7.483702e-07
-7.483226e-07
-7.483735e-07
-7.501209e-07
-0.0006438544
0.0006441464
-2.609218e-12
2.708679e-06
-7.501635e-07
-7.501311e-07
-7.501639e-07
-7.516035e-07
-0.0006444379
0.0006447289
-2.185102e-12
2.71563e-06
-7.518014e-07
-7.515013e-07
-7.517435e-07
-7.526967e-07
-0.0006450203
0.0006453126
-1.818564e-12
2.71945e-06
-7.532032e-07
-7.526216e-07
-7.531649e-07
-7.536169e-07
-0.0006456068
0.0006459046
-1.552687e-12
2.715549e-06
-7.52945e-07
-7.534334e-07
-7.5333e-07
-7.530599e-07
-0.0006462084
0.0006465248
2.349385e-12
2.692523e-06
-7.516764e-07
-7.519934e-07
-7.522571e-07
-7.423934e-07
-0.0006468602
0.0006472012
-2.250024e-12
2.608135e-06
-7.323884e-07
-7.418185e-07
-7.325352e-07
-4.940631e-07
-0.0006473189
0.0006467505
5.980043e-12
2.400725e-06
-4.215248e-07
-4.938469e-07
-4.228355e-07
-3.248929e-07
-0.0001610612
0.0001607486
1.405612e-11
6.375158e-07
-5.547171e-07
-0.0001602567
0.000160194
-1.133474e-10
6.175035e-07
-6.363849e-07
-0.0001601442
0.0001601542
-8.534824e-11
6.264701e-07
-6.762228e-07
-0.0001602266
0.0001602582
-5.313563e-11
6.446432e-07
-7.001635e-07
-0.0001603639
0.000160401
-2.724117e-11
6.630812e-07
-7.160104e-07
-0.0001605148
0.0001605529
-1.201517e-11
6.778912e-07
-7.273639e-07
-0.000160667
0.0001607047
-5.136823e-12
6.897277e-07
-7.359932e-07
-0.0001608164
0.000160853
1.086078e-12
6.993525e-07
-7.428569e-07
-0.0001609614
0.0001609969
7.766502e-12
7.073622e-07
-7.485231e-07
-0.000161102
0.0001611363
1.394819e-11
7.14224e-07
-7.53384e-07
-0.0001612377
0.000161271
8.760105e-12
7.20115e-07
-7.57417e-07
-0.0001613692
0.0001614013
5.637011e-12
7.253013e-07
-7.61136e-07
-0.0001614962
0.0001615272
1.181936e-11
7.301242e-07
-7.658746e-07
-0.000161619
0.0001616497
1.773895e-11
7.351394e-07
-7.672466e-07
-0.0001617416
0.0001617711
-1.849085e-12
7.377792e-07
-7.687913e-07
-0.0001618574
0.0001618858
7.223344e-11
7.402573e-07
-7.704019e-07
-0.0001619658
0.0001619928
1.813365e-11
7.434148e-07
-7.739667e-07
-0.000162074
0.000162101
2.015059e-11
7.469899e-07
-7.763717e-07
-0.000162181
0.0001622073
1.946486e-11
7.500156e-07
-7.782555e-07
-0.0001622853
0.0001623109
1.843127e-11
7.525548e-07
-7.798599e-07
-0.000162387
0.0001624122
1.991995e-11
7.547109e-07
-7.812766e-07
-0.0001624867
0.0001625115
1.97949e-11
7.565419e-07
-7.824723e-07
-0.0001625849
0.0001626093
1.939525e-11
7.580478e-07
-7.835007e-07
-0.000162682
0.0001627062
2.273588e-11
7.592486e-07
-7.843555e-07
-0.0001627787
0.0001628029
2.808515e-11
7.601123e-07
-7.850428e-07
-0.0001628759
0.0001629003
2.962078e-11
7.605981e-07
-7.85322e-07
-0.0001629742
0.000162999
1.843286e-11
7.604159e-07
-7.852301e-07
-0.0001630751
0.0001631009
1.299072e-11
7.594832e-07
-7.845178e-07
-0.0001631803
0.0001632074
2.009897e-11
7.574491e-07
-7.832017e-07
-0.0001632924
0.0001633217
2.261574e-11
7.538722e-07
-7.805347e-07
-0.0001634157
0.0001634487
2.434591e-11
7.475405e-07
-7.752252e-07
-0.0001635584
0.0001635979
2.243235e-11
7.356269e-07
-7.619962e-07
-0.0001637249
0.0001637728
2.797554e-11
7.140848e-07
-7.442154e-07
-0.0001639603
0.0001640396
2.802591e-11
6.648883e-07
-6.695522e-07
-0.0001643396
0.000164488
2.488611e-11
5.211099e-07
2.153734e-07
-0.0001649967
0.0001649115
3.422934e-11
-1.302332e-07
6.950636e-07
-0.0001646098
0.0001645498
1.588383e-11
-6.350937e-07
7.632928e-07
-0.0001644034
0.0001643735
1.219319e-11
-7.333973e-07
7.894968e-07
-0.0001643083
0.000164296
7.299489e-12
-7.771692e-07
8.074293e-07
-0.0001642747
0.0001642729
2.21945e-12
-8.056643e-07
8.176172e-07
-0.0001642768
0.0001642827
-4.123172e-12
-8.234914e-07
8.238747e-07
-0.0001643084
0.0001643196
-5.5645e-12
-8.350311e-07
8.290289e-07
-0.0001643595
0.0001643749
-4.338949e-12
-8.444695e-07
8.330239e-07
-0.0001644263
0.0001644451
-5.186751e-12
-8.51787e-07
8.361485e-07
-0.0001645053
0.0001645266
-9.088815e-12
-8.575006e-07
8.386382e-07
-0.0001645937
0.000164617
-1.048654e-11
-8.620084e-07
8.408065e-07
-0.0001646893
0.0001647141
-8.993805e-12
-8.656542e-07
8.426734e-07
-0.0001647904
0.0001648163
-8.428786e-12
-8.686434e-07
8.443611e-07
-0.0001648955
0.0001649223
-6.616787e-12
-8.711545e-07
8.458706e-07
-0.0001650035
0.0001650309
-7.287233e-12
-8.732567e-07
8.472385e-07
-0.0001651136
0.0001651414
-6.608966e-12
-8.75042e-07
8.485165e-07
-0.0001652252
0.0001652533
-4.892329e-12
-8.765793e-07
8.496864e-07
-0.0001653376
0.0001653658
-4.730181e-12
-8.779001e-07
8.507776e-07
-0.0001654505
0.0001654787
-5.170429e-12
-8.790466e-07
8.517968e-07
-0.0001655634
0.0001655917
-3.574218e-12
-8.800417e-07
8.527374e-07
-0.0001656761
0.0001657043
-2.930697e-12
-8.808981e-07
8.536186e-07
-0.0001657884
0.0001658164
-3.821743e-12
-8.816319e-07
8.544162e-07
-0.0001658999
0.0001659278
-2.51556e-12
-8.822358e-07
8.551432e-07
-0.0001660106
0.0001660382
-5.474303e-13
-8.827241e-07
8.558391e-07
-0.0001661201
0.0001661473
-3.919673e-13
-8.831053e-07
8.563837e-07
-0.0001662281
0.0001662551
-2.991795e-12
-8.833244e-07
8.567544e-07
-0.0001663347
0.0001663613
-3.583554e-12
-8.833521e-07
8.570819e-07
-0.0001664394
0.0001664656
-3.200729e-12
-8.832403e-07
8.572673e-07
-0.0001665423
0.000166568
-2.819466e-12
-8.829743e-07
8.573639e-07
-0.0001666429
0.0001666681
-1.674475e-12
-8.825797e-07
8.573588e-07
-0.0001667411
0.0001667658
-1.783824e-12
-8.820469e-07
8.574286e-07
-0.0001668365
0.0001668605
-4.796137e-13
-8.814249e-07
8.567081e-07
-0.0001669285
0.000166952
6.011205e-13
-8.802331e-07
8.60662e-07
-0.0001670239
0.0001670463
3.360052e-11
-8.830856e-07
9.087881e-07
-0.0001671151
0.0001671185
1.568729e-10
-9.122972e-07
8.511537e-07
-0.0001664826
0.0006726825
-1.194222e-10
-3.319163e-06
8.267484e-08
8.723726e-07
7.296355e-08
-0.0001664861
-0.000169136
-0.0001691377
4.930516e-07
-0.0006746747
0.0006754065
-3.809291e-11
-3.094146e-06
7.027086e-07
4.76939e-07
6.896611e-07
6.35075e-07
-0.0006760099
0.0006765284
5.250631e-12
-3.15394e-06
6.930745e-07
6.239613e-07
6.832567e-07
6.980759e-07
-0.000676986
0.0006773199
5.160016e-12
-3.173956e-06
7.296698e-07
6.900141e-07
7.222704e-07
7.352526e-07
-0.000677609
0.0006778544
7.202503e-12
-3.201494e-06
7.489615e-07
7.28837e-07
7.430765e-07
7.619496e-07
-0.0006780859
0.0006782856
5.047128e-12
-3.254484e-06
7.697831e-07
7.574234e-07
7.656871e-07
7.778108e-07
-0.0006784801
0.000678662
7.64807e-12
-3.303757e-06
7.863114e-07
7.744943e-07
7.83174e-07
8.083481e-07
-0.0006788083
0.0006789324
8.892571e-12
-3.35608e-06
8.101061e-07
8.057741e-07
8.07758e-07
8.249298e-07
-0.0006790456
0.0006791463
7.384355e-12
-3.398949e-06
8.259806e-07
8.230736e-07
8.242149e-07
8.387101e-07
-0.0006792383
0.0006793235
2.955277e-12
-3.439227e-06
8.396838e-07
8.373359e-07
8.383382e-07
8.488398e-07
-0.0006794046
0.0006794826
-1.127459e-12
-3.473356e-06
8.498171e-07
8.477964e-07
8.488306e-07
8.565491e-07
-0.0006795588
0.0006796343
-1.902216e-12
-3.502043e-06
8.575193e-07
8.557702e-07
8.567862e-07
8.622238e-07
-0.0006797095
0.0006797855
-2.31567e-12
-3.525604e-06
8.631068e-07
8.617015e-07
8.626323e-07
8.663629e-07
-0.0006798623
0.0006799407
-2.973606e-12
-3.544775e-06
8.6717e-07
8.660269e-07
8.668523e-07
8.694064e-07
-0.0006800205
0.0006801023
-2.581019e-12
-3.560355e-06
8.701228e-07
8.691692e-07
8.69904e-07
8.716686e-07
-0.0006801857
0.0006802711
-1.910409e-12
-3.573097e-06
8.723128e-07
8.715219e-07
8.721783e-07
8.733496e-07
-0.0006803582
0.0006804473
-1.463506e-12
-3.583478e-06
8.739295e-07
8.732602e-07
8.738411e-07
8.746305e-07
-0.000680538
0.0006806306
-1.282441e-12
-3.592004e-06
8.751487e-07
8.745711e-07
8.750982e-07
8.75619e-07
-0.0006807246
0.0006808202
-1.19717e-12
-3.599113e-06
8.761012e-07
8.756236e-07
8.761201e-07
8.764134e-07
-0.0006809171
0.0006810155
-1.137768e-12
-3.605079e-06
8.768612e-07
8.764605e-07
8.769111e-07
8.770863e-07
-0.000681115
0.0006812159
-1.180756e-12
-3.610172e-06
8.775091e-07
8.771333e-07
8.77551e-07
8.77668e-07
-0.0006813178
0.0006814208
-1.059369e-12
-3.614636e-06
8.780726e-07
8.777293e-07
8.781397e-07
8.782132e-07
-0.0006815246
0.0006816295
-1.911122e-12
-3.61863e-06
8.785966e-07
8.782873e-07
8.786745e-07
8.787472e-07
-0.0006817349
0.0006818413
-3.018764e-12
-3.622262e-06
8.791221e-07
8.788005e-07
8.791972e-07
8.79261e-07
-0.0006819482
0.000682056
-9.198934e-13
-3.625396e-06
8.795984e-07
8.792482e-07
8.795594e-07
8.796536e-07
-0.0006821642
0.0006822731
1.390411e-12
-3.628064e-06
8.800254e-07
8.795772e-07
8.799133e-07
8.80032e-07
-0.0006823823
0.0006824921
-4.571775e-13
-3.630312e-06
8.803387e-07
8.799349e-07
8.802516e-07
8.803261e-07
-0.000682602
0.0006827123
-3.485067e-12
-3.632017e-06
8.806361e-07
8.802421e-07
8.805546e-07
8.80581e-07
-0.0006828226
0.000682933
-3.936219e-12
-3.633113e-06
8.808657e-07
8.805006e-07
8.807887e-07
8.807294e-07
-0.0006830433
0.0006831534
-2.737933e-12
-3.633409e-06
8.809993e-07
8.806405e-07
8.809031e-07
8.807781e-07
-0.0006832633
0.0006833728
-1.699821e-12
-3.632869e-06
8.810221e-07
8.806748e-07
8.809204e-07
8.807213e-07
-0.0006834818
0.0006835902
-1.698992e-12
-3.631483e-06
8.809477e-07
8.806307e-07
8.808599e-07
8.805438e-07
-0.0006836979
0.0006838046
-2.115439e-12
-3.629144e-06
8.807505e-07
8.804539e-07
8.806557e-07
8.802487e-07
-0.0006839106
0.0006840153
-2.072501e-12
-3.625826e-06
8.804295e-07
8.801433e-07
8.803229e-07
8.798222e-07
-0.000684119
0.0006842211
-1.537565e-12
-3.621508e-06
8.799815e-07
8.797273e-07
8.798911e-07
8.792503e-07
-0.000684322
0.000684421
-1.135666e-12
-3.616054e-06
8.793772e-07
8.791615e-07
8.792878e-07
8.785133e-07
-0.0006845186
0.0006846139
-1.102139e-12
-3.609287e-06
8.785998e-07
8.784115e-07
8.784917e-07
8.775641e-07
-0.0006847076
0.0006847984
-1.215375e-12
-3.600931e-06
8.775919e-07
8.774685e-07
8.775006e-07
8.763401e-07
-0.0006848873
0.0006849726
-1.318128e-12
-3.590428e-06
8.762707e-07
8.762659e-07
8.762042e-07
8.746993e-07
-0.0006850556
0.0006851341
-1.372242e-12
-3.576715e-06
8.744806e-07
8.746211e-07
8.744282e-07
8.723453e-07
-0.0006852096
0.0006852791
-1.413359e-12
-3.55772e-06
8.71874e-07
8.722529e-07
8.717658e-07
8.685957e-07
-0.0006853446
0.0006854015
-1.476912e-12
-3.529548e-06
8.678689e-07
8.684838e-07
8.677279e-07
8.621385e-07
-0.0006854521
0.0006854895
-1.552686e-12
-3.483355e-06
8.609557e-07
8.620188e-07
8.608431e-07
8.481942e-07
-0.0006855168
0.0006855271
-1.583619e-12
-3.397181e-06
8.453573e-07
8.48102e-07
8.45263e-07
8.115052e-07
-0.0006855312
0.0006855136
-1.591804e-12
-3.215696e-06
8.051644e-07
8.114635e-07
8.051041e-07
6.90522e-07
-0.0006855455
0.0006857342
-1.635839e-12
-2.862119e-06
6.463051e-07
6.904127e-07
6.461775e-07
5.951812e-07
-0.0006859626
0.000686163
-1.48567e-12
-2.57927e-06
5.943868e-07
5.95077e-07
5.942879e-07
5.791689e-07
-0.0006863482
0.0006865207
-1.495383e-12
-2.486801e-06
5.781073e-07
5.790756e-07
5.780111e-07
5.675005e-07
-0.0006866856
0.0006868387
-1.577675e-12
-2.422072e-06
5.670495e-07
5.67412e-07
5.66961e-07
5.609132e-07
-0.0006869848
0.0006871219
-1.848631e-12
-2.380401e-06
5.607801e-07
5.60834e-07
5.607003e-07
5.561402e-07
-0.0006872543
0.00068738
-1.818161e-12
-2.349915e-06
5.560131e-07
5.560732e-07
5.559449e-07
5.522144e-07
-0.0006875031
0.0006876197
2.75958e-12
-2.324121e-06
5.515629e-07
5.522292e-07
5.515291e-07
5.528457e-07
-0.0006877283
0.000687833
-1.425576e-12
-2.308768e-06
5.490382e-07
5.529579e-07
5.491725e-07
4.849543e-07
-0.000688001
0.0006883953
-6.43495e-13
-2.381243e-06
5.075387e-07
4.855514e-07
5.088628e-07
4.904309e-07
-0.0006887504
0.0006885333
-5.736491e-13
-1.664752e-06
4.510479e-07
4.898821e-07
4.504805e-07
4.472626e-07
-0.0006884115
0.0006885894
-7.047424e-13
-1.861136e-06
3.927914e-07
4.489021e-07
3.942999e-07
4.188423e-07
-0.0006888076
0.0006890519
-7.720926e-13
-1.89254e-06
4.042685e-07
4.199223e-07
4.051601e-07
4.256134e-07
-0.00068929
0.0006895252
-7.069291e-13
-1.93387e-06
4.231344e-07
4.262499e-07
4.23659e-07
4.425001e-07
-0.0006897376
0.0006899321
-5.708832e-13
-1.97003e-06
4.449643e-07
4.428352e-07
4.452459e-07
4.610283e-07
-0.0006901047
0.0006902607
-4.753146e-13
-2.007355e-06
4.644952e-07
4.61191e-07
4.646406e-07
4.767794e-07
-0.0006904009
0.0006905301
-3.261635e-13
-2.042611e-06
4.798691e-07
4.768221e-07
4.799083e-07
4.932707e-07
-0.0006906415
0.0006907404
-3.496907e-13
-2.077795e-06
4.961119e-07
4.933217e-07
4.961528e-07
5.064264e-07
-0.0006908299
0.000690911
-2.636921e-13
-2.112154e-06
5.090638e-07
5.06443e-07
5.090823e-07
5.176037e-07
-0.0006909847
0.000691053
-2.129992e-13
-2.142784e-06
5.196095e-07
5.1762e-07
5.19632e-07
5.261139e-07
-0.0006911171
0.0006911786