/*--------------------------------*- C++ -*----------------------------------*\
| =========                 |                                                 |
| \\      /  F ield         | foam-extend: Open Source CFD                    |
|  \\    /   O peration     | Version:     3.1                                |
|   \\  /    A nd           | Web:         http://www.extend-project.de       |
|    \\/     M anipulation  |                                                 |
\*---------------------------------------------------------------------------*/
FoamFile
{
    version     2.0;
    format      ascii;
    class       volScalarField;
    location    "8.5";
    object      nut;
}
// * * * * * * * * * * * * * * * * * * * * * * * * * * * * * * * * * * * * * //

dimensions      [0 2 -1 0 0 0 0];

internalField   nonuniform List<scalar> 
119952
(
4.808861e-05
3.213877e-05
3.353313e-05
3.833496e-05
4.215267e-05
4.090846e-05
4.023835e-05
3.980244e-05
3.946394e-05
3.912067e-05
3.865698e-05
3.806951e-05
3.735198e-05
3.649765e-05
3.545541e-05
3.419491e-05
3.267053e-05
3.083239e-05
2.860844e-05
2.597833e-05
2.942951e-05
2.723002e-05
2.815049e-05
4.417299e-05
4.428735e-05
4.4218e-05
4.391092e-05
4.33982e-05
4.170585e-05
2.371425e-05
3.288982e-05
3.56713e-05
4.082775e-05
4.624013e-05
5.201129e-05
5.797257e-05
6.406333e-05
7.011191e-05
7.606351e-05
8.647017e-05
0.0003851754
0.0004382502
0.0004940507
0.0005504304
0.0006064047
0.0006614221
0.0007151146
0.000767055
0.0008161328
0.001143563
0.00116996
0.001184248
0.00118458
0.001171268
0.001152206
0.001135674
0.001124516
0.001122138
0.001135672
0.001173688
0.00123313
0.001312848
0.001411751
0.00152817
0.001661315
0.001811771
0.001981016
0.002174833
0.002385056
0.002563552
0.002753702
0.002964653
0.00318068
0.003386162
0.003574952
0.003740627
0.003871879
0.003957177
0.00398832
0.003958916
0.00385649
0.003693506
0.003473408
0.00319559
0.002866589
0.002508119
0.002154259
0.001836992
0.001581735
0.001379709
0.001248237
0.001181192
0.001145656
0.001131598
0.001107705
0.001075186
0.001101608
0.001076663
0.001093363
0.00114152
0.00117813
0.001212594
0.001242496
0.001262907
0.001270673
0.001264586
0.001251787
0.001236714
0.001224004
0.001216471
0.001214944
0.001219186
0.001228438
0.001241469
0.00125672
0.001272601
0.001287891
0.001302107
0.001315606
0.001329333
0.00134433
0.00136106
0.00137929
0.001398009
0.001415766
0.001431408
0.001444619
0.001455642
0.001464786
0.001472254
0.001478165
0.001482603
0.001485667
0.001487484
0.001488172
0.001487804
0.001486308
0.001483515
0.001479277
0.001473535
0.001466239
0.00145736
0.001446927
0.001435173
0.001422493
0.001409479
0.00139736
0.001374748
0.001346305
0.001318351
0.001292323
0.001268513
0.00124668
0.001226524
0.001207816
0.001190376
0.00117404
0.001158641
0.001144013
0.001130011
0.001116518
0.001103445
0.001090721
0.001078285
0.001066079
0.001054044
0.001042124
0.00103027
0.001018434
0.001006578
0.000994674
0.0009827001
0.0009706352
0.0009585405
0.0009464817
0.0009344007
0.0009222733
0.0009100938
0.0008978679
0.00088561
0.0008733372
0.000861068
0.0008488209
0.0008366102
0.0008244495
0.0008123523
0.0008003477
0.0007884321
0.0007765989
0.0007648746
0.0007532547
0.0007417342
0.000730304
0.0007189768
0.0007077541
0.0006968186
0.0006879295
0.0006134088
0.0005153042
0.0004663722
0.0004360184
0.0004161779
0.0004014154
0.0003894913
0.0003794126
0.0003704764
0.0003623469
0.0003547706
0.0003475989
0.0003407897
0.0003343481
0.0003282437
0.0003224049
0.0003167631
0.0003112667
0.0003059039
0.0003006996
0.0002955896
0.0002905825
0.0002856822
0.0002808869
0.0002761918
0.0002715925
0.0002670855
0.0002626706
0.0002583471
0.0002541159
0.000249986
0.0002459832
0.0002421235
0.0002384584
0.0002353314
0.0002357641
0.0002427533
0.0002500126
0.0002570479
0.0002637498
0.0002701067
0.000276146
0.0002818982
0.0002873978
0.0002926821
0.0002977819
0.0003027251
0.0003075371
0.0003122365
0.0003168396
0.0003213588
0.0003258036
0.000330181
0.000334496
0.0003387521
0.0003429516
0.0003470956
0.0003511841
0.0003552168
0.000359193
0.0003631131
0.000366974
0.0003707723
0.0003745085
0.0003781805
0.0003817868
0.0003853259
0.0003887986
0.0003922091
0.000395543
0.0005275433
0.0005380126
0.0005477963
0.0005569983
0.0005655425
0.0005734275
0.0005807485
0.0005875886
0.0005940727
0.0006001621
0.000605815
0.0006110086
0.0006157424
0.0006200281
0.0006238906
0.0006273868
0.0006305488
0.000633396
0.0006359486
0.0006382276
0.0006402526
0.0006420428
0.0006436168
0.0006449932
0.0006461901
0.0006472239
0.0006481111
0.0006488677
0.0006495086
0.0006500482
0.0006505007
0.0006508799
0.000651199
0.0006514706
0.0006517079
0.0006519224
0.0006521238
0.0006523213
0.0006525245
0.0006527434
0.000652985
0.0006532511
0.0006535369
0.0006538296
0.0006541114
0.000654303
0.0006541308
0.0006538408
0.0006535677
0.00065331
0.000653071
0.0006528594
0.0006526551
0.0006530083
0.0006533866
0.0006520032
0.0006509932
0.0006502508
0.000649809
0.0006496341
0.0006496812
0.0006499238
0.0006503379
0.0006508969
0.00065157
0.0006523273
0.0006531488
0.0006540175
0.0006549196
0.0006558412
0.0006567683
0.0006576887
0.0006585939
0.0006594779
0.0006603364
0.0006611659
0.0006619631
0.0006627255
0.0006634519
0.0006641423
0.0006647975
0.0006654192
0.0006660094
0.0006665707
0.000667106
0.0006676181
0.0006681101
0.0006685849
0.0006690458
0.0006694962
0.0006699402
0.000670382
0.0006708262
0.0006712778
0.0006717418
0.0006722233
0.0006727276
0.0006732598
0.000673825
0.0006744283
0.0006750744
0.0006757682
0.0006765142
0.0006773163
0.0006781785
0.0006791047
0.000680098
0.0006811615
0.000682298
0.0006835098
0.0006847992
0.0006861677
0.0006876171
0.0006891484
0.0006907626
0.0006924604
0.0006942421
0.0006961082
0.0006980584
0.0007000931
0.0007022121
0.0007044157
0.000706704
0.0007090784
0.0007115395
0.000714091
0.0007167355
0.0007194811
0.0007223348
0.0007253138
0.0007284353
0.0007317368
0.0007352621
0.0007391077
0.0007434215
0.0007485321
0.0007549012
0.0007643054
0.0005882876
5.495079e-05
5.901774e-05
6.901292e-05
8.050994e-05
9.16974e-05
0.0001021287
0.0001118097
0.0001208468
0.0001307351
0.0004417109
0.0005901301
0.0007404468
0.0008803107
0.00100348
0.001109004
0.001199178
0.00127685
0.001345191
0.001911987
0.001982228
0.002057174
0.002134424
0.00221528
0.002301907
0.002395818
0.002498564
0.002611449
0.002735152
0.002869572
0.003016444
0.00317895
0.003358945
0.003556079
0.003767828
0.003990356
0.004218792
0.004447615
0.004632932
0.004777984
0.004922891
0.005057116
0.005171991
0.005260129
0.005316978
0.005341336
0.005334854
0.005301271
0.005246903
0.005176914
0.005099262
0.005019986
0.004943838
0.004873972
0.004812327
0.004758342
0.004708503
0.005438908
0.005381312
0.005297662
0.005177017
0.005017119
0.004827821
0.004627838
0.004439044
0.004279247
0.004157421
0.004073729
0.004017753
0.003991597
0.004008506
0.004077479
0.004196954
0.004366353
0.004585413
0.00485529
0.005166466
0.00551008
0.00588637
0.006286122
0.006693501
0.007091684
0.007463258
0.00778868
0.008049194
0.008233431
0.008337372
0.008363477
0.00831369
0.008190533
0.007987088
0.007692184
0.007296487
0.006805369
0.006244551
0.005655487
0.005083331
0.004563799
0.00411934
0.003747145
0.00342966
0.003157313
0.002926436
0.00273395
0.002576352
0.002458864
0.002382575
0.00233846
0.002319536
0.002306468
0.002263044
0.002246326
0.002248501
0.002262095
0.002279762
0.002294637
0.002302059
0.002301245
0.002294781
0.002286561
0.002280213
0.002278377
0.002282437
0.002292761
0.002308847
0.00232956
0.002353879
0.002381089
0.002411043
0.002444554
0.002481902
0.002523521
0.00257072
0.002620072
0.002657807
0.002696256
0.002735158
0.002774254
0.002813288
0.002852009
0.002890184
0.002927615
0.002964141
0.002999572
0.003033632
0.003065879
0.003095922
0.003123461
0.003148242
0.003170058
0.003188722
0.003203994
0.003216295
0.003226113
0.003233616
0.003238643
0.003241127
0.003241242
0.003239197
0.003235224
0.003229602
0.003222648
0.003214704
0.003206095
0.003197104
0.003187951
0.003178794
0.003169743
0.003160881
0.003152269
0.003143946
0.003135928
0.003128203
0.003120739
0.003113478
0.003106351
0.00309928
0.003092187
0.003085
0.003077647
0.003070058
0.003062168
0.003053931
0.003045315
0.003036303
0.003026891
0.003017084
0.0030069
0.002996368
0.00298552
0.002974394
0.002963026
0.002951457
0.002939711
0.002927796
0.002915608
0.002903064
0.002890307
0.00287745
0.002864514
0.002851655
0.002838797
0.002826388
0.002814299
0.002807128
0.002651115
0.002503492
0.002416897
0.00236221
0.002324653
0.002296515
0.002273704
0.002254002
0.002236194
0.002219602
0.002203836
0.002188686
0.002174041
0.002159846
0.002146069
0.002132688
0.00211969
0.002107066
0.002094815
0.002082926
0.002071386
0.002060183
0.002049313
0.002038775
0.002028567
0.002018691
0.002009151
0.001999957
0.001991127
0.001982693
0.001974709
0.001967277
0.001960611
0.001955194
0.001952721
0.001952841
0.001955809
0.001960824
0.001967018
0.001974017
0.001981574
0.001989514
0.001997711
0.002006066
0.002014502
0.002022952
0.002031363
0.002039686
0.002047879
0.002055906
0.002063733
0.002071332
0.002078674
0.002085735
0.002092491
0.00209892
0.002105001
0.002110716
0.002116046
0.002120974
0.002125484
0.002129562
0.002133195
0.002136372
0.00213908
0.00214131
0.002143051
0.002144292
0.002144989
0.002144677
0.002519666
0.00252715
0.002532447
0.002535583
0.002536815
0.002536486
0.002534892
0.002532256
0.002528749
0.002524495
0.002519572
0.002514031
0.002507903
0.002501209
0.00249396
0.002486162
0.002477821
0.00246894
0.002459525
0.002449581
0.002439118
0.002428148
0.002416687
0.002404753
0.00239237
0.002379564
0.002366364
0.002352804
0.00233892
0.00232475
0.002310338
0.002295725
0.002280961
0.002266091
0.002251166
0.002236236
0.002221349
0.002206556
0.002191906
0.002177445
0.002163217
0.002149257
0.0021356
0.002122268
0.002109264
0.00209652
0.002083997
0.002071794
0.002060029
0.002048744
0.002037965
0.0020277
0.002018097
0.002009379
0.002000863
0.001992222
0.001983865
0.001976085
0.001968881
0.001962232
0.001956104
0.001950453
0.00194523
0.001940392
0.0019359
0.001931718
0.001927816
0.001924165
0.001920733
0.001917488
0.001914396
0.001911428
0.001908554
0.00190575
0.001902992
0.00190026
0.001897535
0.001894801
0.001892044
0.001889255
0.001886424
0.001883548
0.001880625
0.001877655
0.001874643
0.001871594
0.001868515
0.001865417
0.001862311
0.00185921
0.001856128
0.001853082
0.001850089
0.001847165
0.00184433
0.001841602
0.001839
0.001836543
0.00183425
0.001832138
0.001830226
0.00182853
0.001827067
0.001825851
0.001824896
0.001824215
0.001823821
0.001823722
0.001823929
0.00182445
0.001825291
0.001826458
0.001827954
0.001829783
0.001831946
0.001834444
0.001837276
0.001840441
0.001843937
0.001847759
0.001851907
0.001856371
0.001861155
0.001866245
0.001871652
0.001877357
0.001883385
0.001889711
0.001896387
0.00190338
0.001910793
0.001918587
0.00192696
0.001935841
0.001945538
0.001955949
0.00196842
0.001984457
0.002003737
3.036053e-05
3.628849e-05
4.523298e-05
5.563626e-05
6.782475e-05
8.217299e-05
9.935464e-05
0.0001200332
0.0001452813
0.0001885078
0.0008761282
0.001034219
0.001202982
0.001384485
0.001579674
0.001776934
0.001952233
0.002130991
0.002562943
0.004453065
0.004683417
0.004858221
0.00502392
0.005175814
0.005325277
0.005464351
0.005597614
0.005731148
0.005913811
0.006234859
0.006509994
0.006710592
0.006863231
0.006985868
0.00707754
0.007143872
0.007190984
0.007229385
0.00710075
0.007085365
0.007115571
0.007160861
0.007205673
0.00724213
0.007266481
0.007277142
0.007273711
0.007256034
0.00722482
0.007183388
0.007134246
0.007079062
0.007019227
0.006956175
0.006891686
0.006825878
0.007635639
0.007584019
0.007535874
0.007495073
0.007465038
0.007449565
0.007452092
0.007475583
0.007522639
0.007595117
0.007694007
0.007820141
0.007973289
0.008151528
0.008352045
0.008570766
0.008802376
0.009040457
0.009277544
0.00950444
0.009711871
0.00989153
0.01
0.01
0.01
0.01
0.01
0.01
0.01
0.009885188
0.009744999
0.009597169
0.009452615
0.009321852
0.00920081
0.00908361
0.008968909
0.008856378
0.008703255
0.008537681
0.008352056
0.00813743
0.007888894
0.007609957
0.007315341
0.00702597
0.006762462
0.006541365
0.006372425
0.006257864
0.006194652
0.00617203
0.006189703
0.006266317
0.006405334
0.006606514
0.006868101
0.007184582
0.007547384
0.007946586
0.00836993
0.008803312
0.009229962
0.009629746
0.009981741
0.01
0.01
0.01
0.01
0.01
0.01
0.01
0.01
0.009819722
0.009379826
0.008852737
0.008265946
0.007654742
0.007055457
0.006495801
0.005987903
0.005527274
0.005107352
0.004726033
0.004384257
0.004082032
0.003823502
0.003613836
0.003448915
0.003323381
0.003232171
0.00316911
0.00312751
0.003100821
0.003082996
0.003069012
0.003055321
0.003040073
0.00302304
0.003005288
0.002988663
0.002975187
0.002966527
0.002963641
0.002966664
0.002975046
0.0029878
0.003003813
0.003022111
0.00303136
0.003033338
0.003038543
0.003047318
0.003060761
0.00308027
0.003106861
0.003140575
0.00318059
0.003225908
0.003275721
0.003328962
0.003384648
0.003442613
0.003502455
0.003563317
0.003624876
0.003676962
0.003723002
0.003767649
0.003810614
0.003851642
0.003890503
0.003926962
0.003960639
0.003991294
0.00401913
0.004044327
0.004067132
0.004087453
0.004105217
0.004120337
0.004132909
0.004143308
0.004151772
0.004158581
0.004164013
0.004168315
0.00417171
0.004174413
0.004176635
0.004178565
0.004180369
0.004182178
0.004184084
0.004186141
0.004188359
0.004190707
0.004193114
0.004195548
0.004197915
0.00420013
0.004202113
0.004203791
0.004205099
0.004205967
0.004206386
0.00420631
0.004205705
0.004204586
0.00420295
0.004200814
0.004198199
0.004195136
0.004191658
0.004187801
0.004183597
0.004179075
0.004174245
0.004169147
0.004163814
0.004158312
0.004152647
0.004146922
0.004141069
0.004135376
0.004128926
0.00411298
0.00410533
0.004101305
0.004098665
0.004096343
0.004093828
0.004090906
0.004087507
0.004083632
0.004079313
0.004074593
0.004069504
0.004064024
0.004058246
0.004052238
0.004046063
0.00403978
0.004033448
0.004027121
0.004020848
0.004014679
0.004008659
0.004002831
0.003997242
0.003991935
0.003986954
0.003982345
0.003978159
0.003974456
0.003971313
0.003968825
0.003967053
0.003965732
0.003965049
0.003965275
0.003966851
0.003970026
0.003974552
0.003980097
0.003986455
0.003993454
0.004000956
0.004008848
0.004017037
0.004025443
0.004033992
0.004042618
0.004051259
0.004059852
0.004068342
0.004076672
0.004084787
0.004092636
0.00410017
0.004107339
0.004114098
0.004120404
0.004126215
0.004131492
0.0041362
0.004140304
0.004143773
0.00414658
0.004148698
0.004150107
0.004150781
0.004150719
0.004149871
0.004148369
0.004147542
0.004132743
0.004119329
0.004106544
0.004094133
0.004082059
0.004070214
0.004058429
0.00404654
0.004034427
0.004022011
0.00400923
0.003996036
0.003982389
0.003968256
0.003953609
0.003938427
0.003922689
0.003906381
0.003889489
0.003872004
0.003853918
0.003835231
0.003815942
0.003796058
0.003775588
0.003754549
0.003732959
0.003710844
0.003688234
0.003665165
0.003641677
0.003617816
0.003593634
0.003569185
0.00354453
0.003519731
0.003494856
0.003469972
0.003445153
0.003420467
0.003395986
0.003371775
0.003347898
0.003324408
0.003301343
0.00327872
0.00325656
0.00323493
0.003213929
0.003193628
0.003174078
0.003155282
0.003137254
0.003119954
0.00310336
0.00308774
0.003073072
0.003059249
0.003046174
0.003033818
0.003022179
0.003011245
0.003000988
0.002991364
0.002982333
0.002973849
0.002965869
0.002958345
0.00295123
0.002944476
0.002938033
0.002931856
0.0029259
0.002920123
0.002914488
0.00290896
0.002903507
0.002898099
0.002892713
0.002887328
0.002881927
0.002876498
0.002871032
0.002865527
0.002859983
0.002854404
0.002848798
0.002843177
0.002837555
0.00283195
0.002826384
0.002820878
0.002815458
0.002810151
0.002804986
0.002799991
0.002795197
0.002790635
0.002786335
0.002782327
0.002778641
0.002775306
0.00277235
0.002769799
0.002767678
0.00276601
0.002764818
0.00276412
0.002763936
0.00276428
0.002765166
0.002766607
0.002768611
0.002771188
0.002774341
0.002778076
0.002782393
0.002787294
0.002792775
0.002798834
0.002805466
0.002812667
0.002820427
0.002828745
0.002837608
0.002847018
0.002856964
0.002867456
0.002878489
0.002890092
0.00290227
0.002915082
0.002928562
0.002942816
0.002957948
0.002974188
0.002991972
0.003011658
0.003032462
4.045306e-05
6.343555e-05
0.0001502991
0.00050009
0.0008549747
0.001518735
0.002040528
0.002670222
0.003381724
0.00394291
0.004333824
0.004636449
0.004941246
0.005248244
0.00556112
0.005875964
0.006194124
0.006518536
0.006840612
0.007148614
0.007435773
0.007702521
0.007927746
0.008122352
0.008301203
0.008464525
0.008612385
0.008746442
0.008879947
0.009025522
0.00921775
0.009113015
0.008833707
0.008592437
0.008443516
0.00833387
0.008277417
0.008274088
0.00833816
0.008450436
0.008584388
0.008777107
0.009039829
0.009368487
0.009820561
0.01
0.01
0.01
0.01
0.01
0.01
0.01
0.01
0.01
0.01
0.01
0.01
0.01
0.01
0.01
0.01
0.01
0.01
0.01
0.01
0.01
0.01
0.01
0.01
0.01
0.01
0.01
0.01
0.01
0.01
0.01
0.01
0.01
0.01
0.01
0.01
0.01
0.01
0.01
0.01
0.01
0.01
0.01
0.01
0.01
0.01
0.01
0.01
0.01
0.01
0.01
0.01
0.01
0.01
0.01
0.01
0.01
0.01
0.01
0.01
0.01
0.01
0.01
0.01
0.01
0.01
0.009789758
0.009486145
0.00917661
0.008880612
0.008616584
0.008398454
0.008233918
0.008126571
0.008075896
0.008078639
0.008131097
0.008249602
0.008435075
0.008684245
0.008991323
0.009346774
0.009738828
0.01
0.01
0.01
0.01
0.01
0.01
0.01
0.01
0.01
0.01000001
0.01000003
0.01000007
0.01000013
0.01000016
0.0100001
0.01000002
0.01
0.009811531
0.009236609
0.008672125
0.008131631
0.007618003
0.007132045
0.006673483
0.00624362
0.005844273
0.005480086
0.00515671
0.004875869
0.004636708
0.004437153
0.004273889
0.004142586
0.004038255
0.003955609
0.003889469
0.003835169
0.003788925
0.003748074
0.003711149
0.003677756
0.003648259
0.003623391
0.003603868
0.003590098
0.003582051
0.003579251
0.003580917
0.003586168
0.003594227
0.003604556
0.003616955
0.003631527
0.003648506
0.003668093
0.003690327
0.003692015
0.003692837
0.00370109
0.003716397
0.003738158
0.003765595
0.003798272
0.003835574
0.003876135
0.003919029
0.003963643
0.00400969
0.004056913
0.004104962
0.004154091
0.004204868
0.004256966
0.004309365
0.004361685
0.004414036
0.004466482
0.004519311
0.004572797
0.004625558
0.004663351
0.004690388
0.004715213
0.004737933
0.004758616
0.004777542
0.004794785
0.004810396
0.004824599
0.004837688
0.004849952
0.004861658
0.004873023
0.004884327
0.004895675
0.004907144
0.004918763
0.004930515
0.004942356
0.004954217
0.004966018
0.004977671
0.004989088
0.005000186
0.005010892
0.005021144
0.005030887
0.005040072
0.005048665
0.005056654
0.005064038
0.005070822
0.005077019
0.005082648
0.00508774
0.005092323
0.005096435
0.00510011
0.005103393
0.005106321
0.005108952
0.00511131
0.005113473
0.005115437
0.005117344
0.005119039
0.005120046
0.005120931
0.005121903
0.005123078
0.005124496
0.005126106
0.005127826
0.005129599
0.005131367
0.005133086
0.005134725
0.005136264
0.005137683
0.005138974
0.005140135
0.005141182
0.005142129
0.005142995
0.005143807
0.005144591
0.005145375
0.005146194
0.005147077
0.005148057
0.005149162
0.005150428
0.005151884
0.005153559
0.005155483
0.005157689
0.005160206
0.005163076
0.00516632
0.005170003
0.005174264
0.005179326
0.005185371
0.005192372
0.005200165
0.005208606
0.005217563
0.005226931
0.005236621
0.005246552
0.00525665
0.005266859
0.005277112
0.005287352
0.005297515
0.005307556
0.005317416
0.00532704
0.005336375
0.005345367
0.005353967
0.005362123
0.005369787
0.005376913
0.005383454
0.005389369
0.005394617
0.005399159
0.005402962
0.005405991
0.005408224
0.005409625
0.00541019
0.005409869
0.005408722
0.005406662
0.005402742
0.005397218
0.005390336
0.005382304
0.005373268
0.005363315
0.005352492
0.005340832
0.005328362
0.00531511
0.005301097
0.005286334
0.00527083
0.005254586
0.005237602
0.005219877
0.005201406
0.005182186
0.005162214
0.005141484
0.005119994
0.005097742
0.005074728
0.005050955
0.005026429
0.005001161
0.004975163
0.004948454
0.004921059
0.004893006
0.004864331
0.004835076
0.004805288
0.004775023
0.004744339
0.004713305
0.004681992
0.004650479
0.004618846
0.004587178
0.004555563
0.004524088
0.004492835
0.004461886
0.004431313
0.004401181
0.00437155
0.004342498
0.004314118
0.004286503
0.00425973
0.004233851
0.004208937
0.004185052
0.004162181
0.004140257
0.004119292
0.004099331
0.004080402
0.004062507
0.004045637
0.00402976
0.004014833
0.004000801
0.00398761
0.003975204
0.003963525
0.003952514
0.003942111
0.003932256
0.003922888
0.003913947
0.003905373
0.003897112
0.00388911
0.003881319
0.003873691
0.003866186
0.003858766
0.003851399
0.003844057
0.003836718
0.003829367
0.003821992
0.003814587
0.003807154
0.003799697
0.003792227
0.003784759
0.003777314
0.003769914
0.003762589
0.003755369
0.00374829
0.003741387
0.003734701
0.003728271
0.003722141
0.003716351
0.003710946
0.003705967
0.003701457
0.003697455
0.003694002
0.003691134
0.003688889
0.0036873
0.003686398
0.003686213
0.00368677
0.003688094
0.003690206
0.003693123
0.003696862
0.003701434
0.00370685
0.003713117
0.003720238
0.003728216
0.003737049
0.003746735
0.003757268
0.003768641
0.003780847
0.003793875
0.003807719
0.003822365
0.003837815
0.003854056
0.003871101
0.00388895
0.003907634
0.003927188
0.003947666
0.003969198
0.003991836
0.004015917
0.004041234
0.004067025
2.476209e-05
3.903301e-05
5.739617e-05
0.0002571135
0.0004159595
0.0006872742
0.0009698606
0.001230621
0.001560932
0.001886493
0.00224107
0.002702576
0.003247283
0.003860319
0.004549484
0.005423928
0.007002002
0.007610614
0.008183693
0.008687857
0.009120791
0.009482812
0.009791963
0.01
0.01
0.01
0.01
0.01
0.01
0.01
0.01
0.01
0.01
0.01
0.01
0.01
0.01
0.01
0.00962662
0.009180149
0.008644217
0.008188547
0.008122802
0.00790752
0.007700599
0.007562836
0.007483159
0.007465305
0.007508286
0.007620564
0.007793464
0.008030691
0.008343597
0.008767455
0.009306532
0.009958016
0.01
0.01
0.01
0.01
0.01
0.01
0.01
0.01
0.01
0.01
0.01
0.01
0.01
0.01
0.01
0.01
0.01
0.01
0.01
0.01
0.01
0.01
0.01
0.01
0.01
0.01
0.01
0.01
0.01
0.01
0.01
0.01
0.01
0.01
0.01
0.01
0.01
0.01
0.01
0.01
0.01
0.01
0.01
0.01
0.01
0.01
0.01
0.01
0.01
0.01
0.01
0.01
0.01
0.01
0.01
0.01
0.01
0.01
0.01
0.01
0.01
0.01
0.01
0.01
0.01000001
0.01000004
0.01000004
0.01000002
0.01
0.01
0.01
0.01
0.009856054
0.009728277
0.009660191
0.00965257
0.009703918
0.009816381
0.009997788
0.01
0.01
0.01
0.01
0.01
0.01
0.01
0.01
0.01
0.01
0.01
0.01000002
0.01000008
0.01000045
0.01000265
0.01000613
0.01000383
0.01000082
0.01000005
0.01
0.01
0.01
0.01
0.01
0.009919668
0.009422918
0.008941016
0.008474196
0.008021967
0.007587056
0.007173502
0.006786392
0.006430015
0.006107044
0.005818761
0.005565195
0.005345191
0.005156582
0.004996438
0.004861328
0.004747594
0.00465162
0.0045701
0.004500282
0.00444009
0.004388106
0.004343445
0.004305549
0.004273983
0.004248283
0.004227871
0.004212047
0.004200079
0.004191288
0.004185143
0.004181346
0.00417985
0.004180786
0.004184405
0.004191009
0.004200885
0.004214222
0.004231167
0.004251802
0.00427611
0.00430394
0.004335
0.004368868
0.004397151
0.004407479
0.004421173
0.004438117
0.004457664
0.004479753
0.004504682
0.004532681
0.00456334
0.004596126
0.004631136
0.004668227
0.004707091
0.004748476
0.004792816
0.004839151
0.004887164
0.004936614
0.004986773
0.00503749
0.005089233
0.005142323
0.005195115
0.005231985
0.005254152
0.005274874
0.005294394
0.005313196
0.005331562
0.005349757
0.005367984
0.005386383
0.00540503
0.005423947
0.005443114
0.005462473
0.005481945
0.005501436
0.005520843
0.00554006
0.005558989
0.005577545
0.005595647
0.005613218
0.005630198
0.005646553
0.005662263
0.005677311
0.00569169
0.005705404
0.00571847
0.00573091
0.005742756
0.005754043
0.005764816
0.005775118
0.005785002
0.005794514
0.005803718
0.005812653
0.005821403
0.005829969
0.005838338
0.00584655
0.005854636
0.005862626
0.005870552
0.005878433
0.005886277
0.005894085
0.005901856
0.005909585
0.005917267
0.005924895
0.005932459
0.005939955
0.005947378
0.005954731
0.005962019
0.005969251
0.005976439
0.005983597
0.005990744
0.005997896
0.006005073
0.006012297
0.006019586
0.006026959
0.006034435
0.006042031
0.006049761
0.00605764
0.006065683
0.006073911
0.006082352
0.006091053
0.006100104
0.006109636
0.006119775
0.006130557
0.006141912
0.006153736
0.006165937
0.006178432
0.006191149
0.006204021
0.006216986
0.006229985
0.006242964
0.00625587
0.00626865
0.006281252
0.006293619
0.006305715
0.006317485
0.006328877
0.006339844
0.006350334
0.006360301
0.006369696
0.006378475
0.006386592
0.006394006
0.006400668
0.006406553
0.006411622
0.006415844
0.006419185
0.006421628
0.006423133
0.006423696
0.006423263
0.006421737
0.006419078
0.006415284
0.006410362
0.006404332
0.006397221
0.006389055
0.006379853
0.006369635
0.00635842
0.006346228
0.006333075
0.006318977
0.006303944
0.006287985
0.006271106
0.006253312
0.006234605
0.006214985
0.006194454
0.006173009
0.00615065
0.006127377
0.00610319
0.006078092
0.006052087
0.006025184
0.005997394
0.005968735
0.005939227
0.005908899
0.005877784
0.005845923
0.005813364
0.005780163
0.005746382
0.005712091
0.005677369
0.005642298
0.005606968
0.005571473
0.00553591
0.005500376
0.005464967
0.005429779
0.005394903
0.005360428
0.005326448
0.005293066
0.00526039
0.005228517
0.005197531
0.00516751
0.005138509
0.005110555
0.005083667
0.005057893
0.005033278
0.005009839
0.004987558
0.004966425
0.004946424
0.004927527
0.004909696
0.004892885
0.004877042
0.004862112
0.004848036
0.004834751
0.004822192
0.004810291
0.004798981
0.004788195
0.004777866
0.004767931
0.004758329
0.004749003
0.004739899
0.004730969
0.004722168
0.00471346
0.00470481
0.004696193
0.00468759
0.004678987
0.004670377
0.004661761
0.004653145
0.004644541
0.004635969
0.004627452
0.00461902
0.004610708
0.004602554
0.004594602
0.004586897
0.004579488
0.004572427
0.004565765
0.004559557
0.004553856
0.004548716
0.00454419
0.004540331
0.004537188
0.004534812
0.004533247
0.004532539
0.004532729
0.004533855
0.004535953
0.004539054
0.004543187
0.004548377
0.004554646
0.004562012
0.00457049
0.004580089
0.004590817
0.004602679
0.004615674
0.004629801
0.004645052
0.004661421
0.004678896
0.004697466
0.004717116
0.004737836
0.004759611
0.004782435
0.004806302
0.004831219
0.004857205
0.004884282
0.004912535
0.004941951
0.004972764
0.005004576
0.005036024
2.361277e-05
3.586016e-05
7.088633e-05
0.0002067904
0.0003274668
0.0005085109
0.0006506491
0.0008137782
0.001007868
0.001200206
0.001428786
0.00172736
0.002073443
0.002490322
0.003036006
0.004060989
0.004543489
0.005059583
0.005596445
0.006149528
0.006720495
0.007296276
0.007857491
0.008388654
0.008882408
0.009332943
0.00976229
0.01
0.01
0.01
0.01
0.01
0.01
0.01
0.01
0.01
0.01
0.01
0.01
0.01
0.01
0.01
0.01
0.01
0.01
0.009775313
0.009399816
0.009013215
0.008625003
0.008245391
0.007880657
0.007546973
0.007308742
0.007050661
0.006886916
0.006793028
0.006771616
0.006828377
0.006965577
0.007193037
0.007518488
0.0079652
0.008553597
0.009255459
0.01
0.01
0.01
0.01
0.01
0.01
0.01
0.01
0.01
0.01
0.01
0.01
0.01
0.01
0.01
0.01
0.01
0.01
0.01
0.01
0.01
0.01
0.01
0.01
0.01
0.01
0.01
0.01
0.01
0.01
0.01
0.01
0.01
0.01
0.01
0.01
0.01
0.01
0.01
0.01
0.01
0.01
0.01
0.01
0.01
0.01
0.01
0.01000002
0.01000005
0.01000005
0.01000002
0.01
0.01
0.01
0.01
0.01
0.01
0.01
0.01
0.01
0.01
0.01
0.01
0.01000001
0.01000008
0.01000046
0.01000074
0.01000039
0.01000007
0.01
0.01
0.01
0.01
0.01
0.01
0.01
0.01
0.01
0.01
0.01
0.01
0.01
0.01
0.01
0.01
0.01
0.01
0.01000001
0.01000006
0.01000008
0.01000004
0.01000004
0.01000024
0.0100029
0.01002663
0.01003201
0.01001408
0.01000166
0.01000007
0.01
0.01
0.01
0.01
0.01
0.01
0.01
0.01
0.01000001
0.009989166
0.009558626
0.009135074
0.008720917
0.008318434
0.007932496
0.00756741
0.00722655
0.006912405
0.006626481
0.006369329
0.006140666
0.005939516
0.005764313
0.005613011
0.005483224
0.005372415
0.005278076
0.005197871
0.005129711
0.005071746
0.005022335
0.004980004
0.004943417
0.004911382
0.004882892
0.004857169
0.004833671
0.004812121
0.004792505
0.004775012
0.004759982
0.004747851
0.004739069
0.004734048
0.00473312
0.004736523
0.004744382
0.004756671
0.00477322
0.00479375
0.004817889
0.004845196
0.004875197
0.004907435
0.004941472
0.004976864
0.005013161
0.005049909
0.0050866
0.005104931
0.005109141
0.005116482
0.00512699
0.005141442
0.005160588
0.005184304
0.005212047
0.005243017
0.005277719
0.005316224
0.005358126
0.005402808
0.00544919
0.005497097
0.005546154
0.005591194
0.005612846
0.005634037
0.005655076
0.005676239
0.005697736
0.005719717
0.005742264
0.005765409
0.005789131
0.005813367
0.005838025
0.005862992
0.005888139
0.005913331
0.005938429
0.005963302
0.005987823
0.006011903
0.006035474
0.006058456
0.006080791
0.006102434
0.006123357
0.006143549
0.00616301
0.006181755
0.006199808
0.0062172
0.006233975
0.006250177
0.006265861
0.006281082
0.006295903
0.00631038
0.006324578
0.006338541
0.006352309
0.006365929
0.006379426
0.006392814
0.006406108
0.006419325
0.006432474
0.006445564
0.006458596
0.006471571
0.00648449
0.006497348
0.006510144
0.006522874
0.006535538
0.006548137
0.006560675
0.006573159
0.006585596
0.006597999
0.00661038
0.006622752
0.006635132
0.006647533
0.006659971
0.006672459
0.006685008
0.006697629
0.006710329
0.006723116
0.006735997
0.006748985
0.006762099
0.006775376
0.006788873
0.006802672
0.006816857
0.006831464
0.00684647
0.006861813
0.006877429
0.006893255
0.006909232
0.006925302
0.006941411
0.006957507
0.00697354
0.006989461
0.007005223
0.007020777
0.007036077
0.007051075
0.007065725
0.00707998
0.007093794
0.007107119
0.007119909
0.007132117
0.007143698
0.007154607
0.007164789
0.007174223
0.007182861
0.007190667
0.007197605
0.007203641
0.007208748
0.007212893
0.007216054
0.007218203
0.007219311
0.007219354
0.007218315
0.007216184
0.007212965
0.007208673
0.007203323
0.007196922
0.007189477
0.007180995
0.007171488
0.007160964
0.007149432
0.007136902
0.007123377
0.007108864
0.007093364
0.007076877
0.007059402
0.007040936
0.007021476
0.007001016
0.006979551
0.006957076
0.006933586
0.00690908
0.006883556
0.006857018
0.006829471
0.006800927
0.006771402
0.00674092
0.00670951
0.006677209
0.006644064
0.006610126
0.00657546
0.006540134
0.006504229
0.006467831
0.006431031
0.006393929
0.006356627
0.006319228