/*--------------------------------*- C++ -*----------------------------------*\
| =========                 |                                                 |
| \\      /  F ield         | foam-extend: Open Source CFD                    |
|  \\    /   O peration     | Version:     3.1                                |
|   \\  /    A nd           | Web:         http://www.extend-project.de       |
|    \\/     M anipulation  |                                                 |
\*---------------------------------------------------------------------------*/
FoamFile
{
    version     2.0;
    format      ascii;
    class       volScalarField;
    location    "8.5";
    object      p;
}
// * * * * * * * * * * * * * * * * * * * * * * * * * * * * * * * * * * * * * //

dimensions      [1 -1 -2 0 0 0 0];

internalField   nonuniform List<scalar> 
119952
(
7312.688
6478.16
6345.949
6485.341
6616.099
6498.884
6457.147
6414.506
6380.634
6350.484
6325.67
6311.202
6311.128
6326.879
6359.263
6408.13
6470.889
6542.937
6611.355
6629.271
6850.678
6803.261
6822.451
7017.469
7089.819
7174.728
7241.639
7314.893
7408.837
8680.086
5495.634
5357.73
5285.529
5186.779
5094.003
5004.566
4923.65
4854.981
4805.187
4748.943
4700.417
4707.501
4717.208
4744.156
4785.017
4838.768
4902.898
4975.01
5050.571
5166.092
5228.156
5289.861
5371.399
5447.805
5513.098
5571.303
5622.607
5670.125
5713.599
5749.709
5794.8
5841.279
5883.691
5924.266
5962.712
5998.642
6037.187
6102.762
6226.266
6137.403
6121.825
6180.982
6203.315
6183.392
6141.659
6106.793
6074.398
6046.131
6025.784
6016.285
6020.866
6041.528
6077.755
6128.547
6191.346
6261.664
6334.593
6407.179
6478.669
6551.374
6613.116
6709.044
6826.631
6907.555
6965.717
7016.46
7039.242
7019.349
7044.283
7091.357
7132.402
7173.105
7213.092
7251.611
7288.379
7323.073
7355.483
7385.588
7413.486
7439.331
7463.236
7485.361
7505.957
7525.312
7543.681
7561.243
7578.094
7594.273
7609.789
7624.65
7638.893
7652.536
7665.618
7678.198
7690.316
7701.988
7713.218
7724.018
7734.427
7744.482
7754.218
7763.668
7772.858
7781.812
7790.549
7799.093
7807.459
7815.659
7823.687
7831.534
7839.192
7846.654
7853.909
7860.947
7867.751
7874.322
7880.831
7887.345
7893.554
7899.3
7904.816
7910.108
7915.185
7920.058
7924.732
7929.22
7933.532
7937.684
7941.687
7945.553
7949.29
7952.908
7956.415
7959.818
7963.126
7966.346
7969.484
7972.547
7975.537
7978.458
7981.312
7984.099
7986.819
7989.481
7992.077
7994.606
7997.068
7999.464
8001.794
8004.057
8006.255
8008.389
8010.462
8012.475
8014.43
8016.331
8018.188
8020.015
8021.789
8023.508
8025.199
8026.855
8028.475
8030.043
8031.526
8032.916
8034.734
8068.645
8069.973
8071.696
8073.42
8075.19
8076.958
8078.746
8080.564
8082.41
8084.285
8086.191
8088.129
8090.105
8092.115
8094.159
8096.233
8098.339
8100.475
8102.584
8104.786
8107.013
8109.255
8111.514
8113.787
8116.07
8118.358
8120.642
8122.913
8125.156
8127.351
8129.459
8131.427
8133.234
8134.453
8134.688
8134.171
8141.353
8147.107
8152.366
8157.221
8161.911
8166.475
8170.967
8175.413
8179.828
8184.22
8188.594
8192.956
8197.307
8201.65
8205.984
8210.309
8214.624
8218.927
8223.216
8227.488
8231.741
8235.972
8240.177
8244.353
8248.498
8252.607
8256.677
8260.705
8264.688
8268.623
8272.51
8276.37
8280.188
8283.661
8266.707
8265.621
8263.974
8267.332
8270.452
8273.178
8276.071
8278.975
8281.787
8284.549
8287.237
8289.845
8292.371
8294.81
8297.157
8299.412
8301.573
8303.639
8305.612
8307.491
8309.278
8310.973
8312.579
8314.097
8315.529
8316.876
8318.14
8319.324
8320.429
8321.459
8322.415
8323.3
8324.118
8324.871
8325.563
8326.197
8326.779
8327.314
8327.807
8328.268
8328.706
8329.137
8329.587
8330.089
8330.633
8330.962
8330.546
8329.835
8329.288
8328.839
8328.419
8328.033
8327.585
8325.596
8321.069
8323.841
8324.235
8323.612
8323.136
8322.571
8321.992
8321.447
8320.919
8320.405
8319.903
8319.407
8318.912
8318.423
8317.937
8317.453
8316.968
8316.48
8315.989
8315.493
8314.99
8314.479
8313.959
8313.429
8312.888
8312.333
8311.765
8311.181
8310.58
8309.96
8309.322
8308.662
8307.98
8307.274
8306.543
8305.785
8305
8304.187
8303.343
8302.468
8301.562
8300.622
8299.649
8298.641
8297.598
8296.519
8295.403
8294.25
8293.06
8291.832
8290.565
8289.258
8287.913
8286.527
8285.102
8283.635
8282.127
8280.578
8278.985
8277.35
8275.669
8273.943
8272.169
8270.345
8268.468
8266.535
8264.543
8262.485
8260.354
8258.143
8255.84
8253.431
8250.898
8248.215
8245.352
8242.262
8238.886
8235.134
8230.879
8225.888
8219.794
8212.289
8205.082
8208.838
8244.422
6756.804
6628.039
6471.733
6323.334
6178.7
6039.227
5906.049
5780.181
5664.749
5523.342
5433.816
5351.857
5282.857
5230.262
5193.846
5169.681
5162.938
5169.588
5181.453
5209.208
5227.671
5264.739
5306.413
5349.51
5391.52
5430.445
5464.675
5494.003
5514.896
5517.954
5517.144
5505.279
5479.826
5441.67
5390.277
5326.519
5253.765
5166.653
5065.27
4965.251
4864.301
4766.34
4675.291
4593.975
4525.759
4473.402
4439.499
4416.946
4416.952
4434.736
4466.199
4511.072
4568.179
4636.034
4709.776
4789.89
4839.793
4930.174
5005.389
5075.337
5146.697
5216.923
5280.551
5338.395
5391.889
5442.178
5488.069
5530.95
5572.206
5611.303
5648.505
5684.853
5721.824
5760.162
5796.226
5831.398
5838.162
5833.262
5838.142
5837.078
5819.712
5788.634
5752.337
5717.137
5687.392
5666.878
5659.157
5667.061
5691.75
5731.909
5785.512
5850.316
5923.365
6001.46
6082.046
6163.587
6245.088
6327.379
6414.381
6500.03
6574.023
6633.27
6679.181
6712.253
6737.234
6766.492
6804.253
6845.596
6886.867
6926.39
6963.729
6999.012
7032.267
7063.389
7092.379
7119.346
7144.407
7167.693
7189.37
7209.641
7228.725
7246.824
7264.088
7280.613
7296.455
7311.643
7326.21
7340.175
7353.53
7366.313
7378.565
7390.305
7401.56
7412.367
7422.767
7432.802
7442.518
7451.953
7461.139
7470.093
7478.827
7487.362
7495.72
7503.92
7511.968
7519.846
7527.538
7535.043
7542.356
7549.474
7556.393
7563.13
7569.669
7576.048
7582.236
7588.17
7593.84
7599.268
7604.477
7609.475
7614.268
7618.865
7623.276
7627.516
7631.599
7635.54
7639.347
7643.03
7646.597
7650.055
7653.413
7656.679
7659.861
7662.965
7665.997
7668.96
7671.856
7674.688
7677.455
7680.157
7682.797
7685.377
7687.893
7690.343
7692.727
7695.046
7697.3
7699.49
7701.616
7703.682
7705.688
7707.639
7709.538
7711.394
7713.218
7714.999
7716.736
7718.438
7720.108
7721.766
7723.396
7725.059
7726.721
7728.471
7793.05
7793.854
7795.301
7797.093
7798.864
7800.645
7802.449
7804.278
7806.137
7808.025
7809.942
7811.878
7813.88
7815.912
7817.975
7820.067
7822.186
7824.333
7826.512
7828.718
7830.947
7833.196
7835.464
7837.745
7840.037
7842.333
7844.628
7846.91
7849.167
7851.383
7853.529
7855.565
7857.451
7859.191
7860.946
7863.382
7867.601
7872.592
7877.352
7882.019
7886.591
7891.087
7895.532
7899.942
7904.326
7908.691
7913.043
7917.383
7921.715
7926.04
7930.356
7934.665
7938.964
7943.251
7947.526
7951.784
7956.023
7960.241
7964.433
7968.597
7972.73
7976.828
7980.886
7984.903
7988.877
7992.804
7996.689
8000.533
8004.396
8008.892
7952.288
7956.584
7959.392
7961.556
7964.019
7966.861
7969.828
7972.743
7975.563
7978.306
7980.98
7983.579
7986.091
7988.514
7990.844
7993.082
7995.227
7997.278
7999.236
8001.1
8002.874
8004.557
8006.151
8007.658
8009.079
8010.417
8011.672
8012.848
8013.945
8014.968
8015.917
8016.796
8017.608
8018.356
8019.043
8019.672
8020.248
8020.776
8021.261
8021.708
8022.125
8022.516
8022.88
8023.196
8023.412
8023.449
8023.244
8022.854
8022.415
8021.986
8021.56
8021.078
8020.428
8019.111
8017.303
8016.561
8016.76
8016.882
8016.562
8016.03
8015.456
8014.905
8014.371
8013.842
8013.315
8012.795
8012.28
8011.77
8011.263
8010.759
8010.255
8009.75
8009.243
8008.732
8008.215
8007.692
8007.16
8006.619
8006.068
8005.504
8004.926
8004.334
8003.725
8003.098
8002.452
8001.784
8001.095
8000.382
7999.645
7998.881
7998.089
7997.269
7996.419
7995.539
7994.626
7993.68
7992.7
7991.686
7990.637
7989.551
7988.429
7987.269
7986.072
7984.837
7983.562
7982.249
7980.896
7979.503
7978.07
7976.595
7975.08
7973.523
7971.923
7970.279
7968.591
7966.857
7965.076
7963.246
7961.364
7959.426
7957.43
7955.369
7953.239
7951.031
7948.736
7946.339
7943.83
7941.182
7938.379
7935.376
7932.154
7928.647
7924.869
7920.844
7916.944
7913.827
7912.708
7914.178
7918.972
3272.343
3332.846
3416.725
3515.938
3629.472
3756.565
3896.98
4050.398
4216.982
4394.841
4567.548
4769.133
4979.955
5200.748
5429.879
5664.717
5900.731
6133.563
6366.651
6586.389
6793.517
6985.163
7157.067
7303.039
7419.674
7505
7557.9
7578.157
7571.874
7533.422
7467.972
7380.486
7275.204
7154.6
7020.419
6876.926
6728.209
6577.772
6414.431
6264.166
6113.642
5966.084
5822.682
5684.222
5552.241
5428.384
5314.756
5211.469
5117.86
5040.431
4977.247
4929.34
4897.211
4880.432
4878.15
4890.19
4854.764
4886.801
4923.368
4967.387
5014.849
5061.651
5106.333
5146.771
5181.166
5207.537
5224.425
5230.587
5224.198
5204.343
5170.778
5123.408
5062.215
4987.793
4901.297
4804.696
4700.594
4593.689
4487.342
4385.453
4292.168
4211.069
4145.43
4096.879
4066.566
4055.645
4062.982
4087.362
4127.626
4183.301
4250.079
4322.926
4402.603
4488.812
4580.117
4663.977
4741.643
4818.44
4895.172
4969.411
5038.487
5102.02
5160.551
5214.27
5263.204
5308.658
5351.143
5390.089
5426.176
5460.176
5492.354
5522.608
5549.314
5574.493
5585.926
5582.214
5575.296
5564.786
5543.142
5508.513
5466.671
5425.046
5389.488
5364.769
5354.298
5361.183
5386.813
5429.735
5486.663
5555.101
5632.605
5716.436
5803.966
5892.7
5980.654
6066.408
6149.761
6229.925
6302.656
6364.16
6414.718
6457.637
6494.701
6529.106
6566.783
6608.029
6649.274
6688.468
6725.351
6760.158
6793.03
6823.915
6852.752
6879.572
6904.477
6927.617
6949.177
6969.366
6988.386
7006.425
7023.628
7040.091
7055.873
7070.996
7085.453
7099.265
7112.476
7125.112
7137.21
7148.803
7159.888
7170.547
7180.852
7190.78
7200.358
7209.642
7218.674
7227.481
7236.076
7244.476
7252.706
7260.774
7268.679
7276.416
7283.979
7291.361
7298.552
7305.545
7312.348
7318.965
7325.424
7331.698
7337.769
7343.597
7349.167
7354.517
7359.662
7364.596
7369.318
7373.844
7378.188
7382.363
7386.388
7390.274
7394.027
7397.658
7401.175
7404.586
7407.9
7411.127
7414.274
7417.348
7420.353
7423.294
7426.172
7428.989
7431.747
7434.444
7437.08
7439.653
7442.162
7444.608
7446.992
7449.312
7451.568
7453.761
7455.893
7457.965
7459.981
7461.943
7463.854
7465.72
7467.542
7469.316
7471.054
7472.765
7474.454
7476.128
7477.803
7479.491
7481.266
7483.15
7485.396
7487.273
7488.842
7490.422
7492.13
7493.92
7495.744
7497.59
7499.464
7501.37
7503.313
7505.321
7507.321
7509.366
7511.443
7513.551
7515.689
7517.857
7520.054
7522.278
7524.526
7526.795
7529.082
7531.385
7533.7
7536.022
7538.346
7540.666
7542.973
7545.259
7547.518
7549.757
7552.02
7554.372
7556.982
7560.098
7563.872
7568.131
7572.547
7576.964
7581.355
7585.726
7590.085
7594.432
7598.769
7603.097
7607.419
7611.735
7616.047
7620.354
7624.656
7628.951
7633.237
7637.513
7641.776
7646.023
7650.251
7654.458
7658.639
7662.792
7666.913
7670.998
7675.044
7679.047
7683.003
7686.913
7690.767
7694.577
7698.313
7702.039
7705.401
7708.252
7711.171
7714.324
7717.586
7720.819
7723.952
7726.964
7729.859
7732.654
7735.362
7737.982
7740.513
7742.951
7745.294
7747.542
7749.695
7751.753
7753.718
7755.591
7757.371
7759.061
7760.663
7762.178
7763.607
7764.952
7766.215
7767.399
7768.506
7769.537
7770.495
7771.383
7772.203
7772.959
7773.652
7774.288
7774.869
7775.398
7775.88
7776.318
7776.714
7777.066
7777.365
7777.596
7777.736
7777.76
7777.628
7777.345
7776.973
7776.574
7776.161
7775.742
7775.336
7775.148
7775.251
7774.819
7774
7773.024
7772.113
7771.311
7770.596
7769.943
7769.332
7768.746
7768.178
7767.627
7767.087
7766.555
7766.028
7765.504
7764.983
7764.462
7763.94
7763.415
7762.886
7762.352
7761.811
7761.261
7760.702
7760.131
7759.548
7758.95
7758.337
7757.706
7757.057
7756.388
7755.697
7754.984
7754.246
7753.482
7752.692
7751.873
7751.025
7750.146
7749.235
7748.292
7747.316
7746.305
7745.259
7744.177
7743.058
7741.902
7740.708
7739.476
7738.205
7736.895
7735.546
7734.156
7732.727
7731.256
7729.744
7728.19
7726.595
7724.956
7723.273
7721.545
7719.771
7717.949
7716.076
7714.151
7712.17
7710.129
7708.023
7705.846
7703.591
7701.248
7698.807
7696.255
7693.579
7690.764
7687.804
7684.714
7681.549
7678.442
7675.615
7673.367
7672.031
7672.148
7673.928
2910.745
2881.481
2854.957
2822.798
2809.913
2783.615
2803.971
2846.848
2905.756
2934.479
2937.198
2957.181
3000.242
3062.687
3142.051
3236.518
3344.429
3465.08
3598.376
3744.45
3901.799
4071.433
4252.885
4446.163
4650.411
4864.55
5087.374
5315.618
5546.002
5775.482
6002.153
6211.511
6425.544
6615.988
6783.796
6923.743
7034.056
7112.671
7158.791
7173.348
7158.568
7115.468
7045.938
6954.788
6846.649
6723.035
6587.425
6445.231
6299.467
6151.857
6003.697
5856.794
5711.558
5568.726
5429.365
5294.609
5165.756
5044.35
4932.04
4830.449
4741.154
4665.972
4606.494
4563.631
4537.338
4527.207
4531.93
4551.716
4585.41
4625.121
4669.094
4719.102
4773.654
4826.334
4876.871
4922.462
4960.88
4990.339
5009.134
5015.364
5007.808
4985.478
4947.873
4894.839
4826.455
4743.571
4647.871
4541.68
4427.804
4310.572
4194.643
4084.447
3984.253
3897.631
3828.558
3779.078
3750.056
3741.36
3752.432
3782.197
3828.967
3889.081
3961.182
4041.704
4129.084
4220.035
4311.099
4399.391
4484.849
4568.015
4648.535
4725.578
4798.111
4865.659
4928.171
4985.612
5037.966
5085.64
5128.899
5167.882
5203.293
5235.576
5264.704
5290.878
5313.024
5330.716
5339.345
5336.367
5325.409
5306.791
5276.737
5233.935
5182.616
5130.114
5083.809
5049.98
5032.462
5035.797
5063.78
5112.433
5174.709
5247.79
5330.023
5419.396
5513.224
5608.487
5702.446
5792.904
5878.573
5958.839
6031.566
6095.198
6150.28
6198.674
6241.713
6281.811
6322.261
6363.815
6404.981
6444.451
6481.788
6517.015
6550.206
6581.343
6610.393
6637.39
6662.435
6685.696
6707.378
6727.691
6746.833
6764.978
6782.264
6798.779
6814.584
6829.712
6844.154
6857.933
6871.123
6883.757
6895.844
6907.41
6918.465
6929.049
6939.226
6949.037
6958.514
6967.695
6976.621
6985.324
6993.819
7002.128
7010.287
7018.276
7026.065
7033.68
7041.135
7048.42
7055.522
7062.432
7069.159
7075.705
7082.061
7088.215
7094.164
7099.875
7105.34
7110.571
7115.587
7120.402
7125.013
7129.435
7133.678
7137.757
7141.704
7145.529
7149.225
7152.796
7156.252
7159.602
7162.861
7166.037
7169.138
7172.172
7175.141
7178.051
7180.902
7183.697
7186.433
7189.112
7191.731
7194.288
7196.784
7199.218
7201.592
7203.905
7206.153
7208.337
7210.461
7212.525
7214.531
7216.484
7218.386
7220.241
7222.052
7223.823
7225.562
7227.273
7228.965
7230.646
7232.327
7234.03
7235.758
7237.539
7239.22
7240.926
7242.7
7244.505
7246.327
7248.161
7250.008
7251.871
7253.759
7255.681
7257.64
7259.638
7261.655
7263.702
7265.781
7267.894
7270.038
7272.214
7274.42
7276.654
7278.913
7281.195
7283.499
7285.821
7288.159
7290.51
7292.871
7295.238
7297.611
7299.99
7302.384
7304.811
7307.304
7309.927
7312.773
7315.96
7319.582
7323.58
7327.774
7332.026
7336.291
7340.568
7344.854
7349.146
7353.438
7357.731
7362.025
7366.317
7370.61
7374.9
7379.187
7383.469
7387.745
7392.011
7396.265
7400.505
7404.727
7408.928
7413.105
7417.254
7421.37
7425.452
7429.493
7433.492
7437.443
7441.344
7445.183
7448.965
7452.647
7456.229
7459.652
7463.001
7466.339
7469.596
7472.753
7475.833
7478.847
7481.786
7484.642
7487.415
7490.104
7492.71
7495.228
7497.656
7499.992
7502.234
7504.383
7506.439
7508.402
7510.272
7512.052
7513.742
7515.343
7516.858
7518.287
7519.633
7520.896
7522.081
7523.187
7524.219
7525.177
7526.065
7526.885
7527.639
7528.331
7528.963
7529.539
7530.06
7530.529
7530.949
7531.317
7531.632
7531.887
7532.073
7532.177
7532.182
7532.07
7531.843
7531.53
7531.174
7530.795
7530.407
7529.994
7529.535
7528.94
7528.19
7527.469
7526.872
7526.336
7525.778
7525.205
7524.634
7524.069
7523.511
7522.958
7522.411
7521.869
7521.332
7520.8
7520.271
7519.744
7519.216
7518.688
7518.156
7517.621
7517.081
7516.534
7515.979
7515.414
7514.839
7514.252
7513.651
7513.035
7512.403
7511.752
7511.082
7510.391
7509.677
7508.939
7508.177
7507.388
7506.571
7505.725
7504.848
7503.941
7503.001
7502.028
7501.02
7499.978
7498.9
7497.785
7496.633
7495.443
7494.215
7492.948
7491.642
7490.297
7488.911
7487.486
7486.02
7484.513
7482.964
7481.374
7479.741
7478.065
7476.346
7474.581
7472.771
7470.913
7469.005
7467.045
7465.03
7462.957
7460.822
7458.62
7456.345
7453.993
7451.557
7449.036
7446.432
7443.76
7441.049
7438.371
7435.817
7433.544
7431.682
7430.482
7430.072
7430.61
3474.709
3405.459
3337.191
3245.15
3162.82
3044.212
2966.816
2890.858
2820.17
2754.813
2695.063
2644.655
2600.593
2565.647
2540.364
2525.447
2461.408
2473.942
2496.685
2523.712
2548.919
2578.112
2618.368
2672.874
2741.577
2823.346
2918.725
3027.74
3149.335
3283.087
3428.83
3586.492
3755.983
3937.15
4129.725
4332.517
4544.332
4764.638
4991.7
5222.731
5453.408
5678.403
5887.439
6097.961
6286.758
6453.363
6593.045
6702.585
6780.126
6824.88
6837.64
6820.273
6775.52
6705.467
6614.755
6505.605
6380.365
6246.029
6107.539
5966.634
5824.248
5681.115
5538.646
5397.68
5258.479
5121.726
4988.445
4859.922
4737.825
4624.11
4520.76
4429.864
4353.797
4294.538
4253.229
4230.174
4224.803
4236.072
4261.884
4300.299
4347.97
4402.518
4462.771
4525.868
4590.979
4652.172
4707.098
4753.505
4789.271
4812.418
4820.992
4813.886
4789.515
4747.495
4687.287
4609.07
4514.219
4404.796
4283.642
4154.551
4022.434
3892.712
3770.494
3660.313
3565.9
3490.807
3438.042
3408.931
3402.449
3417.392
3451.906
3504.671
3572.539
3652.959
3742.508
3838.078
3935.94
4033.423
4128.949
4221.502
4310.502
4395.837
4477.307
4554.379
4626.574
4693.547
4754.982
4810.678
4860.733
4905.348
4944.932
4980.144
5011.41
5039.506
5064.065
5084.234
5098.821
5105.368
5101.74
5087.619
5061.566
5020.454
4963.482
4895.35
4824.524
4761.395
4714.342
4686.884
4684.568
4719.34
4782.051
4852.406
4930.738
5016.972
5111.394
5211.912
5314.592
5415.892
5512.748
5603.327
5686.766
5761.973
5828.498
5887.257
5939.679
5987.207
6031.701
6074.893
6117.479
6159.075
6198.996
6236.843
6272.553
6306.182
6337.746
6367.236
6394.672
6420.137
6443.773
6465.771
6486.336
6505.665
6523.941
6541.313
6557.885
6573.733
6588.899
6603.4
6617.264
6630.533
6643.215
6655.32
6666.875
6677.904
6688.407
6698.455
6708.151
6717.532
6726.614
6735.432
6744.02
6752.395
6760.563
6768.545
6776.365
6784.029
6791.538
6798.893
6806.084
6813.099
6819.928
6826.587
6833.075
6839.351
6845.4
6851.227
6856.819
6862.165
6867.263
6872.134
6876.811
6881.312
6885.625
6889.76
6893.73
6897.551
6901.24
6904.816
6908.302
6911.675
6914.943
6918.124
6921.232
6924.272
6927.25
6930.17
6933.036
6935.85
6938.61
6941.317
6943.969
6946.565
6949.102
6951.578
6953.99
6956.346
6958.646
6960.879
6963.049
6965.159
6967.208
6969.201
6971.14
6973.028
6974.87
6976.67
6978.432
6980.161
6981.865
6983.549
6985.225
6986.899
6988.584
6990.279
6991.993
6993.7
6995.455
6997.235
6999.015
7000.801
7002.606
7004.436
7006.294
7008.183
7010.105
7012.063
7014.056
7016.078
7018.133
7020.222
7022.345
7024.501
7026.689
7028.907
7031.154
7033.429
7035.729
7038.053
7040.4
7042.766
7045.153
7047.557
7049.98
7052.424
7054.894
7057.401
7059.965
7062.618
7065.407
7068.393
7071.643
7075.2
7079.037
7083.057
7087.169
7091.331
7095.526
7099.749
7103.99
7108.243
7112.506
7116.775
7121.049
7125.326
7129.605
7133.883
7138.159
7142.429
7146.692
7150.944
7155.183
7159.404
7163.606
7167.783
7171.933
7176.051
7180.134
7184.176
7188.175
7192.124
7196.019
7199.853
7203.619
7207.3
7210.899
7214.413
7217.842
7221.176
7224.403
7227.538
7230.61
7233.625
7236.573
7239.44
7242.222
7244.916
7247.523
7250.041
7252.467
7254.8
7257.04
7259.186
7261.239
7263.199
7265.067
7266.844
7268.53
7270.129
7271.64
7273.065
7274.407
7275.668
7276.848
7277.951
7278.978
7279.932
7280.815
7281.63
7282.379
7283.064
7283.688
7284.253
7284.761
7285.214
7285.613
7285.956
7286.241
7286.464
7286.619
7286.696
7286.686
7286.583
7286.387
7286.117
7285.796
7285.44
7285.052
7284.622
7284.14
7283.631
7283.11
7282.561
7281.979
7281.37
7280.754
7280.146
7279.548
7278.963
7278.388
7277.823
7277.265
7276.713
7276.168
7275.627
7275.089
7274.552
7274.016
7273.479
7272.94
7272.397
7271.85
7271.297
7270.736
7270.167
7269.587
7268.996
7268.392
7267.774
7267.139
7266.487
7265.815
7265.124
7264.41
7263.673
7262.912
7262.124
7261.309
7260.466
7259.592
7258.688
7257.752
7256.782
7255.779
7254.741
7253.667
7252.556
7251.409
7250.224
7249
7247.738
7246.437
7245.096
7243.716
7242.295
7240.835
7239.333
7237.791
7236.207
7234.582
7232.915
7231.205
7229.453
7227.656
7225.815
7223.928
7221.993
7220.009
7217.975
7215.887
7213.745
7211.546
7209.29
7206.977
7204.614
7202.211
7199.791
7197.389
7195.062
7192.887
7190.962
7189.393
7188.309
7187.771
7187.827
4038.519
3967.387
3891.533
3801.227
3724.498
3609.05
3532.882
3455.114
3374.833
3294.088
3213.656
3133.351
3052.316
2971.488
2887.989
2731.556
2652.378
2577.278
2506.097
2440.038
2379.757
2326.726
2281.776
2244.799
2216.317
2198.018
2189.289
2193.345
2206.658
2226.61
2252.34
2286.375
2330.71
2386.816
2456.074
2538.793
2634.036
2741.481
2860.863
2991.903
3134.489
3288.737
3454.683
3631.735
3818.961
4015.883
4222.14
4436.622
4658.165
4885.034
5114.429
5340.305
5554.291
5758.348
5944.11
6106.985
6242.558
6347.637
6420.457
6460.564
6469.022
6447.978
6400.812
6330.516
6239.281
6129.417
6006.308
5877.059
5744.9
5610.875
5475.61
5339.646
5203.677
5068.087
4932.848
4798.581
4666.188
4536.906
4412.69
4295.939
4189.001
4094.731
4016.377
3956.508
3916.532
3896.892
3896.882
3915.009
3949.063
3997.281
4057.388
4126.612
4202.303
4281.458
4360.937
4436.48
4504.733
4562.568
4607.52
4637.33
4649.313
4641.78
4614.133
4566.085
4496.126
4404.589
4293.35
4165.01
4023.182
3872.912
3720.37
3571.995
3433.599
3310.247
3206.445
3125.816
3070.224
3040.8
3036.858
3057.157
3098.478
3159.256
3237.364
3329.258
3429.886
3536.087
3644.689
3752.027
3855.641
3955.801
4051.474
4142.306
4228.646
4310.301
4386.776
4457.619
4522.454
4581.074
4633.451
4679.692
4720.313
4756.03
4787.636
4815.737
4840.783
4861.473
4876.216
4882.613
4878.285
4861.657
4829.281
4775.333
4698.472
4606.089
4509.078
4422.043
4358.375
4318.966
4319.091
4378.795
4452.294
4521.833
4608.922
4700.281
4799.116
4906.636
5017.108
5125.636
5228.795
5324.81
5412.879
5492.088
5562.602
5625.511
5682.002
5733.346
5781.095
5826.516
5870.235
5912.413
5952.812
5991.162
6027.405
6061.576
6093.692
6123.755
6151.785
6177.837
6202.016
6224.481
6245.422
6265.038
6283.517
6301.026
6317.693
6333.609
6348.835
6363.402
6377.332
6390.646
6403.355
6415.473
6427.025
6438.031
6448.518
6458.554
6468.207
6477.506
6486.482
6495.173
6503.619
6511.843
6519.851
6527.652
6535.302
6542.829
6550.216
6557.45
6564.523
6571.422
6578.128
6584.634
6590.945
6597.062
6602.973
6608.668
6614.14
6619.38
6624.387
6629.178
6633.768
6638.164
6642.369
6646.393
6650.246
6653.93
6657.465
6660.894
6664.253
6667.463
6670.611
6673.689
6676.706
6679.668
6682.577
6685.434
6688.243
6691.006
6693.721
6696.387
6699.003
6701.566
6704.075
6706.524
6708.913
6711.254
6713.534
6715.732
6717.875
6719.964
6721.993
6723.966
6725.886
6727.756
6729.58
6731.362
6733.108
6734.822
6736.512
6738.183
6739.845
6741.504
6743.169
6744.842
6746.533
6748.241
6749.972
6751.716
6753.471
6755.241
6757.038
6758.863
6760.72
6762.609
6764.532
6766.49
6768.484
6770.513
6772.576
6774.675
6776.807
6778.974
6781.174
6783.406
6785.669
6787.961
6790.281
6792.628
6795.002
6797.401
6799.825
6802.276
6804.756
6807.269
6809.822
6812.429
6815.107
6817.884
6820.793
6823.876
6827.168
6830.69
6834.428
6838.33
6842.339
6846.418
6850.546
6854.713
6858.91
6863.128
6867.363
6871.611
6875.869
6880.135
6884.405
6888.677
6892.949
6897.217
6901.48
6905.733
6909.974
6914.198
6918.403
6922.585
6926.739
6930.861
6934.948
6938.994
6942.996
6946.947
6950.843
6954.676
6958.443
6962.133
6965.745
6969.272
6972.702
6976.035
6979.277
6982.443
6985.542
6988.574
6991.529
6994.4
6997.183
6999.877
7002.482
7004.996
7007.418
7009.747
7011.982
7014.123
7016.171
7018.125
7019.987
7021.758
7023.438
7025.029
7026.534
7027.952
7029.287
7030.539
7031.712
7032.807
7033.825
7034.771
7035.644
7036.449
7037.187
7037.861
7038.472
7039.022
7039.514
7039.949
7040.325
7040.644
7040.904
7041.1
7041.229
7041.285
7041.264
7041.164
7040.987
7040.742
7040.444
7040.102
7039.722
7039.302
7038.849
7038.375
7037.866
7037.315
7036.743
7036.155
7035.56
7034.971
7034.389
7033.812
7033.242
7032.678
7032.119
7031.565
7031.016
7030.47
7029.926
7029.384
7028.842
7028.3
7027.755
7027.207
7026.655
7026.097
7025.533
7024.96
7024.377
7023.783
7023.176
7022.556
7021.92
7021.266
7020.595
7019.903
7019.19
7018.454
7017.694
7016.909
7016.096
7015.255
7014.385
7013.484
7012.552
7011.587
7010.588
7009.554
7008.485
7007.379
7006.236
7005.056
7003.838
7002.581
7001.285
6999.95
6998.575
6997.16
6995.705
6994.21
6992.674
6991.098
6989.482
6987.824
6986.126
6984.387
6982.607
6980.784
6978.92
6977.013
6975.064
6973.071
6971.035
6968.956
6966.836
6964.677
6962.485
6960.27
6958.047
6955.84
6953.685
6951.627
6949.729
6948.058
6946.701
6945.711
6945.155
6945.004
4078.909
4039.045
3993.652
3920.451
3837.445
3755.406
3674.113
3596.048
3520.771
3444.013
3292.67
3215.635
3138.575
3060.106
2980.091
2899.138
2817.631
2735.438
2652.918
2571.237
2492.479
2413.543
2337.077
2263.929
2195.311
2131.573
2073.878
2023.608
1981.698
1948.713
1925.286
1912.379
1910.448
1918.649
1936.023
1962.177
1998.312
2045.194
2103.588
2173.941
2256.495
2350.983
2457.078
2574.48
2702.947
2842.464
2993.161
3154.626
3325.878
3506.581
3697.352
3898.395
4108.792
4326.176
4548.156
4771.421
4991.042
5201.13
5398.15
5577.082
5732.664
5860.5
5957.731
6022.815
6056.094
6059.017
6034.655
5984.905
5912.129
5820.38
5713.836
5598.262
5477.803
5354.555
5229.803
5103.976
4977.206
4849.501
4720.392
4589.193
4457.052
4324.423
4192.612
4064.07
3941.878
3828.906
3728.987
3646.612
3585.274
3546.912
3531.948
3539.183
3566.848
3612.957
3675.636
3752.589
3840.731
3936.608
4036.447
4136.075
4230.812
4316.471
4389.784
4446.893
4484.539
4500.478
4492.874
4461.117
4404.725
4321.843
4213.176
4081.008
3928.433
3760.079
3582.788
3404.735
3233.744
3075.839
2936.443
2821.192
2735.086
2678.607
2650.521
2650.046
2676.267
2725.703
2795.205
2884.207
2990.35
3106.374
3227.501
3348.128
3467.853
3583.466
3692.233
3793.881
3890.396
3981.973
4068.272
4148.925
4223.46
4291.387
4352.356
4406.367
4453.739
4495.183
4531.585
4563.98
4593.454
4620.055
4643.141
4660.488
4668.92
4665.583
4648.585
4612.056
4544.931
4443.462
4318.92
4188.189
4075.821
3998.813
3961.084
3976.674
4042.173
4125.802
4196.392
4285.15
4384.172
4487.941
4602.775
4721.335
4837.327
4946.663
5047.24
5139.198
5222.11
5296.456
5363.426
5423.779
5478.746
5529.633
5577.364
5622.475
5665.417
5706.345
5745.154
5781.902
5816.637
5849.349
5880.051
5908.757
5935.491
5960.323
5983.381
6004.832
6024.857
6043.647
6061.379
6078.2
6094.222
6109.523
6124.149
6138.128
6151.481
6164.223
6176.369
6187.938
6198.955
6209.451
6219.472
6229.066
6238.274
6247.135
6255.692
6263.985
6272.043
6279.887
6287.547
6295.059
6302.432
6309.657
6316.729
6323.639
6330.377
6336.923
6343.255
6349.379
6355.325
6361.09
6366.649
6371.991
6377.109
6382
6386.671
6391.132
6395.393
6399.462
6403.347
6407.056
6410.603
6414.008
6417.287
6420.431
6423.553
6426.591
6429.56
6432.475
6435.339
6438.161
6440.937
6443.674
6446.371
6449.027
6451.64
6454.206
6456.724
6459.189
6461.598
6463.945
6466.26
6468.513
6470.666
6472.781
6474.846
6476.847
6478.794
6480.688
6482.533
6484.334
6486.093
6487.817
6489.512
6491.182
6492.835
6494.479
6496.118
6497.761
6499.414
6501.081
6502.765
6504.465
6506.183
6507.921
6509.682
6511.471
6513.291
6515.143
6517.03
6518.952
6520.911
6522.908
6524.942
6527.013
6529.12
6531.263
6533.442
6535.655
6537.902
6540.182
6542.494
6544.837
6547.21
6549.613
6552.047
6554.513
6557.012
6559.548
6562.127
6564.756
6567.449
6570.221
6573.094
6576.091
6579.24
6582.562
6586.068
6589.748
6593.574
6597.508
6601.522
6605.596
6609.717
6613.875
6618.063
6622.275
6626.505
6630.75
6635.006
6639.27
6643.539
6647.81
6652.08
6656.345
6660.602
6664.848
6669.078
6673.29
6677.478
6681.639
6685.769
6689.863
6693.915
6697.923
6701.879
6705.78
6709.619
6713.391
6717.089
6720.709
6724.243
6727.687
6731.043
6734.316
6737.509
6740.626
6743.664
6746.621
6749.492
6752.275
6754.968
6757.57
6760.081
6762.498
6764.821
6767.05
6769.185
6771.225
6773.172
6775.026
6776.788
6778.46
6780.042
6781.536
6782.944
6784.268
6785.51
6786.671
6787.753
6788.76
6789.692
6790.552
6791.343
6792.066
6792.724
6793.319
6793.851
6794.324
6794.737
6795.091
6795.386
6795.621
6795.793
6795.9
6795.939
6795.908
6795.807
6795.638
6795.407
6795.123
6794.794
6794.425
6794.02
6793.582
6793.112
6792.605
6792.067
6791.522
6790.962
6790.39
6789.817
6789.245
6788.676
6788.111
6787.549
6786.991
6786.436
6785.885
6785.336
6784.789
6784.244
6783.698
6783.152
6782.604
6782.052
6781.497
6780.936
6780.369
6779.793
6779.208
6778.612
6778.004
6777.382
6776.745
6776.092
6775.42
6774.729
6774.017
6773.282
6772.524
6771.741
6770.931
6770.093
6769.227
6768.33
6767.401
6766.441
6765.446
6764.417
6763.353
6762.253
6761.115
6759.94
6758.728
6757.476
6756.186
6754.856
6753.487
6752.078
6750.629
6749.141
6747.613
6746.045
6744.438
6742.791
6741.105
6739.381
6737.617
6735.815
6733.975
6732.098
6730.184
6728.235
6726.251
6724.236
6722.193
6720.128
6718.048
6715.967
6713.9
6711.872
6709.915
6708.067
6706.378
6704.896
6703.687
6702.771
6702.219
6701.959
3834.285
3769.407
3624.546
3553.517
3479.663
3406.396
3334.08
3262.539
3191.16
3119.705
3048.683
2975.208
2899.59
2822.105
2742.874
2662.025
2579.967
2496.987
2413.272
2329.867
2248.908
2168.904
2089.897
2012.974
1939.983
1872.121
1810.477
1756.121
1710.817
1675.527
1650.249
1635.372
1631.089
1637.097
1653.211
1679.403
1716.129
1763.859
1822.89
1893.406
1975.444
2068.87
2173.423
2288.773
2414.665
2550.977
2697.354
2852.734
3017.039
3191.829
3377.467
3573.067
3777.683
3989.135
4204.85
4421.107
4633.192
4835.54
5023.213
5191.573
5336.07
5452.579
5539.097
5594.697
5620.699
5617.848
5587.532
5533.187
5458.561
5369.863
5270.744
5164.632
5054.434
4941.52
4827.778
4712.954
4596.405
4477.759
4355.524
4227.987
4097.814
3963.708
3827.286
3692.209
3561.601
3438.943
3330.212
3241.761
3177.792
3141.072
3132.44
3149.369
3189.318
3250.636
3331.626
3429.839
3541.661
3662.906