/*--------------------------------*- C++ -*----------------------------------*\
| =========                 |                                                 |
| \\      /  F ield         | foam-extend: Open Source CFD                    |
|  \\    /   O peration     | Version:     3.1                                |
|   \\  /    A nd           | Web:         http://www.extend-project.de       |
|    \\/     M anipulation  |                                                 |
\*---------------------------------------------------------------------------*/
FoamFile
{
    version     2.0;
    format      ascii;
    class       surfaceScalarField;
    location    "8.5";
    object      phi;
}
// * * * * * * * * * * * * * * * * * * * * * * * * * * * * * * * * * * * * * //

dimensions      [0 3 -1 0 0 0 0];

internalField   nonuniform List<scalar> 
275122
(
-0.0002875697
0.0002931109
-2.265925e-07
-5.314629e-06
-0.0002637265
0.0002534581
9.353999e-07
9.333044e-06
-0.0002690281
0.0002778191
-3.334094e-07
-8.457531e-06
-0.0003089059
0.0003191421
-2.537675e-07
-9.982376e-06
-0.0003462842
0.0003514833
-3.276984e-07
-4.871447e-06
-0.0003580876
0.0003594518
-3.221889e-07
-1.042004e-06
-0.0003633841
0.0003643089
-2.779311e-07
-6.468126e-07
-0.0003664524
0.0003669563
-2.52058e-07
-2.518027e-07
-0.000367812
0.0003678079
-2.281354e-07
2.322778e-07
-0.0003667393
0.0003660701
-1.965527e-07
8.657386e-07
-0.0003632458
0.0003619833
-1.728674e-07
1.435341e-06
-0.0003572644
0.0003554272
-1.632185e-07
2.000428e-06
-0.0003490729
0.0003466026
-1.571664e-07
2.627449e-06
-0.0003382703
0.0003350917
-1.251716e-07
3.303786e-06
-0.0003246295
0.0003206975
-1.087356e-07
4.040812e-06
-0.0003078768
0.000302997
-7.960318e-08
4.959372e-06
-0.0002874988
0.0002813785
-3.796776e-08
6.158275e-06
-0.00026296
0.0002555182
2.238426e-08
7.419405e-06
-0.0002339723
0.0002253302
1.076005e-07
8.534487e-06
-0.0002027448
0.0001944999
1.162083e-08
8.233275e-06
-0.0001915711
0.0001925618
-6.216293e-07
-3.69068e-07
-0.0001694714
0.0001629231
-3.599501e-07
6.908266e-06
-0.0001500931
0.0001473114
-2.150079e-07
2.996728e-06
-0.0001560038
0.0001601119
2.832495e-07
-4.391324e-06
-0.0001574819
0.00015693
1.825894e-07
3.693395e-07
-0.0001567123
0.0001563905
-1.795049e-07
5.013311e-07
-0.0001557347
0.0001551894
-1.652008e-07
7.105464e-07
-0.0001528226
0.0001510214
-8.077454e-08
1.881912e-06
-0.0001407623
0.000131368
-1.130382e-07
9.507356e-06
-0.0001517729
0.0001557723
6.257045e-09
-4.005646e-06
-0.0002438091
0.000257111
-7.038814e-08
-1.323159e-05
-0.0002967696
0.000310409
4.999986e-09
-1.364434e-05
-0.0003532529
0.0003678525
5.841179e-09
-1.460535e-05
-0.0004129797
0.0004284015
6.573674e-09
-1.542831e-05
-0.0004758888
0.0004919626
6.246299e-09
-1.608006e-05
-0.000540875
0.0005573268
6.70378e-09
-1.645846e-05
-0.0006069308
0.0006235102
6.436183e-09
-1.658582e-05
-0.0006730374
0.0006895044
6.511481e-09
-1.647346e-05
-0.0007381786
0.0007541759
6.373769e-09
-1.600372e-05
-0.0008014042
0.0008175334
2.401396e-07
-1.636938e-05
1.315986e-05
-0.0005517573
0.0005529495
6.100771e-10
-1.435263e-05
1.289223e-05
-0.0005564174
0.0005572385
-3.705903e-10
-1.371299e-05
1.268794e-05
-0.0005588555
0.0005590754
-1.367503e-09
-1.29065e-05
1.247712e-05
-0.0005588324
0.0005584721
-1.769617e-09
-1.211502e-05
1.217246e-05
-0.0005567269
0.0005559256
-1.80051e-09
-1.136938e-05
1.182053e-05
-0.0005530396
0.0005519106
-1.450808e-09
-1.069007e-05
1.143254e-05
-0.0005481868
0.0005468179
-1.340884e-09
-1.006224e-05
1.102256e-05
-0.0005424905
0.0005409386
-1.160827e-09
-9.469549e-06
1.054963e-05
-0.0005359189
0.0005336935
-1.014805e-09
-8.323263e-06
8.45258e-06
-0.002146518
0.002135645
5.997309e-11
-2.391605e-05
8.968672e-06
8.429513e-06
8.938522e-06
8.319927e-06
-0.002122621
0.002108229
2.557973e-11
-1.952506e-05
8.649205e-06
8.312421e-06
8.635527e-06
7.424412e-06
-0.002093714
0.002079267
-9.977777e-12
-1.515736e-05
7.405616e-06
7.397109e-06
7.377242e-06
6.140764e-06
-0.002065431
0.002051358
-3.019744e-11
-1.020104e-05
6.022393e-06
6.1121e-06
5.999683e-06
4.704599e-06
-0.002036796
0.002021612
-3.011603e-11
-3.276301e-06
4.53982e-06
4.68911e-06
4.526497e-06
3.294532e-06
-0.002006026
0.00198963
-1.437985e-11
3.631856e-06
3.098081e-06
3.284982e-06
3.087115e-06
2.416698e-06
-0.001972703
0.001955101
1.732711e-11
8.02849e-06
2.379731e-06
2.407016e-06
2.370143e-06
2.53951e-06
-0.001936716
0.001917631
1.362416e-11
8.607032e-06
2.707247e-06
2.532379e-06
2.6993e-06
3.651548e-06
-0.001897824
0.001877013
-1.058405e-11
5.195309e-06
4.157073e-06
3.650768e-06
4.155671e-06
4.170203e-06
-0.001856582
0.001839706
7.842434e-11
-1.643913e-06
5.096085e-06
4.154538e-06
5.098504e-06
7.098384e-06
-0.001821009
0.001802472
-6.613289e-11
-1.03672e-05
7.349494e-06
7.108446e-06
7.347472e-06
8.93369e-06
-0.001785088
0.001769668
4.704528e-10
-2.034466e-05
9.031882e-06
8.841185e-06
8.956518e-06
1.0485e-05
-0.001755836
0.001743628
-2.032415e-10
-3.003314e-05
1.069596e-05
1.040635e-05
1.065369e-05
1.1554e-05
-0.001733185
0.001725077
-5.698413e-10
-3.86628e-05
1.168251e-05
1.170531e-05
1.182932e-05
1.257882e-05
-0.00171843
0.001713844
-4.366723e-10
-4.626173e-05
1.268233e-05
1.274188e-05
1.284542e-05
1.348829e-05
-0.00171054
0.001709024
-1.389317e-10
-5.280034e-05
1.359358e-05
1.356898e-05
1.366637e-05
1.448079e-05
-0.001708627
0.001709753
3.657417e-11
-5.906751e-05
1.458809e-05
1.438305e-05
1.448937e-05
1.623371e-05
-0.001711637
0.001713187
1.109234e-10
-6.56988e-05
1.655529e-05
1.557491e-05
1.578477e-05
1.981838e-05
-0.001712296
0.001707362
1.172199e-10
-7.28643e-05
2.125519e-05
1.827858e-05
1.844564e-05
4.443565e-05
-0.001700185
0.001719076
9.128279e-11
-6.332676e-05
4.044593e-05
-0.001744223
0.001756454
6.69686e-11
-5.267695e-05
5.993109e-05
-0.001761972
0.001769005
2.644636e-11
-6.696389e-05
5.751401e-05
-0.001777498
0.001787483
-1.90154e-12
-6.749873e-05
4.704573e-05
-0.001798074
0.001811978
-1.841995e-11
-6.094992e-05
3.53538e-05
-0.001828792
0.001846791
-2.798195e-11
-5.335299e-05
3.267422e-05
-0.001864036
0.001881249
-3.307091e-11
-4.988747e-05
2.917398e-05
-0.001898542
0.001915351
-3.560901e-11
-4.598258e-05
2.462421e-05
-0.001931795
0.001947345
-3.647473e-11
-4.017404e-05
1.84306e-05
-0.001962282
0.001975701
-3.372971e-11
-3.184951e-05
1.076587e-05
-0.00198809
0.001998462
-2.866098e-11
-2.113797e-05
1.946992e-06
-0.002007462
0.002014247
-2.237881e-11
-8.732352e-06
-7.103325e-06
-0.002019305
0.002022154
-1.638604e-11
4.254116e-06
-1.658224e-05
-0.002023576
0.00202306
-7.293752e-12
1.709825e-05
-2.640121e-05
-0.002021246
0.002017851
3.943264e-12
2.979673e-05
-3.736916e-05
-0.002013177
0.002007123
1.651936e-11
4.342315e-05
-5.007741e-05
-0.001999647
0.001990863
2.899945e-11
5.886145e-05
-6.40616e-05
-0.001980303
0.001968519
4.321136e-11
7.584564e-05
-7.71215e-05
-0.001954354
0.001938888
6.055813e-11
9.258716e-05
-8.794571e-05
-0.001920081
0.001901378
8.231824e-11
0.0001066488
-8.697347e-05
-0.001877937
0.001850917
9.9475e-11
0.0001139929
-9.33942e-05
-0.001825254
0.001799658
1.01392e-10
0.0001189901
-7.894188e-05
-0.001768138
0.001735337
9.041013e-11
0.0001117431
-5.722027e-05
-0.001696
0.001653583
9.316485e-11
9.963752e-05
-6.014491e-05
-0.001613426
0.001575732
8.941203e-11
9.78386e-05
-6.009594e-05
-0.001537612
0.001499414
7.542506e-11
9.829422e-05
-5.884543e-05
-0.001459351
0.00142118
7.030539e-11
9.701575e-05
-6.275752e-05
-0.00138139
0.0013473
9.102201e-11
9.684719e-05
-6.948598e-05
-0.00130928
0.001280087
1.356757e-10
9.86785e-05
-1.432671e-05
-0.001257462
0.001219498
1.902577e-10
9.171408e-05
-1.264519e-05
-1.42737e-05
-1.250508e-05
-1.107174e-05
-0.001185158
0.001155177
2.50777e-10
7.363853e-05
-1.092082e-05
-1.090269e-05
-1.076258e-05
-9.397517e-06
-0.001126286
0.001098712
2.356967e-10
6.436195e-05
-9.076412e-06
-9.309939e-06
-9.00496e-06
-7.969811e-06
-0.001072705
0.00104837
1.482844e-10
5.576539e-05
-7.771808e-06
-7.938048e-06
-7.750701e-06
-6.945284e-06
-0.001025667
0.001004474
1.721389e-11
4.867572e-05
-6.794928e-06
-6.944225e-06
-6.797618e-06
-6.113749e-06
-0.0009846638
0.0009661884
-1.161916e-10
4.272203e-05
-6.002355e-06
-6.120921e-06
-6.009482e-06
-5.510136e-06
-0.0009488826
0.0009326928
-2.045533e-10
3.810324e-05
-5.440553e-06
-5.516542e-06
-5.445998e-06
-5.122548e-06
-0.0009174271
0.000903027
-2.384224e-10
3.482493e-05
-5.084244e-06
-5.12796e-06
-5.089798e-06
-4.888155e-06
-0.0008893062
0.0008761871
-2.252065e-10
3.265077e-05
-4.865965e-06
-4.898983e-06
-4.878383e-06
-4.719554e-06
-0.0008635114
0.0008511848
-1.828238e-10
3.120069e-05
-4.695458e-06
-4.740513e-06
-4.718369e-06
-4.533578e-06
-0.0008390886
0.0008271458
-1.269487e-10
3.006118e-05
-4.498206e-06
-4.560958e-06
-4.52556e-06
-4.302085e-06
-0.0008152941
0.0008035173
-6.825616e-11
2.894758e-05
-4.260298e-06
-4.326044e-06
-4.282312e-06
-4.052056e-06
-0.0007918187
0.0007802293
-1.702157e-11
2.774739e-05
-4.01255e-06
-4.067443e-06
-4.025947e-06
-3.812695e-06
-0.0007687887
0.0007575371
1.569227e-11
2.644588e-05
-3.776854e-06
-3.820903e-06
-3.783807e-06
-3.578811e-06
-0.0007465143
0.0007357503
2.990785e-11
2.501315e-05
-3.542325e-06
-3.582611e-06
-3.545409e-06
-3.332499e-06
-0.0007252708
0.0007150991
2.938658e-11
2.342479e-05
-3.293135e-06
-3.333628e-06
-3.293805e-06
-3.070303e-06
-0.0007052444
0.0006957282
2.207968e-11
2.171277e-05
-3.028808e-06
-3.06961e-06
-3.027799e-06
-2.801599e-06
-0.0006865414
0.0006777057
1.656051e-11
1.995575e-05
-2.760337e-06
-2.799754e-06
-2.75834e-06
-2.54184e-06
-0.0006691957
0.0006610336
1.766533e-11
1.824806e-05
-2.503493e-06
-2.539519e-06
-2.501148e-06
-2.304139e-06
-0.0006531809
0.0006456602
2.518774e-11
1.666427e-05
-2.269984e-06
-2.301814e-06
-2.267694e-06
-2.092705e-06
-0.0006384232
0.000631495
3.417044e-11
1.523411e-05
-2.06229e-06
-2.090601e-06
-2.060252e-06
-1.904013e-06
-0.0006248206
0.000618431
3.807568e-11
1.394688e-05
-1.876405e-06
-1.902226e-06
-1.874691e-06
-1.731644e-06
-0.0006122709
0.0006063848
3.227838e-11
1.275762e-05
-1.705606e-06
-1.730169e-06
-1.704199e-06
-1.567907e-06
-0.0006007065
0.0005953123
1.656495e-11
1.161174e-05
-1.54203e-06
-1.566706e-06
-1.540893e-06
-1.407919e-06
-0.0005901173
0.0005852089
-2.251143e-12
1.048917e-05
-1.383421e-06
-1.406938e-06
-1.382492e-06
-1.259346e-06
0.0005760863
-1.973357e-11
9.406739e-06
-1.237345e-06
-1.258543e-06
-1.236589e-06
-0.0005805011
-1.128676e-06
-0.0005718758
0.0005679591
-3.00306e-11
8.39452e-06
-1.110791e-06
-1.128053e-06
-1.110216e-06
-1.026192e-06
-0.0005642391
0.0005607955
-3.270618e-11
7.52212e-06
-1.013544e-06
-1.025694e-06
-1.013063e-06
-9.531913e-07
-0.0005575259
0.0005545074
-2.999641e-11
6.811677e-06
-9.438769e-07
-9.527222e-07
-9.434192e-07
-8.938225e-07
-0.0005516382
0.0005489933
-2.448732e-11
6.201723e-06
-8.849574e-07
-8.934008e-07
-8.845513e-07
-8.381823e-07
-0.0005464741
0.0005441535
-1.838538e-11
5.65527e-06
-8.295377e-07
-8.378149e-07
-8.29184e-07
-7.855921e-07
-0.0005419425
0.0005399111
-1.283207e-11
5.156883e-06
-7.774749e-07
-7.852785e-07
-7.771716e-07
-7.367176e-07
-0.0005379785
0.0005362113
-8.331932e-12
4.698526e-06
-7.29222e-07
-7.364547e-07
-7.289663e-07
-6.913238e-07
-0.0005345354
0.0005330137
-5.015404e-12
4.272745e-06
-6.844011e-07
-6.911115e-07
-6.841972e-07
-6.490078e-07
-0.000531577
0.0005302841
-2.788144e-12
3.875646e-06
-6.42541e-07
-6.488355e-07
-6.423757e-07
-6.091009e-07
-0.00052907
0.0005279894
-1.287462e-12
3.504303e-06
-6.028848e-07
-6.089725e-07
-6.027604e-07
-5.703452e-07
-0.0005269816
0.0005260992
-3.931925e-13
3.151012e-06
-5.640562e-07
-5.702549e-07
-5.639736e-07
-5.304557e-07
-0.000525285
0.0005245946
1.015132e-12
2.800573e-06
-5.246838e-07
-5.304115e-07
-5.246522e-07
-4.897396e-07
-0.0005239754
0.0005234794
1.32416e-12
2.441073e-06
-4.82754e-07
-4.89762e-07
-4.82767e-07
-4.46412e-07
-0.0005230519
0.0005227467
1.121811e-12
2.079631e-06
-4.407493e-07
-4.464583e-07
-4.407937e-07
-4.051741e-07
-0.000522509
0.0005223868
1.389378e-12
1.730893e-06
-3.991045e-07
-4.052439e-07
-3.991577e-07
-3.668097e-07
-0.0005223295
0.0005223816
1.629978e-12
1.404164e-06
-3.612383e-07
-3.668935e-07
-3.613331e-07
-3.314797e-07
-0.0005224934
0.0005227073
1.848349e-12
1.102521e-06
-3.265172e-07
-3.316752e-07
-3.267103e-07
-2.998659e-07
-0.0005229745
0.000523336
2.034031e-12
8.299573e-07
-2.956051e-07
-3.001234e-07
-2.958244e-07
-2.722774e-07
-0.0005237454
0.000524243
2.14393e-12
5.846062e-07
-2.686129e-07
-2.724919e-07
-2.688084e-07
-2.489929e-07
-0.000524785
0.0005254034
2.121483e-12
3.727561e-07
-2.46358e-07
-2.492141e-07
-2.465631e-07
-2.295158e-07
-0.0005260658
0.0005268004
2.169345e-12
1.789236e-07
-2.270612e-07
-2.297404e-07
-2.272676e-07
-2.083789e-07
-0.0005275791
0.0005284255
2.33717e-12
-1.924113e-08
-2.049754e-07
-2.08619e-07
-2.051873e-07
-1.739594e-07
-0.0005293033
0.0005302215
2.569472e-12
-2.471578e-07
-1.612563e-07
-1.742683e-07
-1.614946e-07
-9.921081e-08
-0.0005311037
0.0005319464
2.747524e-12
-6.407136e-07
-9.319285e-10
-9.960864e-08
-2.3095e-09
-1.142154e-07
-0.0005329288
0.0005338837
2.803048e-12
-4.41127e-07
-1.442345e-07
-1.135549e-07
-1.417326e-07
-1.686004e-07
-0.0005349591
0.00053608
2.80377e-12
-4.476234e-07
-1.695407e-07
-1.66971e-07
-1.682004e-07
-1.771607e-07
-0.0005372074
0.0005383604
2.798978e-12
-4.452469e-07
-1.776142e-07
-1.761288e-07
-1.768551e-07
-1.855469e-07
-0.0005395332
0.0005407285
2.792482e-12
-4.563718e-07
-1.846717e-07
-1.847943e-07
-1.839922e-07
-1.890035e-07
-0.0005419343
0.0005431622
2.731688e-12
-4.741955e-07
-1.883946e-07
-1.884278e-07
-1.878706e-07
-1.929913e-07
-0.0005444
0.0005456538
2.658315e-12
-4.825816e-07
-1.930237e-07
-1.925618e-07
-1.926343e-07
-1.981699e-07
-0.0005469163
0.0005481915
2.589765e-12
-4.822373e-07
-1.986418e-07
-1.978653e-07
-1.98353e-07
-2.040699e-07
-0.0005494743
0.0005507682
2.503048e-12
-4.76692e-07
-2.04766e-07
-2.038324e-07
-2.04536e-07
-2.101867e-07
-0.0005520692
0.0005533811
2.419019e-12
-4.6993e-07
-2.110268e-07
-2.099914e-07
-2.108216e-07
-2.162269e-07
-0.0005547005
0.0005560316
2.35481e-12
-4.647749e-07
-2.170578e-07
-2.160678e-07
-2.169365e-07
-2.220661e-07
-0.0005573707
0.0005587225
2.318028e-12
-4.617203e-07
-2.230057e-07
-2.219937e-07
-2.229609e-07
-2.280151e-07
-0.0005600827
0.0005614553
2.314384e-12
-4.586763e-07
-2.289627e-07
-2.279979e-07
-2.289256e-07
-2.344219e-07
-0.0005628362
0.0005642286
2.3543e-12
-4.526336e-07
-2.354613e-07
-2.343882e-07
-2.354304e-07
-2.414591e-07
-0.0005656286
0.0005670386
2.383792e-12
-4.4204e-07
-2.425902e-07
-2.414224e-07
-2.425554e-07
-2.490986e-07
-0.0005684555
0.000569881
2.300775e-12
-4.267262e-07
-2.503085e-07
-2.490638e-07
-2.502742e-07
-2.572675e-07
-0.0005713124
0.0005727512
2.339217e-12
-4.072059e-07
-2.585203e-07
-2.572521e-07
-2.585179e-07
-2.658311e-07
-0.0005741952
0.0005756455
2.666352e-12
-3.843554e-07
-2.67137e-07
-2.658242e-07
-2.671262e-07
-2.746832e-07
-0.0005771005
0.0005785608
2.537345e-12
-3.588543e-07
-2.760327e-07
-2.746808e-07
-2.760171e-07
-2.838226e-07
-0.0005800253
0.0005814942
2.323124e-12
-3.308756e-07
-2.85196e-07
-2.838256e-07
-2.85198e-07
-2.932118e-07
-0.0005829669
0.0005844429
2.884488e-12
-3.003425e-07
-2.946182e-07
-2.932198e-07
-2.946216e-07
-3.028947e-07
-0.0005859222
0.0005874035
2.669455e-12
-2.668782e-07
-3.043268e-07
-3.028929e-07
-3.04331e-07
-3.129571e-07
-0.0005888874
0.000590372
2.693956e-12
-2.298293e-07
-3.144294e-07
-3.129548e-07
-3.144393e-07
-3.233862e-07
-0.0005918584
0.0005933438
2.416996e-12
-1.887472e-07
-3.249211e-07
-3.234067e-07
-3.249323e-07
-3.342793e-07
-0.0005948302
0.000596314
2.764185e-12
-1.434543e-07
-3.358651e-07
-3.342882e-07
-3.358573e-07
-3.456017e-07
-0.000597798
0.0005992774
3.024702e-12
-9.37372e-08
-3.473031e-07
-3.455797e-07
-3.472412e-07
-3.577329e-07
0.0006022265
2.817501e-12
-3.657447e-08
-0.0006007556
-3.594334e-07
-3.576833e-07
-3.594372e-07
-3.698286e-07
-0.0006036891
0.0006051497
3.268975e-12
2.190695e-08
-3.713959e-07
-3.698422e-07
-3.714462e-07
-3.819081e-07
-0.0006066057
0.0006080528
2.96629e-12
8.363878e-08
-3.833776e-07
-3.819877e-07
-3.834242e-07
-3.947057e-07
-0.0006094935
0.0006109232
3.065936e-12
1.522125e-07
-3.962358e-07
-3.947211e-07
-3.962528e-07
-4.079175e-07
-0.0006123454
0.000613755
4.650642e-12
2.252192e-07
-4.094931e-07
-4.079148e-07
-4.094965e-07
-4.214541e-07
-0.0006151563
0.0006165434
3.775698e-12
3.019257e-07
-4.230666e-07
-4.214351e-07
-4.230426e-07
-4.352823e-07
-0.0006179214
0.0006192837
2.359775e-12
3.820083e-07
-4.368757e-07
-4.352689e-07
-4.368781e-07
-4.492117e-07
-0.0006206362
0.0006219715
3.042094e-12
4.64668e-07
-4.508179e-07
-4.492137e-07
-4.508081e-07
-4.631911e-07
-0.0006232964
0.0006246031
4.525427e-12
5.492803e-07
-4.648036e-07
-4.631802e-07
-4.647756e-07
-4.771878e-07
-0.0006258987
0.0006271754
2.681632e-12
6.35178e-07
-4.787613e-07
-4.771772e-07
-4.787537e-07
-4.909779e-07
-0.0006284407
0.0006296863
-1.135213e-12
7.213696e-07
-4.925107e-07
-4.909504e-07
-4.92504e-07
-5.045912e-07
-0.0006309202
0.0006321339
5.797164e-13
8.076388e-07
-5.060865e-07
-5.045673e-07
-5.060749e-07
-5.179249e-07
-0.0006333358
0.0006345176
4.851696e-12
8.927424e-07
-5.193702e-07
-5.17925e-07
-5.193107e-07
-5.306984e-07
-0.0006356876
0.0006368382
3.599461e-12
9.753076e-07
-5.32208e-07
-5.307469e-07
-5.321974e-07
-5.399422e-07
-0.0006379714
0.0006390816
2.764451e-12
1.058015e-06
-5.439108e-07
-5.401682e-07
-5.441728e-07
-5.54132e-07
-0.0006401819
0.0006412711
-3.226553e-12
1.129471e-06
-5.560185e-07
-5.533925e-07
-5.551319e-07
-5.684852e-07
-0.0006423516
0.0006434101
7.497263e-12
1.214923e-06
-5.683315e-07
-5.683722e-07
-5.682366e-07
-5.788371e-07
-0.0006444552
0.0006454808
6.254649e-12
1.290686e-06
-5.793341e-07
-5.787919e-07
-5.793888e-07
-5.888313e-07
-0.000646493
0.0006474889
4.941624e-12
1.361502e-06
-5.898866e-07
-5.888592e-07
-5.898421e-07
-5.978758e-07
-0.0006484723
0.000649443
4.914688e-12
1.423634e-06
-5.993418e-07
-5.977727e-07
-5.993902e-07
-6.054136e-07
-0.0006503979
0.0006513489
3.584398e-13
1.475167e-06
-6.078467e-07
-6.055803e-07
-6.0736e-07
-6.103415e-07
-0.000652285
0.0006532293
-2.935377e-12
1.501915e-06
-6.126348e-07
-6.096576e-07
-6.135431e-07
-6.094597e-07
-0.0006541504
0.0006551227
2.074289e-12
1.478215e-06
-6.170025e-07
-6.114666e-07
-6.126146e-07
-5.976696e-07
-0.000656081
0.0006571122
9.781096e-14
1.334834e-06
-5.89936e-07
-5.865778e-07
-5.918305e-07
-4.119323e-07
-0.0006578586
0.0006581557
-6.158054e-12
1.073179e-06
-2.780428e-07
-3.922507e-07
-2.880252e-07
-3.604115e-09
-0.0001634015
0.0001629615
-3.915346e-09
4.47446e-07
-4.474136e-07
-0.0001621032
0.0001619694
2.641956e-09
5.785652e-07
-5.238462e-07
-0.0001617968
0.0001617958
2.525847e-10
5.245939e-07
-5.86616e-07
-0.0001618905
0.00016195
-1.232359e-11
5.271046e-07
-6.198153e-07
-0.0001621686
0.000162248
2.025748e-10
5.402736e-07
-6.443292e-07
-0.0001624963
0.0001625806
1.22045e-10
5.599086e-07
-6.623736e-07
-0.0001628356
0.0001629199
4.613303e-11
5.779613e-07
-6.755002e-07
-0.0001631699
0.0001632517
1.452051e-10
5.935835e-07
-6.868441e-07
-0.000163493
0.0001635717
1.638217e-10
6.079275e-07
-6.965696e-07
-0.0001638035
0.0001638789
3.800284e-10
6.208463e-07
-7.058394e-07
-0.0001641002
0.0001641723
6.367889e-10
6.331137e-07
-7.146966e-07
-0.0001643841
0.000164453
8.527533e-10
6.449333e-07
-7.224145e-07
-0.0001646559
0.0001647221
7.322836e-10
6.554738e-07
-7.283856e-07
-0.0001649177
0.0001649818
2.020328e-10
6.641335e-07
-7.328771e-07
-0.0001651713
0.0001652334
-3.778814e-10
6.71159e-07
-7.367504e-07
-0.000165417
0.0001654771
-7.910298e-10
6.774798e-07
-7.406579e-07
-0.0001656543
0.0001657122
-8.98655e-10
6.837013e-07
-7.466558e-07
-0.0001658825
0.000165939
-4.176674e-10
6.905184e-07
-7.486594e-07
-0.0001661064
0.0001661614
-1.107638e-10
6.938031e-07
-7.485636e-07
-0.0001663182
0.0001663688
-1.52915e-10
6.980759e-07
-7.530441e-07
-0.0001665206
0.0001665704
-1.063296e-10
7.033565e-07
-7.561354e-07
-0.0001667181
0.0001667667
-6.310346e-11
7.075772e-07
-7.58675e-07
-0.0001669109
0.0001669585
-4.395372e-11
7.111758e-07
-7.608258e-07
-0.0001670998
0.0001671465
-3.752889e-11
7.141161e-07
-7.62524e-07
-0.0001672856
0.0001673319
-2.791575e-11
7.162982e-07
-7.638446e-07
-0.0001674701
0.0001675162
-2.152332e-11
7.17765e-07
-7.645465e-07
-0.0001676544
0.0001677009
-2.848096e-11
7.181086e-07
-7.648019e-07
-0.000167841
0.0001678886
-2.880094e-11
7.172655e-07
-7.636392e-07
-0.0001680326
0.0001680816
-1.623009e-11
7.146448e-07
-7.624512e-07
-0.0001682327
0.0001682853
-1.811081e-11
7.099155e-07
-7.589688e-07
-0.0001684473
0.0001685049
-2.013362e-11
7.013632e-07
-7.494368e-07
-0.0001686867
0.0001687506
-2.102988e-11
6.855974e-07
-7.415924e-07
-0.0001689537
0.0001690337
3.96814e-11
6.61485e-07
-7.157973e-07
-0.0001693029
0.000169413
-1.881018e-11
6.057214e-07
-6.419358e-07
-0.0001698026
0.0001699878
-2.080268e-11
4.568509e-07
2.178236e-07
-0.0001706106
0.0001705614
-5.520023e-12
-1.685707e-07
7.106487e-07
-0.0001704751
0.0001704899
-3.483242e-14
-7.254505e-07
7.78983e-07
-0.0001705674
0.0001706071
-2.660707e-11
-8.186479e-07
8.146914e-07
-0.0001707577
0.0001708169
5.660296e-12
-8.738806e-07
8.40863e-07
-0.0001710111
0.0001710807
1.15868e-11
-9.105517e-07
8.597585e-07
-0.0001713011
0.0001713787
1.19333e-11
-9.373767e-07
8.757944e-07
-0.0001716206
0.0001717043
1.288356e-11
-9.59599e-07
8.889758e-07
-0.0001719632
0.0001720521
1.887737e-11
-9.779637e-07
9.002986e-07
-0.0001723256
0.0001724193
2.105233e-11
-9.939367e-07
9.103094e-07
-0.0001727062
0.0001728041
1.708537e-11
-1.008255e-06
9.191476e-07
-0.0001731034
0.0001732053
1.097524e-11
-1.021104e-06
9.273957e-07
-0.0001735162
0.0001736218
1.332747e-11
-1.033067e-06
9.351698e-07
-0.0001739435
0.0001740526
1.547386e-11
-1.044329e-06
9.426027e-07
-0.0001743843
0.0001744967
1.713163e-11
-1.054997e-06
9.497589e-07
-0.0001748377
0.0001749531
1.809878e-11
-1.065198e-06
9.567194e-07
-0.0001753029
0.0001754212
1.765535e-11
-1.075022e-06
9.63537e-07
-0.0001757792
0.0001759002
2.115414e-11
-1.084529e-06
9.702389e-07
-0.0001762659
0.0001763894
2.024692e-11
-1.09374e-06
9.768079e-07
-0.0001767623
0.0001768882
2.128272e-11
-1.102662e-06
9.832835e-07
-0.0001772678
0.0001773958
2.425343e-11
-1.111322e-06
9.896556e-07
-0.0001777816
0.0001779117
2.547955e-11
-1.119718e-06
9.959054e-07
-0.0001783032
0.0001784351
2.693292e-11
-1.127838e-06
1.002015e-06
-0.0001788318
0.0001789654
3.193834e-11
-1.135655e-06
1.007974e-06
-0.0001793668
0.0001795019
3.747022e-11
-1.143147e-06
1.013807e-06
-0.0001799073
0.0001800438
3.889668e-11
-1.150305e-06
1.019407e-06
-0.0001804526
0.0001805903
2.987545e-11
-1.157063e-06
1.024684e-06
-0.0001810021
0.0001811407
2.415719e-11
-1.163309e-06
1.029671e-06
-0.0001815547
0.0001816941
2.370795e-11
-1.169048e-06
1.034387e-06
-0.0001821097
0.0001822496
2.140753e-11
-1.174287e-06
1.038758e-06
-0.0001826659
0.0001828061
2.08509e-11
-1.178943e-06
1.042769e-06
-0.0001832225
0.0001833627
1.708302e-11
-1.183e-06
1.046935e-06
-0.0001837781
0.000183918
1.667742e-11
-1.186843e-06
1.053904e-06
-0.0001843286
0.0001844654
2.13916e-11
-1.190733e-06
1.045238e-06
-0.0001848721
0.0001850187
4.700991e-11
-1.191944e-06
1.088514e-06
-0.000185478
0.000185583
1.377964e-10
-1.193642e-06
1.208902e-06
-0.0001845309
0.0007565839
6.882438e-12
-5.343864e-06
2.725531e-08
1.211853e-06
1.481784e-08
-0.0001845341
-0.0001923182
-0.0001923197
6.259181e-07
-0.0007603688
0.000761963
4.593305e-12
-4.695845e-06
9.379088e-07
6.126661e-07
9.252112e-07
8.081335e-07
-0.000763159
0.0007644459
1.511846e-12
-4.613335e-06
8.656611e-07
7.972203e-07
8.553752e-07
8.550482e-07
-0.0007659816
0.0007674202
2.525983e-12
-4.931411e-06
9.007871e-07
8.455099e-07
8.914914e-07
9.08919e-07
-0.000768791
0.0007700203
2.151017e-12
-4.914075e-06
9.421077e-07
9.001931e-07
9.335811e-07
9.360905e-07
-0.0007712185
0.0007723764
6.348554e-13
-4.920727e-06
9.535557e-07
9.278261e-07
9.454362e-07
9.534989e-07
-0.0007735417
0.0007746763
2.206573e-12
-4.955185e-06
9.644788e-07
9.456505e-07
9.569382e-07
9.670077e-07
-0.0007758129
0.0007769193
4.459668e-13
-4.984451e-06
9.790021e-07
9.597217e-07
9.724086e-07
9.871572e-07
-0.0007780231
0.0007790903
-1.704741e-12
-5.014221e-06
9.924134e-07
9.814298e-07
9.860297e-07
9.991479e-07
-0.0007801575
0.0007812015
-6.31207e-14
-5.038009e-06
1.003433e-06
9.935492e-07
9.979518e-07
1.008771e-06
-0.0007822371
0.0007832489
3.513809e-12
-5.043603e-06
1.011795e-06
1.003979e-06
1.007223e-06
1.017843e-06
-0.0007842476
0.0007852245
4.325912e-12
-5.043502e-06
1.019628e-06
1.013597e-06
1.015527e-06
1.025088e-06
-0.0007861876
0.0007871297
1.877801e-12
-5.037477e-06
1.026249e-06
1.021353e-06
1.022611e-06
1.03043e-06
-0.0007880586
0.0007889664
-4.582276e-13
-5.024473e-06
1.031068e-06
1.027175e-06
1.027964e-06
1.033921e-06
-0.000789862
0.0007907373
8.161668e-13
-5.005694e-06
1.034209e-06
1.031169e-06
1.03115e-06
1.034608e-06
-0.0007916012
0.0007924469
1.63455e-12
-4.981028e-06
1.035525e-06
1.032132e-06
1.033135e-06
1.034547e-06
-0.0007932815
0.0007940982
1.80236e-12
-4.951083e-06
1.034836e-06
1.032361e-06
1.032673e-06
1.033217e-06
-0.0007949038
0.0007956918
2.203606e-12
-4.917123e-06
1.033338e-06
1.031225e-06
1.031395e-06
1.030969e-06
-0.0007964687
0.0007972278
3.066705e-12
-4.879601e-06
1.031047e-06
1.029196e-06
1.029312e-06
1.028049e-06
-0.0007979759
0.0007987061
1.837595e-12
-4.839212e-06
1.028053e-06
1.026458e-06
1.02649e-06
1.02457e-06
-0.0007994252
0.0008001261
1.209579e-12
-4.796157e-06
1.024507e-06
1.023115e-06
1.023069e-06
1.020551e-06
-0.0008008158
0.0008014871
2.208351e-13
-4.7506e-06
1.020432e-06
1.019238e-06
1.019146e-06
1.016137e-06
-0.000802147
0.0008027881
6.524829e-13
-4.703028e-06
1.015972e-06
1.014973e-06
1.01484e-06
1.011432e-06
-0.0008034178
0.0008040282
1.859408e-12
-4.65373e-06
1.011236e-06
1.010378e-06
1.010232e-06
1.006475e-06
-0.0008046271
0.0008052066
3.507873e-12
-4.602828e-06
1.006224e-06
1.005471e-06
1.005206e-06
1.001185e-06
-0.0008057744
0.0008063225
3.624351e-12
-4.550408e-06
1.000939e-06
1.000218e-06
9.999489e-07
9.957757e-07
-0.0008068588
0.0008073753
8.106099e-13
-4.497143e-06
9.954624e-07
9.948778e-07
9.945973e-07
9.902502e-07
-0.0008078799
0.0008083643
8.494614e-13
-4.443272e-06
9.899391e-07
9.894642e-07
9.891755e-07
9.847226e-07
-0.0008088368
0.000809289
3.334247e-12
-4.389038e-06
9.844015e-07
9.840081e-07
9.836987e-07
9.791465e-07
-0.0008097292
0.0008101491
3.563734e-12
-4.334501e-06
9.788162e-07
9.784814e-07
9.781573e-07
9.735764e-07
-0.000810557
0.0008109446
5.283663e-13
-4.279937e-06
9.73238e-07
9.729537e-07
9.72623e-07
9.68062e-07
-0.0008113202
0.0008116755
9.364391e-13
-4.22576e-06
9.67735e-07
9.674917e-07
9.671777e-07
9.626389e-07
-0.0008120189
0.0008123421
3.640858e-12
-4.172093e-06
9.623195e-07
9.62112e-07
9.617968e-07
9.572828e-07
-0.0008126536
0.0008129451
1.79785e-12
-4.119012e-06
9.569774e-07
9.567823e-07
9.564806e-07
9.52123e-07
-0.0008132251
0.0008134852
-1.623104e-12
-4.06716e-06
9.51868e-07
9.516648e-07
9.514223e-07
9.471956e-07
-0.0008137339
0.000813963
-1.727498e-12
-4.016519e-06
9.469744e-07
9.467781e-07
9.465639e-07
9.423058e-07
-0.0008141809
0.0008143794
4.038189e-13
-3.966436e-06
9.420986e-07
9.41904e-07
9.416925e-07
9.373706e-07
-0.0008145672
0.0008147355
-9.320504e-14
-3.916673e-06
9.371889e-07
9.369965e-07
9.368257e-07
9.324394e-07
-0.0008148934
0.0008150317
-8.036807e-13
-3.867142e-06
9.323121e-07
9.321229e-07
9.320126e-07
9.274837e-07
-0.0008151599
0.0008152679
-9.235465e-14
-3.817217e-06
9.274352e-07
9.271814e-07
9.271704e-07
9.221268e-07
-0.0008153662
0.0008154432
-1.290766e-13
-3.764838e-06
9.220894e-07
9.218181e-07
9.217718e-07
9.155848e-07
-0.0008155107
0.0008155541
-5.751411e-13
-3.705008e-06
9.155618e-07
9.152418e-07
9.151912e-07
9.062213e-07
-0.0008155857
0.000815588
1.548411e-12
-3.626624e-06
9.062955e-07
9.059205e-07
9.059653e-07
8.90202e-07
-0.0008155729
0.0008155237
5.636194e-12
-3.505684e-06
8.875113e-07
8.898537e-07
8.872535e-07
8.462522e-07
-0.0008154636
0.0008153843
5.747025e-12
-3.298969e-06
8.431379e-07
8.459475e-07
8.428962e-07
7.331651e-07
-0.0008153444
0.00081545
5.152915e-12
-2.946279e-06
6.875377e-07
7.328764e-07
6.870783e-07
6.115374e-07
-0.0008155961
0.0008157138
4.133923e-12
-2.556535e-06
6.07856e-07
6.117684e-07
6.076548e-07
5.918966e-07
-0.0008158125
0.000815886
3.78657e-12
-2.448205e-06
5.955278e-07
5.917998e-07
5.954463e-07
5.878493e-07
-0.0008159475
0.0008160006
3.618667e-12
-2.404443e-06
5.879975e-07
5.876586e-07
5.87847e-07
5.798514e-07
-0.0008160493
0.0008160846
3.953857e-12
-2.356859e-06
5.810903e-07
5.796861e-07
5.80931e-07
5.750219e-07
-0.0008161103
0.0008161235
3.351794e-12
-2.317479e-06
5.773028e-07
5.748206e-07
5.771181e-07
5.652919e-07
-0.0008161304
0.0008161293
6.885703e-12
-2.262327e-06
5.666994e-07
5.649896e-07
5.663872e-07
5.365125e-07
-0.0008161322
0.0008162112
1.020583e-11
-2.200103e-06
5.246329e-07
5.35941e-07
5.240269e-07
3.392525e-07
-0.0008167472
0.0008178015
6.373164e-12
-2.612683e-06
4.403366e-07
3.380932e-07
4.406445e-07
6.800937e-07
-0.0008181197
0.0008170356
5.232115e-12
-1.381936e-06
5.483451e-07
6.848455e-07
5.527473e-07
5.327256e-07
-0.0008165164
0.0008166122
4.054621e-12
-2.106916e-06
4.667748e-07
5.390374e-07
4.726076e-07
5.127518e-07
-0.0008165895
0.0008166386
3.607657e-12
-2.038105e-06
4.767552e-07
5.179847e-07
4.815887e-07
4.930543e-07
-0.0008166628
0.0008168132
4.006622e-12
-2.084408e-06
4.697153e-07
4.974254e-07
4.738311e-07
4.987572e-07
-0.0008169853
0.0008172037
4.785097e-12
-2.200009e-06
4.884019e-07
5.025105e-07
4.919846e-07
5.175831e-07
-0.0008174103
0.0008176312
3.816058e-12
-2.289774e-06
5.13427e-07
5.211101e-07
5.166986e-07
5.34627e-07
-0.000817846
0.0008180826
2.117257e-12
-2.377483e-06
5.329647e-07
5.375412e-07
5.357582e-07
5.517662e-07
-0.0008183171
0.0008185702
2.973068e-12
-2.466134e-06
5.522881e-07
5.543e-07
5.547239e-07
5.696694e-07
-0.0008188231
0.0008190935
4.114282e-12
-2.556914e-06
5.713791e-07
5.719003e-07
5.735371e-07
5.868644e-07
-0.0008193656
0.0008196561
3.275364e-12
-2.646573e-06
5.89166e-07
5.888685e-07
5.910984e-07
6.030096e-07
-0.0008199493
0.0008202605
2.762135e-12
-2.730925e-06
6.050494e-07
6.047975e-07
6.068605e-07
6.177099e-07
-0.0008205766
0.0008209098
3.390095e-12
-2.813077e-06
6.20625e-07
6.193554e-07
6.221752e-07