/*--------------------------------*- C++ -*----------------------------------*\
| =========                 |                                                 |
| \\      /  F ield         | foam-extend: Open Source CFD                    |
|  \\    /   O peration     | Version:     3.1                                |
|   \\  /    A nd           | Web:         http://www.extend-project.de       |
|    \\/     M anipulation  |                                                 |
\*---------------------------------------------------------------------------*/
FoamFile
{
    version     2.0;
    format      ascii;
    class       volScalarField;
    location    "2";
    object      H;
}
// * * * * * * * * * * * * * * * * * * * * * * * * * * * * * * * * * * * * * //

dimensions      [0 1 0 0 0 0 0];

internalField   nonuniform List<scalar> 
2539
(
1.34006
1.33926
1.33814
1.33712
1.33607
1.33502
1.33398
1.33293
1.33189
1.33084
1.32979
1.32875
1.3277
1.32665
1.3256
1.32456
1.32351
1.32246
1.32141
1.32036
1.31931
1.31826
1.31721
1.31615
1.3151
1.31405
1.313
1.31194
1.31089
1.30984
1.30878
1.30773
1.30667
1.30561
1.30456
1.3035
1.30244
1.30138
1.30032
1.29926
1.2982
1.29714
1.29608
1.29502
1.29396
1.29289
1.29183
1.29076
1.2897
1.28863
1.28756
1.2865
1.28543
1.28436
1.28329
1.28222
1.28115
1.28008
1.27901
1.27794
1.27686
1.27579
1.27472
1.27364
1.27257
1.2715
1.27042
1.26935
1.26827
1.26719
1.26612
1.26504
1.26397
1.26289
1.26182
1.26074
1.25967
1.25859
1.25751
1.25644
1.25536
1.25429
1.25321
1.25214
1.25106
1.24999
1.24891
1.24784
1.24677
1.24569
1.24462
1.24354
1.24246
1.24139
1.24031
1.23924
1.23816
1.23708
1.236
1.23492
1.23384
1.23276
1.23168
1.2306
1.22952
1.22844
1.22735
1.22627
1.22518
1.2241
1.22301
1.22192
1.22083
1.21974
1.21865
1.21756
1.21646
1.21537
1.21428
1.21318
1.21209
1.21099
1.20989
1.20879
1.2077
1.2066
1.2055
1.2044
1.2033
1.20219
1.20109
1.19999
1.19889
1.19779
1.19668
1.19558
1.19448
1.19337
1.19227
1.19116
1.19006
1.18895
1.18785
1.18674
1.18564
1.18453
1.18343
1.18232
1.18121
1.18011
1.179
1.1779
1.17679
1.17568
1.17458
1.17347
1.17237
1.17126
1.17015
1.16905
1.16794
1.16683
1.16573
1.16462
1.16351
1.16241
1.1613
1.16019
1.15909
1.15798
1.15687
1.15576
1.15466
1.15355
1.15244
1.15133
1.15022
1.14911
1.14801
1.1469
1.14579
1.14468
1.14357
1.14246
1.14101
1.13932
1.1383
1.13786
1.13741
1.13696
1.13651
1.13606
1.13562
1.13517
1.13472
1.13428
1.13383
1.13338
1.13293
1.13249
1.13204
1.1316
1.13115
1.1307
1.13026
1.12981
1.12936
1.12892
1.12847
1.12803
1.12758
1.12713
1.12669
1.12624
1.1258
1.12535
1.1249
1.12446
1.12401
1.12356
1.12312
1.12267
1.12222
1.12178
1.12133
1.12088
1.12044
1.11999
1.11954
1.1191
1.11865
1.1182
1.11775
1.11731
1.11686
1.11641
1.11596
1.11552
1.11507
1.11462
1.11417
1.11372
1.11327
1.11283
1.11238
1.11193
1.11148
1.11103
1.11058
1.11013
1.10968
1.10923
1.10878
1.10833
1.10788
1.10743
1.10698
1.10653
1.10608
1.10563
1.10518
1.10473
1.10428
1.10383
1.10338
1.10293
1.10247
1.10202
1.10157
1.10111
1.10066
1.10021
1.09975
1.0993
1.09884
1.09838
1.09793
1.09747
1.09701
1.09655
1.09609
1.09563
1.09517
1.0947
1.09424
1.09377
1.0933
1.09283
1.09236
1.09188
1.0914
1.09092
1.09044
1.08995
1.08946
1.08897
1.08847
1.08797
1.08746
1.08695
1.08644
1.08591
1.08538
1.08485
1.0843
1.08375
1.08319
1.08262
1.08204
1.08145
1.08085
1.08023
1.07961
1.07897
1.07831
1.07764
1.07696
1.07625
1.07553
1.07479
1.07403
1.07324
1.07244
1.07161
1.07076
1.06988
1.06897
1.06804
1.06707
1.06608
1.06506
1.064
1.06291
1.06179
1.06063
1.05944
1.05821
1.05695
1.05565
1.05431
1.05294
1.05152
1.05008
1.04859
1.04707
1.04552
1.04393
1.0423
1.04065
1.03897
1.03725
1.03551
1.03375
1.03196
1.03016
1.02834
1.0265
1.02465
1.02279
1.02093
1.01906
1.0172
1.01534
1.01348
1.01163
1.0098
1.00798
1.00618
1.00439
1.00263
1.00089
0.99918
0.997495
0.995839
0.994213
0.992617
0.991054
0.989523
0.988024
0.98656
0.985128
0.983731
0.982367
0.981041
0.979785
0.954143
0.930787
0.903928
0.88767
0.877288
0.86992
0.864187
0.859403
0.855211
0.851418
0.847915
0.844636
0.841536
0.838587
0.835768
0.833062
0.830457
0.827944
0.825512
0.823156
0.82087
0.818648
0.816487
0.814381
0.812328
0.810325
0.808368
0.806456
0.804586
0.802756
0.800964
0.799209
0.79749
0.795804
0.79415
0.792528
0.790936
0.789373
0.787838
0.786331
0.78485
0.783395
0.781965
0.78056
0.779178
0.777819
0.776483
0.775169
0.773877
0.772606
0.771356
0.770126
0.768917
0.767727
0.766556
0.765404
0.764271
0.763156
0.76206
0.760981
0.75992
0.758876
0.75785
0.756841
0.755849
0.754873
0.753914
0.752971
0.752045
0.751134
0.75024
0.749361
0.748499
0.747652
0.74682
0.746004
0.745204
0.744419
0.743649
0.742895
0.742155
0.741431
0.740722
0.740028
0.73935
0.738686
0.738037
0.737404
0.736786
0.736182
0.735594
0.735021
0.734464
0.733921
0.733394
0.732884
0.732391
0.731917
0.731467
0.731051
0.730158
0.730037
0.73008
0.730196
0.730346
0.730514
0.73069
0.730872
0.731058
0.731248
0.73144
0.731635
0.731832
0.732032
0.732234
0.732438
0.732644
0.732852
0.733062
0.733274
0.733487
0.733703
0.73392
0.734139
0.734359
0.734581
0.734805
0.735031
0.735258
0.735487
0.735718
0.73595
0.736185
0.73642
0.736658
0.736898
0.737139
0.737382
0.737627
0.737874
0.738122
0.738373
0.738626
0.73888
0.739137
0.739396
0.739656
0.739919
0.740184
0.740451
0.740721
0.740992
0.741266
0.741542
0.741821
0.742102
0.742385
0.742671
0.742959
0.74325
0.743543
0.743839
0.744138
0.744439
0.744743
0.74505
0.745359
0.745672
0.745987
0.746305
0.746626
0.746951
0.747278
0.747609
0.747942
0.748279
0.748619
0.748963
0.74931
0.74966
0.750014
0.750371
0.750732
0.751096
0.751464
0.751835
0.752211
0.75259
0.752973
0.753359
0.75375
0.754144
0.754543
0.754945
0.755352
0.755762
0.756176
0.756595
0.757015
0.757426
0.757743
0.757868
0.757834
0.757725
0.757582
0.757423
0.757256
0.757086
0.756913
0.75674
0.756566
0.756391
0.756216
0.75604
0.755863
0.755686
0.755508
0.75533
0.755151
0.754971
0.75479
0.754609
0.754426
0.754243
0.754059
0.753874
0.753688
0.7535
0.753312
0.753122
0.752931
0.752739
0.752545
0.75235
0.752154
0.751956
0.751756
0.751555
0.751352
0.751147
0.75094
0.750731
0.75052
0.750308
0.750093
0.749876
0.749657
0.749435
0.749211
0.748985
0.748756
0.748524
0.74829
0.748053
0.747814
0.747571
0.747326
0.747078
0.746827
0.746573
0.746315
0.746055
0.745792
0.745525
0.745255
0.744982
0.744706
0.744426
0.744143
0.743856
0.743567
0.743273
0.742977
0.742677
0.742373
0.742066
0.741756
0.741442
0.741125
0.740805
0.740481
0.740154
0.739823
0.739489
0.739152
0.738811
0.738467
0.738121
0.73777
0.737417
0.737061
0.736702
0.73634
0.735974
0.735607
0.735236
0.734862
0.734486
0.734107
0.733726
0.733342
0.732955
0.732567
0.732176
0.731782
0.731387
0.730989
0.730589
0.730188
0.729784
0.729379
0.728971
0.728562
0.728152
0.727739
0.727325
0.72691
0.726493
0.726075
0.725655
0.725235
0.724813
0.724389
0.723965
0.72354
0.723113
0.722686
0.722258
0.721828
0.721398
0.720967
0.720536
0.720103
0.71967
0.719237
0.718802
0.718367
0.717932
0.717495
0.717059
0.716622
0.716184
0.715746
0.715307
0.714868
0.714429
0.713989
0.713549
0.713109
0.712668
0.712227
0.711785
0.711344
0.710902
0.710459
0.710017
0.709574
0.709131
0.708687
0.708244
0.7078
0.707356
0.706912
0.706467
0.706022
0.705577
0.705132
0.704687
0.704241
0.703795
0.703349
0.702903
0.702457
0.70201
0.701563
0.701116
0.700668
0.70022
0.699772
0.699324
0.698876
0.698427
0.697978
0.697528
0.697079
0.696629
0.696179
0.695728
0.695277
0.694825
0.694374
0.693922
0.693469
0.693016
0.692563
0.692109
0.691655
0.6912
0.690745
0.690289
0.689833
0.689376
0.688919
0.688461
0.688003
0.687544
0.687084
0.686625
0.686164
0.685703
0.685242
0.68478
0.684318
0.683855
0.683392
0.682929
0.682465
0.682001
0.681537
0.681072
0.680608
0.680144
0.679679
0.679215
0.678752
0.678288
0.677825
0.677363
0.676902
0.676441
0.675982
0.675524
0.675067
0.674612
0.674158
0.673706
0.673257
0.672809
0.672364
0.671922
0.671482
0.671046
0.670613
0.670183
0.669757
0.669335
0.668917
0.668503
0.668093
0.667688
0.667288
0.666893
0.666503
0.666118
0.665738
0.665365
0.664997
0.664634
0.664278
0.663928
0.663583
0.663245
0.662913
0.662588
0.662268
0.661955
0.661649
0.661348
0.661054
0.660766
0.660485
0.660209
0.65994
0.659676
0.659419
0.659167
0.658921
0.65868
0.658445
0.658214
0.657989
0.657769
0.657553
0.657342
0.657136
0.656933
0.656734
0.656539
0.656348
0.656159
0.655974
0.655792
0.655612
0.655435
0.65526
0.655086
0.654915
0.654745
0.654576
0.654408
0.654241
0.654074
0.653907
0.653741
0.653574
0.653407
0.65324
0.653071
0.652901
0.65273
0.652557
0.652382
0.652204
0.652025
0.651842
0.651657
0.651468
0.651276
0.651079
0.650879
0.650674
0.650464
0.650249
0.650028
0.649801
0.649568
0.649328
0.64908
0.648825
0.648561
0.648288
0.648005
0.647712
0.647408
0.647092
0.646763
0.64642
0.646061
0.645687
0.645295
0.644883
0.64445
0.643993
0.643511
0.643001
0.642459
0.641883
0.641269
0.640616
0.639929
0.639252
0.638653
0.638156
0.637748
0.637419
0.637158
0.636957
0.636808
0.636704
0.636641
0.636612
0.636615
0.636645
0.636699
0.636776
0.636873
0.636989
0.637122
0.637273
0.637441
0.637626
0.637829
0.638049
0.638287
0.638546
0.638825
0.639126
0.63945
0.639801
0.640178
0.640585
0.641024
0.641495
0.642003
0.642549
0.643134
0.643762
0.644434
0.645152
0.645917
0.64673
0.647592
0.648503
0.649463
0.650471
0.651525
0.652623
0.653761
0.654937
0.656146
0.657382
0.658642
0.659918
0.661205
0.662496
0.663785
0.665066
0.666333
0.667579
0.668801
0.669992
0.671148
0.672267
0.673345
0.67438
0.67537
0.676315
0.677215
0.678069
0.678878
0.679644
0.680369
0.681054
0.681703
0.682317
0.682901
0.683456
0.683987
0.684498
0.684992
0.685473
0.685947
0.686417
0.68689
0.687371
0.687866
0.688382
0.688927
0.68951
0.690142
0.690834
0.691601
0.69246
0.693429
0.694532
0.695797
0.697255
0.698945
0.70091
0.7032
0.705871
0.708982
0.712597
0.716778
0.721581
0.727054
0.733223
0.740093
0.747637
0.755793
0.764468
0.773538
0.782858
0.792272
0.801628
0.810785
0.819629
0.828071
0.836052
0.843543
0.850537
0.857047
0.863098
0.868723
0.873961
0.878848
0.883421
0.887715
0.89176
0.895584
0.89921
0.902658
0.905947
0.909091
0.912103
0.914995
0.917776
0.920454
0.923037
0.925532
0.927943
0.930277
0.932538
0.934731
0.936859
0.938926
0.940936
0.942892
0.944798
0.946655
0.948468
0.950239
0.95197
0.953664
0.955324
0.956951
0.958549
0.960119
0.961663
0.963183
0.964682
0.96616
0.967621
0.969065
0.970495
0.971911
0.973316
0.97471
0.976095
0.977473
0.978844
0.980209
0.981569
0.982925
0.984279
0.98563
0.98698
0.98833
0.989689
0.990966
0.991219
0.991037
0.990945
0.991153
0.991477
0.991848
0.992231
0.992592
0.992894
0.993126
0.993307
0.993451
0.993549
0.993578
0.99354
0.993445
0.99329
0.993079
0.992806
0.99247
0.992079
0.991629
0.991128
0.990576
0.989963
0.989281
0.98853
0.987713
0.98684
0.985913
0.984922
0.983863
0.982738
0.981557
0.980322
0.979027
0.977678
0.976269
0.974785
0.973229
0.971619
0.96994
0.96818
0.966355
0.964468
0.962515
0.960501
0.958427
0.956283
0.954065
0.951781
0.949432
0.947005
0.944496
0.941906
0.939243
0.936508
0.933697
0.930811
0.92785
0.924801
0.921659
0.918424
0.915103
0.9117
0.908215
0.904641
0.900964
0.897176
0.893275
0.889264
0.885143
0.880903
0.876544
0.872061
0.867443
0.862685
0.857778
0.852704
0.847448
0.842
0.836358
0.830514
0.824443
0.818105
0.811465
0.804465
0.797018
0.789007
0.780262
0.770524
0.759394
0.746295
0.730416
0.710699
0.685958
0.65525
0.618625
0.578181
0.538953
0.50961
0.486953
0.486635
0.486314
0.485993
0.485671
0.485348
0.485025
0.484701
0.484377
0.484053
0.483729
0.483405
0.483081
0.482757
0.482434
0.482111
0.48179
0.481468
0.481148
0.480828
0.48051
0.480192
0.479874
0.479558
0.479242
0.478928
0.478615
0.478303
0.477994
0.477686
0.477379
0.477072
0.476765
0.476455
0.476142
0.475828
0.475515
0.475209
0.474919
0.474651
0.474408
0.474182
0.473953
0.473685
0.473335
0.472869
0.472286
0.47165
0.471107
0.470872
0.471185
0.472189
0.473784
0.475476
0.476312
0.475007
0.470371
0.462067
0.45157
0.442899
0.442461
0.457537
0.493512
0.550267
0.619573
0.687738
0.743508
0.78319
0.809017
0.825148
0.83524
0.841811
0.846405
0.849909
0.852816
0.855397
0.857797
0.860091
0.862323
0.864512
0.866671
0.868805
0.870918
0.873011
0.875085
0.877136
0.879156
0.881106
0.882844
0.884177
0.885125
0.885814
0.886329
0.886727
0.887047
0.887314
0.887547
0.887756
0.88795
0.888133
0.888309
0.888481
0.888649
0.888816
0.888981
0.889145
0.889309
0.889473
0.889636
0.8898
0.889963
0.890127
0.890291
0.890455
0.89062
0.890785
0.89095
0.891116
0.891282
0.891449
0.891616
0.891784
0.891953
0.892123
0.892294
0.892465
0.892638
0.892812
0.892987
0.893164
0.893342
0.893522
0.893704
0.893887
0.894073
0.89426
0.89445
0.894643
0.894838
0.895036
0.895237
0.895441
0.895648
0.895859
0.896074
0.896293
0.896516
0.896744
0.896976
0.897213
0.897455
0.897703
0.897956
0.898214
0.898479
0.89875
0.899028
0.899312
0.899603
0.899901
0.900206
0.900519
0.900839
0.901168
0.901504
0.901848
0.902201
0.902562
0.902932
0.90331
0.903697
0.904092
0.904497
0.90491
0.905332
0.905763
0.906202
0.906651
0.907108
0.907574
0.908048
0.908531
0.909022
0.909522
0.91003
0.910545
0.911069
0.9116
0.912139
0.912685
0.913238
0.913798
0.914365
0.914938
0.915518
0.916104
0.916696
0.917294
0.917898
0.918507
0.919122
0.919742
0.920366
0.920996
0.92163
0.922269
0.922912
0.92356
0.924212
0.924867
0.925527
0.926191
0.926858
0.92753
0.928204
0.928882
0.929564
0.930249
0.930937
0.931628
0.932323
0.933021
0.933721
0.934425
0.935131
0.93584
0.936552
0.937267
0.937984
0.938704
0.939426
0.940151
0.940878
0.941607
0.942339
0.943073
0.943809
0.944547
0.945287
0.946029
0.946772
0.947518
0.948265
0.949013
0.949763
0.950515
0.951268
0.952022
0.952777
0.953534
0.954291
0.955049
0.955808
0.956568
0.957328
0.958088
0.958849
0.959611
0.960372
0.961134
0.961895
0.962656
0.963417
0.964177
0.964937
0.965697
0.966455
0.967213
0.967969
0.968725
0.969479
0.970232
0.970983
0.971733
0.97248
0.973226
0.97397
0.974711
0.97545
0.976187
0.976921
0.977652
0.97838
0.979104
0.979826
0.980544
0.981259
0.98197
0.982676
0.983379
0.984078
0.984772
0.985461
0.986146
0.986826
0.987501
0.98817
0.988834
0.989493
0.990145
0.990792
0.991433
0.992067
0.992695
0.993316
0.993931
0.994539
0.995139
0.995732
0.996318
0.996896
0.997466
0.998028
0.998583
0.999128
0.999666
1.00019
1.00071
1.00123
1.00173
1.00222
1.0027
1.00318
1.00364
1.00409
1.00454
1.00497
1.0054
1.00581
1.00621
1.0066
1.00698
1.00735
1.00771
1.00806
1.00839
1.00872
1.00903
1.00933
1.00962
1.0099
1.01016
1.01041
1.01065
1.01088
1.0111
1.0113
1.01149
1.01167
1.01184
1.01199
1.01214
1.01226
1.01238
1.01249
1.01258
1.01266
1.01272
1.01278
1.01282
1.01285
1.01287
1.01287
1.01287
1.01285
1.01282
1.01278
1.01272
1.01266
1.01258
1.01249
1.0124
1.01229
1.01217
1.01204
1.0119
1.01175
1.01159
1.01142
1.01124
1.01106
1.01086
1.01066
1.01044
1.01022
1.01
1.00976
1.00951
1.00921
1.00882
1.00829
1.00764
1.00693
1.00617
1.0054
1.0046
1.0038
1.00299
1.00217
1.00134
1.00052
0.999683
0.998845
0.998004
0.997159
0.996311
0.99546
0.994607
0.993751
0.992892
0.992032
0.99117
0.990306
0.989441
0.988575
0.987708
0.98684
0.985971
0.985102
0.984233
0.983363
0.982493
0.981624
0.980754
0.979885
0.979017
0.978148
0.977281
0.976414
0.975547
0.974682
0.973817
0.972954
0.972091
0.971229
0.970368
0.969508
0.96865
0.967792
0.966935
0.966079
0.965225
0.964371
0.963519
0.962667
0.961817
0.960967
0.960118
0.959271
0.958424
0.957578
0.956732
0.955888
0.955044
0.954201
0.953359
0.952517
0.951676
0.950835
0.949995
0.949156
0.948316
0.947477
0.946638
0.9458
0.944962
0.944124
0.943286
0.942448
0.94161
0.940772
0.939934
0.939096
0.938258
0.937419
0.93658
0.935741
0.934902
0.934063
0.933222
0.932382
0.931541
0.930699
0.929857
0.929015
0.928171
0.927327
0.926483
0.925637
0.924791
0.923944
0.923096
0.922247
0.921397
0.920547
0.919695
0.918842
0.917989
0.917134
0.916278
0.915421
0.914562
0.913703
0.912842
0.91198
0.911117
0.910252
0.909386
0.908519
0.90765
0.90678
0.905908
0.905035
0.904161
0.903285
0.902407
0.901528
0.900647
0.899765
0.898881
0.897996
0.897108
0.89622
0.89533
0.894438
0.893544
0.892649
0.891752
0.890854
0.889954
0.889052
0.888149
0.887244
0.886338
0.88543
0.884521
0.88361
0.882697
0.881784
0.880868
0.879952
0.879034
0.878115
0.877194
0.876272
0.87535
0.874426
0.8735
0.872574
0.871647
0.870719
0.869791
0.868861
0.867931
0.867
0.866069
0.865137
0.864204
0.863272
0.862339
0.861405
0.860472
0.859539
0.858605
0.857672
0.856739
0.855806
0.854873
0.853941
0.85301
0.852078
0.851148
0.850218
0.849289
0.848361
0.847434
0.846507
0.845582
0.844658
0.843735
0.842813
0.841892
0.840973
0.840055
0.839138
0.838223
0.837309
0.836397
0.835487
0.834578
0.83367
0.832764
0.83186
0.830957
0.830056
0.829157
0.82826
0.827364
0.826469
0.825577
0.824686
0.823797
0.822909
0.822023
0.821139
0.820257
0.819376
0.818496
0.817619
0.816742
0.815868
0.814995
0.814123
0.813253
0.812385
0.811518
0.810652
0.809788
0.808925
0.808064
0.807204
0.806346
0.805488
0.804633
0.803778
0.802925
0.802073
0.801222
0.800373
0.799525
0.798678
0.797832
0.796987
0.796144
0.795301
0.79446
0.79362
0.792781
0.791943
0.791106
0.79027
0.789435
0.788601
0.787768
0.786935
0.786104
0.785273
0.784443
0.783613
0.782785
0.781956
0.781129
0.780302
0.779475
0.778648
0.777822
0.776996
0.776171
0.775346
0.77452
0.773695
0.77287
0.772045
0.77122
0.770395
0.769569
0.768744
0.767919
0.767094
0.766269
0.765444
0.764619
0.763794
0.762969
0.762145
0.761322
0.760499
0.759678
0.758857
0.758038
0.75722
0.756404
0.755591
0.754779
0.753971
0.753166
0.752364
0.751566
0.750773
0.749984
0.749201
0.748423
0.747652
0.746887
0.74613
0.74538
0.744639
0.743906
0.743182
0.742468
0.741763
0.74107
0.740387
0.739716
0.739056
0.738408
0.737772
0.737149
0.736539
0.735941
0.735356
0.734785
0.734226
0.73368
0.733147
0.732627
0.73212
0.731624
0.731141
0.730669
0.730209
0.729759
0.729319
0.728889
0.728468
0.728056
0.727652
0.727254
0.726863
0.726477
0.726097
0.72572
0.725346
0.724975
0.724605
0.724235
0.723865
0.723494
0.72312
0.722744
0.722364
0.721979
0.721588
0.721191
0.720787
0.720375
0.719955
0.719525
0.719085
0.718635
0.718173
0.717701
0.717216
0.716719
0.71621
0.715688
0.715153
0.714605
0.714044
0.713471
0.712885
0.712287
0.711678
0.711056
0.710424
0.709782
0.70913
0.708469
0.7078
0.707124
0.706442
0.705754
0.705062
0.704367
0.703669
0.70297
0.702271
0.701573
0.700877
0.700184
0.699494
0.69881
0.698132
0.69746
0.696796
0.69614
0.695493
0.694856
0.69423
0.693614
0.693009
0.692416
0.691835
0.691266
0.69071
0.690166
0.689635
0.689117
0.688611
0.688119
0.687639
0.687172
0.686717
0.686274
0.685844
0.685426
0.685019
0.684624
0.68424
0.683866
0.683504
0.683152
0.68281
0.682479
0.682156
0.681843
0.681539
0.681244
0.680958
0.680679
0.680409
0.680146
0.679891
0.679643
0.679402
0.679168
0.67894
0.678719
0.678503
0.678294
0.678089
0.677891
0.677697
0.677508
0.677324
0.677145
0.67697
0.676799
0.676632
0.676469
0.67631
0.676154
0.676001
0.675852
0.675705
0.675562
0.675421
0.675283
0.675147
0.675013
0.674882
0.674752
0.674625
0.674499
0.674375
0.674253
0.674132
0.674013
0.673895
0.673778
0.673662
0.673548
0.673434
0.673322
0.67321
0.673099
0.672989
0.67288
0.672771
0.672663
0.672555
0.672448
0.672341
0.672235
0.672129
0.672024
0.671919
0.671814
0.671709
0.671605
0.671501
0.671397
0.671293
0.67119
0.671086
0.670983
0.67088
0.670777
0.670674
0.670571
0.670468
0.670365
0.670262
0.67016
0.670057
0.669955
0.669852
0.669749
0.669647
0.669544
0.669442
0.669339
0.669237
0.669134
0.669032
0.668929
0.668827
0.668724
0.668621
0.668519
0.668416
0.668314
0.668211
0.668108
0.668005
0.667903
0.6678
0.667697
0.667594
0.667492
0.667389
0.667286
0.667183
0.66708
0.666977
0.666874
0.666771
0.666668
0.666565
0.666462
0.666359
0.666255
0.666152
0.666049
0.665946
0.665842
0.665739
0.665636
0.665532
0.665429
0.665326
0.665222
0.665119
0.665015
0.664912
0.664808
0.664704
0.664601
0.664497
0.664393
0.66429
0.664186
0.664082
0.663978
0.663874
0.663771
0.663667
0.663563
0.663459
0.663355
0.663251
0.663147
0.663043
0.662938
0.662834
0.66273
0.662626
0.662522
0.662417
0.662313
0.662209
0.662104
0.662
0.661896
0.661791
0.661687
0.661582
0.661478
0.661373
0.661269
0.661164
0.661059
0.660955
0.66085
0.660745
0.66064
0.660536
0.660431
0.660326
0.660221
0.660116
0.660011
0.659906
0.659801
0.659696
0.659591
0.659486
0.659381
0.659276
0.65917
0.659065
0.65896
0.658855
0.658749
0.658644
0.658539
0.658433
0.658328
0.658223
0.658117
0.658012
0.657906
0.657801
0.657695
0.65759
0.657485
0.657379
0.657274
0.657168
0.657063
0.656957
0.656852
0.656747
0.656642
0.656536
0.656431
0.656326
0.656221
0.656116
0.656011
0.655907
0.655802
0.655698
0.655594
0.655489
0.655386
0.655282
0.655179
0.655075
0.654973
0.65487
0.654768
0.654666
0.654565
0.654464
0.654363
0.654263
0.654163
0.654064
0.653966
0.653868
0.653771
0.653674
0.653578
0.653483
0.653389
0.653296
0.653203
0.653112
0.653021
0.652931
0.652843
0.652755
0.652669
0.652584
0.6525
0.652417
0.652336
0.652256
0.652177
0.6521
0.652024
0.651949
0.651876
0.651805
0.651735
0.651666
0.651599
0.651534
0.65147
0.651408
0.651348
0.651289
0.651232
0.651176
0.651122
0.65107
0.651019
0.65097
0.650923
0.650877
0.650833
0.65079
0.650749
0.65071
0.650672
0.650636
0.650601
0.650567
0.650535
0.650504
0.650475
0.650447
0.65042
0.650395
0.65037
0.650347
0.650325
0.650304
0.650285
0.650266
0.650248
0.650232
0.650216
0.650201
0.650187
0.650174
0.650161
0.65015
0.650139
0.650128
0.650119
0.65011
0.650101
0.650093
0.650086
0.650079
0.650073
0.650067
0.650061
0.650056
0.650052
0.650047
0.650043
0.650039
0.650036
0.650033
0.65003
0.650027
0.650025
0.650023
0.65002
0.650019
0.650017
0.650015
0.650014
0.650012
0.650011
0.65001
0.650009
0.650008
0.650007
0.650007
0.650006
0.650005
0.650005
0.650004
0.650004
0.650003
0.650003
0.650003
0.650002
0.650002
0.650002
0.650002
0.650001
0.650001
0.650001
0.650001
0.650001
0.650001
0.650001
0.650001
0.650001
0.65
0.65
0.65
0.65
0.65
0.65
0.65
0.65
0.65
0.65
0.65
0.65
0.65
0.65
0.65
0.65
0.65
0.65
0.65
0.65
0.65
0.65
0.65
0.65
0.65
0.65
0.65
0.65
0.65
0.65
0.65
0.65
0.65
0.65
0.65
0.65
0.65
0.65
0.65
0.65
0.65
0.65
0.65
0.65
0.65
0.65
0.65
0.65
0.65
0.65
0.65
0.65
0.65
0.65
0.65
0.65
0.65
0.65
0.65
0.65
0.65
0.65
0.65
0.65
0.65
0.65
0.65
0.65
0.65
0.65
0.65
0.65
0.65
0.65
0.65
0.65
0.65
0.65
0.65
0.65
0.65
0.65
0.65
0.65
0.65
0.65
0.65
0.65
0.65
0.65
0.65
0.65
0.65
0.65
0.65
0.65
0.65
0.65
0.65
0.65
0.65
0.65
0.65
0.65
0.65
0.65
0.65
0.65
0.65
0.65
0.65
0.65
0.65
0.65
0.65
0.65
0.65
0.65
0.65
0.65
0.65
0.65
0.65
0.65
0.65
0.65
0.65
0.65
0.65
0.65
0.65
0.65
0.65
0.65
0.65
0.65
0.65
0.65
0.65
0.65
0.65
0.65
0.65
0.65
0.65
0.65
0.65
0.65
0.65
)
;

boundaryField
{
    inlet
    {
        type            criticalFlowDepthInlet;
        criticalH       0.38;
        value           uniform 1.34023;
    }
    outlet
    {
        type            zeroGradient;
    }
    right
    {
        type            empty;
    }
    left
    {
        type            empty;
    }
    atmosphere
    {
        type            empty;
    }
    bottomWall
    {
        type            empty;
    }
}


// ************************************************************************* //
