/*--------------------------------*- C++ -*----------------------------------*\
| =========                 |                                                 |
| \\      /  F ield         | foam-extend: Open Source CFD                    |
|  \\    /   O peration     | Version:     3.1                                |
|   \\  /    A nd           | Web:         http://www.extend-project.de       |
|    \\/     M anipulation  |                                                 |
\*---------------------------------------------------------------------------*/
FoamFile
{
    version     2.0;
    format      ascii;
    class       surfaceScalarField;
    location    "2";
    object      phi;
}
// * * * * * * * * * * * * * * * * * * * * * * * * * * * * * * * * * * * * * //

dimensions      [0 3 -1 0 0 0 0];

internalField   nonuniform List<scalar> 
2538
(
0.0468161
0.0470209
0.047237
0.04745
0.0476644
0.0478788
0.0480937
0.0483089
0.0485245
0.0487404
0.0489566
0.0491732
0.0493902
0.0496076
0.0498253
0.0500434
0.0502618
0.0504806
0.0506998
0.0509194
0.0511393
0.0513596
0.0515803
0.0518014
0.0520229
0.0522448
0.052467
0.0526897
0.0529128
0.0531363
0.0533602
0.0535845
0.0538092
0.0540344
0.0542599
0.054486
0.0547124
0.0549393
0.0551667
0.0553945
0.0556227
0.0558514
0.0560806
0.0563103
0.0565404
0.056771
0.0570021
0.0572337
0.0574657
0.0576982
0.0579312
0.0581647
0.0583987
0.0586332
0.0588682
0.0591036
0.0593395
0.0595759
0.0598128
0.0600501
0.0602879
0.0605261
0.0607648
0.0610039
0.0612435
0.0614835
0.0617239
0.0619647
0.0622059
0.0624475
0.0626895
0.0629318
0.0631746
0.0634177
0.0636611
0.0639049
0.0641491
0.0643937
0.0646385
0.0648838
0.0651294
0.0653754
0.0656218
0.0658685
0.0661156
0.0663632
0.0666111
0.0668595
0.0671084
0.0673576
0.0676074
0.0678577
0.0681084
0.0683597
0.0686115
0.0688639
0.0691169
0.0693705
0.0696246
0.0698794
0.0701348
0.0703909
0.0706477
0.0709051
0.0711632
0.0714219
0.0716814
0.0719416
0.0722025
0.072464
0.0727263
0.0729893
0.073253
0.0735174
0.0737825
0.0740483
0.0743147
0.0745819
0.0748497
0.0751181
0.0753873
0.0756571
0.0759275
0.0761985
0.0764702
0.0767425
0.0770154
0.0772889
0.0775629
0.0778376
0.0781128
0.0783885
0.0786649
0.0789417
0.0792191
0.079497
0.0797755
0.0800544
0.0803339
0.0806138
0.0808942
0.0811751
0.0814565
0.0817384
0.0820207
0.0823035
0.0825867
0.0828703
0.0831544
0.083439
0.0837239
0.0840093
0.0842951
0.0845813
0.0848679
0.085155
0.0854424
0.0857303
0.0860185
0.0863072
0.0865962
0.0868857
0.0871755
0.0874658
0.0877565
0.0880475
0.088339
0.0886309
0.0889232
0.0892159
0.089509
0.0898025
0.0900965
0.0903909
0.0906857
0.090981
0.0912767
0.0915729
0.0918695
0.0921666
0.0924642
0.0927622
0.0930607
0.0933595
0.0936862
0.0940341
0.094327
0.0945724
0.0948183
0.0950642
0.0953102
0.0955563
0.0958024
0.0960486
0.0962949
0.0965412
0.0967877
0.0970342
0.0972808
0.0975276
0.0977744
0.0980213
0.0982683
0.0985154
0.0987626
0.0990099
0.0992574
0.0995049
0.0997525
0.1
0.100248
0.100496
0.100744
0.100993
0.101241
0.101489
0.101738
0.101987
0.102236
0.102485
0.102734
0.102983
0.103232
0.103482
0.103731
0.103981
0.104231
0.104481
0.104731
0.104982
0.105232
0.105483
0.105733
0.105984
0.106235
0.106486
0.106737
0.106989
0.10724
0.107492
0.107744
0.107995
0.108247
0.1085
0.108752
0.109004
0.109257
0.109509
0.109762
0.110015
0.110268
0.110522
0.110775
0.111028
0.111282
0.111536
0.11179
0.112044
0.112298
0.112552
0.112807
0.113061
0.113316
0.113571
0.113826
0.114081
0.114337
0.114592
0.114848
0.115104
0.11536
0.115616
0.115872
0.116129
0.116385
0.116642
0.116899
0.117156
0.117413
0.11767
0.117928
0.118185
0.118443
0.118701
0.118958
0.119216
0.119474
0.119731
0.119989
0.120247
0.120504
0.120761
0.121018
0.121275
0.121531
0.121787
0.122043
0.122298
0.122552
0.122805
0.123057
0.123309
0.123559
0.123808
0.124056
0.124301
0.124546
0.124788
0.125028
0.125266
0.125501
0.125733
0.125962
0.126188
0.126411
0.12663
0.126844
0.127055
0.12726
0.12746
0.127656
0.127845
0.128029
0.128206
0.128376
0.128539
0.128695
0.128843
0.128983
0.129115
0.129238
0.129351
0.129456
0.12955
0.129634
0.129708
0.129772
0.129824
0.129866
0.129897
0.129916
0.129924
0.129921
0.129907
0.129882
0.129845
0.129798
0.12974
0.129672
0.129594
0.129507
0.129411
0.129306
0.129194
0.129075
0.128949
0.128819
0.128683
0.128544
0.128401
0.128257
0.128112
0.127967
0.127822
0.127679
0.127539
0.127403
0.12727
0.127143
0.127022
0.126907
0.126799
0.126699
0.126607
0.126523
0.126448
0.126382
0.126325
0.126277
0.126238
0.126208
0.126187
0.126174
0.126168
0.126174
0.129406
0.13261
0.136509
0.13897
0.140579
0.141736
0.142644
0.143408
0.144082
0.144696
0.145267
0.145806
0.146319
0.14681
0.147283
0.147741
0.148184
0.148615
0.149035
0.149444
0.149844
0.150236
0.150619
0.150996
0.151365
0.151728
0.152085
0.152436
0.152781
0.153122
0.153457
0.153788
0.154115
0.154437
0.154755
0.155069
0.15538
0.155686
0.15599
0.156289
0.156586
0.156879
0.157168
0.157455
0.157739
0.15802
0.158297
0.158572
0.158844
0.159114
0.15938
0.159644
0.159906
0.160164
0.16042
0.160674
0.160925
0.161173
0.161419
0.161663
0.161904
0.162142
0.162378
0.162612
0.162843
0.163071
0.163297
0.163521
0.163742
0.163961
0.164177
0.164391
0.164603
0.164811
0.165018
0.165222
0.165423
0.165622
0.165818
0.166012
0.166203
0.166391
0.166577
0.16676
0.16694
0.167118
0.167293
0.167466
0.167635
0.167802
0.167966
0.168127
0.168285
0.16844
0.168592
0.168741
0.168887
0.169028
0.169165
0.169294
0.169634
0.169798
0.169927
0.17004
0.170147
0.170253
0.170357
0.170461
0.170566
0.170671
0.170775
0.170881
0.170986
0.171091
0.171196
0.171302
0.171407
0.171512
0.171616
0.171721
0.171825
0.171929
0.172033
0.172136
0.172239
0.172342
0.172444
0.172546
0.172647
0.172748
0.172848
0.172948
0.173047
0.173146
0.173244
0.173342
0.173439
0.173535
0.173631
0.173726
0.173821
0.173914
0.174008
0.1741
0.174192
0.174283
0.174373
0.174463
0.174552
0.17464
0.174727
0.174813
0.174899
0.174984
0.175068
0.175151
0.175234
0.175315
0.175396
0.175476
0.175554
0.175632
0.175709
0.175785
0.17586
0.175934
0.176008
0.17608
0.176151
0.176221
0.17629
0.176357
0.176424
0.17649
0.176554
0.176618
0.17668
0.176741
0.176801
0.176859
0.176917
0.176973
0.177028
0.177081
0.177134
0.177184
0.177234
0.177282
0.177329
0.177375
0.177419
0.177462
0.177503
0.177543
0.177581
0.177618
0.177654
0.177688
0.177721
0.177755
0.177811
0.177912
0.178049
0.178204
0.178367
0.178533
0.178701
0.178869
0.179038
0.179207
0.179376
0.179545
0.179714
0.179883
0.180052
0.180221
0.180389
0.180558
0.180726
0.180894
0.181063
0.18123
0.181398
0.181566
0.181733
0.181901
0.182068
0.182234
0.182401
0.182567
0.182733
0.182899
0.183064
0.18323
0.183394
0.183559
0.183723
0.183887
0.18405
0.184213
0.184375
0.184537
0.184699
0.18486
0.185021
0.185181
0.18534
0.185499
0.185658
0.185815
0.185973
0.186129
0.186285
0.186441
0.186595
0.18675
0.186903
0.187056
0.187208
0.187359
0.187509
0.187659
0.187808
0.187957
0.188104
0.188251
0.188397
0.188542
0.188687
0.188831
0.188974
0.189116
0.189257
0.189398
0.189537
0.189676
0.189815
0.189952
0.190089
0.190225
0.19036
0.190494
0.190628
0.190761
0.190893
0.191025
0.191156
0.191286
0.191416
0.191545
0.191673
0.191801
0.191928
0.192054
0.19218
0.192305
0.19243
0.192555
0.192678
0.192802
0.192925
0.193047
0.193169
0.193291
0.193412
0.193533
0.193653
0.193773
0.193893
0.194013
0.194132
0.194251
0.19437
0.194488
0.194607
0.194725
0.194843
0.194961
0.195078
0.195196
0.195313
0.19543
0.195548
0.195665
0.195782
0.195899
0.196016
0.196133
0.196249
0.196366
0.196483
0.1966
0.196717
0.196834
0.196951
0.197068
0.197185
0.197302
0.197419
0.197536
0.197653
0.197771
0.197888
0.198006
0.198123
0.198241
0.198359
0.198477
0.198595
0.198713
0.198831
0.198949
0.199068
0.199187
0.199305
0.199424
0.199543
0.199662
0.199781
0.199901
0.20002
0.20014
0.20026
0.20038
0.2005
0.20062
0.20074
0.200861
0.200982
0.201102
0.201223
0.201344
0.201466
0.201587
0.201709
0.20183
0.201952
0.202074
0.202197
0.202319
0.202441
0.202564
0.202687
0.20281
0.202933
0.203056
0.203179
0.203303
0.203426
0.20355
0.203674
0.203798
0.203922
0.204047
0.204171
0.204296
0.20442
0.204545
0.20467
0.204795
0.20492
0.205045
0.205171
0.205296
0.205422
0.205547
0.205673
0.205799
0.205925
0.206052
0.206178
0.206305
0.206431
0.206558
0.206685
0.206813
0.20694
0.207068
0.207196
0.207325
0.207453
0.207582
0.207712
0.207842
0.207972
0.208103
0.208235
0.208367
0.2085
0.208634
0.208768
0.208903
0.20904
0.209177
0.209315
0.209455
0.209595
0.209737
0.20988
0.210025
0.210172
0.21032
0.210469
0.210621
0.210774
0.21093
0.211087
0.211247
0.211409
0.211573
0.21174
0.211909
0.212081
0.212255
0.212433
0.212613
0.212796
0.212982
0.213171
0.213363
0.213558
0.213756
0.213958
0.214163
0.214371
0.214583
0.214798
0.215017
0.215239
0.215464
0.215693
0.215925
0.216161
0.2164
0.216643
0.216889
0.217139
0.217392
0.217648
0.217908
0.218171
0.218438
0.218708
0.218981
0.219257
0.219536
0.219819
0.220105
0.220393
0.220685
0.22098
0.221277
0.221578
0.221881
0.222187
0.222496
0.222807
0.223121
0.223438
0.223758
0.224079
0.224404
0.224731
0.22506
0.225392
0.225726
0.226062
0.226401
0.226742
0.227086
0.227432
0.22778
0.228131
0.228483
0.228839
0.229196
0.229556
0.229919
0.230284
0.230651
0.231022
0.231394
0.23177
0.232148
0.23253
0.232914
0.233302
0.233692
0.234087
0.234485
0.234887
0.235293
0.235703
0.236118
0.236538
0.236963
0.237394
0.237831
0.238274
0.238725
0.239183
0.239651
0.240127
0.240614
0.241113
0.241624
0.24215
0.242691
0.243248
0.24382
0.24439
0.244932
0.245437
0.245908
0.246351
0.246769
0.247164
0.24754
0.247899
0.248243
0.248574
0.248893
0.249201
0.2495
0.249791
0.250073
0.250348
0.250616
0.250877
0.251131
0.251378
0.251618
0.251851
0.252075
0.252292
0.2525
0.252699
0.252888
0.253067
0.253234
0.253389
0.253531
0.25366
0.253774
0.253873
0.253956
0.254021
0.254069
0.254099
0.25411
0.254103
0.254076
0.25403
0.253966
0.253883
0.253783
0.253667
0.253536
0.253392
0.253236
0.253071
0.252898
0.252721
0.252541
0.252361
0.252183
0.252011
0.251845
0.251689
0.251543
0.251411
0.251292
0.251189
0.251102
0.251033
0.25098
0.250945
0.250928
0.250928
0.250944
0.250977
0.251025
0.251087
0.251163
0.251251
0.25135
0.251459
0.251577
0.251701
0.25183
0.251964
0.252099
0.252234
0.252367
0.252495
0.252617
0.252729
0.252828
0.252911
0.252972
0.253008
0.253012
0.252978
0.252897
0.252759
0.252555
0.252269
0.251887
0.25139
0.25076
0.249974
0.24901
0.247843
0.246454
0.244825
0.242944
0.24081
0.238432
0.235832
0.233044
0.230116
0.227099
0.224053
0.221033
0.218091
0.21527
0.212602
0.210106
0.207795
0.205668
0.20372
0.201943
0.200322
0.198843
0.197492
0.196256
0.195121
0.194075
0.19311
0.192215
0.191383
0.190608
0.189884
0.189207
0.188572
0.187975
0.187414
0.186886
0.186388
0.185919
0.185477
0.185059
0.184664
0.184292
0.183939
0.183606
0.183291
0.182993
0.182711
0.182444
0.18219
0.18195
0.181722
0.181505
0.181298
0.181102
0.180914
0.180734
0.180563
0.180398
0.180239
0.180086
0.179938
0.179795
0.179656
0.17952
0.179388
0.179258
0.17913
0.179004
0.17888
0.178757
0.178634
0.178513
0.178391
0.17827
0.178149
0.178027
0.177903
0.177793
0.177804
0.177892
0.177964
0.177981
0.177978
0.177966
0.177952
0.177941
0.177941
0.177953
0.177974
0.178001
0.178036
0.178084
0.178143
0.178212
0.178292
0.178381
0.178482
0.178593
0.178715
0.178846
0.178987
0.179137
0.179298
0.179472
0.179658
0.179856
0.180064
0.180283
0.180513
0.180756
0.181011
0.181278
0.181554
0.181842
0.182141
0.182451
0.182776
0.183116
0.183466
0.183831
0.184212
0.184606
0.185014
0.185436
0.185871
0.186319
0.186783
0.187263
0.187757
0.188268
0.188796
0.189342
0.189908
0.190492
0.191093
0.191713
0.192352
0.193011
0.193692
0.194396
0.195126
0.195878
0.196653
0.197452
0.198276
0.19913
0.200014
0.200932
0.201882
0.202866
0.203886
0.204944
0.206041
0.207182
0.208369
0.209605
0.210896
0.212248
0.213665
0.21515
0.216708
0.218348
0.220083
0.221929
0.223904
0.22604
0.22838
0.230984
0.233948
0.237421
0.241633
0.24693
0.253825
0.263024
0.275396
0.291746
0.312203
0.334978
0.354321
0.370922
0.371279
0.371635
0.371991
0.372347
0.372703
0.373059
0.373414
0.373769
0.374124
0.374477
0.374831
0.375183
0.375535
0.375887
0.376237
0.376587
0.376936
0.377284
0.377631
0.377978
0.378324
0.378669
0.379013
0.379356
0.379699
0.38004
0.38038
0.380719
0.381056
0.381392
0.381728
0.382065
0.382403
0.382742
0.383084
0.383424
0.383761
0.384088
0.3844
0.384695
0.384976
0.385257
0.385562
0.385921
0.386359
0.386883
0.387457
0.387987
0.388322
0.388293
0.38778
0.386828
0.385746
0.385157
0.385934
0.388987
0.39483
0.402844
0.410317
0.412047
0.402208
0.378798
0.346582
0.314095
0.287754
0.269373
0.257702
0.250651
0.24645
0.243901
0.242276
0.24116
0.240321
0.239633
0.239029
0.238472
0.237943
0.237433
0.236935
0.236447
0.235968
0.235496
0.235032
0.234575
0.234125
0.233686
0.233267
0.232907
0.232654
0.232502
0.232419
0.232381
0.232374
0.232387
0.232414
0.23245
0.232492
0.232538
0.232587
0.232638
0.232689
0.232742
0.232795
0.232848
0.232902
0.232955
0.233009
0.233062
0.233116
0.23317
0.233223
0.233277
0.23333
0.233384
0.233437
0.23349
0.233543
0.233596
0.233649
0.233702
0.233755
0.233807
0.233859
0.233911
0.233963
0.234015
0.234066
0.234117
0.234168
0.234218
0.234268
0.234318
0.234367
0.234416
0.234464
0.234512
0.234559
0.234606
0.234652
0.234697
0.234742
0.234786
0.234829
0.234871
0.234912
0.234953
0.234992
0.23503
0.235068
0.235104
0.235138
0.235172
0.235204
0.235235
0.235265
0.235293
0.23532
0.235345
0.235369
0.235391
0.235411
0.23543
0.235447
0.235462
0.235476
0.235488
0.235499
0.235507
0.235514
0.235519
0.235523
0.235525
0.235525
0.235524
0.235521
0.235516
0.23551
0.235503
0.235495
0.235485
0.235473
0.235461
0.235448
0.235433
0.235418
0.235402
0.235385
0.235367
0.235349
0.23533
0.235311
0.235291
0.235271
0.235251
0.235231
0.235211
0.235191
0.235171
0.235152
0.235132
0.235113
0.235094
0.235076
0.235058
0.235041
0.235025
0.235009
0.234994
0.234979
0.234966
0.234953
0.234941
0.23493
0.234919
0.23491
0.234902
0.234894
0.234887
0.234882
0.234877
0.234873
0.234871
0.234869
0.234868
0.234868
0.234869
0.234871
0.234874
0.234877
0.234882
0.234888
0.234894
0.234901
0.234909
0.234918
0.234927
0.234938
0.234949
0.234961
0.234973
0.234986
0.235
0.235015
0.23503
0.235045
0.235061
0.235078
0.235095
0.235112
0.23513
0.235148
0.235166
0.235185
0.235204
0.235223
0.235243
0.235262
0.235282
0.235301
0.235321
0.235341
0.23536
0.23538
0.235399
0.235418
0.235437
0.235456
0.235474
0.235492
0.235509
0.235526
0.235542
0.235558
0.235573
0.235588
0.235602
0.235615
0.235627
0.235638
0.235649
0.235659
0.235667
0.235675
0.235681
0.235686
0.23569
0.235693
0.235694
0.235694
0.235693
0.23569
0.235686
0.23568
0.235672
0.235663
0.235652
0.235639
0.235625
0.235608
0.23559
0.235569
0.235547
0.235522
0.235495
0.235466
0.235434
0.2354
0.235364
0.235325
0.235284
0.23524
0.235194
0.235144
0.235092
0.235037
0.234979
0.234919
0.234855
0.234788
0.234718
0.234645
0.234568
0.234489
0.234406
0.234319
0.234229
0.234136
0.234039
0.233938
0.233834
0.233726
0.233614
0.233499
0.233379
0.233256
0.233129
0.232997
0.232862
0.232723
0.232579
0.232431
0.232279
0.232123
0.231963
0.231798
0.231629
0.231456
0.231278
0.231096
0.230909
0.230719
0.230523
0.230323
0.230119
0.22991
0.229697
0.229479
0.229257
0.22903
0.228799
0.228563
0.228323
0.228078
0.227829
0.227576
0.227318
0.227056
0.22679
0.226519
0.226244
0.225965
0.225682
0.225394
0.225103
0.224807
0.224508
0.224204
0.223897
0.223586
0.223271
0.222953
0.222631
0.222305
0.221976
0.221644
0.221309
0.220972
0.22064
0.220325
0.220036
0.219768
0.219511
0.219258
0.219007
0.218756
0.218504
0.21825
0.217995
0.217739
0.217481
0.217221
0.21696
0.216698
0.216434
0.216169
0.215903
0.215636
0.215367
0.215098
0.214828
0.214558
0.214286
0.214014
0.213742
0.213469
0.213195
0.212921
0.212647
0.212372
0.212098
0.211823
0.211548
0.211272
0.210997
0.210722
0.210446
0.210171
0.209896
0.209621
0.209346
0.209071
0.208796
0.208522
0.208247
0.207973
0.207699
0.207425
0.207152
0.206878
0.206605
0.206332
0.206059
0.205787
0.205514
0.205242
0.20497
0.204699
0.204427
0.204156
0.203884
0.203613
0.203342
0.203072
0.202801
0.20253
0.20226
0.201989
0.201719
0.201449
0.201178
0.200908
0.200638
0.200368
0.200097
0.199827
0.199557
0.199286
0.199016
0.198745
0.198474
0.198203
0.197932
0.197661
0.19739
0.197118
0.196847
0.196575
0.196302
0.19603
0.195757
0.195484
0.195211
0.194938
0.194664
0.19439
0.194115
0.19384
0.193565
0.193289
0.193013
0.192737
0.19246
0.192183
0.191905
0.191627
0.191349
0.19107
0.19079
0.19051
0.19023
0.189949
0.189667
0.189385
0.189102
0.188819
0.188535
0.188251
0.187966
0.187681
0.187394
0.187108
0.18682
0.186532
0.186244
0.185955
0.185665
0.185374
0.185083
0.184791
0.184498
0.184205
0.183911
0.183617
0.183321
0.183025
0.182728
0.182431
0.182133
0.181834
0.181535
0.181235
0.180934
0.180632
0.18033
0.180027
0.179723
0.179419
0.179114
0.178809
0.178503
0.178196
0.177888
0.17758
0.177272
0.176963
0.176653
0.176343
0.176032
0.175721
0.175409
0.175097
0.174784
0.174471
0.174157
0.173844
0.173529
0.173215
0.1729
0.172585
0.172269
0.171953
0.171638
0.171321
0.171005
0.170689
0.170372
0.170056
0.169739
0.169423
0.169106
0.168789
0.168473
0.168156
0.16784
0.167523
0.167207
0.166891
0.166575
0.16626
0.165944
0.165629
0.165314
0.165
0.164686
0.164372
0.164058
0.163745
0.163432
0.163119
0.162807
0.162495
0.162183
0.161872
0.161562
0.161252
0.160942
0.160632
0.160323
0.160015
0.159706
0.159399
0.159091
0.158784
0.158478
0.158172
0.157866
0.157561
0.157256
0.156951
0.156647
0.156343
0.15604
0.155737
0.155434
0.155132
0.15483
0.154529
0.154227
0.153927
0.153626
0.153326
0.153026
0.152726
0.152427
0.152128
0.151829
0.151531
0.151232
0.150935
0.150637
0.15034
0.150043
0.149746
0.149449
0.149153
0.148857
0.148561
0.148265
0.14797
0.147675
0.14738
0.147085
0.14679
0.146495
0.146201
0.145907
0.145612
0.145318
0.145024
0.14473
0.144436
0.144142
0.143849
0.143555
0.143261
0.142967
0.142673
0.142378
0.142084
0.14179
0.141495
0.141201
0.140906
0.140611
0.140316
0.14002
0.139725
0.139429
0.139133
0.138837
0.138541
0.138245
0.137949
0.137653
0.137356
0.13706
0.136764
0.136468
0.136173
0.135878
0.135583
0.135289
0.134996
0.134703
0.134411
0.134121
0.133832
0.133544
0.133257
0.132973
0.13269
0.132409
0.13213
0.131854
0.131581
0.13131
0.131042
0.130778
0.130517
0.130259
0.130005
0.129754
0.129508
0.129266
0.129028
0.128794
0.128565
0.12834
0.12812
0.127905
0.127694
0.127488
0.127287
0.12709
0.126898
0.126711
0.126528
0.126349
0.126175
0.126005
0.125839
0.125676
0.125517
0.125362
0.125209
0.12506
0.124913
0.124769
0.124626
0.124486
0.124347
0.124209
0.124072
0.123936
0.1238
0.123664
0.123527
0.12339
0.123252
0.123112
0.12297
0.122827
0.122681
0.122533
0.122382
0.122227
0.12207
0.121908
0.121743
0.121573
0.1214
0.121222
0.121039
0.120852
0.120659
0.120462
0.120261
0.120054
0.119842
0.119626
0.119405
0.11918
0.11895
0.118716
0.118478
0.118236
0.11799
0.117742
0.11749
0.117236
0.11698
0.116721
0.116462
0.116201
0.11594
0.115678
0.115416
0.115155
0.114895
0.114636
0.114379
0.114124
0.113871
0.113621
0.113373
0.113129
0.112889
0.112652
0.112419
0.11219
0.111966
0.111746
0.11153
0.111319
0.111113
0.110912
0.110715
0.110523
0.110336
0.110153
0.109976
0.109803
0.109634
0.10947
0.109311
0.109156
0.109006
0.108859
0.108717
0.108579
0.108445
0.108315
0.108188
0.108065
0.107946
0.10783
0.107717
0.107608
0.107502
0.107398
0.107298
0.107201
0.107106
0.107014
0.106924
0.106837
0.106753
0.10667
0.10659
0.106512
0.106436
0.106362
0.10629
0.10622
0.106151
0.106085
0.106019
0.105956
0.105893
0.105832
0.105773
0.105714
0.105657
0.105601
0.105547
0.105493
0.10544
0.105388
0.105337
0.105287
0.105237
0.105189
0.105141
0.105093
0.105047
0.105
0.104955
0.10491
0.104865
0.104821
0.104777
0.104734
0.104691
0.104648
0.104606
0.104564
0.104522
0.104481
0.104439
0.104398
0.104357
0.104317
0.104276
0.104236
0.104195
0.104155
0.104115
0.104075
0.104035
0.103996
0.103956
0.103916
0.103877
0.103837
0.103798
0.103758
0.103719
0.10368
0.10364
0.103601
0.103562
0.103523
0.103483
0.103444
0.103405
0.103366
0.103326
0.103287
0.103248
0.103209
0.10317
0.10313
0.103091
0.103052
0.103013
0.102974
0.102934
0.102895
0.102856
0.102816
0.102777
0.102738
0.102699
0.102659
0.10262
0.102581
0.102541
0.102502
0.102462
0.102423
0.102384
0.102344
0.102305
0.102265
0.102226
0.102186
0.102147
0.102107
0.102068
0.102028
0.101989
0.101949
0.10191
0.10187
0.10183
0.101791
0.101751
0.101711
0.101672
0.101632
0.101592
0.101553
0.101513
0.101473
0.101433
0.101394
0.101354
0.101314
0.101274
0.101234
0.101194
0.101155
0.101115
0.101075
0.101035
0.100995
0.100955
0.100915
0.100875
0.100835
0.100795
0.100755
0.100715
0.100675
0.100635
0.100595
0.100555
0.100515
0.100475
0.100435
0.100394
0.100354
0.100314
0.100274
0.100234
0.100193
0.100153
0.100113
0.100073
0.100032
0.0999921
0.0999518
0.0999114
0.0998711
0.0998307
0.0997904
0.09975
0.0997096
0.0996691
0.0996287
0.0995883
0.0995478
0.0995073
0.0994668
0.0994263
0.0993858
0.0993452
0.0993047
0.0992641
0.0992236
0.099183
0.0991424
0.0991017
0.0990611
0.0990205
0.0989798
0.0989391
0.0988985
0.0988578
0.0988171
0.0987764
0.0987357
0.0986949
0.0986542
0.0986135
0.0985728
0.098532
0.0984913
0.0984506
0.0984099
0.0983692
0.0983285
0.0982878
0.0982471
0.0982065
0.0981658
0.0981252
0.0980847
0.0980442
0.0980037
0.0979632
0.0979229
0.0978825
0.0978423
0.0978021
0.097762
0.097722
0.097682
0.0976422
0.0976025
0.097563
0.0975235
0.0974842
0.0974451
0.0974061
0.0973673
0.0973287
0.0972904
0.0972522
0.0972143
0.0971766
0.0971392
0.097102
0.0970652
0.0970286
0.0969924
0.0969565
0.096921
0.0968859
0.0968511
0.0968167
0.0967828
0.0967493
0.0967162
0.0966836
0.0966515
0.0966199
0.0965888
0.0965582
0.0965281
0.0964986
0.0964696
0.0964412
0.0964134
0.0963862
0.0963596
0.0963336
0.0963082
0.0962834
0.0962593
0.0962357
0.0962128
0.0961906
0.096169
0.096148
0.0961276
0.0961079
0.0960888
0.0960704
0.0960526
0.0960353
0.0960188
0.0960028
0.0959874
0.0959726
0.0959584
0.0959447
0.0959317
0.0959191
0.0959072
0.0958957
0.0958848
0.0958743
0.0958644
0.0958549
0.0958459
0.0958373
0.0958292
0.0958215
0.0958142
0.0958073
0.0958008
0.0957946
0.0957888
0.0957833
0.0957781
0.0957733
0.0957687
0.0957644
0.0957604
0.0957566
0.0957531
0.0957498
0.0957467
0.0957439
0.0957412
0.0957387
0.0957364
0.0957342
0.0957322
0.0957304
0.0957287
0.0957271
0.0957256
0.0957243
0.095723
0.0957219
0.0957208
0.0957199
0.095719
0.0957182
0.0957174
0.0957167
0.0957161
0.0957155
0.095715
0.0957145
0.0957141
0.0957137
0.0957134
0.095713
0.0957127
0.0957125
0.0957122
0.095712
0.0957118
0.0957116
0.0957115
0.0957113
0.0957112
0.0957111
0.095711
0.0957109
0.0957108
0.0957107
0.0957107
0.0957106
0.0957106
0.0957105
0.0957105
0.0957104
0.0957104
0.0957104
0.0957103
0.0957103
0.0957103
0.0957103
0.0957103
0.0957103
0.0957102
0.0957102
0.0957102
0.0957102
0.0957102
0.0957102
0.0957102
0.0957102
0.0957102
0.0957102
0.0957102
0.0957102
0.0957102
0.0957102
0.0957102
0.0957102
0.0957102
0.0957102
0.0957102
0.0957102
0.0957102
0.0957102
0.0957102
0.0957102
0.0957102
0.0957102
0.0957102
0.0957102
0.0957102
0.0957102
0.0957102
0.0957102
0.0957102
0.0957102
0.0957102
0.0957102
0.0957102
0.0957102
0.0957102
0.0957102
0.0957102
0.0957102
0.0957102
0.0957102
0.0957102
0.0957102
0.0957102
0.0957102
0.0957102
0.0957102
0.0957102
0.0957102
0.0957102
0.0957102
0.0957102
0.0957102
0.0957102
0.0957102
0.0957102
0.0957102
0.0957102
0.0957102
0.0957102
0.0957102
0.0957102
0.0957102
0.0957102
0.0957102
0.0957102
0.0957102
0.0957102
0.0957102
0.0957102
0.0957102
0.0957102
0.0957102
0.0957102
0.0957102
0.0957102
0.0957102
0.0957102
0.0957102
0.0957102
0.0957102
0.0957102
0.0957102
0.0957102
0.0957102
0.0957102
0.0957102
0.0957102
0.0957102
0.0957102
0.0957102
0.0957102
0.0957102
0.0957102
0.0957102
0.0957102
0.0957102
0.0957102
0.0957102
0.0957102
0.0957102
0.0957102
0.0957102
0.0957102
0.0957102
0.0957102
0.0957102
0.0957102
0.0957102
0.0957102
0.0957102
0.0957102
0.0957102
0.0957102
0.0957102
0.0957102
0.0957102
0.0957102
0.0957102
0.0957102
0.0957102
0.0957102
0.0957102
0.0957102
0.0957102
0.0957102
0.0957102
0.0957102
0.0957102
0.0957102
0.0957102
0.0957102
0.0957102
0.0957102
0.0957102
0.0957102
0.0957102
0.0957102
0.0957102
)
;

boundaryField
{
    inlet
    {
        type            calculated;
        value           uniform -0.0466339;
    }
    outlet
    {
        type            calculated;
        value           uniform 0.0957102;
    }
    right
    {
        type            empty;
    }
    left
    {
        type            empty;
    }
    atmosphere
    {
        type            empty;
    }
    bottomWall
    {
        type            empty;
    }
}


// ************************************************************************* //
