/*--------------------------------*- C++ -*----------------------------------*\
| =========                 |                                                 |
| \\      /  F ield         | foam-extend: Open Source CFD                    |
|  \\    /   O peration     | Version:     3.1                                |
|   \\  /    A nd           | Web:         http://www.extend-project.de       |
|    \\/     M anipulation  |                                                 |
\*---------------------------------------------------------------------------*/
FoamFile
{
    version     2.0;
    format      ascii;
    class       volScalarField;
    location    "15.5";
    object      alpha1;
}
// * * * * * * * * * * * * * * * * * * * * * * * * * * * * * * * * * * * * * //

dimensions      [0 0 0 0 0 0 0];

internalField   nonuniform List<scalar> 
119952
(
1
0.9999999
1
1
1
1
1
1
1
1
0.9999999
1
1
1
1
0.9999999
1
1
1
1
1
1
1
1
1
1
1
1
1
1
1
1
1
1
1
1
1
1
1
1
1
0.9999999
1
1
1
1
1
1
1
1
1
1
1
1
0.9999999
1
0.9999999
1
1
1
0.9999998
0.9999999
1
1
0.9999998
0.9999999
1
0.9999998
1
1
1
0.9999999
0.9999998
1
1
1
0.9999998
0.9999999
1
1
1
1
0.9999999
0.9999999
1
0.9999999
1
1
1
0.9999999
1
1
1
1
1
1
1
1
1
1
1
1
1
1
1
1
1
1
1
1
1
1
1
1
1
1
1
1
1
1
1
1
1
1
1
1
1
1
1
1
1
1
1
1
1
1
1
1
1
1
1
1
1
1
1
1
1
1
1
1
1
1
1
1
1
1
1
1
1
1
1
1
1
1
1
1
1
1
1
1
1
1
1
1
1
1
1
1
0.9999999
1
1
1
1
1
1
0.9999996
0.9999999
1
1
1
0.9999997
1
1
1
1
1
1
1
1
1
1
1
1
1
1
1
1
1
1
1
1
1
1
1
0.9999999
1
0.9999999
0.9999999
1
1
1
1
1
1
1
1
0.9999998
0.9999999
1
1
1
1
1
1
1
1
1
1
1
1
1
1
1
1
1
1
1
1
1
1
1
1
1
1
1
1
1
1
1
1
1
1
1
1
1
1
1
1
1
1
1
1
1
1
1
1
1
1
1
1
1
1
1
1
1
1
1
1
1
1
1
1
1
1
1
1
1
1
1
1
1
1
1
1
1
1
1
1
1
1
1
1
1
1
1
1
1
1
1
1
1
1
1
1
1
1
1
1
1
1
1
1
1
1
1
1
1
1
1
1
1
1
1
1
1
1
1
1
1
1
1
1
1
1
1
1
1
1
1
1
1
1
1
1
1
1
1
1
1
1
1
1
1
1
1
1
1
1
1
1
1
1
1
1
1
1
1
1
1
1
1
1
1
1
1
1
1
1
1
1
0.9999999
0.9999999
1
1
1
1
0.9999999
1
1
1
0.9999999
1
1
1
1
0.9999999
1
1
0.9999999
1
1
1
1
1
1
1
1
1
1
1
1
1
1
1
1
1
1
1
1
1
1
1
1
1
1
1
1
1
1
1
1
1
1
0.9999999
0.9999999
1
1
1
0.9999999
1
1
1
1
1
1
1
1
1
1
1
1
1
1
1
1
1
1
1
0.9999999
0.9999999
1
1
1
1
1
1
1
1
1
1
1
1
1
0.9999999
0.9999999
1
1
1
1
1
1
1
0.9999999
0.9999999
0.9999999
1
1
1
1
1
1
1
1
1
1
1
1
1
1
1
1
1
1
1
1
1
1
1
1
1
1
1
1
1
1
1
1
1
1
1
1
1
1
1
1
1
1
1
1
1
1
1
1
1
1
1
1
1
1
1
1
1
1
1
1
1
1
1
1
1
1
1
1
1
1
1
1
1
1
1
1
1
1
1
1
1
1
1
1
1
1
1
1
1
1
1
1
1
1
1
1
1
1
1
1
1
1
1
1
0.9999999
0.9999999
1
1
1
1
1
1
1
1
1
1
1
1
1
0.9999999
1
1
1
1
1
0.9999999
0.9999998
1
1
1
1
1
1
1
1
1
1
1
1
1
1
0.9999999
0.9999999
0.9999999
1
1
1
1
1
1
1
1
1
1
1
1
1
1
1
1
1
1
1
1
1
1
1
1
1
1
1
1
1
1
1
1
1
1
1
1
1
1
1
1
1
1
1
1
1
1
1
1
1
1
1
1
1
1
1
1
1
1
1
1
1
1
1
1
1
1
1
1
0.9999999
0.9999999
1
1
1
1
1
1
1
1
1
1
1
1
1
1
1
1
1
1
1
1
1
1
1
1
1
1
1
1
1
1
1
1
1
1
1
1
1
1
1
1
1
1
1
1
1
1
1
1
1
1
1
1
1
1
1
1
1
1
1
1
1
1
1
1
1
1
1
1
1
1
1
1
1
1
1
1
1
1
1
1
1
1
1
1
1
1
1
1
1
1
1
1
0.9999999
0.9999999
1
1
1
1
1
1
1
1
1
1
1
1
1
1
1
0.9999999
1
1
1
1
1
1
1
1
1
1
1
1
1
1
1
1
1
1
1
1
1
1
1
1
1
1
1
1
1
1
1
1
1
1
1
1
1
1
1
1
1
1
1
1
1
1
1
1
1
1
1
1
1
1
1
1
1
1
1
1
1
1
1
1
1
1
1
1
1
1
1
1
1
1
1
1
1
1
1
1
1
1
1
1
1
1
1
1
1
1
1
1
1
1
1
1
1
1
1
1
1
1
1
1
1
0.9999999
0.9999999
0.9999999
1
1
1
1
1
1
1
1
1
1
1
1
1
1
1
1
0.9999999
0.9999999
1
1
1
1
1
1
1
1
1
1
0.9999999
0.9999999
0.9999999
1
1
1
1
1
1
1
1
1
1
1
1
1
1
1
1
1
1
1
1
1
1
1
1
1
1
0.9999999
0.9999999
0.9999999
1
1
1
1
1
1
1
1
1
1
1
1
1
1
1
1
1
1
1
1
1
1
1
1
1
1
1
1
1
1
1
1
1
1
0.9999999
0.9999998
0.9999998
1
1
1
1
1
1
1
1
1
1
0.9999999
0.9999998
0.9999998
0.9999998
0.9999999
1
1
1
1
1
1
1
1
0.9999999
0.9999995
0.9999992
0.9999995
0.9999999
1
1
1
1
1
1
1
1
1
0.9999999
0.9999999
1
1
1
1
1
0.9999999
0.9999999
0.9999999
1
1
1
1
1
1
1
1
1
1
0.9999999
0.9999999
0.9999999
1
1
1
1
1
0.9999999
0.9999999
0.9999999
1
1
1
1
1
1
1
1
1
1
1
1
1
1
1
1
1
1
1
1
1
1
1
1
1
1
1
1
1
1
1
1
1
1
1
1
1
1
1
1
1
1
1
1
1
1
1
1
1
1
1
1
1
1
1
1
1
1
1
1
1
1
1
1
1
1
1
1
1
1
1
1
1
1
1
1
1
1
1
1
1
1
1
1
0.9999999
0.9999999
0.9999999
1
1
1
1
1
1
1
1
1
1
1
1
1
1
1
1
1
1
0.9999999
0.9999999
0.9999999
1
1
1
1
1
1
1
1
1
1
1
1
1
1
1
1
1
1
1
0.9999999
0.9999999
0.9999999
1
1
1
1
1
1
0.9999999
1
1
1
1
1
1
1
1
1
1
1
1
1
1
1
1
1
1
0.9999998
0.9999995
0.9999996
0.9999999
1
1
1
1
1
1
1
0.9999999
0.9999997
1
1
1
1
1
1
1
1
1
1
1
1
1
1
1
1
1
1
1
1
1
1
1
1
1
1
1
1
1
1
1
1
1
1
1
1
1
1
1
1
1
1
1
1
1
1
1
1
1
1
1
1
1
1
1
1
1
1
1
1
1
1
1
1
1
1
1
1
1
1
1
1
1
1
1
1
1
1
1
1
1
1
1
1
1
1
1
1
1
1
1
1
1
1
1
1
1
1
1
1
1
1
1
1
1
1
1
1
1
1
1
1
1
1
1
1
1
1
1
1
1
1
1
1
1
1
1
1
0.9999999
0.9999999
1
1
1
1
1
1
1
1
1
1
1
1
1
0.9999998
0.9999993
0.9999992
0.9999994
0.9999998
1
1
1
1
1
1
1
1
0.9999999
0.9999996
0.9999991
0.9999992
0.9999997
1
1
1
1
1
1
1
0.9999999
1
1
1
1
1
1
1
1
1
0.9999999
0.9999999
1
1
1
1
0.9999999
0.9999996
0.999999
0.9999989
0.9999995
0.9999999
1
1
1
1
1
1
1
1
1
1
1
1
1
1
1
1
1
1
1
1
1
1
1
1
1
1
1
1
1
1
1
1
1
0.9999996
0.9999991
0.9999994
0.9999999
1
1
1
1
1
1
1
1
1
1
0.9999997
0.9999987
0.9999971
0.9999967
0.999997
0.9999978
0.9999991
0.9999996
0.9999996
0.9999992
0.9999963
0.9999794
0.9999439
0.9999517
0.9999837
0.9999982
0.9999999
1
1
1
1
1
1
1
1
1
0.9999999
0.9999999
0.9999999
1
1
1
1
1
1
0.9999999
0.9999999
0.9999999
1
1
1
1
1
1
1
1
1
1
1
1
1
1
1
1
0.9999999
0.9999997
0.9999998
0.9999999
1
1
1
1
1
1
1
1
1
1
1
1
1
1
1
1
1
1
1
1
1
1
1
1
1
1
1
1
1
1
1
1
1
1
1
1
1
1
1
1
1
1
1
1
1
1
1
1
1
1
1
1
1
1
1
1
1
1
1
1
1
1
1
1
1
1
1
1
1
1
1
1
1
1
1
1
1
1
1
1
1
1
1
1
1
0.9999999
0.9999999
0.9999999
1
1
1
1
1
1
1
1
1
1
1
1
1
1
1
0.9999999
0.9999994
0.9999994
0.9999997
1
1
1
1
1
1
1
1
1
1
1
1
1
1
1
1
1
1
1
1
0.9999999
0.9999999
0.9999999
0.9999999
0.9999999
0.9999998
0.9999998
0.9999999
1
1
1
1
1
1
1
0.9999999
0.9999999
1
1
1
1
1
1
1
1
0.9999999
0.9999995
0.9999979
0.9999978
0.9999989
0.9999998
1
1
1
1
1
0.9999998
0.999999
0.9999956
0.9999926
0.999996
1
1
1
1
1
1
1
1
1
1
1
1
1
1
1
1
1
1
1
1
1
1
1
1
1
1
1
1
1
1
1
1
1
1
1
1
1
1
1
1
1
1
1
1
1
1
1
1
1
1
1
1
1
1
1
1
1
1
1
1
1
1
1
1
1
1
1
1
1
1
1
1
1
1
1
1
1
1
1
1
1
1
1
1
1
1
1
1
1
1
1
1
1
1
1
1
1
1
1
1
1
1
1
1
1
1
1
1
1
1
1
1
1
1
1
1
1
1
1
1
1
1
1
1
1
1
1
1
1
1
1
1
1
1
1
1
1
1
1
1
1
1
1
1
1
1
1
1
1
1
1
0.9999999
0.9999992
0.9999952
0.9999889
0.9999897
0.9999958
0.9999994
1
1
1
1
1
1
1
1
0.9999999
0.9999993
0.9999975
0.9999966
0.9999974
0.9999989
0.9999998
1
1
1
1
1
1
0.9999999
1
1
1
1
1
1
1
1
1
0.9999998
0.9999999
0.9999999
0.9999999
0.9999998
0.9999988
0.9999945
0.9999886
0.9999925
0.9999982
0.9999999
1
1
1
1
1
1
1
0.9999999
0.9999998
0.9999996
0.9999995
0.9999995
0.9999994
0.9999994
0.9999996
0.9999999
1
1
1
1
1
0.9999999
0.9999997
0.9999998
0.9999999
1
1
1
1
1
1
1
0.9999999
0.9999989
0.9999976
0.9999986
0.9999997
1
1
1
1
0.9999998
0.9999997
0.9999997
0.9999999
0.9999999
0.9999998
0.9999993
0.9999973
0.9999919
0.9999797
0.9999624
0.999958
0.999968
0.9999814
0.9999798
0.9999459
0.9996844
0.999254
0.9994667
0.9998464
0.9999858
0.9999993
1
1
1
1
1
0.9999999
0.9999998
0.9999998
0.9999999
1
1
1
1
0.9999999
1
1
1
1
1
1
0.9999999
0.9999999
0.9999999
1
1
1
1
1
1
1
1
1
1
1
1
1
1
1
0.9999999
0.9999995
0.999999
0.9999993
0.9999998
1
1
1
1
1
1
1
1
0.9999999
0.9999997
0.9999987
0.9999974
0.999998
0.9999995
1
1
1
1
1
1
1
1
1
1
1
1
1
1
1
1
1
1
1
1
1
1
1
1
1
1
1
1
1
1
1
1
1
1
1
1
1
1
1
1
1
1
1
1
1
1
1
1
1
1
1
1
1
1
1
1
1
1
1
1
1
1
1
1
1
1
1
1
1
1
1
1
1
1
1
1
1
1
1
1
1
1
1
1
1
1
1
0.9999999
0.9999991
0.9999974
0.999998
0.9999993
0.9999999
1
1
1
1
1
1
1
1
1
1
1
0.9999999
0.9999997
0.9999995
0.9999997
0.9999999
1
1
1
1
1
1
0.9999998
0.9999991
0.999998
0.9999986
0.9999997
1
1
1
1
1
1
1
0.9999998
0.9999997
0.9999998
1
1
1
1
1
1
0.9999998
0.999999
0.9999939
0.9999876
0.9999922
0.999998
0.9999999
1
1
0.9999999
0.9999997
0.9999987
0.9999933
0.9999694
0.9999184
0.9999262
0.9999754
0.999998
1
1
1
1
1
1
1
1
1
1
1
1
1
1
1
1
1
1
1
1
1
1
1
1
1
1
1
1
1
1
1
1
1
1
1
1
1
1
1
1
1
1
1
1
1
1
1
1
1
1
1
1
1
1
1
1
1
1
1
1
1
1
1
1
1
1
1
1
1
1
1
1
1
1
1
1
1
1
1
1
1
1
1
1
1
1
1
1
1
1
1
1
1
1
1
1
1
1
1
1
1
1
1
1
1
1
1
1
1
1
1
1
1
1
1
1
1
0.9999999
0.9999998
0.9999994
0.9999995
0.9999998
1
1
1
1
1
1
1
1
1
1
1
1
1
1
1
1
1
1
1
1
1
1
1
1
1
1
1
1
1
1
1
1
1
1
1
1
1
0.9999999
0.9999989
0.9999886
0.9999459
0.9999036
0.9999399
0.9999848
0.9999985
0.9999988
0.9999984
0.9999983
0.9999992
0.9999998
0.9999999
0.9999999
0.9999998
0.9999993
0.9999971
0.9999922
0.9999878
0.9999872
0.9999874
0.9999894
0.9999952
0.9999995
1
1
1
1
1
1
1
1
1
1
1
1
1
1
1
1
0.9999999
0.9999996
0.9999979
0.9999871
0.9999478
0.9999443
0.9999731
0.9999962
0.9999998
1
1
1
0.9999999
0.9999998
0.9999995
0.9999986
0.9999958
0.9999861
0.999945
0.99977
0.9995631
0.9997083
0.9999283
0.9999954
0.9999999
0.9999999
0.9999999
0.9999999
0.9999995
0.9999975
0.9999961
0.9999972
0.9999993
0.9999999
1
1
1
1
1
1
1
0.9999997
0.999997
0.9999947
0.9999968
0.9999993
0.9999999
0.9999998
0.9999993
0.9999943
0.9999688
0.9998969
0.9998867
0.9999251
0.9999787
0.9999926
0.9999907
0.9999745
0.9998758
0.9993397
0.9982133
0.9985525
0.9995873
0.9999028
0.9998202
0.9988946
0.9960717
0.9966102
0.9988592
0.9998595
0.9999925
0.9999988
0.9999989
0.9999984
0.9999942
0.999975
0.9999656
0.9999765
0.9999947
0.9999997
1
1
1
1
1
1
0.9999999
0.9999999
1
1
1
1
1
1
0.9999999
0.9999999
1
1
1
1
1
1
1
1
1
1
1
1
1
0.9999999
0.9999998
0.9999991
0.9999974
0.999997
0.9999985
0.9999998
1
1
1
0.9999999
0.9999998
0.9999992
0.9999966
0.9999839
0.9999326
0.9999005
0.9999484
0.9999915
0.9999996
1
1
1
1
1
1
1
1
1
1
1
1
1
1
1
1
1
1
1
1
1
1
1
1
1
1
1
1
1
1
1
1
1
1
1
1
1
1
1
1
1
1
1
1
1
1
1
1
1
1
1
1
1
1
1
1
1
1
1
1
0.9999999
0.9999999
0.9999999
1
1
1
1
0.9999998
0.9999998
0.9999999
1
1
1
1
1
1
1
1
1
1
0.9999999
0.9999999
1
1
1
1
1
0.9999996
0.9999963
0.9999946
0.9999961
0.999999
0.9999999
0.9999999
0.9999999
0.9999999
1
1
1
1
1
1
0.9999999
0.9999994
0.9999976
0.9999951
0.9999963
0.9999989
0.9999999
1
1
1
1
1
0.9999999
0.9999988
0.9999907
0.999987
0.9999939
0.9999991
1
1
1
1
1
1
1
1
0.9999999
0.9999998
0.9999997
0.9999998
1
1
0.9999999
0.9999997
0.9999982
0.9999871
0.9999427
0.9999433
0.9999798
0.9999978
0.9999999
1
0.9999999
0.9999994
0.9999954
0.9999701
0.9998439
0.9994287
0.9992256
0.9995917
0.9999305
0.999997
0.9999991
1
1
1
1
1
1
1
1
1
1
1
1
1
1
1
1
1
1
1
1
1
1
1
1
1
1
1
1
1
1
1
1
1
1
1
1
1
1
1
1
1
1
1
1
1
1
1
1
1
1
1
1
1
1
1
1
1
1
1
1
1
1
0.9999999
1
1
1
1
1
1
1
1
1
1
1
1
1
1
1
1
1
1
1
1
1
1
1
1
1
1
1
1
1
1
1
1
1
1
1
1
1
1
1
1
1
1
1
1
1
1
1
1
1
1
1
1
1
1
1
1
0.9999999
0.9999986
0.9999902
0.9999572
0.9999375
0.9999524
0.9999842
0.9999985
0.9999999
0.9999999
0.9999998
0.9999996
0.9999989
0.9999978
0.999998
0.9999987
0.9999996
0.9999999
1
1
0.9999999
0.9999998
0.9999995
0.9999991
0.9999989
0.9999992
0.9999997
0.9999998
0.9999998
0.9999998
0.9999996
0.9999995
0.9999995
0.9999997
0.9999999
1
1
1
0.9999999
0.9999999
0.9999999
0.9999998
0.9999998
0.9999998
0.9999992
0.9999895
0.999918
0.9996465
0.9996117
0.9997838
0.9999655
0.9999742
0.9999405
0.999806
0.9998005
0.9998843
0.9999739
0.9999969
0.9999975
0.9999971
0.9999952
0.9999876
0.9999596
0.9998512
0.9994664
0.9990878
0.9994129
0.9998819
0.9999947
0.9999999
1
1
1
1
1
1
1
1
1
1
1
1
1
1
1
0.9999998
0.9999986
0.9999876
0.999906
0.9997316
0.999816
0.9999504
0.9999957
0.9999998
0.9999999
0.9999998
0.9999994
0.9999984
0.9999956
0.9999867
0.9999547
0.9997965
0.9987004
0.9928401
0.9907294
0.9942805
0.9989679
0.9999428
0.9999909
0.9999931
0.9999925
0.9999871
0.9999549
0.9998959
0.9999127
0.9999694
0.9999963
0.9999998
1
1
1
1
1
1
1
0.9999999
0.9999991
0.9999917
0.9999897
0.999994
0.999999
0.9999993
0.9999972
0.999978
0.9998208
0.9988891
0.9967472
0.9965539
0.9980771
0.9996395
0.9998899
0.9998117
0.9991496
0.9939153
0.9795212
0.9826051
0.9944786
0.9994181
0.9996913
0.9987996
0.9916866
0.9888857
0.9922395
0.9982106
0.9998542
0.9998993
0.99986
0.9994612
0.9979491
0.997662
0.9987045
0.9997859
0.999988
0.9999988
0.9999997
0.9999999
0.9999999
0.9999998
0.9999994
0.9999994
0.9999998
1
1
1
1
1
1
1
1
1
1
1
1
1
1
1
1
0.9999998
0.9999997
0.9999997
0.9999997
0.9999997
0.9999994
0.9999982
0.9999947
0.9999862
0.9999704
0.9999648
0.9999776
0.9999942
0.9999987
0.9999987
0.9999987
0.9999987
0.9999983
0.9999945
0.9999747
0.999884
0.9995343
0.9990969
0.9993038
0.9998125
0.9999857
0.9999997
1
1
1
1
1
1
1
1
1
1
0.9999999
0.9999997
0.9999992
0.9999994
0.9999998
1
1
1
1
1
1
1
1
1
1
1
1
1
1
1
1
1
1
1
1
1
1
1
1
1
1
1
1
1
1
1
1
1
1
1
1
1
1
1
1
1
1
1
1
1
0.9999999
0.9999996
0.9999996
0.9999998
1
1
1
0.9999999
0.9999995
0.9999994
0.9999996
0.9999999
1
1
1
1
1
1
1
0.9999999
0.9999997
0.9999998
0.9999999
1
1
1
0.9999998
0.9999982
0.999993
0.9999922
0.9999947
0.9999988
0.999999
0.9999987
0.9999988
0.9999995
0.9999999
1
1
1
1
0.9999997
0.9999977
0.9999886
0.9999666
0.9999663
0.999986
0.9999981
0.9999999
1
1
1
1
1
1
0.9999991
0.999987
0.9999791
0.9999823
0.9999942
0.9999993
1
1
1
1
0.9999998
0.9999993
0.9999982
0.9999958
0.9999954
0.9999977
0.9999997
0.9999999
0.9999999
0.9999996
0.9999978
0.9999734
0.9998164
0.9997645
0.999814
0.9999493
0.9999962
0.9999999
1
1
0.9999997
0.9999942
0.9999186
0.9991462
0.9955715
0.9955909
0.9983218
0.9998168
0.9999939
0.9999968
0.9999833
1
1
1
1
1
1
1
1
1
1
1
1
1
1
1
1
1
1
1
1
1
1
1
1
1
1
1
1
1
1
1
1
1
1
1
1
1
1
1
1
1
1
1
1
1
1
1
1
1
1
1
1
1
1
1
1
1
1
1
1
1
1
0.9999999
0.9999999
1
1
1
1
1
1
1
1
1
1
1
1
1
1
1
1
1
1
1
1
1
1
1
0.9999999
0.9999996
0.9999988
0.9999978
0.9999971
0.9999967
0.9999964
0.9999966
0.9999982
0.9999993
0.9999993
0.999999
0.9999977
0.9999953
0.9999926
0.9999903
0.9999876
0.9999832
0.9999797
0.9999806
0.9999874
0.9999963
0.9999987
0.9999986
0.999998
0.9999966
0.9999938
0.9999873
0.9999872
0.9999931
0.9999962
0.9999937
0.9999559
0.999654
0.9987131
0.9984759
0.999082
0.9998079
0.9999874
0.9999927
0.9999901
0.9999797
0.9999308
0.9997547
0.999623
0.9996395
0.9998176
0.9999709
0.9999971
0.9999966
0.9999938
0.9999846
0.9999583
0.999895
0.9998771
0.9999422
0.9999917
0.9999984
0.9999979
0.9999962
0.999991
0.9999796
0.9999747
0.9999826
0.9999956
0.9999984
0.9999981
0.9999977
0.9999977
0.9999979
0.999998
0.9999977
0.999997
0.9999971
0.9999965
0.9999898
0.9999159
0.9994874
0.9984448
0.9988435
0.999661
0.9998806
0.9997057
0.9985549
0.9965444
0.9967168
0.9984795
0.9997021
0.9999473
0.9999428
0.9999359
0.9999222
0.9998469
0.9994057
0.9966984
0.9884674
0.9894566
0.9967017
0.9997047
0.9999871
0.9999943
0.9999942
0.9999955
0.9999972
0.9999967
0.9999922
0.9999915
0.9999965
0.9999996
1
1
1
1
1
1
0.9999998
0.9999988
0.9999903
0.9998991
0.999471
0.9993682
0.9995613
0.9999017
0.9999938
0.9999993
0.9999992
0.9999981
0.9999909
0.9999509
0.9997823
0.9992863
0.9985088
0.994274
0.9615704
0.9373123
0.9629269
0.9922471
0.9994247
0.9996065
0.9995612
0.9988104
0.9937686
0.9878098
0.9906665
0.9971822
0.9997581
0.9999908
0.9999985
0.9999996
0.9999999
1
1
1
1
1
0.9999999
0.9999998
0.9999975
0.9999801
0.9999771
0.999991
0.9999987
0.999999
0.9999953
0.9999251
0.9988444
0.9903765
0.9689665
0.9701449
0.988952
0.9986948
0.9994924
0.9984858
0.9863365
0.9136314
0.8974881
0.9478995
0.992948
0.9994634
0.9995818
0.9982612
0.9890737
0.9874068
0.9922895
0.9983836
0.9993843
0.9987875
0.9886572
0.9622189
0.971617
0.9921184
0.9992773
0.9999371
0.9999905
0.9999983
0.9999983
0.9999972
0.9999931
0.9999937
0.9999974
0.9999995
0.9999999
1
1
1
1
1
1
1
1
1
1
1
1
1
1
1
1
0.9999998
0.999999
0.9999971
0.999995
0.9999951
0.999996
0.9999905
0.9999392
0.9996916
0.9994022
0.9995584
0.9998779
0.9999768
0.9999738
0.999965
0.9999512
0.9999474
0.9999504
0.9999504
0.9998967
0.9991623
0.9938547
0.9919889
0.9958033
0.9992153
0.9999613
0.9999997
1
1
1
1
1
1
1
0.9999999
0.9999997
0.9999986
0.9999927
0.9999838
0.9999891
0.9999974
0.9999998
1
1
1
1
1
1
1
1
1
1
1
1
1
1
1
1
1
1
1
1
1
1
1
1
1
1
1
1
1
1
1
1
1
1
1
1
1
1
1
1
1
1
1
1
1
0.9999999
0.9999993
0.9999984
0.9999989
0.9999997
1
1
1
1
1
0.9999997
0.9999987
0.9999989
0.9999996
0.9999999
1
1
1
1
0.9999998
0.9999991
0.9999992
0.9999997
1
1
0.9999999
0.9999992
0.9999935
0.9999883
0.9999902
0.9999956
0.9999953
0.9999909
0.9999865
0.9999915
0.999998
0.9999998
1
1
1
0.9999997
0.9999968
0.9999768
0.9998942
0.9997868
0.9998655
0.9999652
0.999997
0.9999999
0.9999999
0.9999998
0.9999995
0.9999981
0.999995
0.9999943
0.9999952
0.9999966
0.9999966
0.9999955
0.9999907
0.9999782
0.9999761
0.9999869
0.9999944
0.9999939
0.9999868
0.9999449
0.9998601
0.9998814
0.9999578
0.9999948
0.9999995
0.9999995
0.9999989
0.9999937
0.9999185
0.9997048
0.9996947
0.9998125
0.9999578
0.9999965
0.9999998
0.9999999
0.9999999
0.9999998
0.9999996
0.9999981
0.999966
0.9993054
0.9937747
0.9920193
0.9935831
0.9982519
0.9995666
0.9993517
0.9992598
0.9992857
1
1
1
1
1
1
1
1
1
1
1
1
1
1
1
1
1
1
1
1
1
1
1
1
1
1
1
1
1
1
1
1
1
1
1
1
1
1
1
1
1
1
1
1
1
1
1
1
1
1
1
1
1
1
1
1
1
1
1
1
1
1
1
1
1
1
1
1
1
1
1
1
1
1
1
1
1
1
1
1
1
1
1
1
1
1
1
1
1
1
1
1
0.9999998
0.9999989
0.9999951
0.999987
0.9999751
0.999957
0.9999343
0.9999329
0.999941
0.999961
0.999977
0.9999781
0.9999696
0.999923
0.9997551
0.9993411
0.9987229
0.9983958
0.9984276
0.9989184
0.9996209
0.9998354
0.9998319
0.9997843
0.9996599
0.9994236
0.9989863
0.9981793
0.9970637
0.996597
0.9968137
0.9982087
0.999703
0.9999565
0.9999306
0.9998213
0.9995509
0.9991085
0.998701
0.9986898
0.9991874
0.9997579
0.9997814
0.9994676
0.9967661
0.986995
0.9863903
0.9944593
0.9993041
0.9998918
0.999855
0.9996894
0.9991921
0.9974984
0.992238
0.9885823
0.9929502
0.9985228
0.9999025
0.9999357
0.9999037
0.9996948
0.9983016
0.9947546
0.9952875
0.9983123
0.9997987
0.9999771
0.9999754
0.99996
0.9998961
0.999711
0.9995584
0.9996266
0.9998543
0.9999768
0.9999858
0.9999811
0.9999643
0.9999456
0.9999449
0.9999543
0.9999741
0.9999894
0.9999868
0.9999818
0.9999602
0.9996177
0.997195
0.9962695
0.997362
0.9994807
0.9995711
0.9976113
0.9883249
0.9740278
0.9802971
0.9940991
0.9992049
0.9995864
0.9991589
0.9987425
0.9983307
0.9972554
0.9908479
0.9533276
0.911906
0.9534294
0.9922187
0.9995302
0.9998409
0.9998162
0.9998148
0.9998543
0.9998653
0.9998198
0.9998313
0.9999424
0.9999941
0.9999988
0.9999985
0.9999967
0.9999975
0.9999993
0.9999999
0.9999998
0.9999988
0.9999888
0.9998743
0.9990453
0.9985897
0.998863
0.9996567
0.9999667
0.999987
0.9999868
0.9999842
0.9999697
0.9998644
0.9989356
0.9920297
0.9800673
0.9544464
0.8702509
0.8546575
0.8546575
0.9215448
0.9885789
0.9972279
0.996211
0.9795689
0.8781203
0.8457322
0.9110834
0.9855492
0.9990078
0.9998896
0.9999755
0.999975
0.9999656
0.999975
0.9999928
0.9999993
0.9999999
0.9999999
0.9999998
0.9999996
0.9999986
0.9999869
0.9999529
0.9999521
0.9999754
0.999993
0.9999982
0.9999958
0.99991
0.9985096
0.9836116
0.8867092
0.8957858
0.9675583
0.9966258
0.9984711
0.9937869
0.8923066
0.6690815
0.7330601
0.9173119
0.9917217
0.9994028
0.9994989
0.997724
0.9906126
0.9898027
0.9940004
0.9986963
0.9993488
0.9988221
0.9812776
0.9412578
0.941078
0.9609497
0.9926395
0.9996847
0.9999775
0.9999735
0.9999372
0.9999294
0.9999602
0.9999924
0.9999991
0.9999998
1
1
1
1
1
1
1
1
1
1
1
1
1
0.9999999
0.9999997
0.9999993
0.9999993
0.9999993
0.999998
0.9999837
0.9998817
0.9996367
0.9996381
0.9998529
0.9998972
0.9994576
0.9978563
0.9982279
0.9993875
0.999894
0.9997206
0.9988822
0.9981538
0.998209
0.9986293
0.9989891
0.9987725
0.9961894
0.9890808
0.9885372
0.9885372
0.9885372
0.9951344
0.999437
0.999987
1
1
1
1
0.9999999
0.9999997
0.9999984
0.9999913
0.9999506
0.9998563
0.9998833
0.9999652
0.9999964
0.9999998
1
1
1
1
1
0.9999999
0.9999999
0.9999999
0.9999999
1
1
1
1
1
1
1
1
1
1
1
1
1
1
1
1
1
1
1
1
1
1
1
1
1
1
1
1
1
1
1
1
1
1
1
1
1
0.9999999
0.9999987
0.9999967
0.9999974
0.9999992
0.9999999
1
1
1
1
0.9999999
0.9999985
0.9999965
0.9999979
0.9999995
1
1
0.9999999
0.9999994
0.9999977
0.999998
0.9999993
0.9999998
0.9999998
0.9999993
0.9999967
0.9999872
0.9999829
0.9999892
0.9999895
0.9999802
0.9999369
0.9999301
0.9999664
0.999995
0.9999998
1
1
0.9999998
0.9999979
0.9999782
0.999851
0.999393
0.999348
0.9996546
0.9999423
0.9999959
0.9999981
0.9999964
0.9999888
0.9999605
0.9998712
0.9996903
0.9996353
0.999768
0.9999454
0.9999611
0.9999416
0.9998271
0.999708
0.9998167
0.9999564
0.9999718
0.9999451
0.9996716
0.9989157
0.9991227
0.9997232
0.9999709
0.999999
0.9999993
0.9999987
0.9999843
0.9997989
0.9994876
0.9996644
0.9999072
0.9999845
0.9999862
0.9999861
0.9999867
0.9999892
0.9999873
0.9999727
0.9998987
0.9997581
0.9997612
0.9997158
0.9988023
0.9986702
0.999054
0.9992487
0.9992186
0.9963543
0.9876402
0.9873952
0.9912129
1
1
1
1
1
1
1
1
1
1
0.9999999
1
1
0.9999999
1
1
1
1
1
1
1
1
1
1
1
1
0.9999999
1
1
1
1
1
1
1
1
1
1
1
1
1
1
1
1
1
1
1
1
1
1
1
1
1
1
1
1
1
1
1
1
1
1
1
1
1
1
1
1
1
1
1
1
1
1
1
1
1
1
1
1
1
1
1
1
1
1
1
1
1
1
1
1
1
1
1
1
1
1
1
1
1
0.9999999
0.9999997
0.9999987
0.9999969
0.9999947
0.9999852
0.9999039
0.9993808
0.9976616
0.9954528
0.993821
0.991492
0.9894709
0.9898838
0.9926539
0.9964147
0.9973479
0.9971941
0.9962878
0.9911883
0.9684405
0.9207892
0.9083614
0.930848
0.9758035
0.9927866
0.9913812
0.9868447
0.9833833
0.9820293
0.9797883
0.9703575
0.9354213
0.8934253
0.9024567
0.9612844
0.9960073
0.99949
0.9991672
0.9978634
0.9927721
0.972346
0.9492225
0.9666976
0.99252
0.9986831
0.9980765
0.9943835
0.9703512
0.9215241
0.9372288
0.9827601
0.9978331
0.9982097
0.9975113
0.9938877
0.9818541
0.9293066
0.8470714
0.8734014
0.9625915
0.9967416
0.9986191
0.9981895
0.9960182
0.9826946
0.9536686
0.961135
0.9874156
0.9986297
0.9994032
0.9993917
0.9992687
0.9987662
0.9972324
0.9956045
0.9957916
0.9971756
0.9989006
0.9996501
0.9997282
0.9997163
0.9996358
0.999497
0.9994731
0.9995278
0.9997125
0.9999284
0.9999849
0.9999758
0.9998193
0.997114
0.9935045
0.9945371
0.9980874
0.9995847
0.9989294
0.9910797
0.9534001
0.9115177
0.9437733
0.9839252
0.9980617
0.9990103
0.9977268
0.9856813
0.9628365
0.9536177
0.8074591
0.3897491
0.4552806
0.8393081
0.9857242
0.9980356
0.9982903
0.9981991
0.9978774
0.9973496
0.9965059
0.9966481
0.9986522
0.9998348
0.9999912
0.9999976
0.9999919
0.9999864
0.9999924
0.9999986
0.9999993
0.9999984
0.9999882
0.9998696
0.9986281
0.9970678
0.9974871
0.9990713
0.9998906
0.9999622
0.9999613
0.9999265
0.9998767
0.9997661
0.9984757
0.9859401
0.9611425
0.847774
0.6953999
0.6953999
0.7311443
0.9174412
0.9885726
0.9969301
0.9966744
0.9649262
0.5716281
0.4214362
0.6128968
0.9247788
0.9937781
0.9993864
0.9994967
0.9993401
0.9991585
0.9995255
0.9999006
0.9999927
0.9999994
0.9999998
0.9999997
0.9999995
0.9999987
0.9999893
0.9999237
0.9999056
0.9999553
0.9999652
0.9999272
0.9997201
0.9996545
0.999773
0.9991854
0.9787583
0.8634811
0.850513
0.9188239
0.9885725
0.9969918
0.9802827
0.7373471
0.562351
0.7575733
0.9529326
0.9946887
0.9982741
0.9979597
0.997042
0.9950962
0.9843767
0.9625006
0.9657754
0.9855097
0.9981861
0.9983154
0.990084
0.97151
0.9740968
0.9885729
0.9983507
0.9993719
0.9990914
0.9993264
0.9997915
0.9999751
0.9999974
0.9999997
1
1
1
1
1
1
1
1
1
1
1
1
1
1
0.9999998
0.999999
0.9999967
0.9999944
0.9999929
0.9999877
0.9999472
0.9996057
0.9973705
0.995461
0.9967458
0.9990602
0.9997529
0.9994381
0.9985128
0.9977081
0.9978504
0.9991087
0.9993189
0.99672
0.9831405
0.9813001
0.9813001
0.9813563
0.9813351
0.9813351
0.9877103
0.9963183
0.9965256
0.9964327
0.9979408
0.9996302
0.9999865
0.9999999
0.9999999
0.9999996
0.999998
0.9999908
0.999956
0.999771
0.9990988
0.9990241
0.9995641
0.9999446
0.9999972
1
1
1
1
0.9999999
0.9999995
0.9999995
0.9999997
0.9999999
1
1
1
1
1
1
1
1
1
1
1
1
1
1
1
1
1
0.9999999
0.9999999
1
1
1
0.9999999
0.9999998
0.9999998
0.9999999
1
1
1
1
1
1
1
1
1
1
1
1
1
0.9999999
0.9999992
0.9999968
0.9999967
0.999997
0.9999989
0.9999999
1
1
0.9999999
0.9999991
0.9999966
0.9999965
0.9999965
0.9999986
0.9999998
0.9999995
0.9999975
0.9999943
0.999996
0.9999988
0.999999
0.999998
0.9999922
0.9999738
0.9999687
0.9999773
0.999983
0.9999738
0.9999058
0.9997074
0.999757
0.9999244
0.999992
0.9999998
0.9999999
0.9999999
0.9999989
0.9999893
0.9998913
0.9992058
0.9978919
0.9985003
0.9995355
0.9999475
0.999997
0.9999967
0.9999803
0.9998436
0.9990803
0.9966244
0.9939599
0.9948691
0.9982895
0.99985
0.9998047
0.9984934
0.9974021
0.9978536
0.9993401
0.9998467
0.9998075
0.9992262
0.9971744
0.9968565
0.9979192
0.9995621
0.9999739
0.9999983
0.9999979
0.9999931
0.9999587
0.999735
0.9992044
0.9993915
0.9998501
0.9999742
0.9999454
0.9996638
0.9995896
0.9997083
0.9999475
0.9999332
0.9996483
0.9973124
0.9920072
0.9940891
0.9984058
0.9998849
0.9999614
0.9998899
0.9979384
0.9883068
0.9903598
0.9972999
0.9997711
0.9999468
1
1
1
1
0.9999999
1
1
1
0.9999999
1
1
1
1
0.9999999
1
1
1
1
1
1
1
1
1
1
1
1
1
1
1
1
1
1
1
1
1
1
1
1
1
1
1
1
1
1
1
1
1
1
1
1
1
1
1
1
1
1
1
1
1
1
1
1
1
1
1
1
1
1
1
1
1
1
1
1
1
1
1
1
1
1
1
1
1
1
1
1
1
1
1
1
1
1
1
1
1
1
1
1
1
1
1
1
1
1
1
1
1
0.9999999
0.9999985
0.9999909
0.9999723
0.9999565
0.9999456
0.9999215
0.9998111
0.9993718
0.9986048
0.9981204
0.9978344
0.9962562
0.9827065
0.9251362
0.8662628
0.8545124
0.8341261
0.7795105
0.7738548
0.8296454
0.9217087
0.9312651
0.9101312
0.8958355
0.8796746
0.6609402
0.2352511
0.2354874
0.5936915
0.9109229
0.9183383
0.8175415
0.6809958
0.7233333
0.8413715
0.8027951
0.4232362
0.1028739
0.1545279
0.647212
0.9539037
0.9845753
0.9855242
0.9807234
0.8722402
0.558596
0.6165315
0.8548311
0.9764399
0.9885419
0.9870472
0.9576695
0.6687645
0.4547978
0.681218
0.9457972
0.9722068
0.9382457
0.9040124
0.8983914
0.7557539
0.2980122
0.2330112
0.3536321
0.7877368
0.9585467
0.9761025
0.9655875
0.7823091
0.3689284
0.4783989
0.8624051
0.991082
0.998191
0.998224
0.9965118
0.9779449
0.9438087
0.9529086
0.9692132
0.9762999
0.979535
0.9833195
0.9872773
0.9898347
0.9917241
0.9936343
0.9954728
0.9965856
0.9967564
0.9971937
0.9990229
0.9998869
0.9998752
0.9991107
0.9936236
0.9918379
0.9949739
0.9992092
0.999554
0.9974358
0.9773526
0.8830242
0.8544377
0.9007091
0.9799697
0.9894965
0.9691241
0.9639789
0.9793796
0.9517671
0.5541595
0.1123782
0.09537408
0.09588945
0.4828087
0.8867414
0.8914504
0.8624103
0.8878127
0.9540705
0.9722785
0.9624461
0.976239
0.9941471
0.999502
0.9999855
0.9999974
0.9999881
0.9999797
0.9999853
0.9999966
0.9999975
0.9999909
0.9998923
0.9985348
0.9943002
0.9942438
0.9975613
0.9995954
0.9999092
0.9999063
0.9998749
0.9998234
0.9996967
0.9988233
0.9925172
0.9655258
0.7525212
0.5489037
0.5891552
0.8391251
0.9735602
0.9823013
0.9838804
0.9845516
0.987426
0.9822826
0.8304911
0.5909759
0.6920606
0.8990351
0.9898896
0.9965933
0.9938013
0.990842
0.9943484
0.9986816
0.9998976
0.9999947
0.9999992
0.9999994
0.9999991
0.9999982
0.9999907
0.9999098
0.9997777
0.999816
0.9999431
0.999978
0.9999388
0.9988616
0.990081
0.9838923
0.9915112
0.9933162
0.9618947
0.8543881
0.9070796
0.9788343
0.9906886
0.9884457
0.9828234
0.8940657
0.5797315
0.6278883
0.8537327
0.9813539
0.9940171
0.9789523
0.811415
0.655348
0.8080884
0.9668526
0.9966526
0.9990007
0.999447
0.999319
0.9990032
0.9989512
0.9987067
0.9925012
0.9858151
0.9916208
0.9982259
0.9998658
0.9999908
0.9999996
0.9999999
0.9999999
0.9999999
0.9999999
0.9999999
1
1
1
1
1
1
1
1
1
0.9999997
0.9999985
0.9999931
0.9999803
0.9999724
0.9999698
0.9999528
0.9997662
0.9977584
0.9874728
0.986897
0.9944969
0.9992752
0.9995334
0.9990227
0.9912436
0.9279303
0.9055424
0.9366236
0.9877222
0.9994391
0.9999661
0.9999406
0.9997957
0.9993752
0.9983989
0.9973086
0.9973087
0.9981744
0.9993688
0.9997165
0.9997421
0.9998021
0.999912
0.9999669
0.9999872
0.9999918
0.9999819
0.9998761
0.9990545
0.9950122
0.9920514
0.995215
0.9990338
0.9999384
0.9999988
1
1
0.9999999
0.9999992
0.9999978
0.9999981
0.9999993
0.9999999
1
1
1
1
1
1
1
1
1
1
1
1
1
1
1
1
1
1
0.9999999
0.9999998
0.9999992
0.9999986
0.9999988
0.9999996
1
1
1
1
1
1
1
1
1
1
1
1
1
0.9999999
0.9999996
0.9999993
0.9999995
0.9999997
0.9999992
0.9999969
0.9999967
0.9999971
0.9999986
0.9999986
0.9999987
0.9999994
0.9999994
0.9999974
0.9999965
0.9999967
0.9999986
0.9999997
0.9999993
0.9999945
0.9999879
0.9999927
0.9999967
0.9999956
0.9999842
0.9999226
0.9998472
0.9999079
0.9999754
0.9999783
0.9999431
0.9996303
0.9989756
0.9992976
0.9998289
0.999988
0.9999997
0.9999998
0.9999991
0.9999903
0.9999163
0.9993847
0.9965826
0.9939248
0.996782
0.9993609
0.9999639
0.999998
0.999998
0.9999906
0.9998721
0.998413
0.9847312
0.9552075
0.9672138
0.9909305
0.9993067
0.9998972
0.9986041
0.9970115
0.9975966
0.9990263
0.9991072
0.9961717
0.9919791
0.9919791
0.9944882
0.9987773
0.9999261
0.9999913
0.9999904
0.9999799
0.9999227
0.999595
0.997853
0.9954635
0.9971611
0.9993674
0.9999522
0.9999648
0.9999268
0.9998823
0.9998881
0.999935
0.9999521
0.9997854
0.9960901
0.9862834
0.9861951
0.9936187
0.9990452
0.9999507
0.9999614
0.9999141
0.9983533
0.9860571
0.9826441
0.9924784
0.9988264
0.9997827
1
1
1
1
1
1
0.9999999
1
1
1
1
0.9999999
1
1
1
1
1
1
1
1
1
1
1
1
1
1
1
1
1
1
1
1
1
1
1
1
1
1
1
1
1
1
1
1
1
1
1
1
1
1
1
1
1
1
1
1
0.9999999
1
1
1
1
1
1
1
1
1
1
1
1
1
1
1
1
1
1
1
1
1
1
1
1
1
1
1
1
1
1
1
1
1
1
1
1
1
1
1
1
1
1
1
1
1
1
1
1
1
1
1
1
1
1
1
1
1
1
1
1
1
0.9999995
0.9999903
0.9998566
0.99871
0.9949824
0.9924001
0.9918323
0.9907774
0.9847777
0.9621134
0.9283044
0.9139809
0.9057274
0.8880039
0.7863792
0.4256444
0.2494105
0.274975
0.2645937
0.1700229
0.1305051
0.23691
0.5346641
0.5387193
0.3139003
0.1070842
0.06288643
0.04078788
0.03615198
0.03615198
0.1833321
0.4236959
0.343442
0.1318425
0.0434919
0.04362339
0.05291869
0.05606444
0.02937216
0.02646429
0.152172
0.44515
0.3914888
0.2023687
0.1186086
0.1322534
0.232484
0.3091523
0.272301
0.3487708
0.7770507
0.7825898
0.3236675
0.130344
0.130344
0.1390319
0.4803317
0.7659198
0.6596601
0.2685159
0.04762632
0.03737987
0.03737987
0.2037668
0.3145186
0.2484934
0.08707975
0.05909983
0.06722917
0.04809507
0.04063644
0.06409955
0.4266976
0.9045122
0.9847082
0.9773325
0.956195
0.9472923
0.9526498
0.9427126
0.842211
0.6966565
0.689748
0.7181929
0.7765627
0.8597722
0.927712
0.9315144
0.8927636
0.8651956
0.8908736
0.9548213
0.9939752
0.9997162
0.9992821
0.9897067
0.9788654
0.9846605
0.9961112
0.9997309
0.9998198
0.9985201
0.969461
0.8122269
0.8153143
0.9270419
0.988978
0.9843902
0.9245759
0.6477614
0.5357665
0.6828296
0.8596053
0.8397938
0.6298955
0.2061395
0.08389709
0.1303204
0.2138484
0.21712
0.2356545
0.3741416
0.6190875
0.8231888
0.9481009
0.9913521
0.9991006
0.9999734
0.9999991
0.9999977
0.9999864
0.9999886
0.9999944
0.9999937
0.9999618
0.9993493
0.9935195
0.9899864
0.992523
0.9979494
0.9997816
0.9998081
0.9992745
0.9963228
0.9921106
0.9936278
0.99677
0.9913329