/*--------------------------------*- C++ -*----------------------------------*\
| =========                 |                                                 |
| \\      /  F ield         | foam-extend: Open Source CFD                    |
|  \\    /   O peration     | Version:     3.1                                |
|   \\  /    A nd           | Web:         http://www.extend-project.de       |
|    \\/     M anipulation  |                                                 |
\*---------------------------------------------------------------------------*/
FoamFile
{
    version     2.0;
    format      ascii;
    class       volScalarField;
    location    "15.5";
    object      nut;
}
// * * * * * * * * * * * * * * * * * * * * * * * * * * * * * * * * * * * * * //

dimensions      [0 2 -1 0 0 0 0];

internalField   nonuniform List<scalar> 
119952
(
4.921283e-05
3.25025e-05
3.30503e-05
3.658177e-05
3.878776e-05
3.651683e-05
3.503985e-05
3.403823e-05
3.332898e-05
3.282782e-05
3.24729e-05
3.221846e-05
3.203026e-05
3.18728e-05
3.17133e-05
3.152681e-05
3.126187e-05
3.089364e-05
3.042477e-05
2.989662e-05
3.79024e-05
3.619846e-05
3.562256e-05
4.575115e-05
4.453402e-05
4.399952e-05
4.360118e-05
4.36735e-05
4.376256e-05
3.08303e-05
3.096185e-05
3.340976e-05
3.769739e-05
4.221465e-05
4.707915e-05
5.225623e-05
5.776241e-05
6.344066e-05
6.917701e-05
7.884234e-05
0.0003476942
0.0004081884
0.0004731408
0.000539047
0.0006037545
0.0006662133
0.0007259279
0.0007830138
0.0008371212
0.001163468
0.001214854
0.001265775
0.001317193
0.001370198
0.001425715
0.001484372
0.001546198
0.001610871
0.001677859
0.001749512
0.00181901
0.001888423
0.001957714
0.002026248
0.002093093
0.002157243
0.002217715
0.002276012
0.002295689
0.002305707
0.002292277
0.002283528
0.002268665
0.002239676
0.002207631
0.002181643
0.002166345
0.002164028
0.00217551
0.002197859
0.002230842
0.002274079
0.002326553
0.00238667
0.002452396
0.002521469
0.002591658
0.002660942
0.002730232
0.002794489
0.002848526
0.002904357
0.002955421
0.002978622
0.002972521
0.002926259
0.002781784
0.002491918
0.002374188
0.002278942
0.002190307
0.002092245
0.001979258
0.001853687
0.001722434
0.001595974
0.001485445
0.001399626
0.001343041
0.001315128
0.001311063
0.001324131
0.001347623
0.001376252
0.001407153
0.001439267
0.001472261
0.001505991
0.001540288
0.001575309
0.001611669
0.001648789
0.001686085
0.001723104
0.001759478
0.001794885
0.001828975
0.001861291
0.001891213
0.001917959
0.001940517
0.001957548
0.001967792
0.00196907
0.001957381
0.001933783
0.001901309
0.001858788
0.001802275
0.001724675
0.001611707
0.001438309
0.001182802
0.0009745559
0.0008638197
0.0008059877
0.000784169
0.0007319668
0.0007529369
0.0007902383
0.0008500537
0.0009253558
0.001005509
0.001072935
0.001129101
0.001184778
0.001237926
0.001287287
0.001331337
0.001368753
0.001400075
0.001426908
0.001451047
0.001474065
0.001497141
0.001520964
0.001545657
0.001570809
0.001595505
0.001617959
0.001636547
0.00164934
0.001653807
0.001645903
0.001617335
0.001567032
0.001502564
0.001431476
0.001358045
0.001285861
0.001216375
0.001148709
0.001080786
0.001009956
0.0009348819
0.0008521829
0.0007578032
0.000655361
0.0005910232
0.0005804372
0.0005971367
0.0006220093
0.0006452451
0.0006619856
0.0006722965
0.0006792609
0.0006877552
0.0006669588
0.0006227158
0.0005917933
0.0005726249
0.000561469
0.0005542439
0.0005481252
0.0005422995
0.0005358779
0.0005284465
0.0005203758
0.0005122039
0.0005042621
0.0004965338
0.0004887699
0.0004808225
0.000472662
0.0004642884
0.0004557041
0.0004469213
0.0004379594
0.0004288455
0.0004196162
0.0004103119
0.0004009997
0.0003917259
0.0003825346
0.0003734731
0.0003645985
0.0003559498
0.0003475305
0.0003393468
0.0003314411
0.0003239387
0.0003171957
0.0003148491
0.0003207948
0.0003243063
0.0003260286
0.0003276342
0.0003285218
0.0003283528
0.0003268472
0.0003238974
0.000319567
0.0003144359
0.0003095465
0.0003042019
0.0002961449
0.000282676
0.0002698415
0.0002643317
0.0002660957
0.0002725864
0.0002782347
0.0002840152
0.0002996967
0.0003218844
0.0003437699
0.0003619265
0.0003771521
0.0003904052
0.0004023011
0.0004130336
0.000422785
0.0004318128
0.0004402377
0.0004453418
0.0004482921
0.0004517396
0.0005624486
0.0005762033
0.0005922341
0.0006093415
0.0006284287
0.0006497081
0.0006728324
0.0006970537
0.0007214002
0.0007447096
0.0007659557
0.0007846929
0.000801198
0.0008160986
0.0008299823
0.0008432672
0.0008562265
0.0008690275
0.0008817537
0.0008943825
0.0009068302
0.0009190078
0.0009308392
0.0009422576
0.0009532
0.0009635997
0.0009733862
0.0009824858
0.0009908257
0.0009983389
0.001004969
0.001010675
0.001015433
0.00101924
0.001022111
0.001024079
0.001025196
0.001025521
0.001025126
0.00102409
0.001022497
0.001020429
0.001017964
0.001015158
0.001012039
0.001008556
0.001004438
0.001000024
0.0009956431
0.0009913534
0.0009872209
0.0009833099
0.0009796526
0.0009765131
0.0009741956
0.0009697637
0.0009661558
0.0009635766
0.0009619606
0.0009612386
0.0009613516
0.00096224
0.0009638475
0.0009661111
0.0009689715
0.0009723755
0.0009762747
0.0009806247
0.0009853825
0.0009905062
0.0009959561
0.001001694
0.001007682
0.001013879
0.001020242
0.001026717
0.00103324
0.001039737
0.001046126
0.001052319
0.001058218
0.001063708
0.001068652
0.001072881
0.001076189
0.001078345
0.00107911
0.001078277
0.001075709
0.001071376
0.00106537
0.001057891
0.001049204
0.001039618
0.001029394
0.001018777
0.001007992
0.0009972354
0.0009867057
0.0009766164
0.000967181
0.0009585913
0.0009509951
0.00094448
0.0009390654
0.0009346985
0.0009312536
0.0009285738
0.0009264918
0.0009248124
0.0009233738
0.0009220838
0.0009209254
0.000919938
0.0009191951
0.0009188023
0.0009189047
0.0009196823
0.0009213359
0.0009240692
0.0009280718
0.0009334998
0.000940457
0.0009489796
0.0009590206
0.0009704381
0.0009829863
0.0009963184
0.001010008
0.001023576
0.001036526
0.001048377
0.001058717
0.001067311
0.001074232
0.001079779
0.001084667
0.001091479
0.000877611
4.676788e-05
5.015221e-05
5.708912e-05
6.578417e-05
7.510947e-05
8.450204e-05
9.372889e-05
0.0001027134
0.0001124992
0.0004210214
0.0005449062
0.0006774202
0.0008093447
0.0009340593
0.001048636
0.001153003
0.001248207
0.001335752
0.00191576
0.002003517
0.002093631
0.002180932
0.002264737
0.002345029
0.002422173
0.002496668
0.002568884
0.002638936
0.002707519
0.002772077
0.002833184
0.002893607
0.002954884
0.00301781
0.003082981
0.003150502
0.003219934
0.00327788
0.003323573
0.003373668
0.00342994
0.003492405
0.003559981
0.003630761
0.003701995
0.003770638
0.003833961
0.003891152
0.003939903
0.003981603
0.004017372
0.004048074
0.004074398
0.004096353
0.004113729
0.004125773
0.004805652
0.00480653
0.004809439
0.004816857
0.004829913
0.004849379
0.004875535
0.004908554
0.004948006
0.00499331
0.005044468
0.00510047
0.00515991
0.005221053
0.005282507
0.00534178
0.005397509
0.005447495
0.005492108
0.005521289
0.005534934
0.005537695
0.005530091
0.005505467
0.005467248
0.005424165
0.005382904
0.005348808
0.005326342
0.005318307
0.005326761
0.005353188
0.005397899
0.005460172
0.00553837
0.005629856
0.005730983
0.005837343
0.005944158
0.006046768
0.006138311
0.006215976
0.006283582
0.006334324
0.006363057
0.006370402
0.006352956
0.006299906
0.006229702
0.00616059
0.006073742
0.005958779
0.005804931
0.005606967
0.005367401
0.005097152
0.004814256
0.004539669
0.004292047
0.004083619
0.003918988
0.003796731
0.003712003
0.003658869
0.00363178
0.003625994
0.003637432
0.003662587
0.003698385
0.003741856
0.003789466
0.00384242
0.00390248
0.003968966
0.004041482
0.004119775
0.004203572
0.004292348
0.004385128
0.004480433
0.004576305
0.004670347
0.004759954
0.004842611
0.004915787
0.004976754
0.005022282
0.005047617
0.005050696
0.005022758
0.00495242
0.00481838
0.0045973
0.004302066
0.003973838
0.003627123
0.003276403
0.002947449
0.00266328
0.002438057
0.002274157
0.002166841
0.002108804
0.002091339
0.002105589
0.002143147
0.00219639
0.002258718
0.002324564
0.002393784
0.002470946
0.002558527
0.002657516
0.002769186
0.00289484
0.003035463
0.00319132
0.003361539
0.003543891
0.00373485
0.003929558
0.004122008
0.004304921
0.004469897
0.004608138
0.004712099
0.004777285
0.004802474
0.004790145
0.004749427
0.004685645
0.004601958
0.004498148
0.004370728
0.004215685
0.004029204
0.003804779
0.00354335
0.003276928
0.003037777
0.002829887
0.002647591
0.0024852
0.002340311
0.002212948
0.002104776
0.002018351
0.001955535
0.001881634
0.001794505
0.001752576
0.001742
0.001752704
0.001777126
0.001809719
0.001846895
0.00188663
0.001927762
0.001969476
0.002010869
0.002051724
0.002093313
0.002135115
0.002176407
0.00221658
0.002255139
0.002291678
0.002325864
0.002357426
0.002386157
0.00241193
0.002434682
0.002454428
0.002471226
0.002485196
0.002496298
0.002504348
0.002509178
0.002510624
0.002508568
0.002503091
0.002494604
0.002483997
0.002472687
0.002461911
0.002450625
0.002437342
0.002420937
0.002400238
0.002374022
0.002341035
0.002299798
0.002245873
0.002177441
0.002093924
0.001994431
0.001879381
0.001754186
0.001628216
0.001508745
0.001399514
0.001301522
0.001215223
0.001143782
0.001090402
0.001052824
0.001026919
0.001010265
0.001001186
0.00097593
0.0009540373
0.0009434564
0.0009428583
0.0009532457
0.0009715902
0.00100097
0.001035809
0.001037708
0.001224356
0.001271172
0.001294576
0.001332628
0.001386578
0.001453276
0.001529706
0.001612255
0.001698471
0.001787025
0.001858312
0.001917835
0.001975266
0.002030537
0.002083648
0.00213463
0.002183684
0.002231046
0.002276877
0.00232125
0.002364172
0.002405622
0.002445568
0.002483966
0.002520765
0.002555904
0.002589308
0.002620896
0.002650575
0.002678255
0.002703846
0.002727272
0.002748475
0.002767419
0.002784098
0.002798532
0.002810769
0.002820887
0.002828986
0.002835189
0.002839635
0.002842487
0.002843914
0.002844099
0.002843188
0.002841297
0.002838503
0.002835064
0.00283124
0.002827301
0.002823371
0.002819736
0.002816346
0.002813635
0.00281194
0.002810771
0.002810316
0.002810928
0.002812842
0.002816193
0.002821075
0.00282756
0.002835701
0.002845541
0.002857111
0.002870442
0.00288555
0.002902437
0.002921084
0.002941458
0.002963504
0.002987151
0.003012308
0.00303886
0.00306666
0.003095518
0.003125205
0.003155453
0.003185975
0.003216458
0.003246552
0.003275837
0.003303785
0.003329742
0.003352929
0.003372499
0.003387626
0.003397623
0.003402055
0.003400826
0.003394174
0.003382602
0.003366758
0.003347308
0.00332487
0.003300008
0.003273274
0.00324526
0.003216624
0.003188066
0.00316028
0.003133887
0.003109384
0.003087097
0.00306716
0.00304951
0.003033905
0.003019966
0.003007238
0.002995277
0.002983735
0.002972401
0.002961199
0.002950167
0.002939478
0.002929459
0.002920584
0.002913453
0.00290875
0.002907187
0.002909436
0.002916061
0.002927447
0.002943751
0.002964855
0.002990347
0.003019515
0.003051398
0.003084822
0.003118556
0.003151358
0.003182186
0.003210163
0.003234625
0.003254852
0.003269951
0.003280243
0.003283284
0.003274409
3.250817e-05
4.013526e-05
5.170453e-05
6.5625e-05
8.24647e-05
0.0001030351
0.0001288881
0.0001623319
0.0002076201
0.0002898585
0.001091699
0.001273987
0.001462557
0.001640971
0.001773757
0.001913884
0.002055176
0.00219844
0.002386788
0.00447781
0.004723179
0.004852721
0.00496059
0.005052646
0.005134607
0.005209059
0.005278768
0.00534444
0.005411859
0.005522594
0.005661271
0.005790799
0.005896596
0.005977934
0.006039294
0.006086085
0.006122966
0.006158499
0.006076961
0.006055527
0.006065592
0.006091667
0.006124355
0.006157964
0.006189415
0.00621738
0.006241583
0.006262522
0.006280231
0.006296557
0.006312891
0.006329573
0.006346546
0.006363839
0.006381271
0.006397243
0.007200465
0.007215727
0.007223989
0.007227589
0.00722713
0.007223079
0.007216537
0.007208952
0.007201769
0.007195555
0.007190025
0.007185361
0.007181381
0.007178076
0.007176184
0.007176762
0.007180741
0.007188776
0.007201327
0.007217568
0.007237262
0.007261147
0.007289377
0.00732203
0.007358626
0.007397425
0.007435751
0.007470469
0.007498677
0.007519019
0.007531051
0.007535121
0.007532417
0.007524414
0.007511882
0.007495222
0.007473727
0.007448553
0.007405149
0.007361553
0.007320337
0.007283955
0.007254228
0.007232256
0.007218574
0.007213435
0.007216791
0.007228561
0.007248498
0.007275604
0.007308606
0.007346076
0.00738658
0.007428195
0.007469194
0.007508635
0.007544565
0.007571969
0.007582251
0.007578899
0.007562991
0.007534245
0.00749545
0.007452901
0.007412757
0.007380129
0.007358224
0.007350401
0.007360859
0.007392146
0.007445547
0.007521019
0.007617061
0.007730515
0.007856458
0.007988397
0.0081187
0.008239013
0.00834235
0.008423975
0.008483556
0.008521498
0.008538512
0.008532862
0.008509446
0.008466986
0.0084187
0.008368922
0.008305513
0.008215451
0.008087719
0.0079127
0.007687702
0.007418723
0.007120076
0.006811558
0.006513767
0.006243522
0.00601146
0.005822046
0.005675067
0.005567569
0.005495386
0.005453944
0.005438641
0.005445129
0.005469442
0.005507885
0.005556753
0.005611354
0.005674524
0.005746352
0.005826843
0.005916153
0.006014315
0.006120836
0.006234399
0.006352814
0.006473128
0.006591874
0.006705444
0.006810541
0.006904441
0.006985113
0.007050904
0.007098863
0.007124654
0.007122205
0.00708282
0.006990527
0.006829244
0.006600145
0.006314584
0.005977033
0.005595098
0.005189234
0.004784391
0.004403724
0.004064578
0.003777353
0.003546948
0.003373838
0.003254698
0.003183482
0.003152924
0.00315565
0.003185203
0.003235849
0.003301888
0.003387034
0.003497855
0.003635633
0.003801755
0.003997057
0.004221135
0.00447154
0.004743557
0.005030433
0.005323672
0.005613868
0.005890529
0.006142458
0.006358928
0.006532109
0.006659457
0.0067439
0.006791177
0.006805135
0.006791192
0.006752018
0.006686685
0.006591769
0.006463569
0.006298072
0.006090689
0.005845102
0.005580354
0.005314161
0.005051055
0.004792247
0.004536041
0.004283634
0.004035704
0.003797945
0.003574615
0.003374933
0.003202749
0.003063417
0.002957696
0.002883897
0.002839411
0.002820614
0.002823539
0.002844407
0.002879942
0.002927416
0.002984572
0.003049501
0.003120489
0.003197222
0.003281415
0.003371826
0.003466873
0.003565061
0.003665009
0.003765463
0.00386532
0.003963575
0.004059469
0.004152278
0.00424166
0.004327362
0.004409186
0.004486906
0.004560201
0.004628638
0.004691763
0.004749239
0.004801061
0.004847561
0.0048892
0.004926396
0.004959057
0.004986157
0.00500621
0.005017672
0.005018902
0.005008242
0.004984187
0.004943019
0.004882042
0.004799542
0.004694116
0.004565106
0.004413458
0.004242154
0.004055383
0.003857382
0.003652043
0.003443417
0.003236804
0.003038284
0.002851589
0.002677838
0.002517524
0.002371579
0.002240727
0.002125929
0.002027462
0.001945996
0.001881088
0.00183269
0.001798789
0.001778496
0.001768588
0.001767132
0.001628058
0.001602038
0.001626177
0.001660227
0.001694313
0.001731714
0.001778657
0.001837293
0.001905685
0.00198166
0.002064853
0.002154858
0.002251188
0.002352117
0.002453579
0.002536883
0.002606152
0.002674417
0.002741402
0.002806894
0.002870741
0.002932838
0.002993117
0.003051538
0.003108088
0.003162761
0.003215549
0.003266435
0.003315388
0.003362361
0.003407295
0.003450122
0.003490769
0.003529169
0.003565265
0.003599017
0.003630406
0.003659436
0.003686135
0.003710559
0.003732791
0.003752939
0.003771136
0.003787535
0.00380229
0.003815556
0.00382749
0.003838301
0.003848253
0.00385762
0.003866659
0.003875624
0.003884759
0.003894303
0.003904528
0.003915568
0.003927683
0.003941161
0.003956226
0.003973061
0.00399183
0.004012687
0.004035763
0.004061167
0.004088994
0.00411933
0.004152238
0.004187752
0.004225876
0.004266586
0.004309827
0.004355512
0.004403529
0.00445372
0.004505872
0.004559703
0.004614864
0.004670959
0.004727568
0.004784246
0.004840488
0.004895661
0.00494894
0.004999272
0.005045404
0.005085979
0.005119712
0.005145579
0.005162999
0.005171947
0.005172921
0.005166788
0.005154555
0.005137176
0.005115474
0.005090183
0.005062053
0.005031933
0.005000782
0.004969615
0.004939409
0.004910982
0.004884905
0.004861483
0.004840772
0.004822593
0.004806539
0.004792027
0.004778412
0.004765122
0.004751759
0.004738137
0.004724239
0.004710195
0.004696316
0.00468311
0.004671274
0.004661652
0.004655193
0.004652864
0.004655559
0.004663991
0.004678611
0.00469953
0.004726486
0.004758822
0.004795511
0.00483521
0.004876373
0.004917428
0.004956947
0.004993803
0.005027132
0.005056224
0.005080236
0.005098205
0.005109077
0.005110283
0.005100765
3.988753e-05
6.523054e-05
0.0001441365
0.0004932088
0.0008547309
0.001552881
0.002086552
0.002737141
0.003480906
0.004097336
0.004553216
0.004920692
0.005279079
0.005630005
0.005990316
0.006350148
0.006689811
0.007004157
0.007310614
0.007609273
0.007899471
0.008174269
0.00838694
0.008546395
0.008677409
0.008777151
0.008853193
0.008907086
0.008945149
0.008972643
0.009009988
0.008414906
0.008206636
0.00806569
0.007952749
0.007880311
0.00784836
0.007855362
0.007898722
0.007964538
0.008035427
0.008122353
0.00822108
0.008337029
0.008468372
0.008621
0.008801459
0.009011106
0.009250893
0.00953841
0.009758547
0.009787665
0.009810737
0.00982851
0.009841042
0.009847959
0.009849278
0.00984583
0.009838892
0.009829905
0.009820384
0.00981119
0.00980247
0.009793948
0.009785473
0.009777119
0.009769231
0.009762479
0.009734809
0.009708778
0.009683345
0.009657717
0.009631005
0.009602506
0.009572249
0.009541165
0.009510658
0.009481726
0.009454494
0.009428351
0.009402419
0.009376416
0.009350952
0.009327225
0.009306517
0.009289848
0.009277821
0.009270362
0.009267126
0.009267967
0.009273162
0.009283263
0.009298331
0.009317043
0.009336688
0.009353963
0.009365882
0.00937052
0.009367172
0.009356316
0.009339434
0.009318263
0.009294158
0.009267461
0.00923779
0.009204368
0.009166828
0.009126214
0.009084702
0.0090451
0.009009677
0.008979771
0.008956088
0.008939082
0.008929114
0.00892643
0.008931011
0.008942407
0.008959899
0.008983192
0.009011627
0.009043719
0.009077598
0.009108889
0.009134515
0.009150623
0.009154358
0.009145939
0.009126736
0.009098217
0.00906302
0.009025678
0.008991569
0.008965738
0.008951746
0.008953027
0.008975597
0.009022631
0.009095834
0.009195041
0.009317993
0.009460204
0.009614879
0.009773249
0.009925426
0.01
0.01
0.01
0.01
0.01
0.01
0.01
0.01
0.01
0.01
0.01
0.01
0.01
0.009918333
0.009773728
0.009583107
0.00934827
0.009078252
0.008787896
0.00849461
0.008213981
0.007959344
0.007739534
0.007558633
0.007417111
0.007313066
0.007243175
0.00720339
0.007189462
0.007197284
0.007223074
0.007263342
0.007314215
0.007374199
0.00744559
0.007528421
0.007622982
0.007729229
0.007846211
0.007971705
0.008102248
0.008233565
0.00836104
0.008480017
0.00858664
0.008678934
0.008756093
0.008818247
0.008865631
0.008895453
0.008903807
0.008884392
0.008827287
0.008722342
0.008565134
0.00835447
0.008087738
0.007765902
0.007397412
0.006996834
0.006582118
0.006172356
0.005785719
0.0054375
0.005138517
0.004894961
0.004708078
0.004575524
0.004492789
0.004454853
0.004457022
0.00449515
0.004564917
0.004669483
0.00481667
0.005007126
0.00523998
0.00551216
0.005817459
0.006146857
0.006489571
0.006834112
0.007168773
0.007481802
0.007761571
0.007997973
0.008185256
0.008324671
0.008424237
0.008492365
0.008531558
0.00854655
0.00853895
0.008507357
0.008448516
0.008359145
0.008236024
0.008076816
0.007884045
0.007666427
0.007432212
0.007184633
0.006924929
0.006652945
0.006369253
0.006074657
0.005772824
0.005468588
0.005170414
0.00488785
0.004628221
0.004399701
0.004207828
0.004054955
0.003940863
0.003863519
0.003819787
0.003805887
0.003817958
0.00385235
0.003905679
0.003974784
0.004056483
0.004148574
0.004252907
0.004367794
0.004491006
0.004620407
0.004753998
0.00488993
0.005026338
0.005161862
0.005295317
0.005425884
0.005552805
0.00567564
0.005793853
0.005906791
0.006013716
0.006113921
0.006206928
0.006292914
0.00637243
0.006446042
0.006513934
0.006575666
0.006630125
0.00667576
0.006710827
0.006733575
0.006742249
0.006734554
0.006706306
0.00665578
0.006581684
0.006483018
0.006359362
0.006211208
0.006040309
0.00584898
0.005639871
0.005415681
0.005179851
0.00493706
0.004692388
0.004449547
0.004211196
0.0039795
0.003756951
0.003545398
0.003347252
0.003163861
0.002997546
0.002848776
0.002719239
0.002607028
0.002513874
0.002436548
0.002375443
0.002329289
0.002294973
0.002272078
0.002260178
0.002259304
0.002269373
0.002290038
0.002320614
0.002360051
0.00240275
0.002420562
0.002454821
0.002504827
0.002567749
0.002641846
0.002725333
0.00281667
0.002912775
0.002997281
0.003067803
0.003138
0.00320781
0.00327704
0.003345553
0.003413255
0.003480085
0.003545999
0.003610951
0.003674885
0.003737731
0.003799398
0.003859777
0.003918742
0.003976156
0.004031881
0.004085783
0.004137739
0.004187646
0.004235421
0.004281008
0.004324383
0.004365555
0.004404567
0.004441497
0.004476452
0.004509565
0.004540994
0.004570933
0.004599624
0.004627346
0.004654389
0.004681046
0.00470761
0.00473436
0.004761618
0.004789706
0.004818937
0.004849625
0.004882078
0.004916576
0.004953368
0.004992667
0.005034651
0.005079466
0.005127242
0.005178094
0.005232109
0.005289338
0.005349788
0.005413429
0.005480186
0.005549947
0.005622561
0.00569782
0.005775436
0.005855026
0.005936121
0.006018205
0.006100755
0.006183238
0.006265039
0.006345339
0.006423008
0.006496569
0.006564265
0.00662424
0.006674811
0.006714747
0.006743507
0.006761346
0.006769222
0.006768516
0.006760668
0.006746915
0.006728242
0.006705512
0.006679661
0.006651797
0.006623183
0.006595122
0.0065688
0.006545172
0.006524249
0.006505817
0.006489638
0.006475554
0.006463209
0.006451759
0.006440392
0.006428504
0.00641579
0.006402225
0.006387972
0.006373343
0.006358833
0.006345135
0.006333122
0.006323805
0.006318284
0.006317636
0.006322803
0.00633447
0.006352965
0.006378198
0.00640964
0.006446332
0.006486929
0.006529783
0.006573094
0.00661516
0.006654602
0.006690519
0.006722364
0.006749724
0.006771995
0.006788397
0.006797616
0.006797774
0.006789263
2.235942e-05
3.631317e-05
5.503422e-05
0.0002398322
0.0003944626
0.0006758071
0.0009530854
0.001207967
0.001528551
0.001841279
0.002179779
0.002618364
0.003138073
0.003726979
0.004388595
0.00523195
0.006842291
0.007489559
0.008111024
0.008667428
0.009151796
0.009561797
0.009913792
0.01
0.01
0.01
0.01
0.01
0.01
0.01
0.01
0.01
0.01
0.01
0.01
0.01
0.00967149
0.009197405
0.008746816
0.00832744
0.007886119
0.0075197
0.007405125
0.007220682
0.007057195
0.006942368
0.006872612
0.006846127
0.006863517
0.006920535
0.007008561
0.007113968
0.00723194
0.007357952
0.007493538
0.007640113
0.007808032
0.008008515
0.008261232
0.008593116
0.008998788
0.009469265
0.00998083
0.01
0.01
0.01
0.01
0.01
0.01
0.01
0.01
0.01
0.01
0.01
0.01
0.01
0.01
0.01
0.01
0.01
0.01
0.01
0.01
0.01
0.01
0.01
0.01
0.01
0.01
0.01
0.01
0.01
0.01
0.01
0.01
0.01
0.01
0.01
0.01
0.01
0.01
0.01
0.01
0.01
0.01
0.01
0.01
0.01
0.01
0.01
0.01
0.01
0.01
0.01
0.01
0.01
0.01
0.01
0.01
0.01
0.01
0.01
0.01
0.01
0.01
0.01
0.01
0.01
0.01
0.01
0.01
0.01
0.01
0.01
0.01
0.01
0.01
0.01
0.01
0.01
0.01
0.01
0.01
0.01
0.01
0.01
0.01
0.01
0.01
0.01
0.01
0.01
0.01
0.01
0.01
0.01
0.01
0.01
0.01
0.01
0.01
0.01
0.01
0.01
0.01
0.01
0.01
0.01
0.01
0.01
0.01
0.01
0.01
0.01
0.01
0.01
0.009832818
0.009586648
0.009367477
0.009181129
0.009030033
0.008913997
0.008831009
0.008777963
0.008751255
0.008747245
0.008762564
0.008794227
0.008839409
0.008895403
0.008964611
0.009047519
0.009144361
0.009254508
0.009375875
0.009504731
0.00963622
0.009765257
0.009887091
0.009997591
0.01
0.01
0.01
0.01
0.01
0.01
0.01
0.01
0.01
0.01
0.01
0.009975763
0.009775784
0.009526935
0.009230612
0.00889246
0.008521683
0.00813038
0.007735593
0.007354793
0.007003628
0.006694451
0.006435425
0.006230487
0.006080554
0.005984552
0.005940488
0.005946279
0.0059999
0.006098653
0.006249082
0.006453074
0.006707371
0.007004854
0.007334606
0.007683625
0.008038761
0.008387438
0.008717005
0.009016912
0.009277435
0.009490793
0.00965476
0.009775544
0.009866594
0.009932797
0.009977237
0.01
0.01
0.009989135
0.0099487
0.009883089
0.009790378
0.009669469
0.009521735
0.009350728
0.009159517
0.008949417
0.008720768
0.008472437
0.00820424
0.007916397
0.007610155
0.007288639
0.006957758
0.006625934
0.006302694
0.005998539
0.005722906
0.005483113
0.005283889
0.0051273
0.005013015
0.004938928
0.004901762
0.004897822
0.004923332
0.004974549
0.005047718
0.005138999
0.005245764
0.005368936
0.005505522
0.005652528
0.005807095
0.005966508
0.00612827
0.006290231
0.006450689
0.006608405
0.006762356
0.006911732
0.007055645
0.007193061
0.007322881
0.007444198
0.007556706
0.007660907
0.007757799
0.00784818
0.007932095
0.008008794
0.00807696
0.008135012
0.008181309
0.008214321
0.008232758
0.008233697
0.008214654
0.008174463
0.008112218
0.008027296
0.007919384
0.007788541
0.007635382
0.007460812
0.007266281
0.007053337
0.006824343
0.006582491
0.006331357
0.006074128
0.005813623
0.005552362
0.005293023
0.005037967
0.004789831
0.004550725
0.004323153
0.004108857
0.003910034
0.003727343
0.003561832
0.003412998
0.003281312
0.003166384
0.003067044
0.002982717
0.002913304
0.002858697
0.00281865
0.002792788
0.00278063
0.002781532
0.002794584
0.002818608
0.00285227
0.002894203
0.002943049
0.002997485
0.003056256
0.003118217
0.003182374
0.003247885
0.00331399
0.003379925
0.003445663
0.003511711
0.003578763
0.003646822
0.003715846
0.003785784
0.003856568
0.003928099
0.004000239
0.004072813
0.004145613
0.0042184
0.004290916
0.004362891
0.004434052
0.004504132
0.004572883
0.004640076
0.004705513
0.004769032
0.004830513
0.004889887
0.004947134
0.005002285
0.00505542
0.005106662
0.005156185
0.005204211
0.005251007
0.005296861
0.00534208
0.005386986
0.005431908
0.00547721
0.005523267
0.005570455
0.005619152
0.005669727
0.005722518
0.005777819
0.005835867
0.00589685
0.005960917
0.00602821
0.00609886
0.006172965
0.00625058
0.006331698
0.006416257
0.00650415
0.006595246
0.006689376
0.0067863
0.006885668
0.006986996
0.0070897
0.007193163
0.007296808
0.007400089
0.007502347
0.007602608
0.007699423
0.007790856
0.007874629
0.007948411
0.008010241
0.008058877
0.008094041
0.008116494
0.008127844
0.0081301
0.008125147
0.008114427
0.008098982
0.008079749
0.008057856
0.00803471
0.00801189
0.00799095
0.007973023
0.007957644
0.007944855
0.007934472
0.007925947
0.007918403
0.007911203
0.007903733
0.007895161
0.007885052
0.007873404
0.00786051
0.007846796
0.007832784
0.007819125
0.007806614
0.007796189
0.007788922
0.007785934
0.007788262
0.007796743
0.007811884
0.007833761
0.007861979
0.00789569
0.007933643
0.007974255
0.008015702
0.008056102
0.008093824
0.008127777
0.008157542
0.008183142
0.008204648
0.00822184
0.008234181
0.008240479
0.008239391
0.00823179
2.041561e-05
3.147417e-05
6.245202e-05
0.0001896892
0.0003055882
0.0004879251
0.0006269047
0.0007850019
0.0009716728
0.001153925
0.001367443
0.00164348
0.001958225
0.002332562
0.002818723
0.003758143
0.004200315
0.004675565
0.005175186
0.005697737
0.006248315
0.006817725
0.007389653
0.007949294
0.008480152
0.008973453
0.009444818
0.009951267
0.01
0.01
0.01
0.01
0.01
0.01
0.01
0.01
0.01
0.01
0.01
0.01
0.01
0.01
0.01
0.009998301
0.009533344
0.009039796
0.008559781
0.008086949
0.0076683
0.007313213
0.007000697
0.006720732
0.006499323
0.006302331
0.00615996
0.006078274
0.006049313
0.006070988
0.006143796
0.006268838
0.006436653
0.006637922
0.006855451
0.007070083
0.00728143
0.007486496
0.007712623
0.008018498
0.0084208
0.008928038
0.009585417
0.01
0.01
0.01
0.01
0.01
0.01
0.01
0.01
0.01
0.01
0.01
0.01
0.01
0.01
0.01
0.01
0.01
0.01
0.01
0.01
0.01
0.01
0.01
0.01
0.01
0.01
0.01
0.01
0.01
0.01
0.01
0.01
0.01
0.01
0.01
0.01
0.01
0.01
0.01
0.01
0.01
0.01
0.01
0.01
0.01
0.01
0.01
0.01
0.01
0.01
0.01
0.01
0.01
0.01
0.01
0.01
0.01
0.01
0.01
0.01
0.01
0.01
0.01
0.01
0.01
0.01
0.01
0.01
0.01
0.01
0.01
0.01
0.01
0.01
0.01
0.01
0.01
0.01
0.01
0.01
0.01
0.01
0.01
0.01
0.01
0.01
0.01
0.01
0.01
0.01
0.01
0.01000001
0.01000002
0.01000001
0.01
0.01
0.01
0.01
0.01
0.01
0.01
0.01
0.01
0.01
0.01
0.01
0.01
0.01
0.01
0.01
0.01
0.01
0.01
0.01
0.01
0.01
0.01
0.01
0.01
0.01
0.01
0.01
0.01
0.01
0.01
0.01
0.01
0.01
0.01
0.01
0.01
0.01
0.01
0.01000001
0.01000001
0.01
0.01
0.01
0.01
0.01
0.01
0.01
0.01
0.01
0.01
0.01
0.01
0.01000001
0.01000004
0.01000007
0.01000005
0.01000001
0.01
0.01
0.01
0.01
0.00972383
0.009366681
0.009009149
0.008664988
0.008346885
0.008066894
0.007833679
0.007652723
0.007527054
0.007458019
0.007445904
0.007490446
0.007590622
0.007746445
0.007959523
0.008223351
0.008526168
0.008852288
0.009188038
0.009521571
0.009842484
0.01
0.01
0.01000001
0.01000002
0.01000002
0.01000001
0.01
0.01
0.01
0.01
0.01000002
0.01000011
0.0100003
0.01000024
0.01000007
0.01000002
0.01000003
0.01000018
0.01000065
0.01000056
0.01000019
0.009877884
0.009639044
0.009379842
0.009099476
0.008798092
0.008478696
0.008148085
0.007815011
0.007489542
0.007182027
0.006902027
0.006657258
0.006452899
0.00629146
0.006173188
0.006096686
0.006059478
0.006058407
0.006089904
0.006150146
0.006235127
0.006340527
0.006464918
0.006606378
0.006761186
0.006925764
0.007096674
0.007270762
0.007445369
0.007618448
0.00778847
0.007954251
0.00811472
0.008268672
0.008414735
0.008551592
0.008678371
0.008795154
0.008902958
0.009003204
0.009096996
0.009184055
0.009263148
0.00933271
0.009391197
0.009437264
0.009469841
0.009488031
0.009489249
0.009472537
0.009437273
0.009383117
0.009309913
0.009217541
0.009105851
0.008974689
0.008823579
0.00865284
0.008463427
0.008256806
0.008034996
0.007800362
0.00755528
0.007302114
0.007043121
0.006780646
0.006516943
0.006254494
0.005995242
0.00574141
0.005494895
0.005257658
0.005031155
0.004816891
0.004615905
0.004429132
0.004257289
0.004100682
0.003959423
0.003833817
0.003724153
0.003630543
0.003552925
0.003491107
0.003444699
0.003413036
0.00339519
0.003390052
0.003396408
0.003412989
0.003438495
0.00347163
0.003511151
0.003555917
0.003604922
0.003657312
0.003712362
0.003769455
0.003827905
0.00388715
0.003948027
0.004011778
0.004078499
0.004148133
0.004220566
0.004295618
0.004373046
0.004452538
0.004533734
0.004616235
0.004699615
0.004783441
0.004867284
0.004950729
0.005033386
0.005114902
0.005194969
0.005273337
0.005349819
0.005424297
0.005496725
0.005567124
0.005635576
0.005702227
0.00576727
0.005830945
0.005893525
0.005955313
0.00601664
0.00607786
0.006139355
0.006201532
0.006264816
0.006329631
0.006396384
0.006465433
0.006537055
0.006611453
0.00668878