/*--------------------------------*- C++ -*----------------------------------*\
| =========                 |                                                 |
| \\      /  F ield         | foam-extend: Open Source CFD                    |
|  \\    /   O peration     | Version:     3.1                                |
|   \\  /    A nd           | Web:         http://www.extend-project.de       |
|    \\/     M anipulation  |                                                 |
\*---------------------------------------------------------------------------*/
FoamFile
{
    version     2.0;
    format      ascii;
    class       volScalarField;
    location    "15.5";
    object      omega;
}
// * * * * * * * * * * * * * * * * * * * * * * * * * * * * * * * * * * * * * //

dimensions      [0 0 -1 0 0 0 0];

internalField   nonuniform List<scalar> 
119952
(
335.1324
420.2832
394.3326
341.299
304.1009
303.771
306.6925
311.6872
318.5328
327.187
337.6052
349.744
363.5374
378.8551
395.5612
413.5593
432.4906
452.0674
472.5009
494.9844
419.1424
422.9591
431.4824
363.705
359.4578
357.8613
356.2193
354.2746
348.3338
222.3963
738.515
614.4984
519.0487
451.3884
401.437
363.1924
332.6707
307.5501
286.2138
262.1307
220.0796
191.2913
171.7463
157.4979
146.4508
137.4326
129.7957
123.1668
117.2996
92.62279
89.31171
85.91381
82.47948
79.11178
75.86894
72.78917
69.89256
67.17885
64.6697
62.42841
60.27903
58.2452
56.34493
54.58816
52.97939
51.51455
50.16779
48.93945
48.82972
48.89654
48.64089
48.51177
48.48112
48.5836
48.61541
48.50936
48.22321
47.74786
47.11025
46.39354
45.61178
44.77689
43.90988
43.03793
42.18676
41.37043
40.58975
39.83549
39.13044
38.54553
37.95612
37.42228
37.22184
37.22038
37.42812
38.20266
40.35634
44.23536
45.77429
47.14484
48.50008
50.14
52.18367
54.66192
57.50562
60.49903
63.29329
65.48933
66.77708
67.05077
66.41254
65.08535
63.31774
61.31249
59.20246
57.07362
54.98653
52.98265
51.08727
49.30704
47.63864
46.0901
44.66196
43.35193
42.15695
41.07468
40.10408
39.24528
38.49903
37.86621
37.35074
36.95844
36.69316
36.57505
36.65626
36.9238
37.34977
37.9716
38.88395
40.26827
42.58315
46.90826
54.91284
63.64911
70.99924
78.49768
85.82877
91.83129
95.02663
95.06725
92.41211
87.83743
82.28765
76.54226
71.07009
66.10642
61.73473
57.93529
54.65885
51.8376
49.407
47.31968
45.53868
44.03195
42.7712
41.73205
40.89395
40.23979
39.76217
39.45662
39.31741
39.34195
39.53312
39.91734
40.62509
41.68272
42.97596
44.4189
45.95117
47.51909
49.11229
50.78514
52.64898
54.86482
57.6252
61.38587
67.03945
75.13617
81.88309
85.33194
87.03225
87.74864
87.80319
87.41625
86.67586
85.49779
83.62189
84.77949
86.73929
86.67453
85.36521
83.4348
81.38788
79.4995
77.82317
76.37996
75.20349
74.28931
73.61725
73.16915
72.93635
72.92143
73.11696
73.50946
74.0861
74.83571
75.74812
76.81472
78.02826
79.38194
80.8703
82.48458
84.22073
86.0749
88.04526
90.12864
92.32121
94.62338
97.03096
99.52721
102.0641
104.4828
105.1509
104.0288
103.1579
102.4385
101.8973
101.5647
101.4863
101.7241
102.344
103.3781
104.6348
106.0545
108.1265
111.8079
117.1569
122.3534
126.1748
128.1614
128.4327
128.0353
127.01
123.5545
117.7822
110.7878
103.7971
97.38337
91.65502
86.55955
82.01842
77.97645
74.38258
71.17786
68.27985
65.62915
63.19974
53.58063
51.48598
49.39423
47.36606
45.45652
43.69063
42.08538
40.6529
39.39136
38.28912
37.32638
36.47905
35.72036
35.02746
34.38356
33.77768
33.20191
32.65073
32.12111
31.61208
31.12344
30.65516
30.20722
29.77961
29.37233
28.98535
28.61865
28.2721
27.94549
27.63847
27.35051
27.08095
26.82899
26.59366
26.37391
26.16861
25.97658
25.79661
25.6275
25.46808
25.31729
25.17415
25.03798
24.90901
24.78969
24.68341
24.58605
24.49156
24.39925
24.30838
24.2179
24.12808
24.0409
23.95784
23.92544
23.82479
23.69621
23.54852
23.38213
23.20173
23.01179
22.81646
22.6197
22.42472
22.23402
22.04938
21.87202
21.70271
21.54184
21.38956
21.24582
21.11049
20.98343
20.8645
20.7536
20.6507
20.55591
20.46949
20.39175
20.32307
20.26401
20.2154
20.17843
20.15465
20.14597
20.15447
20.18218
20.23072
20.30097
20.39275
20.50481
20.635
20.78053
20.93864
21.10639
21.28061
21.45839
21.63653
21.8111
21.97769
22.13187
22.26974
22.38843
22.48654
22.56433
22.6238
22.66806
22.70054
22.72553
22.74674
22.76642
22.78512
22.80179
22.81411
22.81893
22.81224
22.78934
22.74528
22.67546
22.57631
22.44579
22.28389
22.09276
21.87672
21.64197
21.39617
21.14789
20.90589
20.67846
20.47286
20.29502
20.14951
20.03878
19.96137
19.91062
19.87086
19.80583
19.68149
19.96698
782.0623
638.7593
557.6265
502.9405
460.604
425.2874
394.7789
368.0142
343.1738
289.598
233.8223
199.2685
176.5401
160.672
148.8838
139.6617
132.145
125.7748
99.42603
95.11852
90.9996
87.12221
83.56925
80.36328
77.47915
74.87683
72.51506
70.34361
68.43722
66.64696
64.8835
63.15915
61.48077
59.85203
58.27943
56.76831
55.31679
54.21452
53.37871
52.41266
51.37167
50.29678
49.21934
48.17059
47.17521
46.24789
45.39784
44.62137
43.9031
43.23834
42.61588
42.02623
41.46737
40.93937
40.442
39.98581
36.16681
35.76549
35.36105
34.94834
34.52287
34.08339
33.63108
33.16844
32.69766
32.22021
31.74454
31.27748
30.82217
30.38233
29.96259
29.56733
29.20239
28.8772
28.60395
28.37334
28.13132
27.90669
27.71098
27.54357
27.38133
27.2033
27.00033
26.7656
26.49906
26.21071
25.90651
25.59255
25.27667
24.96705
24.67101
24.39394
24.13871
23.9059
23.69544
23.50917
23.34608
23.20666
23.11476
23.07129
23.05777
23.09235
23.18287
23.32345
23.48216
23.68168
23.97713
24.38143
24.92263
25.61742
26.46254
27.42937
28.45855
29.4644
30.35012
31.03088
31.45336
31.60229
31.49534
31.17096
30.6762
30.05905
29.3636
28.62665
27.87739
27.13969
26.43634
25.76534
25.11892
24.49886
23.90626
23.34234
22.80876
22.30773
21.84154
21.41203
21.02048
20.66746
20.35276
20.076
19.83742
19.63857
19.48593
19.39619
19.3797
19.46009
19.67758
20.10507
20.83081
21.85287
23.1162
24.67208
26.55116
28.69065
30.96521
33.21133
35.29183
37.09058
38.48725
39.39233
39.76591
39.62236
39.0257
38.07296
36.87186
35.4751
33.90982
32.25653
30.60411
29.01524
27.53077
26.17465
24.95843
23.88441
22.94817
22.1412
21.45361
20.87478
20.39477
20.00413
19.69358
19.45462
19.28146
19.17547
19.14276
19.17128
19.25406
19.38965
19.58525
19.85772
20.22915
20.73081
21.41483
22.32185
23.34885
24.34992
25.30641
26.24989
27.22614
28.2547
29.34028
30.44026
31.5048
32.43572
33.68921
35.5044
36.63111
37.04999
36.82596
36.0731
34.93165
33.54938
32.05704
30.55694
29.1198
27.79019
26.58557
25.49718
24.52319
23.65711
22.89054
22.21421
21.6187
21.09503
20.63503
20.23139
19.87745
19.56749
19.29656
19.06061
18.856
18.6808
18.5339
18.41407
18.31985
18.24926
18.19932
18.16533
18.13995
18.1158
18.09607
18.08977
18.09978
18.12949
18.18403
18.26972
18.39453
18.57214
18.83977
19.21954
19.73417
20.41888
21.30658
22.3945
23.64326
25.02276
26.52371
28.15349
29.89493
31.62787
33.22598
34.71794
36.1455
37.48943
38.70498
39.74052
40.548
41.08026
41.29954
41.18936
40.7629
40.04865
39.0991
38.03622
34.21589
33.26219
32.29466
31.31089
30.30583
29.28141
28.24706
27.22023
26.22007
25.25905
24.34552
23.48379
22.67581
21.92323
21.22455
20.57577
19.97172
19.40725
18.87781
18.37941
17.90869
17.463
17.04035
16.63923
16.25847
15.89711
15.55433
15.22934
14.92137
14.62963
14.35332
14.0916
13.84367
13.60871
13.38592
13.17453
12.97383
12.7831
12.60168
12.42895
12.2643
12.10723
11.95729
11.81412
11.67732
11.54631
11.42021
11.2983
11.18022
11.06567
10.95428
10.84579
10.73986
10.63658
10.5363
10.43709
10.33837
10.24058
10.14404
10.04877
9.954649
9.861614
9.769645
9.678781
9.589099
9.50071
9.413771
9.328466
9.245002
9.163596
9.084469
9.007839
8.933921
8.862928
8.795077
8.730575
8.66961
8.612345
8.558922
8.509477
8.464156
8.423133
8.386617
8.354843
8.328062
8.306508
8.290371
8.279756
8.274648
8.274891
8.280198
8.290168
8.304332
8.322228
8.343392
8.367351
8.393588
8.421476
8.450268
8.479126
8.507196
8.533701
8.558015
8.579742
8.598761
8.615232
8.62956
8.642338
8.654243
8.665895
8.677748
8.690053
8.702895
8.716201
8.729701
8.742886
8.755023
8.765197
8.772378
8.775535
8.773756
8.766374
8.753074
8.733956
8.709559
8.680845
8.64912
8.615913
8.582847
8.551448
8.52306
8.498685
8.478999
8.464458
8.455608
8.453557
8.458941
8.479295
8.522274
612.8234
543.4854
486.6674
444.7988
412.9562
388.4308
369.6463
356.2346
348.2164
337.6872
179.9062
167.7289
157.4635
149.5996
145.7328
141.8176
138.1777
134.9887
131.9458
86.40872
84.2359
83.32977
82.48304
81.61697
80.70565
79.75242
78.73418
77.62517
76.3897
74.37678
72.10319
70.04945
68.3206
66.86178
65.59296
64.45144
63.39617
62.38742
62.325
61.67876
60.7461
59.68393
58.58457
57.49471
56.43706
55.42226
54.4561
53.545
52.67557
51.83314
51.01021
50.20093
49.40334
48.61989
47.8565
47.13014
43.3665
42.77233
42.21728
41.69613
41.20018
40.71969
40.2465
39.77562
39.30589
38.83814
38.3741
37.91688
37.46495
37.01376
36.5604
36.10404
35.64554
35.18692
34.73061
34.27743
33.82947
33.38914
32.95778
32.53914
32.13969
31.76553
31.41997
31.10223
30.80772
30.53209
30.27027
30.01709
29.77037
29.53101
29.30071
29.08131
28.87024
28.65537
28.49291
28.31807
28.12744
27.92029
27.69844
27.46431
27.21999
26.96722
26.70752
26.4433
26.17783
25.91339
25.65193
25.39608
25.14899
24.91382
24.69377
24.48878
24.29876
24.11846
23.95028
23.78484
23.62082
23.45544
23.28139
23.0907
22.8796
22.64819
22.40313
22.1546
21.90714
21.66681
21.44003
21.23279
21.04982
20.8938
20.76473
20.65984
20.57441
20.50347
20.44311
20.38965
20.34603
20.3149
20.29312
20.289
20.29905
20.32372
20.36143
20.42605
20.54175
20.72499
20.98673
21.33657
21.77374
22.28396
22.83849
23.39556
23.9053
24.31812
24.59443
24.71157
24.6658
24.46984
24.14768
23.72896
23.24397
22.72005
22.17974
21.64081
21.11785
20.62668
20.16484
19.73089
19.32393
18.94342
18.58938
18.2623
17.96271
17.69073
17.44578
17.22664
17.03155
16.85851
16.70588
16.57301
16.46118
16.37693
16.33054
16.33029
16.38978
16.53353
16.78698
17.15762
17.64976
18.28458
19.0799
20.02678
21.09535
22.23819
23.39549
24.50032
25.4817
26.27305
26.82385
27.10745
27.12116
26.88466
26.43539
25.82802
25.13362
24.36691
23.53332
22.67082
21.81429
20.99317
20.22943
19.53728
18.9232
18.38728
17.92612
17.53337
17.20194
16.92384
16.69017
16.49207
16.32294
16.18057
16.06861
15.99046
15.9436
15.92815
15.9477
16.00873
16.11933
16.29018
16.53486
16.85709
17.23379
17.63697
18.05975
18.50373
18.98061
19.49813
20.065
20.67606
21.32039
21.96466
22.56995
23.08466
23.47924
23.73368
23.83039
23.759
23.51913
23.12226
22.59139
21.95755
21.25482
20.51633
19.77126
19.03786
18.32276
17.64023
17
16.40697
15.86263
15.36612
14.91504
14.5063
14.13609
13.80114
13.49776
13.22281
12.97366
12.74803
12.54393
12.35954
12.19307
12.04281
11.90701
11.78428
11.67369
11.57497
11.48862
11.41529
11.35553
11.31018
11.28041
11.26798
11.27557
11.30947
11.3739
11.47256
11.60981
11.79004
12.01648
12.2906
12.61294
12.98455
13.40691
13.87997
14.39854
14.95317
15.53868
16.15623
16.80685
17.48892
18.19792
18.92651
19.66386
20.3944
21.09911
21.76023
22.36594
22.90812
23.37105
23.71127
24.10559
24.40125
24.57558
24.63479
24.59002
24.44949
24.21847
23.90319
23.51342
23.06142
22.55932
22.01898
21.45257
20.87091
20.28463
19.70188
19.12733
18.56516
18.01956
17.49246
16.98443
16.49551
16.02564
15.57468
15.14253
14.72901
14.33392
13.95695
13.59773
13.25576
12.9305
12.62132
12.32754
12.04847
11.7834
11.53162
11.29245
11.0652
10.84922
10.64387
10.44854
10.26265
10.08564
9.916967
9.756097
9.602434
9.45535
9.314221
9.178606
9.048077
8.922313
8.800906
8.683631
8.570014
8.459899
8.352905
8.248853
8.147636
8.049119
7.953167
7.859692
7.768657
7.680062
7.593924
7.510273
7.429162
7.350659
7.274851
7.20183
7.13169
7.06453
7.000442
6.939518
6.881839
6.827473
6.776472
6.728862
6.684647
6.643809
6.606324
6.572162
6.541284
6.513636
6.489137
6.467686
6.449164
6.433456
6.420466
6.410123
6.402377
6.397174
6.394433
6.394034
6.395835
6.399686
6.405428
6.412879
6.421793
6.43184
6.442605
6.453619
6.464416
6.474588
6.48383
6.491967
6.498975
6.504996
6.510313
6.5153
6.520348
6.525798
6.531895
6.538815
6.546664
6.555451
6.56506
6.57524
6.585607
6.595662
6.604828
6.612513
6.618179
6.621417
6.622004
6.619928
6.6154
6.608827
6.60078
6.591939
6.583006
6.574647
6.567427
6.561804
6.558216
6.557105
6.559144
6.564832
6.575659
6.59283
356.9862
260.3235
368.2139
166.8693
130.6056
95.41092
82.62811
71.84005
63.02921
58.75659
57.0096
56.0778
55.28652
54.71932
54.1595
53.69701
53.41442
53.29817
53.22932
53.19063
53.16108
53.16645
53.47621
54.0116
54.60838
55.25745
55.9371
56.65223
57.33043
57.93565
58.38156
57.28472
57.45674
57.53952
57.51431
57.36756
57.10423
56.73578
56.27631
55.74349
55.15756
54.518
53.82751
53.09016
52.31414
51.5078
50.67986
49.84074
49.00256
48.17635
47.37663
46.61593
45.89606
45.20771
44.54024
43.88353
43.2314
42.58355
41.94378
41.31806
40.71356
40.13522
39.58435
39.05905
38.55576
38.07208
37.60739
37.15241
36.76475
36.38589
36.01821
35.66282
35.31844
34.98106
34.64545
34.3082
33.96967
33.63287
33.3004
32.97176
32.64336
32.31113
31.97297
31.62943
31.28311
30.93743
30.59579
30.26044
29.93188
29.60987
29.29589
28.99475
28.71359
28.45802
28.22875
28.02151
27.82897
27.64343
27.45848
27.27029
27.07883
26.88664
26.6976
26.51372
26.33496
26.15683
25.9774
25.79118
25.59539
25.39157
25.1829
24.97171
24.75921
24.54617
24.33349
24.12253
23.91486
23.71167
23.5139
23.32227
23.13808
22.96285
22.79781
22.64481
22.5029
22.36824
22.2335
22.09304
21.9439
21.78345
21.60863
21.41742
21.21021
20.99006
20.76426
20.54492
20.33911
20.15429
19.99755
19.87475
19.7895
19.74232
19.72947
19.74243
19.76872
19.79401
19.80556
19.79452
19.75895
19.70343
19.63529
19.57021
19.51216
19.46411
19.43332
19.43038
19.4642
19.54279
19.67206
19.85517
20.08981
20.36658
20.66886
20.97333
21.2516
21.47391
21.61326
21.65068
21.57866
21.40143
21.13278
20.7923
20.40158
19.98107
19.54825
19.11693
18.69789
18.30085
17.93273
17.59234
17.27978
16.99516
16.73872
16.51064
16.31046
16.13667
15.98667
15.85704
15.74394
15.64362
15.55324
15.47128
15.39804
15.33728
15.29535
15.27499
15.28144
15.32297
15.40848
15.54578
15.74331
16.01138
16.35938
16.79093
17.30177
17.87906
18.50065
19.13513
19.74357
20.2842
20.71664
21.01073
21.14946
21.13019
20.96337
20.67021
20.28065
19.83399
19.35546
18.85426
18.35209
17.86962
17.42316
17.02382
16.67646
16.38053
16.13198
15.92479
15.75168
15.60424
15.47363
15.35234
15.23661
15.12779
15.03196
14.95093
14.8834
14.82982
14.79244
14.77497
14.78165
14.81662
14.88366
14.98436
15.11469
15.26702
15.4371
15.62483
15.83388
16.06846
16.33403
16.63264
16.96403
17.31953
17.68239
18.03469
18.35023
18.6039
18.77452
18.84575
18.80758
18.65766
18.40234
18.0551
17.6343
17.1609
16.65652
16.14229
15.63457
15.13676
14.65688
14.20141
13.77433
13.37756
13.01143
12.6756
12.36823
12.08746
11.83116
11.59769
11.38509
11.19173
11.01609
10.85664
10.71185
10.58036
10.46078
10.35207
10.25354
10.16466
10.08511
10.01469
9.953344
9.901287
9.859023
9.827635
9.80948
9.807789
9.823991
9.859559
9.916179
9.995552
10.09925
10.22825
10.38358
10.5661
10.77662
11.01526
11.28056
11.56989
11.88147
12.21452
12.5689
12.94365
13.33826
13.7498
14.17646
14.61151
15.05184
15.48706
15.92117
16.33692
16.74176
17.12154
17.47689
17.8118
18.11261
18.3741
18.5931
18.76808
18.89647
18.97537
19.00405
18.98416
18.9175
18.80511
18.64827
18.44897
18.21008
17.93547
17.63073
17.301
16.9498
16.57988
16.19304
15.79438
15.3892
14.98177
14.57584
14.17462
13.78082
13.39663
13.02376
12.66345
12.31659
11.98372
11.6651
11.36075
11.07055
10.7942
10.53133
10.28149
10.04416
9.818793
9.604813
9.401622
9.20862
9.025206
8.850784
8.684751
8.526503
8.375446
8.231061
8.092885
7.960506
7.833515
7.711546
7.594191
7.481168
7.372237
7.267152
7.165711
7.06776
6.973192
6.88193
6.793924
6.709141
6.627559
6.549165
6.473968
6.402002
6.333316
6.267962
6.205993
6.147452
6.092371
6.040776
5.99268
5.948077
5.906934
5.869189
5.834756
5.803542
5.775447
5.750353
5.728093
5.708424
5.691019
5.675494
5.66145
5.648547
5.636568
5.625453
5.615297
5.606286
5.59861
5.592394
5.587685
5.58449
5.582811
5.582659
5.584014
5.586771
5.590707
5.595478
5.60064
5.605921
5.611058
5.615784
5.619844
5.62313
5.625797
5.628123
5.630465
5.633187
5.636595
5.640941
5.646436
5.653213
5.661318
5.670693
5.681173
5.692474
5.704199
5.715866
5.726973
5.737053
5.745734
5.752769
5.758044
5.76158
5.763528
5.764158
5.763852
5.76305
5.762216
5.761731
5.761941
5.763107
5.765604
5.769626
5.775504
5.783605
322.0043
216.964
164.0662
145.3127
118.0133
98.26299
84.26269
78.69125
72.54743
68.95215
65.87432
61.81393
57.80284
54.04409
50.65501
46.975
41.21684
39.93526
39.02084
38.56142
38.51787
38.76185
39.14187
39.6008
40.15129
40.7927
41.49306
42.23977
43.03098
43.86548
44.74374
45.66987
46.64729
47.67369
48.7473
49.85959
50.96517
52.05329
53.16077
54.02835
54.80332
55.37368
55.54018
55.55338
55.4279
55.14438
54.70856
54.13979
53.46261
52.70651
51.90295
51.08102
50.25755
49.43837
48.61875
47.78988
46.94251
46.07134
45.17855
44.27803
43.39334
42.55488
41.78297
41.08569
40.45563
39.87567
39.32468
38.78461
38.24606
37.70899
37.1799
36.66926
36.18746
35.7406
35.32785
34.94476
34.587
34.25428
33.94252
33.64861
33.36605
33.09193
32.82638
32.56855
32.31405
32.05683
31.79383
31.52792
31.26496
31.00804
30.75463
30.49889
30.23541
29.96216
29.68147
29.39857
29.11953
28.84988
28.59291
28.34875
28.11645
27.8977
27.69862
27.52711
27.38623
27.27015
27.16686
27.06306
26.94748
26.81376
26.66161
26.49584
26.32341
26.15038
25.97879
25.80617
25.62712
25.43654
25.23247
25.01781
24.79851
24.57953
24.36307
24.14958
23.93916
23.73244
23.53071
23.33614
23.14958
22.97125
22.80169
22.64165
22.49164
22.35179
22.22105
22.0966
21.97323
21.84446
21.70529
21.55301
21.38623
21.20457
21.00934
20.8038
20.59313
20.38553
20.1957
20.03725
19.91982
19.85197
19.84004
19.88725
19.99138
20.14177
20.31849
20.49404
20.63855
20.72504
20.73559
20.66714
20.53333
20.36044
20.18598
20.02596
19.8876
19.77777
19.70071
19.6569
19.64641
19.67074
19.73083
19.8242
19.94388
20.07863
20.21314
20.32901
20.40656
20.42777
20.3791
20.25422
20.05504
19.79072
19.47527
19.12471
18.75471
18.37891
18.00826
17.65126
17.31503
17.00685
16.72948
16.48418
16.27224
16.0946
15.95113
15.83975
15.75617
15.69426
15.64677
15.60599
15.56513
15.52019
15.47043
15.41854
15.37154
15.33433
15.30691
15.29014
15.28635
15.29958
15.33534
15.39886
15.49465
15.62825
15.8051
16.02837
16.29752
16.60683
16.94388
17.2897
17.62038
17.90996
18.13443
18.27521
18.32077
18.26864
18.12547
17.90567
17.63026
17.32623
17.01153
16.70111
16.41036
16.15166
15.93256
15.75524
15.61751
15.51421
15.43763
15.37793
15.32378
15.26468
15.19502
15.11746
15.0422
14.9758
14.91463
14.85491
14.79556
14.73842
14.68698
14.64466
14.61361
14.59527
14.59084
14.59984
14.6198
14.64916
14.68873
14.74087
14.80825
14.89395
15.00108
15.13193
15.28591
15.45793
15.6387
15.81395
15.9672
16.08131
16.14056
16.13276
16.05122
15.89545
15.67055
15.38596
15.05429
14.68985
14.30734
13.92077
13.54124
13.17196
12.81813
12.48345
12.17018
11.87944
11.61132
11.36517
11.13993
10.93429
10.74707
10.57695
10.42261
10.2827
10.15583
10.04063
9.935911
9.840763
9.754486
9.67639
9.605676
9.541484
9.483046
9.429815
9.381591
9.338574
9.301579
9.272369
9.252135
9.241859
9.242604
9.255401
9.281221
9.321038
9.375664
9.445899
9.532089
9.634735
9.753999
9.889607
10.04077
10.20645
10.38574
10.57803
10.78268
10.99921
11.2267
11.46426
11.71018
11.9631
12.22011
12.4799
12.73943
12.99853
13.25388
13.50287
13.74535
13.97881
14.19897
14.40244
14.58685
14.74994
14.88951
15.00435
15.09427
15.15988
15.20194
15.22039
15.2146
15.18374
15.12696
15.04343
14.9325
14.79405
14.62944
14.44186
14.23127
13.99618
13.73582
13.45485
13.15803
12.85007
12.53543
12.21816
11.90176
11.58914
11.2827
10.98429
10.69529
10.41666
10.14905
9.892784
9.647993
9.414607
9.192414
8.981084
8.780207
8.589314
8.407905
8.23546
8.07145
7.915348
7.766641
7.624853
7.489544
7.360303
7.236737
7.118481
7.005191
6.896569
6.792356
6.692317
6.596259
6.504039
6.415562
6.330756
6.249559
6.17192
6.097798
6.027167
5.960019
5.896367
5.836234
5.77964
5.726599
5.67712
5.631209
5.588868
5.550083
5.514811
5.482965
5.454432
5.429086
5.406812
5.387499
5.37099
5.357014
5.345135
5.334761
5.325203
5.315776
5.305933
5.295375
5.284123
5.272497
5.261002
5.25014
5.240267
5.231559
5.224109
5.218037
5.213533
5.210792
5.209899
5.210748
5.213043
5.216515
5.220594
5.224718
5.228441
5.231505
5.233756
5.235177
5.236011
5.236662
5.237603
5.239256
5.241987
5.246093
5.25177
5.259148
5.268287
5.279169
5.291644
5.305414
5.320037
5.334984
5.349702
5.363674
5.376459
5.387709
5.397167
5.404682
5.410244
5.414045
5.416476
5.418059
5.419279
5.42051
5.421993
5.423934
5.426327
5.429194
5.43275
165.2802
121.9531
187.1999
91.87811
78.6983
67.2232
63.80435
61.34671
58.65238
57.53817
56.09531
54.05993
52.16011
50.14845
47.79508
43.14112
42.06653
41.06852
40.11626
39.21252
38.31311
37.46214
36.7155
36.10312
35.64688
35.34464
35.12224
34.92204
34.90911
35.11372
35.52424
36.08857
36.74221
37.47578
38.27184
39.11073
39.98651
40.89924
41.85005
42.83755
43.85915
44.9277
46.06215
47.2135
48.39842
49.62747
50.68871
51.57717
52.27314
52.7311
52.96942
53.00406
52.8143
52.44326
51.8941
51.17258
50.30177
49.31256
48.24045
47.12424
46.00848
44.93412
43.93261
43.01725
42.17633
41.38336
40.60533
39.81371
39.00804
38.21647
37.46367
36.78217
36.19546
35.70807
35.3135
34.98677
34.69322
34.40322
34.10182
33.78838
33.47207
33.16874
32.89585
32.66412
32.4733
32.31691
32.18963
32.08828
32.00457
31.92378
31.83285
31.7295
31.61823
31.4999
31.36895
31.2192
31.05183
30.87639
30.70248
30.53069
30.35344
30.16227
29.95304
29.7286
29.49783
29.27202
29.06199
28.87554
28.71512
28.57861
28.46428
28.37689
28.3279
28.32646
28.36572
28.4212
28.46369
28.46984
28.42458
28.32658
28.18723
28.02488
27.85661
27.69077
27.52236
27.33793
27.12475
26.87758
26.6076
26.32965
26.05549
25.78934
25.53048
25.27848
25.03348
24.79499
24.56417
24.3419
24.12925
23.92633
23.73301
23.54937
23.37528
23.21002
23.0517
22.89682
22.73985
22.57487
22.39772
22.20693
22.00342
21.78996
21.57105
21.35294
21.14355
20.95352
20.79937
20.70834
20.69429
20.76755
20.93415
21.1959
21.54383
21.94998
22.36991
22.74723
23.03382
23.18623
23.17895
23.01493
22.72563
22.36521
22.00445
21.68042
21.40546
21.18177
21.00284
20.85687
20.73349
20.62943
20.54704
20.48819
20.45068
20.42792
20.40951
20.38218
20.33133
20.24335
20.10809
19.92074
19.68249
19.40001
19.08376
18.74596
18.3988
18.05324
17.71841
17.40169
17.10949
16.8489
16.62744
16.44926
16.31818
16.23676
16.20415
16.2142
16.25601
16.31575
16.37777
16.42571
16.44624
16.43351
16.39103
16.33081
16.27188
16.21942
16.17122
16.12446
16.07914
16.03827
16.0054
15.98194
15.96783
15.96538
15.98041
16.01981
16.08953
16.19207
16.32524
16.48095
16.64607
16.80432
16.93818
17.03131
17.07133
17.05151
16.97203
16.83983
16.66764
16.47346
16.27791
16.09562
15.93863
15.81498
15.72804
15.67782
15.66203
15.67553
15.70848
15.74611
15.77048
15.76648
15.73183
15.68336
15.64722
15.62201
15.59385
15.55008
15.48768
15.4119
15.33066
15.24923
15.16882
15.08921
15.01056
14.93274
14.8554
14.77979
14.70922
14.64737
14.59623
14.55678
14.53123
14.52265
14.53336
14.56308
14.60791
14.66031
14.70981
14.74434
14.75176
14.72125
14.64476
14.51845
14.34274
14.12198
13.86367
13.57729
13.27314
12.96153
12.65227
12.35173
12.06353
11.7908
11.53558
11.29898
11.08131
10.88224
10.70109
10.53693
10.38871
10.25521
10.13502
10.02661
9.928442
9.839241
9.758267
9.685229
9.619802
9.561158
9.507918
9.458542
9.411701
9.366453
9.322354
9.279543
9.238902
9.201304
9.167557
9.138709
9.11591
9.100204
9.092385
9.093061
9.102754
9.121909
9.15073
9.189456
9.238297
9.297366
9.366492
9.445139
9.532576
9.628063
9.731042
9.841182
9.957923
10.0812
10.2106
10.34569
10.48574
10.62994
10.77707
10.92605
11.07558
11.22423
11.37091
11.51439
11.65262
11.78345
11.90509
12.01609
12.1152
12.20179
12.27599
12.33847
12.38998
12.43103
12.46171
12.48163
12.48989
12.48504
12.46526
12.42874
12.37392
12.29967
12.20561
12.09306
11.96415
11.8159
11.64541
11.4552
11.24855
11.02907
10.80036
10.56585
10.32865
10.09144
9.856488
9.625632
9.400302
9.181571
8.970198
8.766679
8.571284
8.384101
8.205073
8.034036
7.870752
7.714936
7.566272
7.424428
7.289067
7.159861
7.036488
6.918642
6.806031
6.698381
6.595431
6.496941
6.402697
6.31252
6.226268
6.143839
6.065156
5.99015
5.918756
5.850918
5.786589
5.725737
5.668352
5.614437
5.564001
5.517048
5.47358
5.433607
5.397146
5.36421
5.334782
5.308789
5.286102
5.266567
5.250054
5.236483
5.22579
5.217816
5.212173
5.208174
5.204874
5.201203
5.19615
5.188955
5.179286
5.167334
5.153778
5.13957
5.125619
5.112513
5.100498
5.089688
5.080324
5.072833
5.06769
5.065202
5.065359
5.067835
5.071919
5.076803
5.0817
5.085949
5.089084
5.090897
5.091391
5.090833
5.089786
5.088963
5.088993
5.090392
5.093497
5.098509
5.105587
5.114887
5.126516
5.140444
5.156433
5.17403
5.192623
5.211521
5.230022
5.247469
5.26328
5.276949
5.288054
5.29634
5.301873
5.305104
5.306769
5.307619
5.308214
5.308892
5.309777
5.310721
5.311478
5.31221
67.14524
50.25011
48.5016
46.09222
45.05652
43.76355
42.70601
41.79264
41.00166
39.80113
36.96771
36.74805
36.54666
36.35899
36.15219
35.91624
35.69001
35.50297
35.36641
35.26784
35.06823
34.64856
34.24003
33.85286
33.4924
33.1651
32.89253
32.68915
32.56375
32.51853
32.54459
32.63647
32.8145
33.1035
33.52221
34.06445
34.70237
35.43054
36.22967
37.08158
37.97901
38.91718
39.8988
40.93071
42.01104
43.11551
44.27075
45.55272
46.75774
47.84384
48.78205
49.50116
49.97011
50.1803
50.12156
49.8059
49.26042
48.51526
47.59985
46.54887
45.39187
44.15308
42.8567
41.53186
40.21319
38.94949
37.79311
36.79169
35.96818
35.30524
34.75271
34.25627
33.77222
33.29005
32.82767
32.41799
32.09423
31.88902
31.8163
31.85579
31.95568
32.05235
32.10081
32.09236
32.04352
31.98392
31.95117
31.97942
32.08456
32.26096
32.49495
32.77342
33.07392
33.35391
33.56549
33.6932
33.75565
33.77656
33.76396
33.7154
33.63318
33.53344
33.43825
33.35346
33.25951
33.12792
32.94424
32.71549
32.46829
32.23047
32.01668
31.84698
31.73509
31.67738
31.66423
31.69124
31.77644
31.94952
32.22023
32.54993
32.86989
33.12275
33.27365
33.3039
33.22547
33.07509
32.89891
32.73215
32.58232
32.42262
32.21408
31.92991
31.56634
31.16501
30.76406
30.37159
29.98519
29.60324
29.22322
28.84482
28.47068
28.10399
27.74687
27.4018
27.07093
26.75506
26.45291
26.16137
25.8756
25.59066
25.30361
25.00927
24.70763
24.40197
24.09338
23.7843
23.48086
23.19082
22.9251
22.6965
22.52016
22.41548
22.42366
22.57572
22.87477
23.31273
23.87557
24.5324
25.22464
25.87992
26.41833
26.79293
26.95527
26.87799
26.5766
26.10124
25.52516
24.94668
24.43759
24.0125
23.66288
23.36175
23.07852
22.79135
22.4983
22.21256
21.94759
21.71116
21.50277
21.31526
21.13666
20.953
20.7517
20.52376
20.26486
19.97555
19.66064
19.32795
18.98687
18.64717
18.31829
18.00877
17.72615
17.478
17.27376
17.12821
17.05341
17.05787
17.14881
17.32349
17.56025
17.82886
18.09742
18.33233
18.49847
18.56855
18.53712
18.42408
18.27123
18.12497
17.99449
17.87393
17.75368
17.63331
17.51754
17.40707
17.29633
17.17704
17.04609
16.91063
16.7836
16.6783
16.60517
16.56778
16.56368
16.58528
16.62135
16.65921
16.68552
16.68848
16.66057
16.59974
16.50977
16.39995
16.2846
16.18156
16.10509
16.0635
16.05998
16.09392
16.1651
16.27435
16.41868
16.58396
16.74294
16.86282
16.92043
16.9221
16.91522
16.94043
16.97883
16.99055
16.94439
16.84641
16.72022
16.58514
16.44842
16.30726
16.15733
15.99709
15.82645
15.64693
15.46326
15.28212
15.11012
14.94986
14.80046
14.66309
14.54143
14.43895
14.35729
14.29522
14.24844
14.20987
14.17073
14.12187
14.05411
13.95941
13.83264
13.67212
13.47944
13.25896
13.01694
12.76074
12.49807
12.23638
11.98235
11.73994
11.51177
11.29951
11.10401
10.92551
10.76387
10.61865
10.48914
10.37421
10.27235
10.18164
10.10001
10.02565
9.957457
9.895595
9.841045
9.794069
9.753266
9.715994
9.679594
9.642077
9.602179
9.55941
9.514137
9.467228
9.419177
9.371042
9.324196
9.280221
9.240614
9.206373
9.17793
9.155397
9.138699
9.127696
9.12235
9.122845
9.129571
9.142877
9.16275
9.18876
9.220262
9.256737
9.297873
9.343506
9.3937
9.448491
9.507855
9.571611
9.639376
9.710568
9.784454
9.860179
9.936785
10.01329
10.08854
10.16118
10.22982
10.2932
10.35029
10.40036
10.44314
10.47877
10.50773
10.53076
10.54863
10.56191
10.57086
10.57528
10.57454
10.56757
10.55293
10.52899
10.49412
10.44697
10.38673
10.31329
10.22785
10.13258
10.02462
9.902289
9.76709
9.620887
9.465801
9.304016
9.137642
8.968631
8.798725
8.629424
8.461983
8.297418
8.136526
7.979903
7.827974
7.681012
7.539171
7.402515
7.271042
7.144707
7.023428
6.907098
6.795593
6.688773
6.586493
6.4886
6.394939
6.305357
6.219708
6.137866
6.059725
5.985207
5.914251
5.8468
5.782796
5.722175
5.664884
5.610888
5.560176
5.51276
5.468655
5.427865
5.390387
5.356229
5.325434
5.298066
5.274176
5.253753
5.236684
5.222774
5.211829
5.203749
5.198552
5.196302
5.196878
5.19973
5.203786
5.207593
5.209592
5.208391
5.203026
5.193192
5.179375
5.162784
5.14501
5.127491
5.111051
5.095896
5.082093
5.070054
5.060594
5.054606
5.052651
5.054544
5.059484
5.066366
5.073997
5.081257
5.087211
5.091194
5.0929
5.092393
5.090096
5.086922
5.084011
5.082359
5.082655
5.085181
5.090007
5.097242
5.10713
5.119933
5.135739
5.154341
5.175209
5.197613
5.220689
5.243462
5.26498
5.284397
5.300972
5.314045
5.323154
5.328312
5.330165
5.32983
5.328489
5.32708
5.326167
5.325835
5.325669
5.32496
5.323851
91.30039
38.81837
32.4269
31.08189
30.35566
30.00714
29.94239
30.0465
30.27676
30.59656
30.85026
30.90946
30.96975
31.01692
31.05361
31.07483
31.08988
31.101
31.09781
31.06112
30.96962
30.83923
30.71902
30.61833
30.54357
30.49862
30.49375
30.53203
30.61308
30.73678
30.9049
31.12199
31.3988
31.74297
32.16919
32.68001
33.31098
34.04997
34.87787
35.78819
36.77051
37.79822
38.87503
40.02429
41.25897
42.47639
43.69808
44.86312
45.8834
46.68865
47.23965
47.50107
47.4584
47.1148
46.48547
45.60231
44.51643
43.28925
41.96098
40.58537
39.20109
37.82805
36.47586
35.15667
33.89526
32.7384
31.76101
31.02185
30.54421
30.30641
30.24281
30.26203
30.29014
30.29811
30.30734
30.39371
30.64207
31.1076
31.79225
32.6276
33.48748
34.23941
34.81239
35.21837
35.50115
35.72792
35.99208
36.37466
36.90468
37.56576
38.33771
39.19613
40.0668
40.81984
41.33398
41.58569
41.6535
41.61893
41.50954