/*--------------------------------*- C++ -*----------------------------------*\
| =========                 |                                                 |
| \\      /  F ield         | foam-extend: Open Source CFD                    |
|  \\    /   O peration     | Version:     3.1                                |
|   \\  /    A nd           | Web:         http://www.extend-project.de       |
|    \\/     M anipulation  |                                                 |
\*---------------------------------------------------------------------------*/
FoamFile
{
    version     2.0;
    format      ascii;
    class       volScalarField;
    location    "15.5";
    object      p;
}
// * * * * * * * * * * * * * * * * * * * * * * * * * * * * * * * * * * * * * //

dimensions      [1 -1 -2 0 0 0 0];

internalField   nonuniform List<scalar> 
119952
(
6033.193
5119.716
5008.455
5171.862
5336.461
5254.737
5244.388
5242.275
5245.113
5248.573
5251.189
5251.595
5248.74
5241.801
5230.099
5213.303
5190.464
5159.254
5113.069
4998.211
5278.383
5049.284
4938.221
5306.145
5228.157
5249.513
5260.187
5362.786
5740.036
7281.242
3726.408
3736.144
3776.385
3811.433
3844.523
3875.41
3902.976
3929.498
3955.708
3957.592
3955.148
3983.777
3993.977
4006.693
4018.514
4031.441
4045.229
4058.791
4074.907
4092.06
4089.52
4090.469
4107.306
4126.103
4145.891
4168.881
4194.577
4222.256
4253.184
4277.645
4313.036
4353.053
4394.373
4438.443
4485.498
4535.663
4593.886
4689.126
4837.477
4785.596
4803.846
4893.153
4948.41
4962.462
4963.139
4969.364
4975.239
4979.725
4982.367
4982.147
4978.064
4969.468
4955.935
4937.131
4912.7
4882.141
4847.142
4814.947
4796.851
4783.321
4757.685
4806.045
4914.33
4919.579
4923.156
4935.779
4882.079
4651.644
4632.155
4719.195
4777.133
4842.027
4908.812
4974.754
5038.657
5098.257
5152.546
5202.387
5250.249
5298.617
5348.343
5398.705
5448.316
5496.057
5541.373
5584.475
5625.572
5664.71
5701.845
5736.551
5768.693
5798.044
5824.422
5847.628
5867.537
5884.092
5897.331
5907.399
5914.578
5919.299
5922.125
5923.673
5924.813
5926.427
5929.395
5934.793
5943.195
5955.211
5971.254
5991.732
6015.851
6040.292
6049.448
6034.675
6042.148
6073.581
6095.786
6112.73
6117.268
6123.939
6132.42
6139.892
6146.127
6152.052
6158.568
6166.193
6174.88
6183.936
6192.79
6201.028
6208.013
6213.268
6216.679
6218.285
6218.189
6216.514
6213.381
6209.142
6203.722
6197.078
6190.035
6182.947
6176.237
6170.447
6166.08
6163.447
6163.276
6165.903
6170.966
6178.504
6188.309
6200.135
6213.707
6228.868
6245.137
6261.72
6277.22
6281.737
6274.984
6282.108
6300.486
6318.64
6334.649
6347.947
6358.273
6365.83
6372.303
6417.791
6423.003
6426.542
6431.346
6437.004
6443.242
6449.613
6455.933
6461.941
6467.606
6472.893
6477.87
6482.447
6486.743
6490.753
6494.419
6497.707
6500.592
6503.059
6505.096
6506.705
6507.89
6508.661
6509.034
6509.031
6508.667
6507.959
6506.891
6505.505
6503.718
6501.449
6498.527
6494.607
6488.903
6479.201
6466.469
6485.155
6497.529
6507.773
6517.094
6526.202
6535.468
6545.109
6555.231
6565.839
6576.993
6588.975
6602.408
6616.228
6627.85
6635.52
6643.177
6651.917
6661.763
6670.874
6676.11
6682.764
6695.554
6708.369
6719.316
6728.667
6736.788
6743.837
6749.89
6755.034
6759.41
6763.331
6767.042
6770.648
6774.876
6765.805
6756.196
6756.226
6758.285
6759.565
6761.555
6763.966
6766.43
6769.012
6771.844
6774.915
6778.102
6781.267
6784.36
6787.374
6790.282
6793.103
6795.818
6798.438
6800.974
6803.438
6805.84
6808.194
6810.513
6812.81
6815.091
6817.362
6819.623
6821.866
6824.08
6826.248
6828.352
6830.37
6832.282
6834.07
6835.717
6837.213
6838.55
6839.728
6840.753
6841.636
6842.401
6843.09
6843.765
6844.409
6844.571
6843.655
6842.231
6840.946
6839.717
6838.477
6837.322
6835.962
6834.107
6828.458
6827.651
6827.808
6825.987
6824.099
6822.289
6820.418
6818.517
6816.579
6814.609
6812.609
6810.559
6808.449
6806.268
6804.003
6801.641
6799.168
6796.567
6793.824
6790.922
6787.847
6784.584
6781.122
6777.45
6773.565
6769.465
6765.154
6760.643
6755.944
6751.079
6746.072
6740.961
6735.794
6730.63
6725.542
6720.609
6715.913
6711.53
6707.53
6703.961
6700.834
6698.161
6695.958
6694.194
6692.827
6691.806
6691.076
6690.578
6690.256
6690.056
6689.931
6689.843
6689.754
6689.647
6689.5
6689.312
6689.074
6688.776
6688.417
6687.993
6687.505
6686.948
6686.311
6685.582
6684.746
6683.787
6682.684
6681.414
6679.947
6678.251
6676.285
6674.007
6671.366
6668.304
6664.746
6660.602
6655.748
6650.004
6643.122
6634.671
6623.882
6609.793
6595.823
6603.28
6670.749
4207.627
4079.61
3929.73
3795.438
3673.564
3563.172
3464.202
3376.194
3299.868
3192.198
3137.93
3086.452
3038.465
2999.408
2967.751
2944.186
2926.643
2913.824
2883.769
2902.272
2892.164
2894.903
2908.797
2926.681
2948.996
2975.456
3005.903
3040.346
3076.846
3105.46
3147.698
3191.106
3234.093
3277.184
3320.431
3363.251
3405.95
3454.422
3475.378
3505.616
3539.716
3569.638
3596.513
3620.943
3642.867
3662.768
3680.455
3691.563
3708.214
3722.745
3734.587
3746.019
3758.2
3771.23
3785.415
3803.521
3751.35
3769.835
3788.187
3805.297
3823.401
3843.808
3866.633
3891.823
3918.929
3948.198
3981.827
4017.647
4054.865
4094.878
4139.19
4188.417
4243.871
4305.888
4372.278
4435.056
4481.844
4519.894
4563.161
4604.844
4635.666
4655.066
4668.084
4677.947
4685.225
4688.464
4687.498
4681.357
4669.762
4652.685
4630.411
4603.522
4573.211
4541.755
4512.41
4488.952
4473.852
4470.294
4483.221
4503.66
4516.41
4513.623
4493.648
4456.478
4408.138
4391.611
4429.894
4483.167
4542.122
4605.678
4671.316
4736.67
4799.821
4859.806
4916.695
4971.154
5023.889
5075.221
5125.007
5172.871
5218.516
5261.884
5303.127
5342.404
5379.69
5414.821
5447.844
5478.123
5505.701
5530.287
5551.632
5569.583
5584.061
5595.107
5602.887
5607.739
5610.171
5610.844
5610.532
5610.116
5610.618
5613.09
5618.374
5627.135
5639.496
5654.942
5673.303
5693.09
5709.596
5722.722
5733.007
5749.1
5771.302
5790.446
5805.559
5817.877
5828.472
5838.56
5847.171
5854.8
5862.2
5869.599
5876.916
5883.882
5890.97
5896.803
5902.328
5906.61
5909.445
5910.654
5910.266
5908.356
5905.006
5900.304
5894.398
5887.456
5879.783
5871.72
5863.792
5856.567
5850.615
5846.485
5844.907
5846.269
5850.874
5858.392
5868.126
5879.627
5892.627
5906.701
5921.405
5936.404
5950.883
5962.602
5973.209
5977.959
5987.275
6002.002
6016.738
6030.851
6043.561
6055.161
6065.083
6073.507
6145.159
6153.149
6158.866
6162.876
6168.382
6173.781
6179.067
6184.303
6189.323
6194.083
6198.568
6202.651
6206.797
6210.539
6214.007
6217.181
6220.023
6222.51
6224.624
6226.362
6227.719
6228.699
6229.313
6229.577
6229.507
6229.121
6228.433
6227.443
6226.121
6224.459
6222.403
6219.863
6216.719
6212.998
6209.517
6208.849
6214.632
6224.205
6232.794
6241.288
6250.023
6259.004
6268.46
6278.38
6288.859
6299.963
6311.742
6324.038
6336.268
6347.408
6357.23
6366.801
6376.525
6386.465
6395.809
6404.013
6413.148
6424.582
6436.106
6446.584
6455.779
6463.778
6470.691
6476.653
6481.715
6486.233
6490.252
6494.235
6497.707
6502.046
6451.254
6459.013
6456.872
6454.453
6454.717
6457.05
6459.837
6462.276
6464.488
6467.03
6469.937
6473.006
6476.034
6479.015
6481.945
6484.824
6487.575
6490.2
6492.718
6495.14
6497.479
6499.748
6501.963
6504.14
6506.293
6508.432
6510.563
6512.686
6514.795
6516.879
6518.923
6520.907
6522.812
6524.618
6526.306
6527.861
6529.272
6530.533
6531.64
6532.598
6533.411
6534.088
6534.628
6535.006
6535.151
6534.956
6534.325
6533.337
6532.199
6531.027
6529.813
6528.543
6527.179
6525.747
6524.008
6521.649
6519.47
6517.679
6516.014
6514.271
6512.412
6510.478
6508.501
6506.488
6504.434
6502.328
6500.162
6497.922
6495.596
6493.169
6490.625
6487.95
6485.126
6482.136
6478.965
6475.596
6472.019
6468.226
6464.213
6459.983
6455.542
6450.899
6446.069
6441.072
6435.937
6430.708
6425.443
6420.214
6415.105
6410.208
6405.612
6401.397
6397.628
6394.344
6391.56
6389.26
6387.429
6386.038
6385.033
6384.352
6383.928
6383.693
6383.583
6383.542
6383.524
6383.496
6383.434
6383.319
6383.151
6382.937
6382.676
6382.369
6382.018
6381.618
6381.161
6380.64
6380.045
6379.359
6378.567
6377.647
6376.576
6375.322
6373.852
6372.128
6370.109
6367.758
6365.026
6361.879
6358.254
6354.113
6349.366
6343.962
6337.861
6331.149
6324.449
6318.91
6316.932
6318.842
6326.808
3015.244
3090.514
3189.605
3304.498
3434.142
3578.109
3735.693
3905.459
4085.785
4271.578
4449.722
4648.766
4848.785
5048.037
5241.646
5427.359
5601.484
5757.462
5889.144
5976.857
6055.722
6104.232
6121.199
6106.378
6060.929
5987.051
5887.603
5766.722
5632.031
5477.466
5315.17
5142.529
4964.206
4782.215
4598.836
4416.536
4238.294
4067.735
3895.128
3739.977
3595.614
3461.76
3340.602
3230.975
3132.664
3045.27
2969.115
2900.457
2837.764
2786.487
2742.216
2705.063
2675.223
2652.709
2637.692
2635.999
2554.228
2555.74
2565.466
2579.002
2595.468
2615.566
2639.742
2667.771
2699.173
2733.619
2771.524
2812.585
2854.378
2896.683
2940.002
2984.161
3028.498
3072.243
3114.463
3154.011
3190.814
3223.621
3252.909
3279.461
3303.619
3325.472
3344.991
3362.127
3377.079
3390.992
3403.72
3415.162
3426.295
3437.937
3450.173
3463.1
3476.149
3490.641
3507.051
3523.876
3539.058
3554.331
3571.958
3592.366
3615.251
3640.303
3667.707
3697.372
3729.158
3763.318
3800.128
3840.261
3884.4
3933.319
3986.494
4043.317
4102.808
4164.046
4216.06
4260.107
4303.553
4346.587
4383.408
4410.635
4430.228
4444.877
4454.981
4460.376
4459.569
4452.341
4438.705
4418.773
4393.284
4363.303
4330.218
4295.945
4263.026
4234.493
4213.359
4199.175
4192.887
4195.534
4197.405
4190.646
4176.053
4158.603
4138.389
4138.815
4171.299
4222.948
4282.347
4346.663
4414.193
4482.85
4550.666
4616.243
4678.879
4738.491
4795.199
4849.048
4900.012
4948.08
4993.328
5035.948
5076.22
5114.362
5150.426
5184.362
5216.157
5245.515
5271.966
5295.418
5315.571
5332.188
5345.127
5354.407
5360.169
5362.778
5362.801
5360.98
5358.197
5355.466
5353.978
5354.928
5359.241
5367.247
5379.248
5394.534
5412.083
5430.855
5450.243
5468.03
5482.938
5500.402
5522.191
5542.627
5560.511
5576.499
5590.611
5603.415
5615.17
5625.667
5634.653
5642.152
5648.707
5654.58
5660.105
5665.037
5668.751
5671.04
5671.724
5670.896
5668.579
5664.769
5659.539
5653
5645.26
5636.491
5626.987
5617.17
5607.608
5599.001
5592.142
5587.802
5586.747
5589.38
5595.572
5604.745
5616.135
5629.036
5643.039
5657.797
5672.937
5687.977
5702.272
5715.148
5726.405
5735.391
5746.36
5759.476
5772.861
5785.867
5798.207
5809.731
5819.849
5829.623
5838.79
5847.633
5855.513
5862.948
5869.917
5875.962
5881.352
5886.328
5890.887
5894.977
5898.626
5901.981
5905.254
5907.985
5910.635
5913.066
5915.201
5917.029
5918.54
5919.725
5920.582
5921.119
5921.349
5921.295
5920.978
5920.415
5919.61
5918.56
5917.271
5915.759
5914.038
5912.184
5910.379
5909.015
5908.755
5910.446
5914.658
5920.912
5928.074
5935.591
5943.42
5951.661
5960.373
5969.969
5980.07
5990.773
6001.982
6013.5
6025.013
6036.237
6047.015
6057.531
6067.959
6078.181
6088.188
6098.243
6108.402
6118.936
6129.466
6139.451
6148.486
6156.675
6163.954
6170.434
6175.998
6181.036
6185.492
6189.747
6193.458
6198.689
6206.467
6210.404
6210.676
6210.568
6211.881
6214.556
6217.576
6220.224
6222.558
6225.002
6227.66
6230.397
6233.174
6235.909
6238.612
6241.247
6243.802
6246.286
6248.703
6251.02
6253.24
6255.383
6257.466
6259.504
6261.512
6263.505
6265.491
6267.471
6269.441
6271.391
6273.306
6275.168
6276.958
6278.656
6280.243
6281.705
6283.029
6284.209
6285.239
6286.118
6286.846
6287.42
6287.83
6288.053
6288.062
6287.815
6287.274
6286.441
6285.411
6284.276
6283.089
6281.813
6280.456
6278.872
6277.159
6275.557
6273.925
6272.176
6270.324
6268.402
6266.43
6264.422
6262.388
6260.325
6258.225
6256.078
6253.873
6251.597
6249.235
6246.772
6244.193
6241.477
6238.605
6235.563
6232.334
6228.901
6225.251
6221.376
6217.275
6212.951
6208.41
6203.661
6198.716
6193.592
6188.322
6182.952
6177.55
6172.203
6167.01
6162.073
6157.486
6153.335
6149.683
6146.565
6143.992
6141.954
6140.418
6139.336
6138.647
6138.274
6138.136
6138.163
6138.273
6138.398
6138.485
6138.516
6138.478
6138.366
6138.186
6137.957
6137.689
6137.388
6137.059
6136.701
6136.3
6135.847
6135.329
6134.727
6134.023
6133.192
6132.205
6131.029
6129.626
6127.956
6125.981
6123.664
6120.974
6117.887
6114.381
6110.448
6106.075
6101.313
6096.256
6091.164
6086.422
6082.548
6080.194
6080.261
6083.08
2606.531
2591.801
2577.587
2551.58
2542.044
2514.193
2529.611
2560.595
2605.732
2635.141
2651.915
2687.418
2743.791
2818.979
2911.417
3019.348
3142.207
3277.021
3424.706
3583.907
3753.614
3932.392
4117.942
4307.992
4500.613
4692.01
4878.649
5058.142
5225.661
5377.725
5511.311
5586.283
5665.2
5711.005
5721.467
5699.323
5646.544
5565.458
5459.718
5334.12
5193.477
5040.773
4878.428
4708.452
4532.914
4353.615
4172.584
3992.417
3815.554
3645.049
3483.437
3332.968
3193.959
3066.633
2951.748
2848.984
2757.465
2676.325
2604.577
2541.279
2485.77
2437.557
2396.702
2363.203
2336.639
2316.819
2303.361
2296.393
2293.729
2297.535
2306.723
2319.132
2335.405
2356.237
2381.464
2410.596
2443.315
2479.752
2519.45
2561.065
2604.179
2648.834
2694.68
2741.158
2787.623
2833.274
2877.243
2918.76
2956.326
2989.084
3017.98
3043.743
3066.696
3086.995
3104.52
3119.582
3132.881
3144.679
3155.441
3165.877
3176.54
3187.844
3199.984
3212.852
3226.51
3241.011
3255.756
3270.673
3285.778
3301.804
3319.643
3339.71
3362.064
3386.601
3413.293
3441.852
3472.33
3505.226
3540.903
3579.617
3621.923
3668.364
3719.066
3774.314
3832.3
3891.119
3946.76
3998.198
4047.4
4094.496
4136.591
4171.141
4198.229
4218.878
4233.15
4240.551
4240.28
4232.003
4215.903
4192.568
4162.889
4128.066
4089.742
4049.908
4010.856
3974.91
3943.975
3918.707
3899.847
3887.791
3878.282
3868.231
3858.112
3851.568
3851.583
3866.209
3900.606
3951.622
4012.511
4079.352
4150.155
4223.111
4296.21
4367.673
4436.293
4501.374
4562.509
4619.56
4672.605
4721.868
4767.668
4810.395
4850.446
4888.14
4923.643
4956.995
4988.081
5016.592
5042.424
5065.051
5084.189
5099.502
5110.743
5117.896
5121.153
5120.904
5117.744
5112.492
5106.133
5099.868
5095.235
5093.746
5096.469
5103.939
5115.869
5131.668
5150.187
5170.405
5191.318
5211.711
5231.727
5253.363
5276.545
5298.541
5318.423
5336.487
5352.91
5367.955
5381.665
5393.806
5404.373
5413.473
5421.374
5428.197
5433.834
5437.907
5440.2
5440.773
5439.483
5436.44
5431.694
5425.304
5417.415
5408.236
5397.914
5386.631
5374.715
5362.579
5350.804
5340.201
5331.835
5326.738
5325.664
5329.234
5337.319
5348.914
5362.541
5377.186
5392.509
5408.338
5424.296
5439.909
5454.686
5468.285
5480.664
5491.793
5503.209
5515.359
5527.806
5540.133
5552.265
5563.795
5574.582
5584.681
5594.553
5605.134
5615.425
5624.491
5632.176
5638.651
5644.354
5649.428
5653.852
5657.652
5660.738
5663.354
5665.687
5667.718
5669.49
5671.012
5672.305
5673.373
5674.196
5674.762
5675.074
5675.138
5674.973
5674.602
5674.052
5673.342
5672.473
5671.435
5670.216
5668.892
5667.547
5666.303
5665.366
5665.022
5665.624
5667.532
5671.051
5676.128
5682.235
5688.874
5695.948
5703.556
5711.812
5720.843
5730.572
5740.963
5751.925
5763.316
5774.911
5786.449
5797.763
5808.887
5819.934
5830.881
5841.573
5852.016
5862.459
5873.003
5883.329
5893.058
5902.103
5910.345
5917.875
5924.579
5930.78
5936.322
5941.754
5946.603
5951.828
5956.379
5960.263
5963.899
5966.705
5968.786
5970.937
5973.505
5976.198
5978.637
5980.839
5983.088
5985.558
5988.19
5990.875
5993.527
5996.098
5998.586
6001.012
6003.37
6005.635
6007.805
6009.898
6011.904
6013.849
6015.748
6017.625
6019.487
6021.337
6023.18
6025.013
6026.829
6028.613
6030.347
6032.01
6033.585
6035.053
6036.4
6037.612
6038.683
6039.605
6040.376
6040.991
6041.447
6041.734
6041.841
6041.752
6041.444
6040.898
6040.117
6039.153
6038.062
6036.887
6035.615
6034.247
6032.759
6031.225
6029.667
6027.996
6026.189
6024.304
6022.392
6020.46
6018.499
6016.5
6014.461
6012.373
6010.232
6008.028
6005.75
6003.379
6000.901
5998.308
5995.58
5992.693
5989.625
5986.357
5982.873
5979.158
5975.204
5971.01
5966.582
5961.927
5957.052
5951.966
5946.68
5941.223
5935.645
5930.024
5924.46
5919.07
5913.977
5909.293
5905.115
5901.513
5898.526
5896.155
5894.376
5893.141
5892.393
5892.053
5892.026
5892.215
5892.531
5892.875
5893.192
5893.432
5893.563
5893.56
5893.454
5893.262
5893.015
5892.737
5892.442
5892.147
5891.848
5891.517
5891.139
5890.704
5890.189
5889.576
5888.841
5887.954
5886.879
5885.571
5883.991
5882.098
5879.865
5877.268
5874.301
5870.971
5867.3
5863.326
5859.134
5854.862
5850.743
5847.003
5843.92
5841.883
5841.108
5841.348
2785.639
2757.847
2730.866
2680.074
2637.753
2562.903
2522.01
2482.074
2443.822
2407.7
2373.523
2342.751
2315.167
2292.355
2275.184
2264.039
2201.125
2209.615
2226.871
2249.664
2275.386
2309.433
2357.056
2419.394
2497.175
2591.231
2700.379
2823.842
2960.665
3109.733
3269.853
3439.669
3617.36
3801.851
3990.368
4180.093
4368.564
4552.098
4730.754
4896.025
5045.781
5172.684
5268.268
5343.322
5387.918
5397.991
5374.375
5319.02
5234.71
5125.553
4996.781
4853.785
4700.766
4540.403
4373.88
4202.423
4027.098
3849.242
3671.964
3497.221
3327.473
3166.088
3015.126
2876.407
2751.652
2640.938
2543.09
2456.616
2380.3
2313.091
2253.75
2201.334
2155.81
2117.407
2085.98
2060.962
2042.357
2030.494
2025.558
2026.026
2030.34
2038.55
2051.308
2069.017
2091.5
2118.149
2148.582
2182.832
2221.111
2262.634
2306.196
2351.742
2399.346
2448.207
2497.627
2547.141
2596.095
2643.374
2687.376
2726.443
2760.009
2788.696
2813.436
2834.988
2853.533
2868.537
2880.344
2890.316
2899.262
2907.675
2916.227
2925.566
2936.159
2948.156
2961.087
2974.244
2987.523
3001.264
3015.693
3031.008
3047.261
3064.597
3083.59
3104.875
3128.522
3154.323
3181.771
3210.742
3241.588
3274.886
3311.428
3351.672
3396.233
3445.483
3499.436
3556.973
3616.709
3676.773
3735.473
3792.15
3846.006
3895.223
3937.894
3973.072
4000.448
4019.707
4030.212
4031.136
4021.974
4002.88
3974.886
3939.426
3897.931
3852.244
3804.475
3756.731
3710.894
3668.682
3631.422
3599.747
3574.253
3554.448
3539.831
3531.253
3531.961
3544.469
3570.741
3611.711
3665.878
3730.018
3801.237
3877.376
3956.465
4036.283
4114.668
4189.989
4261.186
4327.55
4388.733
4444.81
4496.146
4543.245
4586.678
4626.998
4664.662
4699.943
4732.969
4763.67
4791.801
4817.1
4839.185
4857.545
4871.696
4881.256
4886.055
4886.253
4882.364
4875.097
4865.332
4854.129
4842.909
4833.626
4828.371
4828.817
4835.697
4848.4
4865.805
4886.343
4908.461
4931.554
4955.616
4980.584
5006.355
5031.92
5055.811
5077.453
5097.088
5115.247
5132.213
5147.948
5162.376
5175.485
5187.067
5196.739
5204.291
5209.807
5213.123
5214.137
5212.971
5209.73
5204.474
5197.243
5188.143
5177.337
5165.053
5151.592
5137.249
5122.307
5107.155
5092.46
5079.117
5068.315
5061.446
5059.706
5064.218
5074.754
5089.492
5106.236
5123.344
5140.507
5157.887
5175.251
5192.064
5207.805
5222.251
5235.394
5247.301
5258.875
5270.6
5282.31
5294.026
5305.945
5317.686
5329.204
5340.516
5351.888
5363.436
5374.566
5384.573
5393.196
5400.536
5406.974
5412.555
5417.11
5420.739
5423.552
5425.724
5427.406
5428.683
5429.619
5430.278
5430.708
5430.953
5431.005
5430.864
5430.538
5430.047
5429.418
5428.684
5427.873
5427.011
5426.08
5425.053
5423.903
5422.712
5421.605
5420.732
5420.276
5420.462
5421.515
5423.591
5426.777
5431.04
5436.153
5441.864
5448.124
5455.049
5462.678
5471.155
5480.45
5490.537
5501.333
5512.708
5524.465
5536.365
5548.217
5559.946
5571.514
5582.85
5593.921
5604.807
5615.612
5626.297
5636.661
5646.414
5655.502
5663.946
5671.803
5678.907
5685.414
5691.277
5696.865
5702.054
5707.029
5711.442
5715.537
5719.667
5723.513
5726.593
5729.165
5731.642
5734.176
5736.676
5739.072
5741.405
5743.826
5746.367
5748.938
5751.483
5753.985
5756.437
5758.815
5761.074
5763.214
5765.283
5767.276
5769.19
5771.029
5772.799
5774.538
5776.262
5777.976
5779.673
5781.351
5783.005
5784.625
5786.193
5787.69
5789.1
5790.406
5791.594
5792.652
5793.574
5794.352
5794.983
5795.462
5795.785
5795.948
5795.94
5795.753
5795.374
5794.797
5794.028
5793.093
5792.028
5790.863
5789.604
5788.257
5786.825
5785.32
5783.737
5782.061
5780.301
5778.485
5776.637
5774.751
5772.818
5770.833
5768.796
5766.695
5764.548
5762.345
5760.072
5757.715
5755.25
5752.657
5749.919
5747.021
5743.938
5740.643
5737.114
5733.334
5729.295
5724.998
5720.453
5715.67
5710.655
5705.406
5699.926
5694.236
5688.387
5682.466
5676.595
5670.913
5665.566
5660.692
5656.413
5652.82
5649.959
5647.818
5646.344
5645.468
5645.118
5645.196
5645.593
5646.197
5646.874
5647.528
5648.07
5648.458
5648.665
5648.712
5648.604
5648.388
5648.115
5647.815
5647.512
5647.268
5647.057
5646.817
5646.523
5646.181
5645.761
5645.245
5644.615
5643.841
5642.885
5641.698
5640.237
5638.462
5636.341
5633.861
5631.032
5627.883
5624.457
5620.811
5617.037
5613.285
5609.786
5606.717
5604.218
5602.373
5601.282
5600.684
2958.65
2921.641
2880.665
2828.037
2789.62
2715.271
2677.432
2639.698
2601.779
2563.305
2524.914
2486.476
2446.614
2406.742
2365.098
2257.037
2216.307
2176.72
2138.433
2101.775
2067.222
2035.388
2006.706
1982.101
1962.218
1947.985
1939.69
1940.421
1949.117
1965.343
1989.682
2024.645
2072.008
2133.954
2211.399
2304.036
2411.443
2532.924
2667.588
2814.356
2972.035
3139.29
3313.765
3493.111
3675.935
3860.997
4045.075
4226.064
4400.02
4561.591
4706.808
4831.287
4928.924
4999.269
5038.671
5044.403
5016.06
4955.146
4864.821
4749.651
4615.717
4469.112
4314.923
4156.49
3994.182
3828.245
3659.324
3487.559
3315.772
3146.919
2981.833
2822.554
2672.501
2535.74
2415.22
2310.526
2219.713
2140.354
2070.803
2009.93
1956.099
1908.001
1865.718
1829.996
1800.863
1777.56
1760.273
1750.382
1748.564
1752.096
1756.427
1763.771
1776.7
1795.503
1819.674
1848.232
1880.553
1916.739
1957.731
2002.462
2048.534
2096.282
2146.952
2199.539
2253.196
2307.48
2361.62
2413.989
2462.114
2503.736
2538.146
2566.124
2589.25
2608.821
2624.906
2635.982
2642.673
2647.826
2652.593
2657.375
2663.489
2671.766
2682.4
2694.881
2707.952
2719.962
2731.585
2744.511
2758.599
2773.761
2789.727
2806.155
2823.612
2843.488
2866.143
2891.247
2917.836
2944.958
2973.047
3003.094
3036.214
3073.307
3115.284
3162.847
3216.238
3274.853
3337.689
3403.371
3470.116
3536.051
3599.29
3657.871
3710.01
3754.367
3789.845
3815.294
3829.729
3832.301
3822.269
3799.65
3765.541
3722.063
3671.373
3615.622
3557.235
3498.485
3441.107
3386.521
3336.096
3291.056
3252.596
3222.019
3201.214
3191.798
3197.405
3220.148
3258.35
3308.749
3369.269
3438.55
3515.344
3598.084
3684.518
3771.843
3857.561
3939.889
4017.569
4089.598
4155.444
4215.17
4269.223
4318.246
4362.959
4404.072
4442.205
4477.775
4510.975
4541.776
4569.969
4595.21
4617.297
4635.394
4648.817
4656.959
4659.481
4656.355
4648.141
4635.803
4620.296
4602.663
4584.535
4568.694
4558.204
4555.523
4561.931
4576.232
4596.512
4620.089
4644.722
4670.62
4698.799
4728.624
4758.938
4788.161
4814.821
4838.647
4860.025
4879.583
4898.166
4915.7
4931.868
4946.537
4959.456
4970.446
4979.128
4985.152
4988.416
4988.851
4986.444
4981.304
4973.699
4963.913
4952.07
4938.29
4922.872
4906.154
4888.428
4870.06
4851.346
4833.019
4816.072
4801.858
4792.213
4788.419
4793.345
4806.924
4826.03
4847.09
4867.124
4886.612
4906.265
4925.669
4944.229
4961.322
4976.59
4990.385
5002.891
5014.227
5025.355
5036.755
5048.241
5060.539
5073.124
5085.394
5097.412
5109.26
5120.952
5132.246
5142.87
5152.81
5161.746
5169.5
5176.13
5181.238
5184.907
5187.415
5189.053
5189.997
5190.426
5190.476
5190.264
5189.84
5189.227
5188.446
5187.514
5186.456
5185.307
5184.124
5182.971
5181.872
5180.871
5179.892
5178.867
5177.724
5176.618
5175.642
5174.938
5174.706
5175.183
5176.524
5178.714
5181.652
5185.259
5189.493
5194.304
5199.726
5205.866
5212.888
5220.821
5229.708
5239.549
5250.26
5261.755
5273.876
5286.331
5298.795
5311.083
5323.123
5334.863
5346.304
5357.466
5368.388
5379.079
5389.454
5399.376
5408.706
5417.385
5425.52
5433.077
5440.075
5446.469
5452.391
5457.924
5463.106
5467.885
5472.363
5476.596
5480.486
5483.843
5486.738
5489.438
5492.127
5494.8
5497.453
5499.975
5502.472
5504.988
5507.498
5509.976
5512.402
5514.756
5517.027
5519.201
5521.293
5523.31
5525.234
5527.073
5528.844
5530.561
5532.199
5533.782
5535.347
5536.879
5538.388
5539.86
5541.283
5542.646
5543.934
5545.133
5546.231
5547.215
5548.076
5548.809
5549.408
5549.868
5550.188
5550.364
5550.391
5550.264
5549.977
5549.523
5548.901
5548.118
5547.187
5546.129
5544.97
5543.721
5542.387
5540.971
5539.474
5537.903
5536.265
5534.567
5532.811
5531.006
5529.144
5527.22
5525.239
5523.209
5521.128
5518.994
5516.796
5514.532
5512.191
5509.75
5507.182
5504.459
5501.564
5498.476
5495.165
5491.602
5487.762
5483.632
5479.217
5474.539
5469.615
5464.447
5459.024
5453.329
5447.366
5441.184
5434.888
5428.623
5422.548
5416.839
5411.671
5407.204
5403.57
5400.836
5398.966
5397.855
5397.406
5397.528
5398.115
5399.037
5400.134
5401.238
5402.223
5403.014
5403.568
5403.871
5403.941
5403.816
5403.561
5403.251
5402.923
5402.614
5402.443
5402.348
5402.197
5402.001
5401.763
5401.438
5401.017
5400.492
5399.836
5399.018
5397.981
5396.669
5395.032
5393.042
5390.691
5388.008
5385.042
5381.836
5378.438
5374.924
5371.481
5368.455
5365.934
5363.801
5362.112
5361.07
5360.219
2940.508
2892.982
2847
2789.455
2732.17
2680.865
2633.652
2590.211
2550.106
2510.136
2404.967
2367.676
2330.746
2293.539
2255.795
2217.498
2178.562
2138.739
2098.211
2057.751
2018.086
1977.759
1938.027
1899.213
1861.652
1825.699
1791.592
1759.518
1730.489
1705.641
1686.016
1673.239
1668.073
1671.367
1684.27
1707.399
1742.292
1790.244
1852.244
1928.967
2020.405
2126.238
2245.838
2378.453
2522.811
2677.342
2839.809
3008.943
3182.635
3360.669
3542.04
3722.645
3898.947
4066.776
4221.093
4357.255
4471.431
4559.592
4619.299
4648.806
4646.147
4610.27
4541.855
4444.1
4321.818
4181.718
4030.662
3874.214
3716.851
3559.415
3400.949
3241.121
3080.238
2917.739
2755.194
2595.517
2440.808
2295.717
2165.031
2051.128
1954.313
1872.895
1803.268
1743.5
1691.903
1645.874
1603.276
1564.846
1532.59
1506.555
1484.977
1468.52
1461.134
1463.399
1470.192
1474.831
1481.13
1494.764
1514.481
1539.333
1569.513
1605.083
1644.305
1689.768
1739.436
1788.003
1837.605
1891.816
1948.227
2007.045
2068.1
2130.607
2191.27
2245.165
2289.366
2324.008
2350.966
2372.145
2389.471
2402.922
2408.136
2406.546
2405.139
2405.105
2404.329
2405.978
2412.448
2424.356
2439.332
2453.911
2464.646
2473.974
2485.794
2498.875
2513.912
2529.725
2545.072
2560.684
2579.191
2601.114
2626.251
2652.244
2677.008
2701.402
2726.865
2755.382
2788.121
2826.38
2871.587
2924.454
2984.946
3052.439
3125.486
3202.071
3279.419
3354.447
3424.541
3487.822
3542.699
3587.504
3620.48
3639.957
3644.467
3632.904
3605.074
3562.733
3508.924
3446.452
3377.915
3306.378
3234.633
3164.61
3097.618
3034.289
2975.246
2922.524
2879.011
2849.695
2837.195
2846.406
2879.701
2931.879
2993.896
3062.934
3139.685
3224.015
3314.655
3409.674
3505.604
3599.414
3689.111
3773.207
3850.617
3920.829
3983.985
4040.68
4091.711
4137.93
4180.167
4219.136
4255.413
4289.375
4321.008
4350.066
4376.264
4398.96
4417.552
4430.869
4437.915
4438.065
4431.183
4418.016
4399.732
4377.156
4351.333
4323.944
4298.889
4281.307
4274.806
4281.572
4298.773
4324.385
4354.113
4382.3
4409.925
4441.383
4476.671
4513.071
4546.857
4576.191
4601.921
4625.01
4645.429
4665.173
4684.103
4701.938
4718.3
4732.457
4744.582
4754.168
4760.534
4763.543
4763.181
4759.51
4752.738
4743.128
4731.005
4716.655
4700.354
4682.212
4662.161
4640.591
4618.349
4595.423
4572.589
4551.03
4531.77
4518.909
4511.25
4516.257
4534.942
4560.199
4588.184
4613.025
4634.358
4655.084
4676.226
4696.97
4715.911
4732.627
4747.092
4759.395
4770.217
4779.877
4789.615
4800.911
4814.43
4828.529
4841.897
4854.985
4867.423
4879.64
4891.598
4903.171
4914.092
4923.47
4931.508
4938.632
4944.128
4948.123
4950.712
4952.151
4952.609
4952.315
4951.515
4950.381
4949.032
4947.532
4945.913
4944.204
4942.426
4940.607
4938.82
4937.218
4935.8
4934.6
4933.665
4932.689
4931.513
4930.4
4929.495
4928.803
4928.56
4929.162
4930.763
4933.158
4935.972
4939.015
4942.42
4946.299
4950.811
4956.113
4962.389
4969.729
4978.196
4987.807
4998.496
5010.327
5023.126
5036.396
5049.651
5062.65
5075.287
5087.516
5099.345
5110.778
5121.869
5132.693
5143.195
5153.214
5162.631
5171.437
5179.654
5187.305
5194.469
5201.174
5207.497
5213.411
5219.034
5224.345
5229.284
5233.817
5237.897
5241.539
5244.804
5247.822
5250.732
5253.514
5256.191
5258.762
5261.284
5263.774
5266.228
5268.635
5270.982
5273.28
5275.537
5277.694
5279.766
5281.753
5283.654
5285.47
5287.204
5288.86
5290.442
5291.953
5293.406
5294.731
5296.047
5297.323
5298.53
5299.658
5300.699
5301.648
5302.495
5303.235
5303.86
5304.368
5304.755
5305.018
5305.156
5305.167
5305.048
5304.795
5304.403
5303.867
5303.187
5302.367
5301.419
5300.358
5299.199
5297.954
5296.624
5295.216
5293.737
5292.198
5290.605
5288.957
5287.244
5285.466
5283.623
5281.715
5279.742
5277.714
5275.644
5273.534
5271.366
5269.134
5266.82
5264.397
5261.847
5259.147
5256.273
5253.2
5249.897
5246.319
5242.432
5238.214
5233.671
5228.852
5223.793
5218.49
5212.918
5207.029
5200.801
5194.274
5187.551
5180.79
5174.182
5167.941
5162.296
5157.472
5153.689
5151.074
5149.536
5148.863
5148.904
5149.571
5150.753
5152.286
5153.956
5155.557
5156.943
5158.025
5158.766
5159.165
5159.257
5159.098
5158.777
5158.396
5158.045
5157.702
5157.546
5157.585
5157.571
5157.524
5157.412
5157.17
5156.835
5156.416
5155.907
5155.266
5154.42
5153.295
5151.84
5150.014
5147.807
5145.277
5142.507
5139.517
5136.314
5132.974
5129.909
5127.223
5124.947
5122.901
5121.299
5120.406
5119.481
2680.533
2617.573
2489.612
2440.687
2393.178
2349.09
2307.945
2269.111
2231.86
2195.851
2161.006
2125.533
2089.746
2053.316
2016.244
1978.286
1939.394
1899.514
1858.615
1817.177
1776.511
1736.019
1695.911
1656.45
1617.337
1578.535
1540.89
1505.228
1472.44
1444.038
1421.585
1406.098
1398.411
1399.42
1410.343
1432.187
1466.234
1513.479
1574.676
1650.262
1740.3
1844.448
1962.044
2092.253
2233.111
2382.238
2538.312
2701.278
2870.85
3044.775
3220.735
3394.97
3563.213
3720.926
3863.253
3985.68
4084.861
4158.157
4203.76
4220.488
4206.819
4161.716
4085.258
3980.163
3851.88
3706.59
3551.504
3393.146
3236.008
3082.771
2933.72
2785.806
2636.568
2484.124
2329.346
2176.943
2030.98
1894.734
1771.386
1664.826
1577.016
1506.993
1447.28
1398.56
1359.991
1325.242
1289.234
1254.563
1226.111
1204.849
1186.584
1170.05
1162.333
1176.648
1182.229
1183.651
1186.443
1201.907