/*--------------------------------*- C++ -*----------------------------------*\
| =========                 |                                                 |
| \\      /  F ield         | foam-extend: Open Source CFD                    |
|  \\    /   O peration     | Version:     3.1                                |
|   \\  /    A nd           | Web:         http://www.extend-project.de       |
|    \\/     M anipulation  |                                                 |
\*---------------------------------------------------------------------------*/
FoamFile
{
    version     2.0;
    format      ascii;
    class       volScalarField;
    location    "15.5";
    object      pd;
}
// * * * * * * * * * * * * * * * * * * * * * * * * * * * * * * * * * * * * * //

dimensions      [1 -1 -2 0 0 0 0];

internalField   nonuniform List<scalar> 
119952
(
6063.888
5157.131
5045.248
5205.389
5367.173
5286.089
5276.353
5274.853
5278.304
5282.377
5285.607
5286.626
5284.384
5278.058
5266.969
5250.786
5228.56
5197.962
5152.391
5038.146
5313.671
5084.834
4974.03
5336.807
5258.818
5280.175
5290.849
5393.448
5770.731
7311.937
4016.894
4023.089
4060.062
4091.843
4121.666
4149.281
4173.584
4196.838
4219.781
4219.517
4231.054
4259.684
4269.883
4282.599
4294.421
4307.347
4321.136
4334.697
4350.813
4398.622
4396.083
4397.032
4413.869
4432.665
4452.454
4475.444
4501.139
4528.818
4559.747
4584.208
4619.598
4659.615
4700.935
4745.005
4792.06
4842.225
4900.448
4995.688
5144.039
5092.159
5110.409
5199.716
5254.973
5269.024
5269.701
5275.927
5281.801
5286.288
5288.93
5288.709
5284.626
5276.03
5262.498
5243.694
5219.262
5188.703
5153.704
5121.509
5103.414
5089.883
5064.247
5112.608
5220.893
5226.142
5229.718
5242.342
5188.641
4958.206
4938.717
5025.757
5083.695
5148.59
5215.375
5281.316
5345.22
5404.819
5459.108
5508.949
5556.811
5605.179
5654.906
5705.267
5754.879
5802.619
5847.936
5891.037
5932.135
5971.273
6008.407
6043.113
6075.256
6104.606
6130.985
6154.191
6174.1
6190.655
6203.893
6213.962
6221.14
6225.861
6228.687
6230.235
6231.375
6232.989
6235.957
6241.355
6249.757
6261.774
6277.817
6298.294
6322.413
6346.855
6356.011
6341.237
6348.711
6380.144
6402.349
6419.293
6423.831
6430.501
6438.983
6446.455
6452.69
6458.615
6465.131
6472.756
6481.442
6490.499
6499.352
6507.59
6514.575
6519.83
6523.241
6524.848
6524.751
6523.076
6519.943
6515.705
6510.285
6503.64
6496.597
6489.509
6482.8
6477.009
6472.642
6470.009
6469.839
6472.466
6477.528
6485.067
6494.872
6506.698
6520.269
6535.431
6551.699
6568.283
6583.783
6588.3
6581.546
6588.671
6607.049
6625.202
6641.212
6654.509
6664.835
6672.393
6678.865
6693.697
6698.91
6702.448
6707.252
6712.91
6719.149
6725.519
6731.839
6737.848
6743.512
6748.799
6753.777
6758.353
6762.649
6766.659
6770.326
6773.614
6776.499
6778.965
6781.002
6782.612
6783.796
6784.567
6784.941
6784.937
6784.573
6783.865
6782.797
6781.411
6779.624
6777.355
6774.434
6770.513
6764.809
6755.107
6742.376
6761.062
6773.435
6783.679
6793
6802.108
6811.374
6821.016
6831.137
6841.746
6852.899
6864.882
6878.314
6892.135
6903.757
6911.427
6919.083
6927.824
6937.67
6946.78
6952.016
6958.67
6971.46
6984.275
6995.222
7004.574
7012.694
7019.744
7025.796
7030.94
7035.316
7039.238
7042.948
7046.554
7050.783
7072.367
7062.758
7062.789
7064.847
7066.127
7068.117
7070.528
7072.992
7075.575
7078.407
7081.477
7084.664
7087.829
7090.922
7093.936
7096.844
7099.665
7102.381
7105.001
7107.537
7110
7112.402
7114.757
7117.076
7119.372
7121.654
7123.925
7126.185
7128.428
7130.642
7132.811
7134.914
7136.932
7138.845
7140.632
7142.28
7143.775
7145.113
7146.291
7147.315
7148.198
7148.964
7149.653
7150.327
7150.971
7151.133
7150.217
7148.794
7147.509
7146.279
7145.04
7143.885
7142.524
7140.669
7135.02
7134.214
7134.371
7132.55
7130.661
7128.851
7126.981
7125.079
7123.142
7121.172
7119.171
7117.122
7115.012
7112.83
7110.565
7108.204
7105.73
7103.13
7100.386
7097.484
7094.409
7091.147
7087.685
7084.013
7080.127
7076.027
7071.717
7067.205
7062.507
7057.641
7052.634
7047.523
7042.356
7037.193
7032.104
7027.171
7022.475
7018.092
7014.092
7010.523
7007.397
7004.723
7002.521
7000.757
6999.389
6998.369
6997.639
6997.141
6996.819
6996.619
6996.493
6996.405
6996.316
6996.21
6996.063
6995.875
6995.636
6995.339
6994.979
6994.556
6994.068
6993.51
6992.874
6992.145
6991.309
6990.349
6989.246
6987.976
6986.51
6984.813
6982.848
6980.57
6977.928
6974.866
6971.308
6967.165
6962.311
6956.567
6949.685
6941.234
6930.444
6916.356
6902.386
6909.843
6977.311
4741.469
4610.171
4457.023
4319.465
4194.323
4080.664
3978.426
3887.151
3807.721
3713.354
3659.086
3607.609
3559.621
3520.565
3488.907
3465.342
3447.799
3434.98
3435.582
3454.084
3443.976
3446.716
3460.609
3478.494
3500.808
3527.268
3557.716
3592.159
3628.659
3657.273
3699.51
3742.918
3785.906
3828.996
3872.243
3915.064
3957.762
4006.235
4027.191
4057.428
4091.528
4121.451
4148.325
4172.755
4194.68
4214.58
4232.268
4243.375
4260.027
4274.557
4286.399
4297.831
4310.012
4323.043
4337.227
4355.333
4364.475
4382.96
4401.312
4418.422
4436.526
4456.933
4479.758
4504.948
4532.054
4561.323
4594.952
4630.772
4667.99
4708.003
4752.315
4801.542
4856.996
4919.013
4985.403
5048.181
5094.969
5133.019
5176.286
5217.969
5248.791
5268.191
5281.209
5291.072
5298.35
5301.589
5300.623
5294.482
5282.887
5265.81
5243.536
5216.647
5186.336
5154.88
5125.535
5102.077
5086.977
5083.419
5096.346
5116.785
5129.535
5126.748
5106.773
5069.603
5021.263
5004.735
5043.019
5096.292
5155.247
5218.803
5284.441
5349.795
5412.946
5472.931
5529.82
5584.279
5637.014
5688.346
5738.132
5785.996
5831.641
5875.009
5916.252
5955.529
5992.815
6027.946
6060.969
6091.248
6118.826
6143.412
6164.757
6182.708
6197.186
6208.232
6216.012
6220.864
6223.296
6223.969
6223.657
6223.241
6223.743
6226.215
6231.499
6240.26
6252.621
6268.067
6286.428
6306.215
6322.721
6335.847
6346.132
6362.225
6384.427
6403.571
6418.684
6431.002
6441.597
6451.685
6460.296
6467.925
6475.325
6482.724
6490.041
6497.007
6504.095
6509.928
6515.453
6519.735
6522.57
6523.779
6523.391
6521.481
6518.131
6513.429
6507.523
6500.581
6492.908
6484.845
6476.917
6469.692
6463.74
6459.61
6458.032
6459.394
6463.999
6471.517
6481.251
6492.752
6505.751
6519.826
6534.53
6549.529
6564.008
6575.727
6586.334
6591.084
6600.4
6615.127
6629.863
6643.976
6656.686
6668.286
6678.208
6686.632
6696.971
6704.962
6710.679
6714.688
6720.195
6725.594
6730.88
6736.116
6741.135
6745.895
6750.381
6754.464
6758.61
6762.352
6765.819
6768.993
6771.836
6774.322
6776.436
6778.174
6779.532
6780.512
6781.126
6781.389
6781.32
6780.933
6780.245
6779.255
6777.933
6776.272
6774.215
6771.675
6768.532
6764.81
6761.329
6760.661
6766.445
6776.017
6784.606
6793.1
6801.836
6810.816
6820.273
6830.192
6840.672
6851.775
6863.555
6875.85
6888.081
6899.221
6909.043
6918.614
6928.337
6938.278
6947.621
6955.826
6964.96
6976.395
6987.919
6998.397
7007.592
7015.59
7022.503
7028.465
7033.528
7038.045
7042.064
7046.048
7049.519
7053.859
7064.379
7072.138
7069.997
7067.578
7067.842
7070.176
7072.962
7075.401
7077.613
7080.155
7083.062
7086.131
7089.159
7092.14
7095.07
7097.949
7100.7
7103.325
7105.843
7108.265
7110.604
7112.873
7115.088
7117.265
7119.418
7121.557
7123.688
7125.811
7127.92
7130.004
7132.048
7134.032
7135.937
7137.743
7139.431
7140.986
7142.397
7143.658
7144.765
7145.723
7146.536
7147.213
7147.753
7148.131
7148.276
7148.081
7147.45
7146.462
7145.324
7144.152
7142.938
7141.668
7140.304
7138.872
7137.132
7134.774
7132.595
7130.804
7129.139
7127.396
7125.537
7123.603
7121.626
7119.613
7117.559
7115.453
7113.287
7111.047
7108.721
7106.294
7103.75
7101.075
7098.251
7095.261
7092.09
7088.721
7085.144
7081.351
7077.338
7073.108
7068.667
7064.024
7059.194
7054.197
7049.062
7043.833
7038.568
7033.339
7028.23
7023.333
7018.737
7014.522
7010.753
7007.469
7004.685
7002.385
7000.554
6999.163
6998.158
6997.477
6997.053
6996.818
6996.708
6996.667
6996.649
6996.621
6996.559
6996.444
6996.276
6996.062
6995.801
6995.494
6995.143
6994.743
6994.286
6993.765
6993.17
6992.484
6991.692
6990.772
6989.701
6988.447
6986.977
6985.253
6983.234
6980.883
6978.151
6975.004
6971.379
6967.238
6962.491
6957.087
6950.986
6944.274
6937.574
6932.035
6930.057
6931.967
6939.933
3796.229
3867.958
3963.782
4075.408
4201.785
4342.48
4496.801
4663.299
4840.359
5024.003
5216.128
5415.172
5615.191
5814.443
6008.052
6193.765
6367.89
6523.869
6655.55
6773.919
6852.784
6901.294
6918.261
6903.44
6857.991
6784.113
6684.666
6563.784
6429.094
6274.529
6112.233
5939.591
5761.268
5579.278
5395.899
5213.599
5035.357
4864.798
4692.19
4537.039
4392.677
4258.822
4137.665
4028.037
3929.727
3842.332
3766.177
3697.52
3634.827
3583.549
3539.279
3502.126
3472.286
3449.772
3434.754
3433.062
3412.603
3414.115
3423.841
3437.377
3453.843
3473.941
3498.117
3526.146
3557.548
3591.994
3629.899
3670.96
3712.753
3755.058
3798.377
3842.536
3886.873
3930.618
3972.838
4012.386
4049.189
4081.996
4111.284
4137.836
4161.994
4183.847
4203.366
4220.502
4235.454
4249.367
4262.095
4273.537
4284.67
4296.312
4308.548
4321.475
4334.524
4349.016
4365.426
4382.251
4397.433
4412.706
4430.333
4450.741
4473.626
4498.678
4526.082
4555.747
4587.533
4621.693
4658.503
4698.636
4742.775
4791.694
4844.869
4901.692
4961.183
5022.421
5074.435
5118.482
5161.928
5204.962
5241.783
5269.01
5288.603
5303.252
5313.356
5318.751
5317.944
5310.716
5297.08
5277.148
5251.659
5221.678
5188.593
5154.32
5121.401
5092.868
5071.734
5057.55
5051.262
5053.909
5055.78
5049.021
5034.428
5016.978
4996.764
4997.19
5029.674
5081.323
5140.722
5205.037
5272.568
5341.225
5409.041
5474.618
5537.254
5596.866
5653.574
5707.423
5758.387
5806.455
5851.703
5894.323
5934.595
5972.737
6008.801
6042.737
6074.532
6103.89
6130.341
6153.793
6173.946
6190.563
6203.502
6212.782
6218.544
6221.153
6221.176
6219.355
6216.572
6213.841
6212.353
6213.303
6217.616
6225.622
6237.623
6252.909
6270.458
6289.23
6308.618
6326.405
6341.313
6358.777
6380.566
6401.002
6418.886
6434.874
6448.986
6461.79
6473.545
6484.042
6493.028
6500.527
6507.082
6512.955
6518.479
6523.412
6527.126
6529.415
6530.099
6529.271
6526.954
6523.144
6517.914
6511.375
6503.635
6494.866
6485.362
6475.545
6465.983
6457.376
6450.517
6446.177
6445.122
6447.755
6453.947
6463.12
6474.51
6487.411
6501.414
6516.171
6531.312
6546.352
6560.647
6573.523
6584.78
6593.766
6604.735
6617.851
6631.236
6644.242
6656.582
6668.106
6678.223
6687.998
6697.165
6706.008
6713.888
6721.323
6728.292
6734.337
6739.727
6744.703
6749.262
6753.352
6757.001
6760.356
6763.629
6766.36
6769.01
6771.441
6773.576
6775.404
6776.915
6778.1
6778.957
6779.494
6779.724
6779.67
6779.353
6778.79
6777.985
6776.935
6775.646
6774.134
6772.413
6770.559
6768.754
6767.39
6767.13
6768.821
6773.033
6779.287
6786.449
6793.966
6801.795
6810.036
6818.748
6828.344
6838.445
6849.148
6860.357
6871.875
6883.388
6894.612
6905.39
6915.906
6926.334
6936.556
6946.563
6956.618
6966.777
6977.311
6987.841
6997.826
7006.861
7015.05
7022.329
7028.809
7034.373
7039.411
7043.867
7048.122
7051.833
7057.064
7064.842
7068.779
7069.051
7068.944
7070.256
7072.931
7075.951
7078.599
7080.933
7083.377
7086.035
7088.772
7091.549
7094.284
7096.987
7099.622
7102.177
7104.661
7107.078
7109.395
7111.615
7113.758
7115.841
7117.879
7119.887
7121.88
7123.866
7125.846
7127.816
7129.766
7131.681
7133.543
7135.333
7137.031
7138.618
7140.08
7141.404
7142.584
7143.614
7144.493
7145.221
7145.795
7146.205
7146.428
7146.437
7146.19
7145.649
7144.816
7143.786
7142.651
7141.464
7140.188
7138.831
7137.247
7135.534
7133.932
7132.3
7130.551
7128.699
7126.777
7124.805
7122.797
7120.763
7118.7
7116.6
7114.453
7112.248
7109.972
7107.61
7105.147
7102.568
7099.852
7096.98
7093.938
7090.709
7087.276
7083.626
7079.751
7075.65
7071.326
7066.785
7062.036
7057.091
7051.967
7046.697
7041.327
7035.925
7030.578
7025.385
7020.448
7015.861
7011.71
7008.058
7004.94
7002.367
7000.329
6998.793
6997.711
6997.022
6996.649
6996.511
6996.538
6996.648
6996.773
6996.86
6996.891
6996.853
6996.74
6996.561
6996.332
6996.064
6995.763
6995.434
6995.076
6994.675
6994.222
6993.704
6993.102
6992.398
6991.567
6990.58
6989.404
6988.001
6986.331
6984.356
6982.039
6979.349
6976.262
6972.756
6968.823
6964.45
6959.688
6954.631
6949.539
6944.797
6940.923
6938.569
6938.636
6941.455
3623.735
3597.451
3579.763
3563.236
3553.7
3556.506
3571.923
3602.907
3648.045
3677.453
3694.227
3729.73
3786.104
3861.291
3953.729
4061.661
4184.52
4319.333
4467.019
4626.219
4795.926
4974.705
5160.254
5350.305
5542.926
5734.322
5920.962
6100.454
6267.973
6420.038
6553.624
6689.908
6768.825
6814.63
6825.092
6802.948
6750.169
6669.083
6563.343
6437.745
6297.102
6144.398
5982.053
5812.077
5636.539
5457.24
5276.209
5096.042
4919.179
4748.674
4587.062
4436.593
4297.584
4170.258
4055.373
3952.609
3861.09
3779.95
3708.201
3644.904
3589.395
3541.182
3500.327
3466.828
3440.264
3420.444
3406.986
3400.018
3397.354
3401.16
3410.348
3422.757
3439.03
3459.862
3485.089
3514.221
3546.94
3583.377
3623.075
3664.69
3707.804
3752.459
3798.305
3844.783
3891.248
3936.899
3980.868
4022.385
4059.951
4092.709
4121.605
4147.368
4170.321
4190.62
4208.145
4223.207
4236.506
4248.304
4259.066
4269.502
4280.165
4291.469
4303.609
4316.477
4330.135
4344.636
4359.381
4374.298
4389.403
4405.429
4423.268
4443.335
4465.689
4490.226
4516.918
4545.477
4575.955
4608.851
4644.528
4683.242
4725.548
4771.989
4822.691
4877.939
4935.925
4994.744
5050.385
5101.823
5151.025
5198.121
5240.216
5274.766
5301.854
5322.503
5336.775
5344.176
5343.905
5335.628
5319.528
5296.193
5266.514
5231.691
5193.367
5153.533
5114.48
5078.534
5047.6
5022.332
5003.472
4991.416
4981.907
4971.856
4961.737
4955.193
4955.208
4969.834
5004.231
5055.246
5116.135
5182.977
5253.779
5326.736
5399.835
5471.298
5539.918
5604.999
5666.134
5723.185
5776.229
5825.493
5871.293
5914.02
5954.071
5991.765
6027.268
6060.62
6091.706
6120.217
6146.049
6168.676
6187.814
6203.127
6214.368
6221.521
6224.778
6224.528
6221.368
6216.116
6209.758
6203.493
6198.86
6197.371
6200.094
6207.564
6219.494
6235.293
6253.812
6274.03
6294.943
6315.336
6335.352
6356.988
6380.17
6402.166
6422.048
6440.112
6456.535
6471.58
6485.29
6497.431
6507.998
6517.098
6524.999
6531.822
6537.459
6541.532
6543.825
6544.398
6543.108
6540.065
6535.319
6528.929
6521.04
6511.86
6501.538
6490.256
6478.34
6466.204
6454.429
6443.826
6435.46
6430.363
6429.289
6432.859
6440.944
6452.539
6466.166
6480.81
6496.132
6511.96
6527.917
6543.53
6558.309
6571.909
6584.288
6595.417
6606.833
6618.98
6631.409
6643.696
6655.837
6667.402
6678.205
6688.306
6698.178
6708.759
6719.05
6728.116
6735.801
6742.276
6747.979
6753.053
6757.477
6761.277
6764.363
6766.979
6769.312
6771.343
6773.115
6774.637
6775.93
6776.998
6777.82
6778.387
6778.699
6778.763
6778.598
6778.227
6777.677
6776.967
6776.098
6775.06
6773.841
6772.517
6771.172
6769.928
6768.991
6768.647
6769.249
6771.157
6774.676
6779.753
6785.86
6792.499
6799.573
6807.181
6815.437
6824.468
6834.197
6844.588
6855.55
6866.941
6878.536
6890.074
6901.388
6912.512
6923.559
6934.506
6945.198
6955.641
6966.084
6976.628
6986.954
6996.683
7005.728
7013.97
7021.5
7028.204
7034.405
7039.947
7045.379
7050.228
7055.453
7060.004
7063.888
7067.524
7070.33
7072.411
7074.562
7077.13
7079.823
7082.262
7084.464
7086.713
7089.183
7091.815
7094.5
7097.152
7099.723
7102.211
7104.637
7106.995
7109.26
7111.43
7113.523
7115.529
7117.474
7119.374
7121.25
7123.112
7124.962
7126.805
7128.638
7130.454
7132.238
7133.972
7135.635
7137.21
7138.678
7140.025
7141.237
7142.308
7143.23
7144.001
7144.616
7145.072
7145.359
7145.466
7145.377
7145.069
7144.523
7143.742
7142.778
7141.687
7140.512
7139.24
7137.872
7136.384
7134.85
7133.292
7131.621
7129.814
7127.929
7126.017
7124.085
7122.124
7120.125
7118.086
7115.998
7113.857
7111.653
7109.375
7107.004
7104.526
7101.933
7099.205
7096.318
7093.25
7089.982
7086.497
7082.782
7078.828
7074.635
7070.207
7065.552
7060.677
7055.591
7050.305
7044.848
7039.27
7033.649
7028.085
7022.695
7017.602
7012.918
7008.74
7005.138
7002.151
6999.78
6998.001
6996.766
6996.018
6995.678
6995.651
6995.839
6996.156
6996.5
6996.817
6997.056
6997.187
6997.185
6997.079
6996.887
6996.64
6996.362
6996.067
6995.772
6995.473
6995.142
6994.764
6994.329
6993.814
6993.201
6992.466
6991.579
6990.504
6989.196
6987.616
6985.723
6983.487
6980.89
6977.925
6974.595
6970.925
6966.951
6962.759
6958.487
6954.368
6950.628
6947.544
6945.503
6944.725
6944.969
4053.984
4014.474
3976.469
3936.981
3894.659
3850.465
3809.572
3769.637
3731.385
3695.262
3661.085
3630.313
3602.73
3579.918
3562.747
3551.601
3550
3558.49
3575.746
3598.539
3624.261
3658.308
3705.931
3768.269
3846.05
3940.106
4049.254
4172.717
4309.54
4458.608
4618.728
4788.544
4966.235
5150.726
5339.243
5528.968
5717.439
5900.973
6079.629
6244.9
6394.656
6521.559
6617.143
6692.197
6736.793
6746.866
6723.25
6667.895
6583.585
6474.428
6345.656
6202.66
6049.641
5889.278
5722.755
5551.298
5375.973
5198.117
5020.839
4846.096
4676.348
4514.963
4364.001
4225.282
4100.527
3989.813
3891.965
3805.491
3729.175
3661.966
3602.625
3550.209
3504.685
3466.282
3434.855
3409.837
3391.232
3379.369
3374.433
3374.901
3379.215
3387.425
3400.183
3417.892
3440.375
3467.024
3497.457
3531.707
3569.986
3611.509
3655.071
3700.617
3748.221
3797.082
3846.502
3896.016
3944.97
3992.249
4036.251
4075.318
4108.884
4137.571
4162.311
4183.863
4202.408
4217.412
4229.219
4239.191
4248.137
4256.55
4265.102
4274.441
4285.034
4297.031
4309.962
4323.119
4336.398
4350.139
4364.568
4379.883
4396.136
4413.472
4432.465
4453.75
4477.397
4503.198
4530.646
4559.617
4590.463
4623.761
4660.303
4700.547
4745.108
4794.358
4848.311
4905.848
4965.584
5025.648
5084.348
5141.025
5194.881
5244.098
5286.769
5321.947
5349.323
5368.582
5379.087
5380.011
5370.849
5351.755
5323.761
5288.3
5246.805
5201.112
5153.335
5105.592
5059.764
5017.556
4980.297
4948.622
4923.128
4903.323
4888.706
4880.128
4880.836
4893.344
4919.616
4960.585
5014.75
5078.888
5150.108
5226.249
5305.339
5385.158
5463.543
5538.864
5610.061
5676.425
5737.608
5793.685
5845.021
5892.12
5935.553
5975.873
6013.537
6048.818
6081.844
6112.545
6140.676
6165.975
6188.06
6206.42
6220.571
6230.131
6234.929
6235.121
6231.224
6223.962
6214.204
6203.004
6191.784
6182.501
6177.246
6177.692
6184.572
6197.275
6214.68
6235.218
6257.335
6280.428
6304.49
6329.459
6355.23
6380.794
6404.686
6426.328
6445.963
6464.122
6481.088
6496.823
6511.25
6524.36
6535.941
6545.614
6553.166
6558.682
6561.998
6563.012
6561.846
6558.605
6553.349
6546.118
6537.018
6526.211
6513.924
6500.465
6486.123
6471.182
6456.03
6441.335
6427.992
6417.19
6410.32
6408.581
6413.093
6423.629
6438.366
6455.11
6472.216
6489.371
6506.734
6524.075
6540.882
6556.637
6571.101
6584.242
6596.103
6607.324
6618.47
6630.467
6642.694
6654.801
6666.56
6678.079
6689.391
6700.763
6712.311
6723.441
6733.448
6742.07
6749.411
6755.849
6761.43
6765.985
6769.614
6772.427
6774.599
6776.281
6777.558
6778.494
6779.153
6779.583
6779.828
6779.88
6779.739
6779.413
6778.922
6778.293
6777.559
6776.748
6775.886
6774.955
6773.928
6772.778
6771.587
6770.48
6769.607
6769.151
6769.337
6770.39
6772.466
6775.652
6779.915
6785.027
6790.738
6796.999
6803.924
6811.553
6820.03
6829.325
6839.412
6850.208
6861.583
6873.34
6885.24
6897.091
6908.819
6920.386
6931.723
6942.796
6953.682
6964.487
6975.172
6985.536
6995.289
7004.377
7012.821
7020.678
7027.782
7034.289
7040.152
7045.74
7050.929
7055.904
7060.317
7064.412
7068.542
7072.388
7075.468
7078.04
7080.517
7083.051
7085.551
7087.947
7090.28
7092.701
7095.242
7097.813
7100.358
7102.86
7105.312
7107.69
7109.949
7112.089
7114.158
7116.151
7118.065
7119.904
7121.674
7123.413
7125.137
7126.851
7128.548
7130.226
7131.88
7133.5
7135.068
7136.565
7137.975
7139.281
7140.469
7141.527
7142.449
7143.227
7143.858
7144.337
7144.66
7144.823
7144.815
7144.628
7144.249
7143.672
7142.903
7141.968
7140.903
7139.738
7138.479
7137.132
7135.7
7134.195
7132.612
7130.936
7129.176
7127.36
7125.512
7123.626
7121.693
7119.708
7117.671
7115.57
7113.423
7111.22
7108.947
7106.59
7104.125
7101.532
7098.794
7095.896
7092.812
7089.515
7085.986
7082.208
7078.17
7073.873
7069.328
7064.545
7059.53
7054.281
7048.801
7043.111
7037.262
7031.341
7025.47
7019.788
7014.441
7009.567
7005.288
7001.695
6998.834
6996.693
6995.219
6994.343
6993.993
6994.071
6994.468
6995.071
6995.748
6996.401
6996.943
6997.333
6997.54
6997.587
6997.479
6997.263
6996.99
6996.69
6996.387
6996.143
6995.931
6995.691
6995.398
6995.056
6994.636
6994.12
6993.49
6992.716
6991.759
6990.572
6989.104
6987.32
6985.206
6982.733
6979.907
6976.758
6973.332
6969.686
6965.912
6962.158
6958.652
6955.55
6952.984
6951.149
6950.123
6949.557
4466.285
4417.727
4373.303
4330.193
4291.776
4248.083
4210.244
4172.51
4134.591
4096.117
4057.727
4019.288
3979.426
3939.554
3897.911
3851.161
3810.432
3770.845
3732.558
3695.9
3661.347
3629.513
3600.831
3576.226
3556.343
3542.11
3533.815
3534.546
3543.242
3559.468
3583.807
3618.77
3666.133
3728.079
3805.524
3898.161
4005.568
4127.049
4261.713
4408.481
4566.16
4733.415
4907.89
5087.236
5270.06
5455.122
5639.2
5820.189
5994.145
6155.716
6300.933
6425.412
6523.049
6593.394
6632.796
6638.528
6610.185
6549.271
6458.946
6343.776
6209.842
6063.237
5909.048
5750.615
5588.307
5422.37
5253.449
5081.684
4909.897
4741.044
4575.958
4416.679
4266.626
4129.865
4009.345
3904.651
3813.838
3734.479
3664.928
3604.055
3550.224
3502.126
3459.843
3424.121
3394.988
3371.685
3354.398
3344.507
3342.689
3346.221
3350.552
3357.896
3370.825
3389.628
3413.799
3442.357
3474.678
3510.864
3551.856
3596.587
3642.659
3690.407
3741.077
3793.664
3847.321
3901.605
3955.745
4008.114
4056.239
4097.861
4132.271
4160.249
4183.375
4202.946
4219.031
4230.107
4236.798
4241.951
4246.718
4251.499
4257.614
4265.89
4276.525
4289.006
4302.077
4314.087
4325.71
4338.636
4352.724
4367.886
4383.852
4400.28
4417.737
4437.613
4460.268
4485.372
4511.961
4539.083
4567.172
4597.219
4630.339
4667.432
4709.409
4756.972
4810.363
4868.978
4931.814
4997.496
5064.241
5130.176
5193.415
5251.996
5304.135
5348.492
5383.97
5409.418
5423.854
5426.426
5416.394
5393.775
5359.665
5316.17
5265.411
5209.594
5151.264
5092.585
5035.229
4980.644
4930.218
4885.178
4846.72
4816.144
4795.339
4785.923
4791.53
4814.271
4852.47
4902.862
4963.374
5032.655
5109.449
5192.192
5278.636
5365.968
5451.686
5534.014
5611.694
5683.723
5749.569
5809.295
5863.348
5912.371
5957.084
5998.197
6036.33
6071.9
6105.1
6135.901
6164.094
6189.335
6211.422
6229.518
6242.938
6251.063
6253.522
6250.391
6242.223
6229.922
6214.42
6196.788
6178.66
6162.819
6152.329
6149.648
6156.055
6170.355
6190.63
6214.192
6238.759
6264.379
6292.229
6322.285
6352.949
6382.279
6408.946
6432.772
6454.149
6473.708
6492.29
6509.821
6525.987
6540.657
6553.58
6564.571
6573.253
6579.277
6582.541
6582.976
6580.569
6575.429
6567.824
6558.037
6546.191
6532.406
6516.992
6500.277
6482.553
6464.184
6445.47
6427.135
6410.148
6395.819
6386.158
6382.425
6387.436
6401.038
6420.14
6441.174
6461.051
6479.686
6497.545
6517.489
6537.696
6555.293
6570.429
6582.75
6590.762
6602.955
6617.664
6630.656
6642.354
6654.662
6667.247
6679.517
6691.527
6703.345
6715.022
6726.333
6736.986
6746.934
6755.871
6763.625
6770.255
6775.363
6779.032
6781.54
6783.178
6784.122
6784.551
6784.601
6784.389
6783.965
6783.352
6782.57
6781.639
6780.581
6779.432
6778.249
6777.096
6775.997
6774.996
6774.017
6772.992
6771.849
6770.743
6769.767
6769.063
6768.831
6769.308
6770.649
6772.839
6775.776
6779.38
6783.613
6788.426
6793.851
6799.991
6807.013
6814.946
6823.833
6833.673
6844.384
6855.875
6867.975
6880.349
6892.762
6905.126
6917.234
6928.987
6940.429
6951.591
6962.513
6973.204
6983.579
6993.501
7002.831
7011.51
7019.645
7027.202
7034.2
7040.594
7046.516
7052.049
7057.231
7062.01
7066.488
7070.721
7074.611
7077.968
7080.863
7083.563
7086.252
7088.925
7091.578
7094.1
7096.597
7099.113
7101.623
7104.101
7106.527
7108.881
7111.152
7113.326
7115.418
7117.435
7119.359
7121.198
7122.969
7124.686
7126.324
7127.907
7129.472
7131.004
7132.513
7133.985
7135.408
7136.771
7138.059
7139.258
7140.356
7141.34
7142.201
7142.934
7143.533
7143.993
7144.313
7144.489
7144.516
7144.389
7144.102
7143.647
7143.026
7142.243
7141.312
7140.254
7139.094
7137.846
7136.511
7135.095
7133.599
7132.028
7130.39
7128.692
7126.936
7125.131
7123.269
7121.345
7119.364
7117.334
7115.253
7113.119
7110.921
7108.657
7106.316
7103.875
7101.307
7098.583
7095.683
7092.592
7089.284
7085.726
7081.886
7077.757
7073.342
7068.664
7063.74
7058.572
7053.149
7047.454
7041.491
7035.309
7029.013
7022.747
7016.669
7010.956
7005.79
7001.327
6997.694
6994.961
6993.091
6991.98
6991.531
6991.653
6992.24
6993.16
6994.244
6995.342
6996.339
6997.138
6997.693
6997.996
6998.066
6997.941
6997.686
6997.376
6997.048
6996.739
6996.568
6996.473
6996.322
6996.125
6995.887
6995.563
6995.142
6994.617
6993.959
6993.122
6992.015
6990.703
6989.125
6987.163
6984.816
6982.133
6979.167
6975.961
6972.556
6969.002
6965.357
6961.67
6958.826
6957.276
6956.126
6955.191
6954.342
4688.757
4671.044
4625.062
4567.517
4510.233
4458.928
4411.714
4368.274
4328.169
4288.199
4244.342
4207.051
4170.121
4132.914
4095.17
4056.873
4017.937
3978.114
3937.586
3897.126
3857.461
3817.134
3777.402
3738.588
3701.027
3665.074
3630.967
3598.893
3569.864
3545.016
3525.391
3512.614
3507.448
3510.742
3523.645
3546.774
3581.667
3629.619
3691.619
3768.342
3859.78
3965.613
4085.213
4217.828
4362.186
4516.717
4679.184
4848.318
5022.01
5200.044
5381.415
5562.02
5738.322
5906.151
6060.468
6196.63
6310.806
6398.967
6458.674
6488.181
6485.522
6449.645
6381.23
6283.475
6161.193
6021.093
5870.037
5713.588
5556.226
5398.79
5240.324
5080.496
4919.613
4757.114
4594.569
4434.892
4280.183
4135.092
4004.406
3890.503
3793.688
3712.27
3642.643
3582.875
3531.278
3485.249
3442.651
3404.221
3371.965
3345.93
3324.352
3307.895
3300.509
3302.774
3309.567
3314.206
3320.505
3334.139
3353.856
3378.708
3408.888
3444.458
3483.68
3529.143
3578.811
3627.378
3676.98
3731.191
3787.602
3846.42
3907.475
3969.982
4030.645
4084.54
4128.741
4163.383
4190.341
4211.52
4228.846
4242.297
4247.508
4245.903
4244.436
4244.365
4243.617
4245.323
4251.82
4263.731
4278.707
4293.285
4304.02
4313.347
4325.165
4338.247
4353.285
4369.099
4384.447
4400.059
4418.565
4440.489
4465.626
4491.618
4516.381
4540.775
4566.239
4594.757
4627.496
4665.755
4710.961
4763.828
4824.32
4891.813
4964.86
5041.446
5118.794
5193.821
5263.915
5327.197
5382.074
5426.879
5459.855
5479.332
5483.842
5472.277
5444.43
5401.957
5347.649
5285.113
5216.893
5145.689
5073.961
5003.876
4936.637
4873.297
4814.408
4761.851
4718.38
4689.065
4676.565
4685.773
4719.053
4771.179
4832.998
4901.329
4977.384
5062.312
5153.813
5249.04
5344.979
5438.789
5528.486
5612.582
5689.992
5760.204
5823.36
5880.055
5931.086
5977.305
6019.542
6058.511
6094.788
6128.75
6160.383
6189.441
6215.639
6238.332
6256.904
6270.071
6276.797
6277.102
6270.467
6257.384
6239.107
6216.53
6190.708
6163.318
6138.262
6120.674
6114.156
6120.864
6137.774
6161.372
6180.334
6204.643
6238.792
6278.862
6315.941
6352.43
6386.22
6415.552
6441.273
6464.302
6484.612
6504.387
6523.422
6541.306
6557.674
6571.832
6583.957
6593.543
6599.909
6602.918
6602.556
6598.885
6592.113
6582.501
6570.365
6556.011
6539.718
6521.585
6501.535
6479.961
6457.684
6434.469
6409.923
6384.429
6364.814
6354.752
6349.962
6355.43
6373.971
6398.012
6416.38
6414.777
6441.776
6484.316
6514.532
6535.777
6553.08
6556.729
6566.048
6584.513
6606.304
6618.984
6628.805
6640.028
6652.816
6664.137
6676.977
6691.98
6706.405
6718.993
6730.971
6742.546
6753.467
6762.845
6770.882
6778.006
6783.502
6787.498
6790.087
6791.526
6791.984
6791.69
6790.89
6789.756
6788.407
6786.907
6785.288
6783.579
6781.801
6779.982
6778.195
6776.593
6775.175
6773.975
6773.039
6772.064
6770.887
6769.775
6768.869
6768.177
6767.931
6768.527
6770.113
6772.479
6775.283
6778.349
6781.785
6785.671
6790.184
6795.486
6801.762
6809.101
6817.561
6827.136
6837.658
6848.847
6860.842
6874.492
6888.682
6901.998
6914.662
6926.891
6938.72
6950.153
6961.244
6972.068
6982.57
6992.589
7002.006
7010.812
7019.029
7026.68
7033.844
7040.547
7046.871
7052.785
7058.409
7063.72
7068.659
7073.192
7077.272
7080.914
7084.179
7087.197
7090.107
7092.889
7095.566
7098.137
7100.659
7103.149
7105.603
7108.01
7110.357
7112.655
7114.912
7117.069
7119.141
7121.128
7123.029
7124.845
7126.579
7128.235
7129.817
7131.328
7132.781
7134.106
7135.422
7136.698
7137.905
7139.033
7140.074
7141.023
7141.87
7142.61
7143.235
7143.743
7144.13
7144.393
7144.531
7144.542
7144.423
7144.17
7143.777
7143.241
7142.562
7141.742
7140.794
7139.733
7138.574
7137.328
7135.998
7134.59
7133.112
7131.573
7129.98
7128.332
7126.619
7124.841
7122.998
7121.09
7119.117
7117.088
7115.019
7112.909
7110.741
7108.509
7106.195
7103.771
7101.219
7098.509
7095.634
7092.566
7089.27
7085.692
7081.804
7077.586
7073.045
7068.227
7063.167
7057.865
7052.293
7046.404
7040.176
7033.645
7026.905
7020.104
7013.495
7007.29
7001.667
6996.847
6993.064
6990.449
6988.911
6988.238
6988.279
6988.946
6990.126
6991.637
6993.292
6994.9
6996.307
6997.399
6998.141
6998.54
6998.632
6998.473
6998.152
6997.77
6997.417
6997.07
6996.913
6996.956
6996.946
6996.899
6996.787
6996.544
6996.206
6995.742
6994.945
6994.209
6993.453
6992.577
6991.208
6989.389
6987.182
6984.652
6981.881
6978.881
6975.54
6970.78
6961.148
6958.497
6961.239
6961.94
6960.663
6959.775
6958.826
4673.186
4640.885
4574.237
4525.312
4477.803
4433.715
4392.57
4353.736
4316.485
4280.476
4245.631
4210.158
4174.371
4137.941
4100.869
4062.911
4024.019
3984.139
3943.24
3901.802
3861.136
3820.644
3780.536
3741.075
3701.962
3663.16
3625.515
3589.853
3557.065
3528.663
3506.21
3490.723
3483.036
3484.045
3494.968
3516.812
3550.859
3598.104
3659.301
3734.887
3824.925
3929.073
4046.669
4176.878
4317.736
4466.863
4622.937
4785.903
4955.475
5129.4
5305.36
5479.595
5647.838
5805.551
5947.878
6070.305
6169.486
6242.782
6288.385
6305.113
6291.444
6246.341
6169.882
6064.788
5936.505
5791.215
5636.129
5477.771
5320.633
5167.396
5018.345
4870.431
4721.193
4568.749
4413.971
4261.568
4115.605
3979.359
3856.011
3749.451
3661.641
3591.618
3531.905
3483.185
3444.616
3409.867
3373.859
3339.188
3310.736
3289.472
3271.204
3254.669
3246.951
3261.266
3266.847
3268.272
3271.067
3286.53