/*--------------------------------*- C++ -*----------------------------------*\
| =========                 |                                                 |
| \\      /  F ield         | foam-extend: Open Source CFD                    |
|  \\    /   O peration     | Version:     3.1                                |
|   \\  /    A nd           | Web:         http://www.extend-project.de       |
|    \\/     M anipulation  |                                                 |
\*---------------------------------------------------------------------------*/
FoamFile
{
    version     2.0;
    format      ascii;
    class       volScalarField;
    location    "4";
    object      alpha;
}
// * * * * * * * * * * * * * * * * * * * * * * * * * * * * * * * * * * * * * //

dimensions      [0 0 -1 0 0 0 0];

internalField   nonuniform List<scalar> 
2539
(
0.00347485
0.0034846
0.00349723
0.00350945
0.00352181
0.00353421
0.00354668
0.00355921
0.0035718
0.00358446
0.00359719
0.00360997
0.00362283
0.00363575
0.00364874
0.00366179
0.00367492
0.00368811
0.00370137
0.0037147
0.0037281
0.00374158
0.00375512
0.00376873
0.00378242
0.00379618
0.00381001
0.00382391
0.00383789
0.00385194
0.00386606
0.00388026
0.00389453
0.00390888
0.0039233
0.0039378
0.00395238
0.00396703
0.00398176
0.00399656
0.00401145
0.00402641
0.00404144
0.00405656
0.00407175
0.00408702
0.00410237
0.0041178
0.00413331
0.0041489
0.00416457
0.00418032
0.00419614
0.00421205
0.00422804
0.00424412
0.00426027
0.0042765
0.00429282
0.00430922
0.0043257
0.00434226
0.00435891
0.00437564
0.00439245
0.00440935
0.00442633
0.0044434
0.00446055
0.00447778
0.0044951
0.00451251
0.00453
0.00454758
0.00456525
0.004583
0.00460084
0.00461876
0.00463678
0.00465488
0.00467307
0.00469135
0.00470972
0.00472818
0.00474673
0.00476537
0.00478409
0.00480291
0.00482182
0.00484083
0.00485992
0.00487911
0.00489838
0.00491776
0.00493722
0.00495678
0.00497643
0.00499618
0.00501602
0.00503596
0.005056
0.00507613
0.00509635
0.00511668
0.0051371
0.00515761
0.00517823
0.00519895
0.00521976
0.00524068
0.00526169
0.0052828
0.00530402
0.00532534
0.00534676
0.00536828
0.0053899
0.00541163
0.00543346
0.0054554
0.00547744
0.00549958
0.00552183
0.00554419
0.00556665
0.00558923
0.00561191
0.00563469
0.00565759
0.0056806
0.00570372
0.00572695
0.00575028
0.00577374
0.0057973
0.00582098
0.00584477
0.00586867
0.00589269
0.00591683
0.00594108
0.00596545
0.00598994
0.00601455
0.00603927
0.00606411
0.00608908
0.00611416
0.00613937
0.0061647
0.00619016
0.00621573
0.00624144
0.00626726
0.00629322
0.0063193
0.00634551
0.00637185
0.00639832
0.00642491
0.00645164
0.0064785
0.0065055
0.00653263
0.00655989
0.00658729
0.00661482
0.0066425
0.00667031
0.00669826
0.00672635
0.00675458
0.00678295
0.00681147
0.00684013
0.00686893
0.00689789
0.00692699
0.00695623
0.00698563
0.00701518
0.00704488
0.00707473
0.00710473
0.00713794
0.00319018
0.00320435
0.00321209
0.00321965
0.00322722
0.0032348
0.00324238
0.00324998
0.00325758
0.0032652
0.00327282
0.00328046
0.0032881
0.00329576
0.00330342
0.00331109
0.00331878
0.00332647
0.00333417
0.00334188
0.0033496
0.00335733
0.00336507
0.00337282
0.00338057
0.00338834
0.00339612
0.0034039
0.00341169
0.0034195
0.00342731
0.00343513
0.00344296
0.0034508
0.00345865
0.00346651
0.00347437
0.00348225
0.00349013
0.00349802
0.00350593
0.00351384
0.00352176
0.00352968
0.00353762
0.00354556
0.00355352
0.00356148
0.00356945
0.00357743
0.00358542
0.00359341
0.00360142
0.00360943
0.00361745
0.00362548
0.00363351
0.00364156
0.00364961
0.00365767
0.00366574
0.00367382
0.0036819
0.00368999
0.00369809
0.0037062
0.00371431
0.00372244
0.00373057
0.0037387
0.00374685
0.003755
0.00376316
0.00377133
0.0037795
0.00378768
0.00379587
0.00380406
0.00381227
0.00382048
0.00382869
0.00383691
0.00384514
0.00385338
0.00386162
0.00386987
0.00387813
0.00388639
0.00389466
0.00390294
0.00391122
0.00391951
0.0039278
0.0039361
0.00394441
0.00395272
0.00396104
0.00396937
0.0039777
0.00398603
0.00399437
0.00400272
0.00401108
0.00401944
0.0040278
0.00403617
0.00404455
0.00405293
0.00406131
0.0040697
0.0040781
0.0040865
0.00409491
0.00410332
0.00411173
0.00412015
0.00412858
0.00413701
0.00414544
0.00415388
0.00416232
0.00417076
0.00417921
0.00418767
0.00419612
0.00420458
0.00421305
0.00422152
0.00422999
0.00423846
0.00424694
0.00425542
0.00426391
0.00427239
0.00428088
0.00428938
0.00429787
0.00430637
0.00431487
0.00432338
0.00433189
0.00434039
0.00434891
0.00435742
0.00436594
0.00437446
0.00438298
0.0043915
0.00440003
0.00440855
0.00441708
0.00442562
0.00443415
0.00444269
0.00445123
0.00445977
0.00446831
0.00447685
0.0044854
0.00449395
0.0045025
0.00451106
0.00451961
0.00452817
0.00453673
0.0045453
0.00455386
0.00456243
0.004571
0.00457957
0.00458814
0.00459672
0.0046053
0.00461388
0.00462247
0.00463106
0.00463965
0.00464824
0.00465684
0.00466544
0.00467404
0.00468264
0.00469125
0.00469986
0.00470848
0.0047171
0.00472572
0.00473434
0.00474297
0.0047516
0.00476024
0.00476888
0.00477752
0.00478617
0.00479482
0.00480347
0.00481213
0.0048208
0.00482954
0.00483975
0.00252364
0.00274644
0.00304336
0.00325712
0.00341002
0.00352616
0.00361986
0.00369949
0.00377001
0.00383442
0.00389455
0.00395158
0.00400627
0.00405913
0.00411055
0.00416076
0.00420998
0.00425836
0.004306
0.00435302
0.00439948
0.00444547
0.00449103
0.00453621
0.00458107
0.00462563
0.00466993
0.00471401
0.00475789
0.00480159
0.00484515
0.00488857
0.00493189
0.00497511
0.00501826
0.00506135
0.0051044
0.00514742
0.00519042
0.00523343
0.00527644
0.00531947
0.00536253
0.00540564
0.0054488
0.00549203
0.00553533
0.00557872
0.0056222
0.00566578
0.00570949
0.00575331
0.00579727
0.00584138
0.00588564
0.00593006
0.00597466
0.00601945
0.00606443
0.00610962
0.00615504
0.00620069
0.00624658
0.00629274
0.00633917
0.0063859
0.00643293
0.00648029
0.006528
0.00657607
0.00662453
0.00667341
0.00672273
0.00677252
0.00682282
0.00687366
0.00692509
0.00697715
0.00702991
0.00708341
0.00713774
0.00719298
0.00724923
0.00730661
0.00736525
0.00742533
0.00748706
0.00755068
0.00761649
0.00768486
0.00775624
0.00783116
0.00791026
0.00799429
0.00808409
0.00818057
0.00828467
0.00839717
0.00851855
0.00864863
0.0089915
0.00914275
0.00928356
0.00941508
0.00953826
0.00965386
0.00976249
0.00986469
0.00996086
0.0100514
0.0101366
0.0102167
0.0102919
0.0103625
0.0104286
0.0104904
0.010548
0.0106016
0.0106513
0.0106972
0.0107395
0.0107782
0.0108136
0.0108456
0.0108746
0.0109005
0.0109235
0.0109438
0.0109614
0.0109766
0.0109894
0.0110001
0.0110086
0.0110153
0.0110201
0.0110233
0.011025
0.0110252
0.0110242
0.0110219
0.0110186
0.0110142
0.011009
0.0110029
0.010996
0.0109885
0.0109803
0.0109715
0.0109622
0.0109523
0.010942
0.0109313
0.0109201
0.0109085
0.0108965
0.0108841
0.0108713
0.0108582
0.0108447
0.0108308
0.0108164
0.0108017
0.0107866
0.010771
0.010755
0.0107385
0.0107216
0.0107041
0.0106861
0.0106675
0.0106483
0.0106285
0.010608
0.0105867
0.0105647
0.0105419
0.0105183
0.0104937
0.0104681
0.0104414
0.0104135
0.0103844
0.0103539
0.0103219
0.0102883
0.0102529
0.0102154
0.0101757
0.0101336
0.0100886
0.0100403
0.00998839
0.00993218
0.00987099
0.00980396
0.0097301
0.00964832
0.00955753
0.00945701
0.00934719
0.00923144
0.00911642
0.00900676
0.00890368
0.00880806
0.0087205
0.00864126
0.00857034
0.00850755
0.00845249
0.00840468
0.00836353
0.00832845
0.00829881
0.00827402
0.00825351
0.00823675
0.00822324
0.00821256
0.00820432
0.00819816
0.00819378
0.00819093
0.00818936
0.00818888
0.00818933
0.00819055
0.00819243
0.00819485
0.00819773
0.00820099
0.00820458
0.00820843
0.0082125
0.00821675
0.00822116
0.0082257
0.00823034
0.00823507
0.00823987
0.00824473
0.00824964
0.00825459
0.00825958
0.0082646
0.00826964
0.0082747
0.00827978
0.00828487
0.00828998
0.00829509
0.00830022
0.00830536
0.0083105
0.00831565
0.00832081
0.00832597
0.00833114
0.00833632
0.0083415
0.00834668
0.00835187
0.00835706
0.00836226
0.00836747
0.00837267
0.00837788
0.0083831
0.00838832
0.00839354
0.00839877
0.008404
0.00840924
0.00841448
0.00841973
0.00842497
0.00843023
0.00843548
0.00844074
0.008446
0.00845127
0.00845654
0.00846182
0.0084671
0.00847238
0.00847766
0.00848295
0.00848825
0.00849354
0.00849884
0.00850415
0.00850946
0.00851477
0.00852008
0.0085254
0.00853072
0.00853605
0.00854137
0.00854671
0.00855204
0.00855738
0.00856272
0.00856806
0.00857341
0.00857876
0.00858412
0.00858948
0.00859484
0.0086002
0.00860557
0.00861094
0.00861631
0.00862169
0.00862707
0.00863245
0.00863784
0.00864322
0.00864862
0.00865401
0.00865941
0.00866481
0.00867021
0.00867562
0.00868103
0.00868644
0.00869186
0.00869727
0.0087027
0.00870812
0.00871355
0.00871898
0.00872441
0.00872985
0.00873528
0.00874073
0.00874617
0.00875162
0.00875707
0.00876252
0.00876798
0.00877344
0.0087789
0.00878436
0.00878983
0.0087953
0.00880077
0.00880625
0.00881173
0.00881721
0.0088227
0.00882818
0.00883368
0.00883917
0.00884467
0.00885017
0.00885567
0.00886118
0.00886668
0.0088722
0.00887771
0.00888323
0.00888875
0.00889428
0.0088998
0.00890533
0.00891087
0.0089164
0.00892194
0.00892749
0.00893303
0.00893858
0.00894414
0.00894969
0.00895525
0.00896082
0.00896638
0.00897195
0.00897752
0.0089831
0.00898868
0.00899426
0.00899985
0.00900544
0.00901103
0.00901663
0.00902223
0.00902784
0.00903344
0.00903906
0.00904467
0.00905029
0.00905591
0.00906154
0.00906717
0.0090728
0.00907844
0.00908408
0.00908973
0.00909538
0.00910103
0.00910669
0.00911235
0.00911802
0.00912369
0.00912936
0.00913504
0.00914072
0.00914641
0.0091521
0.0091578
0.0091635
0.0091692
0.00917491
0.00918062
0.00918634
0.00919206
0.00919779
0.00920352
0.00920926
0.009215
0.00922074
0.00922649
0.00923225
0.00923801
0.00924377
0.00924954
0.00925532
0.0092611
0.00926688
0.00927267
0.00927847
0.00928427
0.00929008
0.00929589
0.0093017
0.00930753
0.00931336
0.00931919
0.00932503
0.00933087
0.00933672
0.00934258
0.00934844
0.00935431
0.00936019
0.00936607
0.00937195
0.00937785
0.00938375
0.00938965
0.00939556
0.00940148
0.00940741
0.00941334
0.00941928
0.00942522
0.00943117
0.00943713
0.0094431
0.00944907
0.00945505
0.00946104
0.00946703
0.00947303
0.00947904
0.00948506
0.00949108
0.00949711
0.00950315
0.0095092
0.00951526
0.00952132
0.00952739
0.00953347
0.00953956
0.00954566
0.00955176
0.00955788
0.009564
0.00957013
0.00957627
0.00958242
0.00958858
0.00959475
0.00960092
0.00960711
0.00961331
0.00961951
0.00962573
0.00963196
0.00963819
0.00964444
0.0096507
0.00965696
0.00966324
0.00966953
0.00967583
0.00968214
0.00968846
0.00969479
0.00970114
0.00970749
0.00971386
0.00972024
0.00972663
0.00973303
0.00973945
0.00974587
0.00975231
0.00975877
0.00976523
0.00977171
0.0097782
0.00978471
0.00979122
0.00979776
0.0098043
0.00981086
0.00981744
0.00982402
0.00983063
0.00983724
0.00984388
0.00985052
0.00985719
0.00986386
0.00987056
0.00987727
0.00988399
0.00989073
0.00989749
0.00990426
0.00991105
0.00991786
0.00992469
0.00993154
0.00993842
0.00994531
0.00995222
0.00995914
0.00996604
0.00997289
0.00997966
0.00998633
0.00999291
0.00999957
0.0100067
0.0100148
0.0100249
0.010038
0.010054
0.0100713
0.0100887
0.010106
0.0101234
0.0101408
0.0101581
0.0101755
0.0101929
0.0102103
0.0102276
0.010245
0.0102624
0.0102798
0.0102972
0.0103147
0.0103321
0.0103495
0.0103669
0.0103844
0.0104018
0.0104193
0.0104367
0.0104542
0.0104716
0.0104891
0.0105066
0.0105241
0.0105416
0.0105591
0.0105766
0.0105941
0.0106116
0.0106292
0.0106467
0.0106643
0.0106818
0.0106994
0.010717
0.0107346
0.0107522
0.0107698
0.0107875
0.0108051
0.0108228
0.0108405
0.0108582
0.0108759
0.0108937
0.0109114
0.0109292
0.010947
0.0109649
0.0109828
0.0110007
0.0110186
0.0110366
0.0110546
0.0110727
0.0110908
0.011109
0.0111271
0.0111454
0.0111636
0.0111819
0.0112002
0.0112186
0.011237
0.0112556
0.0112744
0.0112935
0.0113131
0.011333
0.0113527
0.0113714
0.011388
0.0114009
0.0114097
0.0114157
0.0114242
0.0114457
0.0114961
0.0115922
0.0117419
0.0119231
0.0120566
0.0119872
0.0115188
0.0105372
0.00914695
0.00765029
0.00634776
0.00537836
0.00472777
0.00431608
0.00406162
0.00390337
0.00380165
0.00373237
0.00368146
0.00364095
0.00360635
0.00357517
0.00354607
0.00351829
0.00349144
0.00346532
0.0034398
0.00341483
0.00339038
0.00336643
0.00334295
0.00331996
0.00329742
0.00327534
0.00325369
0.00323248
0.00321168
0.00319128
0.00317127
0.00315163
0.00313236
0.00311343
0.00309483
0.00307655
0.00305858
0.0030409
0.00302351
0.0030064
0.00298955
0.00297296
0.00295661
0.00294051
0.00292465
0.00290902
0.00289362
0.00287844
0.00286348
0.00284874
0.00283422
0.00281991
0.00280581
0.00279193
0.00277826
0.0027648
0.00275156
0.00273853
0.00272571
0.00271311
0.00270073
0.00268855
0.0026766
0.00266486
0.00265333
0.00264203
0.00263093
0.00262005
0.00260939
0.00259894
0.0025887
0.00257867
0.00256885
0.00255923
0.00254982
0.0025406
0.00253158
0.00252275
0.0025141
0.00250564
0.00249736
0.00248925
0.00248131
0.00247353
0.0024659
0.00245843
0.00245111
0.00244392
0.00243686
0.00242991
0.00357316
0.00356993
0.00357153
0.00357374
0.003573
0.00357113
0.00356887
0.00356649
0.00356425
0.00356248
0.00356135
0.00356071
0.00356039
0.00356045
0.00356105
0.00356228
0.00356399
0.00356622
0.00356895
0.00357217
0.00357599
0.00358026
0.00358505
0.00359032
0.00359601
0.00360224
0.00360906
0.00361649
0.00362454
0.00363312
0.00364218
0.00365182
0.00366209
0.00367299
0.00368445
0.00369643
0.00370898
0.00372211
0.0037358
0.00375021
0.0037654
0.00378117
0.00379761
0.0038149
0.00383296
0.00385169
0.00387116
0.00389137
0.00391228
0.003934
0.00395661
0.00398007
0.00400434
0.00402957
0.00405583
0.00408317
0.00411153
0.00414088
0.00417132
0.00420288
0.00423553
0.00426947
0.0043048
0.00434157
0.00437976
0.00441933
0.00446037
0.00450292
0.00454723
0.00459346
0.00464172
0.00469207
0.00474452
0.00479931
0.00485654
0.00491631
0.00497892
0.00504456
0.00511342
0.00518594
0.00526251
0.0053435
0.00542921
0.00551994
0.00561633
0.0057193
0.0058299
0.00594948
0.00608012
0.00622468
0.00638728
0.00657429
0.00679592
0.00706821
0.00741655
0.00788107
0.00852315
0.00943226
0.0107239
0.0125056
0.0147558
0.0115538
0.0131286
0.0131487
0.0131689
0.0131889
0.0132089
0.0132289
0.0132487
0.0132685
0.0132883
0.013308
0.0133276
0.0133471
0.0133666
0.0133861
0.0134055
0.0134248
0.0134441
0.0134633
0.0134824
0.0135015
0.0135206
0.0135396
0.0135585
0.0135774
0.0135962
0.013615
0.0136337
0.0136524
0.0136711
0.0136896
0.0137082
0.0137267
0.0137451
0.0137636
0.0137819
0.0138003
0.0138186
0.0138369
0.0138551
0.0138733
0.0138915
0.0139097
0.0139279
0.013946
0.0139641
0.0139822
0.0140003
0.0140184
0.0140365
0.0140546
0.0140726
0.0140907
0.0141089
0.0141271
0.0141453
0.0141636
0.0141821
0.0142006
0.0142193
0.0142382
0.0142574
0.0142767
0.0142964
0.0143164
0.0143368
0.0143575
0.0143787
0.0144003
0.0144225
0.0144452
0.0144684
0.0144922
0.0145165
0.0145415
0.0145672
0.0145934
0.0146203
0.0146477
0.0146757
0.0147042
0.0147332
0.0147629
0.0147938
0.0148262
0.0148597
0.014893
0.0149232
0.0149467
0.0149629
0.0149759
0.0149893
0.0150029
0.0150166
0.0150306
0.0150447
0.0150589
0.0150731
0.0150873
0.0151014
0.0151155
0.0151294
0.0151432
0.0151568
0.0151702
0.0151834
0.0151963
0.0152089
0.0152213
0.0152334
0.0152451
0.0152566
0.0152677
0.0152786
0.0152891
0.0152993
0.0153092
0.0153189
0.0153282
0.0153373
0.0153461
0.0153546
0.0153629
0.015371
0.0153789
0.0153866
0.015394
0.0154014
0.0154085
0.0154155
0.0154223
0.0154291
0.0154357
0.0154422
0.0154487
0.0154552
0.0154616
0.0154679
0.015474
0.0154798
0.0154855
0.015491
0.0154966
0.0155026
0.0155092
0.0155167
0.0155249
0.015533
0.0155399
0.015544
0.0155443
0.0155408
0.0155362
0.0155353
0.0155451
0.0155718
0.015617
0.0156731
0.0157198
0.0157261
0.0156598
0.0155067
0.0152917
0.0150918
0.0150306
0.0152541
0.015888
0.0169513
0.0181793
0.0188161
0.017823
0.0149188
0.0112447
0.00820581
0.00625962
0.005167
0.00458632
0.00428297
0.00412437
0.00404036
0.00399456
0.00396832
0.00395205
0.00394088
0.00393229
0.00392502
0.00391842
0.00391215
0.00390604
0.00390001
0.00389402
0.00388804
0.00388206
0.00387607
0.00387007
0.00386407
0.00385805
0.00385202
0.00384597
0.00383992
0.00383384
0.00382776
0.00382166
0.00381555
0.00380942
0.00380328
0.00379713
0.00379096
0.00378478
0.00377858
0.00377238
0.00376616
0.00375993
0.00375368
0.00374743
0.00374117
0.0037349
0.00372862
0.00372233
0.00371604
0.00370974
0.00370344
0.00369714
0.00369083
0.00368452
0.00367821
0.00367191
0.0036656
0.00365931
0.00365301
0.00364673
0.00364045
0.00363419
0.00362794
0.0036217
0.00361547
0.00360926
0.00360307
0.00359689
0.00359074
0.00358461
0.0035785
0.00357241
0.00356635
0.00356032
0.00355431
0.00354833
0.00354238
0.00353646
0.00353058
0.00352472
0.00351889
0.0035131
0.00350734
0.00350161
0.00349592
0.00349026
0.00348464
0.00347905
0.0034735
0.00346798
0.0034625
0.00345706
0.00345164
0.00344627
0.00344093
0.00343562
0.00343035
0.00342511
0.00341991
0.00341474
0.0034096
0.0034045
0.00339943
0.00339439
0.00338938
0.00338441
0.00337947
0.00337456
0.00336968
0.00336482
0.00336
0.00335521
0.00335045
0.00334571
0.00334101
0.00333633
0.00333168
0.00332705
0.00332245
0.00331788
0.00331333
0.00330881
0.00330431
0.00329983
0.00329538
0.00329095
0.00328655
0.00328216
0.0032778
0.00327346
0.00326914
0.00326484
0.00326056
0.0032563
0.00325206
0.00324784
0.00324364
0.00323946
0.00323529
0.00323114
0.00322701
0.00322289
0.00321879
0.0032147
0.00321063
0.00320658
0.00320254
0.00319851
0.0031945
0.0031905
0.00318651
0.00318253
0.00317857
0.00317462
0.00317067
0.00316674
0.00316282
0.00315891
0.00315501
0.00315112
0.00314723
0.00314336
0.00313949
0.00313563
0.00313178
0.00312793
0.00312409
0.00312026
0.00311644
0.00311262
0.0031088
0.00310499
0.00310119
0.00309739
0.00309359
0.0030898
0.00308602
0.00308224
0.00307846
0.00307469
0.00307092
0.00306716
0.0030634
0.00305964
0.00305589
0.00305215
0.0030484
0.00304467
0.00304093
0.0030372
0.00303348
0.00302976
0.00302605
0.00302234
0.00301864
0.00301494
0.00301125
0.00300757
0.00300389
0.00300022
0.00299656
0.0029929
0.00298925
0.00298561
0.00298198
0.00297835
0.00297473
0.00297112
0.00296752
0.00296393
0.00296035
0.00295677
0.00295321
0.00294965
0.0029461
0.00294257
0.00293905
0.00293557
0.00293227
0.00292949
0.00292764
0.00292663
0.00292606
0.00292573
0.00292552
0.00292537
0.00292527
0.00292518
0.0029251
0.00292503
0.00292496
0.0029249
0.00292484
0.00292478
0.00292472
0.00292467
0.00292461
0.00292456
0.00292451
0.00292446
0.00292441
0.00292436
0.00292432
0.00292427
0.00292423
0.00292419
0.00292414
0.0029241
0.00292406
0.00292403
0.00292399
0.00292395
0.00292391
0.00292388
0.00292384
0.00292381
0.00292378
0.00292375
0.00292371
0.00292368
0.00292365
0.00292362
0.00292359
0.00292356
0.00292354
0.00292351
0.00292348
0.00292345
0.00292343
0.0029234
0.00292338
0.00292335
0.00292332
0.0029233
0.00292327
0.00292325
0.00292323
0.0029232
0.00292318
0.00292315
0.00292313
0.0029231
0.00292308
0.00292306
0.00292303
0.00292301
0.00292299
0.00292296
0.00292294
0.00292291
0.00292289
0.00292287
0.00292284
0.00292282
0.00292279
0.00292277
0.00292274
0.00292272
0.00292269
0.00292266
0.00292264
0.00292261
0.00292259
0.00292256
0.00292253
0.0029225
0.00292248
0.00292245
0.00292242
0.00292239
0.00292236
0.00292233
0.0029223
0.00292227
0.00292224
0.0029222
0.00292217
0.00292214
0.0029221
0.00292207
0.00292203
0.002922
0.00292196
0.00292193
0.00292189
0.00292185
0.00292181
0.00292177
0.00292173
0.00292169
0.00292165
0.00292161
0.00292156
0.00292152
0.00292147
0.00292143
0.00292138
0.00292133
0.00292128
0.00292123
0.00292118
0.00292113
0.00292108
0.00292103
0.00292097
0.00292092
0.00292086
0.0029208
0.00292074
0.00292069
0.00292062
0.00292056
0.0029205
0.00292044
0.00292037
0.0029203
0.00292024
0.00292017
0.0029201
0.00292003
0.00291995
0.00291988
0.0029198
0.00291973
0.00291965
0.00291957
0.00291949
0.00291941
0.00291932
0.00291924
0.00291915
0.00291907
0.00291898
0.00291889
0.0029188
0.0029187
0.00291861
0.00291851
0.00291842
0.00291832
0.00291822
0.00291812
0.00291801
0.00291791
0.0029178
0.00291769
0.00291758
0.00291747
0.00291736
0.00291725
0.00291713
0.00291701
0.0029169
0.00291678
0.00291665
0.00291653
0.00291641
0.00291628
0.00291615
0.00291602
0.00291589
0.00291576
0.00291563
0.00291549
0.00291536
0.00291522
0.00291508
0.00291494
0.0029148
0.00291465
0.00291451
0.00291436
0.00291421
0.00291406
0.00291391
0.00291376
0.00291361
0.00291345
0.00291329
0.00291314
0.00291298
0.00291282
0.00291266
0.00291249
0.00291233
0.00291217
0.002912
0.00291183
0.00291166
0.0029115
0.00291133
0.00291115
0.00291098
0.00291081
0.00291063
0.00291046
0.00291028
0.00291011
0.00290993
0.00290975
0.00290957
0.00290939
0.00290921
0.00290903
0.00290885
0.00290867
0.00290849
0.00290831
0.00290812
0.00290794
0.00290776
0.00290757
0.00290739
0.00290721
0.00290702
0.00290684
0.00290666
0.00290647
0.00290629
0.00290611
0.00290593
0.00290574
0.00290556
0.00290538
0.0029052
0.00290502
0.00290484
0.00290466
0.00290449
0.00290431
0.00290414
0.00290396
0.00290379
0.00290362
0.00290345
0.00290328
0.00290311
0.00290294
0.00290278
0.00290262
0.00290245
0.00290229
0.00290214
0.00290198
0.00290183
0.00290167
0.00290152
0.00290138
0.00290123
0.00290109
0.00290095
0.00290081
0.00290067
0.00290054
0.00290041
0.00290028
0.00290015
0.00290003
0.00289991
0.00289979
0.00289967
0.00289956
0.00289945
0.00289934
0.00289924
0.00289914
0.00289904
0.00289894
0.00289885
0.00289876
0.00289868
0.00289859
0.00289852
0.00289844
0.00289837
0.0028983
0.00289823
0.00289816
0.0028981
0.00289805
0.00289799
0.00289794
0.00289789
0.00289785
0.00289781
0.00289777
0.00289773
0.0028977
0.00289767
0.00289765
0.00289762
0.0028976
0.00289759
0.00289757
0.00289756
0.00289756
0.00289755
0.00289755
0.00289755
0.00289755
0.00289756
0.00289757
0.00289758
0.0028976
0.00289762
0.00289764
0.00289766
0.00289769
0.00289772
0.00289775
0.00289778
0.00289782
0.00289785
0.00289789
0.00289794
0.00289798
0.00289803
0.00289808
0.00289813
0.00289819
0.00289824
0.0028983
0.00289836
0.00289842
0.00289849
0.00289855
0.00289862
0.00289869
0.00289876
0.00289884
0.00289891
0.00289899
0.00289906
0.00289914
0.00289923
0.00289931
0.00289939
0.00289948
0.00289957
0.00289965
0.00289974
0.00289983
0.00289993
0.00290002
0.00290011
0.00290021
0.00290031
0.0029004
0.0029005
0.0029006
0.0029007
0.00290081
0.00290091
0.00290101
0.00290112
0.00290122
0.00290133
0.00290143
0.00290154
0.00290165
0.00290176
0.00290187
0.00290198
0.00290209
0.0029022
0.00290231
0.00290242
0.00290254
0.00290265
0.00290276
0.00290288
0.00290299
0.00290311
0.00290322
0.00290334
0.00290346
0.00290357
0.00290369
0.00290381
0.00290393
0.00290404
0.00290416
0.00290428
0.0029044
0.00290452
0.00290464
0.00290476
0.00290488
0.002905
0.00290512
0.00290524
0.00290536
0.00290548
0.0029056
0.00290572
0.00290584
0.00290596
0.00290608
0.0029062
0.00290632
0.00290644
0.00290656
0.00290668
0.0029068
0.00290693
0.00290705
0.00290717
0.00290729
0.00290741
0.00290753
0.00290765
0.00290777
0.00290789
0.00290801
0.00290814
0.00290826
0.00290838
0.0029085
0.00290862
0.00290874
0.00290886
0.00290898
0.0029091
0.00290922
0.00290934
0.00290946
0.00290958
0.0029097
0.00290982
0.00290994
0.00291006
0.00291018
0.0029103
0.00291042
0.00291054
0.00291066
0.00291078
0.0029109
0.00291101
0.00291113
0.00291125
0.00291137
0.00291149
0.00291161
0.00291172
0.00291184
0.00291196
0.00291208
0.0029122
0.00291231
0.00291243
0.00291255
0.00291266
0.00291278
0.0029129
0.00291302
0.00291313
0.00291325
0.00291336
0.00291348
0.0029136
0.00291371
0.00291383
0.00291394
0.00291406
0.00291417
0.00291429
0.0029144
0.00291452
0.00291463
0.00291475
0.00291486
0.00291498
0.00291509
0.0029152
0.00291532
0.00291543
0.00291554
0.00291566
0.00291577
0.00291588
0.00291599
0.00291611
0.00291622
0.00291633
0.00291644
0.00291656
0.00291667
0.00291678
0.00291689
0.002917
0.00291711
0.00291722
0.00291733
0.00291744
0.00291755
0.00291766
0.00291777
0.00291788
0.00291799
0.0029181
0.00291821
0.00291832
0.00291843
0.00291853
0.00291864
0.00291875
0.00291886
0.00291896
0.00291907
0.00291918
0.00291929
0.00291939
0.0029195
0.0029196
0.00291971
0.00291982
0.00291992
0.00292003
0.00292013
0.00292024
0.00292034
0.00292045
0.00292055
0.00292065
0.00292076
0.00292086
0.00292096
0.00292107
0.00292117
0.00292127
0.00292137
0.00292148
0.00292158
0.00292168
0.00292178
0.00292188
0.00292198
0.00292208
0.00292218
0.00292228
0.00292238
0.00292248
0.00292258
0.00292268
0.00292278
0.00292288
0.00292297
0.00292307
0.00292317
0.00292327
0.00292336
0.00292346
0.00292356
0.00292365
0.00292375
0.00292384
0.00292394
0.00292403
0.00292413
0.00292422
0.00292432
0.00292441
0.0029245
0.0029246
0.00292469
0.00292478
0.00292487
0.00292497
0.00292506
0.00292515
0.00292524
0.00292533
0.00292542
0.00292551
0.0029256
0.00292569
0.00292578
0.00292587
0.00292596
0.00292605
0.00292614
0.00292622
0.00292631
0.0029264
0.00292648
0.00292657
0.00292666
0.00292674
0.00292683
0.00292691
0.002927
0.00292708
0.00292717
0.00292725
0.00292733
0.00292742
0.0029275
0.00292758
0.00292767
0.00292775
0.00292783
0.00292791
0.00292799
0.00292807
0.00292815
0.00292823
0.00292831
0.00292839
0.00292847
0.00292855
0.00292863
0.00292871
0.00292879
0.00292886
0.00292894
0.00292902
0.00292909
0.00292917
0.00292925
0.00292932
0.0029294
0.00292947
0.00292955
0.00292962
0.00292969
0.00292977
0.00292984
0.00292991
0.00292999
0.00293006
0.00293013
0.0029302
0.00293027
0.00293035
0.00293042
0.00293049
0.00293056
0.00293063
0.0029307
0.00293077
0.00293084
0.0029309
0.00293097
0.00293104
0.00293111
0.00293118
0.00293124
0.00293131
0.00293138
0.00293144
0.00293151
0.00293158
0.00293164
0.00293171
0.00293177
0.00293184
0.0029319
0.00293197
0.00293203
0.00293209
0.00293216
0.00293222
0.00293228
0.00293235
0.00293241
0.00293247
0.00293253
0.0029326
0.00293266
0.00293272
0.00293278
0.00293284
0.0029329
0.00293296
0.00293303
0.00293309
0.00293315
0.00293321
0.00293327
0.00293333
0.00293339
0.00293345
0.00293351
0.00293357
0.00293364
0.0029337
0.00293376
0.00293382
0.00293388
0.00293395
0.00293401
0.00293408
0.00293414
0.00293421
0.00293428
0.00293434
0.00293441
0.00293449
0.00293456
0.00293463
0.00293471
0.00293479
0.00293487
0.00293495
0.00293503
0.00293512
0.00293521
0.00293531
0.00293541
0.00293551
0.00293562
0.00293573
0.00293584
0.00293596
0.00293609
0.00293622
0.00293636
0.0029365
0.00293665
0.00293681
0.00293698
0.00293715
0.00293734
0.00293753
0.00293773
0.00293794
0.00293816
0.00293839
0.00293864
0.00293889
0.00293915
0.00293943
0.00293972
0.00294003
0.00294034
0.00294067
0.00294102
0.00294137
0.00294175
0.00294213
0.00294254
0.00294295
0.00294339
0.00294383
0.0029443
0.00294478
0.00294528
0.00294579
0.00294631
0.00294686
0.00294742
0.00294799
0.00294858
0.00294919
0.00294981
0.00295045
0.0029511
0.00295177
0.00295245
0.00295315
0.00295386
0.00295458
0.00295532
0.00295607
0.00295683
0.00295761
0.00295839
0.00295919
0.00296
0.00296082
0.00296165
0.00296249
0.00296334
0.0029642
0.00296507
0.00296594
0.00296683
0.00296772
0.00296862
0.00296952
0.00297043
0.00297135
0.00297228
0.00297321
0.00297414
0.00297508
0.00297603
0.00297698
0.00297793
0.00297889
0.00297986
0.00298082
0.0029818
0.00298278
0.00298376
0.00298475
0.00298574
0.00298674
0.00298774
0.00298876
0.00298977
0.0029908
0.00299183
0.00299288
0.00299393
0.00299499
0.00299607
0.00299716
0.00299827
0.00299939
0.00300053
0.00300169
0.00300287
0.00300408
0.00300531
0.00300658
0.00300788
0.00300921
0.00301058
0.003012
0.00301347
0.00301498
0.00301656
0.00301819
0.00301989
0.00302166
0.0030235
0.00302543
0.00302745
0.00302956
0.00303177
0.00303408
0.00303652
0.00303907
0.00304175
0.00304456
0.00304752
0.00305062
0.00305389
0.00305732
0.00306093
0.00306471
0.00306869
0.00307287
0.00307726
0.00308187
0.00308671
0.00309178
0.0030971
0.00310268
0.00310853
0.00311465
0.00312107
0.00312779
0.00313482
0.00314217
0.00314987
0.00315792
0.00316632
0.00317511
0.00318428
0.00319385
0.00320384
0.00321425
0.0032251
0.0032364
0.00324816
0.0032604
0.00327311
0.00328632
0.00330002
0.00331422
0.00332893
0.00334415
0.00335988
0.00337612
0.00339287
0.00341011
0.00342784
0.00344604
0.0034647
0.0034838
0.0035033
0.00352319
0.00354341
0.00356393
0.00358469
0.00360565
0.00362672
0.00364785
0.00366894
0.0036899
0.00371063
0.00373102
0.00375094
0.00377026
0.00378884
0.00380654
0.0038232
0.00383869
0.00385284
0.00386554
0.00387664
0.00388606
0.00389371
0.00389954
0.00390356
0.00390581
0.00390638
0.00390548
0.0039035
0.00390137
)
;

boundaryField
{
    inlet
    {
        type            calculated;
        value           uniform 0.00347313;
    }
    outlet
    {
        type            calculated;
        value           uniform 0.00390137;
    }
    right
    {
        type            empty;
    }
    left
    {
        type            empty;
    }
    atmosphere
    {
        type            empty;
    }
    bottomWall
    {
        type            empty;
    }
}


// ************************************************************************* //
