/*--------------------------------*- C++ -*----------------------------------*\
| =========                 |                                                 |
| \\      /  F ield         | foam-extend: Open Source CFD                    |
|  \\    /   O peration     | Version:     3.1                                |
|   \\  /    A nd           | Web:         http://www.extend-project.de       |
|    \\/     M anipulation  |                                                 |
\*---------------------------------------------------------------------------*/
FoamFile
{
    version     2.0;
    format      ascii;
    class       volScalarField;
    location    "4";
    object      H;
}
// * * * * * * * * * * * * * * * * * * * * * * * * * * * * * * * * * * * * * //

dimensions      [0 1 0 0 0 0 0];

internalField   nonuniform List<scalar> 
2539
(
1.04298
1.04218
1.04116
1.04017
1.03917
1.03818
1.03718
1.03618
1.03518
1.03418
1.03318
1.03218
1.03117
1.03017
1.02916
1.02815
1.02714
1.02613
1.02512
1.0241
1.02309
1.02207
1.02105
1.02003
1.01901
1.01799
1.01697
1.01595
1.01492
1.01389
1.01287
1.01184
1.01081
1.00978
1.00874
1.00771
1.00667
1.00564
1.0046
1.00356
1.00252
1.00148
1.00044
0.999401
0.998358
0.997314
0.996269
0.995223
0.994176
0.993128
0.99208
0.99103
0.98998
0.988928
0.987876
0.986824
0.98577
0.984716
0.983661
0.982605
0.981548
0.980491
0.979433
0.978375
0.977316
0.976256
0.975195
0.974134
0.973073
0.972011
0.970948
0.969885
0.968821
0.967756
0.966692
0.965626
0.96456
0.963494
0.962427
0.96136
0.960292
0.959224
0.958156
0.957087
0.956017
0.954947
0.953877
0.952807
0.951736
0.950664
0.949592
0.94852
0.947448
0.946375
0.945302
0.944228
0.943154
0.94208
0.941006
0.939931
0.938855
0.93778
0.936704
0.935628
0.934551
0.933474
0.932397
0.93132
0.930242
0.929164
0.928085
0.927006
0.925927
0.924848
0.923768
0.922688
0.921608
0.920527
0.919446
0.918364
0.917283
0.9162
0.915118
0.914035
0.912952
0.911869
0.910785
0.909701
0.908616
0.907531
0.906446
0.90536
0.904274
0.903188
0.902101
0.901014
0.899926
0.898838
0.89775
0.896661
0.895572
0.894482
0.893392
0.892301
0.89121
0.890119
0.889027
0.887935
0.886842
0.885749
0.884655
0.883561
0.882466
0.881371
0.880275
0.879179
0.878082
0.876985
0.875887
0.874789
0.87369
0.872591
0.871491
0.870391
0.86929
0.868188
0.867086
0.865983
0.86488
0.863776
0.862671
0.861566
0.86046
0.859354
0.858246
0.857139
0.85603
0.854921
0.853811
0.852701
0.85159
0.850478
0.849366
0.848252
0.846868
0.845305
0.84434
0.843894
0.843464
0.843034
0.842605
0.842176
0.841748
0.841319
0.840891
0.840463
0.840036
0.839608
0.839181
0.838755
0.838328
0.837902
0.837476
0.83705
0.836625
0.8362
0.835775
0.835351
0.834926
0.834502
0.834079
0.833655
0.833232
0.832809
0.832387
0.831964
0.831542
0.831121
0.830699
0.830278
0.829857
0.829437
0.829016
0.828596
0.828177
0.827757
0.827338
0.826919
0.826501
0.826082
0.825665
0.825247
0.82483
0.824413
0.823996
0.823579
0.823163
0.822747
0.822332
0.821917
0.821502
0.821087
0.820673
0.820259
0.819846
0.819432
0.81902
0.818607
0.818195
0.817783
0.817371
0.81696
0.816549
0.816138
0.815728
0.815318
0.814909
0.8145
0.814091
0.813682
0.813274
0.812867
0.812459
0.812052
0.811646
0.811239
0.810834
0.810428
0.810023
0.809618
0.809214
0.80881
0.808406
0.808003
0.8076
0.807198
0.806796
0.806394
0.805993
0.805592
0.805191
0.804791
0.804392
0.803993
0.803594
0.803195
0.802797
0.8024
0.802003
0.801606
0.80121
0.800814
0.800419
0.800024
0.799629
0.799235
0.798842
0.798449
0.798056
0.797664
0.797272
0.796881
0.79649
0.7961
0.79571
0.795321
0.794932
0.794544
0.794156
0.793769
0.793382
0.792996
0.79261
0.792225
0.79184
0.791456
0.791072
0.790689
0.790306
0.789924
0.789543
0.789162
0.788781
0.788402
0.788022
0.787644
0.787265
0.786888
0.786511
0.786134
0.785758
0.785383
0.785008
0.784634
0.78426
0.783887
0.783515
0.783143
0.782771
0.7824
0.78203
0.78166
0.781291
0.780923
0.780555
0.780187
0.77982
0.779454
0.779088
0.778723
0.778358
0.777994
0.777631
0.777268
0.776905
0.776543
0.776182
0.775821
0.775461
0.775101
0.774742
0.774383
0.774025
0.773667
0.77331
0.772954
0.772597
0.772242
0.771887
0.771532
0.771178
0.770824
0.770471
0.770119
0.769766
0.769415
0.769063
0.768713
0.768362
0.768013
0.767663
0.767314
0.766965
0.766609
0.766091
0.741301
0.717431
0.689105
0.670975
0.658823
0.649978
0.643059
0.637326
0.632362
0.627923
0.62386
0.620081
0.616525
0.613148
0.609922
0.606825
0.603839
0.600953
0.598155
0.595436
0.59279
0.59021
0.587691
0.585229
0.582819
0.580458
0.578142
0.57587
0.573637
0.571443
0.569284
0.567159
0.565066
0.563004
0.56097
0.558964
0.556984
0.55503
0.553099
0.551191
0.549305
0.54744
0.545594
0.543768
0.541961
0.540171
0.538398
0.536641
0.534899
0.533173
0.531461
0.529763
0.528078
0.526405
0.524745
0.523096
0.521458
0.51983
0.518213
0.516605
0.515006
0.513416
0.511833
0.510258
0.50869
0.507128
0.505573
0.504022
0.502476
0.500934
0.499396
0.49786
0.496326
0.494793
0.493261
0.491727
0.490192
0.488654
0.487112
0.485563
0.484007
0.482441
0.480863
0.47927
0.477659
0.476026
0.474365
0.472673
0.47094
0.46916
0.467323
0.465416
0.463427
0.461341
0.459142
0.456813
0.454342
0.45172
0.448947
0.446045
0.438721
0.435789
0.433131
0.430711
0.428498
0.42647
0.424606
0.422893
0.421315
0.419863
0.418527
0.417299
0.416173
0.415141
0.414199
0.413342
0.412566
0.411867
0.411242
0.410686
0.410198
0.409774
0.409411
0.409107
0.408859
0.408663
0.408518
0.408421
0.408369
0.40836
0.408391
0.40846
0.408564
0.408701
0.408869
0.409065
0.409288
0.409535
0.409804
0.410094
0.410403
0.410729
0.411071
0.411428
0.411798
0.41218
0.412574
0.412979
0.413393
0.413817
0.414249
0.41469
0.415139
0.415596
0.416061
0.416533
0.417012
0.417499
0.417994
0.418496
0.419006
0.419524
0.420051
0.420586
0.421131
0.421685
0.422249
0.422824
0.42341
0.424007
0.424617
0.425241
0.425878
0.42653
0.427199
0.427884
0.428588
0.429312
0.430057
0.430825
0.431618
0.432438
0.433288
0.43417
0.435087
0.436045
0.437046
0.438096
0.439202
0.440371
0.441612
0.442937
0.444358
0.445893
0.447563
0.449391
0.451405
0.453632
0.456092
0.458777
0.461599
0.464424
0.467168
0.469797
0.472284
0.47461
0.47676
0.478729
0.480515
0.482122
0.483559
0.484835
0.485963
0.486956
0.487828
0.488592
0.48926
0.489845
0.490356
0.490805
0.491199
0.491547
0.491855
0.492128
0.492374
0.492594
0.492794
0.492977
0.493145
0.493301
0.493447
0.493584
0.493714
0.493838
0.493957
0.494072
0.494184
0.494292
0.494398
0.494502
0.494605
0.494706
0.494805
0.494904
0.495002
0.495099
0.495196
0.495291
0.495387
0.495482
0.495576
0.495671
0.495764
0.495858
0.495951
0.496044
0.496137
0.49623
0.496322
0.496414
0.496506
0.496597
0.496688
0.496779
0.49687
0.496961
0.497051
0.497142
0.497232
0.497322
0.497411
0.497501
0.49759
0.497679
0.497768
0.497856
0.497945
0.498033
0.498121
0.498208
0.498296
0.498383
0.498471
0.498558
0.498644
0.498731
0.498817
0.498904
0.49899
0.499075
0.499161
0.499246
0.499332
0.499417
0.499502
0.499586
0.499671
0.499755
0.499839
0.499923
0.500007
0.50009
0.500173
0.500257
0.50034
0.500422
0.500505
0.500587
0.500669
0.500751
0.500833
0.500915
0.500996
0.501078
0.501159
0.50124
0.50132
0.501401
0.501481
0.501561
0.501641
0.501721
0.5018
0.50188
0.501959
0.502038
0.502117
0.502196
0.502274
0.502352
0.50243
0.502508
0.502586
0.502664
0.502741
0.502818
0.502895
0.502972
0.503048
0.503125
0.503201
0.503277
0.503353
0.503428
0.503504
0.503579
0.503654
0.503729
0.503803
0.503878
0.503952
0.504026
0.5041
0.504174
0.504247
0.504321
0.504394
0.504467
0.504539
0.504612
0.504684
0.504756
0.504828
0.5049
0.504971
0.505042
0.505114
0.505184
0.505255
0.505326
0.505396
0.505466
0.505536
0.505605
0.505675
0.505744
0.505813
0.505882
0.505951
0.506019
0.506087
0.506155
0.506223
0.506291
0.506358
0.506425
0.506492
0.506559
0.506625
0.506692
0.506758
0.506824
0.506889
0.506955
0.50702
0.507085
0.50715
0.507214
0.507279
0.507343
0.507407
0.50747
0.507534
0.507597
0.50766
0.507723
0.507785
0.507848
0.50791
0.507972
0.508033
0.508095
0.508156
0.508217
0.508278
0.508338
0.508398
0.508459
0.508518
0.508578
0.508637
0.508696
0.508755
0.508814
0.508872
0.508931
0.508989
0.509046
0.509104
0.509161
0.509218
0.509275
0.509331
0.509387
0.509443
0.509499
0.509555
0.50961
0.509665
0.50972
0.509774
0.509828
0.509882
0.509936
0.50999
0.510043
0.510096
0.510148
0.510201
0.510253
0.510305
0.510357
0.510408
0.510459
0.51051
0.51056
0.510611
0.510661
0.51071
0.51076
0.510809
0.510858
0.510906
0.510954
0.511002
0.51105
0.511098
0.511145
0.511191
0.511238
0.511284
0.51133
0.511376
0.511421
0.511466
0.511511
0.511555
0.511599
0.511643
0.511686
0.511729
0.511772
0.511814
0.511856
0.511898
0.511939
0.51198
0.512021
0.512061
0.512101
0.512141
0.51218
0.512219
0.512258
0.512296
0.512334
0.512371
0.512408
0.512445
0.512481
0.512517
0.512553
0.512588
0.512623
0.512657
0.512691
0.512725
0.512758
0.512791
0.512823
0.512855
0.512886
0.512918
0.512948
0.512978
0.513008
0.513038
0.513067
0.513095
0.513123
0.513151
0.513178
0.513204
0.513231
0.513256
0.513281
0.513306
0.513331
0.513354
0.513378
0.5134
0.513423
0.513445
0.513466
0.513486
0.513506
0.513526
0.513545
0.513563
0.513581
0.5136
0.51362
0.513641
0.513665
0.51369
0.513711
0.513721
0.513703
0.513637
0.513503
0.513311
0.513099
0.512888
0.512677
0.512466
0.512255
0.512045
0.511834
0.511624
0.511415
0.511205
0.510996
0.510786
0.510577
0.510369
0.51016
0.509952
0.509744
0.509536
0.509328
0.50912
0.508913
0.508706
0.508499
0.508292
0.508085
0.507879
0.507673
0.507466
0.50726
0.507055
0.506849
0.506643
0.506438
0.506233
0.506027
0.505822
0.505617
0.505412
0.505207
0.505002
0.504797
0.504592
0.504388
0.504182
0.503977
0.503772
0.503567
0.503361
0.503156
0.50295
0.502743
0.502537
0.50233
0.502123
0.501915
0.501707
0.501498
0.501289
0.501079
0.500868
0.500657
0.500445
0.500234
0.500021
0.499809
0.499596
0.499381
0.499163
0.49894
0.498711
0.498474
0.498233
0.497998
0.497786
0.497624
0.497534
0.497522
0.497547
0.497488
0.497118
0.496128
0.494233
0.491416
0.488311
0.486627
0.489336
0.50028
0.522994
0.558877
0.60547
0.656326
0.703621
0.741919
0.769844
0.788933
0.801682
0.810329
0.816482
0.821175
0.825031
0.828411
0.83152
0.834472
0.837331
0.840129
0.842885
0.845607
0.8483
0.850967
0.853608
0.856223
0.858813
0.861379
0.863919
0.866435
0.868927
0.871395
0.873841
0.876264
0.878665
0.881046
0.883408
0.88575
0.888073
0.890379
0.892668
0.894941
0.897199
0.899441
0.901669
0.903882
0.906082
0.908269
0.910442
0.912601
0.914748
0.916882
0.919003
0.92111
0.923204
0.925285
0.927351
0.929404
0.931442
0.933466
0.935474
0.937468
0.939445
0.941406
0.943351
0.945279
0.947189
0.949082
0.950957
0.952814
0.954652
0.956472
0.958273
0.960055
0.961818
0.963562
0.965287
0.966993
0.96868
0.970348
0.971998
0.97363
0.975243
0.976839
0.978418
0.97998
0.981526
0.983056
0.984571
0.986071
0.987556
0.98903
0.990497
0.991868
0.992174
0.992049
0.992002
0.992252
0.992612
0.993014
0.993425
0.99381
0.994134
0.994385
0.994583
0.994743
0.994854
0.994895
0.994868
0.994782
0.994634
0.99443
0.994162
0.99383
0.993442
0.992994
0.992494
0.991942
0.991326
0.990642
0.989888
0.989067
0.988189
0.987256
0.986259
0.985193
0.984059
0.982869
0.981626
0.980321
0.978961
0.977542
0.976046
0.974478
0.972856
0.971163
0.969391
0.967551
0.965651
0.963683
0.961655
0.959566
0.957406
0.955173
0.952873
0.950507
0.948064
0.945539
0.942932
0.940251
0.9375
0.934671
0.931768
0.928789
0.925723
0.922563
0.919309
0.915969
0.912548
0.909044
0.905451
0.901755
0.897948
0.894027
0.889997
0.885856
0.881595
0.877216
0.872712
0.868072
0.863293
0.858364
0.853268
0.847989
0.842518
0.836851
0.830983
0.824885
0.818522
0.811854
0.804825
0.797349
0.789306
0.78053
0.770759
0.759595
0.746462
0.73055
0.710802
0.686034
0.655304
0.618669
0.578227
0.539017
0.509713
0.487157
0.486938
0.486721
0.486506
0.486291
0.486079
0.485868
0.485659
0.485451
0.485245
0.48504
0.484837
0.484635
0.484434
0.484235
0.484038
0.483842
0.483647
0.483454
0.483262
0.483071
0.482881
0.482693
0.482507
0.482321
0.482137
0.481954
0.481772
0.481591
0.481412
0.481233
0.481056
0.480879
0.480704
0.480529
0.480356
0.480183
0.480011
0.47984
0.479669
0.479499
0.47933
0.479162
0.478994
0.478826
0.47866
0.478493
0.478327
0.478161
0.477996
0.47783
0.477664
0.477498
0.477331
0.477163
0.476994
0.476822
0.476649
0.476473
0.476294
0.476111
0.475923
0.475731
0.475533
0.475328
0.475117
0.474899
0.474672
0.474438
0.474194
0.473941
0.473679
0.473406
0.473124
0.472832
0.472529
0.472217
0.471895
0.471565
0.471227
0.47088
0.470521
0.470145
0.469748
0.469337
0.468937
0.468589
0.468339
0.468174
0.468037
0.467896
0.46775
0.467602
0.467451
0.467299
0.467145
0.466992
0.466838
0.466686
0.466536
0.466388
0.466243
0.466101
0.465963
0.465829
0.465699
0.465574
0.465453
0.465338
0.465228
0.465122
0.465023
0.464928
0.464838
0.464754
0.464674
0.464599
0.464529
0.464463
0.464402
0.464344
0.464291
0.464241
0.464194
0.46415
0.46411
0.464072
0.464037
0.464005
0.463975
0.463946
0.463919
0.463894
0.463869
0.463845
0.463822
0.463801
0.463783
0.463768
0.463755
0.463745
0.463732
0.463714
0.463685
0.463645
0.463597
0.463552
0.46353
0.46355
0.463624
0.463744
0.463867
0.463917
0.463798
0.463435
0.462833
0.462137
0.461659
0.461835
0.463071
0.465484
0.468616
0.471225
0.471382
0.467029
0.457114
0.443076
0.430038
0.426648
0.442979
0.486772
0.558083
0.644616
0.726271
0.788632
0.829405
0.853585
0.867228
0.87483
0.879153
0.881747
0.883444
0.884679
0.885678
0.886557
0.887375
0.888163
0.888936
0.889702
0.890466
0.891229
0.891993
0.892757
0.893523
0.89429
0.895059
0.895829
0.896601
0.897375
0.89815
0.898926
0.899704
0.900484
0.901265
0.902047
0.902831
0.903617
0.904403
0.905191
0.90598
0.90677
0.907561
0.908352
0.909145
0.909938
0.910732
0.911527
0.912321
0.913116
0.913911
0.914705
0.9155
0.916294
0.917087
0.917879
0.91867
0.91946
0.920249
0.921036
0.921821
0.922604
0.923384
0.924162
0.924938
0.92571
0.926479
0.927245
0.928006
0.928765
0.929518
0.930268
0.931013
0.931753
0.932488
0.933218
0.933943
0.934662
0.935375
0.936082
0.936783
0.937478
0.938166
0.938847
0.939522
0.940189
0.94085
0.941503
0.942149
0.942787
0.943417
0.94404
0.944654
0.945261
0.94586
0.94645
0.947032
0.947606
0.948172
0.948728
0.949277
0.949817
0.950348
0.95087
0.951384
0.951888
0.952384
0.952872
0.95335
0.953819
0.95428
0.954731
0.955174
0.955608
0.956033
0.956448
0.956856
0.957254
0.957643
0.958024
0.958396
0.958759
0.959114
0.95946
0.959798
0.960128
0.960449
0.960762
0.961066
0.961363
0.961652
0.961933
0.962206
0.962472
0.962731
0.962982
0.963227
0.963464
0.963695
0.963919
0.964137
0.964349
0.964555
0.964755
0.964949
0.965139
0.965323
0.965502
0.965677
0.965847
0.966013
0.966176
0.966334
0.96649
0.966642
0.966791
0.966938
0.967082
0.967225
0.967365
0.967504
0.967642
0.967779
0.967915
0.968051
0.968186
0.968322
0.968457
0.968594
0.968731
0.968869
0.969009
0.96915
0.969293
0.969438
0.969585
0.969734
0.969886
0.970041
0.970198
0.970359
0.970523
0.97069
0.970861
0.971035
0.971214
0.971396
0.971582
0.971772
0.971966
0.972165
0.972367
0.972574
0.972786
0.973001
0.973222
0.973446
0.973675
0.973909
0.974147
0.974389
0.974636
0.974887
0.975142
0.975402
0.975666
0.975934
0.976207
0.976483
0.976764
0.977048
0.977337
0.977629
0.977925
0.978225
0.978528
0.978835
0.979144
0.979449
0.979726
0.979915
0.979973
0.979929
0.979832
0.97971
0.979575
0.979436
0.979295
0.979156
0.979018
0.978882
0.978749
0.978618
0.97849
0.978365
0.978242
0.978122
0.978004
0.977888
0.977774
0.977663
0.977553
0.977446
0.97734
0.977237
0.977134
0.977034
0.976935
0.976838
0.976742
0.976648
0.976555
0.976463
0.976372
0.976283
0.976194
0.976107
0.97602
0.975935
0.97585
0.975766
0.975682
0.9756
0.975518
0.975436
0.975355
0.975275
0.975195
0.975115
0.975035
0.974956
0.974877
0.974798
0.97472
0.974641
0.974563
0.974484
0.974405
0.974327
0.974248
0.974169
0.97409
0.974011
0.973931
0.973851
0.973771
0.973691
0.97361
0.973528
0.973446
0.973364
0.973281
0.973198
0.973113
0.973029
0.972943
0.972857
0.97277
0.972683
0.972594
0.972505
0.972415
0.972324
0.972232
0.972139
0.972045
0.97195
0.971854
0.971757
0.971659
0.97156
0.97146
0.971358
0.971256
0.971152
0.971046
0.97094
0.970832
0.970723
0.970612
0.9705
0.970387
0.970272
0.970156
0.970038
0.969919
0.969798
0.969675
0.969551
0.969425
0.969298
0.969169
0.969038
0.968906
0.968772
0.968636
0.968498
0.968358
0.968217
0.968073
0.967928
0.967781
0.967632
0.967481
0.967329
0.967174
0.967017
0.966858
0.966697
0.966535
0.96637
0.966203
0.966034
0.965863
0.965689
0.965514
0.965337
0.965157
0.964975
0.964791
0.964605
0.964417
0.964227
0.964034
0.96384
0.963643
0.963444
0.963243
0.963039
0.962833
0.962626
0.962416
0.962203
0.961989
0.961773
0.961554
0.961333
0.96111
0.960885
0.960657
0.960428
0.960196
0.959963
0.959727
0.959489
0.959249
0.959007
0.958763
0.958517
0.958269
0.958019
0.957767
0.957513
0.957257
0.956999
0.95674
0.956478
0.956215
0.95595
0.955683
0.955415
0.955145
0.954873
0.954599
0.954324
0.954048
0.95377
0.95349
0.953209
0.952926
0.952642
0.952357
0.952071
0.951783
0.951494
0.951204
0.950912
0.95062
0.950327
0.950033
0.949737
0.949441
0.949144
0.948847
0.948549
0.94825
0.94795
0.94765
0.947349
0.947048
0.946747
0.946445
0.946143
0.945841
0.945539
0.945237
0.944935
0.944633
0.944331
0.944029
0.943728
0.943427
0.943126
0.942826
0.942526
0.942228
0.94193
0.941632
0.941336
0.94104
0.940746
0.940453
0.940161
0.93987
0.93958
0.939292
0.939006
0.938721
0.938438
0.938156
0.937876
0.937598
0.937323
0.937049
0.936777
0.936508
0.936241
0.935976
0.935714
0.935454
0.935197
0.934943
0.934691
0.934442
0.934196
0.933953
0.933713
0.933476
0.933243
0.933012
0.932785
0.932562
0.932342
0.932125
0.931912
0.931702
0.931496
0.931294
0.931096
0.930902
0.930711
0.930524
0.930342
0.930163
0.929988
0.929818
0.929651
0.929489
0.929331
0.929177
0.929028
0.928883
0.928742
0.928605
0.928473
0.928345
0.928221
0.928102
0.927987
0.927876
0.92777
0.927669
0.927571
0.927478
0.92739
0.927306
0.927226
0.92715
0.927079
0.927012
0.92695
0.926892
0.926838
0.926788
0.926742
0.926701
0.926664
0.926631
0.926602
0.926577
0.926556
0.926539
0.926527
0.926518
0.926512
0.926511
0.926514
0.92652
0.92653
0.926544
0.926561
0.926582
0.926607
0.926635
0.926666
0.926701
0.926739
0.926781
0.926825
0.926873
0.926924
0.926979
0.927036
0.927096
0.927159
0.927225
0.927294
0.927366
0.927441
0.927518
0.927598
0.92768
0.927765
0.927853
0.927942
0.928035
0.928129
0.928226
0.928326
0.928427
0.928531
0.928636
0.928744
0.928854
0.928966
0.929079
0.929195
0.929312
0.929432
0.929553
0.929675
0.9298
0.929926
0.930053
0.930182
0.930313
0.930445
0.930579
0.930714
0.93085
0.930988
0.931126
0.931267
0.931408
0.93155
0.931694
0.931839
0.931985
0.932132
0.93228
0.932429
0.932579
0.93273
0.932882
0.933034
0.933188
0.933342
0.933497
0.933653
0.93381
0.933968
0.934126
0.934285
0.934444
0.934604
0.934765
0.934927
0.935089
0.935251
0.935414
0.935578
0.935742
0.935907
0.936072
0.936237
0.936404
0.93657
0.936737
0.936904
0.937072
0.93724
0.937409
0.937577
0.937747
0.937916
0.938086
0.938256
0.938426
0.938597
0.938768
0.938939
0.939111
0.939283
0.939455
0.939627
0.939799
0.939972
0.940145
0.940318
0.940491
0.940665
0.940839
0.941012
0.941186
0.941361
0.941535
0.94171
0.941884
0.942059
0.942234
0.942409
0.942584
0.94276
0.942935
0.943111
0.943287
0.943463
0.943639
0.943815
0.943991
0.944167
0.944344
0.94452
0.944697
0.944873
0.94505
0.945227
0.945404
0.945581
0.945758
0.945935
0.946112
0.94629
0.946467
0.946644
0.946822
0.947
0.947177
0.947355
0.947532
0.94771
0.947888
0.948066
0.948244
0.948422
0.9486
0.948778
0.948956
0.949134
0.949312
0.94949
0.949668
0.949846
0.950024
0.950203
0.950381
0.950559
0.950737
0.950915
0.951094
0.951272
0.95145
0.951628
0.951806
0.951984
0.952163
0.952341
0.952519
0.952697
0.952875
0.953053
0.953231
0.953409
0.953587
0.953765
0.953942
0.95412
0.954298
0.954476
0.954653
0.954831
0.955008
0.955185
0.955363
0.95554
0.955717
0.955894
0.956071
0.956248
0.956424
0.956601
0.956778
0.956954
0.95713
0.957306
0.957482
0.957658
0.957834
0.95801
0.958185
0.958361
0.958536
0.958711
0.958886
0.95906
0.959235
0.959409
0.959583
0.959757
0.959931
0.960105
0.960278
0.960452
0.960625
0.960797
0.96097
0.961142
0.961314
0.961486
0.961658
0.96183
0.962001
0.962172
0.962342
0.962513
0.962683
0.962853
0.963023
0.963192
0.963361
0.96353
0.963699
0.963867
0.964035
0.964202
0.96437
0.964537
0.964703
0.96487
0.965036
0.965201
0.965367
0.965532
0.965696
0.965861
0.966025
0.966188
0.966352
0.966514
0.966677
0.966839
0.967001
0.967162
0.967323
0.967484
0.967644
0.967803
0.967963
0.968122
0.96828
0.968438
0.968596
0.968753
0.96891
0.969066
0.969222
0.969377
0.969532
0.969687
0.969841
0.969994
0.970148
0.9703
0.970452
0.970604
0.970755
0.970906
0.971056
0.971206
0.971355
0.971504
0.971652
0.9718
0.971947
0.972094
0.97224
0.972386
0.972531
0.972676
0.97282
0.972964
0.973107
0.97325
0.973392
0.973533
0.973674
0.973815
0.973955
0.974094
0.974233
0.974371
0.974509
0.974646
0.974783
0.974919
0.975054
0.975189
0.975324
0.975458
0.975591
0.975724
0.975856
0.975988
0.976119
0.97625
0.97638
0.97651
0.976639
0.976767
0.976895
0.977023
0.977149
0.977276
0.977401
0.977527
0.977651
0.977776
0.977899
0.978022
0.978145
0.978267
0.978388
0.978509
0.97863
0.97875
0.978869
0.978988
0.979106
0.979224
0.979342
0.979458
0.979575
0.979691
0.979806
0.979921
0.980035
0.980149
0.980263
0.980376
0.980488
0.9806
0.980712
0.980823
0.980933
0.981044
0.981153
0.981263
0.981371
0.98148
0.981588
0.981695
0.981802
0.981909
0.982015
0.982121
0.982227
0.982332
0.982436
0.982541
0.982645
0.982748
0.982851
0.982954
0.983056
0.983158
0.98326
0.983361
0.983462
0.983562
0.983662
0.983762
0.983861
0.98396
0.984058
0.984156
0.984254
0.984351
0.984448
0.984545
0.984641
0.984736
0.984832
0.984926
0.985021
0.985114
0.985208
0.9853
0.985393
0.985484
0.985575
0.985666
0.985756
0.985845
0.985933
0.986021
0.986108
0.986195
0.98628
0.986365
0.986449
0.986532
0.986613
0.986694
0.986774
0.986853
0.986931
0.987008
0.987083
0.987157
0.98723
0.987302
0.987372
0.987441
0.987509
0.987575
0.98764
0.987703
0.987764
0.987824
0.987883
0.98794
0.987995
0.988048
0.9881
0.98815
0.988199
0.988245
0.98829
0.988333
0.988375
0.988415
0.988453
0.98849
0.988525
0.988558
0.98859
0.98862
0.988648
0.988676
0.988701
0.988726
0.988748
0.98877
0.98879
0.98881
0.988828
0.988844
0.98886
0.988875
0.988889
0.988902
0.988914
0.988926
0.988937
0.988947
0.988957
0.988966
0.988975
0.988983
0.988991
0.988999
0.989007
0.989014
0.989021
0.989028
0.989036
0.989043
0.98905
0.989057
0.989065
0.989072
0.98908
0.989088
0.989096
0.989104
0.989113
0.989122
0.989131
0.98914
0.989149
0.989158
0.989168
0.989177
0.989186
0.989196
0.989205
0.989213
0.989222
0.989229
0.989237
0.989243
0.989248
0.989252
0.989254
0.989255
0.989254
0.98925
0.989244
0.989235
0.989223
0.989207
0.989186
0.989161
0.989131
0.989096
0.989054
0.989006
0.98895
0.988886
0.988814
0.988732
0.988641
0.988538
0.988424
0.988298
0.988158
0.988005
0.987837
0.987653
0.987453
0.987236
0.987
0.986745
0.986469
0.986173
0.985854
0.985513
0.985147
0.984757
0.98434
0.983896
0.983424
0.982922
0.98239
0.981826
0.98123
0.980599
0.979934
0.979232
0.978492
0.977714
0.976896
0.976037
0.975135
0.97419
0.973201
0.972167
0.971086
0.969959
0.968783
0.967559
0.966287
0.964966
0.963595
0.962176
0.960708
0.959192
0.957629
0.956019
0.954365
0.952668
0.95093
0.949154
0.947342
0.945497
0.943625
0.941728
0.939811
0.937881
0.935944
0.934005
0.932073
0.930155
0.928261
0.926401
0.924584
0.922822
0.921127
0.919511
0.917987
0.916568
0.915266
0.914094
0.913064
0.912185
0.911466
0.910913
0.910529
0.910314
0.910264
0.910369
0.910606
0.91093
0.911235
)
;

boundaryField
{
    inlet
    {
        type            criticalFlowDepthInlet;
        criticalH       0.38;
        value           uniform 1.04303;
    }
    outlet
    {
        type            zeroGradient;
    }
    right
    {
        type            empty;
    }
    left
    {
        type            empty;
    }
    atmosphere
    {
        type            empty;
    }
    bottomWall
    {
        type            empty;
    }
}


// ************************************************************************* //
