/*--------------------------------*- C++ -*----------------------------------*\
| =========                 |                                                 |
| \\      /  F ield         | foam-extend: Open Source CFD                    |
|  \\    /   O peration     | Version:     3.1                                |
|   \\  /    A nd           | Web:         http://www.extend-project.de       |
|    \\/     M anipulation  |                                                 |
\*---------------------------------------------------------------------------*/
FoamFile
{
    version     2.0;
    format      ascii;
    class       volVectorField;
    location    "4";
    object      HU;
}
// * * * * * * * * * * * * * * * * * * * * * * * * * * * * * * * * * * * * * //

dimensions      [0 2 -1 0 0 0 0];

internalField   nonuniform List<vector> 
2539
(
(0.625244 0 0)
(0.625881 0 0)
(0.626711 0 0)
(0.627509 0 0)
(0.628314 0 0)
(0.629119 0 0)
(0.629925 0 0)
(0.630732 0 0)
(0.631541 0 0)
(0.632351 0 0)
(0.633162 0 0)
(0.633974 0 0)
(0.634788 0 0)
(0.635603 0 0)
(0.63642 0 0)
(0.637238 0 0)
(0.638057 0 0)
(0.638878 0 0)
(0.6397 0 0)
(0.640524 0 0)
(0.641349 0 0)
(0.642176 0 0)
(0.643004 0 0)
(0.643833 0 0)
(0.644664 0 0)
(0.645497 0 0)
(0.646331 0 0)
(0.647167 0 0)
(0.648004 0 0)
(0.648842 0 0)
(0.649683 0 0)
(0.650524 0 0)
(0.651367 0 0)
(0.652212 0 0)
(0.653058 0 0)
(0.653906 0 0)
(0.654755 0 0)
(0.655605 0 0)
(0.656457 0 0)
(0.657311 0 0)
(0.658166 0 0)
(0.659022 0 0)
(0.65988 0 0)
(0.660739 0 0)
(0.6616 0 0)
(0.662462 0 0)
(0.663326 0 0)
(0.664191 0 0)
(0.665057 0 0)
(0.665925 0 0)
(0.666794 0 0)
(0.667665 0 0)
(0.668536 0 0)
(0.66941 0 0)
(0.670284 0 0)
(0.67116 0 0)
(0.672037 0 0)
(0.672916 0 0)
(0.673796 0 0)
(0.674677 0 0)
(0.675559 0 0)
(0.676443 0 0)
(0.677328 0 0)
(0.678214 0 0)
(0.679101 0 0)
(0.67999 0 0)
(0.68088 0 0)
(0.681771 0 0)
(0.682663 0 0)
(0.683557 0 0)
(0.684451 0 0)
(0.685347 0 0)
(0.686244 0 0)
(0.687142 0 0)
(0.688041 0 0)
(0.688942 0 0)
(0.689843 0 0)
(0.690746 0 0)
(0.691649 0 0)
(0.692554 0 0)
(0.69346 0 0)
(0.694367 0 0)
(0.695275 0 0)
(0.696184 0 0)
(0.697093 0 0)
(0.698004 0 0)
(0.698916 0 0)
(0.699829 0 0)
(0.700743 0 0)
(0.701658 0 0)
(0.702573 0 0)
(0.70349 0 0)
(0.704407 0 0)
(0.705326 0 0)
(0.706245 0 0)
(0.707165 0 0)
(0.708086 0 0)
(0.709008 0 0)
(0.70993 0 0)
(0.710853 0 0)
(0.711777 0 0)
(0.712702 0 0)
(0.713628 0 0)
(0.714554 0 0)
(0.715481 0 0)
(0.716408 0 0)
(0.717336 0 0)
(0.718265 0 0)
(0.719195 0 0)
(0.720125 0 0)
(0.721055 0 0)
(0.721986 0 0)
(0.722918 0 0)
(0.72385 0 0)
(0.724783 0 0)
(0.725716 0 0)
(0.72665 0 0)
(0.727584 0 0)
(0.728519 0 0)
(0.729453 0 0)
(0.730389 0 0)
(0.731324 0 0)
(0.73226 0 0)
(0.733197 0 0)
(0.734133 0 0)
(0.73507 0 0)
(0.736007 0 0)
(0.736945 0 0)
(0.737882 0 0)
(0.73882 0 0)
(0.739758 0 0)
(0.740696 0 0)
(0.741635 0 0)
(0.742573 0 0)
(0.743512 0 0)
(0.74445 0 0)
(0.745389 0 0)
(0.746328 0 0)
(0.747266 0 0)
(0.748205 0 0)
(0.749144 0 0)
(0.750083 0 0)
(0.751021 0 0)
(0.75196 0 0)
(0.752899 0 0)
(0.753837 0 0)
(0.754775 0 0)
(0.755714 0 0)
(0.756652 0 0)
(0.75759 0 0)
(0.758527 0 0)
(0.759465 0 0)
(0.760402 0 0)
(0.761339 0 0)
(0.762276 0 0)
(0.763213 0 0)
(0.764149 0 0)
(0.765085 0 0)
(0.766021 0 0)
(0.766957 0 0)
(0.767892 0 0)
(0.768826 0 0)
(0.769761 0 0)
(0.770695 0 0)
(0.771629 0 0)
(0.772562 0 0)
(0.773495 0 0)
(0.774427 0 0)
(0.775359 0 0)
(0.776291 0 0)
(0.777222 0 0)
(0.778153 0 0)
(0.779083 0 0)
(0.780013 0 0)
(0.780942 0 0)
(0.781871 0 0)
(0.782799 0 0)
(0.783727 0 0)
(0.784654 0 0)
(0.78558 0 0)
(0.786506 0 0)
(0.787432 0 0)
(0.788357 0 0)
(0.789281 0 0)
(0.789952 0 0)
(0.79096 0 0)
(0.792356 0 0)
(0.793292 0 0)
(0.794214 0 0)
(0.795135 0 0)
(0.796055 0 0)
(0.796974 0 0)
(0.797893 0 0)
(0.79881 0 0)
(0.799727 0 0)
(0.800643 0 0)
(0.801558 0 0)
(0.802473 0 0)
(0.803386 0 0)
(0.804299 0 0)
(0.80521 0 0)
(0.806121 0 0)
(0.807031 0 0)
(0.807941 0 0)
(0.808849 0 0)
(0.809756 0 0)
(0.810663 0 0)
(0.811568 0 0)
(0.812473 0 0)
(0.813377 0 0)
(0.81428 0 0)
(0.815182 0 0)
(0.816083 0 0)
(0.816983 0 0)
(0.817882 0 0)
(0.81878 0 0)
(0.819677 0 0)
(0.820574 0 0)
(0.821469 0 0)
(0.822363 0 0)
(0.823257 0 0)
(0.824149 0 0)
(0.825041 0 0)
(0.825931 0 0)
(0.826821 0 0)
(0.827709 0 0)
(0.828597 0 0)
(0.829483 0 0)
(0.830369 0 0)
(0.831253 0 0)
(0.832136 0 0)
(0.833019 0 0)
(0.8339 0 0)
(0.83478 0 0)
(0.83566 0 0)
(0.836538 0 0)
(0.837415 0 0)
(0.838291 0 0)
(0.839166 0 0)
(0.84004 0 0)
(0.840913 0 0)
(0.841785 0 0)
(0.842655 0 0)
(0.843525 0 0)
(0.844394 0 0)
(0.845261 0 0)
(0.846127 0 0)
(0.846993 0 0)
(0.847857 0 0)
(0.84872 0 0)
(0.849581 0 0)
(0.850442 0 0)
(0.851302 0 0)
(0.85216 0 0)
(0.853017 0 0)
(0.853873 0 0)
(0.854728 0 0)
(0.855582 0 0)
(0.856435 0 0)
(0.857286 0 0)
(0.858137 0 0)
(0.858986 0 0)
(0.859834 0 0)
(0.860681 0 0)
(0.861526 0 0)
(0.862371 0 0)
(0.863214 0 0)
(0.864056 0 0)
(0.864897 0 0)
(0.865736 0 0)
(0.866575 0 0)
(0.867412 0 0)
(0.868248 0 0)
(0.869083 0 0)
(0.869917 0 0)
(0.870749 0 0)
(0.87158 0 0)
(0.87241 0 0)
(0.873239 0 0)
(0.874066 0 0)
(0.874893 0 0)
(0.875718 0 0)
(0.876541 0 0)
(0.877364 0 0)
(0.878185 0 0)
(0.879005 0 0)
(0.879824 0 0)
(0.880642 0 0)
(0.881458 0 0)
(0.882273 0 0)
(0.883087 0 0)
(0.883899 0 0)
(0.884711 0 0)
(0.885521 0 0)
(0.886329 0 0)
(0.887137 0 0)
(0.887943 0 0)
(0.888748 0 0)
(0.889552 0 0)
(0.890354 0 0)
(0.891155 0 0)
(0.891955 0 0)
(0.892753 0 0)
(0.89355 0 0)
(0.894346 0 0)
(0.895141 0 0)
(0.895934 0 0)
(0.896726 0 0)
(0.897516 0 0)
(0.898305 0 0)
(0.899093 0 0)
(0.89988 0 0)
(0.900665 0 0)
(0.901449 0 0)
(0.902232 0 0)
(0.903013 0 0)
(0.903793 0 0)
(0.904572 0 0)
(0.905349 0 0)
(0.906125 0 0)
(0.9069 0 0)
(0.907673 0 0)
(0.908445 0 0)
(0.909216 0 0)
(0.909985 0 0)
(0.910753 0 0)
(0.91152 0 0)
(0.912286 0 0)
(0.91305 0 0)
(0.913812 0 0)
(0.914574 0 0)
(0.915334 0 0)
(0.916093 0 0)
(0.91685 0 0)
(0.917607 0 0)
(0.918362 0 0)
(0.919115 0 0)
(0.919868 0 0)
(0.920619 0 0)
(0.921369 0 0)
(0.922117 0 0)
(0.922865 0 0)
(0.923611 0 0)
(0.924356 0 0)
(0.925099 0 0)
(0.925842 0 0)
(0.926583 0 0)
(0.927323 0 0)
(0.928061 0 0)
(0.928799 0 0)
(0.929535 0 0)
(0.930271 0 0)
(0.931005 0 0)
(0.931737 0 0)
(0.932469 0 0)
(0.9332 0 0)
(0.933929 0 0)
(0.934657 0 0)
(0.935385 0 0)
(0.936111 0 0)
(0.936836 0 0)
(0.937559 0 0)
(0.938282 0 0)
(0.939004 0 0)
(0.939725 0 0)
(0.940444 0 0)
(0.941163 0 0)
(0.94188 0 0)
(0.942597 0 0)
(0.943312 0 0)
(0.944027 0 0)
(0.94474 0 0)
(0.945453 0 0)
(0.946165 0 0)
(0.946875 0 0)
(0.947585 0 0)
(0.948293 0 0)
(0.949001 0 0)
(0.949708 0 0)
(0.950414 0 0)
(0.951119 0 0)
(0.951823 0 0)
(0.952526 0 0)
(0.953219 0 0)
(0.953727 0 0)
(0.924335 0 0)
(0.931983 0 0)
(0.940093 0 0)
(0.94544 0 0)
(0.948501 0 0)
(0.950352 0 0)
(0.951546 0 0)
(0.95237 0 0)
(0.952978 0 0)
(0.953456 0 0)
(0.953852 0 0)
(0.954196 0 0)
(0.954504 0 0)
(0.954787 0 0)
(0.955052 0 0)
(0.955304 0 0)
(0.955545 0 0)
(0.955778 0 0)
(0.956005 0 0)
(0.956225 0 0)
(0.956441 0 0)
(0.956652 0 0)
(0.95686 0 0)
(0.957065 0 0)
(0.957267 0 0)
(0.957467 0 0)
(0.957664 0 0)
(0.95786 0 0)
(0.958053 0 0)
(0.958245 0 0)
(0.958435 0 0)
(0.958624 0 0)
(0.958811 0 0)
(0.958998 0 0)
(0.959183 0 0)
(0.959367 0 0)
(0.959549 0 0)
(0.959731 0 0)
(0.959912 0 0)
(0.960092 0 0)
(0.960272 0 0)
(0.96045 0 0)
(0.960628 0 0)
(0.960805 0 0)
(0.960981 0 0)
(0.961157 0 0)
(0.961332 0 0)
(0.961506 0 0)
(0.96168 0 0)
(0.961853 0 0)
(0.962025 0 0)
(0.962197 0 0)
(0.962368 0 0)
(0.962539 0 0)
(0.962709 0 0)
(0.962878 0 0)
(0.963047 0 0)
(0.963216 0 0)
(0.963383 0 0)
(0.963551 0 0)
(0.963717 0 0)
(0.963883 0 0)
(0.964048 0 0)
(0.964213 0 0)
(0.964377 0 0)
(0.964541 0 0)
(0.964704 0 0)
(0.964866 0 0)
(0.965027 0 0)
(0.965187 0 0)
(0.965347 0 0)
(0.965506 0 0)
(0.965664 0 0)
(0.96582 0 0)
(0.965976 0 0)
(0.96613 0 0)
(0.966283 0 0)
(0.966435 0 0)
(0.966585 0 0)
(0.966733 0 0)
(0.966878 0 0)
(0.967022 0 0)
(0.967162 0 0)
(0.967299 0 0)
(0.967432 0 0)
(0.96756 0 0)
(0.967682 0 0)
(0.967798 0 0)
(0.967905 0 0)
(0.968002 0 0)
(0.968088 0 0)
(0.96816 0 0)
(0.968216 0 0)
(0.968255 0 0)
(0.968275 0 0)
(0.968278 0 0)
(0.968267 0 0)
(0.968249 0 0)
(0.968239 0 0)
(0.968261 0 0)
(0.968503 0 0)
(0.969509 0 0)
(0.97049 0 0)
(0.971455 0 0)
(0.97241 0 0)
(0.973361 0 0)
(0.974312 0 0)
(0.975267 0 0)
(0.976229 0 0)
(0.977199 0 0)
(0.978181 0 0)
(0.979176 0 0)
(0.980185 0 0)
(0.98121 0 0)
(0.982252 0 0)
(0.983311 0 0)
(0.98439 0 0)
(0.985487 0 0)
(0.986605 0 0)
(0.987742 0 0)
(0.9889 0 0)
(0.990079 0 0)
(0.991278 0 0)
(0.992497 0 0)
(0.993736 0 0)
(0.994995 0 0)
(0.996274 0 0)
(0.997571 0 0)
(0.998887 0 0)
(1.00022 0 0)
(1.00157 0 0)
(1.00294 0 0)
(1.00432 0 0)
(1.00571 0 0)
(1.00712 0 0)
(1.00854 0 0)
(1.00998 0 0)
(1.01142 0 0)
(1.01288 0 0)
(1.01435 0 0)
(1.01582 0 0)
(1.01731 0 0)
(1.0188 0 0)
(1.0203 0 0)
(1.0218 0 0)
(1.02332 0 0)
(1.02484 0 0)
(1.02636 0 0)
(1.02789 0 0)
(1.02943 0 0)
(1.03097 0 0)
(1.03252 0 0)
(1.03407 0 0)
(1.03563 0 0)
(1.03719 0 0)
(1.03875 0 0)
(1.04032 0 0)
(1.0419 0 0)
(1.04348 0 0)
(1.04507 0 0)
(1.04666 0 0)
(1.04825 0 0)
(1.04985 0 0)
(1.05146 0 0)
(1.05307 0 0)
(1.05469 0 0)
(1.05631 0 0)
(1.05794 0 0)
(1.05958 0 0)
(1.06122 0 0)
(1.06287 0 0)
(1.06453 0 0)
(1.0662 0 0)
(1.06787 0 0)
(1.06956 0 0)
(1.07125 0 0)
(1.07295 0 0)
(1.07467 0 0)
(1.07639 0 0)
(1.07813 0 0)
(1.07987 0 0)
(1.08164 0 0)
(1.08341 0 0)
(1.0852 0 0)
(1.08701 0 0)
(1.08884 0 0)
(1.09068 0 0)
(1.09255 0 0)
(1.09444 0 0)
(1.09636 0 0)
(1.09831 0 0)
(1.1003 0 0)
(1.10232 0 0)
(1.10438 0 0)
(1.10649 0 0)
(1.10865 0 0)
(1.11086 0 0)
(1.11312 0 0)
(1.1154 0 0)
(1.11765 0 0)
(1.11972 0 0)
(1.12162 0 0)
(1.12346 0 0)
(1.12524 0 0)
(1.12695 0 0)
(1.1286 0 0)
(1.1302 0 0)
(1.13175 0 0)
(1.13325 0 0)
(1.13472 0 0)
(1.13615 0 0)
(1.13756 0 0)
(1.13894 0 0)
(1.1403 0 0)
(1.14165 0 0)
(1.14298 0 0)
(1.1443 0 0)
(1.14561 0 0)
(1.14691 0 0)
(1.1482 0 0)
(1.14949 0 0)
(1.15077 0 0)
(1.15205 0 0)
(1.15332 0 0)
(1.1546 0 0)
(1.15587 0 0)
(1.15713 0 0)
(1.1584 0 0)
(1.15966 0 0)
(1.16093 0 0)
(1.16219 0 0)
(1.16345 0 0)
(1.16471 0 0)
(1.16597 0 0)
(1.16723 0 0)
(1.16849 0 0)
(1.16975 0 0)
(1.17101 0 0)
(1.17227 0 0)
(1.17353 0 0)
(1.17479 0 0)
(1.17605 0 0)
(1.17731 0 0)
(1.17857 0 0)
(1.17983 0 0)
(1.18109 0 0)
(1.18235 0 0)
(1.18361 0 0)
(1.18487 0 0)
(1.18613 0 0)
(1.18739 0 0)
(1.18865 0 0)
(1.18991 0 0)
(1.19117 0 0)
(1.19244 0 0)
(1.1937 0 0)
(1.19496 0 0)
(1.19622 0 0)
(1.19748 0 0)
(1.19875 0 0)
(1.20001 0 0)
(1.20127 0 0)
(1.20253 0 0)
(1.2038 0 0)
(1.20506 0 0)
(1.20632 0 0)
(1.20759 0 0)
(1.20885 0 0)
(1.21011 0 0)
(1.21138 0 0)
(1.21264 0 0)
(1.21391 0 0)
(1.21517 0 0)
(1.21643 0 0)
(1.2177 0 0)
(1.21896 0 0)
(1.22023 0 0)
(1.22149 0 0)
(1.22276 0 0)
(1.22402 0 0)
(1.22529 0 0)
(1.22656 0 0)
(1.22782 0 0)
(1.22909 0 0)
(1.23035 0 0)
(1.23162 0 0)
(1.23289 0 0)
(1.23415 0 0)
(1.23542 0 0)
(1.23669 0 0)
(1.23796 0 0)
(1.23922 0 0)
(1.24049 0 0)
(1.24176 0 0)
(1.24302 0 0)
(1.24429 0 0)
(1.24556 0 0)
(1.24683 0 0)
(1.2481 0 0)
(1.24936 0 0)
(1.25063 0 0)
(1.2519 0 0)
(1.25317 0 0)
(1.25444 0 0)
(1.25571 0 0)
(1.25697 0 0)
(1.25824 0 0)
(1.25951 0 0)
(1.26078 0 0)
(1.26205 0 0)
(1.26332 0 0)
(1.26459 0 0)
(1.26586 0 0)
(1.26712 0 0)
(1.26839 0 0)
(1.26966 0 0)
(1.27093 0 0)
(1.2722 0 0)
(1.27347 0 0)
(1.27474 0 0)
(1.27601 0 0)
(1.27728 0 0)
(1.27855 0 0)
(1.27982 0 0)
(1.28109 0 0)
(1.28236 0 0)
(1.28363 0 0)
(1.2849 0 0)
(1.28617 0 0)
(1.28743 0 0)
(1.2887 0 0)
(1.28997 0 0)
(1.29124 0 0)
(1.29251 0 0)
(1.29378 0 0)
(1.29505 0 0)
(1.29632 0 0)
(1.29759 0 0)
(1.29886 0 0)
(1.30013 0 0)
(1.3014 0 0)
(1.30267 0 0)
(1.30393 0 0)
(1.3052 0 0)
(1.30647 0 0)
(1.30774 0 0)
(1.30901 0 0)
(1.31028 0 0)
(1.31155 0 0)
(1.31281 0 0)
(1.31408 0 0)
(1.31535 0 0)
(1.31662 0 0)
(1.31789 0 0)
(1.31916 0 0)
(1.32042 0 0)
(1.32169 0 0)
(1.32296 0 0)
(1.32423 0 0)
(1.32549 0 0)
(1.32676 0 0)
(1.32803 0 0)
(1.32929 0 0)
(1.33056 0 0)
(1.33183 0 0)
(1.33309 0 0)
(1.33436 0 0)
(1.33563 0 0)
(1.33689 0 0)
(1.33816 0 0)
(1.33942 0 0)
(1.34069 0 0)
(1.34196 0 0)
(1.34322 0 0)
(1.34449 0 0)
(1.34575 0 0)
(1.34702 0 0)
(1.34828 0 0)
(1.34954 0 0)
(1.35081 0 0)
(1.35207 0 0)
(1.35334 0 0)
(1.3546 0 0)
(1.35586 0 0)
(1.35713 0 0)
(1.35839 0 0)
(1.35965 0 0)
(1.36092 0 0)
(1.36218 0 0)
(1.36344 0 0)
(1.3647 0 0)
(1.36596 0 0)
(1.36723 0 0)
(1.36849 0 0)
(1.36975 0 0)
(1.37101 0 0)
(1.37227 0 0)
(1.37353 0 0)
(1.37479 0 0)
(1.37605 0 0)
(1.37731 0 0)
(1.37857 0 0)
(1.37983 0 0)
(1.38109 0 0)
(1.38235 0 0)
(1.38361 0 0)
(1.38487 0 0)
(1.38613 0 0)
(1.38738 0 0)
(1.38864 0 0)
(1.3899 0 0)
(1.39116 0 0)
(1.39242 0 0)
(1.39367 0 0)
(1.39493 0 0)
(1.39619 0 0)
(1.39744 0 0)
(1.3987 0 0)
(1.39995 0 0)
(1.40121 0 0)
(1.40247 0 0)
(1.40372 0 0)
(1.40498 0 0)
(1.40623 0 0)
(1.40749 0 0)
(1.40874 0 0)
(1.40999 0 0)
(1.41125 0 0)
(1.4125 0 0)
(1.41375 0 0)
(1.41501 0 0)
(1.41626 0 0)
(1.41751 0 0)
(1.41876 0 0)
(1.42002 0 0)
(1.42127 0 0)
(1.42252 0 0)
(1.42377 0 0)
(1.42502 0 0)
(1.42627 0 0)
(1.42752 0 0)
(1.42877 0 0)
(1.43002 0 0)
(1.43127 0 0)
(1.43252 0 0)
(1.43377 0 0)
(1.43502 0 0)
(1.43627 0 0)
(1.43751 0 0)
(1.43876 0 0)
(1.44001 0 0)
(1.44126 0 0)
(1.4425 0 0)
(1.44375 0 0)
(1.44499 0 0)
(1.44624 0 0)
(1.44749 0 0)
(1.44873 0 0)
(1.44998 0 0)
(1.45122 0 0)
(1.45247 0 0)
(1.45371 0 0)
(1.45495 0 0)
(1.4562 0 0)
(1.45744 0 0)
(1.45868 0 0)
(1.45992 0 0)
(1.46117 0 0)
(1.46241 0 0)
(1.46365 0 0)
(1.46489 0 0)
(1.46613 0 0)
(1.46737 0 0)
(1.46861 0 0)
(1.46985 0 0)
(1.47109 0 0)
(1.47233 0 0)
(1.47356 0 0)
(1.4748 0 0)
(1.47604 0 0)
(1.47728 0 0)
(1.47851 0 0)
(1.47975 0 0)
(1.48098 0 0)
(1.48222 0 0)
(1.48345 0 0)
(1.48469 0 0)
(1.48592 0 0)
(1.48715 0 0)
(1.48839 0 0)
(1.48962 0 0)
(1.49085 0 0)
(1.49208 0 0)
(1.49331 0 0)
(1.49455 0 0)
(1.49578 0 0)
(1.49701 0 0)
(1.49823 0 0)
(1.49946 0 0)
(1.50069 0 0)
(1.50192 0 0)
(1.50315 0 0)
(1.50437 0 0)
(1.5056 0 0)
(1.50682 0 0)
(1.50805 0 0)
(1.50927 0 0)
(1.5105 0 0)
(1.51172 0 0)
(1.51294 0 0)
(1.51417 0 0)
(1.51539 0 0)
(1.51661 0 0)
(1.51783 0 0)
(1.51905 0 0)
(1.52027 0 0)
(1.52149 0 0)
(1.52271 0 0)
(1.52392 0 0)
(1.52514 0 0)
(1.52636 0 0)
(1.52757 0 0)
(1.52879 0 0)
(1.53 0 0)
(1.53122 0 0)
(1.53243 0 0)
(1.53364 0 0)
(1.53485 0 0)
(1.53606 0 0)
(1.53727 0 0)
(1.53848 0 0)
(1.53969 0 0)
(1.5409 0 0)
(1.54211 0 0)
(1.54331 0 0)
(1.54452 0 0)
(1.54572 0 0)
(1.54693 0 0)
(1.54813 0 0)
(1.54934 0 0)
(1.55054 0 0)
(1.55175 0 0)
(1.55295 0 0)
(1.55416 0 0)
(1.55536 0 0)
(1.55655 0 0)
(1.55772 0 0)
(1.55886 0 0)
(1.55996 0 0)
(1.56104 0 0)
(1.56217 0 0)
(1.56336 0 0)
(1.56455 0 0)
(1.56573 0 0)
(1.56692 0 0)
(1.5681 0 0)
(1.56928 0 0)
(1.57046 0 0)
(1.57163 0 0)
(1.57281 0 0)
(1.57398 0 0)
(1.57515 0 0)
(1.57632 0 0)
(1.57748 0 0)
(1.57865 0 0)
(1.57981 0 0)
(1.58097 0 0)
(1.58213 0 0)
(1.58328 0 0)
(1.58444 0 0)
(1.58559 0 0)
(1.58674 0 0)
(1.58789 0 0)
(1.58904 0 0)
(1.59018 0 0)
(1.59132 0 0)
(1.59246 0 0)
(1.5936 0 0)
(1.59474 0 0)
(1.59587 0 0)
(1.59701 0 0)
(1.59814 0 0)
(1.59927 0 0)
(1.60039 0 0)
(1.60152 0 0)
(1.60264 0 0)
(1.60376 0 0)
(1.60488 0 0)
(1.606 0 0)
(1.60712 0 0)
(1.60823 0 0)
(1.60934 0 0)
(1.61045 0 0)
(1.61155 0 0)
(1.61266 0 0)
(1.61376 0 0)
(1.61486 0 0)
(1.61596 0 0)
(1.61706 0 0)
(1.61815 0 0)
(1.61924 0 0)
(1.62033 0 0)
(1.62142 0 0)
(1.6225 0 0)
(1.62358 0 0)
(1.62466 0 0)
(1.62574 0 0)
(1.62681 0 0)
(1.62788 0 0)
(1.62895 0 0)
(1.63002 0 0)
(1.63108 0 0)
(1.63214 0 0)
(1.6332 0 0)
(1.63426 0 0)
(1.63531 0 0)
(1.63636 0 0)
(1.6374 0 0)
(1.63844 0 0)
(1.63947 0 0)
(1.64049 0 0)
(1.64151 0 0)
(1.64254 0 0)
(1.64358 0 0)
(1.64467 0 0)
(1.64581 0 0)
(1.64699 0 0)
(1.64817 0 0)
(1.64923 0 0)
(1.64999 0 0)
(1.65023 0 0)
(1.64978 0 0)
(1.64876 0 0)
(1.64788 0 0)
(1.64874 0 0)
(1.65386 0 0)
(1.66589 0 0)
(1.68582 0 0)
(1.71081 0 0)
(1.73409 0 0)
(1.74846 0 0)
(1.75111 0 0)
(1.745 0 0)
(1.73557 0 0)
(1.72686 0 0)
(1.72045 0 0)
(1.71632 0 0)
(1.71389 0 0)
(1.71258 0 0)
(1.71194 0 0)
(1.7117 0 0)
(1.71167 0 0)
(1.71177 0 0)
(1.71193 0 0)
(1.71212 0 0)
(1.71233 0 0)
(1.71256 0 0)
(1.71278 0 0)
(1.71301 0 0)
(1.71325 0 0)
(1.71349 0 0)
(1.71373 0 0)
(1.71398 0 0)
(1.71423 0 0)
(1.71449 0 0)
(1.71476 0 0)
(1.71503 0 0)
(1.71531 0 0)
(1.7156 0 0)
(1.7159 0 0)
(1.7162 0 0)
(1.7165 0 0)
(1.71682 0 0)
(1.71714 0 0)
(1.71746 0 0)
(1.7178 0 0)
(1.71813 0 0)
(1.71847 0 0)
(1.71882 0 0)
(1.71917 0 0)
(1.71952 0 0)
(1.71988 0 0)
(1.72025 0 0)
(1.72062 0 0)
(1.72099 0 0)
(1.72137 0 0)
(1.72175 0 0)
(1.72214 0 0)
(1.72254 0 0)
(1.72294 0 0)
(1.72335 0 0)
(1.72377 0 0)
(1.72419 0 0)
(1.72463 0 0)
(1.72507 0 0)
(1.72552 0 0)
(1.72599 0 0)
(1.72647 0 0)
(1.72696 0 0)
(1.72746 0 0)
(1.72798 0 0)
(1.72851 0 0)
(1.72906 0 0)
(1.72962 0 0)
(1.7302 0 0)
(1.7308 0 0)
(1.73142 0 0)
(1.73205 0 0)
(1.73271 0 0)
(1.73338 0 0)
(1.73408 0 0)
(1.73479 0 0)
(1.73553 0 0)
(1.73628 0 0)
(1.73706 0 0)
(1.73786 0 0)
(1.73868 0 0)
(1.73952 0 0)
(1.74038 0 0)
(1.74126 0 0)
(1.74216 0 0)
(1.74308 0 0)
(1.74402 0 0)
(1.74498 0 0)
(1.74596 0 0)
(1.74695 0 0)
(1.74796 0 0)
(1.74899 0 0)
(1.75004 0 0)
(1.75094 0 0)
(1.75062 0 0)
(1.75089 0 0)
(1.75179 0 0)
(1.75245 0 0)
(1.75302 0 0)
(1.75357 0 0)
(1.75409 0 0)
(1.75458 0 0)
(1.75504 0 0)
(1.75551 0 0)
(1.75601 0 0)
(1.75652 0 0)
(1.75701 0 0)
(1.75748 0 0)
(1.75797 0 0)
(1.75846 0 0)
(1.75895 0 0)
(1.75946 0 0)
(1.75994 0 0)
(1.76044 0 0)
(1.76094 0 0)
(1.76144 0 0)
(1.76196 0 0)
(1.76246 0 0)
(1.76296 0 0)
(1.76346 0 0)
(1.76395 0 0)
(1.76446 0 0)
(1.76498 0 0)
(1.76548 0 0)
(1.76599 0 0)
(1.76649 0 0)
(1.76699 0 0)
(1.76751 0 0)
(1.76803 0 0)
(1.76854 0 0)
(1.76906 0 0)
(1.76956 0 0)
(1.77005 0 0)
(1.77057 0 0)
(1.77108 0 0)
(1.77157 0 0)
(1.77207 0 0)
(1.77259 0 0)
(1.77309 0 0)
(1.7736 0 0)
(1.77411 0 0)
(1.77462 0 0)
(1.77512 0 0)
(1.77561 0 0)
(1.77612 0 0)
(1.77662 0 0)
(1.77711 0 0)
(1.77759 0 0)
(1.77808 0 0)
(1.77858 0 0)
(1.77907 0 0)
(1.77956 0 0)
(1.78005 0 0)
(1.78053 0 0)
(1.781 0 0)
(1.78147 0 0)
(1.78193 0 0)
(1.78241 0 0)
(1.78288 0 0)
(1.78335 0 0)
(1.78381 0 0)
(1.78425 0 0)
(1.78468 0 0)
(1.78511 0 0)
(1.78555 0 0)
(1.78598 0 0)
(1.78639 0 0)
(1.78681 0 0)
(1.78721 0 0)
(1.78759 0 0)
(1.78798 0 0)
(1.78833 0 0)
(1.78867 0 0)
(1.78899 0 0)
(1.78929 0 0)
(1.78959 0 0)
(1.78986 0 0)
(1.79009 0 0)
(1.79026 0 0)
(1.79039 0 0)
(1.79041 0 0)
(1.79031 0 0)
(1.79003 0 0)
(1.78949 0 0)
(1.78853 0 0)
(1.78694 0 0)
(1.78443 0 0)
(1.78056 0 0)
(1.77488 0 0)
(1.76703 0 0)
(1.7572 0 0)
(1.74688 0 0)
(1.73982 0 0)
(1.74265 0 0)
(1.76592 0 0)
(1.80551 0 0)
(1.80639 0 0)
(1.80728 0 0)
(1.80816 0 0)
(1.80904 0 0)
(1.80992 0 0)
(1.81081 0 0)
(1.81169 0 0)
(1.81258 0 0)
(1.81346 0 0)
(1.81435 0 0)
(1.81524 0 0)
(1.81612 0 0)
(1.81701 0 0)
(1.8179 0 0)
(1.81879 0 0)
(1.81968 0 0)
(1.82057 0 0)
(1.82146 0 0)
(1.82235 0 0)
(1.82324 0 0)
(1.82413 0 0)
(1.82502 0 0)
(1.82591 0 0)
(1.82681 0 0)
(1.8277 0 0)
(1.82859 0 0)
(1.82949 0 0)
(1.83038 0 0)
(1.83127 0 0)
(1.83217 0 0)
(1.83306 0 0)
(1.83396 0 0)
(1.83485 0 0)
(1.83574 0 0)
(1.83664 0 0)
(1.83753 0 0)
(1.83843 0 0)
(1.83932 0 0)
(1.84021 0 0)
(1.84111 0 0)
(1.842 0 0)
(1.84289 0 0)
(1.84378 0 0)
(1.84467 0 0)
(1.84556 0 0)
(1.84645 0 0)
(1.84734 0 0)
(1.84822 0 0)
(1.84911 0 0)
(1.84999 0 0)
(1.85087 0 0)
(1.85175 0 0)
(1.85262 0 0)
(1.85349 0 0)
(1.85435 0 0)
(1.85521 0 0)
(1.85606 0 0)
(1.85691 0 0)
(1.85774 0 0)
(1.85857 0 0)
(1.85939 0 0)
(1.86019 0 0)
(1.86098 0 0)
(1.86176 0 0)
(1.86252 0 0)
(1.86326 0 0)
(1.86399 0 0)
(1.8647 0 0)
(1.86539 0 0)
(1.86607 0 0)
(1.86672 0 0)
(1.86735 0 0)
(1.86796 0 0)
(1.86855 0 0)
(1.86912 0 0)
(1.86967 0 0)
(1.87021 0 0)
(1.87072 0 0)
(1.87121 0 0)
(1.87168 0 0)
(1.87213 0 0)
(1.87254 0 0)
(1.87294 0 0)
(1.87335 0 0)
(1.87381 0 0)
(1.87436 0 0)
(1.87497 0 0)
(1.87546 0 0)
(1.87581 0 0)
(1.87616 0 0)
(1.8765 0 0)
(1.87683 0 0)
(1.87716 0 0)
(1.87749 0 0)
(1.87782 0 0)
(1.87814 0 0)
(1.87848 0 0)
(1.87881 0 0)
(1.87915 0 0)
(1.87949 0 0)
(1.87983 0 0)
(1.88019 0 0)
(1.88055 0 0)
(1.88092 0 0)
(1.8813 0 0)
(1.88168 0 0)
(1.88208 0 0)
(1.88248 0 0)
(1.8829 0 0)
(1.88332 0 0)
(1.88375 0 0)
(1.88419 0 0)
(1.88464 0 0)
(1.8851 0 0)
(1.88557 0 0)
(1.88605 0 0)
(1.88653 0 0)
(1.88703 0 0)
(1.88753 0 0)
(1.88803 0 0)
(1.88855 0 0)
(1.88907 0 0)
(1.88959 0 0)
(1.89013 0 0)
(1.89066 0 0)
(1.8912 0 0)
(1.89175 0 0)
(1.8923 0 0)
(1.89285 0 0)
(1.89341 0 0)
(1.89396 0 0)
(1.89452 0 0)
(1.89508 0 0)
(1.89565 0 0)
(1.89621 0 0)
(1.89678 0 0)
(1.89736 0 0)
(1.89794 0 0)
(1.89851 0 0)
(1.89909 0 0)
(1.89966 0 0)
(1.90021 0 0)
(1.90075 0 0)
(1.90128 0 0)
(1.90181 0 0)
(1.90239 0 0)
(1.90302 0 0)
(1.90372 0 0)
(1.90447 0 0)
(1.90521 0 0)
(1.90582 0 0)
(1.90618 0 0)
(1.90623 0 0)
(1.90598 0 0)
(1.90569 0 0)
(1.9058 0 0)
(1.90689 0 0)
(1.90943 0 0)
(1.91341 0 0)
(1.91799 0 0)
(1.92134 0 0)
(1.92093 0 0)
(1.91435 0 0)
(1.90068 0 0)
(1.88224 0 0)
(1.86655 0 0)
(1.86686 0 0)
(1.89795 0 0)
(1.96519 0 0)
(2.05354 0 0)
(2.13235 0 0)
(2.17862 0 0)
(2.19332 0 0)
(2.19165 0 0)
(2.18609 0 0)
(2.18172 0 0)
(2.17934 0 0)
(2.17843 0 0)
(2.17843 0 0)
(2.17893 0 0)
(2.17969 0 0)
(2.18059 0 0)
(2.18156 0 0)
(2.18257 0 0)
(2.18358 0 0)
(2.18461 0 0)
(2.18563 0 0)
(2.18665 0 0)
(2.18766 0 0)
(2.18867 0 0)
(2.18968 0 0)
(2.19068 0 0)
(2.19167 0 0)
(2.19265 0 0)
(2.19363 0 0)
(2.1946 0 0)
(2.19557 0 0)
(2.19653 0 0)
(2.19747 0 0)
(2.19842 0 0)
(2.19935 0 0)
(2.20027 0 0)
(2.20119 0 0)
(2.2021 0 0)
(2.20299 0 0)
(2.20388 0 0)
(2.20476 0 0)
(2.20563 0 0)
(2.20649 0 0)
(2.20734 0 0)
(2.20817 0 0)
(2.209 0 0)
(2.20981 0 0)
(2.21062 0 0)
(2.21141 0 0)
(2.21219 0 0)
(2.21295 0 0)
(2.21371 0 0)
(2.21445 0 0)
(2.21517 0 0)
(2.21589 0 0)
(2.21659 0 0)
(2.21727 0 0)
(2.21794 0 0)
(2.2186 0 0)
(2.21924 0 0)
(2.21986 0 0)
(2.22047 0 0)
(2.22106 0 0)
(2.22164 0 0)
(2.2222 0 0)
(2.22274 0 0)
(2.22327 0 0)
(2.22378 0 0)
(2.22426 0 0)
(2.22473 0 0)
(2.22519 0 0)
(2.22562 0 0)
(2.22603 0 0)
(2.22642 0 0)
(2.2268 0 0)
(2.22715 0 0)
(2.22748 0 0)
(2.22779 0 0)
(2.22808 0 0)
(2.22834 0 0)
(2.22858 0 0)
(2.2288 0 0)
(2.229 0 0)
(2.22917 0 0)
(2.22932 0 0)
(2.22944 0 0)
(2.22954 0 0)
(2.22961 0 0)
(2.22966 0 0)
(2.22968 0 0)
(2.22967 0 0)
(2.22964 0 0)
(2.22958 0 0)
(2.22949 0 0)
(2.22937 0 0)
(2.22922 0 0)
(2.22904 0 0)
(2.22884 0 0)
(2.2286 0 0)
(2.22833 0 0)
(2.22804 0 0)
(2.22771 0 0)
(2.22734 0 0)
(2.22695 0 0)
(2.22653 0 0)
(2.22607 0 0)
(2.22558 0 0)
(2.22506 0 0)
(2.2245 0 0)
(2.22391 0 0)
(2.22328 0 0)
(2.22263 0 0)
(2.22193 0 0)
(2.22121 0 0)
(2.22045 0 0)
(2.21965 0 0)
(2.21882 0 0)
(2.21796 0 0)
(2.21706 0 0)
(2.21612 0 0)
(2.21515 0 0)
(2.21415 0 0)
(2.21311 0 0)
(2.21204 0 0)
(2.21094 0 0)
(2.2098 0 0)
(2.20862 0 0)
(2.20742 0 0)
(2.20618 0 0)
(2.2049 0 0)
(2.2036 0 0)
(2.20226 0 0)
(2.20089 0 0)
(2.1995 0 0)
(2.19807 0 0)
(2.19661 0 0)
(2.19512 0 0)
(2.1936 0 0)
(2.19206 0 0)
(2.19049 0 0)
(2.18889 0 0)
(2.18727 0 0)
(2.18562 0 0)
(2.18395 0 0)
(2.18225 0 0)
(2.18054 0 0)
(2.1788 0 0)
(2.17704 0 0)
(2.17526 0 0)
(2.17347 0 0)
(2.17165 0 0)
(2.16982 0 0)
(2.16798 0 0)
(2.16612 0 0)
(2.16425 0 0)
(2.16237 0 0)
(2.16047 0 0)
(2.15857 0 0)
(2.15666 0 0)
(2.15474 0 0)
(2.15282 0 0)
(2.15089 0 0)
(2.14896 0 0)
(2.14703 0 0)
(2.14509 0 0)
(2.14316 0 0)
(2.14122 0 0)
(2.13929 0 0)
(2.13736 0 0)
(2.13544 0 0)
(2.13352 0 0)
(2.1316 0 0)
(2.1297 0 0)
(2.1278 0 0)
(2.12592 0 0)
(2.12404 0 0)
(2.12218 0 0)
(2.12033 0 0)
(2.11849 0 0)
(2.11666 0 0)
(2.11485 0 0)
(2.11306 0 0)
(2.11128 0 0)
(2.10953 0 0)
(2.10778 0 0)
(2.10606 0 0)
(2.10436 0 0)
(2.10268 0 0)
(2.10101 0 0)
(2.09937 0 0)
(2.09775 0 0)
(2.09615 0 0)
(2.09458 0 0)
(2.09302 0 0)
(2.09149 0 0)
(2.08998 0 0)
(2.0885 0 0)
(2.08704 0 0)
(2.0856 0 0)
(2.08419 0 0)
(2.0828 0 0)
(2.08143 0 0)
(2.08009 0 0)
(2.07877 0 0)
(2.07748 0 0)
(2.07621 0 0)
(2.07497 0 0)
(2.07375 0 0)
(2.07255 0 0)
(2.07138 0 0)
(2.07023 0 0)
(2.0691 0 0)
(2.068 0 0)
(2.06692 0 0)
(2.06586 0 0)
(2.06482 0 0)
(2.06381 0 0)
(2.06281 0 0)
(2.06184 0 0)
(2.06088 0 0)
(2.05994 0 0)
(2.05898 0 0)
(2.05795 0 0)
(2.05693 0 0)
(2.056 0 0)
(2.05513 0 0)
(2.05429 0 0)
(2.05348 0 0)
(2.05269 0 0)
(2.05193 0 0)
(2.05118 0 0)
(2.05045 0 0)
(2.04973 0 0)
(2.04903 0 0)
(2.04835 0 0)
(2.04768 0 0)
(2.04702 0 0)
(2.04638 0 0)
(2.04575 0 0)
(2.04514 0 0)
(2.04453 0 0)
(2.04394 0 0)
(2.04336 0 0)
(2.04279 0 0)
(2.04223 0 0)
(2.04168 0 0)
(2.04114 0 0)
(2.04061 0 0)
(2.04009 0 0)
(2.03958 0 0)
(2.03908 0 0)
(2.03858 0 0)
(2.03809 0 0)
(2.03761 0 0)
(2.03714 0 0)
(2.03667 0 0)
(2.03621 0 0)
(2.03575 0 0)
(2.0353 0 0)
(2.03486 0 0)
(2.03442 0 0)
(2.03398 0 0)
(2.03355 0 0)
(2.03312 0 0)
(2.0327 0 0)
(2.03228 0 0)
(2.03186 0 0)
(2.03145 0 0)
(2.03104 0 0)
(2.03063 0 0)
(2.03022 0 0)
(2.02982 0 0)
(2.02941 0 0)
(2.02901 0 0)
(2.02861 0 0)
(2.02821 0 0)
(2.02781 0 0)
(2.02741 0 0)
(2.02702 0 0)
(2.02662 0 0)
(2.02622 0 0)
(2.02582 0 0)
(2.02542 0 0)
(2.02502 0 0)
(2.02462 0 0)
(2.02422 0 0)
(2.02381 0 0)
(2.02341 0 0)
(2.023 0 0)
(2.02259 0 0)
(2.02218 0 0)
(2.02177 0 0)
(2.02135 0 0)
(2.02094 0 0)
(2.02051 0 0)
(2.02009 0 0)
(2.01966 0 0)
(2.01923 0 0)
(2.0188 0 0)
(2.01836 0 0)
(2.01792 0 0)
(2.01748 0 0)
(2.01703 0 0)
(2.01657 0 0)
(2.01612 0 0)
(2.01565 0 0)
(2.01519 0 0)
(2.01472 0 0)
(2.01424 0 0)
(2.01376 0 0)
(2.01327 0 0)
(2.01278 0 0)
(2.01228 0 0)
(2.01177 0 0)
(2.01126 0 0)
(2.01075 0 0)
(2.01022 0 0)
(2.0097 0 0)
(2.00916 0 0)
(2.00862 0 0)
(2.00807 0 0)
(2.00751 0 0)
(2.00695 0 0)
(2.00638 0 0)
(2.0058 0 0)
(2.00522 0 0)
(2.00463 0 0)
(2.00403 0 0)
(2.00342 0 0)
(2.00281 0 0)
(2.00218 0 0)
(2.00155 0 0)
(2.00091 0 0)
(2.00026 0 0)
(1.9996 0 0)
(1.99894 0 0)
(1.99826 0 0)
(1.99758 0 0)
(1.99689 0 0)
(1.99618 0 0)
(1.99547 0 0)
(1.99475 0 0)
(1.99402 0 0)
(1.99328 0 0)
(1.99253 0 0)
(1.99178 0 0)
(1.99101 0 0)
(1.99023 0 0)
(1.98944 0 0)
(1.98864 0 0)
(1.98783 0 0)
(1.98701 0 0)
(1.98618 0 0)
(1.98534 0 0)
(1.98449 0 0)
(1.98363 0 0)
(1.98276 0 0)
(1.98188 0 0)
(1.98098 0 0)
(1.98008 0 0)
(1.97917 0 0)
(1.97824 0 0)
(1.97731 0 0)
(1.97636 0 0)
(1.9754 0 0)
(1.97443 0 0)
(1.97345 0 0)
(1.97246 0 0)
(1.97146 0 0)
(1.97045 0 0)
(1.96942 0 0)
(1.96839 0 0)
(1.96734 0 0)
(1.96628 0 0)
(1.96521 0 0)
(1.96414 0 0)
(1.96305 0 0)
(1.96194 0 0)
(1.96083 0 0)
(1.95971 0 0)
(1.95858 0 0)
(1.95743 0 0)
(1.95628 0 0)
(1.95511 0 0)
(1.95394 0 0)
(1.95275 0 0)
(1.95155 0 0)
(1.95034 0 0)
(1.94913 0 0)
(1.9479 0 0)
(1.94666 0 0)
(1.94541 0 0)
(1.94415 0 0)
(1.94289 0 0)
(1.94161 0 0)
(1.94032 0 0)
(1.93902 0 0)
(1.93772 0 0)
(1.9364 0 0)
(1.93508 0 0)
(1.93375 0 0)
(1.9324 0 0)
(1.93105 0 0)
(1.9297 0 0)
(1.92833 0 0)
(1.92695 0 0)
(1.92557 0 0)
(1.92418 0 0)
(1.92278 0 0)
(1.92138 0 0)
(1.91996 0 0)
(1.91854 0 0)
(1.91712 0 0)
(1.91568 0 0)
(1.91424 0 0)
(1.9128 0 0)
(1.91135 0 0)
(1.90989 0 0)
(1.90843 0 0)
(1.90696 0 0)
(1.90549 0 0)
(1.90401 0 0)
(1.90253 0 0)
(1.90104 0 0)
(1.89955 0 0)
(1.89806 0 0)
(1.89656 0 0)
(1.89506 0 0)
(1.89356 0 0)
(1.89205 0 0)
(1.89054 0 0)
(1.88903 0 0)
(1.88752 0 0)
(1.88601 0 0)
(1.88449 0 0)
(1.88298 0 0)
(1.88146 0 0)
(1.87995 0 0)
(1.87843 0 0)
(1.87692 0 0)
(1.87541 0 0)
(1.87389 0 0)
(1.87238 0 0)
(1.87088 0 0)
(1.86937 0 0)
(1.86787 0 0)
(1.86637 0 0)
(1.86487 0 0)
(1.86338 0 0)
(1.86189 0 0)
(1.8604 0 0)
(1.85892 0 0)
(1.85745 0 0)
(1.85598 0 0)
(1.85452 0 0)
(1.85306 0 0)
(1.85161 0 0)
(1.85017 0 0)
(1.84874 0 0)
(1.84731 0 0)
(1.84589 0 0)
(1.84448 0 0)
(1.84308 0 0)
(1.84169 0 0)
(1.84031 0 0)
(1.83894 0 0)
(1.83758 0 0)
(1.83623 0 0)
(1.8349 0 0)
(1.83357 0 0)
(1.83226 0 0)
(1.83096 0 0)
(1.82967 0 0)
(1.8284 0 0)
(1.82714 0 0)
(1.82589 0 0)
(1.82466 0 0)
(1.82344 0 0)
(1.82224 0 0)
(1.82106 0 0)
(1.81989 0 0)
(1.81873 0 0)
(1.81759 0 0)
(1.81647 0 0)
(1.81537 0 0)
(1.81428 0 0)
(1.81322 0 0)
(1.81217 0 0)
(1.81113 0 0)
(1.81012 0 0)
(1.80913 0 0)
(1.80815 0 0)
(1.80719 0 0)
(1.80626 0 0)
(1.80534 0 0)
(1.80444 0 0)
(1.80357 0 0)
(1.80271 0 0)
(1.80187 0 0)
(1.80106 0 0)
(1.80026 0 0)
(1.79949 0 0)
(1.79874 0 0)
(1.798 0 0)
(1.79729 0 0)
(1.79661 0 0)
(1.79594 0 0)
(1.79529 0 0)
(1.79467 0 0)
(1.79407 0 0)
(1.79349 0 0)
(1.79293 0 0)
(1.79239 0 0)
(1.79187 0 0)
(1.79138 0 0)
(1.79091 0 0)
(1.79046 0 0)
(1.79003 0 0)
(1.78962 0 0)
(1.78924 0 0)
(1.78888 0 0)
(1.78853 0 0)
(1.78821 0 0)
(1.78791 0 0)
(1.78764 0 0)
(1.78738 0 0)
(1.78714 0 0)
(1.78693 0 0)
(1.78673 0 0)
(1.78656 0 0)
(1.78641 0 0)
(1.78627 0 0)
(1.78616 0 0)
(1.78607 0 0)
(1.78599 0 0)
(1.78594 0 0)
(1.7859 0 0)
(1.78589 0 0)
(1.78589 0 0)
(1.78591 0 0)
(1.78595 0 0)
(1.78601 0 0)
(1.78609 0 0)
(1.78619 0 0)
(1.7863 0 0)
(1.78643 0 0)
(1.78658 0 0)
(1.78674 0 0)
(1.78692 0 0)
(1.78712 0 0)
(1.78734 0 0)
(1.78757 0 0)
(1.78781 0 0)
(1.78808 0 0)
(1.78835 0 0)
(1.78864 0 0)
(1.78895 0 0)
(1.78927 0 0)
(1.78961 0 0)
(1.78996 0 0)
(1.79032 0 0)
(1.7907 0 0)
(1.79109 0 0)
(1.79149 0 0)
(1.79191 0 0)
(1.79234 0 0)
(1.79278 0 0)
(1.79324 0 0)
(1.7937 0 0)
(1.79418 0 0)
(1.79467 0 0)
(1.79517 0 0)
(1.79568 0 0)
(1.7962 0 0)
(1.79673 0 0)
(1.79727 0 0)
(1.79783 0 0)
(1.79839 0 0)
(1.79896 0 0)
(1.79954 0 0)
(1.80013 0 0)
(1.80073 0 0)
(1.80134 0 0)
(1.80196 0 0)
(1.80258 0 0)
(1.80321 0 0)
(1.80385 0 0)
(1.8045 0 0)
(1.80516 0 0)
(1.80582 0 0)
(1.80649 0 0)
(1.80717 0 0)
(1.80786 0 0)
(1.80855 0 0)
(1.80924 0 0)
(1.80995 0 0)
(1.81066 0 0)
(1.81137 0 0)
(1.8121 0 0)
(1.81282 0 0)
(1.81356 0 0)
(1.81429 0 0)
(1.81504 0 0)
(1.81579 0 0)
(1.81654 0 0)
(1.8173 0 0)
(1.81806 0 0)
(1.81883 0 0)
(1.8196 0 0)
(1.82037 0 0)
(1.82115 0 0)
(1.82194 0 0)
(1.82273 0 0)
(1.82352 0 0)
(1.82431 0 0)
(1.82511 0 0)
(1.82591 0 0)
(1.82672 0 0)
(1.82753 0 0)
(1.82834 0 0)
(1.82916 0 0)
(1.82997 0 0)
(1.83079 0 0)
(1.83162 0 0)
(1.83244 0 0)
(1.83327 0 0)
(1.83411 0 0)
(1.83494 0 0)
(1.83578 0 0)
(1.83661 0 0)
(1.83745 0 0)
(1.8383 0 0)
(1.83914 0 0)
(1.83999 0 0)
(1.84084 0 0)
(1.84169 0 0)
(1.84254 0 0)
(1.8434 0 0)
(1.84425 0 0)
(1.84511 0 0)
(1.84597 0 0)
(1.84683 0 0)
(1.8477 0 0)
(1.84856 0 0)
(1.84943 0 0)
(1.85029 0 0)
(1.85116 0 0)
(1.85203 0 0)
(1.8529 0 0)
(1.85377 0 0)
(1.85465 0 0)
(1.85552 0 0)
(1.8564 0 0)
(1.85728 0 0)
(1.85815 0 0)
(1.85903 0 0)
(1.85991 0 0)
(1.86079 0 0)
(1.86168 0 0)
(1.86256 0 0)
(1.86344 0 0)
(1.86433 0 0)
(1.86521 0 0)
(1.8661 0 0)
(1.86699 0 0)
(1.86788 0 0)
(1.86877 0 0)
(1.86966 0 0)
(1.87055 0 0)
(1.87144 0 0)
(1.87233 0 0)
(1.87322 0 0)
(1.87412 0 0)
(1.87501 0 0)
(1.87591 0 0)
(1.8768 0 0)