/*--------------------------------*- C++ -*----------------------------------*\
| =========                 |                                                 |
| \\      /  F ield         | foam-extend: Open Source CFD                    |
|  \\    /   O peration     | Version:     3.1                                |
|   \\  /    A nd           | Web:         http://www.extend-project.de       |
|    \\/     M anipulation  |                                                 |
\*---------------------------------------------------------------------------*/
FoamFile
{
    version     2.0;
    format      ascii;
    class       volScalarField;
    location    "2";
    object      k;
}
// * * * * * * * * * * * * * * * * * * * * * * * * * * * * * * * * * * * * * //

dimensions      [0 2 -2 0 0 0 0];

internalField   nonuniform List<scalar> 
119952
(
0.01046643
0.008953685
0.00863986
0.008778156
0.008871371
0.008756762
0.00880421
0.008904007
0.009006612
0.009092118
0.00915443
0.009194654
0.009215431
0.009220239
0.009212604
0.009195634
0.009172232
0.009146137
0.009126763
0.009156458
0.009999539
0.009735301
0.009715708
0.0106379
0.01032089
0.01014471
0.01000036
0.009863868
0.009479081
0.01326163
0.01251893
0.01181318
0.01141977
0.01130874
0.01139831
0.01161335
0.01189722
0.01221057
0.01252987
0.0128801
0.0127518
0.01346927
0.01450203
0.01564745
0.01679539
0.01790041
0.01893686
0.01989983
0.02078569
0.02471007
0.02529241
0.02587858
0.02650009
0.0271652
0.02786772
0.02859324
0.02932772
0.03005764
0.03077722
0.03142821
0.0320202
0.03259071
0.033161
0.03374237
0.03433821
0.03494758
0.03557389
0.03627188
0.03689394
0.03707128
0.03729202
0.03755818
0.03778702
0.03794218
0.03805897
0.03817801
0.03830444
0.03843661
0.03857074
0.0387031
0.03883082
0.0389522
0.03906659
0.0391744
0.03927735
0.03937962
0.03949138
0.03963829
0.03984296
0.04003299
0.04025391
0.04060456
0.04092375
0.04110417
0.04116907
0.04110555
0.04074547
0.04011406
0.03984983
0.0396661
0.03949933
0.03934223
0.03920056
0.0390778
0.0389746
0.03888944
0.03881966
0.0387623
0.03871455
0.03867406
0.03863898
0.03860783
0.03857939
0.03855264
0.03852675
0.03850101
0.03847483
0.03844775
0.03841938
0.03838944
0.03835771
0.03832402
0.03828827
0.03825038
0.03821026
0.03816786
0.03812308
0.03807583
0.03802597
0.03797341
0.03791802
0.03785974
0.03779852
0.03773436
0.03766734
0.0375976
0.03752536
0.0374509
0.03737456
0.03729671
0.03721774
0.0371381
0.03705819
0.03697847
0.03689957
0.03682309
0.03675762
0.03672095
0.03664747
0.03651508
0.03633976
0.03614128
0.03593393
0.03572645
0.03552374
0.03532821
0.03514075
0.03496142
0.03478984
0.03462543
0.03446753
0.0343155
0.03416872
0.03402666
0.0338888
0.03375467
0.03362384
0.03349591
0.0333705
0.0332473
0.033126
0.03300634
0.03288811
0.03277114
0.03265528
0.03254046
0.03242659
0.03231359
0.03220143
0.03209005
0.03197948
0.03186984
0.03176124
0.03165335
0.03154578
0.03143846
0.03133145
0.03122485
0.03111868
0.03101291
0.03090749
0.03080241
0.03069765
0.03059328
0.0304894
0.03038714
0.03029974
0.02881243
0.02678997
0.02594282
0.02538952
0.0249335
0.02453125
0.02417132
0.02384799
0.02355631
0.02329157
0.02304952
0.0228264
0.02261908
0.0224249
0.02224173
0.0220678
0.02190166
0.02174215
0.02158831
0.02143938
0.02129474
0.02115389
0.02101647
0.02088213
0.02075072
0.02062202
0.02049602
0.02037315
0.02025339
0.02013555
0.02002014
0.01990888
0.01980356
0.01970646
0.0196247
0.01961485
0.01987335
0.02016839
0.02044902
0.0207058
0.02093807
0.02114834
0.02134007
0.02151659
0.0216808
0.02183497
0.02198094
0.02212011
0.02225361
0.02238231
0.02250688
0.02262783
0.02274559
0.0228605
0.02297285
0.02308287
0.02319076
0.0232967
0.02340083
0.02350329
0.02360422
0.02370368
0.02380176
0.02389848
0.02399392
0.02408811
0.02418109
0.02427291
0.02436393
0.02445307
0.02811135
0.0281207
0.02811783
0.02815562
0.02825885
0.02842914
0.02865424
0.02891655
0.02919873
0.02948681
0.0297706
0.03004366
0.03030247
0.03054563
0.03077305
0.03098546
0.03118394
0.03136979
0.03154429
0.03170867
0.03186409
0.03201156
0.03215201
0.03228624
0.03241495
0.03253876
0.0326582
0.03277373
0.03288576
0.03299462
0.03310059
0.03320391
0.03330477
0.0334033
0.03349962
0.03359379
0.03368586
0.03377584
0.03386373
0.03394947
0.03403298
0.03411409
0.03419249
0.03426755
0.03433814
0.03440015
0.03444826
0.03448999
0.03452914
0.0345667
0.03460373
0.03464062
0.03467728
0.03472525
0.03473338
0.03468528
0.03463691
0.03460708
0.03460916
0.03464988
0.0347289
0.03484075
0.0349775
0.03513049
0.03529191
0.03545559
0.03561711
0.03577361
0.03592341
0.03606577
0.03620052
0.03632788
0.03644825
0.03656217
0.03667017
0.03677279
0.03687053
0.03696382
0.03705307
0.03713862
0.03722078
0.03729981
0.03737597
0.03744945
0.03752046
0.03758915
0.03765571
0.03772026
0.03778297
0.03784395
0.03790334
0.03796125
0.0380178
0.0380731
0.03812726
0.03818036
0.03823251
0.0382838
0.03833429
0.03838408
0.03843324
0.03848183
0.03852993
0.03857758
0.03862487
0.03867183
0.03871853
0.03876501
0.03881134
0.03885757
0.03890376
0.03894995
0.03899623
0.03904264
0.03908926
0.03913616
0.0391834
0.03923107
0.03927924
0.03932801
0.03937745
0.03942766
0.03947876
0.03953086
0.03958411
0.03963869
0.03969483
0.03975283
0.03981313
0.03987635
0.0399434
0.04001571
0.04009547
0.04018659
0.04029623
0.04043909
0.04064954
0.04104549
0.04157426
0.01560964
0.01478419
0.0145377
0.01460278
0.01482076
0.01509128
0.0153612
0.01560506
0.01582212
0.01549291
0.01558556
0.01621461
0.01704983
0.01792814
0.01878415
0.01958733
0.0203332
0.02101856
0.02473822
0.02506945
0.02540125
0.02575265
0.02614793
0.02659413
0.02708692
0.02761635
0.02817113
0.02874045
0.02932777
0.02986474
0.03037351
0.03087733
0.03138766
0.03191213
0.03245301
0.03300885
0.03357808
0.03413905
0.034625
0.03509098
0.035552
0.03601428
0.03648306
0.03696209
0.03745246
0.03795348
0.03846471
0.03897403
0.03947732
0.03997269
0.04046006
0.04094249
0.04142414
0.04190869
0.04239862
0.04289214
0.04708509
0.04756903
0.04804145
0.04850076
0.04894841
0.0493874
0.04982114
0.05025222
0.05068186
0.05110997
0.05153571
0.05195692
0.05237179
0.05277936
0.05317956
0.05357356
0.05396405
0.05435581
0.05474629
0.05508125
0.05537178
0.05565467
0.05592286
0.05614878
0.0563214
0.0564602
0.05657854
0.05668514
0.05678577
0.05688397
0.0569818
0.05708042
0.05718046
0.05728242
0.05738702
0.05749577
0.05761182
0.05774057
0.05788849
0.05805045
0.05822342
0.0584197
0.0586201
0.05877668
0.05887767
0.05892024
0.05888792
0.0587929
0.05871878
0.0586901
0.05868126
0.05867813
0.05867352
0.05866525
0.05865352
0.05863946
0.0586244
0.05860949
0.05859558
0.05858324
0.05857275
0.05856422
0.05855754
0.05855247
0.05854867
0.05854576
0.05854331
0.05854091
0.05853816
0.05853471
0.05853026
0.05852454
0.05851732
0.0585084
0.05849761
0.05848479
0.05846977
0.05845239
0.05843248
0.05840989
0.05838446
0.05835605
0.05832458
0.05828998
0.05825226
0.0582115
0.05816783
0.05812147
0.05807271
0.0580219
0.05796941
0.05791567
0.05786113
0.05780623
0.05775147
0.0576975
0.05764529
0.05759588
0.05755162
0.05751305
0.05747575
0.05743532
0.05738888
0.05733511
0.05727378
0.05720527
0.05713047
0.05705039
0.05696603
0.05687834
0.05678812
0.05669608
0.05660282
0.05650883
0.05641451
0.05632017
0.05622604
0.05613229
0.05603902
0.05594629
0.05585416
0.05576262
0.05567165
0.05558127
0.05549147
0.05540227
0.05531368
0.05522574
0.05513847
0.05505192
0.05496616
0.05488126
0.0547973
0.05471428
0.05463225
0.05455134
0.05447138
0.05439225
0.05431393
0.05423644
0.05415976
0.05408392
0.05400893
0.05393485
0.0538618
0.05379012
0.05371997
0.0536532
0.05141072
0.05018668
0.04976271
0.04956473
0.04942799
0.04930459
0.04918101
0.04905427
0.04892463
0.04879324
0.04866138
0.04853012
0.04840031
0.04827257
0.0481473
0.04802476
0.04790504
0.04778819
0.04767417
0.04756293
0.04745444
0.04734864
0.0472455
0.04714512
0.04704747
0.04695266
0.04686084
0.04677218
0.04668691
0.04660539
0.04652828
0.04645675
0.04639283
0.04634086
0.04631195
0.04631544
0.0463486
0.04640192
0.04646734
0.04654073
0.04661951
0.04670184
0.04678624
0.04687154
0.04695678
0.04704121
0.04712428
0.04720557
0.04728482
0.04736184
0.04743654
0.04750888
0.04757888
0.04764656
0.047712
0.04777528
0.04783647
0.04789568
0.047953
0.04800851
0.04806231
0.04811449
0.04816511
0.04821425
0.04826196
0.04830827
0.04835322
0.04839678
0.04843876
0.04847405
0.05215909
0.05226775
0.05234443
0.05239688
0.05243334
0.05246123
0.05248646
0.0525135
0.0525453
0.05258358
0.05262906
0.05268174
0.05274111
0.05280638
0.05287664
0.05295093
0.05302836
0.05310811
0.05318948
0.05327186
0.05335477
0.05343778
0.05352059
0.05360294
0.05368463
0.05376552
0.05384549
0.05392445
0.05400234
0.05407911
0.0541547
0.05422906
0.05430215
0.05437391
0.05444427
0.05451316
0.0545805
0.0546462
0.05471017
0.0547723
0.05483245
0.05489045
0.05494608
0.054999
0.05504863
0.05509399
0.05513498
0.05517274
0.05520815
0.05524171
0.05527386
0.05530478
0.05533526
0.05536508
0.05539062
0.05541181
0.0554297
0.05544485
0.05545833
0.05547171
0.0554868
0.05550534
0.05552871
0.05555782
0.05559308
0.05563442
0.05568146
0.05573359
0.05579007
0.05585011
0.05591293
0.05597782
0.05604412
0.05611128
0.0561788
0.05624628
0.05631338
0.05637981
0.05644536
0.05650983
0.0565731
0.05663505
0.05669561
0.05675473
0.05681238
0.05686855
0.05692325
0.0569765
0.05702836
0.05707886
0.05712806
0.05717603
0.05722284
0.05726856
0.05731328
0.05735707
0.0574
0.05744217
0.05748364
0.05752448
0.05756478
0.05760459
0.05764399
0.05768305
0.05772182
0.05776038
0.05779878
0.05783708
0.05787534
0.05791364
0.05795203
0.05799059
0.05802937
0.05806846
0.05810792
0.05814784
0.05818828
0.05822935
0.05827111
0.05831366
0.05835709
0.05840151
0.05844702
0.05849375
0.05854186
0.05859153
0.05864302
0.05869664
0.05875284
0.05881225
0.05887577
0.05894468
0.05902091
0.05910732
0.05920828
0.0593307
0.05948647
0.05968485
0.05986997
0.02128953
0.02618913
0.02907144
0.03036227
0.03105368
0.03140682
0.03151979
0.0314717
0.03132143
0.03143876
0.03515325
0.03888247
0.04122371
0.04252248
0.04310778
0.04324937
0.04313006
0.04286769
0.04252079
0.04758452
0.0468852
0.04628093
0.04582755
0.04552707
0.04535195
0.04527253
0.04526596
0.04531458
0.04540522
0.04547846
0.04553479
0.04561356
0.04572976
0.04587905
0.04604798
0.04621913
0.04637484
0.04651372
0.04645208
0.04634721
0.04620789
0.04604111
0.04585158
0.04564432
0.04542466
0.04519786
0.04496946
0.04474547
0.04452304
0.0443091
0.04410903
0.0439309
0.04378318
0.04367259
0.04360394
0.04357651
0.04718125
0.04723982
0.04732874
0.04744505
0.0475868
0.04775337
0.04794444
0.04815967
0.04839845
0.04865955
0.04894145
0.04924351
0.04956301
0.04989738
0.0502445
0.05060263
0.05097032
0.05134638
0.05172938
0.05211705
0.05250963
0.05290522
0.05329995
0.05369113
0.05407715
0.0544576
0.05483344
0.05520632
0.05557795
0.05594924
0.05632055
0.05669223
0.05706424
0.05743632
0.0578084
0.05818089
0.05855534
0.05894342
0.05926928
0.05960926
0.05995923
0.06031544
0.06067469
0.06103506
0.06139569
0.06175626
0.06211652
0.06247628
0.06283495
0.063192
0.06354681
0.06389828
0.06424506
0.06458563
0.06491776
0.0652387
0.06554714
0.06583342
0.06610055
0.06635304
0.06657909
0.06677135
0.06693187
0.06706937
0.06719103
0.06730184
0.06740546
0.06750463
0.06760139
0.06769732
0.06779369
0.06789165
0.06799249
0.0680979
0.06821025
0.06833249
0.06846709
0.06861162
0.0687643
0.06892604
0.06908093
0.06920555
0.06929171
0.06933689
0.06933958
0.06931362
0.06929931
0.06931222
0.06934339
0.06938237
0.06942321
0.06946244
0.06949832
0.06953022
0.06955823
0.0695828
0.06960452
0.06962397
0.0696417
0.06965811
0.06967351
0.06968807
0.06970186
0.06971485
0.06972696
0.06973807
0.06974803
0.06975671
0.06976394
0.0697696
0.06977354
0.06977564
0.06977576
0.06977378
0.06976955
0.06976292
0.06975373
0.06974184
0.06972709
0.06970937
0.06968857
0.06966464
0.06963757
0.06960744
0.06957435
0.06953851
0.06950014
0.06945957
0.0694172
0.06937349
0.06932893
0.06928409
0.06923915
0.06919447
0.06915052
0.06910756
0.06906609
0.06902683
0.06898939
0.06895259
0.06891508
0.06887574
0.06883364
0.06878833
0.06873958
0.06868732
0.06863163
0.06857272
0.0685109
0.06844647
0.0683798
0.06831121
0.06824102
0.06816957
0.06809705
0.0680237
0.06794968
0.06787517
0.06780027
0.06772509
0.0676497
0.06757418
0.0674986
0.06742301
0.06734755
0.06727222
0.0671971
0.0671223
0.06704787
0.06697387
0.06690037
0.06682738
0.0667549
0.06668283
0.06661127
0.06654033
0.06647006
0.06640051
0.06633171
0.0662637
0.06619653
0.06613023
0.06606494
0.06600049
0.06593532
0.06585981
0.06571289
0.06567254
0.06564982
0.06562383
0.06559101
0.06555141
0.06550562
0.06545431
0.06539797
0.06533716
0.06527241
0.06520426
0.06513322
0.06505978
0.06498431
0.06490646
0.06482671
0.06474554
0.06466341
0.06458071
0.06449784
0.06441521
0.06433318
0.06425209
0.06417233
0.0640943
0.06401843
0.0639452
0.06387519
0.06380914
0.06374808
0.0636935
0.06364715
0.06360924
0.06358133
0.06356559
0.0635621
0.06356867
0.06358309
0.06360365
0.06362906
0.06365838
0.06369087
0.06372593
0.06376303
0.06380179
0.06384175
0.06388253
0.06392384
0.06396538
0.06400692
0.06404825
0.06408918
0.06412957
0.06416931
0.06420829
0.06424646
0.06428374
0.06432011
0.06435552
0.06438996
0.06442341
0.06445588
0.06448735
0.0645178
0.06454724
0.06457568
0.06460339
0.06463209
0.06467321
0.06464109
0.06462933
0.06462875
0.06463401
0.06464197
0.06465105
0.06466079
0.06467147
0.06468368
0.06469808
0.06471523
0.06473551
0.06475915
0.06478648
0.06481757
0.06485231
0.0648905
0.06493187
0.06497612
0.06502295
0.06507205
0.0651231
0.06517582
0.06522994
0.06528521
0.0653414
0.06539831
0.06545575
0.06551354
0.06557151
0.06562952
0.0656874
0.06574502
0.06580221
0.06585884
0.06591476
0.06596982
0.06602387
0.06607676
0.06612836
0.06617849
0.06622699
0.06627367
0.0663183
0.06636059
0.06640019
0.06643707
0.06647163
0.06650432
0.0665355
0.06656546
0.06659441
0.06662262
0.06665001
0.06667595
0.06670048
0.0667239
0.06674625
0.06676764
0.06678836
0.06680881
0.06682954
0.06685115
0.06687421
0.06689923
0.06692658
0.06695653
0.06698919
0.06702454
0.06706249
0.06710285
0.06714538
0.06718981
0.06723583
0.06728315
0.06733149
0.06738055
0.06743007
0.06747982
0.06752958
0.06757915
0.06762836
0.06767707
0.06772516
0.06777254
0.06781913
0.06786487
0.06790974
0.06795371
0.0679968
0.06803901
0.06808036
0.0681209
0.06816066
0.06819969
0.06823806
0.06827581
0.06831301
0.06834971
0.06838598
0.06842187
0.06845745
0.06849277
0.0685279
0.06856288
0.06859779
0.06863267
0.06866759
0.0687026
0.06873777
0.06877315
0.06880883
0.06884485
0.06888129
0.06891824
0.06895575
0.06899391
0.0690328
0.0690725
0.0691131
0.0691547
0.06919738
0.06924126
0.06928647
0.06933316
0.0693815
0.06943174
0.06948418
0.06953924
0.06959746
0.06965961
0.06972675
0.06980031
0.06988227
0.06997523
0.07008253
0.07020739
0.07034642
0.07046769
0.03462414
0.04397402
0.05340406
0.09078631
0.1125206
0.139358
0.1449491
0.1490134
0.1515152
0.1520514
0.151411
0.1496777
0.1465305
0.1430662
0.1394745
0.1354726
0.1311834
0.1267161
0.1221787
0.1176942
0.113328
0.1091151
0.1050301
0.1010879
0.09733991
0.09382253
0.09054916
0.08751661
0.08471476
0.08213151
0.07973764
0.08165412
0.07967944
0.07782746
0.07611864
0.07456557
0.0731759
0.07195179
0.07089091
0.06998597
0.06922437
0.06859109
0.06806969
0.06764107
0.06728748
0.0669915
0.06673597
0.06650453
0.06628216
0.06605565
0.06581469
0.06555238
0.06526272
0.06494221
0.06459056
0.06421017
0.06380576
0.06338364
0.0629513
0.06251693
0.06208891
0.06167521
0.0612832
0.06091956
0.06058999
0.0602993
0.06005198
0.05986126
0.05964863
0.05949808
0.05940433
0.05936185
0.05936551
0.05941087
0.05949394
0.05961121
0.05975948
0.05993594
0.06013816
0.06036367
0.06061026
0.06087589
0.06115843
0.06145568
0.06176557
0.06208612
0.06241543
0.0627516
0.06309366
0.06344038
0.06379
0.06414011
0.06448794
0.06482981
0.06516487
0.06549669
0.06582699
0.06615641
0.06648551
0.06681465
0.06714396
0.06747343
0.06780302
0.0681328
0.06846299
0.06879415
0.06911971
0.06944271
0.06976563
0.07008912
0.07041286
0.07073649
0.07105992
0.07138362
0.07170729
0.0720304
0.07235272
0.07267424
0.07299487
0.07331433
0.07363226
0.07394817
0.07426131
0.07456988
0.07486823
0.07514123
0.07539357
0.07563091
0.07584954
0.07604463
0.07621686
0.0763708
0.076511
0.07664093
0.07676329
0.07688027
0.07699364
0.07710493
0.07721549
0.07732661
0.07743965
0.07755615
0.07767786
0.07780655
0.07794327
0.07808671
0.07823487
0.07838504
0.07852735
0.07864863
0.07874201
0.0788056
0.07884132
0.07885926
0.07887986
0.07891399
0.07896153
0.07901714
0.07907666
0.07913713
0.07919645
0.07925331
0.079307
0.07935726
0.07940409
0.07944766
0.0794882
0.07952599
0.07956124
0.07959414
0.07962482
0.07965336
0.07967981
0.07970418
0.07972645
0.07974661
0.07976461
0.07978041
0.07979396
0.07980517
0.07981399
0.0798203
0.079824
0.07982496
0.07982304
0.07981812
0.07981006
0.07979875
0.0797841
0.07976607
0.07974465
0.07971991
0.07969201
0.07966127
0.07962779
0.07959154
0.07955281
0.07951196
0.07946935
0.0794253
0.07938038
0.07933511
0.07928982
0.07924482
0.07920037
0.0791568
0.07911419
0.07907236
0.07903087
0.07898917
0.0789467
0.0789029
0.07885736
0.07880973
0.0787598
0.07870748
0.07865276
0.07859571
0.07853645
0.07847518
0.07841209
0.07834734
0.07828113
0.07821362
0.07814496
0.07807532
0.07800481
0.07793354
0.07786161
0.07778911
0.07771614
0.07764279
0.07756914
0.07749532
0.07742139
0.07734746
0.0772736
0.07719991
0.07712647
0.07705335
0.07698059
0.07690825
0.0768364
0.07676507
0.07669432
0.07662417
0.07655465
0.07648578
0.07641759
0.07635009
0.07628326
0.076217
0.07615051
0.07608118
0.07600293
0.07593348
0.07587215
0.07581584
0.0757621
0.07570922
0.07565613
0.07560208
0.07554654
0.07548921
0.07542989
0.07536853
0.07530513
0.07523977
0.07517266
0.07510395
0.07503385
0.0749626
0.07489044
0.0748176
0.07474441
0.07467115
0.0745981
0.07452562
0.07445409
0.07438382
0.07431525
0.0742488
0.07418498
0.07412434
0.07406764
0.0740157
0.07396949
0.07392993
0.07389797
0.07387447
0.07385948
0.07385208
0.07385112
0.07385543
0.0738641
0.07387637
0.07389164
0.07390941
0.07392932
0.07395102
0.07397419
0.07399855
0.07402392
0.07405002
0.07407669
0.07410374
0.07413103
0.0741584
0.07418575
0.07421295
0.07423993
0.07426661
0.07429292
0.07431879
0.07434419
0.07436908
0.07439347
0.07441728
0.0744405
0.0744631
0.07448512
0.07450663
0.07452794
0.0745492
0.07456285
0.07457364
0.07458375
0.07459394
0.07460432
0.07461481
0.07462539
0.07463621
0.07464755
0.07465976
0.07467324
0.07468838
0.07470552
0.07472493
0.07474682
0.07477133
0.07479851
0.07482835
0.07486081
0.07489578
0.07493312
0.07497268
0.07501429
0.07505777
0.07510292
0.07514955
0.0751975
0.07524655
0.07529655
0.0753473
0.07539862
0.07545034
0.07550228
0.07555425
0.07560607
0.07565756
0.07570854
0.07575883
0.07580826
0.07585664
0.07590381
0.07594959
0.07599381
0.07603629
0.07607684
0.07611532
0.07615172
0.07618625
0.07621919
0.07625081
0.07628133
0.07631095
0.07633985
0.0763681
0.07639562
0.07642252
0.07644901
0.07647524
0.07650127
0.07652717
0.07655301
0.07657895
0.07660516
0.07663188
0.07665936
0.07668783
0.07671751
0.07674857
0.07678113
0.07681526
0.07685096
0.0768882
0.07692689
0.07696691
0.0770081
0.07705031
0.07709334
0.07713702
0.07718117
0.0772256
0.07727014
0.07731464
0.07735896
0.07740297
0.07744657
0.07748968
0.07753221
0.07757413
0.0776154
0.07765601
0.07769595
0.07773523
0.07777388
0.07781193
0.07784941
0.07788637
0.07792286
0.07795892
0.07799462
0.07803001
0.07806514
0.07810008
0.07813487
0.07816958
0.07820426
0.07823897
0.07827376
0.07830869
0.07834384
0.07837925
0.07841499
0.07845114
0.07848775
0.07852492
0.0785627
0.0786012
0.07864047
0.07868062
0.07872173
0.07876389
0.07880721
0.07885179
0.07889774
0.07894521
0.07899436
0.07904537
0.0790985
0.07915405
0.07921243
0.07927417
0.07933997
0.07941073
0.07948762
0.0795721
0.07966583
0.07977048
0.07988649
0.08000888
0.08011335
0.02107392
0.02519959
0.02935879
0.04354305
0.05894983
0.08526924
0.1007032
0.1151783
0.1289482
0.1413638
0.1528053
0.163771
0.173236
0.1805268
0.1859909
0.1898939
0.1983146
0.1972848
0.1955785
0.1932101
0.1903972
0.1873193
0.1839642
0.1803165
0.1764203
0.1722521
0.1678643
0.1632666
0.1583713
0.1533403
0.148235
0.143146
0.1381383
0.1332502
0.1285162
0.1239645
0.1196174
0.1154902
0.1115926
0.1079298
0.1045077
0.1013264
0.09823474
0.09542706
0.09287361
0.09055477
0.08845991
0.08658167
0.08491286
0.08344575
0.08217081
0.08107554
0.08014492
0.07936312
0.07871287
0.07817533
0.07773023
0.07735653
0.07703298
0.07673801
0.07645034
0.07616119
0.0758634
0.07555002
0.07521555
0.07485671
0.07447278
0.07406552
0.07363879
0.0731982
0.07275053
0.07230335
0.07186451
0.07144168
0.07104193
0.07067149
0.07033562
0.07003852
0.06978356
0.06956626
0.0693905
0.06925839
0.06917019
0.06912459
0.06911945
0.0691521
0.06921979
0.06931968
0.06944904
0.06960528
0.06978601
0.06998906
0.07021226
0.07045347
0.07071058
0.07098161
0.07126467
0.071558
0.0718599
0.07216921
0.07248489
0.07280574
0.07313051
0.07345806
0.07378751
0.07411825
0.07444974
0.07478157
0.07511378
0.0754469
0.07578022
0.07611323
0.07644584
0.07677804
0.07710986
0.0774413
0.07777226
0.0781018
0.0784302
0.07875812
0.07908577
0.07941303
0.07973968
0.08006537
0.08038914
0.08071118
0.08103189
0.08135146
0.08167006
0.08198786
0.08230494
0.08262138
0.08293737
0.08325342
0.08356893
0.08387539
0.0841642
0.08443498
0.0846898
0.08492733
0.08514526
0.08534393
0.08552609
0.08569498
0.08585342
0.08600376
0.08614802
0.08628789
0.08642486
0.08656028
0.08669541
0.08683152
0.08696992
0.08711191
0.08725862
0.0874105
0.08756655
0.08772473
0.08788179
0.08803104
0.08816402
0.08827527
0.08836299
0.08842901
0.08848046
0.08852907
0.08858267
0.08864414
0.08871202
0.08878404
0.08885818
0.08893273
0.08900637
0.08907815
0.08914743
0.08921383
0.08927712
0.08933721
0.08939409
0.08944776
0.08949827
0.08954566
0.08958997
0.08963123
0.08966948
0.08970475
0.08973705
0.0897664
0.08979281
0.08981627
0.08983674
0.08985418
0.08986852
0.08987969
0.08988756
0.08989203
0.08989297
0.08989028
0.08988386
0.08987364
0.08985959
0.08984182
0.08982014
0.08979412
0.08976379
0.08972955
0.08969208
0.08965182
0.08960919
0.08956463
0.08951855
0.08947137
0.08942345
0.08937511
0.08932658
0.08927805
0.08922967
0.08918154
0.0891336
0.0890857
0.08903759
0.08898895
0.08893943
0.08888869
0.08883656
0.08878271
0.08872706
0.08866949
0.08860995
0.08854852
0.08848527
0.0884203
0.08835371
0.08828563
0.08821617
0.08814547
0.08807362
0.08800074
0.0879269
0.0878522
0.08777673
0.08770058
0.08762383
0.08754658
0.08746894
0.08739101
0.08731288
0.08723465
0.08715644
0.08707833
0.08700042
0.08692277
0.08684547
0.08676856
0.08669211
0.08661614
0.0865407
0.08646581
0.0863915
0.08631777
0.08624463
0.08617208
0.08610004
0.0860282
0.08595582
0.08588184
0.08580859
0.0857374
0.08566847
0.08560146
0.08553584
0.08547108
0.08540665
0.0853421
0.08527707
0.08521126
0.08514446
0.08507652
0.08500737
0.0849371
0.08486647
0.08479542
0.08472394
0.08465209
0.08457996
0.08450772
0.08443556
0.08436373
0.08429248
0.08422212
0.08415304
0.08408557
0.08402013
0.08395716
0.08389718
0.08384077
0.08378856
0.08374126
0.08369957
0.08366414
0.08363546
0.08361356
0.08359798
0.08358796
0.0835828
0.08358175
0.0835842
0.08358963
0.08359761
0.08360778
0.08361984
0.0836335
0.08364853
0.08366472
0.08368191
0.08369997
0.08371867
0.0837379
0.08375754
0.08377746
0.08379758
0.08381779
0.08383803
0.08385821
0.08387827
0.08389813
0.08391788
0.08393735
0.08395655
0.08397543
0.08399398
0.08401221
0.08403012
0.08404778
0.08406504
0.08408097
0.08409562
0.08410937
0.08412257
0.08413548
0.08414828
0.08416112
0.08417419
0.08418772
0.08420199
0.08421732
0.08423406
0.08425254
0.08427282
0.08429503
0.08431931
0.08434575
0.08437442
0.08440533
0.08443846
0.08447376
0.08451115
0.08455052
0.08459176
0.08463474
0.0846793
0.0847253
0.08477259
0.08482099
0.08487034
0.08492047
0.08497119
0.08502232
0.08507367
0.08512505
0.08517625
0.08522709
0.08527737
0.08532689
0.08537548
0.08542295
0.08546912
0.08551384
0.08555695
0.08559833
0.08563789
0.08567566
0.08571178
0.08574644
0.08577987
0.08581228
0.08584385
0.08587476
0.08590515
0.0859351
0.08596474
0.0859943
0.08602397
0.08605387
0.08608407
0.08611465
0.08614565
0.08617714
0.08620919
0.0862419
0.08627536
0.08630966
0.08634491
0.08638116
0.08641846
0.08645683
0.08649626
0.08653671
0.08657811
0.08662036
0.08666337
0.086707
0.08675113
0.0867956
0.08684028
0.08688503
0.08692973
0.08697424
0.08701847
0.08706232
0.08710571
0.08714858
0.08719088
0.08723259
0.08727369
0.08731419
0.08735409
0.08739341
0.08743219
0.08747047
0.0875083
0.08754572
0.08758279
0.08761956
0.0876561
0.08769246
0.08772869
0.08776487
0.08780104
0.08783728
0.08787362
0.08791015
0.08794692
0.087984
0.08802145
0.08805934
0.08809775
0.08813676
0.08817645
0.08821689
0.08825819
0.08830042
0.08834369
0.08838809
0.08843373
0.08848071
0.08852917
0.08857922
0.08863102
0.08868475
0.0887406
0.08879884
0.08885979
0.08892385
0.08899153
0.08906349
0.08914052
0.08922361
0.08931388
0.08941252
0.08952043
0.08963721
0.08975776
0.0898604
0.009390173
0.01140237
0.01313039
0.02130623
0.03037015
0.04261533
0.05179672
0.06180847
0.07215041
0.08269122
0.0935215
0.1056537
0.1179909
0.1305576
0.1444228
0.1670479
0.1768855
0.1864522
0.195322
0.2030157
0.2087953
0.212888
0.2154015
0.2163595
0.2158871
0.2136168
0.2089642
0.2049924
0.2011002
0.1972045
0.1934201
0.1898273
0.1864145
0.1831211
0.1798896
0.1766446
0.1733214
0.1698634
0.1662214
0.1623604
0.1582
0.1538525
0.1494045
0.1449293
0.1404854
0.1361177
0.1318606
0.1277403
0.1237769
0.1199857
0.1163805
0.1129645
0.1097342
0.1067099
0.1038988
0.1013034
0.09892592
0.09676754
0.09482755
0.09310387
0.0915913
0.09027972
0.0891523
0.08819546
0.08739729
0.08674081
0.08620598
0.0857713
0.08541496
0.08511601
0.0848545
0.08461149
0.08437161
0.08412271
0.08385543
0.08356343
0.08324338
0.0828949
0.08252015
0.08212346
0.08171086
0.08128958
0.08086757
0.08045293
0.08005347
0.07967637
0.07932791
0.07901329
0.07873645
0.0784994
0.07830386
0.0781512
0.07804165
0.07797443
0.07794788
0.07795989
0.078008
0.07808961
0.07820216
0.0783432
0.07851048
0.0787017
0.07891442
0.07914631
0.07939519
0.07965909
0.07993619
0.08022491
0.08052402
0.08083304
0.08115055
0.08147496
0.08180562
0.08214263
0.08248743
0.08283959
0.08319493
0.08355114
0.08390674
0.08426063
0.08461359
0.08496614
0.08531843
0.08567047
0.08602228
0.0863738
0.08672493
0.08707542
0.08742554
0.08777571
0.08812597
0.08847616
0.08882605
0.08917536
0.08952373
0.089871
0.09021713
0.09056208
0.09090583
0.09124835
0.09158947
0.09192881
0.0922657
0.09259881
0.09292551
0.09324167
0.09354286
0.09382793
0.09409739
0.0943508
0.09458725
0.09480713
0.09501224
0.09520489
0.09538732
0.09556156
0.09572939
0.09589241
0.096052
0.09620943
0.09636587
0.0965224
0.09668006
0.09683975
0.09700212
0.09716723
0.09733421
0.09750123
0.09766548
0.09782246
0.09796682
0.09809472
0.09820476
0.0982982
0.09837956
0.09845578
0.09853235
0.09861219
0.09869568
0.09878206
0.09887026
0.09895914
0.09904766
0.09913494
0.09922028
0.09930313
0.09938308
0.09945983
0.09953317
0.09960295
0.09966908
0.09973149
0.09979019
0.09984516
0.09989645
0.09994408
0.09998809
0.1000285
0.1000654
0.1000988
0.1001286
0.1001548
0.1001774
0.1001963
0.1002115
0.1002228
0.10023
0.1002333
0.1002323
0.1002272
0.1002176
0.1002027
0.1001825
0.1001579
0.1001291
0.1000965
0.1000605
0.1000214
0.09997968
0.09993573
0.09988996
0.09984277
0.0997945
0.09974546
0.09969587
0.09964591
0.09959571
0.09954532
0.09949476
0.09944393
0.09939272
0.09934094
0.09928839
0.09923485
0.09918009
0.0991241
0.0990666
0.09900752
0.09894682
0.09888451
0.0988206
0.09875517
0.09868826
0.09861996
0.09855034
0.0984795
0.09840749
0.09833441
0.09826031
0.09818527
0.09810936
0.09803266
0.09795525
0.09787722
0.09779866
0.09771968
0.09764037
0.09756085
0.09748121
0.09740156
0.09732199
0.09724258
0.09716341
0.09708454
0.09700603
0.09692792
0.09685024
0.09677301
0.09669626
0.09662001
0.09654425
0.09646897
0.09639413
0.09631962
0.09624521
0.0961706
0.09609605
0.09602195
0.09594857
0.09587599
0.09580419
0.09573302
0.09566229
0.09559177
0.09552126
0.09545054
0.09537943
0.09530777
0.09523547
0.09516245
0.09508875
0.09501443
0.09493959
0.09486433
0.0947888
0.09471317
0.09463766
0.09456251
0.09448798
0.0944144
0.09434211
0.09427147
0.09420289
0.0941368
0.09407367
0.09401403
0.09395843
0.09390743
0.0938616
0.09382142
0.09378723
0.09375908
0.09373669
0.09371959
0.09370724
0.09369905
0.09369453
0.09369318
0.0936946
0.09369842
0.09370433
0.09371205
0.09372132
0.09373195
0.09374373
0.09375648
0.09377011
0.09378442
0.0937993
0.09381462
0.09383028
0.09384619
0.09386228
0.09387845
0.09389462
0.0939108
0.0939269
0.09394288
0.09395868
0.09397428
0.09398965
0.0940048
0.09401971
0.09403441
0.09404884
0.09406282
0.09407633
0.09408948
0.09410244
0.0941154
0.09412852
0.09414196
0.09415589
0.09417047
0.09418588
0.09420231
0.09421993
0.0942389
0.09425936
0.09428146
0.09430529
0.09433096
0.09435851
0.09438797
0.09441937
0.09445267
0.09448783
0.0945248
0.0945635
0.09460383
0.09464569
0.09468896
0.09473352
0.09477921
0.09482591
0.09487343
0.09492163
0.09497032
0.09501932
0.09506845
0.09511749
0.09516627
0.09521459
0.09526226
0.0953091
0.09535493
0.0953996
0.09544296
0.09548489
0.09552531
0.09556418
0.09560152
0.09563744
0.0956721
0.09570569
0.09573838
0.09577036
0.09580182
0.0958329
0.09586374
0.09589451
0.09592541
0.0959566
0.09598824
0.09602042
0.09605321
0.09608666
0.09612078
0.09615562
0.09619119
0.0962275
0.09626458
0.09630245
0.0963411
0.09638055
0.09642077
0.09646174
0.09650341
0.09654573
0.09658861
0.09663198
0.09667572
0.09671974
0.09676391
0.09680814
0.0968523
0.09689629
0.09694002
0.0969834
0.09702635
0.0970688
0.09711072
0.09715207
0.09719283
0.097233
0.09727258
0.09731159
0.09735007
0.09738805
0.09742558
0.09746271
0.0974995
0.09753599
0.09757227
0.09760837
0.09764438
0.09768034
0.09771633
0.0977524
0.09778862
0.09782504
0.09786174
0.09789878
0.09793623
0.09797416
0.09801264
0.09805175
0.09809158
0.09813219
0.09817369
0.09821617
0.09825972
0.09830444
0.09835043
0.0983978
0.09844667
0.09849716
0.09854941
0.09860355
0.09865977
0.09871827
0.0987793
0.09884314
0.09891018
0.09898085
0.09905572
0.09913544
0.09922077
0.09931254