/*--------------------------------*- C++ -*----------------------------------*\
| =========                 |                                                 |
| \\      /  F ield         | foam-extend: Open Source CFD                    |
|  \\    /   O peration     | Version:     3.1                                |
|   \\  /    A nd           | Web:         http://www.extend-project.de       |
|    \\/     M anipulation  |                                                 |
\*---------------------------------------------------------------------------*/
FoamFile
{
    version     2.0;
    format      ascii;
    class       volScalarField;
    location    "2";
    object      nut;
}
// * * * * * * * * * * * * * * * * * * * * * * * * * * * * * * * * * * * * * //

dimensions      [0 2 -1 0 0 0 0];

internalField   nonuniform List<scalar> 
119952
(
2.876524e-05
1.756452e-05
1.773866e-05
2.050844e-05
2.281078e-05
2.195181e-05
2.154075e-05
2.129213e-05
2.10646e-05
2.080736e-05
2.050377e-05
2.015721e-05
1.977455e-05
1.936304e-05
1.8929e-05
1.847848e-05
1.801664e-05
1.754424e-05
1.705536e-05
1.654658e-05
2.21913e-05
2.110716e-05
2.069575e-05
2.862345e-05
2.786704e-05
2.749031e-05
2.72425e-05
2.724008e-05
2.682713e-05
3.094303e-05
1.416725e-05
1.515294e-05
1.709863e-05
1.930418e-05
2.182952e-05
2.464524e-05
2.774032e-05
3.103762e-05
3.449245e-05
4.036772e-05
0.0001505343
0.0001908314
0.0002366573
0.0002854381
0.0003348669
0.0003834918
0.000430389
0.0004753451
0.0005185788
0.0007865917
0.000849978
0.0009171833
0.000987622
0.001060181
0.001133588
0.001206564
0.001278081
0.001347315
0.001413699
0.001477262
0.001542738
0.001612068
0.001685202
0.001761111
0.001838377
0.001915781
0.001993157
0.002073653
0.002088966
0.002086687
0.002111736
0.002151326
0.002193043
0.002231669
0.002266212
0.002298718
0.002328613
0.002355105
0.002377657
0.002396124
0.00241071
0.002421857
0.002430136
0.002436209
0.002440874
0.002445309
0.002451893
0.002466064
0.002489193
0.002509696
0.002536092
0.002573764
0.002603365
0.002619577
0.00261642
0.002580938
0.002445419
0.002218067
0.002162417
0.002143116
0.002135106
0.002131826
0.002131333
0.002132478
0.002134415
0.00213648
0.002138196
0.002139266
0.002139542
0.002138988
0.002137641
0.002135572
0.002132852
0.002129552
0.002125734
0.00212145
0.002116747
0.002111664
0.002106235
0.002100489
0.002094451
0.002088142
0.002081582
0.002074784
0.002067764
0.00206053
0.002053087
0.002045435
0.002037574
0.002029501
0.002021213
0.002012705
0.002003976
0.001995026
0.001985856
0.001976471
0.001966881
0.001957095
0.001947126
0.001936989
0.0019267
0.001916278
0.001905739
0.001895115
0.001884478
0.001874136
0.001864675
0.001828405
0.001780571
0.001737678
0.001701412
0.001671111
0.001645604
0.001623776
0.001604729
0.001587777
0.001572406
0.001558232
0.001544975
0.001532423
0.001520414
0.001508828
0.001497573
0.001486578
0.001475788
0.001465156
0.001454648
0.001444233
0.001433884
0.001423582
0.00141331
0.001403052
0.001392797
0.001382536
0.001372264
0.001361977
0.001351669
0.001341337
0.001330976
0.001320579
0.001310174
0.00129975
0.001289279
0.001278772
0.001268193
0.001257528
0.001246785
0.001235971
0.001225082
0.001214109
0.001203044
0.00119188
0.00118061
0.001169236
0.001157779
0.001146515
0.001136323
0.0009045105
0.0007054568
0.0006391789
0.0006064532
0.0005855966
0.0005701007
0.0005574948
0.0005466367
0.0005369157
0.0005279705
0.000519571
0.0005115727
0.0005038725
0.0004964019
0.0004891125
0.000481969
0.0004749464
0.0004680259
0.0004611932
0.000454438
0.0004477523
0.0004411297
0.0004345662
0.0004280566
0.0004216025
0.0004152009
0.0004088502
0.0004025717
0.0003963693
0.0003901958
0.0003840765
0.0003780617
0.0003722493
0.0003667896
0.0003622488
0.0003647616
0.0003774414
0.0003891157
0.0003994823
0.0004087775
0.0004172606
0.0004251501
0.0004326137
0.0004397732
0.0004467179
0.0004535056
0.0004601747
0.0004667587
0.0004732777
0.0004797458
0.000486173
0.0004925668
0.0004989327
0.0005052751
0.0005115976
0.0005179032
0.0005241944
0.0005304733
0.0005367418
0.0005430017
0.0005492568
0.0005555052
0.0005617436
0.0005679776
0.0005742071
0.0005804318
0.0005866519
0.0005928677
0.0005990856
0.0006053991
0.0008572895
0.0008932631
0.0009309809
0.0009694321
0.001007466
0.001044126
0.001078606
0.001110412
0.001139352
0.001165495
0.001189064
0.001210363
0.001229714
0.00124742
0.001263751
0.001278937
0.001293169
0.001306604
0.001319372
0.001331579
0.00134331
0.001354638
0.001365621
0.001376309
0.001386741
0.00139695
0.001406965
0.001416808
0.001426499
0.001436056
0.00144549
0.001454813
0.001464033
0.001473156
0.001482187
0.001491128
0.00149998
0.001508742
0.001517411
0.001525984
0.00153445
0.00154279
0.001550969
0.001558909
0.00156643
0.00157313
0.001578763
0.001583967
0.001588971
0.001593841
0.001598637
0.001603379
0.001608071
0.001613161
0.001615985
0.001622705
0.001635605
0.001653751
0.001675593
0.001699522
0.001724103
0.001748215
0.001771095
0.001792304
0.001811671
0.001829216
0.001845079
0.001859453
0.001872548
0.001884565
0.001895684
0.001906059
0.001915818
0.001925066
0.001933888
0.001942351
0.00195051
0.001958406
0.001966075
0.001973545
0.001980837
0.001987971
0.001994961
0.00200182
0.002008559
0.002015187
0.002021713
0.002028144
0.002034486
0.002040745
0.002046928
0.002053039
0.002059083
0.002065066
0.00207099
0.002076862
0.002082683
0.002088458
0.002094191
0.002099884
0.002105541
0.002111165
0.002116759
0.002122324
0.002127865
0.002133383
0.00213888
0.00214436
0.002149826
0.002155279
0.002160724
0.002166163
0.0021716
0.002177038
0.002182482
0.002187935
0.002193404
0.002198892
0.002204407
0.002209954
0.002215542
0.002221178
0.002226872
0.002232637
0.002238488
0.002244443
0.002250526
0.002256771
0.002263224
0.002269953
0.002277059
0.002284701
0.002293136
0.002302844
0.002314779
0.002331041
0.002356421
0.002402393
0.002400985
1.675252e-05
1.865399e-05
2.099525e-05
2.367717e-05
2.661711e-05
2.972026e-05
3.2915e-05
3.614905e-05
3.978053e-05
0.0001474159
0.0001827846
0.0002233832
0.0002666906
0.0003107908
0.0003546308
0.0003975024
0.0004392169
0.0004797334
0.0007270243
0.0007768628
0.0008301901
0.0008862791
0.0009447713
0.001005199
0.001066977
0.001129425
0.001191918
0.001253894
0.001314585
0.001374333
0.001435495
0.001499026
0.001564977
0.001633053
0.001702659
0.001773096
0.001843742
0.001896665
0.001937002
0.001986674
0.002043614
0.002106121
0.00217287
0.002242742
0.002314699
0.002387793
0.002461241
0.002533928
0.002606119
0.002678574
0.00275197
0.002826742
0.002903034
0.00298069
0.00305929
0.003137293
0.003830909
0.003919686
0.004004562
0.004087213
0.00416891
0.004250521
0.004332516
0.004414988
0.004497709
0.004580263
0.004662284
0.004743715
0.004824701
0.004905467
0.004986208
0.005067011
0.005147805
0.005228188
0.005305843
0.005371913
0.005428649
0.005480526
0.005528779
0.005570472
0.005603664
0.005632641
0.005659793
0.005686342
0.005712709
0.005738835
0.005764448
0.005789254
0.00581304
0.005835745
0.005857525
0.005878851
0.005900678
0.005924595
0.00595253
0.005983425
0.006016639
0.00605364
0.006088362
0.006111668
0.006121409
0.006114638
0.006084309
0.006025885
0.005964419
0.005916211
0.005878427
0.005849486
0.005827576
0.005811322
0.005799642
0.005791633
0.005786502
0.005783547
0.005782171
0.005781878
0.005782277
0.00578306
0.005783991
0.005784884
0.0057856
0.005786032
0.005786101
0.005785752
0.005784948
0.005783667
0.005781898
0.005779643
0.005776905
0.005773695
0.005770023
0.0057659
0.005761333
0.005756327
0.005750881
0.005744995
0.005738664
0.005731885
0.005724655
0.005716976
0.005708855
0.005700305
0.005691346
0.005682007
0.005672323
0.005662337
0.005652096
0.005641653
0.005631064
0.005620392
0.005609723
0.005599196
0.005588988
0.005578666
0.005566035
0.005550083
0.005530736
0.005508709
0.005484957
0.005460369
0.005435628
0.005411194
0.005387371
0.005364331
0.00534215
0.005320839
0.00530037
0.005280691
0.00526174
0.00524345
0.005225754
0.005208588
0.005191886
0.005175589
0.005159638
0.005143976
0.005128568
0.005113362
0.00509832
0.005083412
0.005068611
0.005053896
0.005039254
0.005024673
0.005010143
0.004995657
0.004981223
0.00496685
0.004952541
0.00493828
0.004924065
0.004909915
0.004895788
0.004881659
0.004867525
0.004853382
0.00483923
0.004825068
0.004810901
0.004796744
0.004782645
0.00476874
0.004755459
0.004746966
0.004303815
0.004035971
0.003924684
0.003863534
0.003820059
0.003783919
0.003751761
0.003722461
0.00369557
0.003670824
0.003648001
0.003626884
0.003607265
0.003588944
0.003571739
0.003555486
0.003540039
0.003525273
0.003511081
0.003497374
0.00348408
0.003471141
0.003458501
0.003446152
0.003434061
0.003422227
0.003410657
0.003399366
0.003388373
0.003377721
0.003367528
0.003358027
0.003349644
0.003343306
0.003341446
0.003346044
0.003355394
0.003367769
0.003381895
0.003396945
0.003412357
0.003427753
0.003442893
0.003457633
0.003471896
0.003485654
0.003498906
0.003511674
0.003523985
0.003535875
0.00354738
0.003558535
0.003569372
0.003579921
0.003590211
0.003600266
0.003610108
0.003619757
0.00362923
0.003638541
0.003647704
0.00365673
0.003665626
0.003674399
0.003683054
0.00369159
0.003700006
0.003708292
0.003716412
0.003723099
0.004418455
0.004449568
0.004472954
0.004492991
0.004512179
0.00453182
0.00455247
0.004574233
0.004596943
0.004620314
0.004644024
0.004667769
0.004691289
0.004714379
0.004736887
0.004758713
0.004779798
0.004800115
0.004819666
0.004838467
0.004856549
0.00487395
0.004890713
0.004906882
0.004922502
0.004937614
0.00495226
0.004966478
0.004980303
0.004993765
0.005006891
0.005019705
0.005032225
0.005044466
0.005056439
0.005068151
0.005079606
0.005090803
0.005101736
0.005112394
0.005122757
0.005132791
0.005142441
0.005151621
0.005160205
0.005168052
0.00517522
0.005181911
0.005188253
0.005194324
0.005200181
0.005205839
0.005211361
0.005216605
0.005221325
0.005226145
0.005231696
0.005238487
0.005246875
0.005257021
0.005268904
0.005282365
0.005297149
0.005312948
0.005329443
0.005346331
0.005363347
0.005380271
0.005396932
0.005413204
0.005429003
0.005444276
0.005458999
0.005473165
0.005486782
0.005499868
0.005512447
0.005524544
0.005536188
0.005547408
0.00555823
0.005568681
0.005578787
0.00558857
0.005598054
0.005607258
0.005616202
0.005624905
0.005633384
0.005641654
0.005649732
0.005657632
0.005665367
0.00567295
0.005680393
0.005687708
0.005694906
0.005701996
0.005708987
0.00571589
0.005722711
0.005729458
0.00573614
0.005742762
0.005749332
0.005755856
0.005762341
0.005768793
0.005775219
0.005781626
0.00578802
0.00579441
0.005800803
0.005807209
0.005813637
0.005820097
0.005826601
0.005833161
0.005839791
0.005846505
0.005853322
0.00586026
0.005867343
0.005874598
0.005882057
0.005889763
0.00589777
0.005906147
0.005914992
0.005924439
0.005934684
0.005946011
0.005958851
0.005973864
0.00599204
0.006014798
0.006044021
0.006078926
0.006107046
5.563239e-05
7.260364e-05
8.927307e-05
0.0001042867
0.0001054982
0.0001058407
0.0001067637
0.0001080253
0.0001095614
0.0001190862
0.000313543
0.0004436236
0.0005442265
0.0006162645
0.0006690502
0.0007107839
0.0007465088
0.0007791241
0.0008101691
0.001182524
0.00125325
0.001325362
0.00139729
0.001467703
0.001535731
0.001601079
0.001663924
0.001724618
0.001783108
0.001841206
0.00190427
0.001973269
0.00204691
0.002122986
0.002199172
0.002273421
0.002344111
0.002411997
0.002420192
0.002446251
0.002482853
0.002525182
0.002569999
0.002615185
0.002659419
0.002701944
0.002742399
0.002780708
0.002817037
0.002852745
0.002888859
0.002926276
0.00296562
0.003007218
0.003051171
0.003096711
0.003755654
0.003812015
0.003866478
0.003920352
0.003974617
0.004029973
0.004086858
0.004145512
0.004206
0.004268261
0.004332117
0.004397535
0.004464455
0.004532855
0.004602713
0.00467401
0.004746685
0.004820617
0.004895568
0.00497053
0.005044834
0.005118353
0.005191055
0.005263105
0.005334753
0.005406276
0.005477995
0.005550185
0.005623014
0.005696481
0.005770558
0.005845248
0.005920572
0.005996581
0.006073356
0.006151007
0.006229811
0.006312088
0.006367139
0.006429086
0.006495988
0.006566498
0.006639717
0.006715101
0.006792309
0.006871073
0.006951106
0.007032089
0.007113674
0.007195584
0.007277594
0.007359484
0.007441012
0.007521828
0.007601294
0.007678537
0.007753129
0.007824253
0.007891262
0.00795343
0.008007548
0.008052951
0.008090938
0.008123985
0.008154012
0.008182332
0.008209804
0.008236914
0.008263883
0.008290779
0.008317611
0.00834441
0.008371308
0.008398619
0.008426916
0.008457012
0.008489691
0.008524479
0.008560829
0.008598538
0.008633073
0.00865842
0.008672342
0.008673279
0.00865923
0.008632048
0.008602829
0.008578072
0.008557525
0.008540268
0.008526002
0.008514483
0.008505481
0.008498762
0.008494074
0.008491144
0.008489691
0.008489437
0.008490119
0.008491498
0.008493355
0.008495499
0.008497758
0.008499989
0.008502069
0.008503898
0.0085054
0.008506516
0.008507203
0.008507433
0.008507188
0.008506457
0.008505233
0.008503511
0.008501288
0.008498555
0.008495306
0.00849153
0.008487217
0.008482358
0.008476949
0.008470989
0.008464485
0.008457454
0.008449921
0.008441923
0.008433502
0.008424716
0.008415638
0.008406349
0.008396945
0.00838753
0.008378133
0.008368823
0.008359674
0.008350481
0.008340637
0.00832966
0.008317148
0.008302918
0.008287019
0.008269686
0.008251209
0.008231927
0.008212132
0.008192062
0.008171908
0.008151818
0.0081319
0.008112234
0.008092868
0.008073835
0.008055141
0.008036814
0.008018828
0.008001164
0.007983789
0.007966697
0.007949858
0.007933238
0.007916809
0.007900548
0.007884435
0.007868441
0.007852574
0.007836817
0.007821148
0.007805582
0.007790108
0.007774721
0.007759414
0.007744171
0.007728966
0.007713759
0.00769857
0.007683426
0.00766834
0.007653319
0.007638368
0.007623494
0.007608709
0.007594026
0.007579504
0.007565187
0.00755094
0.007535377
0.007501614
0.0074956
0.007492868
0.007487053
0.007477275
0.007464094
0.007448326
0.007430753
0.007411988
0.007392525
0.007372743
0.007352925
0.007333275
0.007313932
0.007294974
0.00727632
0.007258013
0.007240087
0.00722256
0.007205442
0.007188733
0.007172454
0.00715661
0.007141219
0.007126301
0.007111888
0.007098025
0.007084774
0.007072229
0.007060542
0.007049949
0.007040853
0.007033773
0.007028737
0.007026147
0.007026495
0.007029664
0.007035123
0.007042386
0.007051055
0.007060803
0.007071363
0.007082511
0.007094059
0.007105847
0.007117775
0.007129724
0.007141612
0.007153384
0.007164994
0.007176411
0.007187613
0.007198587
0.007209327
0.007219832
0.007230102
0.007240143
0.007249961
0.007259562
0.007268954
0.007278143
0.007287134
0.007295934
0.007304546
0.007312969
0.007321198
0.007329223
0.007337093
0.007345096
0.007355865
0.007329383
0.007314592
0.007307177
0.007304793
0.007306131
0.007310441
0.007317264
0.007326275
0.007337195
0.007349756
0.007363687
0.00737872
0.007394599
0.007411137
0.007428142
0.007445441
0.007462884
0.007480346
0.007497727
0.007514946
0.007531944
0.007548675
0.007565109
0.007581224
0.00759701
0.007612461
0.007627579
0.007642367
0.007656832
0.00767098
0.007684819
0.007698356
0.007711594
0.007724538
0.007737187
0.00774954
0.007761593
0.007773338
0.007784764
0.007795855
0.007806589
0.007816934
0.007826848
0.007836273
0.007845143
0.007853403
0.007861084
0.007868287
0.0078751
0.007881589
0.007887805
0.007893778
0.007899544
0.007905053
0.007910239
0.007915305
0.007920505
0.007926071
0.007932226
0.007939158
0.007947
0.007955822
0.007965637
0.0079764
0.007988026
0.008000398
0.008013383
0.00802684
0.008040633
0.008054632
0.008068722
0.008082804
0.008096794
0.008110623
0.008124236
0.008137593
0.008150664
0.008163425
0.008175864
0.008187974
0.008199751
0.008211198
0.008222318
0.008233119
0.008243611
0.008253803
0.008263708
0.008273339
0.008282708
0.00829183
0.008300718
0.008309388
0.008317851
0.008326124
0.008334218
0.008342148
0.008349926
0.008357564
0.008365073
0.008372466
0.008379752
0.008386941
0.008394043
0.008401068
0.008408025
0.008414922
0.008421768
0.008428571
0.008435342
0.008442089
0.008448822
0.008455551
0.008462288
0.008469043
0.008475831
0.008482664
0.008489559
0.00849653
0.008503597
0.008510778
0.008518097
0.008525579
0.008533254
0.008541155
0.008549324
0.008557813
0.008566687
0.008576029
0.00858595
0.008596597
0.008608175
0.00862096
0.008635336
0.008651823
0.008671085
0.008693898
0.008720829
0.008750679
0.008776515
5.498215e-05
0.0001114912
0.000200392
0.0008221934
0.001357177
0.002783715
0.003139303
0.00347421
0.003864481
0.004036859
0.004125893
0.00418738
0.004217165
0.004298998
0.004367582
0.004405274
0.004421745
0.004422724
0.004412154
0.004394287
0.004371494
0.004345145
0.004318234
0.004297035
0.004282537
0.004273242
0.004267275
0.004263383
0.004261051
0.004260264
0.004259159
0.004854511
0.004874956
0.004895034
0.004918597
0.004947772
0.004983698
0.005026859
0.005077315
0.005134721
0.005198339
0.005267389
0.005341208
0.005418971
0.005499719
0.005582229
0.005665032
0.005746484
0.005824871
0.005898268
0.005964199
0.006022051
0.006071854
0.006113936
0.006148815
0.006177125
0.006199608
0.006217085
0.006230463
0.006240709
0.006248877
0.006256025
0.006263192
0.006271368
0.006281441
0.006294177
0.006310365
0.006332905
0.006332216
0.006341732
0.006359582
0.006384356
0.006415016
0.006450811
0.006491176
0.006535666
0.006583933
0.006635662
0.006690576
0.006748455
0.006809094
0.006872306
0.006937924
0.007005752
0.007075604
0.00714728
0.007220543
0.007295033
0.007370418
0.007446368
0.007522525
0.007598526
0.007673988
0.00774838
0.007821713
0.00789479
0.007968024
0.008041609
0.008115654
0.008190219
0.008265336
0.008341032
0.008417348
0.008494331
0.008572036
0.008650343
0.008725415
0.008799093
0.00887254
0.008946359
0.009020855
0.009096204
0.009172552
0.009250116
0.00932883
0.009408523
0.009489045
0.009570257
0.009652022
0.009734208
0.009816689
0.009899334
0.009981972
0.01
0.01
0.01
0.01
0.01
0.01
0.01
0.01
0.01
0.01
0.01
0.01
0.01
0.01
0.01
0.01
0.01
0.01
0.01
0.01
0.01
0.01
0.01
0.01
0.01
0.01
0.01
0.01
0.01
0.01
0.01
0.01
0.01
0.01
0.01
0.01
0.01
0.01
0.01
0.01
0.01
0.01
0.01
0.01
0.01
0.01
0.01
0.01
0.01
0.01
0.01
0.01
0.01
0.01
0.01
0.01
0.01
0.01
0.01
0.01
0.01
0.01
0.01
0.01
0.01
0.01
0.01
0.01
0.01
0.01
0.01
0.01
0.01
0.01
0.01
0.01
0.01
0.01
0.01
0.01
0.01
0.01
0.01
0.01
0.01
0.01
0.01
0.01
0.01
0.01
0.01
0.01
0.01
0.01
0.01
0.01
0.01
0.01
0.01
0.01
0.01
0.01
0.01
0.01
0.01
0.01
0.01
0.01
0.01
0.01
0.01
0.01
0.01
0.01
0.01
0.01
0.01
0.01
0.01
0.01
0.01
0.01
0.01
0.01
0.01
0.01
0.01
0.01
0.01
0.01
0.01
0.01
0.01
0.01
0.01
0.01
0.01
0.01
0.01
0.01
0.01
0.01
0.01
0.01
0.01
0.009992757
0.0099735
0.009954351
0.009935378
0.009916632
0.009898146
0.00987999
0.009862197
0.00984478
0.009827804
0.009811317
0.009795375
0.009780026
0.009765343
0.009751418
0.009738362
0.009726375
0.00971569
0.009706598
0.009699375
0.009694297
0.009691553
0.009691066
0.009692542
0.009695702
0.009700277
0.009706021
0.009712732
0.009720239
0.009728377
0.009737045
0.009746131
0.009755519
0.009765111
0.00977486
0.009784703
0.009794583
0.009804455
0.009814287
0.009824049
0.00983372
0.009843283
0.009852727
0.009862042
0.009871221
0.009880259
0.009889148
0.009897879
0.009906486
0.009914939
0.009923233
0.009931346
0.009939301
0.009947095
0.009954716
0.009961831
0.009963112
0.009962096
0.009960613
0.009959588
0.009959487
0.009960553
0.009962919
0.009966655
0.009971785
0.009978296
0.009986145
0.009995262
0.01
0.01
0.01
0.01
0.01
0.01
0.01
0.01
0.01
0.01
0.01
0.01
0.01
0.01
0.01
0.01
0.01
0.01
0.01
0.01
0.01
0.01
0.01
0.01
0.01
0.01
0.01
0.01
0.01
0.01
0.01
0.01
0.01
0.01
0.01
0.01
0.01
0.01
0.01
0.01
0.01
0.01
0.01
0.01
0.01
0.01
0.01
0.01
0.01
0.01
0.01
0.01
0.01
0.01
0.01
0.01
0.01
0.01
0.01
0.01
0.01
0.01
0.01
0.01
0.01
0.01
0.01
0.01
0.01
0.01
0.01
0.01
0.01
0.01
0.01
0.01
0.01
0.01
0.01
0.01
0.01
0.01
0.01
0.01
0.01
0.01
0.01
0.01
0.01
0.01
0.01
0.01
0.01
0.01
0.01
0.01
0.01
0.01
0.01
0.01
0.01
0.01
0.01
0.01
0.01
0.01
0.01
0.01
0.01
0.01
0.01
0.01
0.01
0.01
0.01
0.01
0.01
0.01
0.01
0.01
0.01
0.01
0.01
0.01
0.01
0.01
0.01
2.547434e-05
4.494337e-05
7.362138e-05
0.0003124859
0.0005346152
0.001060498
0.001559155
0.002025943
0.002594814
0.003097502
0.003568559
0.00404087
0.004443656
0.004738967
0.004948498
0.005120817
0.004814251
0.004697241
0.004639371
0.004663055
0.004738282
0.004840102
0.004984518
0.005176133
0.005410008
0.005708647
0.006069608
0.006476723
0.006583494
0.006650492
0.006703803
0.006745163
0.006776128
0.006798424
0.006814037
0.006824981
0.006833115
0.00684003
0.006847074
0.006855387
0.006866144
0.006881367
0.006875207
0.006880149
0.006894531
0.006917824
0.006950115
0.006991695
0.007042829
0.00710368
0.007174148
0.007253762
0.007341744
0.007437175
0.007538928
0.007645582
0.007755408
0.007866399
0.007976274
0.008082424
0.008182003
0.008273974
0.008357429
0.008431463
0.008495414
0.008548994
0.008592315
0.00862587
0.008650479
0.008667232
0.008677421
0.008682474
0.008683878
0.008683105
0.008681551
0.008680487
0.008681024
0.0086841
0.008690408
0.008697219
0.008706482
0.008719404
0.008736622
0.008758383
0.008784752
0.008815611
0.008850828
0.008890214
0.008933562
0.008980675
0.009031366
0.009085453
0.00914274
0.009203025
0.009266104
0.009331776
0.009399837
0.00947008
0.009542279
0.009616218
0.009691664
0.009768365
0.009846092
0.009924671
0.01
0.01
0.01
0.01
0.01
0.01
0.01
0.01
0.01
0.01
0.01
0.01
0.01
0.01
0.01
0.01
0.01
0.01
0.01
0.01
0.01
0.01
0.01
0.01
0.01
0.01
0.01
0.01
0.01
0.01
0.01
0.01
0.01
0.01
0.01
0.01
0.01
0.01
0.01
0.01
0.01
0.01
0.01
0.01
0.01
0.01
0.01
0.01
0.01
0.01
0.01
0.01
0.01
0.01
0.01
0.01
0.01
0.01
0.01
0.01
0.01
0.01
0.01
0.01
0.01
0.01
0.01
0.01
0.01
0.01
0.01
0.01
0.01
0.01
0.01
0.01
0.01
0.01
0.01
0.01
0.01
0.01
0.01
0.01
0.01
0.01
0.01
0.01
0.01
0.01
0.01
0.01
0.01
0.01
0.01
0.01
0.01
0.01
0.01
0.01
0.01
0.01
0.01
0.01
0.01
0.01
0.01
0.01
0.01
0.01
0.01
0.01
0.01
0.01
0.01
0.01
0.01
0.01
0.01
0.01
0.01
0.01
0.01
0.01
0.01
0.01
0.01
0.01
0.01
0.01
0.01
0.01
0.01
0.01
0.01
0.01
0.01
0.01
0.01
0.01
0.01
0.01
0.01
0.01
0.01
0.01
0.01
0.01
0.01
0.01
0.01
0.01
0.01
0.01
0.01
0.01
0.01
0.01
0.01
0.01
0.01
0.01
0.01
0.01
0.01
0.01
0.01
0.01
0.01
0.01
0.01
0.01
0.01
0.01
0.01
0.01
0.01
0.01
0.01
0.01
0.01
0.01
0.01
0.01
0.01
0.01
0.01
0.01
0.01
0.01
0.01
0.01
0.01
0.01
0.01
0.01
0.01
0.01
0.01
0.01
0.01
0.01
0.01
0.01
0.01
0.01
0.01
0.01
0.01
0.01
0.01
0.01
0.01
0.01
0.01
0.01
0.01
0.01
0.01
0.01
0.01
0.01
0.01
0.01
0.01
0.01
0.01
0.01
0.01
0.01
0.01
0.01
0.01
0.01
0.01
0.01
0.01
0.01
0.01
0.01
0.01
0.01
0.01
0.01
0.01
0.01
0.01
0.01
0.01
0.01
0.01
0.01
0.01
0.01
0.01
0.01
0.01
0.01
0.01
0.01
0.01
0.01
0.01
0.01
0.01
0.01
0.01
0.01
0.01
0.01
0.01
0.01
0.01
0.01
0.01
0.01
0.01
0.01
0.01
0.01
0.01
0.01
0.01
0.01
0.01
0.01
0.01
0.01
0.01
0.01
0.01
0.01
0.01
0.01
0.01
0.01
0.01
0.01
0.01
0.01
0.01
0.01
0.01
0.01
0.01
0.01
0.01
0.01
0.01
0.01
0.01
0.01
0.01
0.01
0.01
0.01
0.01
0.01
0.01
0.01
0.01
0.01
0.01
0.01
0.01
0.01
0.01
0.01
0.01
0.01
0.01
0.01
0.01
0.01
0.01
0.01
0.01
0.01
0.01
0.01
0.01
0.01
0.01
0.01
0.01
0.01
0.01
0.01
0.01
0.01
0.01
0.01
0.01
0.01
0.01
0.01
0.01
0.01
0.01
0.01
0.01
0.01
0.01
0.01
0.01
0.01
0.01
0.01
0.01
0.01
2.286978e-05
3.76436e-05
7.035974e-05
0.0002299467
0.0003873586
0.0006600782
0.0008589011
0.001089098
0.001361597
0.001624971
0.001923385
0.002308936
0.002731289
0.003189225
0.003702127
0.004649202
0.004979731
0.005256822
0.005463075
0.005589867
0.005565474
0.00529217
0.004995382
0.004705292
0.004406933
0.004178194
0.004154161
0.004092235
0.004070833
0.004113528
0.004205433
0.004337477
0.004512006
0.004735566
0.005006694
0.005326911
0.005694462
0.006103729
0.006571397
0.007082626
0.007234882
0.007350588
0.00745158
0.007540217
0.007618623
0.007688729
0.007752301
0.007810954
0.007866184
0.007919376
0.007971874
0.008024652
0.008076438
0.008129792
0.008186522
0.008248131
0.008316029
0.008391472
0.008475557
0.008569215
0.008673006
0.008786904
0.008910033
0.00904183
0.009181866
0.00932896
0.009481412
0.009637159
0.009793903
0.009949272
0.01
0.01
0.01
0.01
0.01
0.01
0.01
0.01
0.01
0.01
0.01
0.01
0.01
0.01
0.01
0.01
0.01
0.01
0.01
0.01
0.01
0.01
0.01
0.01
0.01
0.01
0.01
0.01
0.01
0.01
0.01
0.01
0.01
0.01
0.01
0.01
0.01
0.01
0.01
0.01
0.01
0.01
0.01
0.01
0.01
0.01
0.01
0.01
0.01
0.01
0.01
0.01
0.01
0.01
0.01
0.01
0.01
0.01
0.01
0.01
0.01
0.01
0.01
0.01
0.01
0.01
0.01
0.01
0.01
0.01
0.01
0.01
0.01
0.01
0.01
0.01
0.01
0.01
0.01
0.01
0.01
0.01
0.01
0.01
0.01
0.01
0.01
0.01
0.01
0.01
0.01
0.01
0.01
0.01
0.01
0.01
0.01
0.01
0.01
0.01
0.01
0.01
0.01
0.01
0.01
0.01
0.01
0.01
0.01
0.01
0.01
0.01
0.01
0.01
0.01
0.01
0.01
0.01
0.01
0.01
0.01
0.01
0.01
0.01
0.01
0.01
0.01
0.01
0.01
0.01
0.01
0.01
0.01
0.01
0.01
0.01
0.01
0.01
0.01
0.01
0.01
0.01
0.01
0.01
0.01
0.01
0.01
0.01
0.01
0.01
0.01
0.01
0.01
0.01
0.01
0.01
0.01
0.01
0.01
0.01
0.01
0.01
0.01
0.01
0.01
0.01
0.01
0.01
0.01
0.01
0.01
0.01
0.01
0.01
0.01
0.01
0.01
0.01
0.01
0.01
0.01
0.01
0.01
0.01
0.01
0.01
0.01
0.01
0.01
0.01
0.01
0.01
0.01
0.01
0.01
0.01
0.01
0.01
0.01
0.01
0.01
0.01
0.01
0.01
0.01
0.01
0.01
0.01
0.01
0.01
0.01
0.01
0.01
0.01
0.01
0.01
0.01
0.01
0.01
0.01
0.01
0.01
0.01
0.01
0.01
0.01
0.01
0.01
0.01
0.01
0.01
0.01
0.01
0.01
0.01
0.01
0.01
0.01
0.01
0.01
0.01
0.01
0.01
0.01
0.01
0.01
0.01
0.01
0.01
0.01
0.01
0.01
0.01
0.01
0.01
0.01
0.01
0.01
0.01
0.01
0.01
0.01
0.01
0.01
0.01
0.01
0.01
0.01
0.01
0.01
0.01
0.01
0.01
0.01
0.01
0.01
0.01
0.01
0.01
0.01
0.01
0.01
0.01
0.01
0.01
0.01
0.01
0.01
0.01
0.01
0.01
0.01
0.01
0.01
0.01
0.01
0.01
0.01
0.01
0.01
0.01
0.01
0.01
0.01
0.01
0.01
0.01
0.01
0.01
0.01
0.01
0.01
0.01
0.01
0.01
0.01
0.01
0.01
0.01
0.01
0.01
0.01
0.01
0.01
0.01
0.01
0.01
0.01
0.01
0.01
0.01
0.01
0.01
0.01
0.01
0.01
0.01
0.01
0.01
0.01
0.01
0.01
0.01
0.01
0.01
0.01
0.01
0.01
0.01
0.01
0.01
0.01
0.01
0.01
0.01
0.01
0.01
0.01
0.01
0.01
0.01
0.01
0.01
0.01
0.01
0.01
0.01
0.01
0.01
0.01
0.01
0.01
0.01
0.01
0.01
0.01
0.01
0.01
0.01
0.01
0.01
0.01
0.01
0.01
0.01
0.01
0.01
0.01
0.01
0.01
0.01
0.01
0.01
0.01
0.01
0.01
0.01
0.01
0.01
0.01
0.01
0.01
0.01
0.01
0.01
0.01
0.01
0.01
0.01
0.01
0.01
0.01
0.01
0.01
3.278305e-05
0.0002251665
0.0003727135
0.000538982
0.0007075333
0.0009068725
0.001138133
0.00139411
0.001678846
0.002044215
0.002770202
0.003108122
0.003465928
0.003826999
0.004189745
0.004548459
0.004886691
0.005187817
0.005438457
0.005479521
0.005627759
0.005548395
0.005447646
0.005283252
0.005061558
0.004818631
0.004573562
0.004328305
0.004104301
0.003922018
0.003774222
0.003695701
0.003636508
0.003642537
0.003704748
0.003816941
0.003974819
0.004177496
0.004426714
0.004721468
0.005063235
0.005452284
0.005881211
0.006357593
0.006897366
0.007425798
0.007597875
0.007752913
0.007893529
0.008022042
0.008140462
0.008250584
0.008354031
0.008452311
0.008546856
0.008639068
0.008730231
0.008821411
0.008913932
0.009009181
0.009108642
0.009213855
0.009326219
0.009446963
0.009577863
0.009720307
0.009875204
0.01
0.01
0.01
0.01
0.01
0.01
0.01
0.01
0.01
0.01
0.01
0.01
0.01
0.01
0.01
0.01
0.01
0.01
0.01
0.01
0.01
0.01
0.01
0.01
0.01
0.01
0.01
0.01
0.01
0.01
0.01
0.01
0.01
0.01
0.01
0.01
0.01
0.01
0.01
0.01
0.01
0.01
0.01
0.01
0.01
0.01
0.01
0.01
0.01
0.01
0.01
0.01
0.01
0.01
0.01
0.01
0.01
0.01
0.01
0.01
0.01
0.01
0.01
0.01
0.01
0.01
0.01
0.01
0.01
0.01
0.01
0.01
0.01
0.01
0.01
0.01
0.01
0.01
0.01
0.01
0.01
0.01
0.01
0.01
0.01
0.01
0.01
0.01
0.01
0.01
0.01
0.01
0.01
0.01
0.01
0.01
0.01
0.01
0.01
0.01
0.01
0.01
0.01
0.01
0.01
0.01
0.01
0.01
0.01
0.01
0.01
0.01
0.01
0.01
0.01
0.01
0.01
0.01
0.01
0.01
0.01
0.01
0.01
0.01
0.01
0.01
0.01
0.01
0.01
0.01
0.01
0.01
0.01
0.01
0.01
0.01
0.01
0.01
0.01
0.01
0.01
0.01
0.01
0.01
0.01
0.01
0.01
0.01
0.01
0.01
0.01
0.01
0.01
0.01
0.01
0.01
0.01
0.01
0.01
0.01
0.01
0.01
0.01
0.01
0.01
0.01
0.01
0.01
0.01
0.01
0.01
0.01
0.01
0.01
0.01
0.01
0.01
0.01
0.01
0.01
0.01
0.01
0.01
0.01
0.01
0.01
0.01
0.01
0.01
0.01
0.01
0.01
0.01
0.01
0.01
0.01
0.01
0.01
0.01
0.01
0.01
0.01
0.01
0.01
0.01
0.01
0.01
0.01
0.01
0.01
0.01
0.01
0.01
0.01
0.01
0.01
0.01
0.01
0.01
0.01
0.01
0.01
0.01
0.01
0.01
0.01
0.01
0.01
0.01
0.01
0.01
0.01
0.01
0.01
0.01
0.01
0.01
0.01
0.01
0.01
0.01
0.01
0.01
0.01
0.01
0.01
0.01
0.01
0.01
0.01
0.01
0.01
0.01
0.01
0.01
0.01
0.01
0.01
0.01
0.01
0.01
0.01
0.01
0.01
0.01
0.01
0.01
0.01
0.01
0.01
0.01
0.01
0.01
0.01
0.01
0.01
0.01
0.01
0.01
0.01
0.01
0.01
0.01
0.01
0.01
0.01
0.01
0.01
0.01
0.01
0.01
0.01
0.01
0.01
0.01
0.01
0.01
0.01
0.01
0.01
0.01
0.01
0.01
0.01
0.01
0.01
0.01
0.01
0.01
0.01
0.01
0.01
0.01
0.01
0.01
0.01
0.01
0.01
0.01
0.01
0.01
0.01
0.01
0.01
0.01
0.01
0.01
0.01
0.01
0.01
0.01
0.01
0.01
0.01
0.01
0.01
0.01
0.01
0.01
0.01
0.01
0.01
0.01
0.01
0.01
0.01
0.01
0.01
0.01
0.01
0.01
0.01
0.01
0.01
0.01
0.01
0.01
0.01
0.01
0.01
0.01
0.01
0.01
0.01
0.01
0.01
0.01
0.01
0.01
0.01
0.01
0.01
0.01
0.01
0.01
0.01
0.01
0.01
0.01
0.01
0.01
0.01
0.01
0.01
0.01
0.01
0.01
0.01
0.01
0.01
0.01
0.01
0.01
0.01
0.01
0.01
0.01
0.01
0.01
0.01
0.01
0.01
0.01
0.01
0.01
0.01
0.01
0.01
0.01
0.01
0.01
0.01
0.01
0.01
0.01
0.01
0.01
0.01
0.01
0.01
0.01
0.01
2.696232e-05
0.0004605745
0.00101509
0.001402892
0.001790232
0.002171345
0.002541397
0.002898321
0.003239234
0.003558247
0.003859833
0.004222265
0.004584383
0.004931409
0.005253987
0.005541241
0.005726684
0.005731697
0.005679933
0.005595278
0.005517028
0.005346149
0.00514194
0.004907924
0.004658452
0.00440986
0.004176303
0.003953005
0.003756289
0.003602095
0.003499082
0.003451492
0.00344876
0.003497709
0.003599276
0.003753097
0.003956272
0.004206992
0.004505487
0.004849658
0.005239141
0.005674088
0.006151373
0.006670116
0.007235544
0.007598783
0.007799632
0.007985087
0.008156626
0.008315808
0.008464235
0.008603521
0.008735256
0.008860989
0.008982244
0.009100522
0.009217294
0.00933404
0.009452254
0.009573344
0.009699029
0.009831386
0.009972442
0.01
0.01
0.01
0.01
0.01
0.01
0.01
0.01
0.01
0.01
0.01
0.01
0.01
0.01
0.01
0.01
0.01
0.01
0.01
0.01
0.01
0.01
0.01
0.01
0.01
0.01
0.01
0.01
0.01
0.01
0.01
0.01
0.01
0.01
0.01
0.01
0.01
0.01
0.01
0.01
0.01
0.01
0.01
0.01
0.01
0.01
0.01
0.01
0.01
0.01
0.01
0.01
0.01
0.01
0.01
0.01
0.01
0.01
0.01
0.01
0.01
0.01
0.01
0.01
0.01
0.01
0.01
0.01
0.01
0.01
0.01
0.01
0.01
0.01
0.01
0.01
0.01
0.01
0.01
0.01
0.01
0.01
0.01
0.01
0.01
0.01
0.01
0.01
0.01
0.01
0.01
0.01
0.01
0.01
0.01
0.01
0.01
0.01
0.01
0.01
0.01
0.01
0.01
0.01
0.01
0.01
0.01
0.01
0.01