/*--------------------------------*- C++ -*----------------------------------*\
| =========                 |                                                 |
| \\      /  F ield         | foam-extend: Open Source CFD                    |
|  \\    /   O peration     | Version:     3.1                                |
|   \\  /    A nd           | Web:         http://www.extend-project.de       |
|    \\/     M anipulation  |                                                 |
\*---------------------------------------------------------------------------*/
FoamFile
{
    version     2.0;
    format      ascii;
    class       volScalarField;
    location    "2";
    object      omega;
}
// * * * * * * * * * * * * * * * * * * * * * * * * * * * * * * * * * * * * * //

dimensions      [0 0 -1 0 0 0 0];

internalField   nonuniform List<scalar> 
119952
(
145.8728
176.698
166.0928
147.6324
134.9631
136.7111
139.9573
143.7613
147.7493
151.7684
155.7717
159.7702
163.7883
167.86
172.0222
176.3116
180.7667
185.4387
190.4434
196.2611
168.7975
168.3328
169.9497
147.237
145.0341
143.7953
142.7721
141.7977
138.8636
164.17
294.0055
242.8627
204.5053
177.9741
158.7609
144.2052
132.6435
123.161
115.1516
106.0883
84.71031
70.58205
61.27859
54.81909
50.15542
46.67742
43.99942
41.86396
40.08203
31.4141
29.75654
28.21528
26.83222
25.62317
24.58364
23.69807
22.94668
22.3093
21.77069
21.27463
20.75543
20.21672
19.67776
19.15971
18.67855
18.24195
17.84801
17.49178
17.66134
17.76562
17.65941
17.45815
17.23041
17.00171
16.79409
16.60839
16.44946
16.32055
16.22216
16.15237
16.10763
16.08361
16.07589
16.08007
16.09151
16.10415
16.10648
16.0735
16.00637
15.95133
15.87242
15.77633
15.71956
15.69115
15.73489
15.9266
16.66196
18.08514
18.42838
18.50861
18.49994
18.4547
18.3925
18.32506
18.26009
18.20257
18.15534
18.11944
18.09478
18.08054
18.07552
18.07845
18.08817
18.10364
18.12398
18.14844
18.17639
18.20732
18.24078
18.27643
18.31397
18.35317
18.39384
18.43583
18.47903
18.52332
18.56867
18.61503
18.66238
18.71071
18.76004
18.81038
18.86176
18.91422
18.96781
19.02259
19.07862
19.13597
19.19473
19.25499
19.31684
19.38034
19.44557
19.51252
19.58079
19.64804
19.71262
20.0836
20.58186
21.01372
21.35859
21.6271
21.83632
22.00208
22.13691
22.25011
22.3484
22.43659
22.51805
22.59522
22.66984
22.74315
22.81607
22.88926
22.9632
23.03827
23.11476
23.19288
23.2728
23.35467
23.4386
23.52468
23.613
23.70365
23.79665
23.89208
23.99003
24.09058
24.19384
24.29999
24.40858
24.51997
24.63488
24.75292
24.8746
25.00021
25.1298
25.26342
25.40131
25.54375
25.69107
25.84354
26.00152
26.16518
26.33438
26.50392
26.66472
31.85416
37.97536
40.58773
41.86559
42.57795
43.02968
43.35703
43.62676
43.87339
44.11528
44.36259
44.62005
44.89047
45.17489
45.47366
45.78676
46.11397
46.45502
46.8097
47.17779
47.55919
47.95391
48.36194
48.78358
49.21868
49.66756
50.13089
50.6075
51.09727
51.6037
52.12541
52.66041
53.19972
53.72687
54.17463
53.77445
52.6528
51.83135
51.1888
50.65297
50.17984
49.74322
49.32824
48.92656
48.53353
48.14707
47.76651
47.39089
47.0202
46.65453
46.29396
45.9386
45.5885
45.24368
44.90414
44.56985
44.24077
43.91682
43.59793
43.28402
42.97484
42.67049
42.37121
42.07645
41.78617
41.50033
41.21881
40.94154
40.66853
40.39165
32.79097
31.48087
30.20237
29.04341
28.04944
27.22768
26.566
26.04128
25.62748
25.29982
25.037
24.82202
24.64189
24.48705
24.35057
24.22751
24.11436
24.00864
23.90856
23.81284
23.72058
23.63109
23.54387
23.45857
23.37491
23.29271
23.21181
23.1321
23.05347
22.97586
22.89921
22.82349
22.74864
22.67465
22.60148
22.52911
22.45755
22.38677
22.31678
22.2476
22.17928
22.11195
22.04589
21.98175
21.92127
21.86733
21.81978
21.77443
21.7305
21.68767
21.64577
21.60476
21.56452
21.52622
21.49363
21.37498
21.17682
20.92641
20.65488
20.38802
20.14317
19.92933
19.74908
19.60074
19.48031
19.38294
19.30384
19.23878
19.18424
19.13746
19.09629
19.05916
19.0249
18.99268
18.96189
18.9321
18.90302
18.87444
18.84621
18.81823
18.79042
18.76276
18.73519
18.7077
18.68029
18.65293
18.62564
18.59842
18.57126
18.54418
18.51718
18.49027
18.46346
18.43675
18.41016
18.38368
18.35734
18.33113
18.30506
18.27914
18.25338
18.22777
18.20232
18.17704
18.15194
18.127
18.10224
18.07766
18.05325
18.02902
18.00496
17.98108
17.95737
17.93384
17.91046
17.88725
17.8642
17.84129
17.81851
17.79585
17.77328
17.75079
17.72835
17.7059
17.68341
17.66081
17.63802
17.61492
17.59134
17.56704
17.54166
17.51464
17.485
17.45085
17.40824
17.34808
17.25054
17.08525
17.3155
304.1798
250.5438
215.197
190.2265
171.4133
156.4619
144.1019
133.6052
124.1275
105.0966
85.26735
72.58651
63.93112
57.68557
52.9682
49.276
46.29422
43.81299
34.02668
32.27011
30.5969
29.05704
27.67646
26.4566
25.3866
24.45169
23.63513
22.92095
22.30953
21.73036
21.15891
20.59827
20.0563
19.54139
19.06019
18.6165
18.21192
17.99951
17.87557
17.66318
17.39663
17.09981
16.79026
16.48076
16.18027
15.8948
15.62818
15.38087
15.14794
14.92312
14.70222
14.48399
14.26926
14.06006
13.85897
13.67171
12.29084
12.13593
11.99668
11.86646
11.7413
11.61914
11.49935
11.38219
11.26837
11.15874
11.05375
10.95279
10.85493
10.75929
10.66533
10.57301
10.48293
10.39668
10.31811
10.25356
10.19992
10.15499
10.11487
10.07972
10.05082
10.02375
9.996573
9.968648
9.940252
9.912111
9.88504
9.859719
9.836585
9.815785
9.797144
9.780103
9.763594
9.74591
9.725022
9.701877
9.677068
9.650342
9.628222
9.617125
9.61832
9.635933
9.678655
9.756724
9.844845
9.920218
9.982478
10.03133
10.06826
10.09499
10.1133
10.12486
10.13123
10.13383
10.13384
10.13222
10.1297
10.12686
10.12407
10.12163
10.11972
10.11847
10.11792
10.11811
10.11905
10.12069
10.12302
10.12598
10.12953
10.13361
10.13819
10.14322
10.14865
10.15446
10.16061
10.16709
10.17388
10.18095
10.18831
10.19595
10.20384
10.212
10.2204
10.22904
10.23791
10.24699
10.25627
10.26573
10.27535
10.28509
10.29489
10.3046
10.31408
10.32431
10.33979
10.36256
10.39206
10.42628
10.46296
10.50023
10.53674
10.57165
10.60452
10.63514
10.6635
10.68973
10.71399
10.73649
10.75743
10.77703
10.79548
10.81294
10.8296
10.84559
10.86104
10.87608
10.89079
10.90527
10.91961
10.93385
10.94806
10.96229
10.97656
10.99091
11.00537
11.01996
11.03467
11.04951
11.06448
11.07962
11.09495
11.11045
11.12617
11.14216
11.15843
11.17498
11.19181
11.20894
11.22636
11.24405
11.26193
11.27973
11.29648
11.30263
11.94538
12.43485
12.67942
12.82886
12.93906
13.03003
13.10878
13.17791
13.23872
13.29218
13.33919
13.38066
13.41745
13.45035
13.48007
13.50723
13.53235
13.55588
13.5782
13.59961
13.62036
13.64066
13.66069
13.68051
13.70024
13.71991
13.73954
13.75909
13.77856
13.79788
13.81675
13.83454
13.85008
13.86079
13.85985
13.84185
13.81316
13.77824
13.74003
13.70076
13.66197
13.62462
13.58922
13.55596
13.52482
13.49566
13.46829
13.44247
13.418
13.39466
13.37227
13.35069
13.32976
13.30939
13.28947
13.26993
13.2507
13.23174
13.213
13.19444
13.17605
13.15779
13.13967
13.12167
13.10379
13.08603
13.06842
13.05096
13.03374
13.01981
11.80483
11.7467
11.70243
11.66191
11.62041
11.57619
11.52923
11.48029
11.43049
11.38095
11.33264
11.28628
11.24235
11.20113
11.16274
11.12715
11.09427
11.06392
11.03593
11.01007
10.98615
10.96396
10.94331
10.92403
10.90597
10.88897
10.87291
10.85768
10.84318
10.82933
10.81603
10.80324
10.79088
10.77892
10.76731
10.75602
10.74503
10.7343
10.72383
10.71363
10.7037
10.69407
10.68482
10.67606
10.66792
10.66049
10.65365
10.64718
10.64099
10.63502
10.62922
10.62361
10.6182
10.61324
10.60854
10.60281
10.59498
10.58414
10.56978
10.55193
10.53099
10.50767
10.48275
10.45706
10.43131
10.40609
10.38185
10.35888
10.33737
10.31738
10.29893
10.28196
10.26637
10.25207
10.23893
10.22684
10.21568
10.20533
10.19571
10.18671
10.17826
10.17028
10.16271
10.1555
10.14859
10.14195
10.13554
10.12933
10.12329
10.1174
10.11164
10.106
10.10047
10.09502
10.08967
10.08439
10.07918
10.07405
10.06897
10.06396
10.05901
10.05411
10.04927
10.04448
10.03974
10.03506
10.03043
10.02585
10.02132
10.01684
10.01241
10.00802
10.00368
9.999374
9.995106
9.99087
9.98666
9.982469
9.978288
9.974106
9.969911
9.965686
9.961412
9.957065
9.952616
9.948028
9.943253
9.938229
9.93287
9.927058
9.920624
9.913316
9.904746
9.894321
9.881156
9.864122
9.842202
9.81832
9.803426
382.6822
360.7138
325.6463
291.1423
261.6776
236.8496
215.6587
197.5251
181.8903
165.6006
112.1162
87.64744
75.74734
69.00037
64.4313
60.84743
57.7757
55.02036
52.48384
40.2398
37.4109
34.91945
32.79746
31.01927
29.53119
28.27626
27.20434
26.27514
25.46409
24.70037
23.91194
23.11573
22.34087
21.61062
20.93878
20.33021
19.78355
19.28432
19.19355
18.94622
18.61081
18.23279
17.84109
17.45357
17.08067
16.7279
16.39785
16.09139
15.80492
15.5321
15.26867
15.01256
14.76358
14.52259
14.29088
14.07186
12.56273
12.39235
12.24079
12.10224
11.97267
11.84955
11.73137
11.6173
11.507
11.40032
11.29735
11.19798
11.10169
11.00794
10.91628
10.82638
10.73809
10.65141
10.56657
10.48521
10.4086
10.33638
10.26765
10.20142
10.13677
10.07303
10.00976
9.946752
9.884015
9.82172
9.759983
9.698858
9.638298
9.578178
9.518362
9.458758
9.399216
9.338181
9.30862
9.271809
9.230194
9.185329
9.138144
9.089224
9.039002
8.987863
8.936206
8.884455
8.832981
8.782053
8.731844
8.682441
8.633914
8.586428
8.540356
8.49624
8.454282
8.41402
8.376423
8.342695
8.314542
8.291537
8.272449
8.255724
8.240242
8.225264
8.210361
8.195378
8.180342
8.165375
8.15062
8.136183
8.122087
8.108226
8.094331
8.07998
8.064732
8.048775
8.032434
8.016018
8.001894
7.992861
7.989964
7.994311
8.007592
8.0298
8.05541
8.080164
8.103207
8.124145
8.142528
8.158151
8.171003
8.181217
8.189031
8.19475
8.19871
8.201248
8.202676
8.203278
8.203297
8.202941
8.202382
8.201757
8.201176
8.200717
8.200441
8.200385
8.200573
8.201016
8.201716
8.202668
8.203863
8.20529
8.206939
8.208797
8.210856
8.213107
8.215543
8.218159
8.220949
8.223908
8.22703
8.230306
8.233728
8.237283
8.240959
8.244737
8.248597
8.252511
8.256448
8.260368
8.26427
8.268125
8.271916
8.275878
8.280673
8.286873
8.294838
8.304621
8.316028
8.328702
8.342248
8.356286
8.370491
8.384618
8.398482
8.411955
8.424955
8.437439
8.44939
8.460814
8.471736
8.482162
8.492145
8.501726
8.510957
8.519863
8.528488
8.536879
8.545072
8.5531
8.560994
8.568789
8.576493
8.584125
8.591718
8.599269
8.606795
8.614312
8.621833
8.629379
8.636977
8.644661
8.652422
8.660242
8.668116
8.676041
8.684016
8.692038
8.7001
8.708191
8.716263
8.724238
8.732068
8.740081
8.759834
8.761478
8.761641
8.764975
8.772047
8.782232
8.794677
8.808569
8.82327
8.838274
8.853206
8.867799
8.881873
8.895323
8.908093
8.920232
8.931743
8.942647
8.952976
8.962769
8.972074
8.980917
8.989336
8.997356
9.004998
9.012277
9.01919
9.025722
9.031832
9.037428
9.042347
9.046277
9.048792
9.049881
9.049246
9.046557
9.041983
9.0359
9.028629
9.020444
9.011589
9.002278
8.992696
8.982999
8.973319
8.963727
8.954308
8.945113
8.936167
8.927486
8.919071
8.91092
8.903021
8.895361
8.887923
8.88069
8.873645
8.866771
8.860053
8.853477
8.847032
8.840707
8.834493
8.828385
8.822382
8.816486
8.810713
8.805039
8.799353
8.792061
8.819445
8.835671
8.844558
8.848164
8.847633
8.843659
8.836744
8.827333
8.81586
8.802753
8.788427
8.773271
8.757628
8.741774
8.725947
8.710339
8.695097
8.680329
8.66611
8.652484
8.639475
8.62709
8.615318
8.604143
8.59354
8.583479
8.573928
8.564853
8.55622
8.547997
8.540151
8.532654
8.525477
8.518596
8.511988
8.505635
8.49952
8.493631
8.48796
8.482502
8.47726
8.472246
8.467479
8.46299
8.458811
8.454958
8.451388
8.448044
8.444887
8.44189
8.439035
8.436317
8.43373
8.431318
8.429069
8.426773
8.424197
8.421101
8.417264
8.412524
8.406797
8.40008
8.392443
8.384009
8.374939
8.365407
8.355589
8.345648
8.33573
8.325954
8.316416
8.307189
8.298322
8.289848
8.281782
8.274127
8.266879
8.260022
8.25354
8.24741
8.24161
8.236114
8.230899
8.225942
8.22122
8.216712
8.212399
8.208263
8.204287
8.200457
8.196761
8.193186
8.189723
8.186361
8.183094
8.179915
8.176816
8.173794
8.170844
8.167961
8.165143
8.162386
8.159687
8.157045
8.154458
8.151922
8.149438
8.147002
8.144613
8.14227
8.13997
8.13771
8.135489
8.133303
8.131148
8.12902
8.126913
8.124822
8.12274
8.120656
8.118561
8.116443
8.114286
8.112073
8.109782
8.107387
8.104853
8.10214
8.09919
8.095931
8.092263
8.08805
8.083103
8.077173
8.06995
8.061118
8.05054
8.038967
8.02912
323.9364
249.5617
266.498
110.4197
82.9078
50.06188
46.17239
42.8913
39.20713
37.66577
36.69775
35.74496
34.74622
33.27897
31.93402
30.75238
29.6678
28.65114
27.69139
26.78345
25.92431
25.11195
24.32246
23.52503
22.7295
21.95582
21.21943
20.5275
19.88119
19.2785
18.72145
16.82026
16.34465
15.89927
15.47568
15.07054
14.68305
14.31347
13.96228
13.62995
13.31663
13.02184
12.74425
12.48227
12.23471
12.00085
11.78034
11.57308
11.37916
11.19916
11.03496
10.88539
10.7484
10.622
10.50455
10.39483
10.2919
10.19507
10.10379
10.0176
9.936011
9.85853
9.78466
9.713919
9.645875
9.580172
9.516403
9.452416
9.419866
9.381992
9.340918
9.298016
9.254149
9.209829
9.165356
9.120909
9.076562
9.032398
8.988487
8.944813
8.90137
8.858146
8.815091
8.772175
8.72937
8.686678
8.644147
8.601962
8.560391
8.519642
8.479865
8.441125
8.403445
8.366886
8.331279
8.296192
8.261394
8.226763
8.192255
8.157859
8.123562
8.089338
8.055153
8.020972
7.986783
7.952766
7.921653
7.89203
7.863096
7.834374
7.805564
7.776484
7.747017
7.717052
7.686632
7.655866
7.624868
7.59376
7.56265
7.531618
7.500722
7.470014
7.439542
7.409396
7.379895
7.352178
7.326136
7.301913
7.280013
7.260637
7.243561
7.228341
7.214513
7.201656
7.189422
7.177553
7.165877
7.154299
7.142769
7.131262
7.119753
7.108196
7.096507
7.084574
7.072305
7.059784
7.047201
7.034878
7.023718
7.014855
7.009028
7.00678
7.008514
7.013879
7.021274
7.029381
7.037582
7.045668
7.053395
7.060546
7.06697
7.072568
7.077299
7.081168
7.08422
7.08653
7.08819
7.089299
7.089961
7.090277
7.09034
7.090234
7.090032
7.089794
7.089571
7.0894
7.089309
7.089319
7.089443
7.08969
7.090064
7.090568
7.091203
7.09197
7.092869
7.0939
7.095064
7.09636
7.097788
7.099346
7.101029
7.102833
7.104744
7.106747
7.108848
7.111062
7.11338
7.115787
7.118273
7.120825
7.123402
7.12597
7.128525
7.131113
7.133865
7.13694
7.140499
7.144659
7.149478
7.154955
7.161015
7.1676
7.174601
7.181903
7.189423
7.197071
7.204772
7.212466
7.220109
7.227653
7.235064
7.242324
7.249433
7.256387
7.263191
7.269846
7.276361
7.282748
7.289017
7.295181
7.301249
7.307236
7.313156
7.318995
7.324777
7.330505
7.336185
7.341822
7.34742
7.352987
7.358529
7.364051
7.369555
7.375039
7.380506
7.385955
7.391387
7.396804
7.402204
7.407583
7.412941
7.418241
7.423504
7.428878
7.435304
7.440591
7.444957
7.449063
7.453417
7.458318
7.463857
7.470028
7.476764
7.483953
7.491475
7.49921
7.507052
7.514918
7.522715
7.53035
7.537794
7.545018
7.552003
7.558749
7.565232
7.571452
7.577427
7.583141
7.588592
7.59377
7.598676
7.603297
7.607609
7.611582
7.615133
7.618161
7.620538
7.622133
7.622829
7.622562
7.621399
7.619475
7.616892
7.613745
7.610132
7.606136
7.601834
7.597301
7.592583
7.587731
7.582804
7.57785
7.572887
7.567937
7.563027
7.558171
7.553379
7.54866
7.544017
7.539451
7.534963
7.530551
7.526213
7.521948
7.517755
7.513637
7.509572
7.505571
7.501638
7.497785
7.494
7.490291
7.486697
7.483484
7.483891
7.485738
7.487867
7.489661
7.490779
7.49103
7.490314
7.488592
7.485877
7.482216
7.477685
7.472378
7.466404
7.45988
7.45292
7.445632
7.438116
7.430459
7.42274
7.415024
7.407368
7.399814
7.3924
7.385151
7.378088
7.371225
7.364569
7.358125
7.351894
7.345875
7.340063
7.334455
7.329045
7.323828
7.318799
7.313954
7.309287
7.304797
7.300482
7.296343
7.292383
7.288608
7.285028
7.281654
7.278496
7.275556
7.272818
7.270255
7.267847
7.265576
7.263431
7.261404
7.259488
7.257691
7.256003
7.254374
7.252736
7.251018
7.249142
7.247032
7.244623
7.241863
7.238724
7.235196
7.231291
7.227037
7.222474
7.217651
7.212624
7.207446
7.202172
7.19685
7.191526
7.186237
7.181016
7.175888
7.170875
7.16599
7.161245
7.156646
7.152196
7.147898
7.143748
7.139744
7.135882
7.132157
7.128564
7.125096
7.121748
7.118514
7.115389
7.112365
7.109439
7.106605
7.103858
7.101195
7.09861
7.096101
7.093664
7.091295
7.088992
7.086752
7.084573
7.082451
7.080386
7.078374
7.076414
7.074503
7.072639
7.07082
7.069043
7.067306
7.065605
7.063938
7.062299
7.060685
7.059089
7.057507
7.05593
7.054351
7.05276
7.051146
7.049496
7.047794
7.046023
7.044161
7.04218
7.040048
7.037724
7.035154
7.032272
7.028993
7.025209
7.020792
7.015602
7.009515
7.002512
6.994897
6.987984
321.9213
224.3443
174.3921
139.344
110.2659
80.40488
64.58833
56.85169
49.6946
45.63802
42.8199
40.52864
38.98501
38.09412
37.58531
37.08273
36.29211
35.70508
34.83437
33.86515
32.8563
31.80928
30.72121
29.60529
28.47089
27.32898
26.19953
25.10469
24.05581
23.05699
22.11208
21.22202
20.38602
19.60017
18.86051
18.16335
17.50555
16.88446
16.29785
15.74379
15.22073
14.72475
14.28826
13.86991
13.47062
13.09006
12.72783
12.3835
12.05664
11.74683
11.45374
11.17703
10.91633
10.67114
10.44086
10.2249
10.02271
9.833792
9.657764
9.49443
9.34372
9.20491
9.07736
8.960488
8.853666
8.756202
8.667371
8.58644
8.512684
8.445395
8.383889
8.327505
8.275624
8.227665
8.183092
8.14142
8.102226
8.065144
8.029952
7.998679
7.969982
7.943018
7.91727
7.892392
7.868116
7.844278
7.820714
7.797302
7.773947
7.750562
7.727071
7.70342
7.679565
7.655469
7.631101
7.606442
7.58148
7.556219
7.530686
7.504948
7.479096
7.453216
7.427364
7.401561
7.375774
7.349988
7.324249
7.298554
7.272863
7.247129
7.221425
7.195793
7.170232
7.144722
7.119245
7.093785
7.068385
7.043353
7.018794
6.994707
6.971015
6.947613
6.924404
6.90132
6.878396
6.855543
6.832678
6.809764
6.786794
6.763773
6.740715
6.717625
6.694502
6.671318
6.648131
6.625378
6.603443
6.582448
6.562519
6.543852
6.526583
6.510715
6.49614
6.482693
6.470181
6.458403
6.447175
6.436336
6.425757
6.415337
6.404998
6.394677
6.384321
6.373879
6.363307
6.352586
6.341771
6.330986
6.320446
6.310566
6.301876
6.294815
6.289701
6.286694
6.285607
6.285863
6.286937
6.288438
6.290189
6.29207
6.293976
6.295817
6.297519
6.299026
6.3003
6.301321
6.302088
6.302611
6.302915
6.303031
6.302995
6.302846
6.30262
6.302352
6.302072
6.301805
6.301573
6.301392
6.301276
6.301233
6.301273
6.301401
6.301622
6.301942
6.302364
6.302893
6.303533
6.304289
6.305162
6.306156
6.307268
6.308496
6.309855
6.311377
6.313063
6.314886
6.316802
6.318789
6.320831
6.32291
6.325009
6.327113
6.329207
6.331288
6.333364
6.335467
6.337642
6.339951
6.342453
6.345205
6.348247
6.351599
6.355272
6.359269
6.363539
6.368061
6.372795
6.377716
6.382796
6.387986
6.393255
6.398578
6.403932
6.409298
6.414661
6.42001
6.425337
6.430636
6.435903
6.441137
6.446337
6.451502
6.456633
6.461729
6.466789
6.471811
6.476797
6.481743
6.48665
6.491516
6.49634
6.501124
6.505866
6.510568
6.515229
6.51985
6.524432
6.528974
6.533478
6.537943
6.542368
6.546752
6.551091
6.55539
6.559687
6.564099
6.56843
6.572558
6.576519
6.5804
6.584305
6.588314
6.59249
6.596869
6.601461
6.606259
6.611243
6.616383
6.621649
6.627005
6.632352
6.637673
6.642945
6.648146
6.653261
6.658269
6.663156
6.667911
6.672521
6.67698
6.681251
6.685332
6.689205
6.69285
6.696237
6.699324
6.702061
6.704382
6.706221
6.707517
6.708245
6.708433
6.70814
6.707434
6.70634
6.704917
6.703206
6.701241
6.699058
6.696682
6.69414
6.691461
6.688669
6.685795
6.682843
6.679831
6.676766
6.673673
6.670562
6.667442
6.66432
6.661204
6.658098
6.655007
6.651939
6.648908
6.645883
6.642879
6.639906
6.636969
6.634076
6.631225
6.628428
6.625703
6.623147
6.621171
6.619803
6.618919
6.618355
6.617947
6.617546
6.617029
6.616296
6.615268
6.61389
6.612128
6.609962
6.60739
6.604438
6.601134
6.597511
6.593605
6.589455
6.585102
6.580584
6.575938
6.571198
6.566397
6.561563
6.55672
6.55189
6.547092
6.542342
6.537653
6.533036
6.5285
6.524054
6.519704
6.515456
6.511316
6.507288
6.503377
6.499587
6.495924
6.492394
6.489001
6.485752
6.482656
6.479717
6.476943
6.474332
6.471878
6.469566
6.467385
6.465324
6.463371
6.461521
6.459767
6.458106
6.456532
6.455023
6.453556
6.452104
6.450637
6.449125
6.447534
6.445835
6.443999
6.442004
6.439835
6.437483
6.434947
6.43223
6.429344
6.426303
6.423126
6.419832
6.416442
6.412979
6.409462
6.405912
6.402347
6.398782
6.395233
6.391712
6.38823
6.384796
6.381416
6.378097
6.374843
6.371658
6.368544
6.365503
6.362535
6.35964
6.356819
6.35407
6.351392
6.348784
6.346245
6.343773
6.341367
6.339024
6.336743
6.334522
6.332359
6.330253
6.328202
6.326204
6.324258
6.322361
6.320512
6.318708
6.316948
6.315229
6.313548
6.311904
6.310292
6.308709
6.307151
6.305613
6.30409
6.302576
6.301065
6.299548
6.298017
6.296462
6.294871
6.293231
6.291525
6.289736
6.287842
6.285815
6.283625
6.28123
6.278585
6.275631
6.272302
6.268523
6.264218
6.259327
6.253846
6.247944
6.242495
168.5445
126.9048
186.6179
92.65725
78.4032
64.56104
60.3058
56.75199
52.98955
50.88782
48.62339
45.75861
43.19973
40.93709
39.01077
35.93044
35.5211
35.46861
35.75313
36.31853
37.02419
37.73873
38.34341
38.74885
38.91939
38.6941
37.84935
37.00277
36.0167
34.89075
33.67705
32.42015
31.1462
29.87199
28.61365
27.38145
26.18411
25.02844
23.91746
22.86085
21.86629
20.93064
20.05004
19.22084
18.43974
17.70354
17.00923
16.354
15.73532
15.15091
14.59889
14.07718
13.58695
13.12579
12.69145
12.28198
11.89581
11.53165
11.18836
10.86492
10.5605
10.27435
10.00583
9.75416
9.518468
9.298015
9.092104
8.900061
8.721239
8.554999
8.400606
8.257735
8.126161
8.0056
7.895686
7.795971
7.705933
7.624993
7.552515
7.48782
7.430201
7.378934
7.3333
7.292598
7.256159
7.223361
7.193635
7.166478
7.141476
7.118475
7.097214
7.077391
7.058754
7.041038
7.024016
7.00751
6.991354
6.975403
6.959529
6.943616
6.927567
6.911308
6.894793
6.877978
6.860828
6.843308
6.825387
6.807033
6.788209
6.768877
6.749111
6.728994
6.708541
6.687724
6.666454
6.644795
6.623014
6.601263
6.57964
6.558211
6.536884
6.5156
6.494338
6.473084
6.451828
6.430562
6.40929
6.38806
6.36692
6.345911
6.325055
6.30436
6.283818
6.263421
6.243168
6.223034
6.202994
6.183027
6.163125
6.143286
6.123519
6.103848
6.08431
6.06497
6.045941
6.027362
6.009359
5.992007
5.975375
5.959539
5.944562
5.930463
5.917224
5.904793
5.89309
5.88202
5.871478
5.861362
5.851572
5.842021
5.832633
5.823342
5.814097
5.804854
5.795587
5.786288
5.77699
5.767767
5.758744
5.750125
5.742165
5.7351
5.729109
5.724277
5.720541
5.717678
5.715447
5.713637
5.712122
5.71082
5.709674
5.708642
5.70769
5.706794
5.705931
5.705087
5.704255
5.703431
5.702618
5.701823
5.701054
5.700321
5.699634
5.699
5.698427
5.697921
5.697485
5.697125
5.696841
5.696638
5.696517
5.696481
5.696532
5.696676
5.696914
5.697253
5.697695
5.698246
5.698908
5.699683
5.700587
5.701666
5.702902
5.704254
5.705707
5.707245
5.708856
5.710524
5.712235
5.713975
5.715729
5.717484
5.719232
5.720965
5.722683
5.724392
5.726107
5.727849
5.729644
5.731523
5.733514
5.735642
5.737928
5.740391
5.743046
5.745865
5.748848
5.751998
5.755304
5.758747
5.762313
5.765987
5.769753
5.773599
5.777511
5.781479
5.785494
5.789547
5.793631
5.797741
5.801871
5.806016
5.810171
5.81433
5.81849
5.822644
5.826788
5.830918
5.835028
5.839113
5.843171
5.847199
5.851193
5.855152
5.859075
5.86296
5.866806
5.870612
5.874379
5.878105
5.881789
5.885432
5.889032
5.892593
5.896122
5.89964
5.903133
5.906574
5.909952
5.913273
5.916555
5.919823
5.923104
5.926423
5.9298
5.933249
5.93678
5.940395
5.944093
5.947866
5.951703
5.95559
5.95951
5.96345
5.967394
5.971326
5.97523
5.97909
5.982889
5.986613
5.99024
5.993752
5.99713
6.000351
6.00339
6.006216
6.008794
6.011085
6.01305
6.014657
6.015888
6.016753
6.01728
6.017502
6.017445
6.017137
6.016602
6.01586
6.01493
6.013831
6.012576
6.011182
6.009662
6.008032
6.006303
6.004494
6.002596
6.00063
5.998607
5.996537
5.994427
5.992284
5.990116
5.98793
5.985742
5.983545
5.981335
5.979127
5.976927
5.974741
5.972574
5.970432
5.968321
5.966252
5.96425
5.962385
5.960704
5.959226
5.957942
5.956825
5.955833
5.954921
5.954038
5.953138
5.952176
5.951116
5.949927
5.948584
5.947073
5.945382
5.943509
5.941454
5.939223
5.936826
5.934273
5.931579
5.928759
5.925829
5.922804
5.919699
5.916531
5.913312
5.910058
5.90678
5.903492
5.900205
5.896928
5.893674
5.89045
5.887268
5.884135
5.881061
5.878053
5.87512
5.872269
5.869508
5.866844
5.864284
5.861833
5.859495
5.857271
5.855158
5.853149
5.851238
5.849417
5.847681
5.846023
5.844438
5.842922
5.84147
5.840072
5.838717
5.837393
5.836088
5.834791
5.833488
5.832164
5.830805
5.829398
5.82793
5.826389
5.824767
5.823056
5.821254
5.819358
5.817369
5.815292
5.81313
5.810892
5.808584
5.806215
5.803794
5.801331
5.798835
5.796314
5.793778
5.791234
5.78869
5.786153
5.783629
5.781124
5.778641
5.776187
5.773764
5.771374
5.769022
5.766708
5.764434
5.762202
5.760012
5.757866
5.755762
5.753701
5.751684
5.74971
5.747779
5.74589
5.744042
5.742235
5.740468
5.73874
5.73705
5.735396
5.733777
5.732192
5.730637
5.729111
5.72761
5.726133
5.724675
5.723232
5.721799
5.720373
5.718945
5.717511
5.716062
5.714591
5.713086
5.711538
5.709934
5.70826
5.706497
5.704626
5.702624
5.700463
5.698111
5.69553
5.69268
5.689517
5.686
5.682098
5.677811
5.673247
5.66903
75.17402
48.19669
44.7713
42.73127
41.96294
40.87244
39.87837
38.97316
38.19226
37.01213
33.83096
33.48521
33.19342
32.97873
32.82101
32.72316
32.75268
32.95775
33.36623
33.96068
34.65438
35.49118
36.50542
37.5826
38.58383
39.41851
40.00053
40.29272
40.1861
39.73261
38.99278
37.98174
36.83628
35.56619
34.21736
32.84045
31.47333
30.14011
28.85383
27.62278
26.44912
25.33145
24.26717
23.25104
22.2809
21.36413
20.50113
19.68428
18.90872
18.171
17.4683
16.79834
16.15923
15.5494
14.96758
14.41283
13.88429
13.38146
12.90378
12.45054
12.0209
11.61403
11.22912
10.86535
10.52188
10.19798
9.892926
9.605715
9.335308
9.081036
8.842336
8.618581
8.409115
8.213257
8.030304
7.859632
7.701125
7.554629
7.419936
7.296793
7.184879
7.083804
6.993108
6.91225
6.840613
6.777514
6.722217
6.673948
6.631922
6.595356
6.563496
6.535626
6.511088
6.489292
6.469737
6.451997
6.435706
6.420555
6.406256
6.392583
6.379346
6.366398
6.35361
6.340858
6.328017
6.314953
6.301547
6.28783
6.273806
6.259463
6.244791
6.229786
6.214463
6.198851
6.183004
6.16687
6.150394
6.133571
6.11642
6.098977
6.081314
6.063512
6.045634
6.02772
6.009784
5.991821
5.973828
5.955803
5.937747
5.919656
5.901531
5.883371
5.865186
5.846993
5.828812
5.810666
5.792576
5.77456
5.756631
5.738803
5.721085
5.703482
5.686003
5.668656
5.651455
5.634421
5.617582
5.600978
5.584657
5.56868
5.553106
5.537987
5.523363
5.509271
5.495742
5.482801
5.47046
5.458716
5.44755
5.436931
5.426814
5.417144
5.407861
5.398901
5.390205
5.381716
5.373382
5.36516
5.357016
5.348929
5.34089
5.332914
5.325039
5.317333
5.309897
5.302855
5.296331
5.290423
5.285185
5.280601
5.276587
5.273027
5.26981
5.26685
5.264088
5.261486
5.259019
5.256676
5.254448
5.252333
5.25033
5.248439
5.246664
5.245008
5.243474
5.242062
5.240774
5.239609
5.238563
5.237635
5.236819
5.236112
5.235509
5.235008
5.234605
5.234299
5.234089
5.233974
5.233957
5.234039
5.234223
5.234511
5.234905
5.235408
5.236052
5.236852
5.237768
5.238785
5.239895
5.241091
5.242361
5.243696
5.245083
5.24651
5.247964
5.249433
5.250906
5.252374
5.253829
5.255269
5.256695
5.258109
5.25952
5.26094
5.262383
5.263864
5.265401
5.267008
5.268702
5.2705
5.272393
5.274395
5.276507
5.278728
5.281057
5.283489
5.286018
5.288639
5.291344
5.294128
5.296984
5.299907
5.302891
5.305931
5.309021
5.312157
5.315333
5.318544
5.321784
5.325049
5.328331
5.331625
5.334926
5.338228
5.341525
5.344813
5.348088
5.351344
5.354581
5.357794
5.360981
5.36414
5.36727
5.370369
5.373436
5.37647
5.379469
5.382435
5.385368
5.388269
5.391144
5.393994
5.396815
5.399605
5.402362
5.405088
5.407788
5.41047
5.413143
5.415819
5.418506
5.421214
5.42395
5.426719
5.429524
5.432366
5.435244
5.438154
5.441092
5.444051
5.447022
5.449996
5.452962
5.455908
5.458822
5.461688
5.464492
5.467216
5.469842
5.47235
5.474717
5.47692
5.478934
5.480735
5.482304
5.48363
5.484716
5.485572
5.486216
5.486664
5.486931
5.487031
5.486977
5.486781
5.486452
5.486001
5.485436
5.484765
5.483996
5.483138
5.482197
5.481179
5.480091
5.478939
5.47773
5.476469
5.475162
5.473816
5.472437
5.471035
5.4696
5.468147
5.466679
5.4652
5.463716
5.462232
5.460751
5.459281
5.457824
5.456391
5.454995
5.453651
5.452372
5.451169
5.450042
5.448991
5.448005
5.447072
5.446174
5.445294
5.444412
5.443509
5.442569
5.441574
5.440513
5.439374
5.438148
5.43683
5.435417
5.433906
5.4323
5.4306
5.42881
5.426935
5.424981
5.422955
5.420864
5.418716
5.416518
5.414279
5.412007
5.40971
5.407398
5.405079
5.402762
5.400455
5.398167
5.395907
5.393681
5.391499
5.389367
5.387292
5.385281
5.383336
5.381463
5.379663
5.377933
5.376273
5.374677
5.373143
5.371666
5.370242
5.368867
5.367539
5.366253
5.365003
5.363785
5.362593
5.361421
5.360265
5.359119
5.357978
5.356835
5.355684
5.35452
5.353335
5.352122
5.350878
5.349595
5.34827
5.3469
5.345482
5.344016
5.342501
5.340937
5.339328
5.337675
5.335981
5.334251
5.332488
5.330697
5.328882
5.327048
5.325199
5.32334
5.321475
5.319608
5.317742
5.315882
5.314031
5.312191
5.310364
5.308554
5.306761
5.304988
5.303236
5.301507
5.299801
5.29812
5.296463
5.294832
5.293226
5.291647
5.290094
5.288567
5.287066
5.28559
5.284139
5.282712
5.281308
5.279925
5.278561
5.277216
5.275885
5.274567
5.273258
5.271955
5.270654
5.269349
5.268036
5.266709
5.26536
5.263984
5.26257
5.261111
5.259593
5.258007
5.256336
5.254565
5.252675
5.250645
5.248451
5.246069
5.243475
5.240644
5.237561
5.234226
5.230718
5.227491
92.74797
35.40668
28.64023
27.45814
27.03364
26.94682
27.06379
27.30323
27.63188
28.04327
28.43941
28.6805
28.95914
29.31257
29.75398
30.30875
31.00735
31.86821
32.89487
34.04315
35.29051
36.6829
38.01589
39.24315
40.12738
40.61585
40.65396
40.35266
39.7017
38.73602
37.51796
36.14562
34.6652
33.14972
31.64636
30.19922
28.83025
27.55002
26.35983
25.25979
24.24532
23.30595
22.43119
21.61239
20.84421
20.12054
19.43301
18.77517
18.14236
17.5311
16.93889
16.36408
15.80564
15.26296
14.73589
14.22466
13.7297
13.25149
12.79053
12.34722
11.92174
11.51427
11.12493
10.75332
10.39903
10.06195
9.741801
9.438102
9.15036
8.878142
8.620966
8.378322
8.149692
7.934585
7.732574
7.543327
7.366602
7.202224
7.050044
6.909909
6.781633
6.664981
6.559644
6.465225
6.381235
6.307086
6.242108
6.185555
6.13663
6.09451
6.058364
6.027378
6.000775
5.97783
5.957887
5.940359
5.924741
5.910627
5.897642
5.885431
5.873732
5.862452