/*--------------------------------*- C++ -*----------------------------------*\
| =========                 |                                                 |
| \\      /  F ield         | foam-extend: Open Source CFD                    |
|  \\    /   O peration     | Version:     3.1                                |
|   \\  /    A nd           | Web:         http://www.extend-project.de       |
|    \\/     M anipulation  |                                                 |
\*---------------------------------------------------------------------------*/
FoamFile
{
    version     2.0;
    format      ascii;
    class       volScalarField;
    location    "26";
    object      H;
}
// * * * * * * * * * * * * * * * * * * * * * * * * * * * * * * * * * * * * * //

dimensions      [0 1 0 0 0 0 0];

internalField   nonuniform List<scalar> 
2539
(
0.857522
0.856819
0.855887
0.854965
0.854042
0.853119
0.852196
0.851272
0.850349
0.849425
0.8485
0.847576
0.846651
0.845726
0.844801
0.843876
0.84295
0.842025
0.841099
0.840172
0.839246
0.838319
0.837392
0.836465
0.835537
0.83461
0.833682
0.832753
0.831825
0.830896
0.829967
0.829038
0.828109
0.827179
0.826249
0.825319
0.824388
0.823458
0.822527
0.821595
0.820664
0.819732
0.8188
0.817868
0.816935
0.816002
0.815069
0.814136
0.813202
0.812268
0.811334
0.810399
0.809464
0.808529
0.807594
0.806658
0.805722
0.804786
0.80385
0.802913
0.801976
0.801038
0.800101
0.799163
0.798225
0.797286
0.796347
0.795408
0.794468
0.793529
0.792588
0.791648
0.790707
0.789766
0.788825
0.787883
0.786941
0.785999
0.785056
0.784113
0.78317
0.782226
0.781282
0.780338
0.779393
0.778448
0.777503
0.776557
0.775611
0.774665
0.773718
0.772771
0.771823
0.770876
0.769928
0.768979
0.76803
0.767081
0.766131
0.765181
0.764231
0.76328
0.762329
0.761378
0.760426
0.759474
0.758521
0.757568
0.756615
0.755661
0.754707
0.753752
0.752797
0.751842
0.750886
0.74993
0.748974
0.748017
0.747059
0.746101
0.745143
0.744184
0.743225
0.742266
0.741306
0.740345
0.739385
0.738423
0.737462
0.7365
0.735537
0.734574
0.73361
0.732646
0.731682
0.730717
0.729752
0.728786
0.72782
0.726853
0.725886
0.724918
0.72395
0.722981
0.722012
0.721042
0.720072
0.719101
0.71813
0.717158
0.716186
0.715213
0.71424
0.713266
0.712292
0.711317
0.710342
0.709366
0.70839
0.707413
0.706435
0.705457
0.704478
0.703499
0.702519
0.701539
0.700558
0.699576
0.698594
0.697612
0.696628
0.695645
0.69466
0.693675
0.692689
0.691703
0.690716
0.689729
0.68874
0.687752
0.686762
0.685772
0.684781
0.68379
0.682569
0.681215
0.680415
0.680098
0.679806
0.679515
0.679224
0.678933
0.678642
0.678351
0.67806
0.677769
0.677478
0.677187
0.676895
0.676604
0.676313
0.676021
0.67573
0.675438
0.675146
0.674854
0.674563
0.674271
0.673979
0.673687
0.673395
0.673103
0.672811
0.672518
0.672226
0.671934
0.671641
0.671349
0.671056
0.670763
0.670471
0.670178
0.669885
0.669592
0.669299
0.669006
0.668713
0.66842
0.668127
0.667833
0.66754
0.667247
0.666953
0.66666
0.666366
0.666072
0.665779
0.665485
0.665191
0.664897
0.664603
0.664309
0.664015
0.66372
0.663426
0.663132
0.662837
0.662543
0.662248
0.661953
0.661659
0.661364
0.661069
0.660774
0.660479
0.660184
0.659889
0.659594
0.659298
0.659003
0.658708
0.658412
0.658116
0.657821
0.657525
0.657229
0.656933
0.656637
0.656341
0.656045
0.655749
0.655453
0.655157
0.65486
0.654564
0.654267
0.653971
0.653674
0.653377
0.65308
0.652784
0.652487
0.65219
0.651892
0.651595
0.651298
0.651001
0.650703
0.650406
0.650108
0.64981
0.649513
0.649215
0.648917
0.648619
0.648321
0.648023
0.647724
0.647426
0.647128
0.646829
0.646531
0.646232
0.645934
0.645635
0.645336
0.645037
0.644738
0.644439
0.64414
0.64384
0.643541
0.643242
0.642942
0.642643
0.642343
0.642043
0.641743
0.641443
0.641143
0.640843
0.640543
0.640243
0.639943
0.639642
0.639342
0.639041
0.63874
0.63844
0.638139
0.637838
0.637537
0.637236
0.636935
0.636633
0.636332
0.636031
0.635729
0.635427
0.635126
0.634824
0.634522
0.63422
0.633918
0.633616
0.633314
0.633011
0.632709
0.632406
0.632104
0.631801
0.631498
0.631195
0.630892
0.630589
0.630286
0.629983
0.62968
0.629376
0.629073
0.628769
0.628465
0.628162
0.627858
0.627554
0.62725
0.626945
0.626641
0.626337
0.626032
0.625728
0.625423
0.625118
0.624814
0.624509
0.624204
0.623898
0.623593
0.623288
0.622982
0.622677
0.622371
0.622071
0.621648
0.623706
0.59843
0.572796
0.544282
0.527657
0.51714
0.509631
0.503736
0.498781
0.494421
0.490467
0.48681
0.483381
0.480136
0.477045
0.474086
0.47124
0.468496
0.465841
0.463268
0.460768
0.458336
0.455966
0.453653
0.451393
0.449183
0.447018
0.444897
0.442817
0.440775
0.438769
0.436797
0.434858
0.432949
0.43107
0.429218
0.427393
0.425594
0.423818
0.422066
0.420336
0.418627
0.416938
0.415269
0.413619
0.411987
0.410373
0.408775
0.407193
0.405627
0.404076
0.402539
0.401016
0.399506
0.398009
0.396525
0.395052
0.393591
0.392141
0.390702
0.389272
0.387853
0.386442
0.385041
0.383647
0.382262
0.380885
0.379514
0.37815
0.376792
0.37544
0.374092
0.37275
0.371411
0.370075
0.368742
0.367411
0.366081
0.364751
0.36342
0.362086
0.360749
0.359407
0.358058
0.356699
0.355328
0.353942
0.352536
0.351105
0.349644
0.348143
0.346592
0.344978
0.343286
0.341493
0.339577
0.337509
0.335259
0.3328
0.330113
0.3272
0.319638
0.31642
0.313461
0.310721
0.308165
0.305771
0.303515
0.301383
0.299359
0.297433
0.295594
0.293834
0.292146
0.290523
0.28896
0.287453
0.285996
0.284587
0.283222
0.281898
0.280613
0.279363
0.278147
0.276964
0.27581
0.274684
0.273586
0.272513
0.271464
0.270439
0.269435
0.268452
0.26749
0.266546
0.265621
0.264713
0.263823
0.262948
0.262089
0.261245
0.260416
0.2596
0.258798
0.258009
0.257232
0.256467
0.255714
0.254973
0.254242
0.253522
0.252812
0.252112
0.251422
0.250742
0.25007
0.249408
0.248754
0.248108
0.247471
0.246842
0.24622
0.245606
0.244999
0.2444
0.243808
0.243222
0.242643
0.242071
0.241505
0.240946
0.240392
0.239845
0.239303
0.238767
0.238236
0.237711
0.237192
0.236678
0.236168
0.235664
0.235165
0.234671
0.234181
0.233696
0.233216
0.23274
0.232268
0.231801
0.231338
0.230879
0.230425
0.229974
0.229528
0.229085
0.228645
0.228205
0.227767
0.227337
0.226933
0.226585
0.226291
0.22602
0.22575
0.225481
0.225214
0.224948
0.224684
0.224421
0.224159
0.223899
0.22364
0.223383
0.223127
0.222872
0.222619
0.222366
0.222116
0.221866
0.221618
0.221371
0.221125
0.22088
0.220637
0.220395
0.220154
0.219914
0.219675
0.219438
0.219201
0.218966
0.218732
0.218499
0.218267
0.218037
0.217807
0.217579
0.217351
0.217125
0.216899
0.216675
0.216452
0.216229
0.216008
0.215788
0.215568
0.21535
0.215133
0.214916
0.214701
0.214487
0.214273
0.214061
0.213849
0.213638
0.213429
0.21322
0.213012
0.212805
0.212599
0.212393
0.212189
0.211985
0.211783
0.211581
0.21138
0.21118
0.21098
0.210782
0.210584
0.210387
0.210191
0.209996
0.209802
0.209608
0.209415
0.209223
0.209032
0.208841
0.208651
0.208462
0.208274
0.208087
0.2079
0.207714
0.207528
0.207344
0.20716
0.206977
0.206794
0.206612
0.206431
0.206251
0.206071
0.205892
0.205714
0.205536
0.205359
0.205183
0.205007
0.204832
0.204658
0.204484
0.204311
0.204139
0.203967
0.203796
0.203625
0.203455
0.203286
0.203117
0.202949
0.202782
0.202615
0.202448
0.202283
0.202118
0.201953
0.201789
0.201626
0.201463
0.201301
0.201139
0.200978
0.200818
0.200658
0.200498
0.20034
0.200181
0.200024
0.199866
0.19971
0.199554
0.199398
0.199243
0.199088
0.198934
0.198781
0.198628
0.198475
0.198323
0.198172
0.198021
0.19787
0.19772
0.197571
0.197422
0.197273
0.197125
0.196978
0.196831
0.196684
0.196538
0.196392
0.196247
0.196103
0.195958
0.195815
0.195671
0.195528
0.195386
0.195244
0.195102
0.194961
0.194821
0.194681
0.194541
0.194402
0.194263
0.194124
0.193986
0.193849
0.193712
0.193575
0.193438
0.193303
0.193167
0.193032
0.192897
0.192763
0.192629
0.192496
0.192363
0.19223
0.192098
0.191966
0.191835
0.191704
0.191573
0.191443
0.191313
0.191183
0.191054
0.190925
0.190797
0.190669
0.190541
0.190414
0.190287
0.190161
0.190035
0.189909
0.189783
0.189658
0.189534
0.189409
0.189285
0.189162
0.189038
0.188916
0.188793
0.188671
0.188549
0.188427
0.188306
0.188185
0.188065
0.187945
0.187825
0.187705
0.187586
0.187467
0.187349
0.187231
0.187113
0.186995
0.186878
0.186761
0.186644
0.186528
0.186412
0.186297
0.186181
0.186066
0.185952
0.185837
0.185723
0.18561
0.185496
0.185383
0.18527
0.185158
0.185045
0.184933
0.184822
0.18471
0.184599
0.184489
0.184378
0.184268
0.184158
0.184049
0.183939
0.18383
0.183721
0.183613
0.183505
0.183397
0.183289
0.183182
0.183075
0.182968
0.182862
0.182755
0.18265
0.182544
0.182438
0.182333
0.182228
0.182124
0.182019
0.181915
0.181812
0.181708
0.181605
0.181502
0.181399
0.181296
0.181194
0.181092
0.18099
0.180889
0.180788
0.180687
0.180586
0.180485
0.180385
0.180285
0.180185
0.180086
0.179987
0.179888
0.179789
0.17969
0.179592
0.179494
0.179396
0.179299
0.179201
0.179104
0.179007
0.178911
0.178814
0.178718
0.178622
0.178526
0.178431
0.178336
0.178241
0.178146
0.178051
0.177957
0.177863
0.177769
0.177675
0.177582
0.177488
0.177395
0.177303
0.17721
0.177118
0.177026
0.176934
0.176842
0.17675
0.176659
0.176568
0.176477
0.176386
0.176296
0.176206
0.176116
0.176026
0.175936
0.175847
0.175758
0.175669
0.17558
0.175491
0.175403
0.175315
0.175227
0.175139
0.175051
0.174964
0.174876
0.174789
0.174703
0.17462
0.174535
0.174441
0.174332
0.174218
0.174104
0.17399
0.173877
0.173764
0.173651
0.173538
0.173426
0.173314
0.173203
0.173092
0.172981
0.17287
0.17276
0.17265
0.17254
0.172431
0.172321
0.172213
0.172104
0.171996
0.171888
0.17178
0.171673
0.171566
0.171459
0.171353
0.171246
0.17114
0.171035
0.170929
0.170824
0.17072
0.170615
0.170511
0.170407
0.170303
0.1702
0.170096
0.169994
0.169891
0.169789
0.169686
0.169585
0.169483
0.169382
0.169281
0.16918
0.169079
0.168979
0.168879
0.168779
0.16868
0.168581
0.168482
0.168383
0.168284
0.168186
0.168088
0.167991
0.167893
0.167796
0.167699
0.167602
0.167506
0.167409
0.167313
0.167217
0.167122
0.167027
0.166931
0.166837
0.166742
0.166648
0.166554
0.16646
0.166366
0.166273
0.166179
0.166086
0.165994
0.165901
0.165809
0.165717
0.165625
0.165533
0.165442
0.165351
0.16526
0.165169
0.165078
0.164988
0.164898
0.164808
0.164718
0.164629
0.16454
0.164451
0.164362
0.164273
0.164185
0.164097
0.164009
0.163921
0.163833
0.163746
0.163659
0.163572
0.163485
0.163399
0.163313
0.163226
0.163141
0.163055
0.162969
0.162884
0.162799
0.162714
0.162629
0.162545
0.16246
0.162376
0.162292
0.162209
0.162125
0.162042
0.161958
0.161875
0.161793
0.16171
0.161628
0.161545
0.161463
0.161382
0.1613
0.161218
0.161137
0.161056
0.160975
0.160894
0.160814
0.160733
0.160653
0.160573
0.160493
0.160414
0.160334
0.160255
0.160176
0.160097
0.160018
0.159939
0.159861
0.159783
0.159705
0.159627
0.159549
0.159471
0.159394
0.159317
0.15924
0.159163
0.159086
0.15901
0.158933
0.158857
0.158781
0.158705
0.158629
0.158554
0.158478
0.158403
0.15833
0.158255
0.158176
0.158087
0.158002
0.157973
0.158054
0.15811
0.158121
0.158099
0.158081
0.158065
0.158051
0.158043
0.158044
0.158049
0.158055
0.158063
0.158076
0.158097
0.158121
0.158149
0.158182
0.158219
0.158262
0.158309
0.15836
0.158415
0.158472
0.158534
0.158602
0.158676
0.158755
0.158837
0.158923
0.159014
0.159111
0.159213
0.15932
0.15943
0.159544
0.159662
0.159784
0.159912
0.160046
0.160184
0.160326
0.160476
0.160631
0.160791
0.160954
0.161123
0.161295
0.161473
0.161656
0.161844
0.162036
0.162234
0.162439
0.162651
0.162868
0.163089
0.163315
0.163546
0.163782
0.164024
0.164274
0.164531
0.164794
0.165061
0.165333
0.165609
0.165892
0.166183
0.166482
0.166788
0.1671
0.167418
0.167743
0.168074
0.168411
0.168755
0.169105
0.169464
0.169833
0.170213
0.170601
0.170993
0.171389
0.171787
0.17219
0.172601
0.173032
0.173498
0.174
0.17451
0.174968
0.175303
0.175498
0.175695
0.176226
0.177494
0.179615
0.181901
0.182547
0.179244
0.171369
0.162833
0.155369
0.155298
0.155228
0.155158
0.155088
0.155018
0.154948
0.154878
0.154809
0.15474
0.15467
0.154601
0.154532
0.154464
0.154395
0.154327
0.154258
0.15419
0.154122
0.154054
0.153986
0.153919
0.153851
0.153784
0.153717
0.15365
0.153583
0.153516
0.153449
0.153383
0.153316
0.15325
0.153184
0.153118
0.153052
0.152986
0.152921
0.152855
0.15279
0.152725
0.15266
0.152595
0.15253
0.152465
0.152401
0.152336
0.152272
0.152208
0.152144
0.15208
0.152016
0.151953
0.151889
0.151826
0.151762
0.151699
0.151636
0.151573
0.151511
0.151448
0.151385
0.151323
0.151261
0.151199
0.151137
0.151075
0.151013
0.150951
0.15089
0.150828
0.150767
0.150706
0.150645
0.150584
0.150523
0.150462
0.150401
0.150341
0.150281
0.15022
0.15016
0.1501
0.150041
0.149981
0.149919
0.149855
0.149795
0.149756
0.149747
0.14975
0.149754
0.149757
0.149761
0.149764
0.149767
0.149771
0.149774
0.149778
0.149781
0.149784
0.149788
0.149791
0.149795
0.149798
0.149801
0.149805
0.149808
0.149812
0.149815
0.149818
0.149822
0.149825
0.149829
0.149832
0.149835
0.149839
0.149842
0.149845
0.149849
0.149852
0.149856
0.149859
0.149862
0.149866
0.149869
0.149872
0.149876
0.149879
0.149883
0.149886
0.149889
0.149893
0.149896
0.149899
0.149903
0.149906
0.149909
0.149913
0.149916
0.149919
0.149923
0.149926
0.149929
0.149933
0.149936
0.149939
0.149943
0.149946
0.149949
0.149953
0.149956
0.149959
0.149962
0.149966
0.149969
0.149972
0.149976
0.149979
0.149982
0.149986
0.149989
0.149992
0.149996
0.149999
0.150002
0.150005
0.150009
0.150012
0.150015
0.150019
0.150022
0.150025
0.150028
0.150032
0.150035
0.150038
0.150041
0.150045
0.150048
0.150051
0.150054
0.150058
0.150061
0.150064
0.150068
0.150071
0.150074
0.150077
0.150081
0.150084
0.150087
0.15009
0.150093
0.150097
0.1501
0.150103
0.150106
0.15011
0.150113
0.150116
0.150119
0.150123
0.150126
0.150129
0.150132
0.150135
0.150139
0.150142
0.150145
0.150148
0.150151
0.150155
0.150158
0.150161
0.150164
0.150168
0.150171
0.150174
0.150177
0.15018
0.150183
0.150187
0.15019
0.150193
0.150196
0.150199
0.150203
0.150206
0.150209
0.150212
0.150215
0.150218
0.150222
0.150225
0.150228
0.150231
0.150234
0.150237
0.150241
0.150244
0.150247
0.15025
0.150253
0.150256
0.15026
0.150263
0.150266
0.150269
0.150272
0.150275
0.150278
0.150282
0.150285
0.150288
0.150291
0.150294
0.150297
0.1503
0.150303
0.150307
0.15031
0.150313
0.150316
0.150319
0.150322
0.150325
0.150328
0.150331
0.150335
0.150338
0.150341
0.150344
0.150347
0.15035
0.150353
0.150356
0.150359
0.150362
0.150366
0.150369
0.150372
0.150375
0.150378
0.150381
0.150384
0.150387
0.15039
0.150393
0.150396
0.150399
0.150403
0.150406
0.150409
0.150412
0.150415
0.150418
0.150421
0.150424
0.150427
0.15043
0.150433
0.150436
0.150439
0.150442
0.150445
0.150448
0.150451
0.150454
0.150458
0.150461
0.150464
0.150467
0.15047
0.150473
0.150476
0.150479
0.150482
0.150485
0.150488
0.150491
0.150494
0.150497
0.1505
0.150503
0.150506
0.150509
0.150512
0.150515
0.150518
0.150521
0.150524
0.150527
0.15053
0.150533
0.150536
0.150539
0.150542
0.150545
0.150548
0.150551
0.150554
0.150557
0.15056
0.150563
0.150566
0.150569
0.150572
0.150574
0.150578
0.150583
0.150589
0.150585
0.150558
0.150525
0.150602
0.150969
0.151442
0.150615
0.146207
0.140508
0.148951
0.203659
0.361953
0.58911
0.664061
0.665833
0.66609
0.666404
0.666717
0.667029
0.667341
0.667652
0.667964
0.668275
0.668587
0.668898
0.669209
0.669519
0.66983
0.67014
0.670451
0.670761
0.671071
0.67138
0.67169
0.672
0.672309
0.672619
0.672922
0.67314
0.67321
0.673215
0.673221
0.673228
0.673234
0.67324
0.673246
0.673252
0.673258
0.673264
0.67327
0.673276
0.673281
0.673287
0.673292
0.673298
0.673303
0.673309
0.673314
0.673319
0.673324
0.673329
0.673334
0.673339
0.673344
0.673349
0.673354
0.673359
0.673363
0.673368
0.673372
0.673377
0.673381
0.673385
0.67339
0.673394
0.673398
0.673402
0.673406
0.67341
0.673414
0.673418
0.673421
0.673425
0.673429
0.673432
0.673436
0.673439
0.673443
0.673446
0.673449
0.673452
0.673456
0.673459
0.673462
0.673465
0.673468
0.673471
0.673473
0.673476
0.673479
0.673482
0.673484
0.673487
0.673489
0.673492
0.673494
0.673497
0.673499
0.673502
0.673504
0.673506
0.673509
0.673511
0.673513
0.673515
0.673518
0.67352
0.673522
0.673524
0.673526
0.673528
0.67353
0.673533
0.673535
0.673537
0.673539
0.673541
0.673543
0.673545
0.673547
0.673549
0.67355
0.673552
0.673554
0.673556
0.673558
0.67356
0.673562
0.673564
0.673565
0.673567
0.673569
0.673571
0.673573
0.673574
0.673576
0.673578
0.673579
0.673581
0.673583
0.673584
0.673586
0.673588
0.673589
0.673591
0.673592
0.673594
0.673595
0.673597
0.673598
0.673599
0.673601
0.673602
0.673603
0.673605
0.673606
0.673607
0.673609
0.67361
0.673611
0.673612
0.673613
0.673615
0.673616
0.673617
0.673618
0.673619
0.67362
0.673621
0.673622
0.673624
0.673625
0.673626
0.673627
0.673628
0.673629
0.67363
0.673631
0.673632
0.673633
0.673634
0.673635
0.673636
0.673637
0.673638
0.673639
0.67364
0.67364
0.673641
0.673642
0.673643
0.673644
0.673645
0.673646
0.673647
0.673648
0.673649
0.67365
0.673651
0.673651
0.673652
0.673653
0.673654
0.673655
0.673656
0.673656
0.673657
0.673658
0.673659
0.67366
0.67366
0.673661
0.673662
0.673663
0.673663
0.673664
0.673665
0.673665
0.673666
0.673667
0.673667
0.673668
0.673668
0.673669
0.67367
0.67367
0.673671
0.673671
0.673672
0.673672
0.673673
0.673673
0.673674
0.673674
0.673675
0.673675
0.673675
0.673676
0.673676
0.673677
0.673677
0.673677
0.673678
0.673678
0.673679
0.673679
0.673679
0.67368
0.67368
0.67368
0.673681
0.673681
0.673682
0.673682
0.673682
0.673683
0.673683
0.673683
0.673684
0.673684
0.673684
0.673685
0.673685
0.673685
0.673686
0.673686
0.673686
0.673687
0.673687
0.673687
0.673688
0.673688
0.673688
0.673689
0.673689
0.673689
0.67369
0.67369
0.67369
0.67369
0.673691
0.673691
0.673691
0.673691
0.673692
0.673692
0.673692
0.673692
0.673693
0.673693
0.673693
0.673693
0.673693
0.673694
0.673694
0.673694
0.673694
0.673694
0.673694
0.673695
0.673695
0.673695
0.673695
0.673695
0.673695
0.673695
0.673695
0.673695
0.673696
0.673696
0.673696
0.673696
0.673696
0.673696
0.673696
0.673696
0.673696
0.673696
0.673696
0.673696
0.673696
0.673696
0.673696
0.673696
0.673696
0.673696
0.673697
0.673697
0.673697
0.673697
0.673697
0.673697
0.673697
0.673697
0.673697
0.673697
0.673697
0.673697
0.673697
0.673697
0.673697
0.673697
0.673697
0.673698
0.673698
0.673698
0.673698
0.673698
0.673698
0.673698
0.673698
0.673698
0.673698
0.673698
0.673698
0.673698
0.673699
0.673699
0.673699
0.673699
0.673699
0.673699
0.673699
0.673699
0.673699
0.673699
0.673699
0.673699
0.6737
0.6737
0.6737
0.6737
0.6737
0.6737
0.6737
0.6737
0.6737
0.6737
0.6737
0.6737
0.673701
0.673701
0.673701
0.673701
0.673701
0.673701
0.673701
0.673701
0.673701
0.673701
0.673701
0.673702
0.673702
0.673702
0.673702
0.673702
0.673702
0.673702
0.673702
0.673702
0.673703
0.673703
0.673703
0.673703
0.673703
0.673703
0.673703
0.673704
0.673704
0.673704
0.673704
0.673704
0.673705
0.673705
0.673705
0.673705
0.673705
0.673705
0.673706
0.673706
0.673706
0.673706
0.673706
0.673707
0.673707
0.673707
0.673707
0.673707
0.673708
0.673708
0.673708
0.673708
0.673708
0.673709
0.673709
0.673709
0.673709
0.673709
0.673709
0.67371
0.67371
0.67371
0.67371
0.67371
0.67371
0.67371
0.67371
0.67371
0.67371
0.67371
0.673711
0.673711
0.673711
0.673711
0.673711
0.67371
0.67371
0.67371
0.67371
0.67371
0.67371
0.67371
0.67371
0.67371
0.67371
0.673709
0.673709
0.673709
0.673709
0.673708
0.673708
0.673708
0.673708
0.673707
0.673707
0.673707
0.673706
0.673706
0.673705
0.673705
0.673705
0.673704
0.673704
0.673703
0.673703
0.673702
0.673701
0.673701
0.6737
0.6737
0.673699
0.673698
0.673698
0.673697
0.673696
0.673695
0.673695
0.673694
0.673693
0.673692
0.673691
0.673691
0.67369
0.673689
0.673688
0.673687
0.673686
0.673685
0.673684
0.673683
0.673682
0.673681
0.673679
0.673678
0.673677
0.673676
0.673675
0.673673
0.673672
0.673671
0.67367
0.673668
0.673667
0.673665
0.673664
0.673663
0.673661
0.67366
0.673658
0.673657
0.673655
0.673653
0.673652
0.67365
0.673648
0.673647
0.673645
0.673643
0.673641
0.673639
0.673637
0.673635
0.673633
0.673631
0.673629
0.673627
0.673625
0.673623
0.673621
0.673619
0.673616
0.673614
0.673612
0.673609
0.673607
0.673605
0.673602
0.6736
0.673597
0.673595
0.673592
0.673589
0.673587
0.673584
0.673581
0.673578
0.673575
0.673573
0.67357
0.673567
0.673564
0.673561
0.673558
0.673554
0.673551
0.673548
0.673545
0.673541
0.673538
0.673535
0.673531
0.673528
0.673524
0.673521
0.673517
0.673513
0.67351
0.673506
0.673502
0.673498
0.673494
0.67349
0.673486
0.673482
0.673478
0.673474
0.67347
0.673466
0.673461
0.673457
0.673453
0.673448
0.673444
0.673439
0.673435
0.67343
0.673425
0.673421
0.673416
0.673411
0.673406
0.673401
0.673396
0.673391
0.673386
0.673381
0.673376
0.67337
0.673365
0.67336
0.673354
0.673349
0.673343
0.673338
0.673332
0.673326
0.67332
0.673315
0.673309
0.673303
0.673297
0.673291
0.673285
0.673279
0.673273
0.673266
0.67326
0.673254
0.673247
0.673241
0.673234
0.673228
0.673221
0.673215
0.673208
0.673201
0.673194
0.673188
0.673181
0.673174
0.673167
0.67316
0.673153
0.673146
0.673138
0.673131
0.673124
0.673117
0.673109
0.673102
0.673095
0.673087
0.67308
0.673072
0.673065
0.673057
0.67305
0.673042
0.673034
0.673027
0.673019
0.673011
0.673003
0.672996
0.672988
0.67298
0.672972
0.672964
0.672956
0.672949
0.672941
0.672933
0.672925
0.672917
0.672909
0.672901
0.672893
0.672885
0.672877
0.672869
0.672862
0.672854
0.672846
0.672838
0.67283
0.672822
0.672814
0.672807
0.672799
0.672791
0.672783
0.672776
0.672768
0.67276
0.672753
0.672745
0.672738
0.67273
0.672723
0.672715
0.672708
0.672701
0.672693
0.672686
0.672679
0.672672
0.672665
0.672658
0.672651
0.672645
0.672638
0.672631
0.672625
0.672618
0.672612
0.672606
0.672599
0.672593
0.672587
0.672581
0.672576
0.67257
0.672564
0.672559
0.672553
0.672548
0.672543
0.672538
0.672533
0.672528
0.672524
0.672519
0.672515
0.67251
0.672506
0.672502
0.672499
0.672495
0.672492
0.672488
0.672485
0.672482
0.672479
0.672476
0.672474
0.672472
0.672469
0.672467
0.672466
0.672464
0.672463
0.672461
0.67246
0.672459
0.672459
0.672458
0.672458
0.672458
0.672458
0.672458
0.672459
0.67246
0.672461
0.672462
0.672463
0.672465
0.672467
0.672469
0.672471
0.672473
0.672476
0.672479
0.672482
0.672485
0.672489
0.672492
0.672496
0.6725
0.672505
0.672509
0.672514
0.672519
0.672524
0.672529
0.672534
0.67254
0.672546
0.672552
0.672558
0.672564
0.672571
0.672577
0.672584
0.672591
0.672598
0.672605
0.672612
0.672619
0.672627
0.672634
0.672642
0.67265
0.672657
0.672665
0.672673
0.672681
0.672689
0.672697
0.672705
0.672713
0.672721
0.672729
0.672737
0.672745
0.672753
0.672761
0.672769
0.672777
0.672785
0.672793
0.672801
0.672808
0.672816
0.672823
0.672831
0.672838
0.672845
0.672852
0.672859
0.672866
0.672873
0.67288
0.672886
0.672892
0.672899
0.672905
0.672911
0.672916
0.672922
0.672927
0.672933
0.672938
0.672943
0.672948
0.672953
0.672957
0.672961
0.672966
0.67297
0.672974
0.672977
0.672981
0.672985
0.672988
0.672991
0.672994
0.672997
0.673
0.673002
0.673005
0.673007
0.673009
0.673011
0.673013
0.673015
0.673016
0.673018
0.673019
0.673021
0.673022
0.673023
0.673024
0.673025
0.673026
0.673026
0.673027
0.673027
0.673028
0.673028
0.673028
0.673028
0.673029
0.673029
0.673029
0.673028
0.673028
0.673028
0.673028
0.673027
0.673027
0.673026
0.673026
0.673025
0.673025
0.673024
0.673024
0.673023
0.673022
0.673021
0.67302
0.67302
0.673019
0.673018
0.673017
0.673016
0.673015
0.673014
0.673013
0.673012
0.673011
0.67301
0.673009
0.673007
0.673006
0.673005
0.673004
0.673003
0.673002
0.673
0.672999
0.672998
0.672997
0.672995
0.672994
0.672993
0.672992
0.67299
0.672989
0.672988
0.672987
0.672985
0.672984
0.672983
0.672981
0.67298
0.672979
0.672977
0.672976
0.672975
0.672974
0.672972
0.672971
0.67297
0.672968
0.672967
0.672965
0.672964
0.672963
0.672961
0.67296
0.672959
0.672957
)
;

boundaryField
{
    inlet
    {
        type            criticalFlowDepthInlet;
        criticalH       0.38;
        value           uniform 0.857522;
    }
    outlet
    {
        type            zeroGradient;
    }
    right
    {
        type            empty;
    }
    left
    {
        type            empty;
    }
    atmosphere
    {
        type            empty;
    }
    bottomWall
    {
        type            empty;
    }
}


// ************************************************************************* //
