/*--------------------------------*- C++ -*----------------------------------*\
| =========                 |                                                 |
| \\      /  F ield         | foam-extend: Open Source CFD                    |
|  \\    /   O peration     | Version:     3.1                                |
|   \\  /    A nd           | Web:         http://www.extend-project.de       |
|    \\/     M anipulation  |                                                 |
\*---------------------------------------------------------------------------*/
FoamFile
{
    version     2.0;
    format      ascii;
    class       volScalarField;
    location    "26";
    object      nut;
}
// * * * * * * * * * * * * * * * * * * * * * * * * * * * * * * * * * * * * * //

dimensions      [0 2 -1 0 0 0 0];

internalField   nonuniform List<scalar> 
2539
(
0.0351367
0.0351317
0.0351384
0.0351447
0.035151
0.0351573
0.0351637
0.03517
0.0351763
0.0351827
0.035189
0.0351954
0.0352018
0.0352082
0.0352146
0.035221
0.0352274
0.0352338
0.0352403
0.0352467
0.0352532
0.0352596
0.0352661
0.0352726
0.0352791
0.0352856
0.0352921
0.0352986
0.0353052
0.0353117
0.0353183
0.0353248
0.0353314
0.035338
0.0353446
0.0353512
0.0353578
0.0353645
0.0353711
0.0353778
0.0353844
0.0353911
0.0353978
0.0354045
0.0354112
0.0354179
0.0354246
0.0354314
0.0354381
0.0354449
0.0354516
0.0354584
0.0354652
0.035472
0.0354788
0.0354857
0.0354925
0.0354993
0.0355062
0.0355131
0.03552
0.0355268
0.0355338
0.0355407
0.0355476
0.0355545
0.0355615
0.0355685
0.0355754
0.0355824
0.0355894
0.0355964
0.0356035
0.0356105
0.0356175
0.0356246
0.0356317
0.0356387
0.0356458
0.035653
0.0356601
0.0356672
0.0356744
0.0356815
0.0356887
0.0356959
0.0357031
0.0357103
0.0357175
0.0357247
0.035732
0.0357392
0.0357465
0.0357538
0.0357611
0.0357684
0.0357757
0.0357831
0.0357904
0.0357978
0.0358052
0.0358126
0.03582
0.0358274
0.0358348
0.0358423
0.0358497
0.0358572
0.0358647
0.0358722
0.0358797
0.0358873
0.0358948
0.0359024
0.0359099
0.0359175
0.0359251
0.0359327
0.0359404
0.035948
0.0359557
0.0359634
0.0359711
0.0359788
0.0359865
0.0359942
0.036002
0.0360097
0.0360175
0.0360253
0.0360331
0.036041
0.0360488
0.0360567
0.0360645
0.0360724
0.0360803
0.0360882
0.0360962
0.0361041
0.0361121
0.0361201
0.0361281
0.0361361
0.0361442
0.0361522
0.0361603
0.0361684
0.0361765
0.0361846
0.0361927
0.0362009
0.036209
0.0362172
0.0362254
0.0362337
0.0362419
0.0362502
0.0362584
0.0362667
0.036275
0.0362834
0.0362917
0.0363001
0.0363085
0.0363169
0.0363253
0.0363337
0.0363422
0.0363507
0.0363592
0.0363677
0.0363762
0.0363848
0.0363933
0.0364019
0.0364105
0.0364192
0.0364278
0.0364365
0.0364452
0.0364539
0.0364626
0.0364714
0.0364699
0.0243247
0.0243458
0.0243486
0.0243504
0.0243521
0.0243539
0.0243556
0.0243573
0.0243591
0.0243608
0.0243625
0.0243643
0.024366
0.0243678
0.0243695
0.0243713
0.024373
0.0243748
0.0243765
0.0243783
0.02438
0.0243818
0.0243835
0.0243853
0.024387
0.0243888
0.0243906
0.0243923
0.0243941
0.0243959
0.0243976
0.0243994
0.0244012
0.0244029
0.0244047
0.0244065
0.0244082
0.02441
0.0244118
0.0244136
0.0244154
0.0244171
0.0244189
0.0244207
0.0244225
0.0244243
0.0244261
0.0244278
0.0244296
0.0244314
0.0244332
0.024435
0.0244368
0.0244386
0.0244404
0.0244422
0.024444
0.0244458
0.0244476
0.0244494
0.0244512
0.024453
0.0244548
0.0244566
0.0244584
0.0244602
0.0244621
0.0244639
0.0244657
0.0244675
0.0244693
0.0244712
0.024473
0.0244748
0.0244766
0.0244784
0.0244803
0.0244821
0.0244839
0.0244858
0.0244876
0.0244894
0.0244913
0.0244931
0.0244949
0.0244968
0.0244986
0.0245005
0.0245023
0.0245042
0.024506
0.0245079
0.0245097
0.0245116
0.0245134
0.0245153
0.0245171
0.024519
0.0245208
0.0245227
0.0245246
0.0245264
0.0245283
0.0245301
0.024532
0.0245339
0.0245358
0.0245376
0.0245395
0.0245414
0.0245433
0.0245451
0.024547
0.0245489
0.0245508
0.0245527
0.0245545
0.0245564
0.0245583
0.0245602
0.0245621
0.024564
0.0245659
0.0245678
0.0245697
0.0245716
0.0245735
0.0245754
0.0245773
0.0245792
0.0245811
0.024583
0.0245849
0.0245868
0.0245887
0.0245907
0.0245926
0.0245945
0.0245964
0.0245983
0.0246003
0.0246022
0.0246041
0.024606
0.024608
0.0246099
0.0246118
0.0246138
0.0246157
0.0246176
0.0246196
0.0246215
0.0246234
0.0246254
0.0246273
0.0246293
0.0246312
0.0246332
0.0246351
0.0246371
0.024639
0.024641
0.024643
0.0246449
0.0246469
0.0246488
0.0246508
0.0246528
0.0246547
0.0246567
0.0246587
0.0246607
0.0246626
0.0246646
0.0246666
0.0246686
0.0246706
0.0246725
0.0246745
0.0246765
0.0246785
0.0246805
0.0246825
0.0246845
0.0246865
0.0246885
0.0246905
0.0246925
0.0246945
0.0246965
0.0246985
0.0247005
0.0247025
0.0247045
0.0247065
0.0247085
0.0247106
0.0247128
0.0247104
0.0248006
0.0167865
0.0171215
0.017498
0.0177205
0.0178451
0.0179232
0.0179776
0.0180193
0.0180537
0.0180835
0.0181103
0.018135
0.0181581
0.01818
0.0182008
0.0182208
0.0182401
0.0182587
0.0182769
0.0182945
0.0183116
0.0183284
0.0183448
0.0183609
0.0183767
0.0183922
0.0184075
0.0184225
0.0184372
0.0184518
0.0184662
0.0184804
0.0184944
0.0185082
0.0185219
0.0185355
0.0185489
0.0185622
0.0185753
0.0185884
0.0186013
0.0186141
0.0186269
0.0186395
0.018652
0.0186645
0.0186769
0.0186892
0.0187014
0.0187135
0.0187256
0.0187376
0.0187496
0.0187615
0.0187733
0.0187851
0.0187969
0.0188086
0.0188202
0.0188318
0.0188434
0.0188549
0.0188665
0.0188779
0.0188894
0.0189008
0.0189122
0.0189236
0.018935
0.0189463
0.0189577
0.018969
0.0189804
0.0189917
0.0190031
0.0190145
0.0190259
0.0190373
0.0190487
0.0190602
0.0190717
0.0190832
0.0190949
0.0191065
0.0191183
0.0191301
0.0191421
0.0191542
0.0191664
0.0191787
0.0191913
0.019204
0.0192171
0.0192305
0.0192443
0.0192588
0.0192742
0.0192909
0.0193095
0.0193309
0.0193939
0.0194343
0.0194712
0.0195053
0.0195369
0.0195665
0.0195943
0.0196206
0.0196456
0.0196694
0.0196921
0.0197139
0.0197348
0.0197549
0.0197744
0.0197932
0.0198114
0.019829
0.0198462
0.0198629
0.0198791
0.019895
0.0199104
0.0199255
0.0199403
0.0199547
0.0199688
0.0199826
0.0199962
0.0200095
0.0200226
0.0200354
0.020048
0.0200604
0.0200726
0.0200846
0.0200964
0.020108
0.0201195
0.0201307
0.0201419
0.0201528
0.0201636
0.0201743
0.0201848
0.0201952
0.0202055
0.0202156
0.0202257
0.0202356
0.0202453
0.020255
0.0202646
0.020274
0.0202834
0.0202926
0.0203018
0.0203109
0.0203198
0.0203287
0.0203375
0.0203462
0.0203549
0.0203634
0.0203719
0.0203803
0.0203886
0.0203968
0.020405
0.0204131
0.0204211
0.0204291
0.020437
0.0204448
0.0204526
0.0204603
0.0204679
0.0204755
0.020483
0.0204905
0.0204979
0.0205053
0.0205126
0.0205198
0.020527
0.0205341
0.0205412
0.0205483
0.0205553
0.0205622
0.0205691
0.020576
0.0205828
0.0205895
0.0205962
0.0206027
0.0206094
0.0206165
0.0206244
0.0206328
0.0206391
0.0206433
0.0206475
0.0206516
0.0206558
0.0206599
0.020664
0.0206681
0.0206721
0.0206762
0.0206802
0.0206842
0.0206882
0.0206922
0.0206962
0.0207001
0.0207041
0.020708
0.0207119
0.0207158
0.0207197
0.0207236
0.0207274
0.0207313
0.0207351
0.0207389
0.0207427
0.0207465
0.0207502
0.020754
0.0207577
0.0207615
0.0207652
0.0207689
0.0207726
0.0207762
0.0207799
0.0207836
0.0207872
0.0207908
0.0207944
0.020798
0.0208016
0.0208052
0.0208088
0.0208123
0.0208159
0.0208194
0.0208229
0.0208264
0.0208299
0.0208334
0.0208368
0.0208403
0.0208437
0.0208472
0.0208506
0.020854
0.0208574
0.0208608
0.0208642
0.0208676
0.0208709
0.0208743
0.0208776
0.0208809
0.0208843
0.0208876
0.0208909
0.0208942
0.0208974
0.0209007
0.020904
0.0209072
0.0209104
0.0209137
0.0209169
0.0209201
0.0209233
0.0209265
0.0209297
0.0209329
0.020936
0.0209392
0.0209423
0.0209454
0.0209486
0.0209517
0.0209548
0.0209579
0.020961
0.0209641
0.0209671
0.0209702
0.0209733
0.0209763
0.0209793
0.0209824
0.0209854
0.0209884
0.0209914
0.0209944
0.0209974
0.0210004
0.0210034
0.0210063
0.0210093
0.0210122
0.0210152
0.0210181
0.021021
0.0210239
0.0210268
0.0210298
0.0210326
0.0210355
0.0210384
0.0210413
0.0210441
0.021047
0.0210498
0.0210527
0.0210555
0.0210584
0.0210612
0.021064
0.0210668
0.0210696
0.0210724
0.0210752
0.0210779
0.0210807
0.0210835
0.0210862
0.021089
0.0210917
0.0210945
0.0210972
0.0210999
0.0211026
0.0211053
0.021108
0.0211107
0.0211134
0.0211161
0.0211188
0.0211214
0.0211241
0.0211268
0.0211294
0.0211321
0.0211347
0.0211373
0.0211399
0.0211426
0.0211452
0.0211478
0.0211504
0.021153
0.0211556
0.0211581
0.0211607
0.0211633
0.0211659
0.0211684
0.021171
0.0211735
0.0211761
0.0211786
0.0211811
0.0211836
0.0211862
0.0211887
0.0211912
0.0211937
0.0211962
0.0211987
0.0212011
0.0212036
0.0212061
0.0212086
0.021211
0.0212135
0.0212159
0.0212184
0.0212208
0.0212232
0.0212257
0.0212281
0.0212305
0.0212329
0.0212353
0.0212377
0.0212401
0.0212425
0.0212449
0.0212473
0.0212497
0.021252
0.0212544
0.0212568
0.0212591
0.0212615
0.0212638
0.0212662
0.0212685
0.0212708
0.0212732
0.0212755
0.0212778
0.0212801
0.0212824
0.0212847
0.021287
0.0212893
0.0212916
0.0212939
0.0212962
0.0212984
0.0213007
0.021303
0.0213052
0.0213075
0.0213097
0.021312
0.0213142
0.0213165
0.0213187
0.0213209
0.0213231
0.0213254
0.0213276
0.0213298
0.021332
0.0213342
0.0213364
0.0213386
0.0213408
0.021343
0.0213451
0.0213473
0.0213495
0.0213517
0.0213538
0.021356
0.0213581
0.0213603
0.0213624
0.0213646
0.0213667
0.0213688
0.021371
0.0213731
0.0213752
0.0213773
0.0213794
0.0213816
0.0213837
0.0213858
0.0213879
0.0213899
0.021392
0.0213941
0.0213962
0.0213983
0.0214003
0.0214024
0.0214045
0.0214065
0.0214086
0.0214107
0.0214127
0.0214148
0.0214168
0.0214188
0.0214209
0.0214229
0.0214249
0.0214269
0.021429
0.021431
0.021433
0.021435
0.021437
0.021439
0.021441
0.021443
0.021445
0.021447
0.021449
0.0214509
0.0214529
0.0214549
0.0214568
0.0214588
0.0214608
0.0214627
0.0214647
0.0214666
0.0214686
0.0214705
0.0214725
0.0214744
0.0214763
0.0214783
0.0214802
0.0214821
0.021484
0.0214859
0.0214879
0.0214898
0.0214917
0.0214936
0.0214955
0.0214974
0.0214993
0.0215012
0.021503
0.0215049
0.0215068
0.0215087
0.0215106
0.0215124
0.0215143
0.0215162
0.021518
0.0215199
0.0215217
0.0215236
0.0215254
0.0215273
0.0215291
0.0215309
0.0215328
0.0215346
0.0215364
0.0215383
0.0215401
0.0215419
0.0215437
0.0215455
0.0215473
0.0215491
0.0215509
0.0215527
0.0215546
0.0215564
0.0215583
0.0215598
0.0215608
0.0215622
0.0215646
0.021567
0.0215694
0.0215717
0.0215741
0.0215764
0.0215788
0.0215811
0.0215834
0.0215858
0.0215881
0.0215904
0.0215927
0.021595
0.0215974
0.0215997
0.021602
0.0216042
0.0216065
0.0216088
0.0216111
0.0216134
0.0216156
0.0216179
0.0216202
0.0216224
0.0216247
0.0216269
0.0216292
0.0216314
0.0216337
0.0216359
0.0216381
0.0216403
0.0216426
0.0216448
0.021647
0.0216492
0.0216514
0.0216536
0.0216558
0.021658
0.0216602
0.0216623
0.0216645
0.0216667
0.0216688
0.021671
0.0216732
0.0216753
0.0216775
0.0216796
0.0216818
0.0216839
0.021686
0.0216882
0.0216903
0.0216924
0.0216946
0.0216967
0.0216988
0.0217009
0.021703
0.0217051
0.0217072
0.0217093
0.0217114
0.0217135
0.0217155
0.0217176
0.0217197
0.0217218
0.0217238
0.0217259
0.0217279
0.02173
0.021732
0.0217341
0.0217361
0.0217382
0.0217402
0.0217422
0.0217443
0.0217463
0.0217483
0.0217503
0.0217523
0.0217544
0.0217564
0.0217584
0.0217604
0.0217624
0.0217644
0.0217663
0.0217683
0.0217703
0.0217723
0.0217743
0.0217762
0.0217782
0.0217802
0.0217821
0.0217841
0.021786
0.021788
0.0217899
0.0217919
0.0217938
0.0217958
0.0217977
0.0217996
0.0218016
0.0218035
0.0218054
0.0218073
0.0218092
0.0218111
0.0218131
0.021815
0.0218169
0.0218188
0.0218207
0.0218225
0.0218244
0.0218263
0.0218282
0.0218301
0.0218319
0.0218338
0.0218357
0.0218376
0.0218394
0.0218413
0.0218431
0.021845
0.0218468
0.0218487
0.0218505
0.0218524
0.0218542
0.021856
0.0218579
0.0218597
0.0218615
0.0218633
0.0218652
0.021867
0.0218688
0.0218706
0.0218724
0.0218742
0.021876
0.0218778
0.0218796
0.0218814
0.0218832
0.021885
0.0218868
0.0218885
0.0218903
0.0218921
0.0218939
0.0218956
0.0218974
0.0218992
0.0219009
0.0219027
0.0219044
0.0219062
0.0219079
0.0219097
0.0219115
0.0219132
0.0219148
0.0219161
0.0219174
0.0219206
0.0219279
0.0266349
0.0266251
0.0266188
0.02662
0.0266207
0.0266212
0.0266219
0.0266229
0.0266235
0.0266235
0.0266233
0.0266234
0.0266237
0.0266236
0.0266231
0.0266227
0.0266222
0.0266215
0.0266209
0.0266198
0.0266187
0.0266174
0.0266161
0.0266148
0.0266134
0.0266119
0.02661
0.026608
0.0266058
0.0266038
0.0266016
0.0265992
0.0265965
0.0265937
0.0265909
0.026588
0.0265849
0.026582
0.0265787
0.026575
0.0265716
0.0265682
0.0265642
0.0265601
0.026556
0.0265517
0.0265473
0.0265429
0.0265383
0.0265335
0.0265285
0.0265237
0.0265187
0.0265134
0.0265079
0.0265022
0.0264965
0.0264906
0.0264846
0.0264787
0.0264726
0.0264662
0.0264595
0.0264526
0.0264457
0.0264387
0.0264318
0.0264247
0.0264173
0.0264097
0.0264019
0.0263941
0.026386
0.0263776
0.0263694
0.0263608
0.0263521
0.0263436
0.0263348
0.0263257
0.0263162
0.0263062
0.0262963
0.0262863
0.0262763
0.0262667
0.026258
0.0262491
0.0262387
0.0262247
0.0262064
0.0261863
0.0261725
0.0261766
0.026204
0.0262409
0.0262439
0.0261533
0.0259364
0.0256527
0.0255146
0.0213228
0.0219824
0.0219841
0.0219858
0.0219874
0.0219891
0.0219908
0.0219924
0.0219941
0.0219957
0.0219974
0.021999
0.0220007
0.0220023
0.0220039
0.0220056
0.0220072
0.0220089
0.0220105
0.0220121
0.0220137
0.0220154
0.022017
0.0220186
0.0220202
0.0220218
0.0220234
0.022025
0.0220266
0.0220282
0.0220298
0.0220314
0.022033
0.0220346
0.0220362
0.0220378
0.0220394
0.022041
0.0220426
0.0220441
0.0220457
0.0220473
0.0220489
0.0220504
0.022052
0.0220536
0.0220551
0.0220567
0.0220582
0.0220598
0.0220613
0.0220629
0.0220644
0.022066
0.0220675
0.0220691
0.0220706
0.0220721
0.0220737
0.0220752
0.0220767
0.0220783
0.0220798
0.0220813
0.0220828
0.0220844
0.0220859
0.0220874
0.0220889
0.0220904
0.0220919
0.0220934
0.0220949
0.0220964
0.0220979
0.0220994
0.0221009
0.0221024
0.0221039
0.0221054
0.0221069
0.0221083
0.0221098
0.0221113
0.0221127
0.022114
0.0221154
0.0221176
0.0221211
0.0221232
0.0221231
0.022123
0.0221229
0.0221228
0.0221228
0.0221227
0.0221226
0.0221225
0.0221224
0.0221223
0.0221223
0.0221222
0.0221221
0.022122
0.0221219
0.0221218
0.0221218
0.0221217
0.0221216
0.0221215
0.0221214
0.0221213
0.0221213
0.0221212
0.0221211
0.022121
0.0221209
0.0221208
0.0221208
0.0221207
0.0221206
0.0221205
0.0221204
0.0221203
0.0221203
0.0221202
0.0221201
0.02212
0.0221199
0.0221199
0.0221198
0.0221197
0.0221196
0.0221195
0.0221194
0.0221194
0.0221193
0.0221192
0.0221191
0.022119
0.022119
0.0221189
0.0221188
0.0221187
0.0221186
0.0221185
0.0221185
0.0221184
0.0221183
0.0221182
0.0221181
0.0221181
0.022118
0.0221179
0.0221178
0.0221177
0.0221177
0.0221176
0.0221175
0.0221174
0.0221173
0.0221173
0.0221172
0.0221171
0.022117
0.0221169
0.0221168
0.0221168
0.0221167
0.0221166
0.0221165
0.0221164
0.0221164
0.0221163
0.0221162
0.0221161
0.022116
0.022116
0.0221159
0.0221158
0.0221157
0.0221156
0.0221156
0.0221155
0.0221154
0.0221153
0.0221153
0.0221152
0.0221151
0.022115
0.0221149
0.0221149
0.0221148
0.0221147
0.0221146
0.0221145
0.0221145
0.0221144
0.0221143
0.0221142
0.0221141
0.0221141
0.022114
0.0221139
0.0221138
0.0221137
0.0221137
0.0221136
0.0221135
0.0221134
0.0221134
0.0221133
0.0221132
0.0221131
0.022113
0.022113
0.0221129
0.0221128
0.0221127
0.0221127
0.0221126
0.0221125
0.0221124
0.0221123
0.0221123
0.0221122
0.0221121
0.022112
0.022112
0.0221119
0.0221118
0.0221117
0.0221116
0.0221116
0.0221115
0.0221114
0.0221113
0.0221113
0.0221112
0.0221111
0.022111
0.0221109
0.0221109
0.0221108
0.0221107
0.0221106
0.0221106
0.0221105
0.0221104
0.0221103
0.0221103
0.0221102
0.0221101
0.02211
0.02211
0.0221099
0.0221098
0.0221097
0.0221096
0.0221096
0.0221095
0.0221094
0.0221093
0.0221093
0.0221092
0.0221091
0.022109
0.022109
0.0221089
0.0221088
0.0221087
0.0221087
0.0221086
0.0221085
0.0221084
0.0221084
0.0221083
0.0221082
0.0221081
0.0221081
0.022108
0.0221079
0.0221078
0.0221078
0.0221077
0.0221076
0.0221075
0.0221075
0.0221074
0.0221073
0.0221072
0.0221072
0.0221071
0.022107
0.0221069
0.0221069
0.0221068
0.0221067
0.0221066
0.0221066
0.0221065
0.0221064
0.0221063
0.0221063
0.0221062
0.0221061
0.022106
0.022106
0.0221059
0.0221058
0.0221057
0.0221057
0.0221056
0.0221055
0.0221054
0.0221054
0.0221053
0.0221052
0.0221052
0.0221051
0.022105
0.0221049
0.0221049
0.0221048
0.0221047
0.0221046
0.0221046
0.0221045
0.0221044
0.0221043
0.0221043
0.0221042
0.0221041
0.0221041
0.022104
0.0221039
0.0221038
0.0221038
0.0221037
0.0221036
0.0221035
0.0221035
0.0221034
0.0221033
0.0221033
0.0221032
0.0221031
0.022103
0.022103
0.022103
0.022103
0.0221027
0.0221016
0.0221001
0.0221023
0.0221152
0.0221333
0.022108
0.0219521
0.0217148
0.0219981
0.0238874
0.0263778
0.024608
0.0187342
0.0165519
0.0165063
0.016506
0.016504
0.0165021
0.0165002
0.0164983
0.0164964
0.0164945
0.0164926
0.0164907
0.0164888
0.0164869
0.016485
0.0164832
0.0164813
0.0164794
0.0164776
0.0164757
0.0164739
0.0164721
0.0164702
0.0164684
0.0164666
0.0164646
0.0164612
0.0164588
0.0164582
0.0164577
0.0164571
0.0164566
0.016456
0.0164555
0.0164549
0.0164544
0.0164539
0.0164534
0.0164529
0.0164523
0.0164518
0.0164513
0.0164508
0.0164504
0.0164499
0.0164494
0.0164489
0.0164485
0.016448
0.0164475
0.0164471
0.0164467
0.0164462
0.0164458
0.0164453
0.0164449
0.0164445
0.0164441
0.0164437
0.0164433
0.0164429
0.0164424
0.016442
0.0164417
0.0164413
0.0164409
0.0164405
0.0164401
0.0164397
0.0164393
0.016439
0.0164386
0.0164382
0.0164379
0.0164375
0.0164371
0.0164368
0.0164364
0.0164361
0.0164357
0.0164353
0.016435
0.0164346
0.0164343
0.0164339
0.0164336
0.0164332
0.0164329
0.0164326
0.0164322
0.0164319
0.0164315
0.0164312
0.0164309
0.0164305
0.0164302
0.0164299
0.0164296
0.0164292
0.0164289
0.0164286
0.0164283
0.016428
0.0164277
0.0164274
0.016427
0.0164267
0.0164264
0.0164261
0.0164258
0.0164255
0.0164252
0.016425
0.0164247
0.0164244
0.0164241
0.0164238
0.0164235
0.0164232
0.016423
0.0164227
0.0164224
0.0164222
0.0164219
0.0164216
0.0164214
0.0164211
0.0164208
0.0164206
0.0164203
0.01642
0.0164198
0.0164195
0.0164193
0.016419
0.0164188
0.0164185
0.0164183
0.016418
0.0164178
0.0164175
0.0164173
0.016417
0.0164168
0.0164165
0.0164163
0.016416
0.0164158
0.0164155
0.0164153
0.016415
0.0164148
0.0164145
0.0164143
0.0164141
0.0164138
0.0164136
0.0164133
0.0164131
0.0164128
0.0164126
0.0164124
0.0164121
0.0164119
0.0164116
0.0164114
0.0164112
0.0164109
0.0164107
0.0164105
0.0164102
0.01641
0.0164098
0.0164095
0.0164093
0.0164091
0.0164089
0.0164087
0.0164084
0.0164082
0.016408
0.0164078
0.0164076
0.0164073
0.0164071
0.0164069
0.0164067
0.0164065
0.0164063
0.0164061
0.0164059
0.0164057
0.0164055
0.0164053
0.0164051
0.0164049
0.0164047
0.0164045
0.0164043
0.0164041
0.0164039
0.0164038
0.0164036
0.0164034
0.0164032
0.016403
0.0164028
0.0164026
0.0164025
0.0164023
0.0164021
0.0164019
0.0164017
0.0164015
0.0164014
0.0164012
0.016401
0.0164008
0.0164007
0.0164005
0.0164003
0.0164001
0.0163999
0.0163998
0.0163996
0.0163994
0.0163992
0.0163991
0.0163989
0.0163987
0.0163986
0.0163984
0.0163982
0.016398
0.0163979
0.0163977
0.0163975
0.0163974
0.0163972
0.0163971
0.0163969
0.0163967
0.0163966
0.0163964
0.0163963
0.0163961
0.0163959
0.0163958
0.0163956
0.0163955
0.0163953
0.0163952
0.016395
0.0163949
0.0163948
0.0163946
0.0163945
0.0163943
0.0163942
0.0163941
0.0163939
0.0163938
0.0163937
0.0163935
0.0163934
0.0163933
0.0163931
0.016393
0.0163929
0.0163928
0.0163926
0.0163925
0.0163924
0.0163923
0.0163922
0.0163921
0.0163919
0.0163918
0.0163917
0.0163916
0.0163915
0.0163914
0.0163913
0.0163912
0.0163911
0.016391
0.0163909
0.0163908
0.0163906
0.0163905
0.0163904
0.0163903
0.0163902
0.0163901
0.01639
0.01639
0.0163899
0.0163898
0.0163897
0.0163896
0.0163895
0.0163894
0.0163893
0.0163892
0.0163891
0.016389
0.016389
0.0163889
0.0163888
0.0163887
0.0163886
0.0163885
0.0163885
0.0163884
0.0163883
0.0163882
0.0163882
0.0163881
0.016388
0.016388
0.0163879
0.0163878
0.0163878
0.0163877
0.0163877
0.0163876
0.0163875
0.0163875
0.0163874
0.0163874
0.0163873
0.0163873
0.0163872
0.0163872
0.0163872
0.0163871
0.0163871
0.016387
0.016387
0.016387
0.0163869
0.0163869
0.0163869
0.0163869
0.0163868
0.0163868
0.0163868
0.0163868
0.0163867
0.0163867
0.0163867
0.0163867
0.0163867
0.0163867
0.0163867
0.0163867
0.0163866
0.0163866
0.0163866
0.0163866
0.0163866
0.0163866
0.0163866
0.0163866
0.0163866
0.0163866
0.0163866
0.0163866
0.0163867
0.0163867
0.0163867
0.0163867
0.0163867
0.0163867
0.0163867
0.0163867
0.0163867
0.0163868
0.0163868
0.0163868
0.0163868
0.0163868
0.0163869
0.0163869
0.0163869
0.0163869
0.016387
0.016387
0.016387
0.0163871
0.0163871
0.0163871
0.0163872
0.0163872
0.0163872
0.0163873
0.0163873
0.0163874
0.0163874
0.0163874
0.0163875
0.0163875
0.0163876
0.0163876
0.0163877
0.0163878
0.0163878
0.0163879
0.0163879
0.016388
0.016388
0.0163881
0.0163882
0.0163882
0.0163883
0.0163884
0.0163884
0.0163885
0.0163886
0.0163887
0.0163887
0.0163888
0.0163889
0.016389
0.0163891
0.0163891
0.0163892
0.0163893
0.0163894
0.0163895
0.0163896
0.0163897
0.0163898
0.0163899
0.0163899
0.01639
0.0163901
0.0163902
0.0163903
0.0163904
0.0163905
0.0163907
0.0163908
0.0163909
0.016391
0.0163911
0.0163912
0.0163913
0.0163914
0.0163915
0.0163916
0.0163917
0.0163919
0.016392
0.0163921
0.0163922
0.0163923
0.0163925
0.0163926
0.0163927
0.0163928
0.0163929
0.0163931
0.0163932
0.0163933
0.0163934
0.0163936
0.0163937
0.0163938
0.016394
0.0163941
0.0163942
0.0163944
0.0163945
0.0163946
0.0163948
0.0163949
0.016395
0.0163952
0.0163953
0.0163955
0.0163956
0.0163958
0.0163959
0.016396
0.0163962
0.0163963
0.0163965
0.0163966
0.0163968
0.0163969
0.0163971
0.0163972
0.0163974
0.0163975
0.0163977
0.0163979
0.016398
0.0163982
0.0163983
0.0163985
0.0163987
0.0163988
0.016399
0.0163991
0.0163993
0.0163995
0.0163996
0.0163998
0.0164
0.0164001
0.0164003
0.0164005
0.0164006
0.0164008
0.016401
0.0164012
0.0164013
0.0164015
0.0164017
0.0164019
0.016402
0.0164022
0.0164024
0.0164026
0.0164027
0.0164029
0.0164031
0.0164033
0.0164034
0.0164036
0.0164038
0.016404
0.0164042
0.0164043
0.0164045
0.0164047
0.0164049
0.0164051
0.0164053
0.0164054
0.0164056
0.0164058
0.016406
0.0164062
0.0164064
0.0164065
0.0164067
0.0164069
0.0164071
0.0164073
0.0164075
0.0164077
0.0164079
0.0164081
0.0164082
0.0164084
0.0164086
0.0164088
0.016409
0.0164092
0.0164094
0.0164096
0.0164098
0.01641
0.0164102
0.0164104
0.0164106
0.0164108
0.016411
0.0164112
0.0164114
0.0164116
0.0164118
0.016412
0.0164122
0.0164124
0.0164126
0.0164128
0.016413
0.0164132
0.0164134
0.0164136
0.0164138
0.016414
0.0164142
0.0164145
0.0164147
0.0164149
0.0164151
0.0164153
0.0164156
0.0164158
0.016416
0.0164162
0.0164165
0.0164167
0.0164169
0.0164171
0.0164174
0.0164176
0.0164178
0.0164181
0.0164183
0.0164186
0.0164188
0.016419
0.0164193
0.0164195
0.0164198
0.01642
0.0164203
0.0164206
0.0164208
0.0164211
0.0164213
0.0164216
0.0164219
0.0164221
0.0164224
0.0164227
0.0164229
0.0164232
0.0164235
0.0164238
0.016424
0.0164243
0.0164246
0.0164249
0.0164252
0.0164255
0.0164257
0.016426
0.0164263
0.0164266
0.0164269
0.0164272
0.0164275
0.0164278
0.0164281
0.0164284
0.0164287
0.016429
0.0164294
0.0164297
0.01643
0.0164303
0.0164306
0.0164309
0.0164312
0.0164316
0.0164319
0.0164322
0.0164325
0.0164329
0.0164332
0.0164335
0.0164338
0.0164342
0.0164345
0.0164348
0.0164352
0.0164355
0.0164358
0.0164362
0.0164365
0.0164369
0.0164372
0.0164375
0.0164379
0.0164382
0.0164385
0.0164389
0.0164392
0.0164396
0.0164399
0.0164402
0.0164406
0.0164409
0.0164413
0.0164416
0.016442
0.0164423
0.0164426
0.016443
0.0164433
0.0164437
0.016444
0.0164443
0.0164447
0.016445
0.0164453
0.0164457
0.016446
0.0164463
0.0164467
0.016447
0.0164473
0.0164476
0.0164479
0.0164483
0.0164486
0.0164489
0.0164492
0.0164495
0.0164498
0.0164501
0.0164504
0.0164507
0.016451
0.0164513
0.0164516
0.0164519
0.0164522
0.0164525
0.0164528
0.016453
0.0164533
0.0164536
0.0164538
0.0164541
0.0164544
0.0164546
0.0164549
0.0164551
0.0164553
0.0164556
0.0164558
0.016456
0.0164562
0.0164564
0.0164566
0.0164568
0.016457
0.0164572
0.0164574
0.0164576
0.0164577
0.0164579
0.0164581
0.0164582
0.0164583
0.0164585
0.0164586
0.0164587
0.0164588
0.0164589
0.016459
0.0164591
0.0164592
0.0164593
0.0164593
0.0164594
0.0164594
0.0164594
0.0164595
0.0164595
0.0164595
0.0164595
0.0164595
0.0164594
0.0164594
0.0164594
0.0164593
0.0164593
0.0164592
0.0164591
0.016459
0.0164589
0.0164588
0.0164586
0.0164585
0.0164584
0.0164582
0.016458
0.0164578
0.0164576
0.0164574
0.0164572
0.016457
0.0164568
0.0164565
0.0164563
0.016456
0.0164557
0.0164554
0.0164551
0.0164548
0.0164545
0.0164542
0.0164538
0.0164535
0.0164531
0.0164527
0.0164524
0.016452
0.0164516
0.0164512
0.0164508
0.0164504
0.0164499
0.0164495
0.0164491
0.0164486
0.0164482
0.0164477
0.0164472
0.0164468
0.0164463
0.0164458
0.0164454
0.0164449
0.0164444
0.0164439
0.0164434
0.0164429
0.0164424
0.0164419
0.0164414
0.0164409
0.0164404
0.01644
0.0164395
0.016439
0.0164385
0.016438
0.0164375
0.016437
0.0164365
0.0164361
0.0164356
0.0164351
0.0164347
0.0164342
0.0164338
0.0164333
0.0164329
0.0164324
0.016432
0.0164316
0.0164312
0.0164308
0.0164304
0.01643
0.0164296
0.0164292
0.0164288
0.0164285
0.0164281
0.0164277
0.0164274
0.0164271
0.0164267
0.0164264
0.0164261
0.0164258
0.0164255
0.0164252
0.0164249
0.0164247
0.0164244
0.0164242
0.0164239
0.0164237
0.0164234
0.0164232
0.016423
0.0164228
0.0164226
0.0164224
0.0164222
0.016422
0.0164218
0.0164216
0.0164214
0.0164213
0.0164211
0.016421
0.0164208
0.0164207
0.0164205
0.0164204
0.0164203
0.0164202
0.01642
0.0164199
0.0164198
0.0164197
0.0164196
0.0164195
0.0164194
0.0164193
0.0164192
0.0164191
0.0164191
0.016419
0.0164189
0.0164188
0.0164187
0.0164187
0.0164186
0.0164185
0.0164185
0.0164184
0.0164183
0.0164183
0.0164182
0.0164182
0.0164181
0.016418
0.016418
0.0164179
0.0164179
0.0164178
0.0164178
0.0164177
0.0164177
0.0164176
0.0164176
0.0164175
0.0164175
0.0164174
0.0164174
0.0164173
0.0164173
0.0164172
0.0164172
0.0164172
0.0164171
0.0164171
0.016417
0.016417
0.0164169
0.0164169
0.0164169
0.0164168
0.0164168
0.0164167
0.0164167
0.0164166
0.0164166
0.0164166
0.0164165
0.0164165
0.0164164
0.0164164
0.0164163
0.0164163
0.0164163
0.0164162
0.0164162
0.0164161
0.0164161
0.016416
0.016416
0.016416
0.0164159
0.0164159
0.0164158
0.0164158
)
;

boundaryField
{
    inlet
    {
        type            zeroGradient;
    }
    outlet
    {
        type            zeroGradient;
    }
    right
    {
        type            empty;
    }
    left
    {
        type            empty;
    }
    atmosphere
    {
        type            empty;
    }
    bottomWall
    {
        type            empty;
    }
}


// ************************************************************************* //
