/*--------------------------------*- C++ -*----------------------------------*\
| =========                 |                                                 |
| \\      /  F ield         | foam-extend: Open Source CFD                    |
|  \\    /   O peration     | Version:     3.1                                |
|   \\  /    A nd           | Web:         http://www.extend-project.de       |
|    \\/     M anipulation  |                                                 |
\*---------------------------------------------------------------------------*/
FoamFile
{
    version     2.0;
    format      ascii;
    class       surfaceScalarField;
    location    "26";
    object      phi;
}
// * * * * * * * * * * * * * * * * * * * * * * * * * * * * * * * * * * * * * //

dimensions      [0 3 -1 0 0 0 0];

internalField   nonuniform List<scalar> 
2538
(
0.0728845
0.0729442
0.0730236
0.0731024
0.0731814
0.0732606
0.07334
0.0734195
0.0734993
0.0735792
0.0736594
0.0737397
0.0738203
0.073901
0.0739819
0.074063
0.0741444
0.0742259
0.0743076
0.0743895
0.0744717
0.074554
0.0746365
0.0747193
0.0748022
0.0748854
0.0749687
0.0750523
0.075136
0.07522
0.0753042
0.0753886
0.0754732
0.0755581
0.0756431
0.0757284
0.0758138
0.0758995
0.0759854
0.0760716
0.0761579
0.0762445
0.0763313
0.0764183
0.0765055
0.076593
0.0766807
0.0767686
0.0768567
0.0769451
0.0770337
0.0771226
0.0772116
0.0773009
0.0773904
0.0774802
0.0775702
0.0776605
0.0777509
0.0778417
0.0779326
0.0780238
0.0781153
0.0782069
0.0782989
0.078391
0.0784835
0.0785761
0.0786691
0.0787622
0.0788557
0.0789493
0.0790433
0.0791375
0.0792319
0.0793266
0.0794216
0.0795168
0.0796123
0.079708
0.079804
0.0799003
0.0799968
0.0800936
0.0801907
0.0802881
0.0803857
0.0804836
0.0805818
0.0806802
0.0807789
0.0808779
0.0809772
0.0810768
0.0811766
0.0812767
0.0813772
0.0814779
0.0815789
0.0816801
0.0817817
0.0818836
0.0819857
0.0820882
0.0821909
0.082294
0.0823973
0.082501
0.0826049
0.0827092
0.0828138
0.0829187
0.0830238
0.0831293
0.0832352
0.0833413
0.0834477
0.0835545
0.0836616
0.083769
0.0838767
0.0839848
0.0840931
0.0842018
0.0843109
0.0844203
0.08453
0.08464
0.0847504
0.0848611
0.0849722
0.0850836
0.0851953
0.0853074
0.0854198
0.0855326
0.0856458
0.0857593
0.0858731
0.0859874
0.0861019
0.0862169
0.0863322
0.0864479
0.0865639
0.0866803
0.0867971
0.0869143
0.0870318
0.0871498
0.0872681
0.0873868
0.0875058
0.0876253
0.0877452
0.0878654
0.0879861
0.0881071
0.0882286
0.0883504
0.0884727
0.0885953
0.0887184
0.0888419
0.0889658
0.0890901
0.0892149
0.0893401
0.0894657
0.0895917
0.0897181
0.089845
0.0899724
0.0901001
0.0902283
0.090357
0.0904861
0.0906157
0.0907457
0.0908761
0.0910071
0.0911385
0.0912703
0.0914026
0.0915662
0.0917482
0.091856
0.0918989
0.0919383
0.0919777
0.0920171
0.0920565
0.092096
0.0921355
0.092175
0.0922146
0.0922543
0.0922939
0.0923337
0.0923734
0.0924132
0.0924531
0.092493
0.0925329
0.0925729
0.0926129
0.092653
0.0926931
0.0927332
0.0927734
0.0928137
0.092854
0.0928943
0.0929346
0.0929751
0.0930155
0.093056
0.0930966
0.0931372
0.0931778
0.0932185
0.0932592
0.0933
0.0933408
0.0933816
0.0934225
0.0934635
0.0935045
0.0935455
0.0935866
0.0936277
0.0936689
0.0937101
0.0937514
0.0937927
0.0938341
0.0938755
0.0939169
0.0939584
0.094
0.0940415
0.0940832
0.0941249
0.0941666
0.0942084
0.0942502
0.0942921
0.094334
0.0943759
0.094418
0.09446
0.0945021
0.0945443
0.0945865
0.0946287
0.094671
0.0947134
0.0947558
0.0947982
0.0948407
0.0948832
0.0949258
0.0949685
0.0950111
0.0950539
0.0950966
0.0951395
0.0951824
0.0952253
0.0952683
0.0953113
0.0953544
0.0953975
0.0954407
0.0954839
0.0955272
0.0955705
0.0956139
0.0956573
0.0957008
0.0957443
0.0957879
0.0958315
0.0958752
0.0959189
0.0959627
0.0960066
0.0960504
0.0960944
0.0961384
0.0961824
0.0962265
0.0962707
0.0963148
0.0963591
0.0964034
0.0964478
0.0964922
0.0965366
0.0965811
0.0966257
0.0966703
0.096715
0.0967597
0.0968045
0.0968493
0.0968942
0.0969391
0.0969841
0.0970292
0.0970743
0.0971194
0.0971646
0.0972099
0.0972552
0.0973006
0.097346
0.0973915
0.097437
0.0974826
0.0975283
0.097574
0.0976197
0.0976656
0.0977114
0.0977574
0.0978033
0.0978494
0.0978955
0.0979416
0.0979878
0.0980341
0.0980804
0.0981268
0.0981733
0.0982197
0.0982663
0.0983129
0.0983596
0.0984063
0.0984531
0.0984999
0.0985468
0.0985938
0.0986408
0.0986879
0.098735
0.0987822
0.0988295
0.0988768
0.0989242
0.0989716
0.0990191
0.0990666
0.0991142
0.0991619
0.0992097
0.0992574
0.0993053
0.0993532
0.0994012
0.0994492
0.0994973
0.0995455
0.0995937
0.099642
0.0996903
0.0997387
0.0997872
0.0998357
0.0998843
0.099933
0.0999817
0.100031
0.100079
0.100128
0.100177
0.100226
0.100275
0.100325
0.100374
0.100423
0.100472
0.10054
0.100208
0.104441
0.109115
0.114831
0.118449
0.120858
0.122639
0.124074
0.125306
0.126411
0.12743
0.128388
0.129299
0.130172
0.131016
0.131834
0.13263
0.133407
0.134167
0.134912
0.135644
0.136364
0.137073
0.137772
0.138461
0.139143
0.139816
0.140483
0.141143
0.141797
0.142445
0.143088
0.143726
0.14436
0.144989
0.145615
0.146236
0.146855
0.14747
0.148082
0.148692
0.149299
0.149903
0.150506
0.151106
0.151705
0.152302
0.152897
0.153491
0.154084
0.154675
0.155266
0.155855
0.156444
0.157033
0.157621
0.158208
0.158795
0.159383
0.15997
0.160557
0.161145
0.161733
0.162322
0.162911
0.163501
0.164093
0.164686
0.16528
0.165875
0.166473
0.167072
0.167674
0.168278
0.168886
0.169496
0.17011
0.170728
0.171351
0.171979
0.172612
0.173252
0.173899
0.174554
0.175219
0.175895
0.176584
0.177288
0.17801
0.178755
0.179525
0.180329
0.181172
0.182065
0.183021
0.184054
0.185182
0.186424
0.187802
0.189331
0.191016
0.195535
0.197524
0.199388
0.201147
0.202815
0.204403
0.205922
0.207379
0.208781
0.210133
0.21144
0.212707
0.213936
0.215131
0.216294
0.217429
0.218536
0.219618
0.220676
0.221713
0.222729
0.223725
0.224703
0.225663
0.226607
0.227535
0.228449
0.229349
0.230235
0.231108
0.231969
0.232818
0.233656
0.234483
0.235299
0.236106
0.236903
0.237691
0.23847
0.239241
0.240003
0.240757
0.241503
0.242242
0.242973
0.243698
0.244415
0.245126
0.245831
0.246529
0.247221
0.247907
0.248588
0.249262
0.249932
0.250596
0.251254
0.251908
0.252557
0.253201
0.25384
0.254475
0.255105
0.25573
0.256352
0.256969
0.257582
0.258191
0.258796
0.259397
0.259994
0.260588
0.261177
0.261764
0.262347
0.262926
0.263502
0.264075
0.264644
0.26521
0.265773
0.266333
0.26689
0.267444
0.267995
0.268543
0.269088
0.26963
0.27017
0.270707
0.271241
0.271772
0.272301
0.272827
0.273352
0.273878
0.274405
0.274925
0.275414
0.275838
0.276195
0.276527
0.276858
0.277188
0.277516
0.277844
0.278171
0.278497
0.278822
0.279146
0.279469
0.279791
0.280112
0.280432
0.280752
0.28107
0.281387
0.281704
0.28202
0.282334
0.282648
0.282961
0.283273
0.283585
0.283895
0.284205
0.284513
0.284821
0.285128
0.285435
0.28574
0.286045
0.286348
0.286651
0.286954
0.287255
0.287556
0.287856
0.288155
0.288453
0.288751
0.289048
0.289344
0.289639
0.289934
0.290228
0.290521
0.290813
0.291105
0.291396
0.291686
0.291976
0.292265
0.292553
0.292841
0.293127
0.293414
0.293699
0.293984
0.294268
0.294552
0.294834
0.295117
0.295398
0.295679
0.295959
0.296239
0.296518
0.296796
0.297074
0.297351
0.297627
0.297903
0.298178
0.298453
0.298727
0.299
0.299273
0.299546
0.299817
0.300088
0.300359
0.300629
0.300898
0.301167
0.301435
0.301702
0.301969
0.302236
0.302502
0.302767
0.303032
0.303296
0.30356
0.303823
0.304086
0.304348
0.304609
0.30487
0.305131
0.305391
0.30565
0.305909
0.306168
0.306425
0.306683
0.30694
0.307196
0.307452
0.307707
0.307962
0.308216
0.30847
0.308724
0.308976
0.309229
0.309481
0.309732
0.309983
0.310234
0.310484
0.310733
0.310982
0.311231
0.311479
0.311726
0.311973
0.31222
0.312466
0.312712
0.312958
0.313202
0.313447
0.313691
0.313934
0.314177
0.31442
0.314662
0.314904
0.315145
0.315386
0.315627
0.315867
0.316106
0.316345
0.316584
0.316823
0.31706
0.317298
0.317535
0.317772
0.318008
0.318244
0.318479
0.318714
0.318949
0.319183
0.319417
0.31965
0.319883
0.320116
0.320348
0.32058
0.320811
0.321042
0.321273
0.321503
0.321733
0.321962
0.322191
0.32242
0.322648
0.322876
0.323104
0.323331
0.323558
0.323784
0.32401
0.324236
0.324461
0.324686
0.32491
0.325135
0.325358
0.325582
0.325805
0.326028
0.32625
0.326472
0.326694
0.326915
0.327136
0.327357
0.327577
0.327797
0.328016
0.328236
0.328454
0.328673
0.328891
0.329109
0.329326
0.329544
0.32976
0.329977
0.330193
0.330409
0.330624
0.330839
0.331054
0.331269
0.331483
0.331697
0.33191
0.332123
0.332336
0.332549
0.332761
0.332973
0.333184
0.333395
0.333606
0.333817
0.334027
0.334237
0.334447
0.334656
0.334865
0.335074
0.335282
0.33549
0.335698
0.335905
0.336113
0.336319
0.336526
0.336732
0.336938
0.337144
0.337349
0.337554
0.337759
0.337963
0.338168
0.338371
0.338575
0.338778
0.338981
0.339184
0.339386
0.339588
0.33979
0.339992
0.340193
0.340394
0.340594
0.340795
0.340995
0.341195
0.341394
0.341593
0.341792
0.341991
0.34219
0.342388
0.342585
0.342783
0.34298
0.343177
0.343374
0.343571
0.343767
0.343963
0.344158
0.344354
0.344549
0.344744
0.344938
0.345132
0.345327
0.34552
0.345714
0.345907
0.3461
0.346293
0.346485
0.346677
0.346869
0.347061
0.347252
0.347443
0.347634
0.347825
0.348015
0.348205
0.348395
0.348585
0.348774
0.348963
0.349152
0.349341
0.349529
0.349717
0.349905
0.350093
0.35028
0.350467
0.350654
0.350841
0.351027
0.351213
0.351399
0.351585
0.35177
0.351955
0.35214
0.352325
0.352509
0.352693
0.352877
0.353061
0.353244
0.353428
0.353611
0.353793
0.353976
0.354158
0.35434
0.354522
0.354704
0.354885
0.355066
0.355247
0.355428
0.355608
0.355788
0.355968
0.356148
0.356327
0.356507
0.356686
0.356864
0.357043
0.357222
0.3574
0.357578
0.357754
0.357926
0.358099
0.358293
0.358516
0.358751
0.358986
0.359221
0.359455
0.359689
0.359923
0.360156
0.360389
0.360621
0.360854
0.361086
0.361317
0.361548
0.361779
0.36201
0.36224
0.36247
0.362699
0.362928
0.363157
0.363386
0.363614
0.363842
0.364069
0.364297
0.364523
0.36475
0.364976
0.365202
0.365428
0.365653
0.365878
0.366103
0.366327
0.366551
0.366775
0.366998
0.367221
0.367444
0.367666
0.367888
0.36811
0.368332
0.368553
0.368774
0.368994
0.369215
0.369434
0.369654
0.369873
0.370092
0.370311
0.37053
0.370748
0.370966
0.371183
0.3714
0.371617
0.371834
0.37205
0.372266
0.372482
0.372698
0.372913
0.373128
0.373342
0.373556
0.37377
0.373984
0.374198
0.374411
0.374624
0.374836
0.375048
0.37526
0.375472
0.375683
0.375895
0.376105
0.376316
0.376526
0.376736
0.376946
0.377155
0.377365
0.377574
0.377782
0.377991
0.378199
0.378406
0.378614
0.378821
0.379028
0.379235
0.379441
0.379647
0.379853
0.380059
0.380264
0.380469
0.380674
0.380879
0.381083
0.381287
0.381491
0.381694
0.381897
0.3821
0.382303
0.382506
0.382708
0.38291
0.383111
0.383313
0.383514
0.383715
0.383915
0.384116
0.384316
0.384516
0.384715
0.384915
0.385114
0.385313
0.385511
0.38571
0.385908
0.386105
0.386303
0.3865
0.386697
0.386894
0.387091
0.387287
0.387483
0.387679
0.387875
0.38807
0.388265
0.38846
0.388655
0.388849
0.389043
0.389237
0.389431
0.389624
0.389817
0.39001
0.390203
0.390395
0.390588
0.39078
0.390971
0.391163
0.391354
0.391545
0.391736
0.391926
0.392117
0.392307
0.392497
0.392686
0.392876
0.393065
0.393254
0.393442
0.393631
0.393819
0.394007
0.394195
0.394383
0.394569
0.394753
0.394938
0.395137
0.395359
0.395572
0.395644
0.395441
0.3953
0.395275
0.395329
0.395373
0.395414
0.395449
0.395468
0.395467
0.395455
0.39544
0.395419
0.395385
0.395335
0.395273
0.395203
0.395121
0.395028
0.394921
0.394803
0.394677
0.394541
0.394398
0.394244
0.394075
0.393892
0.393696
0.393491
0.393278
0.393054
0.392815
0.392562
0.392299
0.392028
0.391749
0.391459
0.39116
0.390847
0.390519
0.390183
0.389837
0.389474
0.389097
0.388711
0.388316
0.38791
0.387495
0.387069
0.38663
0.38618
0.385722
0.385252
0.384766
0.384266
0.383754
0.383233
0.382703
0.382162
0.381612
0.38105
0.38047
0.379874
0.379267
0.378654
0.378033
0.377402
0.376759
0.376098
0.375422
0.374733
0.374035
0.373324
0.3726
0.371866
0.371122
0.370365
0.369599
0.368817
0.368014
0.367193
0.366359
0.365518
0.364675
0.363828
0.362978
0.362114
0.361211
0.36024
0.359201
0.358151
0.357214
0.356533
0.356135
0.355736
0.354665
0.352132
0.347973
0.343599
0.342383
0.348692
0.364717
0.383835
0.402276
0.402459
0.402641
0.402824
0.403005
0.403187
0.403369
0.40355
0.403731
0.403912
0.404093
0.404273
0.404453
0.404633
0.404813
0.404993
0.405172
0.405351
0.40553
0.405709
0.405887
0.406066
0.406244
0.406422
0.406599
0.406777
0.406954
0.407131
0.407308
0.407485
0.407661
0.407838
0.408014
0.408189
0.408365
0.408541
0.408716
0.408891
0.409066
0.40924
0.409415
0.409589
0.409763
0.409937
0.41011
0.410284
0.410457
0.41063
0.410803
0.410976
0.411148
0.41132
0.411492
0.411664
0.411836
0.412007
0.412178
0.412349
0.41252
0.412691
0.412861
0.413032
0.413202
0.413372
0.413541
0.413711
0.41388
0.414049
0.414218
0.414387
0.414556
0.414724
0.414892
0.41506
0.415228
0.415395
0.415563
0.41573
0.415897
0.416064
0.416231
0.416397
0.416562
0.416728
0.416899
0.417078
0.417246
0.417354
0.417379
0.41737
0.41736
0.417351
0.417341
0.417332
0.417322
0.417313
0.417303
0.417294
0.417284
0.417275
0.417265
0.417256
0.417246
0.417237
0.417227
0.417218
0.417208
0.417199
0.417189
0.41718
0.417171
0.417161
0.417152
0.417142
0.417133
0.417124
0.417114
0.417105
0.417095
0.417086
0.417077
0.417067
0.417058
0.417049
0.417039
0.41703
0.417021
0.417011
0.417002
0.416993
0.416983
0.416974
0.416965
0.416955
0.416946
0.416937
0.416927
0.416918
0.416909
0.4169
0.41689
0.416881
0.416872
0.416863
0.416853
0.416844
0.416835
0.416826
0.416817
0.416807
0.416798
0.416789
0.41678
0.416771
0.416761
0.416752
0.416743
0.416734
0.416725
0.416716
0.416706
0.416697
0.416688
0.416679
0.41667
0.416661
0.416652
0.416642
0.416633
0.416624
0.416615
0.416606
0.416597
0.416588
0.416579
0.41657
0.416561
0.416552
0.416543
0.416534
0.416524
0.416515
0.416506
0.416497
0.416488
0.416479
0.41647
0.416461
0.416452
0.416443
0.416434
0.416425
0.416416
0.416407
0.416398
0.416389
0.416381
0.416372
0.416363
0.416354
0.416345
0.416336
0.416327
0.416318
0.416309
0.4163
0.416291
0.416282
0.416273
0.416265
0.416256
0.416247
0.416238
0.416229
0.41622
0.416211
0.416202
0.416194
0.416185
0.416176
0.416167
0.416158
0.416149
0.416141
0.416132
0.416123
0.416114
0.416105
0.416097
0.416088
0.416079
0.41607
0.416062
0.416053
0.416044
0.416035
0.416027
0.416018
0.416009
0.416
0.415992
0.415983
0.415974
0.415965
0.415957
0.415948
0.415939
0.415931
0.415922
0.415913
0.415905
0.415896
0.415887
0.415879
0.41587
0.415861
0.415853
0.415844
0.415835
0.415827
0.415818
0.41581
0.415801
0.415792
0.415784
0.415775
0.415766
0.415758
0.415749
0.415741
0.415732
0.415724
0.415715
0.415706
0.415698
0.415689
0.415681
0.415672
0.415664
0.415655
0.415647
0.415638
0.41563
0.415621
0.415613
0.415604
0.415596
0.415587
0.415579
0.41557
0.415562
0.415553
0.415545
0.415536
0.415528
0.415519
0.415511
0.415503
0.415494
0.415486
0.415477
0.415469
0.41546
0.415452
0.415444
0.415435
0.415427
0.415418
0.41541
0.415402
0.415393
0.415385
0.415377
0.415368
0.41536
0.415352
0.415343
0.415335
0.415327
0.415318
0.41531
0.415302
0.415293
0.415285
0.415277
0.415268
0.41526
0.415252
0.415244
0.415235
0.415227
0.415219
0.41521
0.415202
0.415194
0.415186
0.415177
0.415169
0.415161
0.415153
0.415144
0.415136
0.415128
0.41512
0.415112
0.415103
0.415096
0.415088
0.415078
0.415063
0.415048
0.415058
0.415134
0.415226
0.415006
0.413975
0.412678
0.415049
0.427824
0.445234
0.418893
0.303627
0.167492
0.101505
0.0900316
0.0897959
0.0897576
0.0897118
0.0896664
0.0896211
0.0895759
0.0895307
0.0894856
0.0894406
0.0893957
0.0893509
0.0893061
0.0892615
0.0892169
0.0891724
0.089128
0.0890836
0.0890394
0.0889952
0.0889511
0.0889071
0.0888632
0.0888193
0.0887762
0.0887446
0.0887324
0.0887289
0.0887252
0.0887215
0.0887178
0.0887142
0.0887106
0.0887071
0.0887036
0.0887001
0.0886967
0.0886933
0.08869
0.0886867
0.0886834
0.0886802
0.088677
0.0886738
0.0886707
0.0886676
0.0886645
0.0886615
0.0886585
0.0886556
0.0886526
0.0886497
0.0886469
0.0886441
0.0886413
0.0886385
0.0886358
0.0886331
0.0886304
0.0886278
0.0886252
0.0886226
0.08862
0.0886174
0.0886149
0.0886124
0.08861
0.0886075
0.0886051
0.0886027
0.0886003
0.0885979
0.0885955
0.0885932
0.0885909
0.0885886
0.0885863
0.088584
0.0885817
0.0885795
0.0885773
0.0885751
0.0885729
0.0885707
0.0885685
0.0885663
0.0885642
0.0885621
0.08856
0.0885579
0.0885558
0.0885537
0.0885516
0.0885496
0.0885476
0.0885456
0.0885436
0.0885416
0.0885396
0.0885376
0.0885357
0.0885338
0.0885318
0.0885299
0.0885281
0.0885262
0.0885243
0.0885225
0.0885206
0.0885188
0.088517
0.0885152
0.0885135
0.0885117
0.08851
0.0885082
0.0885065
0.0885048
0.0885031
0.0885014
0.0884997
0.0884981
0.0884964
0.0884948
0.0884931
0.0884915
0.0884899
0.0884883
0.0884867
0.0884851
0.0884836
0.088482
0.0884804
0.0884789
0.0884773
0.0884758
0.0884743
0.0884727
0.0884712
0.0884697
0.0884682
0.0884667
0.0884652
0.0884637
0.0884622
0.0884607
0.0884592
0.0884577
0.0884562
0.0884548
0.0884533
0.0884518
0.0884504
0.0884489
0.0884475
0.088446
0.0884446
0.0884432
0.0884417
0.0884403
0.0884389
0.0884375
0.0884361
0.0884347
0.0884333
0.0884319
0.0884305
0.0884291
0.0884278
0.0884264
0.0884251
0.0884237
0.0884224
0.0884211
0.0884197
0.0884184
0.0884171
0.0884158
0.0884146
0.0884133
0.088412
0.0884108
0.0884095
0.0884083
0.088407
0.0884058
0.0884046
0.0884034
0.0884022
0.088401
0.0883998
0.0883987
0.0883975
0.0883963
0.0883952
0.088394
0.0883929
0.0883918
0.0883907
0.0883895
0.0883884
0.0883873
0.0883862
0.0883852
0.0883841
0.088383
0.0883819
0.0883808
0.0883798
0.0883787
0.0883777
0.0883766
0.0883756
0.0883745
0.0883735
0.0883725
0.0883714
0.0883704
0.0883694
0.0883684
0.0883674
0.0883664
0.0883653
0.0883643
0.0883634
0.0883624
0.0883614
0.0883604
0.0883594
0.0883584
0.0883575
0.0883565
0.0883556
0.0883546
0.0883537
0.0883527
0.0883518
0.0883509
0.08835
0.088349
0.0883481
0.0883472
0.0883463
0.0883455
0.0883446
0.0883437
0.0883428
0.088342
0.0883411
0.0883403
0.0883395
0.0883386
0.0883378
0.088337
0.0883362
0.0883354
0.0883346
0.0883338
0.0883331
0.0883323
0.0883316
0.0883308
0.0883301
0.0883294
0.0883286
0.0883279
0.0883272
0.0883265
0.0883258
0.0883251
0.0883245
0.0883238
0.0883231
0.0883225
0.0883218
0.0883212
0.0883205
0.0883199
0.0883193
0.0883186
0.088318
0.0883174
0.0883168
0.0883162
0.0883156
0.088315
0.0883145
0.0883139
0.0883133
0.0883128
0.0883122
0.0883116
0.0883111
0.0883106
0.08831
0.0883095
0.088309
0.0883085
0.0883079
0.0883074
0.0883069
0.0883065
0.088306
0.0883055
0.088305
0.0883045
0.0883041
0.0883036
0.0883032
0.0883028
0.0883023
0.0883019
0.0883015
0.0883011
0.0883007
0.0883003
0.0882999
0.0882995
0.0882992
0.0882988
0.0882985
0.0882981
0.0882978
0.0882975
0.0882972
0.0882969
0.0882966
0.0882963
0.088296
0.0882957
0.0882955
0.0882952
0.088295
0.0882948
0.0882946
0.0882943
0.0882941
0.088294
0.0882938
0.0882936
0.0882934
0.0882933
0.0882931
0.088293
0.0882929
0.0882927
0.0882926
0.0882925
0.0882924
0.0882923
0.0882922
0.0882922
0.0882921
0.088292
0.088292
0.0882919
0.0882919
0.0882919
0.0882918
0.0882918
0.0882918
0.0882918
0.0882918
0.0882918
0.0882918
0.0882918
0.0882919
0.0882919
0.0882919
0.088292
0.088292
0.0882921
0.0882921
0.0882922
0.0882923
0.0882924
0.0882924
0.0882925
0.0882926
0.0882927
0.0882929
0.088293
0.0882931
0.0882932
0.0882934
0.0882935
0.0882936
0.0882938
0.088294
0.0882941
0.0882943
0.0882945
0.0882947
0.0882949
0.0882951
0.0882953
0.0882955
0.0882957
0.0882959
0.0882962
0.0882964
0.0882967
0.0882969
0.0882972
0.0882975
0.0882978
0.0882981
0.0882984
0.0882987
0.088299
0.0882993
0.0882996
0.0883
0.0883003
0.0883007
0.088301
0.0883014
0.0883018
0.0883021
0.0883025
0.0883029
0.0883033
0.0883038
0.0883042
0.0883046
0.0883051
0.0883055
0.088306
0.0883064
0.0883069
0.0883074
0.0883078
0.0883083
0.0883088
0.0883093
0.0883099
0.0883104
0.0883109
0.0883114
0.088312
0.0883125
0.0883131
0.0883136
0.0883142
0.0883148
0.0883154
0.088316
0.0883166
0.0883172
0.0883178
0.0883184
0.088319
0.0883197
0.0883203
0.088321
0.0883216
0.0883223
0.0883229
0.0883236
0.0883243
0.088325
0.0883257
0.0883264
0.0883271
0.0883278
0.0883285
0.0883292
0.08833
0.0883307
0.0883315
0.0883322
0.088333
0.0883338
0.0883345
0.0883353
0.0883361
0.0883369
0.0883377
0.0883385
0.0883394
0.0883402
0.088341
0.0883419
0.0883427
0.0883436
0.0883444
0.0883453
0.0883462
0.0883471
0.088348
0.0883489
0.0883498
0.0883507
0.0883516
0.0883525
0.0883535
0.0883544
0.0883553
0.0883563
0.0883573
0.0883582
0.0883592
0.0883602
0.0883612
0.0883622
0.0883632
0.0883642
0.0883652
0.0883662
0.0883673
0.0883683
0.0883693
0.0883704
0.0883714
0.0883725
0.0883736
0.0883747
0.0883757
0.0883768
0.0883779
0.088379
0.0883801
0.0883812
0.0883823
0.0883835
0.0883846
0.0883857
0.0883869
0.088388
0.0883892
0.0883903
0.0883915
0.0883927
0.0883938
0.088395
0.0883962
0.0883974
0.0883986
0.0883998
0.088401
0.0884022
0.0884034
0.0884047
0.0884059
0.0884071
0.0884084
0.0884096
0.0884109
0.0884121
0.0884134
0.0884147
0.088416
0.0884173
0.0884186
0.0884199
0.0884212
0.0884225
0.0884238
0.0884251
0.0884265
0.0884278
0.0884292
0.0884305
0.0884319
0.0884333
0.0884346
0.088436
0.0884374
0.0884388
0.0884403
0.0884417
0.0884431
0.0884446
0.088446
0.0884475
0.0884489
0.0884504
0.0884519
0.0884534
0.0884549
0.0884565
0.088458
0.0884595
0.0884611
0.0884627
0.0884643
0.0884658
0.0884675
0.0884691
0.0884707
0.0884723
0.088474
0.0884757
0.0884773
0.088479
0.0884807
0.0884825
0.0884842
0.088486
0.0884877
0.0884895
0.0884913
0.0884931
0.0884949
0.0884968
0.0884986
0.0885005
0.0885023
0.0885042
0.0885062
0.0885081
0.08851
0.088512
0.088514
0.0885159
0.088518
0.08852
0.088522
0.0885241
0.0885261
0.0885282
0.0885303
0.0885324
0.0885346
0.0885367
0.0885389
0.0885411
0.0885433
0.0885455
0.0885477
0.0885499
0.0885522
0.0885545
0.0885568
0.0885591
0.0885614
0.0885637
0.0885661
0.0885684
0.0885708
0.0885732
0.0885756
0.088578
0.0885804
0.0885829
0.0885854
0.0885878
0.0885903
0.0885928
0.0885953
0.0885978
0.0886004
0.0886029
0.0886055
0.0886081
0.0886106
0.0886132
0.0886158
0.0886184
0.088621
0.0886237
0.0886263
0.0886289
0.0886316
0.0886343
0.0886369
0.0886396
0.0886423
0.0886449
0.0886476
0.0886503
0.088653
0.0886557
0.0886584
0.0886611
0.0886638
0.0886665
0.0886692
0.0886719
0.0886746
0.0886773
0.08868
0.0886827
0.0886854
0.0886881
0.0886908
0.0886935
0.0886962
0.0886989
0.0887015
0.0887042
0.0887069
0.0887095
0.0887121
0.0887148
0.0887174
0.08872
0.0887226
0.0887251
0.0887277
0.0887302
0.0887328
0.0887353
0.0887378
0.0887403
0.0887427
0.0887452
0.0887476
0.08875
0.0887524
0.0887547
0.088757
0.0887593
0.0887616
0.0887639
0.0887661
0.0887683
0.0887704
0.0887726
0.0887747
0.0887767
0.0887788
0.0887808
0.0887827
0.0887847
0.0887866
0.0887884
0.0887902
0.088792
0.0887937
0.0887954
0.088797
0.0887986
0.0888002
0.0888017
0.0888031
0.0888045
0.0888059
0.0888072
0.0888084
0.0888096
0.0888107
0.0888118
0.0888128
0.0888138
0.0888147
0.0888155
0.0888163
0.088817
0.0888176
0.0888182
0.0888187
0.0888192
0.0888196
0.0888199
0.0888201
0.0888203
0.0888204
0.0888204
0.0888203
0.0888202
0.08882
0.0888197
0.0888193
0.0888189
0.0888184
0.0888178
0.0888171
0.0888163
0.0888155
0.0888145
0.0888135
0.0888124
0.0888113
0.08881
0.0888087
0.0888073
0.0888058
0.0888042
0.0888025
0.0888008
0.088799
0.0887971
0.0887951
0.088793
0.0887909
0.0887887
0.0887864
0.088784
0.0887816
0.0887791
0.0887765
0.0887739
0.0887712
0.0887684
0.0887656
0.0887627
0.0887597
0.0887567
0.0887536
0.0887505
0.0887474
0.0887442
0.0887409
0.0887376
0.0887343
0.0887309
0.0887275
0.0887241
0.0887207
0.0887172
0.0887137
0.0887102
0.0887066
0.0887031
0.0886995
0.088696
0.0886924
0.0886889
0.0886853
0.0886818
0.0886783
0.0886747
0.0886712
0.0886677
0.0886643
0.0886608
0.0886574
0.088654
0.0886507
0.0886473
0.0886441
0.0886408
0.0886376
0.0886344
0.0886313
0.0886283
0.0886252
0.0886223
0.0886193
0.0886165
0.0886136
0.0886109
0.0886082
0.0886055
0.0886029
0.0886004
0.0885979
0.0885955
0.0885931
0.0885908
0.0885886
0.0885864
0.0885843
0.0885822
0.0885802
0.0885782
0.0885764
0.0885745
0.0885728
0.088571
0.0885694
0.0885678
0.0885662
0.0885647
0.0885633
0.0885619
0.0885606
0.0885593
0.088558
0.0885568
0.0885557
0.0885546
0.0885535
0.0885525
0.0885516
0.0885506
0.0885497
0.0885489
0.0885481
0.0885473
0.0885465
0.0885458
0.0885451
0.0885445
0.0885439
0.0885433
0.0885427
0.0885422
0.0885417
0.0885412
0.0885407
0.0885403
0.0885399
0.0885395
0.0885391
0.0885387
0.0885384
0.0885381
0.0885378
0.0885375
0.0885372
0.0885369
0.0885367
0.0885364
0.0885362
0.088536
0.0885358
0.0885356
0.0885354
0.0885352
0.088535
0.0885348
0.0885347
0.0885345
0.0885344
0.0885342
0.0885341
0.0885339
0.0885338
0.0885337
0.0885336
0.0885335
0.0885333
0.0885332
0.0885331
0.088533
0.0885329
0.0885328
0.0885327
0.0885326
0.0885325
0.0885324
0.0885323
0.0885322
0.0885321
0.088532
0.088532
0.0885319
0.0885318
0.0885317
0.0885316
0.0885315
0.0885314
0.0885313
0.0885313
0.0885312
0.0885311
0.088531
0.0885309
0.0885308
0.0885308
0.0885307
0.0885306
0.0885305
0.0885304
0.0885303
0.0885302
)
;

boundaryField
{
    inlet
    {
        type            calculated;
        value           uniform -0.0728845;
    }
    outlet
    {
        type            calculated;
        value           uniform 0.0885302;
    }
    right
    {
        type            empty;
    }
    left
    {
        type            empty;
    }
    atmosphere
    {
        type            empty;
    }
    bottomWall
    {
        type            empty;
    }
}


// ************************************************************************* //
