/*--------------------------------*- C++ -*----------------------------------*\
| =========                 |                                                 |
| \\      /  F ield         | foam-extend: Open Source CFD                    |
|  \\    /   O peration     | Version:     3.1                                |
|   \\  /    A nd           | Web:         http://www.extend-project.de       |
|    \\/     M anipulation  |                                                 |
\*---------------------------------------------------------------------------*/
FoamFile
{
    version     2.0;
    format      ascii;
    class       volVectorField;
    location    "26";
    object      U;
}
// * * * * * * * * * * * * * * * * * * * * * * * * * * * * * * * * * * * * * //

dimensions      [0 1 -1 0 0 0 0];

internalField   nonuniform List<vector> 
2539
(
(0.728648 0 0)
(0.729041 0 0)
(0.729843 0 0)
(0.73063 0 0)
(0.731419 0 0)
(0.732209 0 0)
(0.733002 0 0)
(0.733797 0 0)
(0.734594 0 0)
(0.735392 0 0)
(0.736193 0 0)
(0.736995 0 0)
(0.737799 0 0)
(0.738606 0 0)
(0.739414 0 0)
(0.740224 0 0)
(0.741037 0 0)
(0.741851 0 0)
(0.742667 0 0)
(0.743485 0 0)
(0.744306 0 0)
(0.745128 0 0)
(0.745952 0 0)
(0.746778 0 0)
(0.747607 0 0)
(0.748437 0 0)
(0.74927 0 0)
(0.750104 0 0)
(0.750941 0 0)
(0.75178 0 0)
(0.752621 0 0)
(0.753464 0 0)
(0.754309 0 0)
(0.755156 0 0)
(0.756005 0 0)
(0.756857 0 0)
(0.757711 0 0)
(0.758566 0 0)
(0.759424 0 0)
(0.760285 0 0)
(0.761147 0 0)
(0.762012 0 0)
(0.762878 0 0)
(0.763747 0 0)
(0.764619 0 0)
(0.765492 0 0)
(0.766368 0 0)
(0.767246 0 0)
(0.768126 0 0)
(0.769009 0 0)
(0.769894 0 0)
(0.770781 0 0)
(0.77167 0 0)
(0.772562 0 0)
(0.773456 0 0)
(0.774353 0 0)
(0.775252 0 0)
(0.776153 0 0)
(0.777056 0 0)
(0.777962 0 0)
(0.778871 0 0)
(0.779782 0 0)
(0.780695 0 0)
(0.78161 0 0)
(0.782528 0 0)
(0.783449 0 0)
(0.784372 0 0)
(0.785297 0 0)
(0.786225 0 0)
(0.787156 0 0)
(0.788089 0 0)
(0.789024 0 0)
(0.789962 0 0)
(0.790903 0 0)
(0.791846 0 0)
(0.792792 0 0)
(0.79374 0 0)
(0.794691 0 0)
(0.795645 0 0)
(0.796601 0 0)
(0.79756 0 0)
(0.798521 0 0)
(0.799485 0 0)
(0.800452 0 0)
(0.801421 0 0)
(0.802393 0 0)
(0.803368 0 0)
(0.804346 0 0)
(0.805326 0 0)
(0.806309 0 0)
(0.807295 0 0)
(0.808284 0 0)
(0.809275 0 0)
(0.810269 0 0)
(0.811266 0 0)
(0.812266 0 0)
(0.813269 0 0)
(0.814274 0 0)
(0.815283 0 0)
(0.816294 0 0)
(0.817308 0 0)
(0.818326 0 0)
(0.819346 0 0)
(0.820369 0 0)
(0.821395 0 0)
(0.822424 0 0)
(0.823456 0 0)
(0.824491 0 0)
(0.825529 0 0)
(0.82657 0 0)
(0.827614 0 0)
(0.828661 0 0)
(0.829712 0 0)
(0.830765 0 0)
(0.831822 0 0)
(0.832881 0 0)
(0.833944 0 0)
(0.83501 0 0)
(0.83608 0 0)
(0.837152 0 0)
(0.838228 0 0)
(0.839306 0 0)
(0.840389 0 0)
(0.841474 0 0)
(0.842563 0 0)
(0.843655 0 0)
(0.84475 0 0)
(0.845849 0 0)
(0.846951 0 0)
(0.848056 0 0)
(0.849165 0 0)
(0.850278 0 0)
(0.851393 0 0)
(0.852513 0 0)
(0.853635 0 0)
(0.854762 0 0)
(0.855891 0 0)
(0.857024 0 0)
(0.858161 0 0)
(0.859302 0 0)
(0.860446 0 0)
(0.861593 0 0)
(0.862744 0 0)
(0.863899 0 0)
(0.865058 0 0)
(0.86622 0 0)
(0.867386 0 0)
(0.868556 0 0)
(0.86973 0 0)
(0.870907 0 0)
(0.872088 0 0)
(0.873273 0 0)
(0.874462 0 0)
(0.875655 0 0)
(0.876851 0 0)
(0.878052 0 0)
(0.879256 0 0)
(0.880465 0 0)
(0.881677 0 0)
(0.882894 0 0)
(0.884114 0 0)
(0.885339 0 0)
(0.886568 0 0)
(0.887801 0 0)
(0.889038 0 0)
(0.890279 0 0)
(0.891524 0 0)
(0.892774 0 0)
(0.894027 0 0)
(0.895286 0 0)
(0.896548 0 0)
(0.897815 0 0)
(0.899086 0 0)
(0.900361 0 0)
(0.901641 0 0)
(0.902926 0 0)
(0.904214 0 0)
(0.905508 0 0)
(0.906806 0 0)
(0.908108 0 0)
(0.909415 0 0)
(0.910727 0 0)
(0.912043 0 0)
(0.913364 0 0)
(0.914689 0 0)
(0.916635 0 0)
(0.91833 0 0)
(0.91879 0 0)
(0.919187 0 0)
(0.91958 0 0)
(0.919974 0 0)
(0.920368 0 0)
(0.920762 0 0)
(0.921157 0 0)
(0.921552 0 0)
(0.921948 0 0)
(0.922344 0 0)
(0.922741 0 0)
(0.923138 0 0)
(0.923535 0 0)
(0.923933 0 0)
(0.924331 0 0)
(0.92473 0 0)
(0.925129 0 0)
(0.925529 0 0)
(0.925929 0 0)
(0.926329 0 0)
(0.92673 0 0)
(0.927131 0 0)
(0.927533 0 0)
(0.927935 0 0)
(0.928338 0 0)
(0.928741 0 0)
(0.929145 0 0)
(0.929548 0 0)
(0.929953 0 0)
(0.930358 0 0)
(0.930763 0 0)
(0.931169 0 0)
(0.931575 0 0)
(0.931981 0 0)
(0.932388 0 0)
(0.932796 0 0)
(0.933204 0 0)
(0.933612 0 0)
(0.934021 0 0)
(0.93443 0 0)
(0.93484 0 0)
(0.93525 0 0)
(0.935661 0 0)
(0.936072 0 0)
(0.936483 0 0)
(0.936895 0 0)
(0.937308 0 0)
(0.93772 0 0)
(0.938134 0 0)
(0.938548 0 0)
(0.938962 0 0)
(0.939377 0 0)
(0.939792 0 0)
(0.940207 0 0)
(0.940624 0 0)
(0.94104 0 0)
(0.941457 0 0)
(0.941875 0 0)
(0.942293 0 0)
(0.942711 0 0)
(0.94313 0 0)
(0.94355 0 0)
(0.943969 0 0)
(0.94439 0 0)
(0.944811 0 0)
(0.945232 0 0)
(0.945654 0 0)
(0.946076 0 0)
(0.946499 0 0)
(0.946922 0 0)
(0.947346 0 0)
(0.94777 0 0)
(0.948194 0 0)
(0.948619 0 0)
(0.949045 0 0)
(0.949471 0 0)
(0.949898 0 0)
(0.950325 0 0)
(0.950752 0 0)
(0.951181 0 0)
(0.951609 0 0)
(0.952038 0 0)
(0.952468 0 0)
(0.952898 0 0)
(0.953328 0 0)
(0.953759 0 0)
(0.954191 0 0)
(0.954623 0 0)
(0.955055 0 0)
(0.955488 0 0)
(0.955922 0 0)
(0.956356 0 0)
(0.95679 0 0)
(0.957225 0 0)
(0.957661 0 0)
(0.958097 0 0)
(0.958534 0 0)
(0.958971 0 0)
(0.959408 0 0)
(0.959846 0 0)
(0.960285 0 0)
(0.960724 0 0)
(0.961164 0 0)
(0.961604 0 0)
(0.962044 0 0)
(0.962486 0 0)
(0.962927 0 0)
(0.96337 0 0)
(0.963812 0 0)
(0.964256 0 0)
(0.964699 0 0)
(0.965144 0 0)
(0.965589 0 0)
(0.966034 0 0)
(0.96648 0 0)
(0.966926 0 0)
(0.967373 0 0)
(0.967821 0 0)
(0.968269 0 0)
(0.968717 0 0)
(0.969167 0 0)
(0.969616 0 0)
(0.970066 0 0)
(0.970517 0 0)
(0.970968 0 0)
(0.97142 0 0)
(0.971873 0 0)
(0.972325 0 0)
(0.972779 0 0)
(0.973233 0 0)
(0.973687 0 0)
(0.974143 0 0)
(0.974598 0 0)
(0.975054 0 0)
(0.975511 0 0)
(0.975969 0 0)
(0.976426 0 0)
(0.976885 0 0)
(0.977344 0 0)
(0.977803 0 0)
(0.978264 0 0)
(0.978724 0 0)
(0.979185 0 0)
(0.979647 0 0)
(0.98011 0 0)
(0.980573 0 0)
(0.981036 0 0)
(0.9815 0 0)
(0.981965 0 0)
(0.98243 0 0)
(0.982896 0 0)
(0.983362 0 0)
(0.983829 0 0)
(0.984297 0 0)
(0.984765 0 0)
(0.985234 0 0)
(0.985703 0 0)
(0.986173 0 0)
(0.986643 0 0)
(0.987114 0 0)
(0.987586 0 0)
(0.988058 0 0)
(0.988531 0 0)
(0.989005 0 0)
(0.989479 0 0)
(0.989953 0 0)
(0.990428 0 0)
(0.990904 0 0)
(0.991381 0 0)
(0.991858 0 0)
(0.992335 0 0)
(0.992814 0 0)
(0.993292 0 0)
(0.993772 0 0)
(0.994252 0 0)
(0.994733 0 0)
(0.995214 0 0)
(0.995696 0 0)
(0.996178 0 0)
(0.996662 0 0)
(0.997145 0 0)
(0.99763 0 0)
(0.998115 0 0)
(0.9986 0 0)
(0.999087 0 0)
(0.999573 0 0)
(1.00006 0 0)
(1.00055 0 0)
(1.00104 0 0)
(1.00153 0 0)
(1.00202 0 0)
(1.00251 0 0)
(1.003 0 0)
(1.00349 0 0)
(1.00398 0 0)
(1.00448 0 0)
(1.00495 0 0)
(1.00585 0 0)
(0.998317 0 0)
(1.05608 0 0)
(1.12622 0 0)
(1.1704 0 0)
(1.19858 0 0)
(1.21858 0 0)
(1.23419 0 0)
(1.24729 0 0)
(1.25884 0 0)
(1.26939 0 0)
(1.27922 0 0)
(1.28853 0 0)
(1.29744 0 0)
(1.30601 0 0)
(1.31431 0 0)
(1.32237 0 0)
(1.33023 0 0)
(1.33791 0 0)
(1.34543 0 0)
(1.35281 0 0)
(1.36007 0 0)
(1.36721 0 0)
(1.37424 0 0)
(1.38119 0 0)
(1.38804 0 0)
(1.39481 0 0)
(1.40151 0 0)
(1.40814 0 0)
(1.41471 0 0)
(1.42122 0 0)
(1.42768 0 0)
(1.43408 0 0)
(1.44044 0 0)
(1.44675 0 0)
(1.45303 0 0)
(1.45926 0 0)
(1.46546 0 0)
(1.47163 0 0)
(1.47777 0 0)
(1.48388 0 0)
(1.48996 0 0)
(1.49602 0 0)
(1.50205 0 0)
(1.50806 0 0)
(1.51406 0 0)
(1.52004 0 0)
(1.526 0 0)
(1.53194 0 0)
(1.53788 0 0)
(1.5438 0 0)
(1.54971 0 0)
(1.55561 0 0)
(1.5615 0 0)
(1.56739 0 0)
(1.57327 0 0)
(1.57914 0 0)
(1.58502 0 0)
(1.59089 0 0)
(1.59676 0 0)
(1.60263 0 0)
(1.60851 0 0)
(1.61439 0 0)
(1.62027 0 0)
(1.62616 0 0)
(1.63206 0 0)
(1.63797 0 0)
(1.64389 0 0)
(1.64982 0 0)
(1.65577 0 0)
(1.66173 0 0)
(1.66772 0 0)
(1.67372 0 0)
(1.67976 0 0)
(1.68581 0 0)
(1.6919 0 0)
(1.69802 0 0)
(1.70418 0 0)
(1.71039 0 0)
(1.71663 0 0)
(1.72294 0 0)
(1.7293 0 0)
(1.73573 0 0)
(1.74224 0 0)
(1.74884 0 0)
(1.75554 0 0)
(1.76236 0 0)
(1.76932 0 0)
(1.77644 0 0)
(1.78377 0 0)
(1.79133 0 0)
(1.79918 0 0)
(1.80739 0 0)
(1.81605 0 0)
(1.82526 0 0)
(1.83516 0 0)
(1.84592 0 0)
(1.85772 0 0)
(1.87077 0 0)
(1.88527 0 0)
(1.90134 0 0)
(1.94507 0 0)
(1.96563 0 0)
(1.98484 0 0)
(2.00292 0 0)
(2.02002 0 0)
(2.03627 0 0)
(2.05179 0 0)
(2.06665 0 0)
(2.08093 0 0)
(2.09468 0 0)
(2.10797 0 0)
(2.12083 0 0)
(2.1333 0 0)
(2.14542 0 0)
(2.1572 0 0)
(2.16869 0 0)
(2.17989 0 0)
(2.19083 0 0)
(2.20153 0 0)
(2.212 0 0)
(2.22226 0 0)
(2.23231 0 0)
(2.24218 0 0)
(2.25187 0 0)
(2.26139 0 0)
(2.27075 0 0)
(2.27996 0 0)
(2.28902 0 0)
(2.29795 0 0)
(2.30674 0 0)
(2.31541 0 0)
(2.32396 0 0)
(2.33239 0 0)
(2.34072 0 0)
(2.34894 0 0)
(2.35705 0 0)
(2.36507 0 0)
(2.373 0 0)
(2.38083 0 0)
(2.38858 0 0)
(2.39624 0 0)
(2.40382 0 0)
(2.41132 0 0)
(2.41874 0 0)
(2.42609 0 0)
(2.43337 0 0)
(2.44058 0 0)
(2.44772 0 0)
(2.4548 0 0)
(2.46181 0 0)
(2.46876 0 0)
(2.47566 0 0)
(2.48249 0 0)
(2.48926 0 0)
(2.49598 0 0)
(2.50265 0 0)
(2.50926 0 0)
(2.51583 0 0)
(2.52234 0 0)
(2.5288 0 0)
(2.53522 0 0)
(2.54158 0 0)
(2.54791 0 0)
(2.55419 0 0)
(2.56042 0 0)
(2.56661 0 0)
(2.57276 0 0)
(2.57887 0 0)
(2.58494 0 0)
(2.59097 0 0)
(2.59696 0 0)
(2.60292 0 0)
(2.60883 0 0)
(2.61472 0 0)
(2.62056 0 0)
(2.62637 0 0)
(2.63215 0 0)
(2.63789 0 0)
(2.6436 0 0)
(2.64928 0 0)
(2.65492 0 0)
(2.66054 0 0)
(2.66612 0 0)
(2.67167 0 0)
(2.6772 0 0)
(2.68269 0 0)
(2.68816 0 0)
(2.6936 0 0)
(2.69901 0 0)
(2.70439 0 0)
(2.70974 0 0)
(2.71507 0 0)
(2.72037 0 0)
(2.72564 0 0)
(2.7309 0 0)
(2.73615 0 0)
(2.74142 0 0)
(2.74668 0 0)
(2.75181 0 0)
(2.75646 0 0)
(2.76029 0 0)
(2.76361 0 0)
(2.76692 0 0)
(2.77023 0 0)
(2.77352 0 0)
(2.77681 0 0)
(2.78008 0 0)
(2.78334 0 0)
(2.7866 0 0)
(2.78984 0 0)
(2.79308 0 0)
(2.7963 0 0)
(2.79952 0 0)
(2.80272 0 0)
(2.80592 0 0)
(2.80911 0 0)
(2.81229 0 0)
(2.81546 0 0)
(2.81862 0 0)
(2.82177 0 0)
(2.82491 0 0)
(2.82805 0 0)
(2.83117 0 0)
(2.83429 0 0)
(2.8374 0 0)
(2.8405 0 0)
(2.84359 0 0)
(2.84667 0 0)
(2.84975 0 0)
(2.85282 0 0)
(2.85587 0 0)
(2.85892 0 0)
(2.86197 0 0)
(2.865 0 0)
(2.86803 0 0)
(2.87105 0 0)
(2.87406 0 0)
(2.87706 0 0)
(2.88005 0 0)
(2.88304 0 0)
(2.88602 0 0)
(2.88899 0 0)
(2.89196 0 0)
(2.89492 0 0)
(2.89787 0 0)
(2.90081 0 0)
(2.90374 0 0)
(2.90667 0 0)
(2.90959 0 0)
(2.91251 0 0)
(2.91541 0 0)
(2.91831 0 0)
(2.92121 0 0)
(2.92409 0 0)
(2.92697 0 0)
(2.92984 0 0)
(2.93271 0 0)
(2.93556 0 0)
(2.93842 0 0)
(2.94126 0 0)
(2.9441 0 0)
(2.94693 0 0)
(2.94976 0 0)
(2.95257 0 0)
(2.95539 0 0)
(2.95819 0 0)
(2.96099 0 0)
(2.96378 0 0)
(2.96657 0 0)
(2.96935 0 0)
(2.97212 0 0)
(2.97489 0 0)
(2.97765 0 0)
(2.98041 0 0)
(2.98316 0 0)
(2.9859 0 0)
(2.98864 0 0)
(2.99137 0 0)
(2.9941 0 0)
(2.99682 0 0)
(2.99953 0 0)
(3.00224 0 0)
(3.00494 0 0)
(3.00763 0 0)
(3.01032 0 0)
(3.01301 0 0)
(3.01569 0 0)
(3.01836 0 0)
(3.02103 0 0)
(3.02369 0 0)
(3.02635 0 0)
(3.029 0 0)
(3.03164 0 0)
(3.03428 0 0)
(3.03692 0 0)
(3.03955 0 0)
(3.04217 0 0)
(3.04479 0 0)
(3.0474 0 0)
(3.05001 0 0)
(3.05261 0 0)
(3.05521 0 0)
(3.0578 0 0)
(3.06038 0 0)
(3.06297 0 0)
(3.06554 0 0)
(3.06811 0 0)
(3.07068 0 0)
(3.07324 0 0)
(3.0758 0 0)
(3.07835 0 0)
(3.08089 0 0)
(3.08343 0 0)
(3.08597 0 0)
(3.0885 0 0)
(3.09103 0 0)
(3.09355 0 0)
(3.09607 0 0)
(3.09858 0 0)
(3.10108 0 0)
(3.10359 0 0)
(3.10608 0 0)
(3.10858 0 0)
(3.11106 0 0)
(3.11355 0 0)
(3.11603 0 0)
(3.1185 0 0)
(3.12097 0 0)
(3.12343 0 0)
(3.12589 0 0)
(3.12835 0 0)
(3.1308 0 0)
(3.13325 0 0)
(3.13569 0 0)
(3.13813 0 0)
(3.14056 0 0)
(3.14299 0 0)
(3.14541 0 0)
(3.14783 0 0)
(3.15025 0 0)
(3.15266 0 0)
(3.15507 0 0)
(3.15747 0 0)
(3.15987 0 0)
(3.16226 0 0)
(3.16465 0 0)
(3.16704 0 0)
(3.16942 0 0)
(3.17179 0 0)
(3.17417 0 0)
(3.17653 0 0)
(3.1789 0 0)
(3.18126 0 0)
(3.18362 0 0)
(3.18597 0 0)
(3.18832 0 0)
(3.19066 0 0)
(3.193 0 0)
(3.19534 0 0)
(3.19767 0 0)
(3.19999 0 0)
(3.20232 0 0)
(3.20464 0 0)
(3.20695 0 0)
(3.20927 0 0)
(3.21157 0 0)
(3.21388 0 0)
(3.21618 0 0)
(3.21848 0 0)
(3.22077 0 0)
(3.22306 0 0)
(3.22534 0 0)
(3.22762 0 0)
(3.2299 0 0)
(3.23217 0 0)
(3.23444 0 0)
(3.23671 0 0)
(3.23897 0 0)
(3.24123 0 0)
(3.24348 0 0)
(3.24574 0 0)
(3.24798 0 0)
(3.25023 0 0)
(3.25247 0 0)
(3.2547 0 0)
(3.25694 0 0)
(3.25916 0 0)
(3.26139 0 0)
(3.26361 0 0)
(3.26583 0 0)
(3.26805 0 0)
(3.27026 0 0)
(3.27246 0 0)
(3.27467 0 0)
(3.27687 0 0)
(3.27907 0 0)
(3.28126 0 0)
(3.28345 0 0)
(3.28564 0 0)
(3.28782 0 0)
(3.29 0 0)
(3.29218 0 0)
(3.29435 0 0)
(3.29652 0 0)
(3.29869 0 0)
(3.30085 0 0)
(3.30301 0 0)
(3.30517 0 0)
(3.30732 0 0)
(3.30947 0 0)
(3.31162 0 0)
(3.31376 0 0)
(3.3159 0 0)
(3.31803 0 0)
(3.32017 0 0)
(3.3223 0 0)
(3.32442 0 0)
(3.32655 0 0)
(3.32867 0 0)
(3.33078 0 0)
(3.3329 0 0)
(3.33501 0 0)
(3.33712 0 0)
(3.33922 0 0)
(3.34132 0 0)
(3.34342 0 0)
(3.34551 0 0)
(3.34761 0 0)
(3.3497 0 0)
(3.35178 0 0)
(3.35386 0 0)
(3.35594 0 0)
(3.35802 0 0)
(3.36009 0 0)
(3.36216 0 0)
(3.36423 0 0)
(3.36629 0 0)
(3.36835 0 0)
(3.37041 0 0)
(3.37247 0 0)
(3.37452 0 0)
(3.37657 0 0)
(3.37861 0 0)
(3.38066 0 0)
(3.3827 0 0)
(3.38473 0 0)
(3.38677 0 0)
(3.3888 0 0)
(3.39083 0 0)
(3.39285 0 0)
(3.39487 0 0)
(3.39689 0 0)
(3.39891 0 0)
(3.40092 0 0)
(3.40293 0 0)
(3.40494 0 0)
(3.40695 0 0)
(3.40895 0 0)
(3.41095 0 0)
(3.41295 0 0)
(3.41494 0 0)
(3.41693 0 0)
(3.41892 0 0)
(3.4209 0 0)
(3.42289 0 0)
(3.42487 0 0)
(3.42684 0 0)
(3.42882 0 0)
(3.43079 0 0)
(3.43276 0 0)
(3.43472 0 0)
(3.43669 0 0)
(3.43865 0 0)
(3.44061 0 0)
(3.44256 0 0)
(3.44451 0 0)
(3.44646 0 0)
(3.44841 0 0)
(3.45035 0 0)
(3.4523 0 0)
(3.45423 0 0)
(3.45617 0 0)
(3.4581 0 0)
(3.46004 0 0)
(3.46196 0 0)
(3.46389 0 0)
(3.46581 0 0)
(3.46773 0 0)
(3.46965 0 0)
(3.47157 0 0)
(3.47348 0 0)
(3.47539 0 0)
(3.4773 0 0)
(3.4792 0 0)
(3.48111 0 0)
(3.483 0 0)
(3.4849 0 0)
(3.4868 0 0)
(3.48869 0 0)
(3.49058 0 0)
(3.49247 0 0)
(3.49435 0 0)
(3.49623 0 0)
(3.49811 0 0)
(3.49999 0 0)
(3.50187 0 0)
(3.50374 0 0)
(3.50561 0 0)
(3.50747 0 0)
(3.50934 0 0)
(3.5112 0 0)
(3.51306 0 0)
(3.51492 0 0)
(3.51677 0 0)
(3.51863 0 0)
(3.52048 0 0)
(3.52232 0 0)
(3.52417 0 0)
(3.52601 0 0)
(3.52785 0 0)
(3.52969 0 0)
(3.53153 0 0)
(3.53336 0 0)
(3.53519 0 0)
(3.53702 0 0)
(3.53885 0 0)
(3.54067 0 0)
(3.54249 0 0)
(3.54431 0 0)
(3.54613 0 0)
(3.54794 0 0)
(3.54976 0 0)
(3.55157 0 0)
(3.55337 0 0)
(3.55518 0 0)
(3.55698 0 0)
(3.55878 0 0)
(3.56058 0 0)
(3.56238 0 0)
(3.56417 0 0)
(3.56596 0 0)
(3.56775 0 0)
(3.56954 0 0)
(3.57132 0 0)
(3.57311 0 0)
(3.5749 0 0)
(3.57667 0 0)
(3.57841 0 0)
(3.58011 0 0)
(3.58188 0 0)
(3.58398 0 0)
(3.58634 0 0)
(3.58869 0 0)
(3.59104 0 0)
(3.59338 0 0)
(3.59572 0 0)
(3.59806 0 0)
(3.60039 0 0)
(3.60272 0 0)
(3.60505 0 0)
(3.60738 0 0)
(3.6097 0 0)
(3.61201 0 0)
(3.61433 0 0)
(3.61664 0 0)
(3.61894 0 0)
(3.62125 0 0)
(3.62355 0 0)
(3.62585 0 0)
(3.62814 0 0)
(3.63043 0 0)
(3.63272 0 0)
(3.635 0 0)
(3.63728 0 0)
(3.63956 0 0)
(3.64183 0 0)
(3.6441 0 0)
(3.64637 0 0)
(3.64863 0 0)
(3.65089 0 0)
(3.65315 0 0)
(3.65541 0 0)
(3.65766 0 0)
(3.6599 0 0)
(3.66215 0 0)
(3.66439 0 0)
(3.66663 0 0)
(3.66886 0 0)
(3.6711 0 0)
(3.67333 0 0)
(3.67555 0 0)
(3.67777 0 0)
(3.67999 0 0)
(3.68221 0 0)
(3.68442 0 0)
(3.68663 0 0)
(3.68884 0 0)
(3.69104 0 0)
(3.69325 0 0)
(3.69544 0 0)
(3.69764 0 0)
(3.69983 0 0)
(3.70202 0 0)
(3.70421 0 0)
(3.70639 0 0)
(3.70857 0 0)
(3.71074 0 0)
(3.71292 0 0)
(3.71509 0 0)
(3.71726 0 0)
(3.71942 0 0)
(3.72158 0 0)
(3.72374 0 0)
(3.7259 0 0)
(3.72805 0 0)
(3.7302 0 0)
(3.73235 0 0)
(3.73449 0 0)
(3.73663 0 0)
(3.73877 0 0)
(3.74091 0 0)
(3.74304 0 0)
(3.74517 0 0)
(3.7473 0 0)
(3.74942 0 0)
(3.75154 0 0)
(3.75366 0 0)
(3.75578 0 0)
(3.75789 0 0)
(3.76 0 0)
(3.76211 0 0)
(3.76421 0 0)
(3.76631 0 0)
(3.76841 0 0)
(3.77051 0 0)
(3.7726 0 0)
(3.77469 0 0)
(3.77678 0 0)
(3.77886 0 0)
(3.78095 0 0)
(3.78303 0 0)
(3.7851 0 0)
(3.78718 0 0)
(3.78925 0 0)
(3.79132 0 0)
(3.79338 0 0)
(3.79544 0 0)
(3.7975 0 0)
(3.79956 0 0)
(3.80162 0 0)
(3.80367 0 0)
(3.80572 0 0)
(3.80777 0 0)
(3.80981 0 0)
(3.81185 0 0)
(3.81389 0 0)
(3.81593 0 0)
(3.81796 0 0)
(3.81999 0 0)
(3.82202 0 0)
(3.82404 0 0)
(3.82607 0 0)
(3.82809 0 0)
(3.83011 0 0)
(3.83212 0 0)
(3.83413 0 0)
(3.83614 0 0)
(3.83815 0 0)
(3.84016 0 0)
(3.84216 0 0)
(3.84416 0 0)
(3.84616 0 0)
(3.84815 0 0)
(3.85014 0 0)
(3.85213 0 0)
(3.85412 0 0)
(3.8561 0 0)
(3.85809 0 0)
(3.86007 0 0)
(3.86204 0 0)
(3.86402 0 0)
(3.86599 0 0)
(3.86796 0 0)
(3.86993 0 0)
(3.87189 0 0)
(3.87385 0 0)
(3.87581 0 0)
(3.87777 0 0)
(3.87972 0 0)
(3.88168 0 0)
(3.88363 0 0)
(3.88557 0 0)
(3.88752 0 0)
(3.88946 0 0)
(3.8914 0 0)
(3.89334 0 0)
(3.89527 0 0)
(3.89721 0 0)
(3.89914 0 0)
(3.90107 0 0)
(3.90299 0 0)
(3.90491 0 0)
(3.90684 0 0)
(3.90875 0 0)
(3.91067 0 0)
(3.91258 0 0)
(3.9145 0 0)
(3.9164 0 0)
(3.91831 0 0)
(3.92022 0 0)
(3.92212 0 0)
(3.92402 0 0)
(3.92591 0 0)
(3.92781 0 0)
(3.9297 0 0)
(3.93159 0 0)
(3.93348 0 0)
(3.93537 0 0)
(3.93725 0 0)
(3.93913 0 0)
(3.94101 0 0)
(3.94289 0 0)
(3.94476 0 0)
(3.94661 0 0)
(3.94844 0 0)
(3.95032 0 0)
(3.95241 0 0)
(3.95477 0 0)
(3.95667 0 0)
(3.9562 0 0)
(3.95357 0 0)
(3.95243 0 0)
(3.95306 0 0)
(3.95352 0 0)
(3.95394 0 0)
(3.95435 0 0)
(3.95464 0 0)
(3.95472 0 0)
(3.95462 0 0)
(3.95447 0 0)
(3.95432 0 0)
(3.95407 0 0)
(3.95364 0 0)
(3.95306 0 0)
(3.95241 0 0)
(3.95165 0 0)
(3.95077 0 0)
(3.94979 0 0)
(3.94864 0 0)
(3.94743 0 0)
(3.94611 0 0)
(3.94471 0 0)
(3.94325 0 0)
(3.94164 0 0)
(3.93987 0 0)
(3.93797 0 0)
(3.93596 0 0)
(3.93386 0 0)
(3.9317 0 0)
(3.92938 0 0)
(3.92691 0 0)
(3.92432 0 0)
(3.92165 0 0)
(3.91892 0 0)
(3.91606 0 0)
(3.91312 0 0)
(3.91008 0 0)
(3.90686 0 0)
(3.90352 0 0)
(3.90013 0 0)
(3.8966 0 0)
(3.89287 0 0)
(3.88906 0 0)
(3.88516 0 0)
(3.88115 0 0)
(3.87705 0 0)
(3.87286 0 0)
(3.86852 0 0)
(3.86407 0 0)
(3.85953 0 0)
(3.85491 0 0)
(3.85013 0 0)
(3.84519 0 0)
(3.84012 0 0)
(3.83495 0 0)
(3.82971 0 0)
(3.82435 0 0)
(3.81889 0 0)
(3.81335 0 0)
(3.80764 0 0)
(3.80175 0 0)
(3.79573 0 0)
(3.78962 0 0)
(3.78345 0 0)
(3.7772 0 0)
(3.77085 0 0)
(3.76433 0 0)
(3.75764 0 0)
(3.7508 0 0)
(3.74386 0 0)
(3.73683 0 0)
(3.72964 0 0)
(3.72235 0 0)
(3.71497 0 0)
(3.70746 0 0)
(3.69985 0 0)
(3.69213 0 0)
(3.6842 0 0)
(3.67608 0 0)
(3.66778 0 0)
(3.65939 0 0)
(3.65097 0 0)
(3.64253 0 0)
(3.63404 0 0)
(3.62551 0 0)
(3.61677 0 0)
(3.60746 0 0)
(3.59735 0 0)
(3.58667 0 0)
(3.57635 0 0)
(3.56792 0 0)
(3.56273 0 0)
(3.55997 0 0)
(3.55475 0 0)
(3.53855 0 0)
(3.50409 0 0)
(3.45538 0 0)
(3.41661 0 0)
(3.43106 0 0)
(3.54279 0 0)
(3.75156 0 0)
(4.02185 0 0)
(4.02368 0 0)
(4.0255 0 0)
(4.02733 0 0)
(4.02915 0 0)
(4.03096 0 0)
(4.03278 0 0)
(4.03459 0 0)
(4.03641 0 0)
(4.03822 0 0)
(4.04002 0 0)
(4.04183 0 0)
(4.04363 0 0)
(4.04543 0 0)
(4.04723 0 0)
(4.04903 0 0)
(4.05082 0 0)
(4.05262 0 0)
(4.05441 0 0)
(4.0562 0 0)
(4.05798 0 0)
(4.05977 0 0)
(4.06155 0 0)
(4.06333 0 0)
(4.06511 0 0)
(4.06688 0 0)
(4.06866 0 0)
(4.07043 0 0)
(4.0722 0 0)
(4.07397 0 0)
(4.07573 0 0)
(4.07749 0 0)
(4.07926 0 0)
(4.08102 0 0)
(4.08277 0 0)
(4.08453 0 0)
(4.08628 0 0)
(4.08803 0 0)
(4.08978 0 0)
(4.09153 0 0)
(4.09328 0 0)
(4.09502 0 0)
(4.09676 0 0)
(4.0985 0 0)
(4.10024 0 0)
(4.10197 0 0)
(4.1037 0 0)
(4.10544 0 0)
(4.10717 0 0)
(4.10889 0 0)
(4.11062 0 0)
(4.11234 0 0)
(4.11406 0 0)
(4.11578 0 0)
(4.1175 0 0)
(4.11921 0 0)
(4.12093 0 0)
(4.12264 0 0)
(4.12435 0 0)
(4.12606 0 0)
(4.12776 0 0)
(4.12947 0 0)
(4.13117 0 0)
(4.13287 0 0)
(4.13457 0 0)
(4.13626 0 0)
(4.13796 0 0)
(4.13965 0 0)
(4.14134 0 0)
(4.14303 0 0)
(4.14471 0 0)
(4.1464 0 0)
(4.14808 0 0)
(4.14976 0 0)
(4.15144 0 0)
(4.15312 0 0)
(4.15479 0 0)
(4.15646 0 0)
(4.15814 0 0)
(4.15981 0 0)
(4.16147 0 0)
(4.16314 0 0)
(4.16479 0 0)
(4.16644 0 0)
(4.16811 0 0)
(4.16987 0 0)
(4.17168 0 0)
(4.17324 0 0)
(4.17384 0 0)
(4.17375 0 0)
(4.17365 0 0)
(4.17355 0 0)
(4.17346 0 0)
(4.17336 0 0)
(4.17327 0 0)
(4.17317 0 0)
(4.17308 0 0)
(4.17298 0 0)
(4.17289 0 0)
(4.17279 0 0)
(4.1727 0 0)
(4.1726 0 0)
(4.17251 0 0)
(4.17241 0 0)
(4.17232 0 0)
(4.17223 0 0)
(4.17213 0 0)
(4.17204 0 0)
(4.17194 0 0)
(4.17185 0 0)
(4.17175 0 0)
(4.17166 0 0)
(4.17156 0 0)
(4.17147 0 0)
(4.17138 0 0)
(4.17128 0 0)
(4.17119 0 0)
(4.17109 0 0)
(4.171 0 0)
(4.17091 0 0)
(4.17081 0 0)
(4.17072 0 0)
(4.17063 0 0)
(4.17053 0 0)
(4.17044 0 0)
(4.17035 0 0)
(4.17025 0 0)
(4.17016 0 0)
(4.17007 0 0)
(4.16997 0 0)
(4.16988 0 0)
(4.16979 0 0)
(4.16969 0 0)
(4.1696 0 0)
(4.16951 0 0)
(4.16941 0 0)
(4.16932 0 0)
(4.16923 0 0)
(4.16914 0 0)
(4.16904 0 0)
(4.16895 0 0)
(4.16886 0 0)
(4.16877 0 0)
(4.16867 0 0)
(4.16858 0 0)
(4.16849 0 0)
(4.1684 0 0)
(4.1683 0 0)
(4.16821 0 0)
(4.16812 0 0)
(4.16803 0 0)
(4.16794 0 0)
(4.16784 0 0)
(4.16775 0 0)
(4.16766 0 0)
(4.16757 0 0)
(4.16748 0 0)
(4.16738 0 0)
(4.16729 0 0)
(4.1672 0 0)
(4.16711 0 0)
(4.16702 0 0)
(4.16693 0 0)
(4.16684 0 0)
(4.16674 0 0)
(4.16665 0 0)
(4.16656 0 0)
(4.16647 0 0)
(4.16638 0 0)
(4.16629 0 0)
(4.1662 0 0)
(4.16611 0 0)
(4.16602 0 0)
(4.16592 0 0)
(4.16583 0 0)
(4.16574 0 0)
(4.16565 0 0)
(4.16556 0 0)
(4.16547 0 0)
(4.16538 0 0)
(4.16529 0 0)
(4.1652 0 0)
(4.16511 0 0)
(4.16502 0 0)
(4.16493 0 0)
(4.16484 0 0)
(4.16475 0 0)
(4.16466 0 0)
(4.16457 0 0)
(4.16448 0 0)
(4.16439 0 0)
(4.1643 0 0)
(4.16421 0 0)
(4.16412 0 0)
(4.16403 0 0)
(4.16394 0 0)
(4.16385 0 0)
(4.16376 0 0)
(4.16367 0 0)
(4.16358 0 0)
(4.16349 0 0)
(4.1634 0 0)
(4.16331 0 0)
(4.16322 0 0)
(4.16314 0 0)
(4.16305 0 0)
(4.16296 0 0)
(4.16287 0 0)
(4.16278 0 0)
(4.16269 0 0)
(4.1626 0 0)
(4.16251 0 0)
(4.16242 0 0)
(4.16233 0 0)
(4.16225 0 0)
(4.16216 0 0)
(4.16207 0 0)
(4.16198 0 0)
(4.16189 0 0)
(4.1618 0 0)
(4.16172 0 0)
(4.16163 0 0)
(4.16154 0 0)
(4.16145 0 0)
(4.16136 0 0)
(4.16127 0 0)
(4.16119 0 0)
(4.1611 0 0)
(4.16101 0 0)
(4.16092 0 0)
(4.16083 0 0)
(4.16075 0 0)
(4.16066 0 0)
(4.16057 0 0)
(4.16048 0 0)
(4.1604 0 0)
(4.16031 0 0)
(4.16022 0 0)
(4.16013 0 0)
(4.16005 0 0)
(4.15996 0 0)
(4.15987 0 0)
(4.15979 0 0)
(4.1597 0 0)
(4.15961 0 0)
(4.15952 0 0)
(4.15944 0 0)
(4.15935 0 0)
(4.15926 0 0)
(4.15918 0 0)
(4.15909 0 0)
(4.159 0 0)
(4.15892 0 0)
(4.15883 0 0)
(4.15874 0 0)
(4.15866 0 0)
(4.15857 0 0)
(4.15848 0 0)
(4.1584 0 0)
(4.15831 0 0)
(4.15822 0 0)
(4.15814 0 0)
(4.15805 0 0)
(4.15797 0 0)
(4.15788 0 0)
(4.15779 0 0)
(4.15771 0 0)
(4.15762 0 0)
(4.15754 0 0)
(4.15745 0 0)
(4.15736 0 0)
(4.15728 0 0)
(4.15719 0 0)
(4.15711 0 0)
(4.15702 0 0)
(4.15694 0 0)
(4.15685 0 0)
(4.15677 0 0)
(4.15668 0 0)
(4.15659 0 0)
(4.15651 0 0)
(4.15642 0 0)
(4.15634 0 0)
(4.15625 0 0)
(4.15617 0 0)
(4.15608 0 0)
(4.156 0 0)
(4.15591 0 0)
(4.15583 0 0)
(4.15574 0 0)
(4.15566 0 0)
(4.15558 0 0)
(4.15549 0 0)
(4.15541 0 0)
(4.15532 0 0)
(4.15524 0 0)
(4.15515 0 0)
(4.15507 0 0)
(4.15498 0 0)
(4.1549 0 0)
(4.15482 0 0)
(4.15473 0 0)
(4.15465 0 0)
(4.15456 0 0)
(4.15448 0 0)
(4.15439 0 0)
(4.15431 0 0)
(4.15423 0 0)
(4.15414 0 0)
(4.15406 0 0)
(4.15398 0 0)
(4.15389 0 0)
(4.15381 0 0)
(4.15372 0 0)
(4.15364 0 0)
(4.15356 0 0)
(4.15347 0 0)
(4.15339 0 0)
(4.15331 0 0)
(4.15322 0 0)
(4.15314 0 0)
(4.15306 0 0)
(4.15297 0 0)
(4.15289 0 0)
(4.15281 0 0)
(4.15273 0 0)
(4.15264 0 0)
(4.15256 0 0)
(4.15248 0 0)
(4.15239 0 0)
(4.15231 0 0)
(4.15223 0 0)
(4.15215 0 0)
(4.15206 0 0)
(4.15198 0 0)
(4.1519 0 0)
(4.15182 0 0)
(4.15173 0 0)
(4.15165 0 0)
(4.15157 0 0)
(4.15149 0 0)
(4.1514 0 0)
(4.15132 0 0)
(4.15124 0 0)
(4.15116 0 0)
(4.15107 0 0)
(4.151 0 0)
(4.15092 0 0)
(4.15084 0 0)
(4.15073 0 0)
(4.15054 0 0)
(4.15041 0 0)
(4.15075 0 0)
(4.15193 0 0)
(4.15258 0 0)
(4.14754 0 0)
(4.13197 0 0)
(4.1216 0 0)
(4.17938 0 0)
(4.3771 0 0)
(4.52758 0 0)
(3.85027 0 0)
(2.22227 0 0)
(1.12757 0 0)
(0.902521 0 0)
(0.898112 0 0)
(0.897806 0 0)
(0.897346 0 0)
(0.896891 0 0)
(0.896438 0 0)
(0.895985 0 0)
(0.895533 0 0)
(0.895081 0 0)
(0.894631 0 0)
(0.894181 0 0)
(0.893733 0 0)
(0.893285 0 0)
(0.892838 0 0)
(0.892392 0 0)
(0.891946 0 0)
(0.891502 0 0)
(0.891058 0 0)
(0.890615 0 0)
(0.890173 0 0)
(0.889731 0 0)
(0.889291 0 0)
(0.888851 0 0)
(0.888413 0 0)
(0.887972 0 0)
(0.887552 0 0)
(0.887341 0 0)
(0.887308 0 0)
(0.88727 0 0)
(0.887233 0 0)
(0.887197 0 0)
(0.88716 0 0)
(0.887124 0 0)
(0.887089 0 0)
(0.887054 0 0)
(0.887019 0 0)
(0.886984 0 0)
(0.88695 0 0)
(0.886916 0 0)
(0.886883 0 0)
(0.88685 0 0)
(0.886818 0 0)
(0.886785 0 0)
(0.886754 0 0)
(0.886722 0 0)
(0.886691 0 0)
(0.88666 0 0)
(0.88663 0 0)
(0.8866 0 0)
(0.88657 0 0)
(0.886541 0 0)
(0.886512 0 0)
(0.886483 0 0)
(0.886455 0 0)
(0.886427 0 0)
(0.886399 0 0)
(0.886372 0 0)
(0.886344 0 0)
(0.886317 0 0)
(0.886291 0 0)
(0.886265 0 0)
(0.886239 0 0)
(0.886213 0 0)
(0.886187 0 0)
(0.886162 0 0)
(0.886137 0 0)
(0.886112 0 0)
(0.886087 0 0)
(0.886063 0 0)
(0.886039 0 0)
(0.886015 0 0)
(0.885991 0 0)
(0.885967 0 0)
(0.885944 0 0)
(0.88592 0 0)
(0.885897 0 0)
(0.885874 0 0)
(0.885851 0 0)
(0.885829 0 0)
(0.885806 0 0)
(0.885784 0 0)
(0.885762 0 0)
(0.88574 0 0)
(0.885718 0 0)
(0.885696 0 0)
(0.885674 0 0)
(0.885653 0 0)
(0.885631 0 0)
(0.88561 0 0)
(0.885589 0 0)
(0.885568 0 0)
(0.885547 0 0)
(0.885527 0 0)
(0.885506 0 0)
(0.885486 0 0)
(0.885466 0 0)
(0.885446 0 0)
(0.885426 0 0)
(0.885406 0 0)
(0.885386 0 0)
(0.885367 0 0)
(0.885347 0 0)
(0.885328 0 0)
(0.885309 0 0)
(0.88529 0 0)
(0.885271 0 0)
(0.885252 0 0)
(0.885234 0 0)
(0.885216 0 0)
(0.885197 0 0)
(0.885179 0 0)
(0.885161 0 0)
(0.885143 0 0)
(0.885126 0 0)
(0.885108 0 0)
(0.885091 0 0)
(0.885074 0 0)
(0.885056 0 0)
(0.885039 0 0)
(0.885022 0 0)
(0.885006 0 0)
(0.884989 0 0)
(0.884972 0 0)
(0.884956 0 0)
(0.88494 0 0)
(0.884923 0 0)
(0.884907 0 0)
(0.884891 0 0)
(0.884875 0 0)
(0.884859 0 0)
(0.884843 0 0)
(0.884828 0 0)
(0.884812 0 0)
(0.884797 0 0)
(0.884781 0 0)
(0.884766 0 0)
(0.88475 0 0)
(0.884735 0 0)
(0.88472 0 0)
(0.884704 0 0)
(0.884689 0 0)
(0.884674 0 0)
(0.884659 0 0)
(0.884644 0 0)
(0.884629 0 0)
(0.884614 0 0)
(0.884599 0 0)
(0.884585 0 0)
(0.88457 0 0)
(0.884555 0 0)
(0.88454 0 0)
(0.884526 0 0)
(0.884511 0 0)
(0.884497 0 0)
(0.884482 0 0)
(0.884468 0 0)
(0.884453 0 0)
(0.884439 0 0)
(0.884424 0 0)
(0.88441 0 0)
(0.884396 0 0)
(0.884382 0 0)
(0.884368 0 0)
(0.884354 0 0)
(0.88434 0 0)
(0.884326 0 0)
(0.884312 0 0)
(0.884298 0 0)
(0.884285 0 0)
(0.884271 0 0)
(0.884257 0 0)
(0.884244 0 0)
(0.884231 0 0)
(0.884217 0 0)
(0.884204 0 0)
(0.884191 0 0)
(0.884178 0 0)
(0.884165 0 0)
(0.884152 0 0)
(0.884139 0 0)
(0.884127 0 0)
(0.884114 0 0)
(0.884101 0 0)
(0.884089 0 0)
(0.884077 0 0)
(0.884064 0 0)
(0.884052 0 0)
(0.88404 0 0)
(0.884028 0 0)
(0.884016 0 0)
(0.884004 0 0)
(0.883992 0 0)
(0.883981 0 0)
(0.883969 0 0)
(0.883958 0 0)
(0.883946 0 0)
(0.883935 0 0)
(0.883923 0 0)
(0.883912 0 0)
(0.883901 0 0)
(0.88389 0 0)
(0.883879 0 0)
(0.883868 0 0)
(0.883857 0 0)
(0.883846 0 0)
(0.883835 0 0)
(0.883825 0 0)
(0.883814 0 0)
(0.883803 0 0)
(0.883793 0 0)
(0.883782 0 0)
(0.883771 0 0)
(0.883761 0 0)
(0.883751 0 0)
(0.88374 0 0)
(0.88373 0 0)
(0.883719 0 0)
(0.883709 0 0)
(0.883699 0 0)
(0.883689 0 0)
(0.883679 0 0)
(0.883669 0 0)
(0.883658 0 0)
(0.883648 0 0)
(0.883639 0 0)
(0.883629 0 0)
(0.883619 0 0)
(0.883609 0 0)
(0.883599 0 0)
(0.883589 0 0)
(0.88358 0 0)
(0.88357 0 0)
(0.88356 0 0)
(0.883551 0 0)
(0.883541 0 0)
(0.883532 0 0)
(0.883523 0 0)
(0.883513 0 0)
(0.883504 0 0)
(0.883495 0 0)
(0.883486 0 0)
(0.883477 0 0)
(0.883468 0 0)
(0.883459 0 0)
(0.88345 0 0)
(0.883441 0 0)
(0.883433 0 0)
(0.883424 0 0)
(0.883416 0 0)
(0.883407 0 0)
(0.883399 0 0)
(0.88339 0 0)
(0.883382 0 0)
(0.883374 0 0)
(0.883366 0 0)
(0.883358 0 0)
(0.88335 0 0)
(0.883342 0 0)
(0.883335 0 0)
(0.883327 0 0)
(0.883319 0 0)
(0.883312 0 0)
(0.883304 0 0)
(0.883297 0 0)
(0.88329 0 0)
(0.883283 0 0)
(0.883276 0 0)
(0.883269 0 0)
(0.883262 0 0)
(0.883255 0 0)
(0.883248 0 0)
(0.883241 0 0)
(0.883234 0 0)
(0.883228 0 0)
(0.883221 0 0)
(0.883215 0 0)
(0.883208 0 0)
(0.883202 0 0)
(0.883196 0 0)
(0.883189 0 0)
(0.883183 0 0)
(0.883177 0 0)
(0.883171 0 0)
(0.883165 0 0)
(0.883159 0 0)
(0.883153 0 0)
(0.883148 0 0)
(0.883142 0 0)
(0.883136 0 0)
(0.88313 0 0)
(0.883125 0 0)
(0.883119 0 0)
(0.883114 0 0)
(0.883108 0 0)
(0.883103 0 0)
(0.883098 0 0)
(0.883092 0 0)
(0.883087 0 0)
(0.883082 0 0)
(0.883077 0 0)
(0.883072 0 0)
(0.883067 0 0)
(0.883062 0 0)
(0.883057 0 0)
(0.883052 0 0)
(0.883048 0 0)
(0.883043 0 0)
(0.883039 0 0)
(0.883034 0 0)
(0.88303 0 0)
(0.883025 0 0)
(0.883021 0 0)
(0.883017 0 0)
(0.883013 0 0)
(0.883009 0 0)
(0.883005 0 0)
(0.883001 0 0)
(0.882997 0 0)
(0.882994 0 0)
(0.88299 0 0)
(0.882986 0 0)
(0.882983 0 0)
(0.88298 0 0)
(0.882976 0 0)
(0.882973 0 0)
(0.88297 0 0)
(0.882967 0 0)
(0.882964 0 0)
(0.882962 0 0)
(0.882959 0 0)
(0.882956 0 0)
(0.882954 0 0)
(0.882951 0 0)
(0.882949 0 0)
(0.882947 0 0)
(0.882945 0 0)
(0.882942 0 0)
(0.88294 0 0)
(0.882939 0 0)
(0.882937 0 0)
(0.882935 0 0)
(0.882933 0 0)
(0.882932 0 0)
(0.882931 0 0)
(0.882929 0 0)
(0.882928 0 0)
(0.882927 0 0)
(0.882926 0 0)
(0.882925 0 0)
(0.882924 0 0)
(0.882923 0 0)
(0.882922 0 0)
(0.882921 0 0)
(0.882921 0 0)
(0.88292 0 0)
(0.882919 0 0)
(0.882919 0 0)
(0.882919 0 0)
(0.882918 0 0)
(0.882918 0 0)
(0.882918 0 0)
(0.882918 0 0)
(0.882918 0 0)
(0.882918 0 0)
(0.882918 0 0)
(0.882918 0 0)
(0.882918 0 0)
(0.882919 0 0)
(0.882919 0 0)
(0.882919 0 0)
(0.88292 0 0)
(0.88292 0 0)
(0.882921 0 0)
(0.882922 0 0)
(0.882922 0 0)
(0.882923 0 0)
(0.882924 0 0)
(0.882925 0 0)
(0.882926 0 0)
(0.882927 0 0)
(0.882928 0 0)
(0.882929 0 0)
(0.88293 0 0)
(0.882932 0 0)
(0.882933 0 0)
(0.882934 0 0)
(0.882936 0 0)
(0.882937 0 0)
(0.882939 0 0)
(0.88294 0 0)
(0.882942 0 0)
(0.882944 0 0)
(0.882946 0 0)
(0.882948 0 0)
(0.88295 0 0)
(0.882952 0 0)
(0.882954 0 0)
(0.882956 0 0)
(0.882958 0 0)
(0.882961 0 0)
(0.882963 0 0)
(0.882966 0 0)
(0.882968 0 0)
(0.882971 0 0)
(0.882973 0 0)
(0.882976 0 0)
(0.882979 0 0)
(0.882982 0 0)
(0.882985 0 0)
(0.882988 0 0)
(0.882991 0 0)
(0.882995 0 0)
(0.882998 0 0)
(0.883001 0 0)
(0.883005 0 0)
(0.883008 0 0)
(0.883012 0 0)
(0.883016 0 0)
(0.88302 0 0)
(0.883023 0 0)
(0.883027 0 0)
(0.883031 0 0)
(0.883036 0 0)
(0.88304 0 0)
(0.883044 0 0)
(0.883048 0 0)
(0.883053 0 0)
(0.883057 0 0)
(0.883062 0 0)
(0.883066 0 0)
(0.883071 0 0)
(0.883076 0 0)
(0.883081 0 0)
(0.883086 0 0)
(0.883091 0 0)
(0.883096 0 0)
(0.883101 0 0)
(0.883106 0 0)
(0.883112 0 0)
(0.883117 0 0)
(0.883123 0 0)
(0.883128 0 0)
(0.883134 0 0)
(0.883139 0 0)
(0.883145 0 0)
(0.883151 0 0)
(0.883157 0 0)
(0.883163 0 0)
(0.883169 0 0)
(0.883175 0 0)
(0.883181 0 0)
(0.883187 0 0)
(0.883193 0 0)
(0.8832 0 0)
(0.883206 0 0)
(0.883213 0 0)
(0.883219 0 0)