/*--------------------------------*- C++ -*----------------------------------*\
| =========                 |                                                 |
| \\      /  F ield         | foam-extend: Open Source CFD                    |
|  \\    /   O peration     | Version:     3.1                                |
|   \\  /    A nd           | Web:         http://www.extend-project.de       |
|    \\/     M anipulation  |                                                 |
\*---------------------------------------------------------------------------*/
FoamFile
{
    version     2.0;
    format      ascii;
    class       volScalarField;
    location    "2";
    object      nut;
}
// * * * * * * * * * * * * * * * * * * * * * * * * * * * * * * * * * * * * * //

dimensions      [0 2 -1 0 0 0 0];

internalField   nonuniform List<scalar> 
119952
(
2.689595e-05
1.757818e-05
1.792766e-05
2.00625e-05
2.16423e-05
2.062988e-05
2.002694e-05
1.963153e-05
1.932703e-05
1.906217e-05
1.880549e-05
1.85388e-05
1.825352e-05
1.794529e-05
1.761853e-05
1.72717e-05
1.690717e-05
1.652717e-05
1.612395e-05
1.568617e-05
2.01022e-05
1.917462e-05
1.882271e-05
2.493942e-05
2.43085e-05
2.40218e-05
2.380928e-05
2.381571e-05
2.367299e-05
3.066064e-05
1.441608e-05
1.600149e-05
1.812919e-05
2.022637e-05
2.242995e-05
2.477323e-05
2.729413e-05
2.994889e-05
3.272165e-05
3.759358e-05
0.0001524341
0.0001804241
0.0002132667
0.0002494479
0.0002878467
0.0003277739
0.0003684421
0.0004095758
0.0004507412
0.0006800883
0.0007309326
0.0007842669
0.0008399414
0.0008977879
0.0009575599
0.001018716
0.001080825
0.001143185
0.001205591
0.001266778
0.001327531
0.001389363
0.001452791
0.001517876
0.001584481
0.001652597
0.001722679
0.001798014
0.001834666
0.001841621
0.001863257
0.001893586
0.001921753
0.001944337
0.001961727
0.001978287
0.001994869
0.002011601
0.002028244
0.002044426
0.002059791
0.002074052
0.002087018
0.002098669
0.002109219
0.002119365
0.002130982
0.002148641
0.002174119
0.00219796
0.002225723
0.00226535
0.002299798
0.002321345
0.002324506
0.00229933
0.002187673
0.00197991
0.001924037
0.001903654
0.001896659
0.001894434
0.001894473
0.001895783
0.001897895
0.001900499
0.001903344
0.001906226
0.001908978
0.001911461
0.00191357
0.001915226
0.001916376
0.001916993
0.001917073
0.001916629
0.001915685
0.001914273
0.001912422
0.001910163
0.001907524
0.001904537
0.00190123
0.001897629
0.001893757
0.001889632
0.001885268
0.001880673
0.001875857
0.001870826
0.001865584
0.001860133
0.001854476
0.00184861
0.001842533
0.00183624
0.001829724
0.001822977
0.001815987
0.001808745
0.001801239
0.001793465
0.001785416
0.001777102
0.001768574
0.001760114
0.001752843
0.00172746
0.001693087
0.001659467
0.001628803
0.001601632
0.001577735
0.001556681
0.001538006
0.00152128
0.001506129
0.001492252
0.001479404
0.001467384
0.00145602
0.001445176
0.00143475
0.001424625
0.001414762
0.001405038
0.001395498
0.001385975
0.001376562
0.001367148
0.001357757
0.001348361
0.001338947
0.001329506
0.001320028
0.001310509
0.001300938
0.001291307
0.001281607
0.00127183
0.001261969
0.001252015
0.001241963
0.001231807
0.001221541
0.001211161
0.001200662
0.001190041
0.001179294
0.001168415
0.001157403
0.001146256
0.00113497
0.001123552
0.001112023
0.001100644
0.001091103
0.0008916221
0.0007034701
0.0006347596
0.0005999279
0.0005777169
0.0005612906
0.000547986
0.0005365782
0.0005264201
0.0005171307
0.000508465
0.0005002653
0.0004924169
0.0004848409
0.0004774805
0.0004702934
0.0004632488
0.0004563229
0.000449492
0.0004427382
0.000436095
0.0004295399
0.0004230189
0.0004165504
0.0004101284
0.0004037553
0.0003974303
0.0003911575
0.0003849385
0.0003787821
0.0003727017
0.0003667713
0.0003609441
0.0003554529
0.0003508877
0.0003531045
0.0003656253
0.00037752
0.0003882833
0.0003980403
0.0004069858
0.0004152991
0.0004231344
0.0004306125
0.0004378278
0.0004448458
0.0004517139
0.0004584716
0.0004651455
0.0004717545
0.0004783125
0.0004848295
0.0004913131
0.0004977689
0.0005042015
0.0005106143
0.0005170103
0.0005233917
0.0005297607
0.000536119
0.0005424705
0.0005488134
0.0005551451
0.0005614702
0.0005677894
0.0005741026
0.0005804106
0.0005867142
0.0005930204
0.0005994189
0.000846109
0.0008774309
0.0009102372
0.0009437625
0.0009771318
0.001009705
0.001040889
0.00107026
0.001097581
0.001122792
0.001145973
0.00116728
0.001186915
0.001205086
0.001221997
0.001237829
0.001252742
0.001266873
0.001280335
0.001293227
0.001305627
0.001317605
0.001329216
0.001340508
0.001351522
0.00136229
0.001372841
0.001383198
0.001393382
0.00140341
0.001413298
0.001423057
0.001432698
0.00144223
0.001451661
0.001460995
0.001470237
0.00147939
0.001488455
0.001497428
0.001506303
0.001515062
0.001523669
0.001532047
0.001540019
0.001547193
0.001553287
0.001558908
0.001564314
0.00156955
0.001574682
0.001579727
0.001584675
0.001590053
0.001593038
0.001598273
0.001608315
0.001622678
0.001640327
0.001660118
0.001680971
0.001701973
0.00172245
0.001741944
0.0017602
0.00177712
0.001792723
0.001807097
0.00182037
0.001832682
0.00184417
0.001854961
0.001865166
0.00187488
0.001884181
0.001893135
0.001901795
0.001910204
0.001918396
0.001926399
0.001934236
0.001941924
0.001949478
0.00195691
0.001964229
0.001971442
0.001978556
0.001985576
0.001992507
0.001999351
0.002006113
0.002012795
0.0020194
0.00202593
0.002032388
0.002038777
0.002045098
0.002051355
0.00205755
0.002063686
0.002069766
0.002075793
0.00208177
0.0020877
0.002093587
0.002099432
0.00210524
0.002111013
0.002116755
0.002122469
0.002128158
0.002133826
0.002139477
0.002145115
0.002150742
0.002156365
0.002161987
0.002167615
0.002173253
0.00217891
0.002184593
0.002190311
0.002196076
0.002201902
0.002207806
0.00221381
0.002219942
0.002226239
0.002232752
0.002239553
0.002246749
0.002254497
0.002263056
0.002272907
0.00228498
0.002301338
0.002326633
0.002372371
0.002376733
1.732208e-05
1.940701e-05
2.177611e-05
2.445439e-05
2.741996e-05
3.062469e-05
3.401481e-05
3.753018e-05
4.152624e-05
0.0001606414
0.0001980213
0.0002419104
0.0002893947
0.0003384426
0.0003874316
0.000435427
0.0004818871
0.0005266294
0.000793044
0.0008433194
0.000895455
0.0009480097
0.001000634
0.001053045
0.001104949
0.001156136
0.001206441
0.001255859
0.001303992
0.001350658
0.001397461
0.001445495
0.001495146
0.001546541
0.001599555
0.001654008
0.001709735
0.001754436
0.001788399
0.001828164
0.001873348
0.001922928
0.001976237
0.00203271
0.002091813
0.00215304
0.002216031
0.002280209
0.002345101
0.002410994
0.002477818
0.002545629
0.002614455
0.002684214
0.002754789
0.002825528
0.003475482
0.003552747
0.003628059
0.003701808
0.003774458
0.003846405
0.003917947
0.003989353
0.00406069
0.004132012
0.004203354
0.004274776
0.004346275
0.004417885
0.004489638
0.004561521
0.004633572
0.004705559
0.004776706
0.004839546
0.004894593
0.004946499
0.004993846
0.005034912
0.00507026
0.005099037
0.005123389
0.005144791
0.005164369
0.005182906
0.00520093
0.005218801
0.00523676
0.005254992
0.005273722
0.005293324
0.005314541
0.005338615
0.005367199
0.005399593
0.005434781
0.0054754
0.005516351
0.005546462
0.005563264
0.005565172
0.005545757
0.005502378
0.00545673
0.005423178
0.005396244
0.005375057
0.005358285
0.005345174
0.005335217
0.005328047
0.005323351
0.005320839
0.005320236
0.005321275
0.005323699
0.005327251
0.005331683
0.005336761
0.005342274
0.005348033
0.005353879
0.005359679
0.005365324
0.005370726
0.005375819
0.005380554
0.0053849
0.005388835
0.005392349
0.005395439
0.005398103
0.005400346
0.005402171
0.005403583
0.005404588
0.005405194
0.005405403
0.005405221
0.005404649
0.005403687
0.005402332
0.005400576
0.005398413
0.005395833
0.005392824
0.005389382
0.005385504
0.005381206
0.005376531
0.005371581
0.005366524
0.005361399
0.005354422
0.005345073
0.005333043
0.005318514
0.005301967
0.005283994
0.005265172
0.005246
0.005226871
0.005208069
0.005189783
0.005172128
0.005155155
0.00513887
0.005123245
0.005108232
0.00509377
0.005079791
0.005066227
0.005053013
0.005040086
0.005027394
0.005014899
0.005002556
0.00499033
0.004978195
0.004966125
0.004954098
0.004942093
0.004930091
0.00491807
0.004906008
0.004893897
0.004881712
0.004869438
0.004857063
0.004844574
0.004831966
0.004819232
0.00480637
0.00479338
0.004780266
0.004767032
0.004753688
0.004740248
0.004726741
0.004713225
0.00469986
0.004687143
0.004679941
0.004269174
0.003998678
0.003881468
0.003818287
0.003775567
0.003741354
0.003711302
0.003683823
0.003658317
0.003634523
0.003612281
0.003591457
0.00357192
0.003553537
0.003536178
0.003519719
0.003504045
0.003489049
0.003474638
0.003460735
0.003447276
0.0034342
0.003421439
0.00340898
0.003396766
0.00338479
0.003373038
0.003361517
0.003350255
0.003339315
0.003328814
0.003318971
0.003310188
0.003303383
0.003300912
0.003305144
0.003314074
0.003326013
0.003339746
0.003354522
0.003369825
0.003385296
0.003400692
0.00341585
0.003430671
0.003445098
0.003459106
0.00347269
0.003485862
0.003498639
0.003511046
0.003523106
0.003534846
0.003546289
0.003557459
0.003568378
0.003579065
0.003589537
0.003599812
0.003609903
0.003619823
0.003629583
0.003639192
0.003648657
0.003657985
0.003667178
0.003676237
0.003685155
0.003693902
0.003701386
0.004395134
0.0044259
0.004449245
0.004468806
0.004486837
0.004504654
0.004522945
0.004541993
0.004561821
0.004582301
0.004603235
0.004624411
0.004645622
0.004666692
0.004687477
0.004707868
0.00472779
0.004747194
0.004766056
0.004784369
0.004802141
0.004819388
0.004836132
0.004852399
0.004868219
0.004883618
0.004898624
0.004913263
0.004927561
0.00494154
0.004955221
0.004968622
0.00498176
0.00499465
0.005007303
0.005019729
0.005031935
0.005043924
0.005055693
0.005067234
0.005078527
0.005089539
0.005100212
0.005110459
0.005120147
0.005129123
0.005137414
0.005145206
0.005152622
0.005159719
0.005166544
0.005173094
0.005179429
0.005185469
0.005190848
0.005196048
0.005201573
0.005207821
0.005215101
0.0052236
0.005233379
0.005244393
0.005256523
0.005269594
0.005283404
0.005297741
0.005312407
0.005327225
0.005342044
0.005356745
0.005371237
0.005385455
0.005399356
0.005412915
0.005426122
0.005438976
0.005451483
0.005463656
0.005475508
0.005487055
0.005498314
0.0055093
0.005520028
0.005530512
0.005540765
0.005550797
0.005560619
0.005570241
0.005579669
0.005588912
0.005597975
0.005606867
0.005615591
0.005624154
0.005632563
0.005640822
0.005648937
0.005656915
0.005664762
0.005672484
0.005680088
0.00568758
0.005694968
0.005702259
0.005709459
0.005716576
0.005723617
0.00573059
0.005737501
0.005744359
0.005751171
0.005757945
0.00576469
0.005771414
0.005778127
0.005784839
0.00579156
0.005798305
0.005805087
0.005811921
0.005818827
0.005825826
0.005832944
0.005840214
0.005847673
0.00585537
0.005863366
0.00587174
0.005880598
0.005890083
0.005900398
0.005911834
0.005924824
0.005940015
0.005958374
0.005981243
0.006010629
0.006046119
0.006075815
7.266959e-05
8.870613e-05
0.0001068396
0.0001252079
0.0001435154
0.0001615534
0.0001793112
0.0001898579
0.0001809572
0.0001883557
0.0004424169
0.0006312295
0.0007522639
0.0008283461
0.0008815799
0.0009234862
0.0009591873
0.0009911301
0.001020506
0.001459347
0.001528199
0.001592971
0.001652215
0.001705238
0.001751924
0.001792745
0.001828599
0.001860327
0.001888962
0.00191508
0.001942859
0.001974083
0.002008811
0.002046515
0.002086575
0.002128566
0.002172241
0.002219356
0.002229973
0.002253659
0.002288946
0.002333649
0.002386222
0.002445336
0.002509815
0.002578536
0.002650354
0.002724257
0.002798876
0.002874136
0.002949683
0.003025179
0.003100112
0.00317381
0.003245498
0.003313697
0.004010804
0.004077806
0.004136986
0.004189794
0.004237228
0.004280213
0.004319579
0.004356105
0.004390516
0.00442343
0.004455436
0.004487279
0.004519536
0.00455272
0.004587292
0.004623624
0.004661971
0.004702519
0.004745351
0.004790042
0.004836327
0.004884332
0.004933958
0.004985124
0.00503784
0.00509213
0.005148016
0.005205463
0.005264484
0.00532502
0.005386916
0.00545005
0.005514267
0.005579403
0.005645351
0.005712082
0.005779703
0.005850463
0.005899026
0.005952035
0.006008535
0.006067727
0.006128986
0.006191843
0.006255963
0.00632111
0.006387072
0.006453736
0.006520997
0.006588762
0.006656978
0.00672558
0.006794475
0.006863514
0.006932505
0.007000965
0.007068006
0.007130983
0.007190026
0.007246693
0.00730124
0.007353135
0.007396669
0.007433726
0.007465928
0.007494388
0.007520012
0.007543571
0.007565713
0.007586987
0.007607865
0.007628779
0.007650163
0.007672511
0.007696451
0.007722783
0.007752492
0.007785292
0.007820445
0.007858509
0.007895719
0.007925363
0.007944701
0.007952829
0.007947726
0.007931093
0.007913562
0.007901461
0.007893495
0.007887534
0.007882999
0.007879624
0.007877298
0.007876006
0.007875785
0.007876684
0.007878733
0.007881933
0.00788625
0.007891613
0.007897919
0.007905044
0.007912848
0.007921188
0.007929923
0.007938919
0.00794805
0.007957204
0.007966284
0.007975205
0.007983899
0.00799231
0.008000394
0.008008117
0.008015453
0.00802238
0.008028884
0.008034955
0.008040585
0.008045767
0.008050499
0.008054775
0.008058593
0.008061944
0.008064823
0.008067218
0.008069118
0.008070509
0.008071382
0.008071726
0.008071541
0.008070839
0.008069654
0.008068045
0.008066085
0.00806378
0.00806066
0.008056448
0.00805092
0.008043927
0.008035441
0.008025582
0.008014514
0.008002466
0.007989683
0.007976392
0.007962794
0.007949058
0.007935315
0.00792166
0.007908155
0.007894836
0.00788171
0.007868795
0.007856061
0.007843489
0.007831051
0.007818747
0.007806536
0.007794403
0.007782333
0.007770311
0.007758325
0.007746353
0.007734405
0.007722443
0.007710451
0.007698437
0.007686364
0.007674219
0.00766199
0.007649667
0.00763724
0.007624704
0.007612056
0.007599297
0.007586431
0.007573465
0.007560411
0.007547285
0.007534111
0.007520918
0.007507776
0.007494721
0.007481699
0.007467345
0.007433568
0.007427431
0.007426339
0.007423459
0.007417303
0.007408025
0.007396192
0.007382425
0.007367237
0.007351067
0.007334269
0.00731712
0.007299836
0.007282537
0.00726527
0.007248135
0.007231204
0.007214527
0.007198138
0.00718206
0.007166302
0.007150884
0.007135813
0.00712108
0.007106703
0.007092699
0.007079102
0.007065962
0.007053397
0.007041668
0.007030995
0.007021766
0.007014516
0.007009559
0.007006775
0.007006741
0.007009402
0.007014258
0.00702085
0.007028816
0.007037868
0.007047773
0.007058341
0.007069412
0.007080843
0.007092544
0.0071044
0.007116329
0.007128272
0.007140172
0.007151988
0.007163686
0.007175242
0.007186637
0.007197857
0.007208893
0.007219741
0.007230395
0.007240856
0.007251122
0.007261195
0.007271075
0.007280764
0.007290262
0.007299566
0.007308671
0.007317566
0.007326291
0.00733513
0.007346829
0.007322963
0.007309298
0.007302238
0.007299702
0.007300478
0.007303828
0.007309299
0.007316591
0.007325475
0.007335743
0.007347201
0.007359654
0.007372938
0.007386904
0.007401401
0.007416293
0.007431462
0.007446805
0.007462237
0.007477686
0.007493097
0.007508424
0.007523633
0.007538698
0.007553601
0.007568327
0.007582866
0.007597214
0.007611365
0.007625319
0.007639074
0.007652631
0.00766599
0.007679151
0.007692114
0.007704878
0.007717438
0.00772979
0.007741923
0.007753821
0.00776546
0.007776806
0.00778781
0.007798406
0.007808517
0.007818069
0.007827068
0.00783559
0.007843709
0.007851467
0.007858893
0.007866001
0.007872812
0.007879287
0.007885318
0.007891058
0.007896712
0.007902449
0.007908435
0.007914827
0.007921747
0.007929285
0.00793749
0.007946378
0.007955928
0.007966097
0.007976818
0.007988016
0.007999607
0.008011508
0.008023638
0.008035925
0.008048303
0.008060715
0.008073113
0.008085456
0.008097713
0.008109857
0.008121868
0.008133731
0.008145434
0.008156967
0.008168325
0.008179503
0.008190497
0.008201306
0.008211927
0.00822236
0.008232605
0.008242662
0.008252531
0.008262215
0.008271716
0.008281035
0.008290175
0.008299142
0.008307939
0.008316571
0.008325045
0.008333366
0.008341542
0.008349581
0.008357489
0.008365276
0.00837295
0.00838052
0.008387995
0.008395384
0.008402696
0.008409942
0.008417132
0.008424276
0.008431384
0.00843847
0.008445545
0.008452623
0.008459718
0.008466848
0.00847403
0.008481286
0.00848864
0.008496121
0.008503763
0.008511605
0.008519696
0.008528097
0.008536882
0.008546146
0.00855601
0.008566635
0.008578233
0.008591092
0.008605598
0.008622265
0.008641741
0.008664781
0.008692019
0.008722484
0.008749519
4.949375e-05
9.269076e-05
0.0001815152
0.0007091303
0.001229934
0.002484138
0.003097328
0.003662021
0.004074642
0.004290543
0.004410134
0.004513891
0.004675305
0.004737251
0.004775079
0.004803992
0.004826509
0.004843821
0.004856851
0.004866776
0.004871489
0.004867521
0.004861977
0.004861349
0.004862572
0.004862169
0.004857781
0.004848085
0.004832817
0.004812468
0.004785844
0.005278621
0.005260946
0.005238114
0.005213658
0.005189374
0.005166284
0.005144991
0.005125918
0.005109296
0.005095211
0.005083861
0.005075687
0.005071001
0.005070278
0.005074028
0.005082771
0.005097014
0.005117288
0.005143756
0.00517608
0.005214701
0.005259909
0.005311845
0.005370602
0.005436118
0.005508144
0.005586204
0.005669606
0.00575751
0.005848922
0.005942696
0.006037594
0.006132308
0.006225489
0.006315869
0.006402636
0.006487224
0.006539403
0.006590579
0.00663927
0.006684504
0.006725726
0.006762762
0.006795728
0.006824974
0.006851024
0.006874509
0.006896174
0.006916806
0.006937147
0.006957915
0.006979759
0.007003206
0.007028677
0.007056496
0.007086882
0.007119916
0.007155661
0.007194177
0.007235432
0.007279318
0.007325709
0.007374488
0.00742554
0.007478742
0.007533995
0.007591149
0.007650027
0.007710412
0.007771976
0.007834168
0.007896683
0.007959835
0.008023733
0.008088396
0.008151288
0.008213238
0.008274868
0.008336549
0.008398461
0.00846069
0.008523273
0.008586226
0.008649541
0.008713217
0.008777243
0.008841615
0.008906325
0.008971339
0.009036577
0.009101888
0.009167035
0.009231609
0.009295096
0.009356506
0.009416095
0.009475627
0.009532967
0.009584726
0.009630816
0.009672034
0.009709316
0.0097434
0.009774896
0.009804352
0.009832272
0.009859121
0.009885346
0.009911392
0.009937723
0.009964849
0.009993334
0.01
0.01
0.01
0.01
0.01
0.01
0.01
0.01
0.01
0.01
0.01
0.01
0.01
0.01
0.01
0.01
0.01
0.01
0.01
0.01
0.01
0.01
0.01
0.01
0.01
0.01
0.01
0.01
0.01
0.01
0.01
0.01
0.01
0.01
0.01
0.01
0.01
0.01
0.01
0.01
0.01
0.01
0.01
0.01
0.01
0.01
0.01
0.01
0.01
0.01
0.01
0.01
0.01
0.01
0.01
0.01
0.01
0.01
0.01
0.01
0.01
0.01
0.01
0.01
0.01
0.01
0.01
0.01
0.01
0.01
0.01
0.01
0.01
0.01
0.01
0.01
0.01
0.01
0.01
0.01
0.01
0.01
0.01
0.01
0.01
0.01
0.01
0.01
0.01
0.01
0.01
0.01
0.01
0.01
0.01
0.01
0.01
0.01
0.01
0.01
0.01
0.01
0.01
0.01
0.01
0.01
0.01
0.01
0.01
0.01
0.01
0.01
0.01
0.01
0.01
0.01
0.01
0.01
0.01
0.01
0.01
0.01
0.01
0.01
0.009987439
0.009970767
0.009953966
0.009937118
0.009920298
0.009903569
0.009886975
0.009870597
0.00985445
0.009838563
0.009823
0.009807819
0.009793053
0.009778775
0.009765077
0.00975202
0.009739547
0.009727906
0.009717339
0.009708174
0.009700744
0.009695302
0.009692051
0.009690938
0.009691691
0.009694054
0.009697758
0.009702598
0.009708405
0.009715032
0.009722345
0.009730269
0.009738689
0.009747517
0.009756667
0.009766105
0.009775748
0.009785547
0.009795455
0.009805435
0.009815449
0.009825468
0.009835467
0.009845423
0.00985532
0.009865141
0.009874873
0.009884502
0.009894014
0.009903431
0.009912721
0.009921875
0.009930873
0.00993974
0.009948449
0.009957012
0.009965205
0.00996823
0.009968966
0.009968986
0.00996913
0.009969827
0.0099713
0.009973667
0.009976993
0.009981307
0.009986614
0.009992894
0.01
0.01
0.01
0.01
0.01
0.01
0.01
0.01
0.01
0.01
0.01
0.01
0.01
0.01
0.01
0.01
0.01
0.01
0.01
0.01
0.01
0.01
0.01
0.01
0.01
0.01
0.01
0.01
0.01
0.01
0.01
0.01
0.01
0.01
0.01
0.01
0.01
0.01
0.01
0.01
0.01
0.01
0.01
0.01
0.01
0.01
0.01
0.01
0.01
0.01
0.01
0.01
0.01
0.01
0.01
0.01
0.01
0.01
0.01
0.01
0.01
0.01
0.01
0.01
0.01
0.01
0.01
0.01
0.01
0.01
0.01
0.01
0.01
0.01
0.01
0.01
0.01
0.01
0.01
0.01
0.01
0.01
0.01
0.01
0.01
0.01
0.01
0.01
0.01
0.01
0.01
0.01
0.01
0.01
0.01
0.01
0.01
0.01
0.01
0.01
0.01
0.01
0.01
0.01
0.01
0.01
0.01
0.01
0.01
0.01
0.01
0.01
0.01
0.01
0.01
0.01
0.01
0.01
0.01
0.01
0.01
0.01
0.01
0.01
0.01
0.01
0.01
0.01
2.63675e-05
4.552102e-05
7.329531e-05
0.0003200272
0.0005424075
0.001035655
0.001498406
0.00192007
0.002437412
0.002902491
0.003356705
0.003867872
0.004384822
0.004850057
0.005208079
0.005481006
0.005814939
0.005515522
0.005264047
0.005105882
0.004971837
0.004801417
0.004664249
0.004608542
0.004624297
0.004693813
0.004806327
0.004958636
0.005147509
0.005370544
0.005624133
0.005900651
0.006204694
0.006547301
0.006716671
0.006766733
0.006807142
0.006838496
0.006861889
0.006878352
0.006889148
0.00689552
0.006876951
0.00686042
0.006844748
0.00682944
0.006814572
0.006800391
0.00678718
0.006775261
0.006764962
0.006756625
0.006750624
0.006747351
0.006747265
0.006750909
0.006758872
0.006771792
0.006790345
0.006815228
0.006847059
0.006886373
0.006933715
0.006989535
0.007054094
0.007127452
0.007209456
0.007299732
0.007397676
0.007502549
0.007613525
0.007729595
0.007849543
0.007971939
0.008095114
0.00821711
0.008335524
0.008449115
0.008557245
0.008656267
0.00874641
0.008827778
0.008900416
0.008964477
0.009020238
0.009068159
0.009108877
0.009143164
0.00917193
0.009196181
0.009216972
0.009235362
0.009252364
0.009268905
0.009285801
0.009303747
0.009323317
0.009344965
0.009369032
0.009395784
0.009425441
0.009458126
0.009493863
0.009532618
0.009574327
0.00961891
0.009666267
0.009716296
0.009768878
0.009823887
0.009881194
0.009940667
0.01
0.01
0.01
0.01
0.01
0.01
0.01
0.01
0.01
0.01
0.01
0.01
0.01
0.01
0.01
0.01
0.01
0.01
0.01
0.01
0.01
0.01
0.01
0.01
0.01
0.01
0.01
0.01
0.01
0.01
0.01
0.01
0.01
0.01
0.01
0.01
0.01
0.01
0.01
0.01
0.01
0.01
0.01
0.01
0.01
0.01
0.01
0.01
0.01
0.01
0.01
0.01
0.01
0.01
0.01
0.01
0.01
0.01
0.01
0.01
0.01
0.01
0.01
0.01
0.01
0.01
0.01
0.01
0.01
0.01
0.01
0.01
0.01
0.01
0.01
0.01
0.01
0.01
0.01
0.01
0.01
0.01
0.01
0.01
0.01
0.01
0.01
0.01
0.01
0.01
0.01
0.01
0.01
0.01
0.01
0.01
0.01
0.01
0.01
0.01
0.01
0.01
0.01
0.01
0.01
0.01
0.01
0.01
0.01
0.01
0.01
0.01
0.01
0.01
0.01
0.01
0.01
0.01
0.01
0.01
0.01
0.01
0.01
0.01
0.01
0.01
0.01
0.01
0.01
0.01
0.01
0.01
0.01
0.01
0.01
0.01
0.01
0.01
0.01
0.01
0.01
0.01
0.01
0.01
0.01
0.01
0.01
0.01
0.01
0.01
0.01
0.01
0.01
0.01
0.01
0.01
0.01
0.01
0.01
0.01
0.01
0.01
0.01
0.01
0.01
0.01
0.01
0.01
0.01
0.01
0.01
0.01
0.01
0.01
0.01
0.01
0.01
0.01
0.01
0.01
0.01
0.01
0.01
0.01
0.01
0.01
0.01
0.01
0.01
0.01
0.01
0.01
0.01
0.01
0.01
0.01
0.01
0.01
0.01
0.01
0.01
0.01
0.01
0.01
0.01
0.01
0.01
0.01
0.01
0.01
0.01
0.01
0.01
0.01
0.01
0.01
0.01
0.01
0.01
0.01
0.01
0.01
0.01
0.01
0.01
0.01
0.01
0.01
0.01
0.01
0.01
0.01
0.01
0.01
0.01
0.01
0.01
0.01
0.01
0.01
0.01
0.01
0.01
0.01
0.01
0.01
0.01
0.01
0.01
0.01
0.01
0.01
0.01
0.01
0.01
0.01
0.01
0.01
0.01
0.01
0.01
0.01
0.01
0.01
0.01
0.01
0.01
0.01
0.01
0.01
0.01
0.01
0.01
0.01
0.01
0.01
0.01
0.01
0.01
0.01
0.01
0.01
0.01
0.01
0.01
0.01
0.01
0.01
0.01
0.01
0.01
0.01
0.01
0.01
0.01
0.01
0.01
0.01
0.01
0.01
0.01
0.01
0.01
0.01
0.01
0.01
0.01
0.01
0.01
0.01
0.01
0.01
0.01
0.01
0.01
0.01
0.01
0.01
0.01
0.01
0.01
0.01
0.01
0.01
0.01
0.01
0.01
0.01
0.01
0.01
0.01
0.01
0.01
0.01
0.01
0.01
0.01
0.01
0.01
0.01
0.01
0.01
0.01
0.01
0.01
0.01
0.01
0.01
0.01
0.01
0.01
0.01
0.01
0.01
0.01
0.01
0.01
0.01
0.01
0.01
0.01
0.01
2.498039e-05
4.053775e-05
7.886577e-05
0.0002559934
0.0004282614
0.0007213177
0.0009334434
0.001174874
0.00145622
0.001724258
0.002027301
0.002415162
0.0028384
0.003303522
0.003845676
0.004889908
0.005277148
0.005629258
0.005929374
0.006170842
0.00635642
0.006470949
0.00628315
0.005973303
0.005580658
0.005198098
0.005076118
0.004844846
0.004615898
0.004461498
0.00433422
0.004228329
0.004160708
0.004146421
0.004187726
0.004275761
0.004403156
0.004566583
0.004763979
0.004993182
0.005257099
0.005548208
0.005867144
0.006208791
0.006589763
0.007027507
0.007263833
0.007353876
0.007431734
0.007499256
0.007558042
0.007608961
0.007651393
0.007687513
0.007718567
0.007745434
0.00776899
0.00779003
0.007809239
0.007827242
0.007844643
0.007862031
0.00787999
0.007899134
0.007920128
0.007943683
0.00797056
0.008001574
0.008037585
0.008079478
0.008128119
0.008184322
0.008248878
0.008322557
0.008405971
0.008499494
0.008603213
0.008716858
0.008839668
0.008970586
0.00910937
0.009255326
0.009407376
0.009564154
0.009724088
0.009885466
0.01
0.01
0.01
0.01
0.01
0.01
0.01
0.01
0.01
0.01
0.01
0.01
0.01
0.01
0.01
0.01
0.01
0.01
0.01
0.01
0.01
0.01
0.01
0.01
0.01
0.01
0.01
0.01
0.01
0.01
0.01
0.01
0.01
0.01
0.01
0.01
0.01
0.01
0.01
0.01
0.01
0.01
0.01
0.01
0.01
0.01
0.01
0.01
0.01
0.01
0.01
0.01
0.01
0.01
0.01
0.01
0.01
0.01
0.01
0.01
0.01
0.01
0.01
0.01
0.01
0.01
0.01
0.01
0.01
0.01
0.01
0.01
0.01
0.01
0.01
0.01
0.01
0.01
0.01
0.01
0.01
0.01
0.01
0.01
0.01
0.01
0.01
0.01
0.01
0.01
0.01
0.01
0.01
0.01
0.01
0.01
0.01
0.01
0.01
0.01
0.01
0.01
0.01
0.01
0.01
0.01
0.01
0.01
0.01
0.01
0.01
0.01
0.01
0.01
0.01
0.01
0.01
0.01
0.01
0.01
0.01
0.01
0.01
0.01
0.01
0.01
0.01
0.01
0.01
0.01
0.01
0.01
0.01
0.01
0.01
0.01
0.01
0.01
0.01
0.01
0.01
0.01
0.01
0.01
0.01
0.01
0.01
0.01
0.01
0.01
0.01
0.01
0.01
0.01
0.01
0.01
0.01
0.01
0.01
0.01
0.01
0.01
0.01
0.01
0.01
0.01
0.01
0.01
0.01
0.01
0.01
0.01
0.01
0.01
0.01
0.01
0.01
0.01
0.01
0.01
0.01
0.01
0.01
0.01
0.01
0.01
0.01
0.01
0.01
0.01
0.01
0.01
0.01
0.01
0.01
0.01
0.01
0.01
0.01
0.01
0.01
0.01
0.01
0.01
0.01
0.01
0.01
0.01
0.01
0.01
0.01
0.01
0.01
0.01
0.01
0.01
0.01
0.01
0.01
0.01
0.01
0.01
0.01
0.01
0.01
0.01
0.01
0.01
0.01
0.01
0.01
0.01
0.01
0.01
0.01
0.01
0.01
0.01
0.01
0.01
0.01
0.01
0.01
0.01
0.01
0.01
0.01
0.01
0.01
0.01
0.01
0.01
0.01
0.01
0.01
0.01
0.01
0.01
0.01
0.01
0.01
0.01
0.01
0.01
0.01
0.01
0.01
0.01
0.01
0.01
0.01
0.01
0.01
0.01
0.01
0.01
0.01
0.01
0.01
0.01
0.01
0.01
0.01
0.01
0.01
0.01
0.01
0.01
0.01
0.01
0.01
0.01
0.01
0.01
0.01
0.01
0.01
0.01
0.01
0.01
0.01
0.01
0.01
0.01
0.01
0.01
0.01
0.01
0.01
0.01
0.01
0.01
0.01
0.01
0.01
0.01
0.01
0.01
0.01
0.01
0.01
0.01
0.01
0.01
0.01
0.01
0.01
0.01
0.01
0.01
0.01
0.01
0.01
0.01
0.01
0.01
0.01
0.01
0.01
0.01
0.01
0.01
0.01
0.01
0.01
0.01
0.01
0.01
0.01
0.01
0.01
0.01
0.01
0.01
0.01
0.01
0.01
0.01
0.01
0.01
0.01
0.01
0.01
0.01
0.01
0.01
0.01
0.01
0.01
0.01
0.01
0.01
0.01
0.01
0.01
0.01
0.01
0.01
0.01
0.01
0.01
0.01
0.01
0.01
0.01
0.01
0.01
0.01
0.01
0.01
0.01
0.01
0.01
0.01
0.01
0.01
0.01
0.01
3.621421e-05
0.0002435255
0.0004068488
0.0005951458
0.000787874
0.001015237
0.001275175
0.001558798
0.001870918
0.002268234
0.003037989
0.003393213
0.003768268
0.004148098
0.004533254
0.004920848
0.005296504
0.00564525
0.005954692
0.00621409
0.006434377
0.00665219
0.006709266
0.006617037
0.0064736
0.006252751
0.005973879
0.005679329
0.005387207
0.005085394
0.004796129
0.004575254
0.004346529
0.00416411
0.004032272
0.00393562
0.003875035
0.003852844
0.00387352
0.003941362
0.004055398
0.004212033
0.004407801
0.004640839
0.004909031
0.005211654
0.005542895
0.005903868
0.006290633
0.006711748
0.007173005
0.007494031
0.007625865
0.007745219
0.007853441
0.007951746
0.0080411
0.008122274
0.008196206
0.008263724
0.008325587
0.008382584
0.008435496
0.008485054
0.008531958
0.008576898
0.008620557
0.008663618
0.008706786
0.008750802
0.008796466
0.008844663
0.008896346
0.008952524
0.009014235
0.009082503
0.009158284
0.009242373
0.009335763
0.00943959
0.009554697
0.009681661
0.00982079
0.009972156
0.01
0.01
0.01
0.01
0.01
0.01
0.01
0.01
0.01
0.01
0.01
0.01
0.01
0.01
0.01
0.01
0.01
0.01
0.01
0.01
0.01
0.01
0.01
0.01
0.01
0.01
0.01
0.01
0.01
0.01
0.01
0.01
0.01
0.01
0.01
0.01
0.01
0.01
0.01
0.01
0.01
0.01
0.01
0.01
0.01
0.01
0.01
0.01
0.01
0.01
0.01
0.01
0.01
0.01
0.01
0.01
0.01
0.01
0.01
0.01
0.01
0.01
0.01
0.01
0.01
0.01
0.01
0.01
0.01
0.01
0.01
0.01
0.01
0.01
0.01
0.01
0.01
0.01
0.01
0.01
0.01
0.01
0.01
0.01
0.01
0.01
0.01
0.01
0.01
0.01
0.01
0.01
0.01
0.01
0.01
0.01
0.01
0.01
0.01
0.01
0.01
0.01
0.01
0.01
0.01
0.01
0.01
0.01
0.01
0.01
0.01
0.01
0.01
0.01
0.01
0.01
0.01
0.01
0.01
0.01
0.01
0.01
0.01
0.01
0.01
0.01
0.01
0.01
0.01
0.01
0.01
0.01
0.01
0.01
0.01
0.01
0.01
0.01
0.01
0.01
0.01
0.01
0.01
0.01
0.01
0.01
0.01
0.01
0.01
0.01
0.01
0.01
0.01
0.01
0.01
0.01
0.01
0.01
0.01
0.01
0.01
0.01
0.01
0.01
0.01
0.01
0.01
0.01
0.01
0.01
0.01
0.01
0.01
0.01
0.01
0.01
0.01
0.01
0.01
0.01
0.01
0.01
0.01
0.01
0.01
0.01
0.01
0.01
0.01
0.01
0.01
0.01
0.01
0.01
0.01
0.01
0.01
0.01
0.01
0.01
0.01
0.01
0.01
0.01
0.01
0.01
0.01
0.01
0.01
0.01
0.01
0.01
0.01
0.01
0.01
0.01
0.01
0.01
0.01
0.01
0.01
0.01
0.01
0.01
0.01
0.01
0.01
0.01
0.01
0.01
0.01
0.01
0.01
0.01
0.01
0.01
0.01
0.01
0.01
0.01
0.01
0.01
0.01
0.01
0.01
0.01
0.01
0.01
0.01
0.01
0.01
0.01
0.01
0.01
0.01
0.01
0.01
0.01
0.01
0.01
0.01
0.01
0.01
0.01
0.01
0.01
0.01
0.01
0.01
0.01
0.01
0.01
0.01
0.01
0.01
0.01
0.01
0.01
0.01
0.01
0.01
0.01
0.01
0.01
0.01
0.01
0.01
0.01
0.01
0.01
0.01
0.01
0.01
0.01
0.01
0.01
0.01
0.01
0.01
0.01
0.01
0.01
0.01
0.01
0.01
0.01
0.01
0.01
0.01
0.01
0.01
0.01
0.01
0.01
0.01
0.01
0.01
0.01
0.01
0.01
0.01
0.01
0.01
0.01
0.01
0.01
0.01
0.01
0.01
0.01
0.01
0.01
0.01
0.01
0.01
0.01
0.01
0.01
0.01
0.01
0.01
0.01
0.01
0.01
0.01
0.01
0.01
0.01
0.01
0.01
0.01
0.01
0.01
0.01
0.01
0.01
0.01
0.01
0.01
0.01
0.01
0.01
0.01
0.01
0.01
0.01
0.01
0.01
0.01
0.01
0.01
0.01
0.01
0.01
0.01
0.01
0.01
0.01
0.01
0.01
0.01
0.01
0.01
0.01
0.01
0.01
0.01
0.01
0.01
0.01
0.01
0.01
0.01
0.01
0.01
0.01
0.01
0.01
0.01
0.01
0.01
0.01
0.01
0.01
0.01
2.896657e-05
0.0004807933
0.001071817
0.001505377
0.001942321
0.002369722
0.002781128
0.003174105
0.003545977
0.003892302
0.00422272
0.004616101
0.005012012
0.005398842
0.005770196
0.006118301
0.006432326
0.006702391
0.006922617
0.006945499
0.006920803
0.00678788
0.006627123
0.006407493
0.006136128
0.005837337
0.005525912
0.005227237
0.004932983
0.004656306
0.004410972
0.004198961
0.004014784
0.003873604
0.003781425
0.003734565
0.003730519
0.00376866
0.003851245
0.003980957
0.004158187
0.00438096
0.004646748
0.004953554
0.005298207
0.005678723
0.006094831
0.006533076
0.006997814
0.007412605
0.007588101
0.007753451
0.007908302
0.008052691
0.008186806
0.008311027
0.008425867
0.008531929
0.008629923
0.008720593
0.008804691
0.008882998
0.00895633
0.0090255
0.009091313
0.009154588
0.009216115
0.009276639
0.009336881
0.009397544
0.009459371
0.009523409
0.009590765
0.009662587
0.009740076
0.009824482