/*--------------------------------*- C++ -*----------------------------------*\
| =========                 |                                                 |
| \\      /  F ield         | foam-extend: Open Source CFD                    |
|  \\    /   O peration     | Version:     3.1                                |
|   \\  /    A nd           | Web:         http://www.extend-project.de       |
|    \\/     M anipulation  |                                                 |
\*---------------------------------------------------------------------------*/
FoamFile
{
    version     2.0;
    format      ascii;
    class       volScalarField;
    location    "2";
    object      p;
}
// * * * * * * * * * * * * * * * * * * * * * * * * * * * * * * * * * * * * * //

dimensions      [1 -1 -2 0 0 0 0];

internalField   nonuniform List<scalar> 
119952
(
8479.352
8297.216
8253.229
8268.798
8289.408
8256.838
8239.663
8224.608
8210.627
8197.24
8184.211
8171.379
8158.648
8145.955
8133.24
8120.398
8107.297
8093.494
8077.771
8052.97
8090.06
8047.29
8024.086
8073.047
8048.065
8042.481
8032.751
8035.907
8079.307
7766.796
8303.839
8294.701
8290.266
8286.166
8281.944
8277.913
8273.701
8269.843
8265.947
8257.904
8236.74
8230.654
8223.429
8216.212
8208.977
8201.883
8194.587
8187.415
8180.32
8146.96
8136.176
8127.587
8120.273
8112.892
8105.694
8098.641
8091.486
8084.481
8077.9
8069.167
8062.056
8055.234
8048.183
8041.167
8034.155
8027.169
8020.93
8020.496
8031.714
8005.597
7993.89
7993.063
7987.319
7974.807
7961.007
7947.904
7935.2
7922.772
7910.56
7898.474
7886.457
7874.457
7862.41
7850.243
7837.873
7825.175
7812.169
7799.492
7790.368
7779.548
7766.799
7765.858
7768.053
7758.816
7750.714
7742.263
7725.121
7681.736
7665.624
7657.21
7647.003
7636.73
7625.984
7615.02
7603.923
7592.749
7581.542
7570.331
7559.141
7547.992
7536.9
7525.879
7514.941
7504.098
7493.359
7482.735
7472.233
7461.863
7451.631
7441.546
7431.613
7421.84
7412.232
7402.795
7393.534
7384.454
7375.559
7366.854
7358.343
7350.027
7341.912
7333.998
7326.289
7318.785
7311.489
7304.402
7297.525
7290.857
7284.398
7278.147
7272.104
7266.265
7260.626
7255.179
7249.908
7244.8
7240.043
7235.749
7231.44
7227.347
7223.401
7219.644
7216.085
7212.708
7209.511
7206.493
7203.652
7200.984
7198.488
7196.159
7193.995
7191.992
7190.147
7188.455
7186.915
7185.521
7184.275
7183.16
7182.141
7181.325
7180.609
7180.02
7179.547
7179.188
7178.941
7178.804
7178.772
7178.842
7179.011
7179.274
7179.629
7180.071
7180.599
7181.207
7181.892
7182.652
7183.481
7184.377
7185.336
7186.354
7187.428
7188.552
7189.719
7190.916
7192.116
7193.302
7194.899
7228.195
7228.683
7230.302
7231.938
7233.584
7235.247
7236.929
7238.632
7240.355
7242.099
7243.862
7245.641
7247.438
7249.248
7251.071
7252.904
7254.746
7256.595
7258.444
7260.295
7262.146
7263.969
7265.822
7267.661
7269.482
7271.281
7273.053
7274.787
7276.473
7278.093
7279.615
7280.998
7282.214
7282.888
7282.618
7281.218
7286.305
7290.151
7293.547
7296.609
7299.498
7302.264
7304.94
7307.545
7310.09
7312.585
7315.037
7317.449
7319.828
7322.174
7324.492
7326.783
7329.047
7331.288
7333.505
7335.699
7337.871
7340.021
7342.15
7344.259
7346.348
7348.416
7350.465
7352.495
7354.508
7356.503
7358.483
7360.457
7362.383
7364.276
7341.527
7339.91
7339.564
7341.235
7342.721
7344.321
7345.982
7347.61
7349.258
7350.902
7352.525
7354.126
7355.704
7357.257
7358.785
7360.289
7361.768
7363.223
7364.653
7366.059
7367.44
7368.797
7370.13
7371.438
7372.722
7373.982
7375.218
7376.43
7377.618
7378.783
7379.925
7381.045
7382.142
7383.217
7384.271
7385.306
7386.322
7387.321
7388.307
7389.283
7390.256
7391.235
7392.24
7393.303
7394.437
7395.429
7395.905
7396.182
7396.58
7397
7397.434
7397.881
7398.327
7398.642
7397.15
7398.355
7399.076
7399.37
7399.643
7399.897
7400.145
7400.37
7400.582
7400.777
7400.949
7401.1
7401.227
7401.332
7401.415
7401.475
7401.513
7401.529
7401.525
7401.499
7401.454
7401.388
7401.302
7401.196
7401.072
7400.928
7400.766
7400.585
7400.387
7400.17
7399.936
7399.684
7399.416
7399.131
7398.829
7398.511
7398.176
7397.826
7397.461
7397.079
7396.683
7396.271
7395.844
7395.403
7394.946
7394.475
7393.989
7393.488
7392.973
7392.443
7391.898
7391.337
7390.762
7390.171
7389.563
7388.94
7388.299
7387.641
7386.964
7386.269
7385.552
7384.814
7384.053
7383.267
7382.454
7381.611
7380.735
7379.823
7378.87
7377.87
7376.817
7375.702
7374.513
7373.236
7371.85
7370.327
7368.629
7366.692
7364.412
7361.619
7358.022
7353.217
7347.65
7348.145
7374.016
8335.857
8332.406
8327.487
8322.413
8318.339
8313.755
8309.502
8305.773
8301.303
8275.893
8271.453
8264.535
8257.183
8249.941
8242.739
8235.615
8228.456
8220.94
8184.824
8178.549
8168.233
8159.945
8152.191
8144.512
8136.94
8129.397
8121.769
8114.629
8106.328
8097.342
8090.13
8082.596
8074.933
8067.381
8059.901
8052.422
8045.144
8038.432
8028.343
8020.728
8013.858
8006.653
7999.431
7992.259
7985.018
7977.834
7970.269
7962.874
7955.8
7948.462
7941.041
7933.695
7926.451
7919.24
7912.111
7905.084
7834.683
7827.623
7820.22
7812.848
7805.593
7798.421
7791.278
7784.155
7777.003
7769.845
7762.791
7755.568
7748.328
7741.213
7734.272
7727.579
7721.36
7715.957
7711.374
7706.299
7697.211
7687.2
7679.164
7670.916
7660.714
7648.894
7636.723
7624.684
7612.761
7600.892
7589.056
7577.235
7565.404
7553.535
7541.606
7529.613
7517.616
7505.789
7494.473
7484.017
7474.289
7465.434
7458.488
7452.266
7443.748
7432.888
7419.387
7402.914
7382.546
7365.048
7352.3
7340.984
7329.727
7318.4
7307.073
7295.753
7284.434
7273.125
7261.842
7250.599
7239.412
7228.292
7217.251
7206.299
7195.447
7184.704
7174.08
7163.581
7153.217
7142.994
7132.919
7123
7113.243
7103.652
7094.234
7084.994
7075.937
7067.066
7058.387
7049.901
7041.614
7033.527
7025.643
7017.964
7010.491
7003.228
6996.173
6989.328
6982.694
6976.269
6970.054
6964.047
6958.247
6952.652
6947.261
6942.08
6937.127
6932.426
6928.007
6923.72
6919.611
6915.702
6911.987
6908.46
6905.117
6901.956
6898.974
6896.169
6893.537
6891.076
6888.783
6886.653
6884.683
6882.871
6881.213
6879.704
6878.341
6877.12
6876.034
6875.083
6874.268
6873.579
6873.013
6872.566
6872.234
6872.014
6871.903
6871.896
6871.99
6872.182
6872.469
6872.846
6873.312
6873.862
6874.491
6875.198
6875.978
6876.828
6877.744
6878.721
6879.759
6880.854
6882
6883.195
6884.433
6885.728
6887.076
6888.567
6951.361
6952.637
6954.217
6955.82
6957.449
6959.102
6960.78
6962.484
6964.21
6965.959
6967.727
6969.512
6971.313
6973.129
6974.956
6976.793
6978.637
6980.487
6982.338
6984.193
6986.049
6987.899
6989.743
6991.576
6993.393
6995.188
6996.957
6998.689
7000.374
7001.996
7003.532
7004.949
7006.197
7007.22
7008.122
7009.441
7012.149
7015.328
7018.35
7021.258
7024.052
7026.755
7029.384
7031.951
7034.466
7036.936
7039.366
7041.761
7044.124
7046.457
7048.763
7051.043
7053.299
7055.532
7057.742
7059.93
7062.096
7064.241
7066.366
7068.47
7070.554
7072.619
7074.664
7076.69
7078.699
7080.692
7082.672
7084.646
7086.635
7088.744
7030.027
7032.035
7033.366
7034.706
7036.282
7037.96
7039.641
7041.304
7042.952
7044.584
7046.198
7047.79
7049.359
7050.905
7052.427
7053.925
7055.399
7056.848
7058.273
7059.673
7061.049
7062.401
7063.728
7065.031
7066.31
7067.565
7068.796
7070.003
7071.187
7072.347
7073.484
7074.598
7075.69
7076.761
7077.81
7078.84
7079.851
7080.845
7081.823
7082.79
7083.748
7084.702
7085.653
7086.592
7087.483
7088.258
7088.855
7089.338
7089.803
7090.27
7090.734
7091.196
7091.662
7092.088
7092.241
7092.347
7092.613
7092.893
7093.136
7093.362
7093.584
7093.798
7093.998
7094.181
7094.344
7094.487
7094.607
7094.705
7094.781
7094.835
7094.866
7094.877
7094.866
7094.835
7094.783
7094.712
7094.62
7094.509
7094.379
7094.23
7094.063
7093.877
7093.674
7093.452
7093.213
7092.957
7092.684
7092.394
7092.088
7091.766
7091.428
7091.074
7090.704
7090.319
7089.919
7089.504
7089.074
7088.629
7088.169
7087.695
7087.206
7086.702
7086.184
7085.651
7085.103
7084.54
7083.962
7083.368
7082.758
7082.131
7081.488
7080.827
7080.147
7079.448
7078.728
7077.987
7077.222
7076.432
7075.615
7074.768
7073.888
7072.971
7072.014
7071.01
7069.954
7068.837
7067.649
7066.377
7065.005
7063.512
7061.871
7060.047
7058.007
7055.731
7053.342
7051.172
7050.332
7051.184
7054.658
8328.326
8418.477
8486.894
8538.657
8574.088
8595.223
8604.356
8603.952
8595.758
8579.662
8540.865
8518.688
8493.683
8468.663
8443.804
8419.525
8396.11
8373.676
8353.694
8301.437
8282.042
8263.073
8246.629
8231.288
8216.987
8203.631
8191.088
8179.277
8168.985
8156.328
8145.84
8136.049
8126.325
8116.993
8107.903
8099.039
8090.456
8082.768
8073.143
8063.433
8055.821
8048.053
8040.354
8032.711
8025.14
8017.681
8010.382
8002.665
7995.146
7987.906
7980.449
7973.03
7965.718
7958.482
7951.343
7944.469
7873.112
7865.628
7858.459
7851.058
7843.471
7835.893
7828.372
7820.864
7813.326
7805.738
7798.235
7790.638
7782.862
7775.098
7767.444
7759.882
7752.376
7744.908
7737.45
7730.014
7722.458
7714.697
7707.082
7699.65
7692.296
7684.968
7677.649
7670.32
7663.001
7655.695
7648.316
7640.951
7633.638
7626.365
7619.127
7611.924
7604.732
7597.64
7590.73
7583.395
7575.862
7568.517
7561.338
7554.219
7547.108
7539.985
7532.868
7525.737
7518.566
7511.374
7504.235
7497.191
7490.27
7483.523
7476.986
7470.7
7464.527
7458.295
7450.112
7440.802
7432.001
7423.092
7413.012
7401.914
7390.414
7378.864
7367.31
7355.734
7344.139
7332.528
7320.896
7309.238
7297.561
7285.892
7274.298
7262.897
7251.846
7241.365
7231.454
7221.963
7213.24
7204.735
7194.963
7183.427
7170.273
7155.276
7138.695
7123.188
7110.173
7098.182
7086.458
7074.823
7063.268
7051.778
7040.33
7028.921
7017.557
7006.248
6995.002
6983.83
6972.741
6961.745
6950.852
6940.069
6929.406
6918.87
6908.469
6898.211
6888.102
6878.149
6868.358
6858.735
6849.286
6840.015
6830.927
6822.027
6813.319
6804.805
6796.49
6788.376
6780.466
6772.762
6765.265
6757.977
6750.9
6744.033
6737.377
6730.932
6724.699
6718.676
6712.863
6707.26
6701.868
6696.692
6691.737
6687.01
6682.518
6678.217
6674.101
6670.178
6666.447
6662.904
6659.546
6656.372
6653.377
6650.56
6647.917
6645.446
6643.142
6641.003
6639.024
6637.203
6635.536
6634.019
6632.648
6631.42
6630.329
6629.374
6628.551
6627.856
6627.285
6626.834
6626.498
6626.275
6626.16
6626.15
6626.242
6626.43
6626.714
6627.091
6627.556
6628.105
6628.734
6629.441
6630.221
6631.072
6631.989
6632.966
6634.007
6635.107
6636.262
6637.471
6638.731
6640.049
6641.428
6642.888
6644.507
6646.089
6647.656
6649.254
6650.887
6652.548
6654.234
6655.945
6657.679
6659.434
6661.209
6663.001
6664.81
6666.632
6668.465
6670.308
6672.158
6674.014
6675.873
6677.733
6679.593
6681.448
6683.296
6685.134
6686.957
6688.76
6690.539
6692.287
6693.993
6695.647
6697.245
6698.781
6700.26
6701.736
6703.339
6705.245
6707.608
6710.273
6713.003
6715.701
6718.352
6720.954
6723.511
6726.024
6728.497
6730.934
6733.338
6735.711
6738.056
6740.374
6742.668
6744.937
6747.183
6749.406
6751.608
6753.788
6755.948
6758.087
6760.205
6762.303
6764.382
6766.441
6768.48
6770.5
6772.502
6774.487
6776.455
6778.41
6780.344
6782.276
6784.036
6785.547
6787.147
6788.889
6790.674
6792.438
6794.163
6795.855
6797.522
6799.167
6800.789
6802.388
6803.962
6805.511
6807.036
6808.536
6810.012
6811.463
6812.89
6814.292
6815.669
6817.022
6818.35
6819.654
6820.934
6822.189
6823.421
6824.628
6825.812
6826.972
6828.109
6829.223
6830.315
6831.385
6832.433
6833.461
6834.469
6835.458
6836.43
6837.385
6838.325
6839.249
6840.152
6841.024
6841.845
6842.587
6843.221
6843.765
6844.269
6844.76
6845.236
6845.695
6846.121
6846.52
6846.911
6847.194
6847.414
6847.619
6847.824
6848.032
6848.242
6848.446
6848.64
6848.818
6848.979
6849.12
6849.24
6849.339
6849.416
6849.471
6849.504
6849.516
6849.507
6849.477
6849.426
6849.356
6849.265
6849.155
6849.025
6848.877
6848.71
6848.525
6848.322
6848.1
6847.862
6847.606
6847.333
6847.044
6846.738
6846.416
6846.078
6845.725
6845.356
6844.971
6844.571
6844.157
6843.727
6843.283
6842.824
6842.351
6841.863
6841.36
6840.843
6840.311
6839.764
6839.203
6838.626
6838.033
6837.425
6836.801
6836.159
6835.5
6834.823
6834.127
6833.41
6832.672
6831.911
6831.126
6830.313
6829.472
6828.599
6827.691
6826.744
6825.754
6824.715
6823.62
6822.462
6821.232
6819.919
6818.513
6817.003
6815.383
6813.669
6811.908
6810.236
6808.864
6808.129
6808.426
6809.562
6494.009
6612.458
6730.022
6855.257
6993.595
7118.125
7264.5
7408.819
7550.319
7680.774
7805.335
7922.135
8021.312
8103.642
8168.352
8216.472
8249.125
8268.153
8275.72
8274.237
8265.849
8252.353
8235.121
8215.233
8193.459
8170.975
8148.395
8126.191
8104.747
8084.447
8066.147
7977.855
7961.407
7946.188
7931.132
7916.801
7903.442
7890.934
7879.121
7867.866
7857.064
7846.765
7836.658
7826.795
7817.271
7808.074
7799.145
7790.427
7781.892
7773.469
7765.111
7756.644
7748.279
7740.187
7732.289
7724.519
7716.852
7709.269
7701.742
7694.274
7686.779
7679.28
7671.852
7664.494
7657.189
7649.92
7642.639
7635.344
7627.87
7620.487
7613.037
7605.464
7597.925
7590.463
7583.047
7575.636
7568.204
7560.766
7553.278
7545.678
7538.061
7530.49
7522.963
7515.469
7507.998
7500.54
7493.09
7485.637
7478.075
7470.455
7462.945
7455.553
7448.206
7440.872
7433.544
7426.225
7418.897
7411.563
7404.244
7396.939
7389.649
7382.383
7375.143
7367.931
7360.752
7353.603
7346.411
7339.044
7331.657
7324.374
7317.174
7310.004
7302.839
7295.671
7288.503
7281.321
7274.129
7266.949
7259.799
7252.696
7245.66
7238.706
7231.828
7225.016
7218.132
7210.972
7202.833
7193.894
7184.873
7175.647
7165.709
7155.087
7144.082
7132.916
7121.663
7110.34
7098.963
7087.547
7076.1
7064.632
7053.16
7041.717
7030.354
7019.151
7008.202
6997.605
6987.351
6977.351
6967.604
6957.768
6947.121
6935.328
6922.414
6908.391
6893.717
6879.694
6866.721
6854.396
6842.386
6830.543
6818.82
6807.188
6795.626
6784.124
6772.682
6761.305
6750
6738.775
6727.637
6716.596
6705.659
6694.836
6684.133
6673.56
6663.124
6652.832
6642.69
6632.706
6622.885
6613.233
6603.756
6594.459
6585.346
6576.423
6567.692
6559.158
6550.823
6542.691
6534.763
6527.043
6519.532
6512.231
6505.142
6498.265
6491.6
6485.148
6478.909
6472.883
6467.069
6461.468
6456.081
6450.91
6445.957
6441.223
6436.709
6432.397
6428.277
6424.351
6420.618
6417.074
6413.717
6410.543
6407.551
6404.736
6402.096
6399.627
6397.326
6395.19
6393.215
6391.397
6389.734
6388.22
6386.853
6385.629
6384.544
6383.593
6382.775
6382.084
6381.518
6381.072
6380.741
6380.524
6380.415
6380.41
6380.506
6380.699
6380.985
6381.37
6381.842
6382.396
6383.031
6383.743
6384.528
6385.384
6386.306
6387.283
6388.34
6389.454
6390.624
6391.849
6393.128
6394.463
6395.857
6397.311
6398.823
6400.354
6401.921
6403.528
6405.166
6406.83
6408.52
6410.233
6411.969
6413.726
6415.503
6417.298
6419.108
6420.933
6422.769
6424.616
6426.471
6428.331
6430.196
6432.062
6433.927
6435.79
6437.646
6439.493
6441.327
6443.145
6444.943
6446.717
6448.466
6450.189
6451.88
6453.547
6455.212
6456.921
6458.741
6460.762
6463.052
6465.548
6468.121
6470.695
6473.251
6475.783
6478.285
6480.758
6483.201
6485.614
6488
6490.359
6492.693
6495.003
6497.289
6499.553
6501.795
6504.016
6506.215
6508.394
6510.552
6512.69
6514.808
6516.905
6518.983
6521.041
6523.079
6525.098
6527.097
6529.077
6531.035
6532.971
6534.872
6536.737
6538.521
6540.236
6541.969
6543.714
6545.452
6547.174
6548.876
6550.558
6552.22
6553.862
6555.482
6557.078
6558.652
6560.201
6561.727
6563.229
6564.706
6566.159
6567.587
6568.99
6570.369
6571.724
6573.054
6574.359
6575.64
6576.897
6578.13
6579.338
6580.522
6581.683
6582.82
6583.934
6585.026
6586.094
6587.141
6588.166
6589.17
6590.153
6591.116
6592.059
6592.981
6593.88
6594.75
6595.584
6596.369
6597.091
6597.737
6598.315
6598.851
6599.361
6599.846
6600.307
6600.739
6601.15
6601.53
6601.828
6602.072
6602.303
6602.534
6602.76
6602.978
6603.185
6603.379
6603.556
6603.714
6603.854
6603.973
6604.07
6604.146
6604.201
6604.235
6604.247
6604.238
6604.208
6604.158
6604.088
6603.998
6603.888
6603.759
6603.611
6603.444
6603.259
6603.056
6602.835
6602.597
6602.341
6602.069
6601.779
6601.474
6601.152
6600.814
6600.461
6600.092
6599.707
6599.308
6598.894
6598.465
6598.021
6597.563
6597.09
6596.603
6596.101
6595.585
6595.054
6594.509
6593.948
6593.373
6592.783
6592.177
6591.555
6590.916
6590.261
6589.587
6588.895
6588.183
6587.451
6586.696
6585.918
6585.115
6584.284
6583.424
6582.531
6581.602
6580.634
6579.622
6578.563
6577.451
6576.281
6575.048
6573.75
6572.389
6570.974
6569.535
6568.124
6566.836
6565.795
6565.159
6565.067
6565.285
5843.605
5850.864
5863.218
5859.133
5871.849
5864.341
5895.038
5935.548
5986.035
6048.379
6123.997
6208.599
6308.793
6420.446
6542.106
6673.361
6782.893
6930.711
7079.175
7222.55
7359.365
7488.868
7606.57
7708.272
7790.685
7853.784
7899.185
7928.922
7945.23
7950.38
7946.61
7936.203
7921.374
7903.672
7883.886
7863.3
7842.713
7821.995
7801.365
7781.353
7762.132
7743.745
7725.805
7709.746
7694.972
7680.782
7667.318
7654.693
7642.81
7631.523
7620.737
7610.386
7600.345
7590.54
7581.025
7571.791
7562.798
7554.006
7545.372
7536.864
7528.474
7520.116
7511.718
7503.447
7495.379
7487.461
7479.645
7471.912
7464.263
7456.681
7449.131
7441.596
7434.103
7426.661
7419.264
7411.911
7404.593
7397.259
7389.931
7382.597
7375.184
7367.719
7360.249
7352.817
7345.418
7338.028
7330.631
7323.216
7315.778
7308.293
7300.774
7293.258
7285.754
7278.26
7270.78
7263.314
7255.856
7248.399
7240.928
7233.425
7225.918
7218.461
7211.061
7203.693
7196.343
7189.004
7181.676
7174.349
7167.033
7159.73
7152.433
7145.145
7137.872
7130.621
7123.386
7116.161
7108.925
7101.665
7094.366
7087.06
7079.786
7072.548
7065.329
7058.116
7050.902
7043.684
7036.459
7029.228
7021.998
7014.776
7007.57
7000.388
6993.226
6986.064
6978.859
6971.494
6963.817
6955.571
6946.838
6937.782
6928.411
6918.565
6908.236
6897.565
6886.689
6875.679
6864.567
6853.376
6842.126
6830.831
6819.509
6808.18
6796.872
6785.627
6774.496
6763.533
6752.775
6742.212
6731.772
6721.368
6710.786
6699.671
6687.812
6675.201
6661.952
6648.351
6634.953
6622.055
6609.608
6597.449
6585.468
6573.616
6561.867
6550.203
6538.613
6527.095
6515.652
6504.288
6493.01
6481.824
6470.739
6459.762
6448.901
6438.164
6427.558
6417.091
6406.77
6396.602
6386.593
6376.75
6367.077
6357.581
6348.267
6339.139
6330.202
6321.459
6312.915
6304.571
6296.432
6288.5
6280.776
6273.263
6265.962
6258.874
6251.999
6245.339
6238.893
6232.662
6226.646
6220.844
6215.256
6209.884
6204.726
6199.785
6195.059
6190.547
6186.239
6182.129
6178.214
6174.493
6170.963
6167.62
6164.462
6161.485
6158.687
6156.063
6153.611
6151.327
6149.208
6147.25
6145.45
6143.803
6142.307
6140.957
6139.749
6138.681
6137.747
6136.945
6136.271
6135.72
6135.289
6134.975
6134.774
6134.681
6134.69
6134.801
6135.007
6135.294
6135.707
6136.194
6136.763
6137.411
6138.137
6138.937
6139.808
6140.749
6141.765
6142.826
6143.947
6145.127
6146.364
6147.656
6149.002
6150.404
6151.859
6153.362
6154.906
6156.486
6158.099
6159.743
6161.414
6163.112
6164.833
6166.578
6168.344
6170.129
6171.931
6173.749
6175.58
6177.424
6179.277
6181.139
6183.008
6184.88
6186.755
6188.63
6190.503
6192.372
6194.233
6196.085
6197.925
6199.751
6201.561
6203.354
6205.131
6206.895
6208.658
6210.44
6212.273
6214.2
6216.27
6218.512
6220.894
6223.348
6225.826
6228.306
6230.778
6233.234
6235.67
6238.085
6240.476
6242.845
6245.191
6247.514
6249.816
6252.096
6254.355
6256.593
6258.81
6261.008
6263.185
6265.342
6267.479
6269.596
6271.693
6273.77
6275.827
6277.864
6279.881
6281.877
6283.851
6285.803
6287.729
6289.625
6291.49
6293.312
6295.092
6296.844
6298.582
6300.308
6302.023
6303.722
6305.402
6307.063
6308.703
6310.321
6311.916
6313.488
6315.037
6316.563
6318.064
6319.541
6320.994
6322.422
6323.826
6325.205
6326.559
6327.889
6329.195
6330.476
6331.733
6332.965
6334.173
6335.357
6336.517
6337.653
6338.766
6339.855
6340.922
6341.965
6342.986
6343.984
6344.96
6345.914
6346.844
6347.75
6348.629
6349.477
6350.288
6351.054
6351.766
6352.419
6353.018
6353.575
6354.099
6354.593
6355.059
6355.496
6355.901
6356.267
6356.583
6356.863
6357.125
6357.375
6357.612
6357.835
6358.043
6358.235
6358.41
6358.566
6358.702
6358.818
6358.914
6358.988
6359.041
6359.073
6359.083
6359.073
6359.042
6358.991
6358.92
6358.829
6358.718
6358.588
6358.439
6358.272
6358.086
6357.882
6357.66
6357.42
6357.164
6356.89
6356.6
6356.294
6355.971
6355.633
6355.279
6354.909
6354.524
6354.124
6353.71
6353.28
6352.836
6352.378
6351.905
6351.418
6350.917
6350.401
6349.871
6349.327
6348.768
6348.195
6347.606
6347.002
6346.383
6345.748
6345.096
6344.427
6343.74
6343.035
6342.31
6341.564
6340.796
6340.004
6339.187
6338.343
6337.47
6336.565
6335.626
6334.65
6333.635
6332.577
6331.476
6330.33
6329.143
6327.921
6326.681
6325.45
6324.271
6323.208
6322.337
6321.735
6321.443
6321.309
5842.559
5815.184
5786.86
5745.945
5719.661
5662.344
5640.98
5622.015
5605.887
5592.678
5582.923
5577.426
5576.94
5581.771
5592.186
5556.07
5585.417
5623.531
5671.938
5731.694
5803.077
5886.528
5984.253
6094.945
6217.002
6349.431
6487.748
6635.545
6786.513
6932.77
7072.905
7204.108
7322.781
7425.211
7508.841
7573.381
7620.248
7651.565
7669.633
7676.781
7675.202
7667.041
7654.201
7637.871
7619.152
7599.523
7579.895
7560.424
7541.254
7522.703
7504.882
7487.943
7471.955
7457.102
7443.225
7430.048
7417.522
7405.667
7394.424
7383.693
7373.393
7363.444
7353.773
7344.351
7335.167
7326.193
7317.398
7308.751
7300.228
7291.803
7283.461
7275.165
7266.913
7258.76
7250.729
7242.804
7234.966
7227.206
7219.54
7211.943
7204.372
7196.83
7189.327
7181.861
7174.433
7167.038
7159.674
7152.3
7144.936
7137.571
7130.162
7122.731
7115.301
7107.877
7100.456
7093.031
7085.597
7078.148
7070.68
7063.19
7055.687
7048.177
7040.667
7033.164
7025.671
7018.189
7010.714
7003.241
6995.766
6988.286
6980.81
6973.357
6965.939
6958.55
6951.181
6943.826
6936.484
6929.15
6921.828
6914.515
6907.212
6899.92
6892.642
6885.381
6878.133
6870.891
6863.646
6856.395
6849.128
6841.851
6834.583
6827.332
6820.092
6812.855
6805.614
6798.366
6791.107
6783.837
6776.555
6769.265
6761.966
6754.655
6747.318
6739.929
6732.443
6724.781
6716.863
6708.548
6699.824
6690.76
6681.38
6671.634
6661.515
6651.092
6640.451
6629.651
6618.726
6607.703
6596.602
6585.442
6574.242
6563.022
6551.806
6540.625
6529.511
6518.493
6507.583
6496.766
6485.982
6475.149
6464.132
6452.746
6440.861
6428.472
6415.669
6402.622
6389.616
6376.87
6364.416
6352.184
6340.108
6328.156
6316.309
6304.552
6292.878
6281.284
6269.772
6258.345
6247.009
6235.771
6224.636
6213.614
6202.711
6191.934
6181.292
6170.791
6160.439
6150.241
6140.205
6130.337
6120.642
6111.126
6101.794
6092.65
6083.699
6074.944
6066.39
6058.039
6049.894
6041.957
6034.232
6026.719
6019.419
6012.334
6005.465
5998.812
5992.376
5986.155
5980.151
5974.363
5968.791
5963.435
5958.294
5953.367
5948.655
5944.153
5939.857
5935.761
5931.863
5928.16
5924.648
5921.324
5918.186
5915.23
5912.453
5909.851
5907.42
5905.159
5903.062
5901.127
5899.349
5897.725
5896.251
5894.923
5893.738
5892.691
5891.78
5890.999
5890.346
5889.817
5889.407
5889.113
5888.933
5888.866
5888.891
5889.023
5889.256
5889.597
5889.994
5890.492
5891.075
5891.74
5892.483
5893.3
5894.188
5895.145
5896.17
5897.254
5898.396
5899.596
5900.852
5902.162
5903.525
5904.94
5906.405
5907.917
5909.47
5911.059
5912.681
5914.334
5916.015
5917.723
5919.455
5921.211
5922.987
5924.783
5926.596
5928.424
5930.266
5932.12
5933.984
5935.857
5937.736
5939.62
5941.508
5943.396
5945.284
5947.169
5949.049
5950.923
5952.789
5954.645
5956.493
5958.331
5960.163
5961.994
5963.835
5965.702
5967.617
5969.608
5971.7
5973.908
5976.217
5978.59
5980.997
5983.417
5985.839
5988.254
5990.657
5993.045
5995.415
5997.766
6000.098
6002.411
6004.703
6006.976
6009.23
6011.463
6013.677
6015.872
6018.046
6020.202
6022.337
6024.453
6026.549
6028.625
6030.681
6032.716
6034.731
6036.724
6038.695
6040.643
6042.565
6044.459
6046.324
6048.154
6049.947
6051.711
6053.457
6055.19
6056.909
6058.61
6060.291
6061.952
6063.591
6065.209
6066.804
6068.376
6069.924
6071.449
6072.95
6074.426
6075.879
6077.307
6078.71
6080.089
6081.443
6082.773
6084.078
6085.359
6086.615
6087.847
6089.054
6090.237
6091.396
6092.53
6093.641
6094.728
6095.791
6096.831
6097.847
6098.839
6099.808
6100.752
6101.672
6102.564
6103.428
6104.259
6105.054
6105.808
6106.514
6107.172
6107.783
6108.352
6108.886
6109.389
6109.86
6110.3
6110.706
6111.078
6111.413
6111.716
6111.995
6112.256
6112.499
6112.725
6112.934
6113.125
6113.299
6113.453
6113.587
6113.701
6113.794
6113.866
6113.916
6113.946
6113.955
6113.943
6113.911
6113.858
6113.785
6113.692
6113.58
6113.449
6113.298
6113.129
6112.941
6112.736
6112.513
6112.272
6112.014
6111.739
6111.448
6111.14
6110.816
6110.476
6110.121
6109.751
6109.365
6108.964
6108.549
6108.119
6107.674
6107.216
6106.743
6106.256
6105.755
6105.239
6104.71
6104.167
6103.61
6103.038
6102.451
6101.85
6101.234
6100.603
6099.956
6099.292
6098.611
6097.913
6097.196
6096.46
6095.704
6094.926
6094.125
6093.3
6092.449
6091.571
6090.664
6089.726
6088.757
6087.756
6086.724
6085.662
6084.577
6083.477
6082.38
6081.308
6080.296
6079.386
6078.628
6078.055
6077.695
6077.433
5878.518
5801.183
5732.814
5667.431
5612.201
5568.055
5530.686
5498.504
5470.359
5443.756
5355.747
5334.387
5315.264
5298.783
5285.258
5275.215
5269.12
5267.461
5270.974
5280.736
5296.553
5321.899
5355.663
5399.259
5453.689
5520.48
5600.141
5693.598
5801.584
5923.612
6057.727
6198.874
6346.833
6497.521
6645.237
6786.053
6916.666
7033.925
7134.979
7217.956
7282.613
7330.22
7362.856
7382.807
7392.354
7393.587
7388.46
7378.673
7365.454
7350.06
7333.018
7314.716
7296.456
7278.949
7262.184
7246.137
7230.918
7216.525
7202.965
7190.202
7178.111
7166.603
7155.641
7145.172
7135.12
7125.413
7115.989
7106.798
7097.806
7088.988
7080.322
7071.778
7063.334
7054.974
7046.682
7038.446
7030.266
7022.152
7014.103
7006.117
6998.205
6990.365
6982.586
6974.868
6967.212
6959.606
6952.042
6944.521
6937.04
6929.595
6922.173
6914.766
6907.369
6899.978
6892.571
6885.175
6877.754
6870.316
6862.868
6855.412
6847.948
6840.473
6832.985
6825.482
6817.966
6810.438
6802.904
6795.37
6787.843
6780.326
6772.819
6765.32
6757.829
6750.343
6742.862
6735.39
6727.937
6720.512
6713.112
6705.734
6698.373
6691.027
6683.693
6676.372
6669.063
6661.766
6654.482
6647.211
6639.955
6632.709
6625.47
6618.231
6610.989
6603.738
6596.478
6589.22
6581.969
6574.721
6567.47
6560.211
6552.94
6545.652
6538.346
6531.018
6523.666
6516.285
6508.867
6501.394
6493.839
6486.162
6478.308
6470.217
6461.816
6453.079
6444.03
6434.685
6425.029
6415.063
6404.826
6394.374
6383.751
6372.989
6362.113
6351.144
6340.102
6329.005
6317.871
6306.721
6295.575
6284.455
6273.373
6262.334
6251.318
6240.28
6229.158
6217.864
6206.294
6194.377
6182.109
6169.554
6156.825
6144.088
6131.482
6119.053
6106.783
6094.641
6082.61
6070.678
6058.837
6047.082
6035.411
6023.826
6012.331
6000.931
5989.633
5978.442
5967.367
5956.414
5945.591
5934.904
5924.363
5913.972
5903.739
5893.67
5883.771
5874.048
5864.507
5855.152
5845.987
5837.018
5828.248
5819.68
5811.319
5803.165
5795.223
5787.493
5779.978
5772.679
5765.597
5758.732
5752.086
5745.658
5739.448
5733.456
5727.682
5722.125
5716.784
5711.659
5706.749
5702.052
5697.565
5693.285
5689.207
5685.327
5681.643
5678.152
5674.85
5671.734
5668.801
5666.048
5663.47
5661.064
5658.828
5656.756
5654.846
5653.093
5651.494
5650.046
5648.744
5647.584
5646.562
5645.676
5644.92
5644.291
5643.786
5643.4
5643.129
5642.969
5642.912
5642.974
5643.132
5643.387
5643.737
5644.169
5644.69
5645.295
5645.981
5646.744
5647.581
5648.489
5649.466
5650.509
5651.613
5652.776
5653.996
5655.271
5656.6
5657.98
5659.411
5660.889
5662.412
5663.975
5665.574
5667.207
5668.872
5670.565
5672.285
5674.03
5675.798
5677.586
5679.394
5681.219
5683.059
5684.914
5686.78
5688.657
5690.543
5692.435
5694.334
5696.236
5698.14
5700.044
5701.948
5703.849
5705.746
5707.639
5709.527
5711.411
5713.291
5715.173
5717.061
5718.964
5720.894
5722.868
5724.901
5727.01
5729.202
5731.467
5733.788
5736.143
5738.516
5740.896
5743.276
5745.649
5748.011
5750.361
5752.695
5755.014
5757.315
5759.599
5761.864
5764.112
5766.34
5768.551
5770.742
5772.915
5775.068
5777.202
5779.316
5781.411
5783.486
5785.541
5787.575
5789.588
5791.58
5793.548
5795.494
5797.414
5799.307
5801.172
5803.006
5804.809
5806.586
5808.343
5810.083
5811.805
5813.507
5815.19
5816.851
5818.49
5820.107
5821.702
5823.274
5824.822
5826.347
5827.847
5829.324
5830.776
5832.204
5833.608
5834.987
5836.341
5837.671
5838.975
5840.256
5841.512
5842.743
5843.949
5845.131
5846.289
5847.422
5848.53
5849.615
5850.675
5851.711
5852.722
5853.709
5854.671
5855.607
5856.517
5857.398
5858.25
5859.069
5859.853
5860.597
5861.3
5861.959
5862.576
5863.154
5863.696
5864.204
5864.681
5865.126
5865.538
5865.918
5866.265
5866.582
5866.873
5867.142
5867.391
5867.621
5867.832
5868.024
5868.197
5868.35
5868.482
5868.594
5868.685
5868.755
5868.804
5868.832
5868.839
5868.826
5868.791
5868.737
5868.662
5868.568
5868.454
5868.32
5868.168
5867.997
5867.808
5867.601
5867.376
5867.134
5866.874
5866.598
5866.305
5865.995
5865.67
5865.329
5864.973
5864.601
5864.214
5863.812
5863.396
5862.966
5862.521
5862.061
5861.588
5861.101
5860.601
5860.086
5859.558
5859.016
5858.46
5857.89
5857.306
5856.708
5856.096
5855.468
5854.826
5854.168
5853.495
5852.804
5852.097
5851.372
5850.628
5849.865
5849.082
5848.277
5847.45
5846.6
5845.726
5844.828
5843.906
5842.961
5841.994
5841.011
5840.017
5839.022
5838.042
5837.096
5836.211
5835.415
5834.742
5834.206
5833.834
5833.529
5587.201
5509.004
5370.971
5322.725
5280.038
5243.632
5212.019
5183.756
5157.675
5133.517
5110.954
5089.642
5070.076
5052.657
5037.826
5026.086
5018.013
5014.044
5014.784
5021.34
5035.032
5057.157
5087.413
5127.913
5180.045
5244.722
5322.924
5415.21
5521.981
5642.627
5775.259
5916.432
6063.412
6212.45
6358.427
6496.786
6624.002
6737.349
6834.817
6915.276
6978.776
7026.51
7060.39
7082.541
7095.052
7099.822
7098.549
7092.76
7083.462
7071.422
7057.32
7041.907
7026.429
7011.594
6997.344
6983.634
6970.536
6958.07
6946.235
6935.009
6924.321
6914.095
6904.278
6894.81
6885.633
6876.684
6867.926
6859.319
6850.834
6842.462
6834.179
6825.942
6817.741
6809.576
6801.441
6793.329
6785.238
6777.174
6769.156
6761.19
6753.281
6745.432
6737.638
6729.883
6722.187
6714.567
6707.008
6699.496
6692.023
6684.585
6677.17
6669.772
6662.383
6654.988
6647.583
6640.171
6632.736
6625.282
6617.812