/*--------------------------------*- C++ -*----------------------------------*\
| =========                 |                                                 |
| \\      /  F ield         | foam-extend: Open Source CFD                    |
|  \\    /   O peration     | Version:     3.1                                |
|   \\  /    A nd           | Web:         http://www.extend-project.de       |
|    \\/     M anipulation  |                                                 |
\*---------------------------------------------------------------------------*/
FoamFile
{
    version     2.0;
    format      ascii;
    class       volScalarField;
    location    "2";
    object      pd;
}
// * * * * * * * * * * * * * * * * * * * * * * * * * * * * * * * * * * * * * //

dimensions      [1 -1 -2 0 0 0 0];

internalField   nonuniform List<scalar> 
119952
(
8510.047
8334.63
8290.023
8302.325
8320.12
8288.19
8271.628
8257.185
8243.818
8231.044
8218.628
8206.409
8194.291
8182.212
8170.109
8157.881
8145.393
8132.203
8117.092
8092.905
8125.349
8082.84
8059.894
8103.709
8078.727
8073.143
8063.413
8066.568
8110.002
7797.491
8594.325
8581.645
8573.943
8566.576
8559.087
8551.784
8544.309
8537.184
8530.02
8519.829
8512.647
8506.56
8499.335
8492.118
8484.883
8477.789
8470.493
8463.321
8456.227
8453.523
8442.739
8434.15
8426.836
8419.454
8412.257
8405.203
8398.048
8391.043
8384.463
8375.729
8368.619
8361.796
8354.746
8347.73
8340.717
8333.731
8327.492
8327.059
8338.277
8312.159
8300.453
8299.625
8293.881
8281.369
8267.57
8254.467
8241.762
8229.334
8217.122
8205.037
8193.019
8181.02
8168.972
8156.806
8144.435
8131.737
8118.732
8106.055
8096.93
8086.111
8073.362
8072.421
8074.615
8065.379
8057.277
8048.826
8031.684
7988.298
7972.186
7963.773
7953.565
7943.293
7932.547
7921.583
7910.485
7899.312
7888.104
7876.894
7865.704
7854.555
7843.463
7832.442
7821.504
7810.66
7799.922
7789.297
7778.796
7768.425
7758.194
7748.108
7738.176
7728.403
7718.795
7709.357
7700.096
7691.016
7682.122
7673.417
7664.905
7656.59
7648.474
7640.56
7632.851
7625.348
7618.052
7610.965
7604.087
7597.419
7590.96
7584.71
7578.666
7572.827
7567.189
7561.742
7556.47
7551.363
7546.606
7542.311
7538.002
7533.91
7529.963
7526.207
7522.647
7519.271
7516.074
7513.056
7510.215
7507.547
7505.05
7502.722
7500.558
7498.555
7496.71
7495.018
7493.478
7492.084
7490.837
7489.722
7488.703
7487.888
7487.172
7486.582
7486.109
7485.75
7485.504
7485.367
7485.335
7485.405
7485.573
7485.836
7486.191
7486.634
7487.161
7487.769
7488.455
7489.214
7490.044
7490.94
7491.899
7492.917
7493.991
7495.115
7496.282
7497.479
7498.679
7499.865
7501.461
7504.102
7504.59
7506.209
7507.844
7509.49
7511.153
7512.835
7514.538
7516.262
7518.005
7519.768
7521.547
7523.344
7525.154
7526.978
7528.811
7530.653
7532.501
7534.351
7536.201
7538.053
7539.875
7541.728
7543.567
7545.388
7547.187
7548.959
7550.693
7552.38
7553.999
7555.522
7556.904
7558.121
7558.794
7558.524
7557.124
7562.211
7566.057
7569.453
7572.515
7575.405
7578.171
7580.847
7583.451
7585.996
7588.491
7590.943
7593.355
7595.734
7598.081
7600.398
7602.689
7604.954
7607.194
7609.411
7611.605
7613.777
7615.927
7618.057
7620.165
7622.254
7624.322
7626.372
7628.402
7630.414
7632.409
7634.389
7636.364
7638.289
7640.182
7648.09
7646.473
7646.126
7647.798
7649.283
7650.884
7652.544
7654.172
7655.82
7657.464
7659.088
7660.689
7662.266
7663.819
7665.348
7666.851
7668.331
7669.786
7671.216
7672.622
7674.003
7675.36
7676.692
7678
7679.285
7680.545
7681.781
7682.993
7684.181
7685.346
7686.488
7687.607
7688.704
7689.779
7690.834
7691.868
7692.884
7693.884
7694.87
7695.846
7696.818
7697.797
7698.802
7699.866
7700.999
7701.992
7702.468
7702.745
7703.142
7703.563
7703.996
7704.443
7704.889
7705.205
7703.712
7704.917
7705.638
7705.932
7706.206
7706.46
7706.707
7706.933
7707.145
7707.339
7707.512
7707.662
7707.79
7707.895
7707.977
7708.037
7708.075
7708.092
7708.087
7708.062
7708.016
7707.95
7707.864
7707.759
7707.634
7707.491
7707.328
7707.148
7706.949
7706.732
7706.498
7706.247
7705.978
7705.693
7705.391
7705.073
7704.739
7704.389
7704.023
7703.642
7703.245
7702.833
7702.407
7701.965
7701.509
7701.037
7700.551
7700.051
7699.535
7699.005
7698.46
7697.9
7697.324
7696.733
7696.126
7695.502
7694.862
7694.204
7693.527
7692.831
7692.115
7691.377
7690.616
7689.829
7689.016
7688.173
7687.297
7686.385
7685.432
7684.433
7683.38
7682.264
7681.076
7679.799
7678.412
7676.889
7675.191
7673.255
7670.974
7668.181
7664.585
7659.779
7654.213
7654.708
7680.579
8869.7
8862.967
8854.781
8846.439
8839.098
8831.246
8823.727
8816.73
8809.156
8797.049
8792.609
8785.691
8778.339
8771.097
8763.896
8756.772
8749.612
8742.096
8736.636
8730.361
8720.046
8711.757
8704.003
8696.325
8688.753
8681.21
8673.582
8666.442
8658.14
8649.154
8641.943
8634.409
8626.745
8619.193
8611.713
8604.235
8596.956
8590.245
8580.155
8572.541
8565.67
8558.465
8551.243
8544.071
8536.831
8529.646
8522.081
8514.687
8507.612
8500.274
8492.853
8485.507
8478.263
8471.053
8463.924
8456.896
8447.808
8440.748
8433.345
8425.973
8418.718
8411.546
8404.403
8397.28
8390.128
8382.97
8375.916
8368.693
8361.453
8354.338
8347.397
8340.704
8334.485
8329.082
8324.499
8319.424
8310.336
8300.325
8292.289
8284.041
8273.839
8262.019
8249.848
8237.809
8225.886
8214.017
8202.181
8190.36
8178.529
8166.66
8154.731
8142.738
8130.742
8118.914
8107.598
8097.142
8087.414
8078.559
8071.613
8065.391
8056.873
8046.013
8032.512
8016.039
7995.671
7978.173
7965.425
7954.109
7942.852
7931.525
7920.198
7908.878
7897.559
7886.25
7874.967
7863.724
7852.537
7841.417
7830.376
7819.424
7808.572
7797.829
7787.205
7776.706
7766.342
7756.119
7746.045
7736.125
7726.368
7716.777
7707.359
7698.119
7689.062
7680.191
7671.512
7663.026
7654.739
7646.652
7638.768
7631.089
7623.616
7616.353
7609.298
7602.453
7595.819
7589.394
7583.179
7577.172
7571.372
7565.777
7560.386
7555.205
7550.252
7545.551
7541.132
7536.845
7532.736
7528.827
7525.112
7521.585
7518.242
7515.081
7512.099
7509.294
7506.662
7504.201
7501.908
7499.778
7497.808
7495.996
7494.338
7492.829
7491.466
7490.245
7489.159
7488.208
7487.393
7486.704
7486.138
7485.691
7485.359
7485.139
7485.028
7485.021
7485.115
7485.307
7485.594
7485.971
7486.437
7486.987
7487.616
7488.323
7489.103
7489.953
7490.869
7491.846
7492.884
7493.979
7495.125
7496.32
7497.558
7498.853
7500.201
7501.692
7503.173
7504.449
7506.029
7507.632
7509.261
7510.914
7512.593
7514.296
7516.023
7517.771
7519.539
7521.324
7523.126
7524.941
7526.768
7528.605
7530.45
7532.299
7534.151
7536.006
7537.861
7539.712
7541.556
7543.388
7545.205
7547.001
7548.769
7550.501
7552.186
7553.808
7555.344
7556.761
7558.01
7559.032
7559.934
7561.254
7563.962
7567.141
7570.163
7573.07
7575.865
7578.568
7581.197
7583.764
7586.279
7588.748
7591.178
7593.573
7595.936
7598.269
7600.576
7602.856
7605.112
7607.344
7609.554
7611.742
7613.908
7616.054
7618.178
7620.282
7622.367
7624.431
7626.476
7628.503
7630.512
7632.504
7634.484
7636.458
7638.447
7640.556
7643.152
7645.16
7646.491
7647.831
7649.407
7651.085
7652.766
7654.429
7656.077
7657.709
7659.323
7660.915
7662.484
7664.03
7665.552
7667.05
7668.524
7669.973
7671.398
7672.798
7674.174
7675.526
7676.853
7678.156
7679.435
7680.69
7681.921
7683.128
7684.312
7685.472
7686.609
7687.723
7688.815
7689.886
7690.935
7691.965
7692.976
7693.97
7694.948
7695.915
7696.873
7697.827
7698.778
7699.717
7700.608
7701.383
7701.98
7702.463
7702.928
7703.395
7703.859
7704.321
7704.787
7705.213
7705.366
7705.472
7705.738
7706.018
7706.261
7706.487
7706.709
7706.923
7707.123
7707.306
7707.469
7707.612
7707.732
7707.83
7707.906
7707.96
7707.991
7708.002
7707.991
7707.96
7707.908
7707.837
7707.745
7707.634
7707.504
7707.355
7707.188
7707.002
7706.799
7706.577
7706.338
7706.082
7705.809
7705.519
7705.213
7704.891
7704.553
7704.199
7703.829
7703.444
7703.044
7702.629
7702.199
7701.754
7701.294
7700.82
7700.331
7699.827
7699.309
7698.776
7698.228
7697.665
7697.087
7696.493
7695.883
7695.256
7694.613
7693.952
7693.272
7692.573
7691.853
7691.112
7690.347
7689.557
7688.74
7687.893
7687.013
7686.096
7685.139
7684.135
7683.079
7681.962
7680.774
7679.502
7678.13
7676.637
7674.996
7673.172
7671.132
7668.856
7666.467
7664.297
7663.457
7664.309
7667.783
9109.312
9195.921
9261.071
9309.567
9341.731
9359.594
9365.464
9361.793
9350.331
9332.087
9307.271
9285.095
9260.089
9235.07
9210.211
9185.932
9162.516
9140.083
9120.1
9098.499
9079.105
9060.135
9043.691
9028.35
9014.049
9000.693
8988.151
8976.34
8966.048
8953.39
8942.902
8933.111
8923.387
8914.056
8904.966
8896.102
8887.518
8879.83
8870.206
8860.495
8852.884
8845.115
8837.417
8829.774
8822.202
8814.744
8807.444
8799.728
8792.208
8784.969
8777.512
8770.093
8762.781
8755.544
8748.405
8741.532
8731.487
8724.003
8716.834
8709.433
8701.846
8694.268
8686.747
8679.239
8671.701
8664.113
8656.61
8649.013
8641.237
8633.473
8625.819
8618.257
8610.751
8603.283
8595.825
8588.389
8580.833
8573.072
8565.457
8558.025
8550.671
8543.343
8536.024
8528.695
8521.376
8514.07
8506.691
8499.326
8492.013
8484.74
8477.502
8470.299
8463.107
8456.015
8449.105
8441.77
8434.237
8426.892
8419.713
8412.594
8405.483
8398.36
8391.243
8384.112
8376.942
8369.749
8362.61
8355.566
8348.645
8341.898
8335.361
8329.075
8322.902
8316.67
8308.487
8299.177
8290.376
8281.467
8271.387
8260.289
8248.789
8237.239
8225.685
8214.109
8202.514
8190.903
8179.271
8167.613
8155.936
8144.267
8132.673
8121.272
8110.221
8099.74
8089.829
8080.338
8071.615
8063.11
8053.338
8041.802
8028.648
8013.651
7997.07
7981.563
7968.548
7956.557
7944.833
7933.198
7921.643
7910.153
7898.705
7887.296
7875.932
7864.623
7853.377
7842.205
7831.116
7820.12
7809.227
7798.444
7787.781
7777.245
7766.844
7756.586
7746.477
7736.524
7726.733
7717.11
7707.661
7698.39
7689.302
7680.402
7671.694
7663.18
7654.865
7646.751
7638.841
7631.137
7623.64
7616.352
7609.275
7602.408
7595.752
7589.307
7583.074
7577.051
7571.238
7565.635
7560.243
7555.067
7550.112
7545.385
7540.893
7536.592
7532.476
7528.553
7524.822
7521.279
7517.921
7514.747
7511.752
7508.935
7506.292
7503.821
7501.517
7499.378
7497.399
7495.578
7493.911
7492.394
7491.023
7489.795
7488.704
7487.749
7486.926
7486.231
7485.66
7485.209
7484.873
7484.65
7484.535
7484.525
7484.617
7484.805
7485.089
7485.466
7485.931
7486.48
7487.109
7487.816
7488.596
7489.447
7490.364
7491.341
7492.382
7493.482
7494.637
7495.846
7497.106
7498.424
7499.803
7501.263
7502.882
7504.464
7506.031
7507.629
7509.262
7510.923
7512.609
7514.32
7516.054
7517.809
7519.584
7521.376
7523.185
7525.007
7526.84
7528.683
7530.533
7532.389
7534.248
7536.108
7537.968
7539.823
7541.671
7543.509
7545.332
7547.135
7548.914
7550.662
7552.368
7554.022
7555.62
7557.156
7558.635
7560.111
7561.714
7563.62
7565.983
7568.648
7571.378
7574.076
7576.727
7579.329
7581.886
7584.399
7586.872
7589.309
7591.713
7594.086
7596.431
7598.749
7601.043
7603.312
7605.558
7607.781
7609.983
7612.163
7614.323
7616.462
7618.58
7620.678
7622.757
7624.816
7626.855
7628.875
7630.877
7632.862
7634.83
7636.785
7638.719
7640.651
7642.411
7643.922
7645.522
7647.264
7649.049
7650.813
7652.538
7654.23
7655.897
7657.542
7659.164
7660.763
7662.337
7663.886
7665.411
7666.911
7668.387
7669.838
7671.265
7672.667
7674.044
7675.397
7676.725
7678.029
7679.309
7680.564
7681.796
7683.003
7684.187
7685.347
7686.484
7687.598
7688.69
7689.76
7690.808
7691.836
7692.844
7693.833
7694.805
7695.76
7696.7
7697.624
7698.527
7699.399
7700.22
7700.962
7701.596
7702.14
7702.644
7703.135
7703.61
7704.07
7704.496
7704.895
7705.286
7705.569
7705.789
7705.994
7706.199
7706.407
7706.617
7706.821
7707.015
7707.193
7707.354
7707.495
7707.615
7707.714
7707.791
7707.846
7707.879
7707.891
7707.882
7707.852
7707.801
7707.731
7707.64
7707.53
7707.4
7707.252
7707.085
7706.9
7706.697
7706.475
7706.237
7705.981
7705.708
7705.419
7705.113
7704.791
7704.453
7704.1
7703.731
7703.346
7702.946
7702.532
7702.102
7701.658
7701.199
7700.726
7700.238
7699.735
7699.218
7698.686
7698.139
7697.578
7697.001
7696.408
7695.8
7695.176
7694.534
7693.875
7693.198
7692.502
7691.785
7691.047
7690.286
7689.501
7688.688
7687.847
7686.974
7686.066
7685.119
7684.129
7683.09
7681.995
7680.837
7679.607
7678.294
7676.888
7675.378
7673.758
7672.044
7670.283
7668.611
7667.239
7666.504
7666.801
7667.937
7511.213
7618.108
7732.198
7866.913
8005.251
8160.437
8306.812
8451.131
8592.631
8723.086
8847.648
8964.448
9063.624
9145.954
9210.664
9258.784
9291.438
9310.465
9318.032
9316.549
9308.161
9294.665
9277.434
9257.546
9235.772
9213.288
9190.707
9168.504
9147.06
9126.759
9108.46
9081.48
9065.032
9049.813
9034.757
9020.426
9007.067
8994.559
8982.746
8971.491
8960.689
8950.39
8940.283
8930.42
8920.896
8911.699
8902.77
8894.052
8885.517
8877.094
8868.736
8860.269
8851.904
8843.812
8835.914
8828.144
8820.477
8812.894
8805.367
8797.899
8790.404
8782.905
8775.477
8768.119
8760.814
8753.545
8746.264
8738.969
8731.495
8724.112
8716.662
8709.089
8701.55
8694.088
8686.672
8679.261
8671.829
8664.391
8656.903
8649.303
8641.686
8634.115
8626.588
8619.094
8611.623
8604.165
8596.715
8589.262
8581.7
8574.08
8566.57
8559.178
8551.831
8544.497
8537.169
8529.85
8522.522
8515.188
8507.869
8500.564
8493.274
8486.008
8478.768
8471.556
8464.377
8457.228
8450.036
8442.669
8435.282
8427.999
8420.799
8413.63
8406.464
8399.296
8392.129
8384.946
8377.754
8370.574
8363.424
8356.321
8349.285
8342.331
8335.453
8328.641
8321.757
8314.597
8306.458
8297.519
8288.498
8279.272
8269.334
8258.712
8247.707
8236.541
8225.288
8213.965
8202.588
8191.172
8179.725
8168.257
8156.785
8145.342
8133.979
8122.776
8111.827
8101.23
8090.976
8080.976
8071.229
8061.393
8050.746
8038.953
8026.039
8012.016
7997.342
7983.319
7970.346
7958.021
7946.011
7934.168
7922.445
7910.813
7899.251
7887.749
7876.307
7864.93
7853.625
7842.4
7831.262
7820.221
7809.284
7798.461
7787.758
7777.185
7766.749
7756.457
7746.315
7736.331
7726.51
7716.858
7707.381
7698.084
7688.971
7680.048
7671.317
7662.783
7654.448
7646.316
7638.388
7630.668
7623.157
7615.856
7608.767
7601.89
7595.225
7588.773
7582.534
7576.508
7570.694
7565.093
7559.706
7554.535
7549.582
7544.848
7540.334
7536.022
7531.902
7527.976
7524.243
7520.699
7517.342
7514.168
7511.176
7508.361
7505.721
7503.252
7500.951
7498.815
7496.84
7495.022
7493.359
7491.845
7490.478
7489.254
7488.169
7487.218
7486.4
7485.71
7485.143
7484.697
7484.366
7484.149
7484.04
7484.035
7484.131
7484.324
7484.61
7484.995
7485.467
7486.021
7486.656
7487.368
7488.153
7489.009
7489.931
7490.908
7491.965
7493.079
7494.249
7495.474
7496.753
7498.088
7499.482
7500.936
7502.448
7503.979
7505.546
7507.153
7508.791
7510.455
7512.145
7513.858
7515.594
7517.351
7519.128
7520.923
7522.733
7524.558
7526.394
7528.241
7530.096
7531.956
7533.821
7535.687
7537.552
7539.415
7541.271
7543.118
7544.952
7546.77
7548.568
7550.342
7552.091
7553.814
7555.505
7557.172
7558.837
7560.546
7562.366
7564.387
7566.677
7569.173
7571.746
7574.32
7576.876
7579.408
7581.91
7584.383
7586.826
7589.239
7591.625
7593.984
7596.318
7598.628
7600.914
7603.178
7605.42
7607.641
7609.84
7612.019
7614.177
7616.315
7618.432
7620.53
7622.608
7624.666
7626.704
7628.723
7630.722
7632.702
7634.66
7636.596
7638.497
7640.362
7642.146
7643.861
7645.594
7647.339
7649.077
7650.799
7652.501
7654.183
7655.845
7657.487
7659.107
7660.703
7662.277
7663.826
7665.352
7666.854
7668.331
7669.784
7671.212
7672.615
7673.994
7675.349
7676.679
7677.984
7679.265
7680.522
7681.755
7682.963
7684.147
7685.308
7686.445
7687.559
7688.651
7689.719
7690.766
7691.791
7692.795
7693.778
7694.741
7695.684
7696.606
7697.505
7698.375
7699.209
7699.994
7700.716
7701.362
7701.94
7702.476
7702.986
7703.471
7703.932
7704.364
7704.775
7705.155
7705.453
7705.697
7705.928
7706.159
7706.385
7706.603
7706.81
7707.004
7707.181
7707.339
7707.479
7707.597
7707.695
7707.771
7707.826
7707.86
7707.872
7707.863
7707.833
7707.783
7707.713
7707.623
7707.513
7707.384
7707.236
7707.069
7706.884
7706.681
7706.46
7706.222
7705.966
7705.694
7705.404
7705.099
7704.777
7704.439
7704.086
7703.717
7703.332
7702.933
7702.519
7702.09
7701.646
7701.188
7700.715
7700.228
7699.726
7699.21
7698.679
7698.134
7697.573
7696.998
7696.408
7695.802
7695.18
7694.541
7693.886
7693.212
7692.52
7691.808
7691.076
7690.321
7689.543
7688.74
7687.909
7687.049
7686.156
7685.227
7684.259
7683.247
7682.188
7681.076
7679.906
7678.673
7677.375
7676.014
7674.599
7673.16
7671.749
7670.461
7669.42
7668.784
7668.692
7668.91
7111.95
7107.492
7108.821
7116.04
7128.755
7151.904
7182.601
7223.11
7273.597
7335.941
7411.56
7496.162
7596.355
7708.009
7829.669
7960.923
8131.768
8279.586
8428.05
8571.425
8708.24
8837.743
8955.445
9057.147
9139.56
9202.659
9248.059
9277.797
9294.105
9299.255
9295.485
9285.078
9270.249
9252.546
9232.761
9212.175
9191.588
9170.87
9150.24
9130.228
9111.007
9092.62
9074.68
9058.621
9043.847
9029.657
9016.193
9003.568
8991.685
8980.398
8969.612
8959.261
8949.22
8939.415
8929.9
8920.666
8911.673
8902.881
8894.247
8885.739
8877.349
8868.991
8860.593
8852.322
8844.254
8836.336
8828.52
8820.787
8813.138
8805.556
8798.006
8790.471
8782.979
8775.536
8768.139
8760.786
8753.468
8746.134
8738.806
8731.472
8724.059
8716.594
8709.124
8701.692
8694.293
8686.903
8679.506
8672.091
8664.653
8657.168
8649.649
8642.133
8634.629
8627.135
8619.655
8612.189
8604.731
8597.274
8589.803
8582.3
8574.793
8567.336
8559.936
8552.568
8545.218
8537.879
8530.551
8523.224
8515.908
8508.605
8501.308
8494.02
8486.747
8479.496
8472.261
8465.036
8457.8
8450.54
8443.241
8435.935
8428.661
8421.423
8414.204
8406.991
8399.777
8392.559
8385.334
8378.103
8370.873
8363.651
8356.445
8349.263
8342.101
8334.939
8327.734
8320.369
8312.692
8304.446
8295.713
8286.657
8277.286
8267.44
8257.111
8246.44
8235.564
8224.554
8213.442
8202.251
8191.001
8179.706
8168.384
8157.055
8145.747
8134.502
8123.371
8112.408
8101.65
8091.087
8080.647
8070.243
8059.661
8048.546
8036.687
8024.076
8010.828
7997.226
7983.828
7970.93
7958.483
7946.324
7934.343
7922.491
7910.742
7899.078
7887.488
7875.97
7864.527
7853.163
7841.885
7830.699
7819.614
7808.637
7797.776
7787.039
7776.433
7765.966
7755.645
7745.477
7735.468
7725.625
7715.952
7706.456
7697.142
7688.014
7679.077
7670.334
7661.79
7653.446
7645.307
7637.375
7629.651
7622.138
7614.837
7607.749
7600.874
7594.214
7587.768
7581.537
7575.521
7569.719
7564.131
7558.759
7553.601
7548.66
7543.934
7539.422
7535.114
7531.004
7527.089
7523.368
7519.838
7516.495
7513.337
7510.36
7507.562
7504.938
7502.486
7500.202
7498.083
7496.125
7494.325
7492.678
7491.182
7489.832
7488.624
7487.556
7486.622
7485.82
7485.146
7484.595
7484.164
7483.85
7483.649
7483.556
7483.565
7483.676
7483.882
7484.169
7484.582
7485.069
7485.638
7486.286
7487.012
7487.812
7488.683
7489.624
7490.64
7491.701
7492.822
7494.002
7495.239
7496.531
7497.877
7499.279
7500.734
7502.237
7503.781
7505.361
7506.974
7508.618
7510.289
7511.987
7513.708
7515.453
7517.219
7519.004
7520.806
7522.624
7524.455
7526.299
7528.152
7530.014
7531.883
7533.755
7535.63
7537.505
7539.378
7541.247
7543.108
7544.96
7546.8
7548.626
7550.436
7552.229
7554.006
7555.77
7557.533
7559.315
7561.148
7563.075
7565.145
7567.387
7569.769
7572.223
7574.701
7577.181
7579.653
7582.109
7584.545
7586.96
7589.351
7591.72
7594.066
7596.389
7598.691
7600.971
7603.23
7605.468
7607.685
7609.883
7612.06
7614.217
7616.354
7618.471
7620.568
7622.645
7624.702
7626.739
7628.756
7630.752
7632.726
7634.678
7636.604
7638.5
7640.365
7642.187
7643.967
7645.719
7647.457
7649.183
7650.898
7652.597
7654.277
7655.938
7657.578
7659.196
7660.791
7662.363
7663.912
7665.438
7666.939
7668.416
7669.869
7671.297
7672.701
7674.08
7675.434
7676.764
7678.07
7679.351
7680.608
7681.84
7683.048
7684.232
7685.392
7686.528
7687.641
7688.73
7689.797
7690.84
7691.861
7692.859
7693.835
7694.789
7695.719
7696.625
7697.504
7698.352
7699.163
7699.929
7700.641
7701.294
7701.893
7702.45
7702.974
7703.468
7703.934
7704.371
7704.776
7705.142
7705.458
7705.738
7706
7706.25
7706.487
7706.71
7706.918
7707.11
7707.285
7707.441
7707.577
7707.693
7707.789
7707.863
7707.916
7707.948
7707.958
7707.948
7707.917
7707.866
7707.795
7707.704
7707.593
7707.463
7707.314
7707.147
7706.961
7706.757
7706.535
7706.295
7706.039
7705.765
7705.475
7705.169
7704.846
7704.508
7704.154
7703.784
7703.399
7702.999
7702.585
7702.155
7701.711
7701.253
7700.78
7700.293
7699.792
7699.276
7698.746
7698.202
7697.643
7697.07
7696.481
7695.877
7695.258
7694.623
7693.971
7693.302
7692.615
7691.91
7691.185
7690.439
7689.671
7688.879
7688.062
7687.218
7686.345
7685.44
7684.501
7683.525
7682.51
7681.452
7680.351
7679.205
7678.018
7676.796
7675.556
7674.325
7673.146
7672.083
7671.212
7670.61
7670.318
7670.184
7350.194
7311.27
7279.498
7248.102
7221.818
7195.156
7173.793
7154.828
7138.7
7125.491
7115.735
7110.239
7109.753
7114.584
7124.998
7150.195
7179.542
7217.656
7266.063
7325.819
7397.202
7480.653
7578.378
7689.07
7811.127
7943.556
8081.873
8229.67
8380.638
8526.895
8667.03
8798.233
8916.906
9019.336
9102.966
9167.506
9214.373
9245.69
9263.758
9270.906
9269.327
9261.165
9248.326
9231.996
9213.277
9193.648
9174.02
9154.549
9135.379
9116.828
9099.007
9082.068
9066.08
9051.227
9037.35
9024.173
9011.647
8999.792
8988.549
8977.818
8967.518
8957.569
8947.898
8938.476
8929.292
8920.318
8911.523
8902.876
8894.353
8885.928
8877.586
8869.29
8861.038
8852.885
8844.854
8836.93
8829.091
8821.331
8813.665
8806.068
8798.497
8790.955
8783.452
8775.987
8768.558
8761.163
8753.799
8746.425
8739.061
8731.696
8724.287
8716.856
8709.426
8702.002
8694.581
8687.156
8679.722
8672.273
8664.805
8657.315
8649.812
8642.302
8634.792
8627.289
8619.796
8612.314
8604.839
8597.366
8589.891
8582.411
8574.935
8567.482
8560.064
8552.675
8545.306
8537.951
8530.609
8523.275
8515.953
8508.64
8501.337
8494.045
8486.767
8479.506
8472.258
8465.016
8457.771
8450.52
8443.253
8435.976
8428.708
8421.457
8414.217
8406.98
8399.739
8392.491
8385.232
8377.962
8370.68
8363.39
8356.091
8348.78
8341.443
8334.054
8326.568
8318.906
8310.988
8302.673
8293.949
8284.885
8275.505
8265.759
8255.64
8245.217
8234.576
8223.776
8212.851
8201.828
8190.727
8179.567
8168.367
8157.147
8145.931
8134.75
8123.636
8112.618
8101.708
8090.891
8080.107
8069.274
8058.257
8046.871
8034.986
8022.597
8009.794
7996.747
7983.741
7970.995
7958.541
7946.309
7934.233
7922.282
7910.434
7898.677
7887.003
7875.409
7863.897
7852.47
7841.134
7829.896
7818.762
7807.739
7796.836
7786.059
7775.417
7764.916
7754.564
7744.366
7734.33
7724.462
7714.767
7705.251
7695.919
7686.775
7677.824
7669.069
7660.515
7652.164
7644.019
7636.082
7628.357
7620.844
7613.544
7606.459
7599.59
7592.937
7586.501
7580.28
7574.276
7568.488
7562.916
7557.56
7552.419
7547.492
7542.78
7538.278
7533.982
7529.886
7525.988
7522.285
7518.773
7515.449
7512.311
7509.355
7506.578
7503.976
7501.545
7499.284
7497.187
7495.252
7493.474
7491.85
7490.376
7489.048
7487.863
7486.816
7485.905
7485.124
7484.471
7483.942
7483.532
7483.238
7483.058
7482.991
7483.016
7483.148
7483.381
7483.722
7484.119
7484.617
7485.2
7485.865
7486.608
7487.425
7488.313
7489.27
7490.295
7491.379
7492.521
7493.721
7494.977
7496.287
7497.65
7499.065
7500.53
7502.042
7503.595
7505.184
7506.806
7508.459
7510.14
7511.848
7513.58
7515.336
7517.112
7518.908
7520.721
7522.549
7524.391
7526.245
7528.109
7529.982
7531.861
7533.745
7535.633
7537.521
7539.409
7541.294
7543.174
7545.048
7546.914
7548.77
7550.618
7552.456
7554.288
7556.119
7557.96
7559.827
7561.742
7563.733
7565.825
7568.033
7570.342
7572.715
7575.122
7577.542
7579.964
7582.379
7584.782
7587.17
7589.54
7591.891
7594.223
7596.536
7598.828
7601.101
7603.355
7605.588
7607.802
7609.997
7612.171
7614.327
7616.462
7618.578
7620.674
7622.75
7624.806
7626.841
7628.856
7630.849
7632.82
7634.768
7636.69
7638.584
7640.449
7642.279
7644.072
7645.836
7647.582
7649.315
7651.034
7652.735
7654.416
7656.077
7657.716
7659.334
7660.929
7662.501
7664.049
7665.574
7667.075
7668.551
7670.004
7671.432
7672.835
7674.214
7675.568
7676.898
7678.203
7679.484
7680.74
7681.972
7683.179
7684.362
7685.521
7686.655
7687.766
7688.853
7689.916
7690.956
7691.972
7692.964
7693.933
7694.877
7695.797
7696.689
7697.553
7698.384
7699.179
7699.933
7700.639
7701.297
7701.908
7702.477
7703.011
7703.514
7703.985
7704.425
7704.831
7705.203
7705.538
7705.841
7706.12
7706.381
7706.624
7706.85
7707.059
7707.25
7707.424
7707.578
7707.712
7707.826
7707.919
7707.991
7708.041
7708.071
7708.08
7708.068
7708.036
7707.983
7707.91
7707.817
7707.705
7707.574
7707.423
7707.254
7707.066
7706.861
7706.638
7706.397
7706.139
7705.864
7705.573
7705.265
7704.941
7704.601
7704.246
7703.876
7703.49
7703.089
7702.674
7702.244
7701.799
7701.341
7700.868
7700.381
7699.88
7699.364
7698.835
7698.292
7697.735
7697.163
7696.576
7695.975
7695.359
7694.728
7694.081
7693.417
7692.736
7692.038
7691.321
7690.585
7689.829
7689.051
7688.25
7687.425
7686.574
7685.696
7684.789
7683.851
7682.882
7681.881
7680.849
7679.787
7678.702
7677.602
7676.505
7675.433
7674.421
7673.511
7672.753
7672.18
7671.82
7671.558
7626.767
7579.245
7510.876
7445.493
7390.263
7346.118
7308.749
7276.567
7248.421
7221.819
7195.122
7173.762
7154.639
7138.158
7124.633
7114.59
7108.495
7106.836
7110.349
7120.111
7135.928
7161.274
7195.039
7238.634
7293.064
7359.855
7439.516
7532.973
7640.959
7762.987
7897.102
8038.249
8186.208
8336.896
8484.612
8625.428
8756.041
8873.3
8974.354
9057.33
9121.988
9169.595
9202.231
9222.182
9231.729
9232.962
9227.835
9218.048
9204.829
9189.435
9172.393
9154.091
9135.831
9118.324
9101.559
9085.512
9070.293
9055.9
9042.34
9029.577
9017.486
9005.978
8995.016
8984.547
8974.495
8964.788
8955.364
8946.173
8937.181
8928.363
8919.697
8911.153
8902.709
8894.349
8886.057
8877.821
8869.641
8861.527
8853.478
8845.492
8837.58
8829.74
8821.961
8814.243
8806.587
8798.981
8791.417
8783.896
8776.415
8768.97
8761.548
8754.141
8746.744
8739.353
8731.946
8724.55
8717.129
8709.691
8702.243
8694.787
8687.323
8679.848
8672.36
8664.857
8657.341
8649.813
8642.279
8634.745
8627.218
8619.701
8612.194
8604.695
8597.204
8589.718
8582.237
8574.765
8567.312
8559.887
8552.487
8545.109
8537.748
8530.402
8523.068
8515.747
8508.438
8501.141
8493.857
8486.586
8479.33
8472.084
8464.845
8457.606
8450.364
8443.113
8435.853
8428.595
8421.344
8414.096
8406.845
8399.586
8392.315
8385.027
8377.721
8370.393
8363.041
8355.66
8348.242
8340.769
8333.214
8325.537
8317.683
8309.592
8301.191
8292.454
8283.405
8274.06
8264.404
8254.438
8244.201
8233.749
8223.126
8212.364
8201.488
8190.519
8179.477
8168.38
8157.246
8146.096
8134.95
8123.83
8112.748
8101.709
8090.693
8079.655
8068.533
8057.239
8045.669
8033.752
8021.484
8008.929
7996.2
7983.463
7970.857
7958.428
7946.158
7934.016
7921.985
7910.054
7898.212
7886.457
7874.786
7863.201
7851.706
7840.306
7829.008
7817.817
7806.742
7795.789
7784.966
7774.279
7763.738
7753.347
7743.114
7733.045
7723.146
7713.423
7703.882
7694.527
7685.362
7676.393
7667.623
7659.055
7650.694
7642.54
7634.598
7626.868
7619.353
7612.054
7604.972
7598.107
7591.461
7585.033
7578.823
7572.831
7567.057
7561.5
7556.159
7551.034
7546.124
7541.427
7536.94
7532.66
7528.582
7524.702
7521.018
7517.527
7514.225
7511.11
7508.176
7505.423
7502.845
7500.439
7498.203
7496.131
7494.221
7492.468
7490.869
7489.421
7488.119
7486.959
7485.937
7485.051
7484.295
7483.666
7483.161
7482.775
7482.504
7482.344
7482.287
7482.349
7482.507
7482.762
7483.112
7483.544
7484.065
7484.67
7485.356
7486.119
7486.956
7487.864
7488.841
7489.884
7490.988
7492.151
7493.371
7494.646
7495.975
7497.356
7498.786
7500.264
7501.787
7503.35
7504.949
7506.582
7508.247
7509.94
7511.66
7513.405
7515.173
7516.961
7518.769
7520.594
7522.434
7524.289
7526.155
7528.032
7529.918
7531.81
7533.709
7535.611
7537.515
7539.419
7541.323
7543.224
7545.121
7547.014
7548.902
7550.786
7552.666
7554.548
7556.436
7558.339
7560.269
7562.242
7564.276
7566.385
7568.577
7570.842
7573.163
7575.518
7577.891
7580.271
7582.651
7585.024
7587.386
7589.736
7592.07
7594.389
7596.69
7598.974
7601.239
7603.487
7605.715
7607.926
7610.117
7612.29
7614.443
7616.577
7618.691
7620.786
7622.861
7624.916
7626.95
7628.963
7630.955
7632.923
7634.869
7636.789
7638.682
7640.547
7642.381
7644.184
7645.961
7647.718
7649.458
7651.18
7652.882
7654.565
7656.226
7657.865
7659.482
7661.077
7662.649
7664.197
7665.722
7667.222
7668.699
7670.151
7671.579
7672.983
7674.362
7675.716
7677.045
7678.35
7679.631
7680.886
7682.118
7683.324
7684.506
7685.664
7686.797
7687.905
7688.99
7690.05
7691.086
7692.097
7693.084
7694.046
7694.982
7695.892
7696.773
7697.625
7698.444
7699.228
7699.972
7700.675
7701.334
7701.951
7702.529
7703.071
7703.579
7704.056
7704.5
7704.913
7705.293
7705.64
7705.957
7706.248
7706.517
7706.766
7706.996
7707.207
7707.399
7707.572
7707.725
7707.857
7707.969
7708.06
7708.13
7708.179
7708.207
7708.214
7708.201
7708.166
7708.112
7708.037
7707.943
7707.829
7707.695
7707.543
7707.372
7707.183
7706.976
7706.751
7706.509
7706.249
7705.973
7705.68
7705.37
7705.045
7704.704
7704.348
7703.976
7703.589
7703.187
7702.771
7702.341
7701.896
7701.436
7700.963
7700.476
7699.976
7699.461
7698.933
7698.391
7697.835
7697.265
7696.681
7696.083
7695.471
7694.843
7694.201
7693.543
7692.87
7692.179
7691.472
7690.747
7690.003
7689.24
7688.457
7687.652
7686.825
7685.975
7685.101
7684.203
7683.281
7682.336
7681.369
7680.386
7679.392
7678.397
7677.417
7676.471
7675.586
7674.79
7674.117
7673.581
7673.209
7672.904
7579.855
7532.317
7455.596
7407.35
7364.663
7328.257
7296.644
7268.381
7242.3
7218.142
7195.579
7174.267
7154.701
7137.282
7122.451
7110.711
7102.638
7098.669
7099.409
7105.965
7119.657
7141.782
7172.038
7212.538
7264.67
7329.347
7407.549
7499.835
7606.606
7727.252
7859.884
8001.057
8148.037
8297.075
8443.052
8581.411
8708.627
8821.974
8919.442
8999.901
9063.401
9111.135
9145.015
9167.166
9179.677
9184.447
9183.174
9177.385
9168.087
9156.047
9141.945
9126.532
9111.054
9096.219
9081.969
9068.259
9055.161
9042.695
9030.86
9019.634
9008.946
8998.72
8988.903
8979.435
8970.258
8961.309
8952.551
8943.944
8935.459
8927.087
8918.804
8910.567
8902.366
8894.201
8886.066
8877.954
8869.863
8861.8
8853.781
8845.815
8837.906
8830.057
8822.263
8814.508
8806.812
8799.193
8791.633
8784.121
8776.648
8769.21
8761.795
8754.397
8747.008
8739.613
8732.208