/*--------------------------------*- C++ -*----------------------------------*\
| =========                 |                                                 |
| \\      /  F ield         | foam-extend: Open Source CFD                    |
|  \\    /   O peration     | Version:     3.1                                |
|   \\  /    A nd           | Web:         http://www.extend-project.de       |
|    \\/     M anipulation  |                                                 |
\*---------------------------------------------------------------------------*/
FoamFile
{
    version     2.0;
    format      ascii;
    class       volScalarField;
    location    "9.5";
    object      omega;
}
// * * * * * * * * * * * * * * * * * * * * * * * * * * * * * * * * * * * * * //

dimensions      [0 0 -1 0 0 0 0];

internalField   nonuniform List<scalar> 
119952
(
308.7766
383.8181
357.5938
308.4398
274.412
274.0332
276.8219
281.4509
287.3769
294.3154
302.1126
310.6945
320.041
330.0749
340.8347
352.4526
365.0832
378.9126
394.2503
412.2371
351.6102
355.9603
365.1632
311.2687
310.4102
312.5194
314.925
316.9195
315.9241
161.7511
688.6126
566.5969
478.0579
417.337
373.6181
340.6502
314.5619
293.2368
275.2733
254.463
207.1949
175.5252
154.4678
139.5402
128.3476
119.5797
112.475
106.5856
101.598
79.3694
76.28057
73.38002
70.71555
68.34754
66.27499
64.48482
62.9248
61.56202
60.38292
59.42675
58.51591
57.64934
56.8354
56.06331
55.30331
54.51362
53.64237
52.66435
52.6579
52.59965
51.61915
50.70779
49.89364
49.24073
48.477
47.61012
46.67737
45.70304
44.70976
43.71577
42.73072
41.75758
40.80167
39.88296
39.00183
38.14902
37.30692
36.45411
35.60111
34.78933
33.91993
33.03371
32.36886
31.84933
31.44334
31.27848
32.17615
34.41095
34.59023
34.59857
34.53808
34.4701
34.4389
34.46788
34.57155
34.76733
35.10406
35.60372
36.18396
36.81596
37.47734
38.1545
38.85341
39.60285
40.44977
41.44732
42.64636
44.10214
45.90336
48.22117
51.41276
56.2335
63.80334
73.68978
82.66256
88.55935
92.20028
93.76739
93.06471
90.33156
86.22586
81.53576
76.91687
72.85222
69.65309
67.77718
68.26492
71.08879
74.44022
78.99453
83.95082
86.8437
86.39646
81.86606
74.22508
66.09851
58.79085
52.906
48.21564
44.53992
41.76618
39.7109
38.10155
36.71551
35.44961
34.27852
33.18247
32.14621
31.17329
30.27998
29.48175
28.78334
28.18014
27.66447
27.22644
26.85501
26.54987
26.31286
26.11761
25.95615
25.82401
25.71748
25.6335
25.56932
25.52242
25.49065
25.47223
25.4658
25.4703
25.48508
25.51005
25.54587
25.59423
25.65883
25.7437
25.83948
25.94316
26.05467
26.17425
26.30217
26.43877
26.58432
26.73892
26.90207
27.07247
27.23762
27.34132
31.05992
35.94669
38.35714
39.62794
40.35577
40.81794
41.149
41.41761
41.66127
41.90077
42.14792
42.40903
42.68808
42.98721
43.30773
43.65066
44.01656
44.406
44.8194
45.25717
45.71981
46.20774
46.72136
47.26144
47.82877
48.42414
49.04837
49.70184
50.38533
51.09918
51.8429
52.61455
53.40837
54.20607
54.93447
54.80795
53.91294
53.16841
52.49936
51.87853
51.28707
50.71376
50.15267
49.60001
49.05407
48.51452
47.98158
47.45528
46.93597
46.42398
45.91961
45.4231
44.93477
44.45483
43.98336
43.52047
43.06629
42.62083
42.18408
41.75589
41.33612
40.92479
40.52184
40.12698
39.74003
39.36086
38.98921
38.62475
38.26928
37.91623
30.56381
30.02086
29.41272
28.76269
28.14726
27.58857
27.09576
26.66887
26.29952
25.98081
25.70535
25.46296
25.244
25.04164
24.8506
24.66699
24.48808
24.31203
24.13769
23.96441
23.79193
23.62021
23.44935
23.27953
23.11101
22.94403
22.77885
22.61572
22.45484
22.29642
22.14063
21.98764
21.83757
21.69055
21.54667
21.40601
21.26864
21.13463
21.00405
20.87698
20.75356
20.63397
20.51867
20.40877
20.30707
20.21681
20.13532
20.05849
19.98621
19.91821
19.85416
19.79458
19.74076
19.69744
19.70137
19.64049
19.56498
19.47721
19.37897
19.27519
19.17013
19.0678
18.97141
18.88328
18.80485
18.73678
18.67915
18.6316
18.59346
18.56386
18.54184
18.52639
18.51652
18.51134
18.51001
18.5118
18.51603
18.52212
18.52956
18.53791
18.54679
18.55587
18.56489
18.57357
18.58168
18.58902
18.59539
18.60059
18.60447
18.60685
18.60759
18.60652
18.6035
18.59837
18.59099
18.58122
18.56894
18.55403
18.53639
18.51594
18.49257
18.46625
18.4369
18.40451
18.36905
18.33056
18.28905
18.24461
18.19731
18.14725
18.09456
18.03938
17.98186
17.92217
17.86047
17.79696
17.7318
17.66518
17.59728
17.52825
17.45827
17.38747
17.31596
17.24385
17.1712
17.09801
17.02424
16.94979
16.87446
16.79789
16.71942
16.6381
16.552
16.45782
16.34804
16.20605
15.99469
15.67238
15.60506
703.3952
591.4098
539.1349
498.7993
462.1609
428.819
398.8905
372.2203
347.4932
285.5005
221.7111
185.9247
164.3005
150.1663
140.1317
132.4241
126.1006
120.6604
95.52735
90.84441
86.40435
82.33493
78.71707
75.5425
72.76616
70.32841
68.16299
66.21581
64.51472
62.85942
61.19411
59.52848
57.87734
56.2565
54.67651
53.14327
51.65858
50.52417
49.61134
48.54039
47.38146
46.1823
44.97758
43.79329
42.64982
41.5616
40.5402
39.59321
38.71372
37.89897
37.14383
36.44426
35.79853
35.20559
34.66518
34.1806
31.23593
30.9276
30.66276
30.43494
30.23857
30.0682
29.92014
29.79131
29.67712
29.5724
29.46967
29.36464
29.25904
29.15454
29.06329
28.97871
28.88964
28.79264
28.68955
28.59403
28.45601
28.25565
28.02758
27.77095
27.47631
27.13951
26.76579
26.36056
25.929
25.4771
25.01131
24.53811
24.06461
23.6024
23.15318
22.71759
22.29659
21.89039
21.49926
21.12476
20.76826
20.43104
20.12558
19.86692
19.65667
19.49955
19.40255
19.3473
19.30471
19.25655
19.22092
19.20122
19.1949
19.19784
19.20676
19.22066
19.24083
19.27116
19.32154
19.40272
19.50871
19.63591
19.78294
19.95292
20.15405
20.39849
20.70042
21.07537
21.54339
22.13466
22.89472
23.89627
25.24462
26.99607
29.02317
31.09105
33.08014
34.97393
36.76409
38.40938
39.82291
40.90165
41.55751
41.77396
41.6014
41.16106
40.61661
40.11811
39.73316
39.72287
40.25305
41.39255
43.06023
45.22071
47.72661
50.23414
52.33227
53.62852
54.05882
53.65924
52.19371
49.45871
45.73769
41.653
37.73072
34.25288
31.30211
28.8527
26.83289
25.16231
23.77065
22.60192
21.61512
20.77927
20.06893
19.46319
18.94567
18.4975
18.09765
17.73437
17.40111
17.09362
16.80871
16.54382
16.29673
16.06557
15.84874
15.64484
15.45256
15.27072
15.09838
14.9347
14.77888
14.63017
14.48786
14.35129
14.21988
14.09314
13.97067
13.8521
13.73712
13.6255
13.51693
13.41134
13.30822
13.2079
13.10828
13.00245
13.29501
13.52539
13.62286
13.65264
13.64662
13.62105
13.58469
13.5431
13.49827
13.45131
13.40307
13.35424
13.30539
13.25666
13.20853
13.16157
13.11619
13.07272
13.03141
12.99246
12.95601
12.92215
12.89097
12.86254
12.83693
12.81413
12.79411
12.77676
12.7619
12.74926
12.73835
12.72789
12.71567
12.69847
12.67314
12.63895
12.6001
12.56105
12.5215
12.48174
12.44213
12.40289
12.36414
12.32595
12.28828
12.2511
12.21431
12.17782
12.14155
12.10539
12.06928
12.03315
11.99694
11.96061
11.92414
11.88751
11.85072
11.81379
11.77671
11.73952
11.70224
11.66488
11.6275
11.5901
11.55273
11.51542
11.47823
11.44124
11.40476
11.37074
10.24977
10.19248
10.14624
10.10506
10.06587
10.02752
9.989504
9.95149
9.913273
9.874791
9.83606
9.797142
9.758105
9.719011
9.679912
9.640848
9.601844
9.562915
9.524066
9.485298
9.446609
9.407995
9.369453
9.330983
9.292588
9.254273
9.216048
9.177928
9.13993
9.102077
9.064395
9.026913
8.989663
8.952679
8.916
8.879665
8.843717
8.808203
8.773176
8.738699
8.704851
8.671741
8.639524
8.608384
8.578474
8.549777
8.522002
8.494977
8.468773
8.443444
8.419019
8.395553
8.373152
8.352464
8.333585
8.31388
8.293948
8.274563
8.255933
8.23796
8.220502
8.203469
8.186814
8.170525
8.15462
8.139142
8.124147
8.109698
8.095858
8.082688
8.070243
8.058574
8.047723
8.037725
8.028606
8.020377
8.013047
8.006611
8.00106
7.996379
7.992543
7.989524
7.987287
7.985789
7.984984
7.984817
7.98523
7.986159
7.987533
7.989276
7.991309
7.993543
7.995887
7.998244
8.000513
8.002591
8.004371
8.005746
8.006606
8.006842
8.006346
8.005011
8.002737
7.999424
7.994981
7.989324
7.982379
7.974082
7.964382
7.953236
7.940619
7.926514
7.910922
7.893852
7.875329
7.855386
7.83407
7.811431
7.787535
7.762442
7.73623
7.708961
7.680719
7.65155
7.621537
7.590693
7.559084
7.526658
7.493438
7.459231
7.423934
7.387044
7.348104
7.305926
7.259395
7.207206
7.150581
7.096551
7.048155
599.0154
525.4101
465.7142
421.9583
388.7751
363.1669
343.1168
327.5738
315.6978
299.5737
178.9093
166.8037
156.6548
147.9863
140.283
133.7378
128.6999
125.5706
114.7711
77.99103
76.41279
75.87431
75.39152
74.9113
74.40741
73.83202
73.20352
72.44087
70.59313
67.45355
65.8516
64.95967
64.27388
63.63025
62.98698
62.33952
61.68105
61.00873
61.2053
60.41009
59.27586
58.07803
56.92601
55.84986
54.84892
53.91244
53.03018
52.19922
51.38673
50.56994
49.74436
48.91683
48.09967
47.30443
46.53924
45.81712
42.43537
41.8435
41.29096
40.7665
40.26184
39.77134
39.29108
38.81821
38.35084
37.88571
37.42075
36.95585
36.48687
36.01014
35.52334
35.02515
34.51524
33.9945
33.46514
32.93015
32.39362
31.86129
31.33646
30.82183
30.32062
29.83618
29.37194
28.9311
28.51617
28.12933
27.77189
27.44376
27.14355
26.86878
26.61675
26.38495
26.17187
25.97129
25.83067
25.69313
25.5597
25.42999
25.30415
25.18305
25.06753
24.95699
24.84772
24.73431
24.62874
24.53889
24.46302
24.39943
24.345
24.29536
24.24482
24.18784
24.11645
24.02704
23.91426
23.76575
23.5836
23.37086
23.12722
22.85158
22.54594
22.21439
21.86149
21.49205
21.1112
20.72429
20.33731
19.959
19.59845
19.25473
18.92937
18.62346
18.33803
18.07457
17.83533
17.62251
17.44111
17.29925
17.20044
17.14665
17.13659
17.16548
17.21087
17.26393
17.3242
17.38662
17.44298
17.48466
17.50614
17.50609
17.48711
17.4552
17.41976
17.39589
17.38977
17.39984
17.42474
17.46516
17.52474
17.60985
17.72831
17.88856
18.10046
18.37731
18.73844
19.21194
19.83168
20.6165
21.5414
22.55514
23.62263
24.7287
25.86301
27.00097
28.09681
29.08845
29.90519
30.49899
30.84948
30.97307
30.9299
30.77995
30.58779
30.47298
30.54283
30.86439
31.49848
32.4939
33.80703
35.35032
37.02672
38.68918
40.22854
41.61049
42.74709
43.48318
43.69639
43.2765
42.11493
40.22039
37.76631
35.04448
32.33923
29.85192
27.67686
25.82221
24.25254
22.92349
21.79291
20.82375
19.98607
19.25935
18.62478
18.0595
17.54964
17.08642
16.66353
16.27596
15.91944
15.59031
15.28554
15.00238
14.73824
14.49085
14.25843
14.03941
13.83228
13.63572
13.44853
13.26966
13.0982
12.93334
12.77438
12.62069
12.47173
12.32701
12.18618
12.04878
11.91472
11.78333
11.65528
11.52845
11.42015
11.30098
11.17895
11.05754
10.93836
10.82205
10.70877
10.59849
10.4911
10.38648
10.28453
10.18515
10.08833
9.994068
9.902406
9.813378
9.727032
9.643425
9.562614
9.484645
9.409549
9.337353
9.268084
9.201765
9.138388
9.077914
9.020273
8.965366
8.913055
8.863155
8.815416
8.769537
8.725095
8.681571
8.638615
8.596546
8.55611
8.517391
8.480132
8.444165
8.409342
8.375529
8.34261
8.310486
8.279067
8.248276
8.218042
8.188302
8.159002
8.130093
8.101535
8.073294
8.045341
8.017657
7.990226
7.963038
7.936089
7.90938
7.882911
7.85669
7.830721
7.805015
7.779576
7.754418
7.72954
7.704968
7.680694
7.656773
7.632999
7.607398
7.602476
7.594376
7.583051
7.569125
7.553531
7.536842
7.519267
7.500859
7.481654
7.461697
7.44104
7.419722
7.397782
7.375252
7.352165
7.328553
7.304449
7.279883
7.254886
7.229488
7.203718
7.177603
7.151174
7.124458
7.097484
7.070284
7.042886
7.015323
6.987625
6.959824
6.931954
6.904049
6.876141
6.848267
6.820461
6.79276
6.765201
6.737823
6.710669
6.683786
6.657226
6.631052
6.605331
6.58013
6.555495
6.531421
6.507839
6.484677
6.461952
6.439692
6.417947
6.396718
6.376038
6.355797
6.336132
6.316985
6.298408
6.280382
6.262804
6.2456
6.228752
6.212275
6.196183
6.180487
6.165192
6.150306
6.135837
6.121793
6.108185
6.095024
6.082322
6.070092
6.058347
6.047101
6.036364
6.026147
6.016458
6.007303
5.998688
5.990615
5.983085
5.976094
5.969636
5.963703
5.958281
5.953354
5.9489
5.944896
5.941312
5.938114
5.935265
5.932721
5.930436
5.928357
5.926427
5.924587
5.922771
5.920912
5.918939
5.916777
5.914351
5.911584
5.908398
5.904715
5.90046
5.895559
5.889943
5.883545
5.876306
5.868173
5.859098
5.849045
5.837982
5.82589
5.812756
5.798578
5.783359
5.767117
5.749869
5.731649
5.712483
5.692421
5.671488
5.649747
5.627211
5.603948
5.57994
5.555257
5.52981
5.503656
5.476571
5.44857
5.419202
5.388493
5.355841
5.321742
5.285918
5.250364
5.216896
361.7949
259.7404
373.1252
165.0918
127.8912
93.13169
79.99456
69.13134
60.35146
56.1845
54.50567
53.62514
52.77139
51.98684
51.22736
50.53728
49.89725
49.28703
48.70649
48.20998
47.83936
47.59605
47.59711
47.76407
48.00139
48.29393
48.63295
48.99535
49.35358
49.65488
49.80596
48.6581
49.26677
49.90431
50.44722
50.92444
51.26663
51.49969
51.62279
51.66009
51.621
51.47478
51.2526
50.97527
50.64394
50.26167
49.82659
49.33805
48.7972
48.20394
47.58483
46.95049
46.29933
45.6374
44.97195
44.30934
43.65476
43.01224
42.38497
41.77496
41.18283
40.609
40.05311
39.51476
38.99415
38.49057
38.00536
37.52925
37.11003
36.69733
36.29272
35.89567
35.50557
35.12168
34.74266
34.36676
33.99232
33.61783
33.24218
32.8635
32.47923
32.08747
31.68711
31.27777
30.85974
30.43397
30.00222
29.56677
29.13056
28.69719
28.27042
27.85387
27.45114
27.066
26.7022
26.36314
26.05162
25.76977
25.51862
25.29736
25.1031
24.93112
24.77634
24.63442
24.50208
24.37562
24.25221
24.12671
23.99477
23.85422
23.70638
23.55435
23.40094
23.24731
23.09443
22.94965
22.81391
22.68966
22.57871
22.48112
22.39443
22.31408
22.23423
22.14881
22.05213
21.93926
21.80556
21.64746
21.46424
21.25615
21.02324
20.7661
20.48694
20.1889
19.87551
19.55068
19.21862
18.88391
18.55154
18.22763
17.92082
17.63321
17.36716
17.12488
16.90871
16.72153
16.56699
16.44935
16.37331
16.34422
16.36609
16.43974
16.56215
16.72624
16.91942
17.12833
17.34014
17.53845
17.70447
17.8225
17.88457
17.89079
17.84792
17.76807
17.66833
17.57215
17.49042
17.42262
17.3655
17.31586
17.27309
17.24001
17.22212
17.22592
17.25794
17.32568
17.43885
17.61034
17.85512
18.18434
18.59919
19.09223
19.65464
20.28104
20.96674
21.6989
22.45129
23.18362
23.84564
24.39135
24.78703
25.01995
25.10582
25.0722
24.95909
24.82987
24.74946
24.77271
24.95343
25.33398
25.93129
26.74805
27.76143
28.90163
30.09322
31.30695
32.54232
33.78144
34.98214
36.06203
36.87661
37.30878
37.28014
36.71872
35.64177
34.13687
32.35351
30.45274
28.56837
26.8019
25.20589
23.78349
22.52384
21.40712
20.42179
19.55787
18.79288
18.1107
17.49956
16.9501
16.45446
16.00571
15.59778
15.22521
14.88387
14.56989
14.27977
14.01054
13.75956
13.52455
13.30348
13.09463
12.89647
12.70768
12.5271
12.3537
12.1866
12.02503
11.86835
11.71595
11.56747
11.42237
11.2807
11.14194
11.00766
10.87591
10.7457
10.61701
10.49002
10.36481
10.24139
10.11978
10
9.882095
9.766097
9.652053
9.540027
9.4301
9.322368
9.216939
9.113938
9.013488
8.915709
8.820711
8.728595
8.63946
8.553399
8.470466
8.390687
8.314059
8.240554
8.170116
8.102651
8.038028
7.976075
7.916586
7.859329
7.804085
7.750741
7.699392
7.65028
7.60345
7.55872
7.515865
7.474681
7.434993
7.396644
7.359492
7.323413
7.288292
7.254032
7.220543
7.187747
7.155579
7.123981
7.092908
7.062319
7.032187
7.002488
6.973208
6.944336
6.915869
6.887806
6.860149
6.832904
6.806074
6.77967
6.753689
6.72815
6.70303
6.678378
6.654106
6.630364
6.606776
6.584491
6.56302
6.542209
6.521934
6.502041
6.482384
6.462836
6.443303
6.423713
6.404018
6.38418
6.364165
6.343939
6.323476
6.302752
6.281747
6.260447
6.238842
6.216927
6.1947
6.172163
6.149322
6.126185
6.102765
6.079077
6.055137
6.030967
6.006588
5.982023
5.957299
5.932442
5.907481
5.882444
5.857362
5.832265
5.807186
5.782158
5.757214
5.73239
5.707723
5.683254
5.659022
5.635069
5.611431
5.588133
5.565184
5.542563
5.520244
5.498231
5.476547
5.455214
5.434242
5.413629
5.39338
5.373555
5.354115
5.33502
5.316262
5.297845
5.27977
5.262043
5.244668
5.227652
5.210996
5.1947
5.178765
5.163194
5.147989
5.133154
5.118694
5.104613
5.090918
5.077616
5.064714
5.052218
5.040136
5.028472
5.017233
5.006425
4.99605
4.986113
4.976615
4.967557
4.958936
4.950748
4.942988
4.935645
4.92871
4.922166
4.915997
4.910181
4.904693
4.899504
4.894584
4.889895
4.8854
4.881054
4.876812
4.872623
4.868436
4.864194
4.85984
4.855315
4.850557
4.845506
4.8401
4.83428
4.827987
4.821165
4.813761
4.805728
4.797021
4.787603
4.777441
4.76651
4.754791
4.742271
4.728945
4.714814
4.699887
4.684176
4.667701
4.650481
4.632546
4.613915
4.594623
4.574677
4.554109
4.532898
4.511062
4.488531
4.465303
4.441252
4.4164
4.390625
4.364102
4.336821
4.309424
4.283213
336.3715
224.9564
168.7792
151.0072
121.7156
101.389
86.24432
79.9467
73.11575
68.91572
65.2708
60.68855
56.22799
52.1184
48.43153
44.52452
38.85276
37.50765
36.51798
35.94966
35.74404
35.77482
35.90475
36.08265
36.29974
36.55219
36.8531
37.21834
37.63021
38.07917
38.56269
39.08203
39.63858
40.23255
40.86275
41.53076
42.24009
42.99797
43.81323
44.67725
45.59744
46.48417
47.11715
47.80913
48.45722
48.9593
49.34702
49.61256
49.76246
49.80285
49.74912
49.6213
49.4138
49.12385
48.75985
48.32589
47.83027
47.27625
46.67486
46.0439
45.39698
44.75055
44.11533
43.49298
42.88437
42.28946
41.7079
41.13972
40.58499
40.04391
39.51708
39.00496
38.50755
38.02436
37.55489
37.09907
36.65626
36.22661
35.80803
35.40029
35.00324
34.61506
34.23355
33.85793
33.48754
33.12081
32.75567
32.39075
32.02546
31.65893
31.28912
30.9138
30.53182
30.14278
29.74698
29.34505
28.9376
28.52699
28.11635
27.70919
27.30955
26.92166
26.54953
26.19708
25.8686
25.56893
25.30258
25.07329
24.88373
24.73417
24.62168
24.53911
24.47655
24.42455
24.37619
24.32613
24.26793
24.19202
24.08834
23.95135
23.7824
23.58833
23.37793
23.15989
22.94463
22.73433
22.52855
22.32946
22.14096
21.96653
21.80735
21.66166
21.52516
21.39219
21.25715
21.11525
20.9622
20.79451
20.61033
20.409
20.1902
19.95389
19.70091
19.43297
19.15253
18.86248
18.56608
18.26695
17.96903
17.67662
17.3946
17.12994
16.88788
16.67181
16.48578
16.3346
16.22416
16.16164
16.1551
16.21176
16.33725
16.5349
16.80301
17.13273
17.51018
17.91975
18.34414
18.76047
19.13699
19.43973
19.64493
19.74495
19.74561
19.66205
19.51704
19.34108
19.17071
19.01729
18.87911
18.747
18.61064
18.46413
18.30751
18.14647
17.98948
17.84447
17.71884
17.62125
17.56196
17.55218
17.60179
17.71585
17.89321
18.13207
18.4332
18.79668
19.21748
19.67994
20.15712
20.61337
21.01065
21.31609
21.50953
21.58764
21.56167
21.45655
21.30933
21.16109
21.05122
21.01751
21.09367
21.30478
21.66631
22.17911
22.82467
23.58106
24.44129
25.40226
26.44722
27.54322
28.65677
29.73971
30.73985
31.60597
32.25452
32.60633
32.61092
32.24706
31.53046
30.50924
29.27182
27.90955
26.50097
25.10864
23.77543
22.52449
21.37144
20.332
19.40306
18.57491
17.8371
17.17957
16.59241
16.06595
15.59254
15.1661
14.78047
14.42993
14.10982
13.81617
13.54559
13.29503
13.06179
12.84359
12.63845
12.44463
12.26061
12.08506
11.9168
11.75485
11.59832
11.44654
11.29886
11.15492
11.01425
10.87661
10.74168
10.60916
10.47882
10.35044
10.22383
10.0988
9.975234
9.853021
9.732097
9.612423
9.493991
9.376826
9.260986
9.146559
9.03366
8.922433
8.813044
8.705666
8.600482
8.497668
8.397405
8.299872
8.205218
8.11354
8.024918
7.939404
7.85702
7.777755
7.701558
7.628345
7.558006
7.490415
7.425453
7.363046
7.303195
7.24596
7.191326
7.139152
7.089232
7.041369
6.99538
6.951095
6.908357
6.867018
6.826941
6.788005
6.7501
6.713126
6.676997
6.641638
6.606987
6.572993
6.539613
6.506814
6.474571
6.442869
6.411695
6.381044
6.350917
6.321314
6.292239
6.263699
6.235696
6.208239
6.181318
6.154946
6.129091
6.103768
6.078899
6.054523
6.030639
6.007234
5.984269
5.961702
5.939497
5.917613
5.895997
5.874593
5.853346
5.832206
5.811125
5.790057
5.76896
5.747793
5.726523
5.70512
5.683557
5.661814
5.639873
5.617723
5.595356
5.572767
5.549955
5.526925
5.503683
5.480238
5.456604
5.432795
5.40883
5.384727
5.360509
5.336198
5.311819
5.287398
5.262962
5.23854
5.214159
5.189852
5.165648
5.141579
5.117678
5.093973
5.070491
5.047253
5.024268
5.001536
4.979051
4.956822
4.934861
4.913187
4.89181
4.870741
4.849989
4.829571
4.809466
4.789644
4.770104
4.750862
4.731926
4.713301
4.694989
4.67699
4.659308
4.641944
4.624902
4.608183
4.591793
4.575734
4.560012
4.544631
4.529597
4.514916
4.500593
4.486635
4.473046
4.459833
4.447
4.434553
4.422496
4.410834
4.399568
4.388702
4.378235
4.368167
4.358496
4.349217
4.340324
4.331808
4.323659
4.315863
4.308403
4.301261
4.294414
4.287837
4.281503
4.275379
4.269433
4.263626
4.257918
4.252268
4.246629
4.240955
4.235197
4.229304
4.223226
4.216912
4.21031
4.203372
4.196048
4.188294
4.180067
4.171326
4.162038
4.15217
4.141699
4.130602
4.118866
4.106481
4.093443
4.079753
4.065417
4.050446
4.034853
4.018654
4.001868
3.984507
3.96659
3.948122
3.929114
3.909554
3.889449
3.868776
3.847561
3.825794
3.803564
3.780925
3.758145
3.736457
168.2824
125.476
192.6984
96.44155
82.7435
71.19993
67.50775
64.7558
61.7247
60.30436
58.53773
56.06225
53.68173
51.16739
48.27796
43.1083
41.6828
40.34781
39.08913
37.91489
36.78757
35.75234
34.85993
34.13157
33.57613
33.1772
32.85433
32.54227
32.39378
32.42488
32.61655
32.91861
33.27603
33.66384
34.0743
34.52181
35.00056
35.50312
36.02735
36.57424
37.14493
37.74092
38.36466
39.02103
39.7161
40.4551
41.23902
42.07633
42.97556
43.87267
44.75441
45.598
46.20651
46.74994
47.153
47.41845
47.55555
47.56897
47.47094
47.27801
47.00564
46.66988
46.27806
45.83469
45.34481
44.81969
44.27039
43.72872
43.20694
42.71389
42.25778
41.82789
41.41701
41.01989
40.63132
40.2461
39.8607
39.47363
39.08407
38.69189
38.29833
37.90552
37.51418
37.12409
36.73522
36.34791
35.96251
35.57975
35.20012
34.82277
34.44615
34.06857
33.68975
33.31112
32.93372
32.55672
32.17851
31.79896
31.41948
31.04052
30.66107
30.27919
29.89251
29.49984
29.10151
28.69936
28.29647
27.89546
27.49998
27.11486
26.74551
26.39734
26.07559
25.7858
25.53437
25.3282
25.17354
25.07498
25.03469
25.05019
25.11053
25.19773
25.29289
25.38179
25.45616
25.5094
25.52955
25.49712
25.39411
25.21602
24.97343
24.68415
24.36647
24.04383
23.72993
23.42186
23.1178
22.81886
22.52937
22.25424
21.99649
21.75599
21.52948
21.3122
21.09933
20.88677
20.67112
20.44978
20.22126
19.98482
19.73999
19.48662
19.22519
18.95684
18.6834
18.40712
18.13071
17.85724
17.5902
17.3334
17.0912
16.86927
16.67595
16.51775
16.40166
16.33673
16.33475
16.41016
16.57747
16.8463
17.21931
17.69324
18.25381
18.8756
19.52894
20.19497
20.85534
21.4801
22.0213
22.43
22.68006
22.77276
22.72642
22.56924
22.33764
22.07792
21.83466
21.6168
21.41816
21.21762
20.99456
20.73738
20.44411
20.12334
19.7896
19.4555
19.13036
18.82299
18.54392
18.30544
18.11826
17.98727
17.91294
17.89698
17.9431
18.05298
18.22262
18.44147
18.69069
18.94489
19.1741
19.35005
19.45192
19.46977
19.40624
19.2757
19.10064
18.90783
18.72512
18.5796
18.49581
18.49389
18.58896
18.79042
19.10048
19.51707
20.03892
20.6637
21.38497
22.19474
23.08192
24.02265
24.97749
25.90214
26.75542
27.48277
28.04467
28.40603
28.53341
28.40277
28.02101
27.40633
26.59487
25.63447
24.57808
23.47678
22.37282
21.29757
20.2784
19.33339
18.47108
17.69214
16.99245
16.36542
15.8043
15.30168
14.8505
14.44438
14.0775
13.74481
13.44188
13.16487
12.91045
12.67578
12.45835
12.25589
12.06635
11.888
11.71926
11.55876
11.40529
11.25782
11.11547
10.97753
10.84338
10.71249
10.58448
10.45903
10.3358
10.21451
10.09489
9.97671
9.859744
9.743788
9.628667
9.514235
9.400382
9.287042
9.174189
9.061844
8.95007
8.838982
8.728733
8.619508
8.511513
8.404973
8.300124
8.197203
8.096436
7.99803
7.902165
7.808997
7.718653
7.631226
7.546772
7.465311
7.386835
7.311313
7.238707
7.168987
7.102141
7.038165
6.977014
6.918568
6.862661
6.809113
6.757746
6.708388
6.660871
6.615034
6.570726
6.527805
6.486142
6.445619
6.406131
6.367584
6.3299
6.293009
6.256856
6.221395
6.186591
6.152418
6.118857
6.085899
6.053537
6.021771
5.990603
5.960039
5.930085
5.900743
5.872014
5.843897
5.816382
5.789459
5.763105
5.737307
5.712032
5.687234
5.662873
5.638929
5.615383
5.592207
5.569362
5.546801
5.524479
5.502348
5.480364
5.458481
5.436656
5.414849
5.393022
5.371141
5.349176
5.327099
5.304889
5.282526
5.259998
5.237292
5.214402
5.191326
5.168064
5.14462
5.121001
5.097217
5.073279
5.049204
5.025007
5.000709
4.976329
4.95189
4.927415
4.902931
4.878462
4.854035
4.829678
4.805419
4.781284
4.757299
4.733488
4.709869
4.686454
4.663253
4.640272
4.617521
4.595012
4.572759
4.550776
4.529072
4.507653
4.486526
4.465684
4.445119
4.424831
4.404827
4.385111
4.365684
4.346549
4.327707
4.309161
4.290913
4.272966
4.255324
4.237991
4.22097
4.204266
4.187883
4.171828
4.156106
4.140721
4.125679
4.110987
4.096648
4.082667
4.069051
4.055802
4.042926
4.030426
4.018303
4.006561
3.995199
3.984217
3.973613
3.963382
3.953519
3.944018
3.934867
3.926056
3.91757
3.909392
3.901505
3.893885
3.886509
3.87935
3.872379
3.865563
3.858868
3.852259
3.845695
3.839137
3.832542
3.825868
3.81907
3.812105
3.804929
3.797498
3.789771
3.781707
3.773269
3.764422
3.755134
3.745378
3.735128
3.724367
3.713079
3.701254
3.688885
3.675971
3.662515
3.648524
3.634005
3.618971
3.603433
3.587406
3.5709
3.55393
3.536502
3.518634
3.500333
3.481628
3.462545
3.443137
3.423477
3.403706
3.385048
64.7135
50.77513
52.05222
49.65162
48.53306
47.13996
46.00482
44.98754
44.07605
42.6686
39.48088
39.05152
38.60695
38.15794
37.66899
37.13607
36.60593
36.12005
35.69545
35.31936
34.85447
34.15331
33.48927
32.86857
32.30644
31.80826
31.38982
31.05912
30.81945
30.66291
30.57488
30.54672
30.58946
30.72051
30.94687
31.25641
31.6204
32.00994
32.41164
32.84334
33.29359
33.76285
34.25393
34.76974
35.31345
35.88843
36.49749
37.14069
37.82404
38.5597
39.36331
40.20178
41.07864
42.00791
42.79846
43.48352
44.02717
44.40971
44.65465
44.75298
44.71062
44.54225
44.26837
43.91312
43.50278
43.05903
42.60192
42.14587
41.70786
41.30744
40.97302
40.70739
40.519
40.40197
40.33311
40.29059
40.25478
40.20996
40.14555
40.05341
39.92718
39.76519
39.56834
39.33792
39.07654
38.7896
38.4825
38.15763
37.81663
37.46159
37.09419
36.71618
36.33009
35.93756
35.53724
35.12611
34.70259
34.26914
33.83037
33.38921
32.94576
32.50051
32.0611
31.62924
31.20548
30.78868
30.37626
29.96567
29.55556
29.14617
28.73918
28.33723
27.94373
27.56466
27.21199
26.89315
26.61448
26.3829
26.2066
26.09505
26.05737
26.10057
26.22839
26.43835
26.71567
27.02913
27.34296
27.62886
27.87286
28.07221
28.22372
28.3081
28.28813
28.13446
27.85035
27.46797
27.02287
26.54323
26.06713
25.60331
25.15424
24.71334
24.27496
23.841
23.41775
23.012
22.62792
22.26512
21.92027
21.58969
21.27032
20.95968
20.65586
20.35752
20.06371
19.77366
19.48681
19.20305
18.92288
18.64738
18.37815
18.11733
17.86759
17.63209
17.41455
17.21937
17.0521
16.9214
16.84155
16.82526
16.88993
17.05891
17.35824
17.80939
18.41638
19.15919
20.00709
20.91319
21.82944
22.71601
23.57266
24.38843
25.12902
25.73245
26.14376
26.34917
26.36905
26.23621
25.99237
25.68666
25.37629
25.09579
24.85009
24.62026
24.37161
24.07715
23.71935
23.2921
22.8077
22.29338
21.76997
21.24894
20.7388
20.24933
19.79354
19.38318
19.02326
18.71494
18.4627
18.27337
18.15095
18.09377
18.09341
18.13516
18.19872
18.26053
18.29718
18.29001
18.2272
18.10653
17.93512
17.72656
17.49839
17.27002
17.0606
16.88766
16.76633
16.70898
16.72513
16.82095
16.99973
17.26388
17.61534
18.05474
18.58151
19.19214
19.87584
20.61366
21.38202
22.15197
22.88599
23.54256
24.0889
24.49709
24.74484
24.82072
24.71782
24.4352
23.98263
23.38206
22.66232
21.8575
21.00368
20.13487
19.27986
18.45941
17.68627
16.96882
16.3111
15.71253
15.1701
14.67978
14.23694
13.83677
13.47468
13.14641
12.84809
12.57628
12.32791
12.10022
11.89076
11.69734
11.51795
11.35074
11.19405
11.04639
10.90643
10.773
10.64513
10.52195
10.40277
10.28701
10.17415
10.06379
9.955526
9.849038
9.744008
9.640137
9.537124
9.434696
9.332612
9.230661
9.128665
9.026475
8.923985
8.821198
8.718153
8.614938
8.511682
8.408551
8.305741
8.203481
8.10203
8.001677
7.902696
7.805347
7.709877
7.616522
7.525487
7.436945
7.351036
7.267866
7.187512
7.110028
7.035451
6.963807
6.895103
6.829309
6.766343
6.706083
6.648382
6.593082
6.540019
6.48903
6.439951
6.392622
6.346891
6.302612
6.259654
6.217892
6.177217
6.137531
6.09875
6.060801
6.023626
5.987174
5.951411
5.916307
5.881846
5.848016
5.814811
5.782234
5.750287
5.718978
5.688313
5.658293
5.628922
5.600196
5.572108
5.544645
5.517791
5.491513
5.465777
5.440549
5.415805
5.391516
5.367649
5.344163
5.321014
5.298156
5.275541
5.253126
5.230862
5.208707
5.186617
5.164551
5.142472
5.120347
5.098144
5.075837
5.053403
5.030824
5.008085
4.985174
4.962086
4.938817
4.915366
4.891737
4.867937
4.843974
4.81986
4.79561
4.77124
4.746769
4.722217
4.697605
4.672957
4.648298
4.623651
4.599044
4.574503
4.550051
4.525716
4.501518
4.477477
4.453611
4.429934
4.406457
4.383194
4.360158
4.337365
4.314825
4.292551
4.270548
4.248821
4.227374
4.206204
4.185313
4.164703
4.144376
4.124335
4.10458
4.085115
4.06594
4.047058
4.028472
4.010184
3.992197
3.974516
3.957145
3.940088
3.923349
3.906934
3.890848
3.875095
3.85968
3.844608
3.829883
3.815508
3.80149
3.78783
3.774532
3.761599
3.749033
3.736835
3.725004
3.71354
3.70244
3.691699
3.681313
3.671273
3.66157
3.652194
3.64313
3.634364
3.625878
3.617653
3.609666
3.601893
3.594308
3.586882
3.579584
3.572383
3.565243
3.558129
3.551003
3.543828
3.536566
3.529176
3.521622
3.513864
3.505867
3.497595
3.489015
3.480095
3.470809
3.461131
3.45104
3.440518
3.429551
3.41813
3.406249
3.393904
3.381099
3.367837
3.354124
3.339972
3.325391
3.310393
3.294993
3.279207
3.263051
3.246549
3.229725
3.212618
3.195264
3.177735
3.160129
3.143646
100.2655
40.87426
35.57958
34.31232
33.53186
33.10588
32.95678
32.95438
33.05368
33.225
33.32286
33.18427
33.01825
32.81981
32.59477
32.34427
32.08506
31.82639
31.56267
31.27616
30.94302
30.57582
30.23737
29.93813
29.68549
29.48535
29.34122
29.25123
29.21305
29.22
29.26803
29.3554
29.48468
29.657
29.87537
30.13265
30.41416
30.70985
31.04792
31.41566
31.81423
32.2484
32.72222
33.23638
33.79406
34.40051
35.06273
35.76707
36.51608
37.33449
38.25074
39.12285
39.94619
40.68615
41.28843
41.74171
42.03332
42.15833
42.10037
41.87992
41.52463
41.07175
40.56397
40.04464
39.5531
39.12495
38.79168
38.58858
38.5374
38.63735
38.88751
39.26359
39.72213
40.22408
40.72952
41.20496
41.62374
41.96511
42.21977
42.38174
42.45073
42.43166
42.33363
42.16583
41.93851
41.66575
41.3586
41.02194
40.65973
40.27524
39.87014
39.44678
39.00839
38.55475
38.07926
37.57666
37.04575
36.4939