/*--------------------------------*- C++ -*----------------------------------*\
| =========                 |                                                 |
| \\      /  F ield         | foam-extend: Open Source CFD                    |
|  \\    /   O peration     | Version:     3.1                                |
|   \\  /    A nd           | Web:         http://www.extend-project.de       |
|    \\/     M anipulation  |                                                 |
\*---------------------------------------------------------------------------*/
FoamFile
{
    version     2.0;
    format      ascii;
    class       volScalarField;
    location    "9.5";
    object      p;
}
// * * * * * * * * * * * * * * * * * * * * * * * * * * * * * * * * * * * * * //

dimensions      [1 -1 -2 0 0 0 0];

internalField   nonuniform List<scalar> 
119952
(
7062.155
6329.409
6260.192
6411.792
6562.212
6527.098
6543.017
6569.171
6601.411
6635.127
6669.42
6703.416
6736.26
6767.288
6795.573
6820.659
6841.371
6855.87
6858.615
6816.684
7026.666
6887.921
6845.077
7098.011
7037.528
7042.184
7047.689
7095.994
7385.492
8298.394
5387.233
5401.324
5445.131
5482.758
5517.099
5547.684
5574.537
5593.138
5609.982
5616.687
5596.127
5599.055
5586.728
5569.286
5546.982
5520.184
5489.937
5458.959
5425.044
5361.33
5333.665
5292.912
5267.15
5252.276
5246.07
5248.986
5262.974
5286.805
5321.999
5354.258
5398.901
5455.411
5514.476
5576.856
5642.386
5710.606
5785.874
5890.703
6038.983
6005.277
6054.266
6139.48
6203.903
6242.271
6268.148
6300.135
6334.803
6369.71
6404.812
6439.3
6472.33
6503.357
6531.984
6556.626
6577.332
6592.876
6603.327
6612.459
6626.71
6635.936
6634.521
6671.287
6735.524
6732.168
6718.553
6701.429
6624.156
6385.743
6297.637
6280.894
6242.363
6203.697
6165.042
6126.902
6092.052
6062.32
6038.901
6022.864
6014.687
6014.423
6021.787
6036.247
6057.325
6084.559
6117.58
6156.12
6200.028
6249.158
6303.387
6362.682
6426.281
6489.964
6540.749
6562.588
6565.806
6594.753
6660.427
6731.323
6800.454
6866.295
6927.35
6985.074
7040.813
7095.854
7150.326
7201.723
7245.773
7265.769
7286.004
7327.636
7358.281
7379.969
7403.574
7422.768
7433.328
7441.047
7445.16
7447.689
7454.778
7468.957
7485.163
7499.326
7508.992
7514.684
7517.621
7518.713
7518.455
7517.453
7516.462
7516.236
7517.408
7520.398
7525.444
7532.661
7542.045
7553.442
7566.529
7581.078
7596.63
7612.87
7629.485
7646.196
7662.761
7678.976
7694.675
7709.734
7724.062
7737.6
7750.317
7762.203
7773.268
7783.533
7793.029
7801.795
7809.861
7817.294
7824.117
7830.374
7836.106
7841.351
7846.147
7850.525
7854.515
7858.134
7861.396
7864.365
7867.732
7902.391
7903.736
7905.985
7908.119
7910.053
7911.832
7913.486
7915.025
7916.469
7917.831
7919.124
7920.356
7921.538
7922.676
7923.778
7924.852
7925.905
7926.941
7927.967
7928.987
7930.004
7931.02
7932.039
7933.062
7934.089
7935.116
7936.143
7937.159
7938.156
7939.116
7940.009
7940.788
7941.368
7941.576
7940.931
7939.563
7944.633
7948.484
7951.912
7955.004
7957.937
7960.741
7963.451
7966.087
7968.657
7971.166
7973.618
7976.014
7978.358
7980.651
7982.892
7985.082
7987.223
7989.314
7991.357
7993.351
7995.297
7997.197
7999.05
8000.857
8002.62
8004.338
8006.012
8007.644
8009.234
8010.785
8012.3
8013.802
8015.251
8016.511
7994.849
7992.194
7989.366
7990.643
7991.558
7992.238
7993.087
7993.943
7994.745
7995.515
7996.249
7996.935
7997.571
7998.151
7998.67
7999.13
7999.53
7999.871
8000.152
8000.375
8000.541
8000.651
8000.705
8000.705
8000.653
8000.549
8000.395
8000.191
7999.941
7999.645
7999.304
7998.922
7998.499
7998.038
7997.541
7997.009
7996.447
7995.857
7995.244
7994.613
7993.973
7993.336
7992.723
7992.164
7991.646
7990.91
7989.607
7988.038
7986.595
7985.217
7983.855
7982.538
7981.126
7979.291
7974.943
7974.599
7974.054
7972.405
7970.796
7969.192
7967.564
7965.931
7964.295
7962.655
7961.005
7959.349
7957.688
7956.021
7954.347
7952.668
7950.983
7949.294
7947.603
7945.91
7944.218
7942.528
7940.843
7939.164
7937.493
7935.832
7934.182
7932.545
7930.923
7929.318
7927.729
7926.16
7924.61
7923.082
7921.574
7920.09
7918.628
7917.189
7915.774
7914.383
7913.015
7911.672
7910.351
7909.053
7907.778
7906.524
7905.291
7904.078
7902.883
7901.706
7900.544
7899.396
7898.26
7897.134
7896.015
7894.902
7893.79
7892.678
7891.562
7890.437
7889.3
7888.147
7886.971
7885.768
7884.53
7883.251
7881.923
7880.535
7879.078
7877.537
7875.899
7874.143
7872.25
7870.192
7867.936
7865.419
7862.59
7859.337
7855.559
7851.035
7845.392
7838.326
7831.413
7835.013
7868.698
6661.96
6551.872
6420.226
6293.368
6169.191
6049.225
5934.267
5824.42
5719.426
5595.577
5501.857
5411.539
5327.134
5248.733
5176.349
5109.638
5048.99
4993.022
4905.494
4877.722
4831.933
4796.73
4771.725
4755.141
4746.695
4745.445
4751.389
4766.031
4783.684
4801.653
4832.786
4866.52
4903.525
4943.089
4984.195
5026.137
5068.743
5115.593
5141.798
5176.943
5212.176
5242.781
5269.18
5291.025
5307.961
5319.734
5326.284
5323.276
5315.817
5303.373
5284.096
5259.448
5230.615
5198.577
5165.187
5133.225
5012.563
4979.248
4955.248
4935.371
4921.547
4916.815
4923.154
4940.292
4967.018
5002.497
5047.279
5097.724
5153.015
5213.368
5278.652
5348.18
5422.136
5500.351
5580.968
5656.28
5715.511
5765.901
5821.232
5876.675
5924.963
5965.807
6003.447
6040.795
6078.296
6115.252
6150.862
6184.528
6215.775
6244.136
6269.1
6290.35
6307.744
6321.655
6332.977
6342.862
6351.684
6360.309
6370.821
6377.961
6369.845
6341.153
6289.241
6209.469
6109.921
6021.297
5960.148
5912.538
5868.265
5824.99
5784.497
5749.256
5720.982
5700.572
5688.334
5684.986
5689.537
5701.413
5719.91
5744.318
5774.05
5808.762
5848.223
5892.177
5940.312
5991.914
6045.921
6100.972
6153.366
6198.403
6235.063
6270.568
6317.209
6375.468
6439.733
6504.829
6568.982
6630.479
6688.561
6744.612
6797.248
6846.704
6893.27
6930.249
6958.197
6988.139
7022.081
7050.225
7073.131
7094.583
7114.209
7127.183
7135.504
7143.09
7153.361
7168.555
7183.83
7194.44
7201.433
7207.116
7211.34
7214.022
7214.952
7214.088
7212.364
7210.703
7210.022
7210.995
7213.914
7218.999
7226.423
7236.131
7247.871
7261.503
7276.405
7292.266
7308.753
7325.555
7342.393
7359.026
7375.255
7390.915
7405.891
7420.107
7433.507
7446.062
7457.771
7468.651
7478.728
7488.041
7496.628
7504.531
7511.796
7518.465
7524.58
7530.182
7535.309
7540.001
7544.287
7548.209
7551.788
7555.092
7558.113
7560.898
7626.012
7627.319
7629.409
7631.551
7633.488
7635.286
7636.949
7638.509
7639.971
7641.351
7642.661
7643.909
7645.105
7646.26
7647.377
7648.465
7649.53
7650.577
7651.612
7652.639
7653.663
7654.686
7655.71
7656.736
7657.765
7658.797
7659.827
7660.849
7661.854
7662.826
7663.743
7664.582
7665.302
7665.888
7666.444
7667.6
7670.211
7673.448
7676.491
7679.437
7682.28
7685.033
7687.712
7690.326
7692.88
7695.377
7697.821
7700.212
7702.552
7704.84
7707.079
7709.268
7711.407
7713.497
7715.538
7717.53
7719.475
7721.372
7723.223
7725.028
7726.787
7728.501
7730.171
7731.799
7733.384
7734.929
7736.44
7737.919
7739.425
7741.466
7681.968
7683.765
7684.286
7684.419
7684.906
7685.721
7686.623
7687.479
7688.275
7689.029
7689.746
7690.418
7691.038
7691.599
7692.101
7692.543
7692.926
7693.25
7693.514
7693.719
7693.868
7693.959
7693.995
7693.976
7693.905
7693.781
7693.608
7693.385
7693.114
7692.798
7692.438
7692.035
7691.592
7691.11
7690.592
7690.039
7689.455
7688.842
7688.205
7687.547
7686.872
7686.185
7685.482
7684.746
7683.932
7682.971
7681.801
7680.471
7679.099
7677.737
7676.373
7674.996
7673.574
7672.037
7670.089
7668.079
7666.472
7665.058
7663.573
7661.971
7660.314
7658.649
7656.986
7655.321
7653.651
7651.978
7650.3
7648.619
7646.933
7645.243
7643.551
7641.856
7640.16
7638.465
7636.773
7635.084
7633.401
7631.725
7630.059
7628.403
7626.76
7625.131
7623.518
7621.922
7620.344
7618.786
7617.249
7615.733
7614.239
7612.768
7611.321
7609.897
7608.497
7607.122
7605.771
7604.443
7603.139
7601.859
7600.6
7599.363
7598.147
7596.951
7595.773
7594.611
7593.465
7592.333
7591.212
7590.1
7588.995
7587.895
7586.796
7585.696
7584.591
7583.476
7582.349
7581.205
7580.037
7578.841
7577.611
7576.339
7575.018
7573.637
7572.189
7570.658
7569.033
7567.295
7565.429
7563.403
7561.199
7558.766
7556.081
7553.074
7549.757
7546.146
7542.59
7539.726
7538.771
7540.273
7544.778
3413.569
3459.793
3525.938
3604.293
3696.225
3800.197
3915.951
4043.07
4181.164
4328.785
4468.465
4634.199
4807.035
4987.164
5173.369
5364.118
5557.194
5748.092
5939.725
6116.098
6294.224
6460.972
6614.259
6751.247
6868.654
6964.351
7036.583
7083.864
7112.316
7111.328
7086.106
7040.249
6975.481
6894.133
6798.795
6691.876
6576.417
6455.735
6320.761
6194.229
6065.013
5937.611
5813.422
5693.598
5579.083
5470.487
5368.477
5272.317
5179.383
5093.945
5013.336
4938.004
4868.297
4804.087
4745.936
4699.387
4562.152
4521.788
4490.625
4464.122
4443.401
4429.958
4424.246
4426.015
4434.757
4449.787
4471.686
4499.522
4531.244
4566.774
4605.92
4647.747
4691.132
4734.958
4778.259
4819.81
4858.735
4894.273
4926.703
4955.502
4980.222
5000.269
5015.064
5024.068
5026.783
5023.052
5012.542
4995.467
4972.425
4944.015
4911.027
4874.429
4835.167
4794.029
4751.347
4714.417
4684.678
4660.385
4644.127
4638.742
4645.201
4663.212
4692.118
4729.894
4775.829
4828.944
4887.582
4951.165
5018.967
5090.308
5163.987
5239.068
5313.531
5386.984
5452.442
5508.361
5563.294
5619.175
5671.574
5717.851
5760.027
5800.869
5841.159
5880.374
5917.829
5953.035
5985.626
6015.246
6041.523
6064.081
6082.772
6097.622
6108.931
6117.236
6122.824
6124.507
6121.945
6114.624
6095.977
6059.978
6006.87
5939.306
5858.346
5775.829
5707.065
5651.439
5601.121
5553.408
5509.841
5472.818
5444.004
5424.291
5413.954
5412.866
5420.166
5434.88
5455.955
5482.438
5513.563
5548.941
5588.363
5631.443
5677.82
5726.994
5778.09
5829.692
5880.4
5928.964
5973.406
6015.768
6064.498
6122.266
6185.018
6248.87
6312.224
6373.989
6432.757
6488.439
6540.772
6588.717
6633.343
6672.922
6704.233
6733.416
6764.568
6792.824
6817.812
6840.36
6859.3
6876.168
6892.494
6904.828
6912.16
6919.84
6931.69
6947.075
6962.935
6974.768
6979.248
6978.347
6975.578
6972.297
6969.031
6966.385
6964.905
6965.16
6967.49
6972.207
6979.46
6989.18
7001.154
7015.054
7030.129
7046.173
7062.885
7079.906
7096.943
7113.751
7130.132
7145.91
7160.963
7175.23
7188.665
7201.228
7212.928
7223.78
7233.819
7243.087
7251.626
7259.478
7266.688
7273.305
7279.371
7284.928
7290.016
7294.673
7298.937
7302.842
7306.428
7309.727
7312.803
7315.7
7318.673
7321.243
7323.312
7325.186
7327.007
7328.746
7330.374
7331.898
7333.332
7334.688
7335.978
7337.208
7338.389
7339.528
7340.633
7341.711
7342.766
7343.804
7344.831
7345.852
7346.872
7347.896
7348.927
7349.964
7351.008
7352.058
7353.11
7354.162
7355.208
7356.242
7357.257
7358.257
7359.264
7360.344
7361.639
7363.354
7365.612
7368.261
7371.026
7373.772
7376.473
7379.13
7381.744
7384.312
7386.833
7389.306
7391.731
7394.108
7396.436
7398.716
7400.947
7403.129
7405.262
7407.346
7409.381
7411.368
7413.307
7415.199
7417.043
7418.841
7420.593
7422.3
7423.961
7425.579
7427.151
7428.682
7430.163
7431.605
7432.973
7434.369
7435.52
7436.214
7436.977
7437.965
7439.057
7440.132
7441.134
7442.054
7442.9
7443.686
7444.42
7445.101
7445.725
7446.288
7446.792
7447.234
7447.616
7447.937
7448.199
7448.401
7448.545
7448.631
7448.661
7448.636
7448.557
7448.426
7448.243
7448.011
7447.73
7447.403
7447.031
7446.616
7446.159
7445.663
7445.129
7444.559
7443.957
7443.323
7442.66
7441.971
7441.256
7440.514
7439.735
7438.907
7438.006
7437.004
7435.872
7434.612
7433.279
7431.923
7430.553
7429.145
7427.686
7426.145
7424.701
7423.213
7421.607
7419.925
7418.211
7416.485
7414.76
7413.046
7411.344
7409.65
7407.957
7406.264
7404.57
7402.874
7401.177
7399.477
7397.776
7396.074
7394.373
7392.674
7390.978
7389.287
7387.603
7385.927
7384.261
7382.607
7380.965
7379.339
7377.729
7376.137
7374.564
7373.011
7371.479
7369.97
7368.483
7367.02
7365.581
7364.167
7362.777
7361.412
7360.072
7358.757
7357.465
7356.197
7354.953
7353.73
7352.528
7351.347
7350.184
7349.039
7347.909
7346.794
7345.69
7344.595
7343.508
7342.426
7341.345
7340.263
7339.177
7338.082
7336.975
7335.851
7334.705
7333.533
7332.327
7331.082
7329.791
7328.444
7327.033
7325.548
7323.976
7322.304
7320.518
7318.599
7316.53
7314.292
7311.873
7309.281
7306.567
7303.855
7301.37
7299.399
7298.265
7298.404
7300.086
3150.175
3124.733
3100.828
3067.979
3051.068
3016.056
3025.331
3052.049
3092.17
3108.76
3104.838
3115.208
3144.928
3191.235
3252.389
3326.721
3413.585
3511.481
3620.757
3741.21
3871.729
4012.15
4162.102
4321.417
4489.142
4664.453
4845.734
5031.529
5220.233
5409.105
5596.151
5756.823
5938.75
6103.486
6253.867
6387.801
6501.223
6592.626
6660.752
6705.494
6727.206
6723.817
6695.875
6646.167
6577.392
6492.281
6393.359
6283.559
6166.075
6043.949
5918.066
5790.852
5664.536
5540.941
5421.337
5306.615
5197.387
5093.933
4996.248
4904.076
4816.969
4734.911
4657.939
4585.968
4518.898
4456.657
4399.227
4346.229
4296.257
4255.694
4223.124
4195.818
4174.864
4161.694
4156.62
4159.281
4169.272
4186.499
4210.375
4239.835
4274.38
4313.43
4356.132
4401.371
4447.942
4494.681
4540.537
4584.678
4625.752
4662.919
4696.469
4726.151
4751.328
4771.382
4785.795
4794.109
4795.864
4790.675
4778.233
4758.754
4732.705
4700.662
4663.455
4622.107
4577.562
4531.323
4485.266
4442.385
4404.916
4374.785
4354.858
4347.305
4352.799
4371.039
4401.053
4441.938
4491.371
4547.934
4610.052
4676.668
4746.813
4819.579
4893.865
4968.846
5043.191
5115.759
5183.297
5244.99
5304.005
5361.88
5416.982
5467.849
5515.21
5560.526
5604.428
5646.708
5686.904
5724.614
5759.498
5791.195
5819.292
5843.43
5863.354
5878.833
5889.785
5896.266
5897.988
5894.034
5883.688
5866.099
5838.126
5796.965
5742.609
5676.964
5602.227
5524.953
5453.819
5390.999
5333.713
5280.542
5232.784
5192.677
5162.054
5141.938
5132.435
5133.07
5142.844
5160.457
5184.508
5213.609
5246.569
5282.894
5322.385
5364.647
5409.78
5457.526
5507.106
5557.536
5607.891
5657.266
5705.26
5753.72
5806.201
5863.521
5923.83
5985.387
6047.216
6108.252
6167.092
6223.312
6276.197
6324.775
6369.811
6410.032
6443.625
6474.562
6505.71
6534.709
6560.159
6582.858
6603.705
6623.026
6639.511
6651.174
6660.166
6672.209
6689.037
6705.681
6717.594
6724.565
6728.499
6731.446
6733.364
6732.763
6729.294
6724.997
6721.691
6720.347
6721.761
6726.19
6733.469
6743.346
6755.496
6769.442
6785.171
6801.424
6818.396
6835.668
6852.928
6869.932
6886.48
6902.39
6917.536
6931.841
6945.253
6957.749
6969.386
6980.153
6990.093
6999.263
7007.707
7015.459
7022.568
7029.085
7035.054
7040.517
7045.518
7050.095
7054.286
7058.127
7061.654
7064.906
7067.916
7070.737
7073.293
7075.573
7077.697
7079.696
7081.569
7083.315
7084.937
7086.45
7087.872
7089.218
7090.498
7091.721
7092.895
7094.029
7095.129
7096.201
7097.251
7098.286
7099.311
7100.331
7101.35
7102.373
7103.402
7104.44
7105.487
7106.544
7107.611
7108.688
7109.774
7110.869
7111.979
7113.117
7114.314
7115.621
7117.117
7118.897
7121.034
7123.474
7126.064
7128.683
7131.291
7133.882
7136.449
7138.985
7141.485
7143.945
7146.363
7148.736
7151.065
7153.348
7155.583
7157.77
7159.909
7161.999
7164.041
7166.034
7167.98
7169.877
7171.727
7173.53
7175.286
7176.996
7178.659
7180.278
7181.849
7183.374
7184.847
7186.273
7187.628
7188.906
7190.082
7191.21
7192.303
7193.332
7194.303
7195.238
7196.144
7197.01
7197.827
7198.594
7199.312
7199.979
7200.592
7201.148
7201.645
7202.082
7202.46
7202.777
7203.034
7203.232
7203.372
7203.453
7203.478
7203.448
7203.362
7203.224
7203.034
7202.793
7202.503
7202.166
7201.783
7201.356
7200.887
7200.377
7199.828
7199.241
7198.619
7197.963
7197.275
7196.554
7195.8
7195.01
7194.177
7193.292
7192.34
7191.304
7190.17
7188.938
7187.637
7186.294
7184.922
7183.513
7182.071
7180.601
7179.127
7177.576
7175.906
7174.189
7172.481
7170.789
7169.105
7167.42
7165.733
7164.044
7162.352
7160.655
7158.954
7157.25
7155.544
7153.835
7152.125
7150.414
7148.705
7146.998
7145.295
7143.598
7141.908
7140.226
7138.556
7136.898
7135.254
7133.626
7132.014
7130.421
7128.848
7127.296
7125.766
7124.259
7122.775
7121.316
7119.882
7118.473
7117.09
7115.733
7114.401
7113.094
7111.813
7110.556
7109.323
7108.113
7106.925
7105.758
7104.61
7103.481
7102.368
7101.27
7100.184
7099.109
7098.041
7096.98
7095.921
7094.862
7093.799
7092.729
7091.648
7090.551
7089.435
7088.294
7087.123
7085.915
7084.665
7083.364
7082.007
7080.583
7079.083
7077.499
7075.819
7074.034
7072.136
7070.123
7068.003
7065.803
7063.588
7061.443
7059.524
7057.945
7056.951
7056.633
7057.193
3513.458
3467.529
3422.264
3352.956
3291.237
3196.982
3138.973
3081.571
3026.945
2975.356
2927.275
2884.858
2846.377
2813.888
2788.726
2770.655
2698.927
2701.143
2712.14
2726.625
2739.721
2756.367
2782.31
2820.47
2871.727
2934.938
3009.574
3097.138
3196.383
3306.739
3427.832
3559.207
3700.365
3850.858
4010.181
4177.58
4352.222
4533.369
4719.698
4908.482
5096.463
5281.654
5454.494
5629.726
5793.536
5944.137
6077.914
6191.569
6283.029
6350.85
6394.49
6414.206
6409.666
6381.148
6330.749
6260.997
6175.127
6075.571
5965.291
5847.819
5724.291
5596.092
5468.409
5344.149
5224.078
5108.697
4998.545
4894.006
4795.125
4701.698
4613.452
4530.065
4451.346
4377.148
4307.298
4241.579
4180.019
4122.513
4069.698
4022.003
3980.618
3945.749
3917.329
3896.239
3883.305
3878.628
3881.947
3893.12
3912.038
3938.113
3970.713
4009.239
4052.805
4100.301
4150.486
4202.058
4253.684
4304.166
4352.364
4397.076
4437.575
4473.693
4505.243
4531.828
4552.761
4567.413
4575.313
4575.943
4569.031
4554.162
4531.304
4500.895
4463.532
4420.308
4372.462
4321.234
4268.034
4214.046
4161.286
4113.67
4075.485
4049.964
4039.095
4043.3
4062.139
4094.702
4139.207
4193.148
4254.195
4320.378
4390.481
4463.556
4538.703
4614.998
4691.623
4767.425
4841.244
4911.751
4978.366
5041.921
5103.249
5162.034
5217.656
5270.242
5320.415
5368.583
5414.698
5458.446
5499.465
5537.39
5571.808
5602.368
5628.61
5650.042
5666.279
5676.976
5681.835
5680.487
5672.12
5655.672
5630.249
5594.619
5547.609
5489.198
5421.16
5346.367
5269.136
5194.506
5124.958
5060.261
5000.477
4947.35
4903.218
4870.157
4849.495
4841.188
4844.229
4857.293
4878.611
4906.706
4940.058
4975.656
5012.695
5052.095
5093.159
5137.021
5183.768
5232.573
5282.546
5332.91
5383.156
5433.813
5486.367
5541.662
5599.283
5658.447
5718.71
5779.555
5840.052
5899.183
5956.1
6009.863
6059.624
6105.305
6146.44
6182.582
6215.611
6247.09
6276.006
6301.775
6325.341
6346.971
6366.087
6382.572
6396.913
6410.91
6426.479
6442.365
6455.479
6465.665
6474.686
6482.333
6487.162
6488.593
6487.231
6484.63
6482.4
6481
6480.501
6481.649
6485.34
6491.9
6501.223
6512.98
6526.764
6542.061
6558.756
6575.917
6593.263
6610.575
6627.616
6644.187
6660.092
6675.23
6689.57
6702.905
6715.269
6726.791
6737.421
6747.208
6756.208
6764.473
6772.055
6779.009
6785.388
6791.226
6796.562
6801.441
6805.906
6809.994
6813.741
6817.179
6820.342
6823.254
6825.941
6828.386
6830.653
6832.767
6834.725
6836.536
6838.22
6839.793
6841.269
6842.66
6843.979
6845.235
6846.438
6847.594
6848.712
6849.798
6850.859
6851.899
6852.926
6853.945
6854.96
6855.976
6856.998
6858.026
6859.066
6860.122
6861.194
6862.286
6863.397
6864.532
6865.696
6866.896
6868.149
6869.482
6870.931
6872.547
6874.381
6876.468
6878.78
6881.231
6883.742
6886.271
6888.803
6891.325
6893.829
6896.306
6898.749
6901.157
6903.524
6905.85
6908.131
6910.367
6912.556
6914.698
6916.792
6918.838
6920.836
6922.785
6924.687
6926.541
6928.347
6930.107
6931.819
6933.485
6935.103
6936.674
6938.196
6939.666
6941.082
6942.435
6943.725
6944.965
6946.145
6947.238
6948.245
6949.206
6950.145
6951.059
6951.935
6952.761
6953.536
6954.259
6954.927
6955.54
6956.095
6956.59
6957.026
6957.401
6957.716
6957.97
6958.165
6958.3
6958.378
6958.397
6958.361
6958.269
6958.123
6957.925
6957.675
6957.376
6957.028
6956.633
6956.194
6955.711
6955.185
6954.62
6954.015
6953.372
6952.693
6951.978
6951.226
6950.436
6949.605
6948.729
6947.799
6946.807
6945.742
6944.597
6943.376
6942.09
6940.755
6939.383
6937.974
6936.53
6935.047
6933.522
6931.938
6930.296
6928.629
6926.959
6925.288
6923.609
6921.921
6920.224
6918.522
6916.815
6915.104
6913.388
6911.669
6909.948
6908.225
6906.501
6904.778
6903.056
6901.338
6899.625
6897.918
6896.219
6894.529
6892.852
6891.187
6889.537
6887.904
6886.289
6884.692
6883.117
6881.563
6880.032
6878.525
6877.043
6875.586
6874.155
6872.75
6871.372
6870.021
6868.697
6867.399
6866.127
6864.881
6863.659
6862.462
6861.288
6860.136
6859.005
6857.893
6856.799
6855.72
6854.655
6853.602
6852.558
6851.521
6850.488
6849.456
6848.421
6847.381
6846.332
6845.27
6844.19
6843.088
6841.959
6840.798
6839.599
6838.356
6837.062
6835.713
6834.299
6832.816
6831.258
6829.62
6827.904
6826.115
6824.27
6822.401
6820.559
6818.815
6817.263
6815.994
6815.141
6814.742
6814.893
3854.34
3803.59
3748.351
3679.924
3624.677
3533.368
3479.046
3423.901
3367.42
3310.118
3253.027
3195.966
3137.709
3079.311
3018.422
2887.856
2828.894
2772.063
2717.156
2665.08
2616.372
2571.898
2532.26
2498.334
2470.419
2449.307
2435.329
2430.495
2432.968
2440.847
2453.609
2473.577
2502.697
2542.266
2592.826
2655.481
2730.179
2816.457
2914.072
3022.691
3141.888
3271.162
3410.04
3558.155
3715.119
3880.189
4052.288
4229.859
4411.771
4596.315
4781.58
4968.234
5146.251
5318.716
5480.666
5628.825
5759.661
5870.193
5958.237
6022.426
6062.099
6077.428
6068.869
6037.206
5984.287
5912.374
5825.273
5725.613
5615.307
5497.017
5372.918
5246.036
5121.371
5001.341
4886.514
4777.102
4673.365
4575.378
4482.824
4395.231
4312.233
4233.602
4159.022
4088.223
4020.942
3956.848
3896.051
3838.928
3786.135
3737.804
3694.303
3656.721
3626.504
3604.802
3591.907
3587.564
3591.6
3604.22
3625.552
3655.138
3692.258
3736.2
3785.995
3840.295
3897.557
3956.225
4014.816
4071.812
4125.897
4175.737
4220.474
4259.794
4293.583
4321.882
4344.122
4359.307
4366.681
4365.885
4356.548
4338.472
4311.623
4275.704
4231.702
4181.262
4125.572
4065.789
4003.054
3938.005
3872.245
3810.557
3760.069
3726.189
3711.063
3714.589
3735.52
3772.131
3822.436
3883.347
3950.881
4022.32
4096.79
4173.577
4251.907
4331.069
4410.229
4488.356
4564.612
4638.342
4709.096
4777.006
4842.49
4905.618
4966.139
5023.984
5079.352
5132.424
5183.151
5231.267
5276.411
5318.194
5356.169
5389.845
5418.697
5442.197
5459.764
5470.828
5474.767
5470.936
5458.602
5436.606
5404.195
5361.078
5306.889
5241.894
5168.212
5088.831
5007.264
4927.408
4851.165
4778.758
4711.408
4651.983
4603.311
4567.927
4547.472
4541.402
4547.649
4565.38
4591.92
4626.755
4666.926
4703.919
4740.675
4781.353
4820.463
4862.675
4908.691
4957.004
5006.607
5056.806
5107.183
5158.749
5214.587
5272.788
5331.093
5390.094
5450.218
5510.966
5571.464
5630.899
5688.416
5743.026
5793.935
5840.808
5883.486
5921.782
5956.456
5988.46
6017.755
6044.298
6068.476
6090.345
6110.015
6128.135
6145.124
6161.031
6176.037
6190.102
6202.946
6214.914
6225.987
6234.64
6239.712
6242.356
6243.886
6244.236
6243.512
6242.575
6242.441
6244.266
6248.743
6255.616
6264.696
6275.969
6289.264
6304.143
6320.157
6336.773
6353.706
6370.653
6387.384
6403.694
6419.4
6434.357
6448.493
6461.621
6473.779
6485.056
6495.462
6505.03
6513.807
6521.846
6529.215
6535.964
6542.139
6547.788
6552.954
6557.679
6562.003
6565.961
6569.587
6572.911
6575.965
6578.77
6581.353
6583.731
6585.932
6587.967
6589.846
6591.589
6593.214
6594.738
6596.173
6597.53
6598.818
6600.049
6601.229
6602.365
6603.465
6604.536
6605.585
6606.616
6607.635
6608.648
6609.659
6610.674
6611.698
6612.728
6613.775
6614.843
6615.936
6617.055
6618.204
6619.389
6620.616
6621.895
6623.241
6624.676
6626.226
6627.922
6629.794
6631.854
6634.086
6636.443
6638.873
6641.338
6643.819
6646.301
6648.773
6651.226
6653.652
6656.047
6658.407
6660.727
6663.006
6665.241
6667.431
6669.575
6671.672
6673.721
6675.722
6677.676
6679.581
6681.439
6683.25
6685.013
6686.728
6688.396
6690.017
6691.589
6693.111
6694.581
6695.997
6697.357
6698.659
6699.903
6701.077
6702.174
6703.209
6704.203
6705.166
6706.093
6706.975
6707.806
6708.583
6709.307
6709.975
6710.587
6711.14
6711.634
6712.067
6712.44
6712.752
6713.004
6713.195
6713.326
6713.398
6713.413
6713.37
6713.271
6713.117
6712.91
6712.652
6712.342
6711.983
6711.576
6711.124
6710.626
6710.085
6709.502
6708.878
6708.214
6707.511
6706.769
6705.988
6705.165
6704.299
6703.385
6702.419
6701.394
6700.304
6699.147
6697.923
6696.641
6695.308
6693.933
6692.517
6691.063
6689.567
6688.029
6686.452
6684.835
6683.19
6681.527
6679.85
6678.162
6676.462
6674.753
6673.037
6671.316
6669.59
6667.859
6666.124
6664.387
6662.648
6660.909
6659.171
6657.435
6655.703
6653.977
6652.258
6650.547
6648.848
6647.16
6645.486
6643.828
6642.187
6640.565
6638.964
6637.383
6635.826
6634.292
6632.784
6631.301
6629.844
6628.415
6627.013
6625.639
6624.293
6622.974
6621.684
6620.421
6619.185
6617.975
6616.791
6615.631
6614.495
6613.381
6612.287
6611.212
6610.155
6609.113
6608.084
6607.065
6606.055
6605.051
6604.05
6603.048
6602.043
6601.03
6600.007
6598.97
6597.913
6596.834
6595.726
6594.587
6593.409
6592.19
6590.924
6589.606
6588.233
6586.804
6585.319
6583.781
6582.203
6580.603
6579.01
6577.466
6576.028
6574.758
6573.731
6573.008
6572.63
6572.639
3825.419
3789.474
3755.853
3699.755
3636.123
3574.004
3513.4
3455.977
3401.186
3345.709
3220.598
3166.013
3111.628
3056.299
2999.828
2942.495
2884.469
2825.549
2766.014
2706.76
2649.234
2590.717
2533.268
2477.244
2423.557
2372.772
2325.195
2281.57
2243.108
2210.516
2184.532
2166.416
2156.238
2153.603
2158.48
2170.892
2191.899
2222.474
2263.154
2314.69
2377.357
2451.409
2536.676
2632.973
2739.999
2857.356
2984.565
3121.17
3266.861
3421.096
3582.703
3750.275
3922.915
4101.042
4282.077
4465.147
4647.242
4823.583
4992.01
5149.531
5292.492
5417.531
5521.937
5603.574
5661.269
5694.419
5703.476
5689.16
5652.935
5596.967
5523.82
5435.259
5333.655
5222.905
5105.215
4983.778
4862.252
4743.866
4630.59
4523.273
4422.095
4327.105
4237.991
4153.886
4073.942
3997.726
3925.041
3855.552
3788.891
3724.701
3662.52
3602.54
3545.441
3491.716
3441.434
3395.04
3354.058
3321.292
3298.733
3286.08
3282.288
3287.144
3301.618
3326.293
3360.565
3403.591
3454.673
3512.756
3576.192
3643.013
3711.253
3778.995
3844.475
3906.108
3962.478
4012.309
4055.341
4092.01
4122.256
4145.501
4160.964
4167.75
4165.589
4154.092
4132.661
4100.693
4057.701
4005.422
3946.378
3881.743
3812.398
3738.817
3659.877
3576.3
3495.354
3428.612
3383.834
3363.556
3367.452
3392.529
3435.32
3493.516
3564.122
3640.821
3718.978
3798.611
3879.685
3961.665
4044.243
4126.561
4207.668
4286.987
4364.147
4438.874
4511.152
4581.167
4649.005
4714.554
4777.709
4838.465
4896.829
4952.685
5005.756
5055.665
5101.953
5144.095
5181.527
5213.592
5239.664
5258.952
5270.674
5274.077
5268.445
5252.717
5225.495
5186.245
5135.35
5072.806
4999.021
4916.8
4829.427
4740.372
4653.955
4571.054
4490.649
4414.606
4347.795
4294.072
4256.614
4237.929
4236.927
4245.735
4267.917
4302.678
4351.294
4398.395
4434.368
4469.657
4511.002
4548.002
4588.462
4634.207
4682.619
4732.279
4782.383
4833.13
4887.53
4944.611
5002.226
5059.827
5118.64
5178.945
5240.019
5301.174
5361.657
5420.414
5476.278
5528.555
5576.97
5621.295
5661.343
5697.537
5730.576
5760.73
5788.071
5812.869
5835.46
5856.161
5875.323
5892.924
5908.931
5923.906
5938.36
5952.2
5964.89
5975.885
5984.692
5991.442
5996.954
6001.421
6004.214
6005.575
6006.981
6009.284
6012.577
6017.32
6024.067
6032.941
6043.937
6056.901
6071.217
6086.358
6102.044
6118.046
6134.135
6150.119
6165.812
6180.939
6195.291
6208.813
6221.451
6233.207
6244.108
6254.173
6263.43
6271.922
6279.699
6286.815
6293.315
6299.245
6304.665
6309.627
6314.166
6318.318
6322.119
6325.599
6328.789
6331.716
6334.404
6336.878
6339.158
6341.26
6343.202
6345.002
6346.677
6348.244
6349.717
6351.106
6352.423
6353.679
6354.881
6356.039
6357.157
6358.242
6359.301
6360.339
6361.363
6362.377
6363.387
6364.399
6365.418
6366.456
6367.486
6368.544
6369.629
6370.745
6371.894
6373.081
6374.314
6375.598
6376.945
6378.366
6379.878
6381.501
6383.253
6385.149
6387.196
6389.381
6391.676
6394.044
6396.457
6398.894
6401.339
6403.782
6406.212
6408.621
6411.004
6413.354
6415.669
6417.944
6420.178
6422.368
6424.514
6426.613
6428.666
6430.671
6432.629
6434.539
6436.402
6438.217
6439.984
6441.704
6443.376
6445
6446.575
6448.1
6449.574
6450.994
6452.359
6453.667
6454.915
6456.099
6457.221
6458.289
6459.31
6460.287
6461.22
6462.105
6462.938
6463.718
6464.443
6465.111
6465.723
6466.275
6466.768
6467.2
6467.571
6467.881
6468.129
6468.317
6468.444
6468.511
6468.52
6468.471
6468.365
6468.204
6467.988
6467.72
6467.399
6467.029
6466.61
6466.144
6465.631
6465.074
6464.473
6463.83
6463.144
6462.418
6461.65
6460.841
6459.988
6459.09
6458.144
6457.146
6456.092
6454.98
6453.807
6452.575
6451.288
6449.951
6448.569
6447.146
6445.682
6444.178
6442.637
6441.059
6439.446
6437.802
6436.135
6434.451
6432.754
6431.043
6429.323
6427.594
6425.857
6424.115
6422.367
6420.615
6418.86
6417.104
6415.347
6413.592
6411.84
6410.092
6408.35
6406.617
6404.892
6403.179
6401.479
6399.794
6398.125
6396.475
6394.844
6393.235
6391.648
6390.084
6388.546
6387.034
6385.549
6384.091
6382.662
6381.261
6379.89
6378.548
6377.235
6375.951
6374.697
6373.471
6372.272
6371.101
6369.955
6368.835
6367.738
6366.664
6365.61
6364.575
6363.557
6362.554
6361.564
6360.584
6359.611
6358.644
6357.678
6356.712
6355.741
6354.762
6353.772
6352.767
6351.742
6350.695
6349.621
6348.517
6347.378
6346.202
6344.986
6343.729
6342.432
6341.097
6339.731
6338.347
6336.963
6335.605
6334.307
6333.115
6332.07
6331.23
6330.624
6330.292
6330.257
3580.72
3524.935
3400.146
3345.977
3290.112
3235.267
3181.845
3129.65
3078.167
3027.186
2976.993
2925.019
2871.874
2817.398
2761.673
2704.59
2646.301
2586.935
2526.645
2466.218
2407.244
2348.411
2289.938
2231.998
2175.18
2120.705
2069.541
2022.463
1980.375
1944.649
1916.269
1895.608
1882.931
1878.215
1881.708
1893.696
1914.779
1945.432
1986.341
2037.757
2099.971
2173.149
2257.272
2352.175
2457.551
2573.037
2698.174
2832.412
2975.228
3125.219
3281.539
3443.702
3612.23
3786.526
3964.12
4142.992
4319.962
4491.154
4653.241
4803.27
4937.867
5053.879
5148.877
5221.003
5269.483
5294.036
5295.652
5275.786
5235.671
5176.153
5099.869
5009.188
4906.403
4796.685
4682.619
4566.652
4451.683
4340.446
4235.146
4137.02
4046.149
3961.956
3883.664
3809.773
3738.949
3671.047
3605.632
3542.494
3481.015
3420.329
3359.931
3300.711
3243.678
3188.594