/*--------------------------------*- C++ -*----------------------------------*\
| =========                 |                                                 |
| \\      /  F ield         | foam-extend: Open Source CFD                    |
|  \\    /   O peration     | Version:     3.1                                |
|   \\  /    A nd           | Web:         http://www.extend-project.de       |
|    \\/     M anipulation  |                                                 |
\*---------------------------------------------------------------------------*/
FoamFile
{
    version     2.0;
    format      ascii;
    class       volScalarField;
    location    "9.5";
    object      pd;
}
// * * * * * * * * * * * * * * * * * * * * * * * * * * * * * * * * * * * * * //

dimensions      [1 -1 -2 0 0 0 0];

internalField   nonuniform List<scalar> 
119952
(
7092.85
6366.824
6296.985
6445.318
6592.924
6558.45
6574.982
6601.749
6634.602
6668.931
6703.837
6738.447
6771.903
6803.544
6832.442
6858.142
6879.466
6894.579
6897.937
6856.619
7061.954
6923.471
6880.886
7128.673
7068.19
7072.846
7078.351
7126.656
7416.186
8329.089
5677.718
5688.268
5728.808
5763.168
5794.241
5821.556
5845.145
5860.479
5874.055
5878.612
5872.033
5874.961
5862.634
5845.192
5822.888
5796.091
5765.844
5734.865
5700.951
5667.893
5640.227
5599.475
5573.712
5558.839
5552.633
5555.549
5569.536
5593.367
5628.562
5660.82
5705.463
5761.973
5821.039
5883.418
5948.949
6017.169
6092.437
6197.265
6345.545
6311.84
6360.828
6446.042
6510.465
6548.833
6574.711
6606.698
6641.366
6676.273
6711.374
6745.862
6778.892
6809.919
6838.546
6863.188
6883.894
6899.439
6909.889
6919.022
6933.273
6942.498
6941.083
6977.85
7042.087
7038.73
7025.115
7007.992
6930.718
6692.306
6604.199
6587.457
6548.925
6510.259
6471.605
6433.464
6398.614
6368.882
6345.464
6329.427
6321.25
6320.986
6328.35
6342.809
6363.887
6391.122
6424.143
6462.683
6506.591
6555.721
6609.949
6669.245
6732.844
6796.527
6847.312
6869.15
6872.368
6901.315
6966.99
7037.886
7107.016
7172.858
7233.912
7291.637
7347.375
7402.416
7456.889
7508.285
7552.336
7572.332
7592.566
7634.198
7664.844
7686.532
7710.137
7729.331
7739.89
7747.61
7751.722
7754.252
7761.341
7775.519
7791.725
7805.888
7815.554
7821.247
7824.183
7825.276
7825.017
7824.016
7823.025
7822.799
7823.971
7826.96
7832.007
7839.223
7848.608
7860.004
7873.092
7887.64
7903.193
7919.432
7936.047
7952.759
7969.324
7985.539
8001.238
8016.296
8030.624
8044.163
8056.88
8068.766
8079.83
8090.095
8099.592
8108.357
8116.423
8123.856
8130.68
8136.937
8142.669
8147.914
8152.709
8157.088
8161.078
8164.697
8167.959
8170.927
8174.294
8178.297
8179.642
8181.892
8184.026
8185.959
8187.738
8189.393
8190.931
8192.375
8193.737
8195.03
8196.262
8197.444
8198.582
8199.684
8200.759
8201.811
8202.847
8203.873
8204.893
8205.91
8206.926
8207.945
8208.968
8209.995
8211.023
8212.049
8213.065
8214.063
8215.022
8215.914
8216.694
8217.274
8217.482
8216.837
8215.469
8220.539
8224.39
8227.818
8230.91
8233.843
8236.647
8239.357
8241.993
8244.563
8247.072
8249.524
8251.921
8254.264
8256.556
8258.798
8260.988
8263.129
8265.22
8267.263
8269.257
8271.203
8273.103
8274.956
8276.763
8278.526
8280.244
8281.919
8283.55
8285.141
8286.691
8288.206
8289.708
8291.157
8292.418
8301.411
8298.756
8295.928
8297.205
8298.12
8298.8
8299.649
8300.505
8301.307
8302.077
8302.812
8303.498
8304.134
8304.713
8305.233
8305.692
8306.093
8306.433
8306.715
8306.938
8307.104
8307.213
8307.267
8307.268
8307.216
8307.112
8306.957
8306.754
8306.503
8306.207
8305.867
8305.485
8305.062
8304.601
8304.103
8303.572
8303.01
8302.42
8301.806
8301.175
8300.535
8299.898
8299.285
8298.727
8298.208
8297.472
8296.169
8294.601
8293.158
8291.779
8290.417
8289.1
8287.689
8285.854
8281.506
8281.161
8280.616
8278.967
8277.358
8275.755
8274.126
8272.494
8270.857
8269.217
8267.567
8265.911
8264.25
8262.583
8260.91
8259.23
8257.545
8255.857
8254.165
8252.472
8250.78
8249.091
8247.406
8245.727
8244.055
8242.394
8240.744
8239.108
8237.486
8235.88
8234.292
8232.722
8231.173
8229.644
8228.137
8226.652
8225.19
8223.752
8222.337
8220.945
8219.578
8218.234
8216.913
8215.616
8214.34
8213.087
8211.854
8210.64
8209.446
8208.268
8207.106
8205.958
8204.822
8203.696
8202.578
8201.464
8200.353
8199.241
8198.124
8197
8195.863
8194.709
8193.534
8192.33
8191.093
8189.814
8188.485
8187.098
8185.64
8184.1
8182.461
8180.706
8178.812
8176.754
8174.498
8171.982
8169.152
8165.9
8162.122
8157.598
8151.954
8144.888
8137.976
8141.575
8175.261
7195.803
7082.433
6947.519
6817.395
6689.95
6566.717
6448.491
6335.377
6227.279
6116.733
6023.014
5932.696
5848.29
5769.889
5697.505
5630.794
5570.146
5514.178
5457.307
5429.535
5383.746
5348.542
5323.537
5306.954
5298.508
5297.258
5303.201
5317.844
5335.497
5353.465
5384.599
5418.332
5455.337
5494.902
5536.008
5577.949
5620.555
5667.406
5693.61
5728.755
5763.989
5794.593
5820.993
5842.837
5859.774
5871.547
5878.097
5875.088
5867.63
5855.186
5835.909
5811.26
5782.428
5750.39
5717
5685.037
5625.688
5592.373
5568.373
5548.496
5534.672
5529.94
5536.279
5553.417
5580.143
5615.622
5660.404
5710.849
5766.14
5826.493
5891.777
5961.305
6035.261
6113.476
6194.093
6269.405
6328.636
6379.026
6434.357
6489.8
6538.088
6578.932
6616.572
6653.92
6691.421
6728.377
6763.987
6797.653
6828.9
6857.261
6882.225
6903.475
6920.869
6934.78
6946.102
6955.987
6964.809
6973.434
6983.946
6991.086
6982.97
6954.278
6902.366
6822.594
6723.046
6634.422
6573.273
6525.663
6481.39
6438.115
6397.622
6362.381
6334.107
6313.697
6301.459
6298.111
6302.662
6314.538
6333.035
6357.443
6387.175
6421.887
6461.348
6505.302
6553.437
6605.039
6659.046
6714.097
6766.491
6811.528
6848.188
6883.693
6930.334
6988.593
7052.858
7117.954
7182.106
7243.603
7301.685
7357.737
7410.373
7459.829
7506.395
7543.374
7571.322
7601.264
7635.206
7663.35
7686.256
7707.708
7727.334
7740.308
7748.63
7756.215
7766.486
7781.68
7796.955
7807.565
7814.558
7820.241
7824.465
7827.147
7828.078
7827.213
7825.489
7823.828
7823.147
7824.12
7827.039
7832.124
7839.548
7849.256
7860.996
7874.628
7889.53
7905.391
7921.878
7938.68
7955.518
7972.151
7988.38
8004.04
8019.016
8033.232
8046.633
8059.187
8070.896
8081.776
8091.854
8101.166
8109.753
8117.656
8124.921
8131.59
8137.705
8143.307
8148.434
8153.126
8157.412
8161.334
8164.913
8168.218
8171.238
8174.023
8177.824
8179.132
8181.221
8183.363
8185.301
8187.098
8188.761
8190.322
8191.784
8193.164
8194.474
8195.722
8196.917
8198.072
8199.19
8200.278
8201.342
8202.389
8203.424
8204.452
8205.476
8206.499
8207.522
8208.548
8209.578
8210.609
8211.639
8212.662
8213.666
8214.638
8215.556
8216.395
8217.115
8217.701
8218.256
8219.413
8222.023
8225.261
8228.303
8231.249
8234.093
8236.846
8239.525
8242.138
8244.692
8247.19
8249.633
8252.024
8254.364
8256.653
8258.892
8261.08
8263.219
8265.309
8267.35
8269.343
8271.287
8273.185
8275.035
8276.84
8278.599
8280.314
8281.984
8283.611
8285.196
8286.741
8288.252
8289.731
8291.237
8293.279
8295.093
8296.89
8297.411
8297.544
8298.031
8298.846
8299.748
8300.604
8301.4
8302.154
8302.871
8303.543
8304.163
8304.724
8305.226
8305.668
8306.051
8306.374
8306.639
8306.844
8306.993
8307.084
8307.12
8307.101
8307.03
8306.906
8306.733
8306.51
8306.239
8305.923
8305.563
8305.16
8304.717
8304.235
8303.717
8303.164
8302.58
8301.967
8301.33
8300.672
8299.997
8299.31
8298.607
8297.871
8297.057
8296.096
8294.926
8293.596
8292.224
8290.862
8289.498
8288.121
8286.699
8285.162
8283.214
8281.204
8279.597
8278.183
8276.698
8275.096
8273.439
8271.774
8270.111
8268.446
8266.776
8265.103
8263.425
8261.744
8260.058
8258.368
8256.676
8254.981
8253.285
8251.59
8249.898
8248.209
8246.526
8244.85
8243.184
8241.528
8239.885
8238.256
8236.643
8235.047
8233.469
8231.911
8230.374
8228.858
8227.364
8225.893
8224.446
8223.022
8221.622
8220.247
8218.896
8217.568
8216.264
8214.984
8213.725
8212.488
8211.272
8210.076
8208.898
8207.736
8206.59
8205.458
8204.337
8203.225
8202.12
8201.02
8199.921
8198.821
8197.716
8196.601
8195.474
8194.33
8193.162
8191.966
8190.736
8189.464
8188.143
8186.762
8185.314
8183.783
8182.158
8180.42
8178.554
8176.528
8174.324
8171.891
8169.206
8166.199
8162.882
8159.271
8155.715
8152.851
8151.896
8153.398
8157.903
4194.555
4237.238
4300.115
4375.203
4463.867
4564.568
4677.059
4800.911
4935.737
5081.21
5234.871
5400.605
5573.442
5753.57
5939.775
6130.524
6323.6
6514.499
6706.131
6913.161
7091.286
7258.034
7411.322
7548.31
7665.716
7761.414
7833.646
7880.926
7909.378
7908.39
7883.168
7837.311
7772.544
7691.195
7595.858
7488.938
7373.48
7252.798
7117.824
6991.291
6862.075
6734.673
6610.484
6490.661
6376.146
6267.549
6165.54
6069.38
5976.446
5891.008
5810.398
5735.066
5665.359
5601.15
5542.999
5496.45
5420.527
5380.163
5349
5322.497
5301.776
5288.333
5282.621
5284.39
5293.132
5308.162
5330.061
5357.897
5389.619
5425.149
5464.295
5506.122
5549.507
5593.333
5636.634
5678.185
5717.11
5752.648
5785.078
5813.877
5838.597
5858.644
5873.439
5882.443
5885.158
5881.427
5870.917
5853.842
5830.8
5802.39
5769.402
5732.804
5693.542
5652.404
5609.722
5572.792
5543.053
5518.76
5502.502
5497.117
5503.576
5521.587
5550.493
5588.269
5634.204
5687.319
5745.957
5809.54
5877.342
5948.683
6022.362
6097.443
6171.906
6245.359
6310.817
6366.736
6421.669
6477.55
6529.949
6576.226
6618.402
6659.244
6699.534
6738.749
6776.204
6811.41
6844.001
6873.621
6899.898
6922.456
6941.147
6955.997
6967.306
6975.611
6981.199
6982.882
6980.32
6972.999
6954.352
6918.353
6865.245
6797.681
6716.721
6634.204
6565.44
6509.814
6459.496
6411.783
6368.216
6331.193
6302.379
6282.666
6272.329
6271.241
6278.541
6293.255
6314.33
6340.813
6371.937
6407.314
6446.729
6489.796
6536.176
6585.363
6636.464
6688.067
6738.775
6787.339
6831.781
6874.142
6922.872
6980.638
7043.38
7107.215
7170.574
7232.357
7291.131
7346.814
7399.147
7447.092
7491.718
7531.297
7562.608
7591.791
7622.943
7651.199
7676.187
7698.735
7717.675
7734.543
7750.869
7763.203
7770.535
7778.215
7790.065
7805.45
7821.311
7833.143
7837.623
7836.722
7833.953
7830.672
7827.406
7824.76
7823.28
7823.535
7825.865
7830.582
7837.835
7847.555
7859.529
7873.429
7888.504
7904.548
7921.26
7938.281
7955.318
7972.126
7988.507
8004.285
8019.338
8033.605
8047.04
8059.603
8071.303
8082.155
8092.194
8101.462
8110.001
8117.853
8125.063
8131.68
8137.746
8143.303
8148.391
8153.048
8157.312
8161.218
8164.803
8168.102
8171.178
8174.075
8177.048
8179.618
8181.687
8183.562
8185.382
8187.121
8188.749
8190.273
8191.707
8193.063
8194.353
8195.583
8196.764
8197.903
8199.009
8200.086
8201.141
8202.179
8203.206
8204.227
8205.247
8206.271
8207.302
8208.339
8209.383
8210.433
8211.485
8212.537
8213.583
8214.617
8215.632
8216.632
8217.639
8218.719
8220.014
8221.729
8223.987
8226.636
8229.401
8232.147
8234.848
8237.505
8240.118
8242.687
8245.208
8247.681
8250.106
8252.483
8254.811
8257.091
8259.322
8261.504
8263.637
8265.721
8267.756
8269.743
8271.682
8273.574
8275.418
8277.216
8278.968
8280.675
8282.336
8283.954
8285.526
8287.057
8288.537
8289.98
8291.348
8292.744
8293.895
8294.589
8295.352
8296.34
8297.432
8298.507
8299.509
8300.429
8301.275
8302.061
8302.795
8303.476
8304.099
8304.663
8305.167
8305.609
8305.991
8306.312
8306.574
8306.776
8306.919
8307.006
8307.036
8307.011
8306.932
8306.801
8306.618
8306.386
8306.105
8305.778
8305.406
8304.991
8304.534
8304.038
8303.504
8302.934
8302.332
8301.698
8301.035
8300.346
8299.631
8298.889
8298.11
8297.282
8296.381
8295.379
8294.247
8292.986
8291.654
8290.298
8288.928
8287.52
8286.061
8284.52
8283.076
8281.588
8279.982
8278.3
8276.586
8274.86
8273.135
8271.421
8269.719
8268.025
8266.332
8264.639
8262.945
8261.249
8259.552
8257.852
8256.151
8254.449
8252.748
8251.049
8249.353
8247.662
8245.978
8244.302
8242.636
8240.982
8239.34
8237.714
8236.104
8234.512
8232.939
8231.386
8229.854
8228.345
8226.858
8225.395
8223.956
8222.542
8221.152
8219.787
8218.447
8217.132
8215.84
8214.572
8213.328
8212.105
8210.903
8209.722
8208.559
8207.414
8206.284
8205.169
8204.065
8202.97
8201.883
8200.801
8199.72
8198.638
8197.552
8196.457
8195.35
8194.226
8193.08
8191.908
8190.702
8189.457
8188.166
8186.819
8185.408
8183.923
8182.351
8180.679
8178.893
8176.974
8174.905
8172.667
8170.248
8167.656
8164.942
8162.23
8159.745
8157.774
8156.64
8156.779
8158.461
4167.379
4130.383
4103.004
4079.635
4062.724
4058.368
4067.643
4094.361
4134.482
4151.072
4147.151
4157.521
4187.241
4233.548
4294.701
4369.034
4455.897
4553.794
4663.069
4783.523
4914.042
5054.462
5204.415
5363.729
5531.455
5706.765
5888.047
6073.841
6262.545
6451.417
6638.463
6860.448
7042.375
7207.111
7357.492
7491.426
7604.848
7696.251
7764.377
7809.119
7830.831
7827.442
7799.5
7749.792
7681.017
7595.906
7496.984
7387.184
7269.7
7147.574
7021.691
6894.477
6768.161
6644.566
6524.962
6410.24
6301.012
6197.558
6099.873
6007.701
5920.594
5838.536
5761.564
5689.593
5622.523
5560.282
5502.852
5449.854
5399.882
5359.319
5326.749
5299.443
5278.489
5265.319
5260.245
5262.906
5272.897
5290.124
5314
5343.46
5378.005
5417.055
5459.757
5504.996
5551.567
5598.306
5644.162
5688.303
5729.377
5766.544
5800.094
5829.776
5854.953
5875.007
5889.42
5897.734
5899.489
5894.3
5881.858
5862.379
5836.33
5804.287
5767.08
5725.732
5681.187
5634.948
5588.891
5546.01
5508.541
5478.41
5458.483
5450.93
5456.424
5474.664
5504.678
5545.563
5594.996
5651.559
5713.677
5780.293
5850.438
5923.204
5997.49
6072.471
6146.816
6219.384
6286.922
6348.615
6407.63
6465.505
6520.607
6571.474
6618.835
6664.151
6708.053
6750.333
6790.529
6828.239
6863.123
6894.82
6922.917
6947.055
6966.979
6982.458
6993.41
6999.891
7001.613
6997.659
6987.313
6969.724
6941.751
6900.59
6846.234
6780.589
6705.851
6628.578
6557.444
6494.624
6437.338
6384.166
6336.409
6296.302
6265.679
6245.563
6236.06
6236.695
6246.468
6264.079
6288.116
6317.138
6349.668
6385.233
6425.092
6468.05
6513.391
6561.151
6610.731
6661.161
6711.516
6760.89
6808.883
6857.337
6909.78
6966.933
7027.077
7088.78
7150.797
7211.875
7270.717
7326.937
7379.822
7428.4
7473.436
7513.657
7547.25
7578.187
7609.335
7638.334
7663.784
7686.483
7707.329
7726.651
7743.136
7754.799
7763.791
7775.834
7792.662
7809.306
7821.219
7828.19
7832.124
7835.071
7836.989
7836.388
7832.919
7828.622
7825.316
7823.972
7825.386
7829.815
7837.094
7846.971
7859.121
7873.067
7888.796
7905.049
7922.021
7939.293
7956.553
7973.557
7990.105
8006.015
8021.161
8035.466
8048.878
8061.374
8073.011
8083.778
8093.718
8102.888
8111.333
8119.084
8126.193
8132.71
8138.679
8144.142
8149.143
8153.72
8157.911
8161.752
8165.279
8168.531
8171.541
8174.362
8176.918
8179.198
8181.322
8183.321
8185.194
8186.94
8188.562
8190.075
8191.497
8192.843
8194.123
8195.346
8196.52
8197.654
8198.754
8199.826
8200.877
8201.911
8202.936
8203.956
8204.975
8205.998
8207.027
8208.065
8209.112
8210.169
8211.236
8212.313
8213.399
8214.494
8215.604
8216.742
8217.939
8219.246
8220.742
8222.522
8224.659
8227.099
8229.689
8232.308
8234.916
8237.507
8240.074
8242.61
8245.11
8247.57
8249.988
8252.361
8254.69
8256.973
8259.208
8261.395
8263.534
8265.624
8267.666
8269.659
8271.605
8273.502
8275.352
8277.155
8278.911
8280.621
8282.284
8283.903
8285.473
8286.999
8288.472
8289.898
8291.253
8292.531
8293.707
8294.835
8295.928
8296.957
8297.928
8298.863
8299.769
8300.635
8301.452
8302.219
8302.937
8303.604
8304.217
8304.773
8305.27
8305.707
8306.085
8306.402
8306.659
8306.857
8306.997
8307.078
8307.103
8307.073
8306.987
8306.849
8306.659
8306.418
8306.128
8305.791
8305.408
8304.981
8304.512
8304.002
8303.453
8302.866
8302.244
8301.588
8300.9
8300.179
8299.425
8298.635
8297.802
8296.917
8295.965
8294.929
8293.795
8292.563
8291.262
8289.919
8288.547
8287.138
8285.696
8284.226
8282.752
8281.201
8279.531
8277.814
8276.106
8274.414
8272.73
8271.045
8269.358
8267.669
8265.977
8264.28
8262.579
8260.875
8259.169
8257.46
8255.75
8254.039
8252.33
8250.623
8248.92
8247.223
8245.533
8243.851
8242.181
8240.523
8238.879
8237.251
8235.639
8234.046
8232.473
8230.921
8229.391
8227.884
8226.4
8224.941
8223.507
8222.098
8220.715
8219.358
8218.026
8216.719
8215.438
8214.181
8212.948
8211.738
8210.55
8209.383
8208.235
8207.106
8205.993
8204.895
8203.809
8202.734
8201.666
8200.605
8199.546
8198.487
8197.424
8196.354
8195.273
8194.176
8193.06
8191.919
8190.748
8189.54
8188.29
8186.989
8185.632
8184.208
8182.708
8181.124
8179.444
8177.659
8175.761
8173.747
8171.628
8169.428
8167.213
8165.068
8163.149
8161.57
8160.576
8160.258
8160.818
4781.804
4724.156
4667.867
4609.863
4548.143
4484.544
4426.536
4369.133
4314.507
4262.918
4214.838
4172.42
4133.939
4101.45
4076.289
4058.218
4047.802
4050.018
4061.015
4075.5
4088.596
4105.242
4131.185
4169.345
4220.602
4283.813
4358.449
4446.013
4545.258
4655.614
4776.707
4908.082
5049.24
5199.733
5359.056
5526.455
5701.097
5882.244
6068.573
6257.357
6445.338
6630.529
6803.369
6978.601
7142.411
7293.012
7426.789
7540.444
7631.904
7699.725
7743.365
7763.081
7758.541
7730.023
7679.624
7609.872
7524.002
7424.446
7314.166
7196.694
7073.166
6944.967
6817.284
6693.024
6572.953
6457.572
6347.42
6242.881
6144
6050.573
5962.327
5878.94
5800.221
5726.023
5656.173
5590.454
5528.894
5471.388
5418.573
5370.878
5329.493
5294.624
5266.204
5245.114
5232.18
5227.503
5230.822
5241.995
5260.913
5286.988
5319.588
5358.114
5401.68
5449.176
5499.361
5550.933
5602.559
5653.041
5701.239
5745.951
5786.45
5822.568
5854.118
5880.703
5901.636
5916.288
5924.188
5924.818
5917.906
5903.037
5880.179
5849.77
5812.407
5769.183
5721.337
5670.109
5616.909
5562.921
5510.161
5462.545
5424.36
5398.839
5387.97
5392.175
5411.014
5443.577
5488.082
5542.023
5603.07
5669.253
5739.356
5812.431
5887.578
5963.873
6040.498
6116.3
6190.119
6260.626
6327.241
6390.796
6452.124
6510.909
6566.531
6619.117
6669.29
6717.458
6763.573
6807.321
6848.34
6886.265
6920.683
6951.243
6977.485
6998.917
7015.154
7025.851
7030.71
7029.362
7020.995
7004.547
6979.124
6943.494
6896.483
6838.072
6770.034
6695.241
6618.011
6543.381
6473.833
6409.136
6349.352
6296.224
6252.092
6219.032
6198.37
6190.063
6193.103
6206.154
6227.34
6254.219
6280.94
6314.168
6356.892
6400.334
6442.011
6485.896
6532.643
6581.448
6631.42
6681.782
6732.017
6782.619
6834.868
6888.835
6945.596
7006.029
7067.386
7128.422
7188.927
7248.058
7304.975
7358.738
7408.499
7454.179
7495.315
7531.456
7564.485
7595.964
7624.88
7650.649
7674.216
7695.845
7714.962
7731.447
7745.788
7759.785
7775.354
7791.24
7804.354
7814.54
7823.561
7831.208
7836.037
7837.468
7836.106
7833.505
7831.276
7829.875
7829.377
7830.524
7834.215
7840.775
7850.098
7861.855
7875.639
7890.936
7907.631
7924.792
7942.138
7959.45
7976.491
7993.062
8008.967
8024.105
8038.445
8051.78
8064.144
8075.666
8086.296
8096.083
8105.083
8113.348
8120.93
8127.884
8134.263
8140.101
8145.437
8150.316
8154.781
8158.869
8162.616
8166.054
8169.217
8172.129
8174.816
8177.261
8179.528
8181.643
8183.6
8185.411
8187.095
8188.668
8190.144
8191.535
8192.854
8194.11
8195.313
8196.469
8197.587
8198.673
8199.734
8200.775
8201.801
8202.82
8203.835
8204.851
8205.873
8206.901
8207.941
8208.997
8210.069
8211.161
8212.272
8213.408
8214.571
8215.771
8217.024
8218.357
8219.806
8221.422
8223.256
8225.343
8227.655
8230.106
8232.617
8235.146
8237.678
8240.2
8242.704
8245.181
8247.624
8250.032
8252.399
8254.725
8257.006
8259.242
8261.431
8263.573
8265.667
8267.713
8269.711
8271.66
8273.562
8275.416
8277.222
8278.982
8280.694
8282.36
8283.978
8285.549
8287.071
8288.541
8289.957
8291.31
8292.6
8293.84
8295.02
8296.113
8297.12
8298.081
8299.02
8299.934
8300.81
8301.636
8302.411
8303.133
8303.802
8304.415
8304.97
8305.465
8305.901
8306.276
8306.591
8306.845
8307.04
8307.175
8307.253
8307.272
8307.236
8307.144
8306.998
8306.8
8306.55
8306.251
8305.903
8305.508
8305.069
8304.586
8304.06
8303.495
8302.89
8302.247
8301.568
8300.853
8300.101
8299.311
8298.48
8297.604
8296.674
8295.682
8294.617
8293.472
8292.251
8290.965
8289.63
8288.258
8286.849
8285.405
8283.922
8282.397
8280.813
8279.171
8277.504
8275.834
8274.163
8272.484
8270.796
8269.099
8267.397
8265.69
8263.979
8262.263
8260.544
8258.823
8257.1
8255.376
8253.653
8251.931
8250.213
8248.5
8246.793
8245.094
8243.404
8241.727
8240.062
8238.412
8236.779
8235.164
8233.567
8231.992
8230.438
8228.907
8227.4
8225.918
8224.461
8223.03
8221.625
8220.247
8218.896
8217.572
8216.274
8215.002
8213.756
8212.534
8211.337
8210.163
8209.011
8207.88
8206.768
8205.674
8204.595
8203.53
8202.477
8201.433
8200.396
8199.363
8198.331
8197.296
8196.256
8195.207
8194.145
8193.065
8191.963
8190.834
8189.673
8188.474
8187.231
8185.937
8184.588
8183.174
8181.691
8180.133
8178.495
8176.779
8174.99
8173.145
8171.276
8169.434
8167.69
8166.138
8164.869
8164.016
8163.617
8163.768
5361.975
5299.676
5240.989
5182.081
5126.833
5066.18
5011.859
4956.713
4900.232
4842.93
4785.84
4728.779
4670.522
4612.123
4551.234
4481.981
4423.019
4366.188
4311.281
4259.205
4210.497
4166.023
4126.385
4092.459
4064.544
4043.432
4029.454
4024.62
4027.093
4034.972
4047.734
4067.702
4096.822
4136.391
4186.951
4249.606
4324.304
4410.582
4508.197
4616.816
4736.013
4865.287
5004.165
5152.28
5309.244
5474.314
5646.413
5823.984
6005.896
6190.44
6375.705
6562.359
6740.376
6912.841
7074.791
7222.95
7353.786
7464.318
7552.362
7616.551
7656.224
7671.553
7662.994
7631.331
7578.412
7506.499
7419.398
7319.738
7209.432
7091.142
6967.043
6840.161
6715.496
6595.466
6480.639
6371.227
6267.49
6169.503
6076.949
5989.356
5906.358
5827.727
5753.147
5682.348
5615.067
5550.973
5490.176
5433.053
5380.26
5331.929
5288.428
5250.846
5220.629
5198.927
5186.032
5181.689
5185.725
5198.345
5219.677
5249.263
5286.383
5330.325
5380.12
5434.42
5491.682
5550.35
5608.941
5665.937
5720.022
5769.862
5814.599
5853.919
5887.708
5916.007
5938.247
5953.432
5960.806
5960.01
5950.673
5932.597
5905.748
5869.829
5825.827
5775.387
5719.697
5659.914
5597.179
5532.13
5466.369
5404.68
5354.191
5320.313
5305.188
5308.714
5329.645
5366.256
5416.561
5477.472
5545.006
5616.445
5690.915
5767.702
5846.032
5925.194
6004.354
6082.481
6158.737
6232.467
6303.221
6371.131
6436.615
6499.743
6560.264
6618.109
6673.477
6726.549
6777.276
6825.392
6870.536
6912.319
6950.294
6983.97
7012.822
7036.322
7053.889
7064.953
7068.892
7065.061
7052.727
7030.73
6998.316
6955.195
6901.004
6836.013
6762.336
6682.956
6601.389
6521.533
6445.29
6372.88
6305.52
6246.095
6197.427
6162.047
6141.594
6135.523
6141.752
6159.197
6182.273
6193.308
6221.944
6280.404
6332.367
6375.403
6414.588
6456.8
6502.816
6551.128
6600.728
6650.84
6700.613
6749.102
6795.378
6852.016
6919.171
6983.514
7044.323
7105.091
7165.589
7225.024
7282.541
7337.147
7388.054
7434.929
7477.61
7515.906
7550.58
7582.579
7611.873
7638.42
7662.601
7684.47
7704.14
7722.259
7739.248
7755.154
7770.161
7784.227
7797.071
7809.039
7820.112
7828.765
7833.837
7836.481
7838.011
7838.361
7837.637
7836.701
7836.567
7838.391
7842.868
7849.741
7858.821
7870.094
7883.389
7898.268
7914.283
7930.898
7947.831
7964.778
7981.509
7997.82
8013.525
8028.482
8042.618
8055.746
8067.904
8079.181
8089.587
8099.155
8107.932
8115.971
8123.34
8130.089
8136.264
8141.913
8147.079
8151.804
8156.128
8160.086
8163.712
8167.036
8170.09
8172.895
8175.478
8177.856
8180.057
8182.092
8183.971
8185.714
8187.339
8188.863
8190.298
8191.655
8192.943
8194.174
8195.354
8196.49
8197.59
8198.661
8199.71
8200.741
8201.76
8202.773
8203.784
8204.799
8205.823
8206.853
8207.9
8208.968
8210.061
8211.18
8212.33
8213.514
8214.741
8216.02
8217.366
8218.801
8220.351
8222.047
8223.919
8225.979
8228.211
8230.569
8232.998
8235.463
8237.944
8240.426
8242.898
8245.351
8247.777
8250.172
8252.532
8254.852
8257.131
8259.366
8261.556
8263.7
8265.797
8267.846
8269.847
8271.801
8273.706
8275.564
8277.375
8279.138
8280.853
8282.521
8284.142
8285.714
8287.236
8288.705
8290.122
8291.481
8292.784
8294.028
8295.202
8296.299
8297.334
8298.328
8299.291
8300.218
8301.1
8301.93
8302.708
8303.432
8304.1
8304.712
8305.265
8305.759
8306.192
8306.565
8306.877
8307.128
8307.32
8307.451
8307.523
8307.538
8307.495
8307.396
8307.242
8307.035
8306.776
8306.467
8306.108
8305.701
8305.249
8304.751
8304.21
8303.627
8303.003
8302.339
8301.636
8300.894
8300.113
8299.29
8298.424
8297.51
8296.544
8295.519
8294.429
8293.272
8292.048
8290.766
8289.433
8288.058
8286.642
8285.188
8283.692
8282.154
8280.576
8278.96
8277.315
8275.652
8273.975
8272.286
8270.587
8268.878
8267.162
8265.441
8263.715
8261.984
8260.249
8258.512
8256.773
8255.034
8253.296
8251.56
8249.828
8248.102
8246.383
8244.672
8242.972
8241.285
8239.611
8237.953
8236.312
8234.69
8233.089
8231.508
8229.951
8228.417
8226.908
8225.425
8223.969
8222.54
8221.138
8219.764
8218.418
8217.099
8215.809
8214.546
8213.31
8212.1
8210.916
8209.756
8208.62
8207.506
8206.412
8205.337
8204.28
8203.238
8202.209
8201.19
8200.18
8199.176
8198.175
8197.173
8196.168
8195.155
8194.132
8193.095
8192.038
8190.959
8189.851
8188.712
8187.534
8186.315
8185.049
8183.731
8182.358
8180.929
8179.444
8177.906
8176.328
8174.728
8173.135
8171.591
8170.153
8168.883
8167.856
8167.133
8166.755
8166.764
5573.668
5567.537
5533.915
5477.817
5414.186
5352.067
5291.463
5234.04
5179.248
5123.771
5059.973
5005.388
4951.003
4895.674
4839.203
4781.87
4723.844
4664.924
4605.389
4546.135
4488.609
4430.092
4372.643
4316.619
4262.933
4212.147
4164.57
4120.945
4082.484
4049.892
4023.907
4005.791
3995.613
3992.978
3997.855
4010.267
4031.274
4061.849
4102.529
4154.065
4216.732
4290.784
4376.051
4472.348
4579.374
4696.731
4823.94
4960.546
5106.236
5260.471
5422.078
5589.65
5762.29
5940.417
6121.452
6304.522
6486.617
6662.958
6831.385
6988.906
7131.867
7256.906
7361.312
7442.949
7500.644
7533.794
7542.851
7528.535
7492.31
7436.342
7363.195
7274.634
7173.03
7062.28
6944.59
6823.153
6701.627
6583.241
6469.965
6362.648
6261.47
6166.48
6077.366
5993.261
5913.317
5837.101
5764.416
5694.927
5628.266
5564.076
5501.895
5441.915
5384.816
5331.091
5280.809
5234.415
5193.433
5160.667
5138.108
5125.455
5121.663
5126.519
5140.993
5165.668
5199.94
5242.966
5294.047
5352.131
5415.567
5482.388
5550.628
5618.37
5683.85
5745.483
5801.853
5851.684
5894.716
5931.385
5961.631
5984.876
6000.339
6007.125
6004.964
5993.467
5972.036
5940.068
5897.076
5844.797
5785.753
5721.118
5651.77
5578.167
5499.123
5415.22
5334.25
5267.706
5223.15
5202.927
5206.827
5231.904
5274.695
5332.891
5403.497
5480.195
5558.352
5637.982
5719.051
5801.016
5883.59
5965.922
6047.041
6126.362
6203.522
6278.249
6350.527
6420.542
6488.38
6553.929
6617.084
6677.84
6736.204
6792.06
6845.131
6895.04
6941.328
6983.47
7020.902
7052.967
7079.039
7098.327
7110.049
7113.451
7107.819
7092.081
7064.826
7025.549
6974.663
6912.149
6838.387
6756.173
6668.8
6579.74
6493.27
6410.117
6328.943
6252.825
6186.449
6133.132
6095.843
6077.188
6076.13
6084.268
6100.535
6089.214
6067.851
6169.031
6261.128
6308.463
6350.373
6387.377
6427.837
6473.582
6521.992
6571.619
6621.1
6657.678
6625.612
6697.551
6816.249
6896.979
6957.969
7018.319
7079.393
7140.544
7200.989
7259.729
7315.62
7367.924
7416.343
7460.667
7500.708
7536.879
7569.924
7600.096
7627.445
7652.244
7674.834
7695.534
7714.688
7732.286
7748.299
7763.28
7777.735
7791.575
7804.265
7815.26
7824.067
7830.817
7836.329
7840.796
7843.589
7844.95
7846.356
7848.659
7851.952
7856.695
7863.442
7872.316
7883.312
7896.276
7910.592
7925.733
7941.419
7957.421
7973.51
7989.494
8005.187
8020.314
8034.666
8048.188
8060.826
8072.582
8083.483
8093.548
8102.805
8111.297
8119.074
8126.19
8132.69
8138.62
8144.04
8149.002
8153.541
8157.693
8161.494
8164.974
8168.164
8171.091
8173.779
8176.253
8178.533
8180.635
8182.577
8184.377
8186.052
8187.62
8189.092
8190.481
8191.798
8193.054
8194.256
8195.414
8196.533
8197.617
8198.676
8199.714
8200.738
8201.752
8202.762
8203.774
8204.793
8205.831
8206.861
8207.919
8209.004
8210.12
8211.269
8212.456
8213.689
8214.973
8216.32
8217.741
8219.253
8220.876
8222.628
8224.525
8226.571
8228.756
8231.051
8233.419
8235.832
8238.269
8240.714
8243.157
8245.587
8247.997
8250.379
8252.729
8255.044
8257.319
8259.553
8261.744
8263.889
8265.988
8268.041
8270.046
8272.004
8273.914
8275.777
8277.592
8279.359
8281.079
8282.751
8284.375
8285.95
8287.475
8288.949
8290.369
8291.734
8293.042
8294.29
8295.474
8296.596
8297.664
8298.685
8299.662
8300.595
8301.48
8302.313
8303.092
8303.817
8304.486
8305.098
8305.65
8306.143
8306.575
8306.946
8307.255
8307.504
8307.691
8307.819
8307.886
8307.895
8307.846
8307.74
8307.578
8307.362
8307.094
8306.774
8306.404
8305.985
8305.519
8305.006
8304.449
8303.848
8303.204
8302.519
8301.793
8301.025
8300.216
8299.363
8298.464
8297.518
8296.52
8295.467
8294.355
8293.182
8291.95
8290.663
8289.326
8287.944
8286.521
8285.057
8283.553
8282.012
8280.433
8278.82
8277.177
8275.51
8273.826
8272.128
8270.418
8268.698
8266.969
8265.232
8263.489
8261.742
8259.99
8258.235
8256.479
8254.722
8252.967
8251.215
8249.467
8247.725
8245.991
8244.267
8242.554
8240.854
8239.169
8237.5
8235.85
8234.219
8232.61
8231.023
8229.459
8227.921
8226.409
8224.924
8223.466
8222.037
8220.636
8219.265
8217.923
8216.61
8215.326
8214.072
8212.845
8211.647
8210.476
8209.33
8208.21
8207.113
8206.039
8204.985
8203.95
8202.932
8201.929
8200.939
8199.959
8198.986
8198.019
8197.053
8196.087
8195.116
8194.137
8193.147
8192.142
8191.117
8190.07
8188.996
8187.892
8186.753
8185.577
8184.361
8183.104
8181.807
8180.472
8179.106
8177.722
8176.338
8174.98
8173.682
8172.49
8171.445
8170.605
8169.999
8169.667
8169.632
5573.373
5548.247
5484.771
5430.602
5374.737
5319.892
5266.47
5214.275
5162.792
5111.811
5061.618
5009.644
4956.499
4902.023
4846.298
4789.215
4730.926
4671.56
4611.27
4550.843
4491.869
4433.037
4374.563
4316.623
4259.805
4205.33
4154.166
4107.088
4065
4029.274
4000.894
3980.233
3967.556
3962.841
3966.333
3978.321
3999.404
4030.057
4070.966
4122.382
4184.596
4257.774
4341.897
4436.8
4542.176
4657.662
4782.799
4917.037
5059.853
5209.844
5366.164
5528.327
5696.855
5871.151
6048.745
6227.617
6404.587
6575.779
6737.866
6887.895
7022.492
7138.504
7233.502
7305.628
7354.108
7378.661
7380.277
7360.411
7320.296
7260.778
7184.494
7093.813
6991.028
6881.31
6767.244
6651.277
6536.308
6425.071
6319.771
6221.645
6130.774
6046.581
5968.289
5894.398
5823.574
5755.672
5690.257
5627.119
5565.64
5504.954
5444.556
5385.336
5328.303
5273.219
5219.458
5168.01
5121.783
5085.738
5062.398
5050.075
5046.765
5052.209
5068.829
5097.695