/*--------------------------------*- C++ -*----------------------------------*\
| =========                 |                                                 |
| \\      /  F ield         | foam-extend: Open Source CFD                    |
|  \\    /   O peration     | Version:     3.1                                |
|   \\  /    A nd           | Web:         http://www.extend-project.de       |
|    \\/     M anipulation  |                                                 |
\*---------------------------------------------------------------------------*/
FoamFile
{
    version     2.0;
    format      ascii;
    class       surfaceScalarField;
    location    "9.5";
    object      phi;
}
// * * * * * * * * * * * * * * * * * * * * * * * * * * * * * * * * * * * * * //

dimensions      [0 3 -1 0 0 0 0];

internalField   nonuniform List<scalar> 
275122
(
-0.0002725679
0.0002745151
-2.228451e-07
-1.72439e-06
-0.0002384482
0.000226015
9.466815e-07
1.148655e-05
-0.0002305093
0.0002351364
-2.386943e-07
-4.388456e-06
-0.0002509883
0.0002565113
-3.135625e-07
-5.209424e-06
-0.0002701217
0.0002712973
-3.436877e-07
-8.319036e-07
-0.0002688013
0.0002676002
-2.927945e-07
1.493912e-06
-0.0002636783
0.0002623148
-2.694063e-07
1.63292e-06
-0.0002580695
0.0002566503
-2.712326e-07
1.690458e-06
-0.0002525121
0.0002511724
-2.271038e-07
1.566745e-06
-0.000247276
0.0002460185
-2.071181e-07
1.464582e-06
-0.0002423663
0.0002411916
-1.8685e-07
1.361582e-06
-0.0002377922
0.0002367035
-1.676658e-07
1.256386e-06
-0.0002335581
0.0002325499
-1.500771e-07
1.158264e-06
-0.0002296323
0.0002287018
-1.314275e-07
1.061936e-06
-0.0002260165
0.0002251641
-1.138166e-07
9.662684e-07
-0.0002227095
0.0002219439
-9.751242e-08
8.630626e-07
-0.0002197556
0.0002190924
-8.440076e-08
7.476438e-07
-0.0002171895
0.0002166617
-8.017264e-08
6.080195e-07
-0.0002152714
0.0002150537
-1.149443e-07
3.3268e-07
-0.0002152725
0.0002162896
-3.700443e-07
-6.470708e-07
-0.0002436521
0.0002525773
-6.337901e-07
-8.291443e-06
-0.0002595177
0.000261363
-2.37848e-07
-1.607467e-06
-0.0002691171
0.0002720308
-1.249325e-07
-2.788775e-06
-0.0003066903
0.000319503
2.459757e-07
-1.305859e-05
-0.0003276938
0.0003293939
3.464531e-07
-2.046564e-06
-0.00033755
0.0003401435
-9.46487e-08
-2.498928e-06
-0.0003465277
0.000347931
-5.467408e-08
-1.348602e-06
-0.0003502308
0.0003496095
-7.114415e-08
6.92492e-07
-0.0003354132
0.000315656
-6.381233e-08
1.982105e-05
-0.000148277
0.0001521336
2.460644e-09
-3.859143e-06
-0.000197634
0.0002074762
-5.316464e-08
-9.789066e-06
-0.0002356115
0.0002450006
5.787159e-09
-9.394891e-06
-0.0002737985
0.0002836129
6.514075e-09
-9.820974e-06
-0.000313598
0.0003238375
7.421623e-09
-1.024692e-05
-0.000355486
0.0003662761
8.596554e-09
-1.079867e-05
-0.0003995396
0.0004108455
9.133254e-09
-1.131496e-05
-0.0004456587
0.0004574814
9.170432e-09
-1.183182e-05
-0.0004937887
0.0005061297
4.207793e-09
-1.234514e-05
-0.0005439297
0.0005568095
1.606264e-09
-1.288148e-05
-0.0005962272
0.0006100049
1.800267e-07
-1.395773e-05
1.078349e-05
-0.0004154661
0.0004181359
9.14609e-10
-1.345417e-05
1.13184e-05
-0.0004265188
0.0004293081
4.057733e-10
-1.410808e-05
1.187884e-05
-0.0004373955
0.0004400414
5.747912e-11
-1.452478e-05
1.257113e-05
-0.0004474905
0.000449883
-2.333146e-10
-1.496342e-05
1.316606e-05
-0.0004566373
0.0004588295
-2.990881e-10
-1.535799e-05
1.364232e-05
-0.0004650592
0.0004670886
-1.363397e-10
-1.567164e-05
1.402606e-05
-0.0004728628
0.0004747307
-6.93843e-12
-1.589398e-05
1.419919e-05
-0.0004799708
0.0004817461
4.862566e-10
-1.597493e-05
1.48546e-05
-0.0004869267
0.0004874692
-2.429095e-10
-1.539684e-05
1.323224e-05
-0.001988463
0.00200194
-2.702276e-10
-6.656775e-05
1.333646e-05
1.321222e-05
1.331001e-05
1.355631e-05
-0.002013773
0.002023857
-1.10372e-10
-6.509531e-05
1.397093e-05
1.353836e-05
1.394622e-05
1.353381e-05
-0.002032571
0.002039776
-7.172291e-11
-6.166466e-05
1.371608e-05
1.351181e-05
1.369802e-05
1.319492e-05
-0.002046416
0.00205157
-7.551284e-11
-5.803359e-05
1.326686e-05
1.31711e-05
1.324714e-05
1.279048e-05
-0.00205587
0.002058456
-9.936616e-11
-5.372131e-05
1.279331e-05
1.277414e-05
1.277711e-05
1.218718e-05
-0.002060122
0.002060551
-1.090803e-10
-4.883625e-05
1.2034e-05
1.216876e-05
1.201806e-05
1.149897e-05
-0.00206013
0.002058124
-4.400823e-11
-4.392671e-05
1.147982e-05
1.148923e-05
1.146484e-05
1.076385e-05
-0.002055391
0.002051322
-5.394683e-11
-3.884799e-05
1.071114e-05
1.07468e-05
1.069542e-05
9.953188e-06
-0.002046678
0.002040501
-1.600757e-10
-3.383502e-05
1.007482e-05
9.933917e-06
1.004978e-05
8.344969e-06
-0.002032179
0.002026904
-2.635626e-09
-2.905369e-05
8.82676e-06
8.334851e-06
8.825052e-06
8.55326e-06
-0.002019953
0.002010612
5.516958e-10
-2.462462e-05
8.43415e-06
8.547198e-06
8.430675e-06
7.727898e-06
-0.002000679
0.001990305
-3.276289e-10
-2.010402e-05
7.509164e-06
7.731415e-06
7.510468e-06
6.937314e-06
-0.001979742
0.001968683
8.445257e-12
-1.632322e-05
6.757058e-06
6.934144e-06
6.753367e-06
6.243497e-06
-0.001957302
0.001945488
2.531447e-10
-1.284114e-05
6.088926e-06
6.237221e-06
6.085227e-06
5.613175e-06
-0.001933387
0.001920929
2.21913e-10
-9.70384e-06
5.476731e-06
5.600891e-06
5.470268e-06
5.109333e-06
-0.001908223
0.001895176
-4.129651e-11
-7.096641e-06
4.993157e-06
5.070785e-06
4.970948e-06
4.870217e-06
-0.001881882
0.001868307
-3.068853e-10
-5.459911e-06
4.794594e-06
4.707824e-06
4.662713e-06
5.383388e-06
-0.00185423
0.001839173
-3.375611e-10
-5.313925e-06
5.46458e-06
4.734396e-06
4.788934e-06
8.588333e-06
-0.001821051
0.001795361
-2.639765e-10
-5.084882e-06
9.206295e-06
6.801667e-06
6.179173e-06
-8.256837e-06
-0.001764795
0.001764006
-2.106568e-10
9.045363e-06
-8.178469e-06
-0.001763925
0.001753054
-1.685453e-10
1.904892e-05
2.879906e-06
-0.001738492
0.00172285
-1.549771e-10
1.276217e-05
1.132032e-06
-0.001707881
0.001693671
-1.131665e-10
1.307885e-05
-6.509172e-06
-0.001680065
0.001668647
-7.450515e-11
1.792688e-05
-1.367483e-05
-0.001659532
0.001650714
-5.402744e-11
2.249225e-05
-1.434019e-05
-0.001641909
0.001633435
-4.27163e-11
2.281368e-05
-1.358202e-05
-0.001625283
0.001617567
-3.436374e-11
2.129787e-05
-1.230639e-05
-0.00161017
0.001603293
-2.279485e-11
1.918357e-05
-1.065557e-05
-0.001596767
0.001590847
-6.819502e-12
1.657558e-05
-8.780052e-06
-0.001585338
0.001580522
9.149463e-12
1.359586e-05
-6.763726e-06
-0.001576159
0.001572552
2.314054e-11
1.03709e-05
-4.634904e-06
-0.001569421
0.001567096
3.325879e-11
6.959696e-06
-2.349677e-06
-0.001565234
0.001564198
3.92683e-11
3.385184e-06
-1.350998e-07
-0.001563679
0.001564144
4.147726e-11
-3.299114e-07
2.405151e-06
-0.001564984
0.001566855
4.045038e-11
-4.27657e-06
5.020062e-06
-0.001569105
0.001572507
3.740401e-11
-8.421454e-06
7.981467e-06
-0.001576236
0.001581236
3.264903e-11
-1.29813e-05
1.200002e-05
-0.001586349
0.001592669
2.826886e-11
-1.831971e-05
1.772435e-05
-0.001598465
0.001605354
2.494387e-11
-2.46132e-05
2.571515e-05
-0.00161074
0.001617019
2.357067e-11
-3.199396e-05
2.557694e-05
-0.001625985
0.00163647
1.529408e-11
-3.60613e-05
3.447703e-05
-0.001644715
0.001654199
7.993007e-12
-4.396106e-05
5.304036e-05
-0.001656994
0.0016579
-2.359922e-12
-5.39459e-05
3.850008e-05
-0.001662189
0.001671393
-7.896536e-12
-4.770449e-05
2.775207e-05
-0.001683832
0.001695064
-1.663253e-11
-3.898482e-05
2.012581e-05
-0.001705892
0.001717342
-2.106543e-11
-3.157573e-05
5.324709e-06
-0.001729528
0.001743173
-1.985158e-11
-1.896954e-05
-3.929141e-05
-0.001759478
0.001798345
-1.582856e-11
4.241941e-07
-7.057847e-06
-0.001841511
0.001857875
-1.571646e-11
3.823877e-06
-3.073016e-06
-6.993362e-06
-3.063732e-06
1.063462e-06
-0.00186833
0.001884237
-3.025459e-11
-2.053203e-05
1.292338e-06
1.029431e-06
1.239472e-06
2.763117e-06
-0.001898829
0.001912188
-1.029137e-10
-2.488308e-05
3.064943e-06
2.698172e-06
2.998069e-06
3.346286e-06
-0.001925202
0.001938056
-1.42658e-10
-2.624917e-05
3.40478e-06
3.29179e-06
3.352314e-06
3.247802e-06
-0.001950979
0.001963587
-8.216522e-11
-2.543422e-05
3.216358e-06
3.19582e-06
3.166367e-06
2.837193e-06
-0.001976065
0.001987973
-3.020376e-11
-2.297715e-05
2.753883e-06
2.779517e-06
2.698317e-06
2.229332e-06
-0.001999589
0.002010358
-1.886963e-11
-1.936935e-05
2.120563e-06
2.179757e-06
2.071126e-06
1.489671e-06
-0.002020665
0.002029945
-1.553906e-11
-1.486998e-05
1.355936e-06
1.441643e-06
1.302474e-06
6.161096e-07
-0.002038705
0.002046308
-1.46828e-11
-9.715335e-06
4.781871e-07
5.760659e-07
4.41979e-07
-2.773579e-07
-0.002053242
0.002058976
-1.483397e-11
-4.265285e-06
-4.247636e-07
-3.092985e-07
-4.568257e-07
-1.162362e-06
-0.002063988
0.002067706
-1.517955e-11
1.285007e-06
-1.309533e-06
-1.191768e-06
-1.338568e-06
-1.997197e-06
-0.002070737
0.002072518
-1.736116e-11
6.525781e-06
-2.128683e-06
-2.025463e-06
-2.155059e-06
-2.760521e-06
-0.002073615
0.002073635
-1.909298e-11
1.131214e-05
-2.880913e-06
-2.785397e-06
-2.905036e-06
-3.416614e-06
-0.002073064
0.002071608
-2.16621e-11
1.536274e-05
-3.514694e-06
-3.438934e-06
-3.537048e-06
-3.938956e-06
-0.002069673
0.002067056
-2.140891e-11
1.857053e-05
-4.01701e-06
-3.959451e-06
-4.037696e-06
-4.361875e-06
-0.00206408
0.002060573
-2.083768e-11
2.112379e-05
-4.427666e-06
-4.380737e-06
-4.446697e-06
-4.745393e-06
-0.00205679
0.002052541
-2.289478e-11
2.340136e-05
-4.813467e-06
-4.762637e-06
-4.831003e-06
-5.170626e-06
-0.002048038
0.002043039
-2.303211e-11
2.587825e-05
-5.253003e-06
-5.186251e-06
-5.269288e-06
-5.702078e-06
-0.00203774
0.002031837
-1.114279e-11
2.895183e-05
-5.807518e-06
-5.716021e-06
-5.822629e-06
-6.374442e-06
-0.002025528
0.002018483
1.531302e-11
3.282821e-05
-6.504879e-06
-6.385423e-06
-6.518742e-06
-7.208255e-06
-0.002010902
0.002002478
4.473315e-11
3.758311e-05
-7.367347e-06
-7.208682e-06
-7.374898e-06
-8.261087e-06
-0.001993368
0.001983263
7.03533e-11
4.348026e-05
-8.463392e-06
-8.217514e-06
-8.433109e-06
-9.688366e-06
-0.001972291
0.001960246
1.081347e-10
5.096328e-05
-9.970245e-06
-9.488931e-06
-9.771128e-06
-1.180241e-05
-0.001947177
0.001933115
1.845026e-10
6.080841e-05
-1.227204e-05
-1.114514e-05
-1.152693e-05
-1.524259e-05
-0.001918478
0.001903401
3.186264e-10
7.389452e-05
-1.612182e-05
-1.347163e-05
-1.398142e-05
-2.043108e-05
0.001874052
4.538531e-10
9.309607e-05
-2.228602e-05
-1.766444e-05
-1.841489e-05
-0.001888353
-2.537325e-05
-0.001860841
0.00184703
3.906867e-10
0.0001095922
-2.497123e-05
-2.20067e-05
-2.342976e-05
-2.087995e-05
-0.001832353
0.001813278
1.150382e-10
0.0001071983
-1.903596e-05
-2.462931e-05
-2.357735e-05
-1.418453e-05
-0.001787448
0.001755976
9.156551e-11
9.118573e-05
-1.332533e-05
-1.695787e-05
-1.524565e-05
-1.03088e-05
-0.001720817
0.00168339
9.441833e-11
7.907064e-05
-9.848911e-06
-1.110704e-05
-1.037859e-05
-7.879403e-06
-0.001644698
0.00160556
-1.061258e-11
7.057434e-05
-7.60709e-06
-8.132706e-06
-7.816699e-06
-6.384342e-06
-0.001566621
0.001528458
-1.766886e-10
6.37773e-05
-6.268857e-06
-6.538525e-06
-6.422502e-06
-5.805111e-06
-0.001491705
0.001456749
-3.404754e-10
5.841748e-05
-5.796463e-06
-5.926579e-06
-5.932805e-06
-5.855861e-06
-0.001424072
0.001393501
-4.60152e-10
5.434501e-05
-5.931276e-06
-5.952005e-06
-6.034818e-06
-6.099975e-06
-0.001365262
0.001338903
-5.040799e-10
5.10141e-05
-6.154251e-06
-6.17465e-06
-6.225111e-06
-6.237977e-06
-0.001314224
0.001291108
-4.738777e-10
4.822753e-05
-6.273526e-06
-6.285333e-06
-6.313959e-06
-6.311237e-06
-0.001269083
0.001247863
-3.703159e-10
4.669535e-05
-6.381609e-06
-6.35798e-06
-6.423817e-06
-6.564114e-06
-0.001227538
0.001207952
-2.232306e-10
4.63282e-05
-6.682761e-06
-6.67987e-06
-6.815353e-06
-7.483707e-06
-0.001188423
0.001170666
-7.79272e-11
4.92782e-05
-7.905298e-06
-7.78668e-06
-8.345733e-06
-9.530014e-06
-0.001154319
0.001137597
9.815645e-12
5.733956e-05
-1.029893e-05
-9.703866e-06
-1.108436e-05
-1.409157e-05
-0.001125736
0.001115407
-3.392717e-11
6.585947e-05
-1.392864e-05
-1.422802e-05
-1.328233e-05
-1.053386e-05
-0.00109999
0.001079904
-3.801678e-11
6.077861e-05
-9.926263e-06
-1.02764e-05
-9.955496e-06
-9.148281e-06
-0.001056808
0.001031912
1.446786e-11
6.240852e-05
-9.156666e-06
-9.600367e-06
-9.608051e-06
-9.280661e-06
-0.001005049
0.0009759096
9.345349e-11
6.607522e-05
-9.250785e-06
-9.256633e-06
-9.147962e-06
-8.01655e-06
-0.0009439106
0.0009082813
1.29534e-10
6.616798e-05
-7.506102e-06
-7.765379e-06
-7.250742e-06
-4.751525e-06
-0.0008689572
0.0008277578
2.379364e-10
5.928595e-05
-4.420467e-06
-4.616347e-06
-4.298422e-06
-3.86908e-06
-0.0007875423
0.0007505699
4.364693e-10
5.265039e-05
-4.024237e-06
-3.811065e-06
-3.97398e-06
-4.215128e-06
-0.0007179711
0.0006899193
5.899267e-10
4.494208e-05
-4.251353e-06
-4.191689e-06
-4.232763e-06
-4.131891e-06
-0.0006654742
0.0006437075
4.455953e-10
3.833699e-05
-4.162265e-06
-4.122455e-06
-4.154065e-06
-4.395919e-06
-0.0006232529
0.0006037483
-2.455626e-11
3.681366e-05
-4.26423e-06
-4.390633e-06
-4.258156e-06
-3.93955e-06
-0.000586065
0.0005712396
-4.364803e-10
3.036824e-05
-3.837627e-06
-3.933928e-06
-3.831323e-06
-2.163212e-06
-0.0005593848
0.0005506159
-5.984017e-10
1.689923e-05
-1.904689e-06
-2.159975e-06
-1.901849e-06
-7.112103e-07
-0.0005444902
0.0005401677
-5.813911e-10
6.977857e-06
-6.177609e-07
-7.094977e-07
-6.162217e-07
-3.979642e-07
-0.0005370669
0.000534291
-4.699494e-10
4.464213e-06
-4.470591e-07
-3.968399e-07
-4.460497e-07
-8.617555e-07
-0.0005313867
0.0005281939
-3.192203e-10
6.837768e-06
-9.616249e-07
-8.607234e-07
-9.60533e-07
-1.488501e-06
-0.0005242687
0.0005196775
-1.944659e-10
1.069028e-05
-1.562261e-06
-1.487251e-06
-1.560889e-06
-1.858494e-06
-0.0005144808
0.000508788
-1.157863e-10
1.317745e-05
-1.885104e-06
-1.857149e-06
-1.883729e-06
-1.970531e-06
-0.0005027923
0.0004965687
-7.297395e-11
1.410796e-05
-1.972889e-06
-1.969267e-06
-1.971612e-06
-1.980042e-06
-0.0004902485
0.0004838342
-5.064137e-11
1.432637e-05
-1.977035e-06
-1.978964e-06
-1.975931e-06
-1.953996e-06
-0.0004773987
0.0004709794
-3.801503e-11
1.421381e-05
-1.94409e-06
-1.953179e-06
-1.943228e-06
-1.871035e-06
-0.0004646228
0.000458445
-2.97307e-11
1.362193e-05
-1.851657e-06
-1.870438e-06
-1.851001e-06
-1.721097e-06
-0.0004524343
0.0004467695
-2.33182e-11
1.249298e-05
-1.693459e-06
-1.720654e-06
-1.692949e-06
-1.516399e-06
-0.0004413686
0.0004364508
-1.767442e-11
1.091779e-05
-1.483931e-06
-1.516066e-06
-1.483542e-06
-1.281646e-06
-0.0004318618
0.0004278349
-1.240486e-11
9.085419e-06
-1.247886e-06
-1.281413e-06
-1.247611e-06
-1.039369e-06
-0.0004241605
0.0004210748
-7.329823e-12
7.17664e-06
-1.006239e-06
-1.039233e-06
-1.006072e-06
-7.999652e-07
-0.000418346
0.0004162082
-2.546998e-12
5.273757e-06
-7.681129e-07
-7.999184e-07
-7.680455e-07
-5.696709e-07
-0.0004144287
0.0004132263
1.62369e-12
3.422152e-06
-5.401998e-07
-5.696822e-07
-5.401888e-07
-3.576841e-07
-0.0004123791
0.000412078
5.056925e-12
1.679998e-06
-3.317183e-07
-3.577253e-07
-3.317381e-07
-1.669443e-07
-0.0004121091
0.0004126217
8.097129e-12
1.109721e-07
-1.448182e-07
-1.669995e-07
-1.448616e-07
1.755255e-09
-0.0004134353
0.0004146723
1.033182e-11
-1.272183e-06
1.58224e-08
1.742278e-09
1.57992e-08
1.279171e-07
-0.0004161604
0.0004180164
1.16353e-11
-2.394605e-06
1.414273e-07
1.278556e-07
1.413682e-07
2.30003e-07
-0.0004200705
0.0004224255
1.213965e-11
-3.294717e-06
2.399808e-07
2.299194e-07
2.398962e-07
3.047949e-07
-0.00042494
0.0004276921
1.175802e-11
-3.984426e-06
3.114506e-07
3.04693e-07
3.113566e-07
3.550917e-07
-0.0004305694
0.0004336268
1.07203e-11
-4.485382e-06
3.589757e-07
3.550108e-07
3.589047e-07
3.845428e-07
-0.0004367783
0.0004400584
9.302948e-12
-4.820951e-06
3.85878e-07
3.844459e-07
3.859968e-07
3.958329e-07
0.000446834
7.802642e-12
-5.011388e-06
-0.0004434046
3.952138e-07
3.956495e-07
3.951915e-07
3.914527e-07
-0.0004503058
0.0004538218
6.3251e-12
-5.077318e-06
3.893383e-07
3.91357e-07
3.892143e-07
3.747237e-07
-0.0004573589
0.0004609074
5.089302e-12
-5.040516e-06
3.713922e-07
3.746057e-07
3.713041e-07
3.481992e-07
-0.0004644596
0.0004679975
4.170785e-12
-4.922023e-06
3.439395e-07
3.481185e-07
3.438573e-07
3.144706e-07
-0.0004715255
0.0004750193
3.499826e-12
-4.741721e-06
3.095541e-07
3.144128e-07
3.094961e-07
2.754601e-07
-0.0004784924
0.0004819155
2.980582e-12
-4.514075e-06
2.70085e-07
2.754193e-07
2.700458e-07
2.328411e-07
-0.0004853092
0.000488642
2.575884e-12
-4.252868e-06
2.272443e-07
2.327978e-07
2.271902e-07
1.883831e-07
-0.0004919396
0.00049517
2.281379e-12
-3.972565e-06
1.827168e-07
1.883489e-07
1.826885e-07
1.432857e-07
-0.0004983618
0.0005014827
2.098292e-12
-3.68277e-06
1.376548e-07
1.43261e-07
1.376472e-07
9.820683e-08
-0.000504563
0.0005075705
2.028156e-12
-3.389305e-06
9.271314e-08
9.818638e-08
9.269695e-08
5.379893e-08
-0.0005105361
0.0005134281
2.067584e-12
-3.096642e-06
4.857175e-08
5.378646e-08
4.856407e-08
1.228909e-08
-0.000516276
0.0005190451
2.208819e-12
-2.809788e-06
8.083422e-09
1.229599e-08
8.087344e-09
-3.174373e-08
-0.0005217745
0.0005244384
2.390898e-12
-2.527266e-06
-3.654614e-08
-3.174148e-08
-3.655907e-08
-7.253569e-08
-0.0005270605
0.0005296129
2.555353e-12
-2.253023e-06
-7.714248e-08
-7.256225e-08
-7.715534e-08
-1.116224e-07
-0.000532124
0.000534567
2.69445e-12
-1.987563e-06
-1.160747e-07
-1.116315e-07
-1.160627e-07
-1.492039e-07
-0.0005369699
0.0005393065
2.80586e-12
-1.731145e-06
-1.535737e-07
-1.491926e-07
-1.535122e-07
-1.853082e-07
-0.0005416042
0.0005438376
2.888842e-12
-1.484023e-06
-1.894076e-07
-1.85248e-07
-1.894115e-07
-2.196077e-07
-0.0005460335
0.0005481672
2.932645e-12
-1.247091e-06
-2.236725e-07
-2.196192e-07
-2.237359e-07
-2.522203e-07
-0.0005502642
0.0005523016
2.876637e-12
-1.0209e-06
-2.559938e-07
-2.523006e-07
-2.560228e-07
-2.828076e-07
-0.0005543043
0.0005562501
2.754051e-12
-8.073175e-07
-2.864042e-07
-2.828232e-07
-2.864172e-07
-3.110196e-07
-0.0005581598
0.0005600202
2.738522e-12
-6.094822e-07
-3.144657e-07
-3.110116e-07
-3.144418e-07
-3.348958e-07
-0.0005618476
0.0005636356
2.340983e-12
-4.409801e-07
-3.386517e-07
-3.348907e-07
-3.385878e-07
-3.523344e-07
-0.0005653786
0.0005671228
2.108358e-12
-3.25344e-07
-3.570797e-07
-3.523272e-07
-3.57086e-07
-3.430824e-07
-0.0005688039
0.0005704751
1.445146e-12
-3.13523e-07
-3.357461e-07
-3.431094e-07
-3.357629e-07
-1.400181e-07
-0.0005716482
0.0005725016
7.090236e-13
-4.49417e-07
-6.17873e-08
-1.396293e-07
-6.259918e-08
4.418468e-08
-0.0001419826
0.0001418011
4.774105e-12
1.3737e-07
-2.835796e-07
-0.0001413509
0.0001413534
-5.034863e-11
2.811212e-07
-3.856955e-07
-0.000141566
0.0001416836
-3.03628e-11
2.680778e-07
-4.443908e-07
-0.0001420948
0.00014224
-8.862931e-12
2.991501e-07
-4.809028e-07
-0.0001426823
0.0001428274
5.214638e-12
3.357887e-07
-5.072295e-07
-0.0001432534
0.0001433906
9.968333e-12
3.70102e-07
-5.275754e-07
-0.00014379
0.0001439183
1.011739e-11
3.992953e-07
-5.443495e-07
-0.0001442917
0.0001444118
1.249755e-11
4.242019e-07
-5.588712e-07
-0.000144762
0.0001448748
1.803664e-11
4.460941e-07
-5.717732e-07
-0.0001452039
0.0001453099
2.213453e-11
4.657397e-07
-5.833535e-07
-0.0001456196
0.0001457197
1.910282e-11
4.833167e-07
-5.936577e-07
-0.0001460121
0.0001461067
1.791218e-11
4.99119e-07
-6.029741e-07
-0.0001463834
0.000146473
2.242803e-11
5.133656e-07
-6.114299e-07
-0.0001467358
0.000146821
2.599373e-11
5.261673e-07
-6.190335e-07
-0.0001470713
0.0001471527
2.778546e-11
5.376281e-07
-6.259164e-07
-0.0001473922
0.0001474701
2.75875e-11
5.479071e-07
-6.32119e-07
-0.0001477
0.0001477751
2.885106e-11
5.57032e-07
-6.377135e-07
-0.0001479968
0.0001480693
2.945551e-11
5.651187e-07
-6.427638e-07
-0.0001482841
0.0001483546
2.902343e-11
5.722464e-07
-6.472963e-07
-0.0001485637
0.0001486325
3.569704e-11
5.784573e-07
-6.513607e-07
-0.0001488371
0.0001489045
4.188409e-11
5.838628e-07
-6.550476e-07
-0.0001491056
0.0001491722
4.452589e-11
5.884784e-07
-6.582592e-07
-0.0001493709
0.0001494369
5.110181e-11
5.922368e-07
-6.610673e-07
-0.0001496345
0.0001497003
6.468696e-11
5.951914e-07
-6.635137e-07
-0.000149898
0.000149964
8.309192e-11
5.974141e-07
-6.655999e-07
-0.000150163
0.0001502296
9.429105e-11
5.98947e-07
-6.673126e-07
-0.0001504306
0.0001504983
9.33234e-11
5.995506e-07
-6.683918e-07
-0.0001507031
0.0001507723
9.561236e-11
5.991429e-07
-6.688947e-07
-0.0001509825
0.0001510538
1.002892e-10
5.974553e-07
-6.68626e-07
-0.0001512717
0.0001513462
9.075293e-11
5.940156e-07
-6.669628e-07
-0.0001515751
0.0001516543
6.910289e-11
5.876566e-07
-6.628351e-07
-0.0001518998
0.0001519865
3.789396e-11
5.761276e-07
-6.538744e-07
-0.0001522586
0.0001523581
9.228349e-12
5.544012e-07
-6.324813e-07
-0.0001526769
0.0001528011
-7.961082e-12
5.083117e-07
-5.676558e-07
-0.0001532294
0.0001534217
-2.045949e-11
3.753281e-07
2.088823e-07
-0.0001540662
0.0001540407
-4.515843e-12
-1.833528e-07
6.455058e-07
-0.0001540383
0.0001540706
-5.684753e-12
-6.777813e-07
7.074798e-07
-0.0001541991
0.0001542583
7.863245e-13
-7.66711e-07
7.412969e-07
-0.000154457
0.000154531
1.336751e-11
-8.153501e-07
7.62764e-07
-0.000154764
0.0001548458
2.336696e-11
-8.445827e-07
7.790598e-07
-0.0001550988
0.0001551854
1.685241e-11
-8.655959e-07
7.908609e-07
-0.0001554503
0.0001555404
1.915145e-11
-8.810205e-07
8.0042e-07
-0.0001558145
0.0001559071
3.061846e-11
-8.929662e-07
8.082911e-07
-0.000156187
0.0001562812
3.302526e-11
-9.024426e-07
8.147935e-07
-0.0001565651
0.0001566603
3.280726e-11
-9.100137e-07
8.202737e-07
-0.0001569467
0.0001570425
4.275605e-11
-9.161059e-07
8.250773e-07
-0.0001573301
0.0001574261
5.946654e-11
-9.211251e-07
8.293315e-07
-0.0001577139
0.0001578098
7.034055e-11
-9.252897e-07
8.332194e-07
-0.0001580968
0.0001581923
7.279125e-11
-9.288319e-07
8.368217e-07
-0.0001584781
0.0001585731
6.245705e-11
-9.319049e-07
8.401556e-07
-0.000158857
0.0001589514
4.471022e-11
-9.345803e-07
8.433922e-07
-0.0001592331
0.0001593268
2.341517e-11
-9.370614e-07
8.4644e-07
-0.0001596063
0.0001596991
-4.712845e-12
-9.392903e-07
8.493765e-07
-0.000159976
0.0001600681
-3.442041e-11
-9.413715e-07
8.523384e-07
-0.0001603424
0.0001604335
-5.084297e-11
-9.434637e-07
8.552589e-07
-0.0001607053
0.0001607957
-5.297003e-11
-9.456084e-07
8.581745e-07
-0.000161065
0.0001611546
-4.825216e-11
-9.477591e-07
8.610913e-07
-0.0001614215
0.0001615104
-3.27086e-11
-9.499711e-07
8.639903e-07
-0.000161775
0.0001618633
-2.08191e-11
-9.522413e-07
8.670502e-07
-0.0001621259
0.0001622136
-1.408723e-11
-9.547181e-07
8.701146e-07
-0.0001624743
0.0001625616
-6.699129e-12
-9.57324e-07
8.730476e-07
-0.0001628208
0.0001629076
-1.879265e-12
-9.598885e-07
8.761112e-07
-0.0001631655
0.000163252
-7.583176e-13
-9.626117e-07
8.791324e-07
-0.0001635086
0.0001635949
-6.320282e-13
-9.653625e-07
8.82226e-07
-0.0001638504
0.0001639364
3.409433e-12
-9.682511e-07
8.85296e-07
-0.0001641908
0.0001642766
7.154252e-12
-9.711179e-07
8.887548e-07
-0.0001645297
0.0001646151
5.918566e-12
-9.741972e-07
8.938084e-07
-0.0001648637
0.0001649472
7.358998e-12
-9.772581e-07
8.884974e-07
-0.0001651979
0.0001652894
3.053461e-11
-9.800802e-07
9.28085e-07
-0.0001655764
0.0001656306
1.290373e-10
-9.82362e-07
1.028178e-06
-0.0001645355
0.0006756372
2.051877e-11
-4.325248e-06
-8.30616e-09
1.031137e-06
-1.96149e-08
-0.0001645388
-0.0001721336
-0.0001721354
5.123053e-07
-0.0006787018
0.0006798008
3.307483e-11
-3.688785e-06
7.947997e-07
4.998605e-07
7.827487e-07
6.750054e-07
-0.0006805726
0.0006814812
2.575897e-11
-3.685433e-06
7.230892e-07
6.650038e-07
7.13677e-07
7.272056e-07
-0.0006825981
0.0006836064
8.675854e-12
-3.982648e-06
7.685385e-07
7.185301e-07
7.601082e-07
7.818957e-07
-0.0006845339
0.0006853425
-8.540351e-12
-3.977896e-06
8.104576e-07
7.740806e-07
8.028386e-07
8.109661e-07
-0.0006861324
0.0006868987
-1.29374e-11
-4.025136e-06
8.258558e-07
8.034742e-07
8.185482e-07
8.334137e-07
-0.0006876752
0.0006884356
-8.582412e-12
-4.099516e-06
8.433752e-07
8.264475e-07
8.359495e-07
8.554375e-07
-0.0006891964
0.0006899427
-8.958213e-12
-4.169881e-06
8.627248e-07
8.494977e-07
8.559528e-07
8.774644e-07
-0.0006906853
0.0006914178
-1.090631e-11
-4.24341e-06
8.824842e-07
8.730967e-07
8.778589e-07
8.97535e-07
-0.0006921476
0.0006928675
-4.295987e-12
-4.308785e-06
9.012445e-07
8.93116e-07
8.969984e-07
9.14568e-07
-0.0006935835
0.000694293
6.871848e-12
-4.366016e-06
9.174799e-07
9.108281e-07
9.137087e-07
9.296196e-07
-0.000694998
0.0006956994
1.042202e-11
-4.418086e-06
9.317958e-07
9.264381e-07
9.28776e-07
9.415864e-07
-0.0006963995
0.0006970988
1.253524e-11
-4.463982e-06
9.433654e-07
9.389335e-07
9.408157e-07
9.518951e-07
-0.0006977978
0.0006984979
1.345946e-11
-4.506119e-06
9.533964e-07
9.496175e-07
9.511767e-07
9.609735e-07
-0.0006991982
0.0006999009
1.040834e-11
-4.545328e-06
9.622915e-07
9.590019e-07
9.603799e-07
9.690753e-07
-0.0007006046
0.0007013115
6.533348e-12
-4.582367e-06
9.703145e-07
9.673718e-07
9.686686e-07
9.765873e-07
-0.0007020199
0.0007027324
2.02151e-12
-4.618295e-06
9.777932e-07
9.751036e-07
9.7634e-07
9.836951e-07
-0.0007034468
0.0007041659
2.059842e-12
-4.653598e-06
9.848683e-07
9.823569e-07
9.835626e-07
9.905267e-07
-0.0007048873
0.0007056139
-3.215075e-12
-4.688711e-06
9.916978e-07
9.893503e-07
9.905582e-07
9.972094e-07
-0.000706343
0.0007070779
-6.911624e-12
-4.723973e-06
9.983759e-07
9.961743e-07
9.973642e-07
1.003828e-06
-0.0007078156
0.0007085594
1.831116e-13
-4.759595e-06
1.005e-06
1.002879e-06
1.004067e-06
1.010389e-06
-0.0007093062
0.0007100596
3.605306e-12
-4.795554e-06
1.011561e-06
1.009536e-06
1.010735e-06
1.01697e-06
-0.0007108161
0.0007115794
1.645174e-12
-4.832155e-06
1.01815e-06
1.016243e-06
1.017459e-06
1.023672e-06
-0.000712346
0.0007131198
2.726125e-12
-4.869646e-06
1.024874e-06
1.02302e-06
1.024268e-06
1.030438e-06
-0.0007138971
0.0007146821
5.056609e-12
-4.907827e-06
1.031634e-06
1.029803e-06
1.030985e-06
1.037202e-06
-0.0007154708
0.0007162674
3.540905e-12
-4.946672e-06
1.038446e-06
1.036574e-06
1.037799e-06
1.044083e-06
-0.0007170679
0.0007178767
5.965555e-12
-4.986444e-06
1.045297e-06
1.043503e-06
1.044747e-06
1.051013e-06
-0.0007186895
0.0007195109
6.618246e-12
-5.026926e-06
1.052252e-06
1.050509e-06
1.05177e-06
1.058086e-06
-0.0007203363
0.0007211707
2.615762e-12
-5.068287e-06
1.059355e-06
1.057623e-06
1.058905e-06
1.065256e-06
-0.0007220092
0.0007228568
-1.130579e-12
-5.110384e-06
1.066536e-06
1.064832e-06
1.06612e-06
1.072474e-06
-0.0007237088
0.00072457
-1.299735e-12
-5.152892e-06
1.073762e-06
1.07206e-06
1.073356e-06
1.079717e-06
-0.0007254356
0.0007263106
1.880033e-13
-5.195727e-06
1.081019e-06
1.079337e-06
1.080655e-06
1.08698e-06
-0.00072719
0.0007280789
3.502956e-12
-5.238693e-06
1.088298e-06
1.086619e-06
1.087938e-06
1.094233e-06
-0.0007289721
0.0007298748
6.822021e-12
-5.281527e-06
1.095556e-06
1.09387e-06
1.095201e-06
1.101389e-06
-0.0007307818
0.0007316981
6.909667e-12
-5.323859e-06
1.102716e-06
1.101069e-06
1.102415e-06
1.108477e-06
-0.0007326187
0.0007335482
4.010547e-12
-5.36552e-06
1.109823e-06
1.108171e-06
1.10952e-06
1.115403e-06
-0.0007344819
0.0007354242
2.695122e-12
-5.405906e-06
1.11675e-06
1.115087e-06
1.116436e-06
1.122023e-06
-0.0007363705
0.0007373245
4.830136e-12
-5.444232e-06
1.123366e-06
1.121734e-06
1.123089e-06
1.128247e-06
-0.0007382824
0.0007392469
6.649418e-12
-5.479712e-06
1.129599e-06
1.127991e-06
1.129363e-06
1.133912e-06
-0.0007402149
0.0007411879
5.2644e-12
-5.510908e-06
1.135277e-06
1.133667e-06
1.135069e-06
1.138526e-06
-0.0007421641
0.0007431428
2.808912e-12
-5.535105e-06
1.13992e-06
1.13826e-06
1.13964e-06
1.141377e-06
-0.000744124
0.0007451038
1.166116e-13
-5.54785e-06
1.142922e-06
1.14108e-06
1.142597e-06
1.14107e-06
-0.0007460835
0.000747056
7.582007e-13
-5.539438e-06
1.142675e-06
1.140769e-06
1.1424e-06
1.13265e-06
-0.0007480222
0.0007489752
2.908588e-12
-5.484025e-06
1.133082e-06
1.132396e-06
1.132843e-06
1.096493e-06
-0.0007499231
0.0007508913
4.216077e-12
-5.335949e-06
1.087666e-06
1.096239e-06
1.087421e-06
1.001513e-06
-0.0007519173
0.0007530312
5.781862e-12
-5.054627e-06
9.690967e-07
1.001275e-06
9.688302e-07
8.897737e-07
-0.0007542059
0.0007553944
6.117249e-12
-4.728077e-06
8.802762e-07
8.895342e-07
8.800486e-07
8.730471e-07
-0.0007565651
0.0007577215
6.820699e-12
-4.654479e-06
8.762116e-07
8.728308e-07
8.760084e-07
8.698921e-07
-0.0007588758
0.0007600281
5.72738e-12
-4.632979e-06
8.706909e-07
8.696638e-07
8.704683e-07
8.645553e-07
-0.0007611773
0.0007623212
3.871065e-12
-4.605975e-06
8.666899e-07
8.643241e-07
8.664975e-07
8.625551e-07
-0.0007634601
0.0007645868
6.783915e-12
-4.585628e-06
8.671331e-07
8.622991e-07
8.669342e-07
8.558972e-07
-0.0007657053
0.0007668218
2.064917e-11
-4.552564e-06
8.625174e-07
8.554557e-07
8.621908e-07
8.347694e-07
-0.0007679749
0.000769116
-4.943271e-12
-4.468757e-06
8.299615e-07
8.338407e-07
8.291709e-07
7.150361e-07
-0.0007704871
0.0007723569
-3.237847e-12
-4.813185e-06
7.581293e-07
7.133084e-07
7.569449e-07
9.092191e-07
-0.0007740079
0.0007742436
4.051929e-12
-3.678597e-06
8.069708e-07
9.146184e-07
8.120425e-07
8.039123e-07
-0.0007748451
0.0007759924
5.780516e-12
-4.202169e-06
7.179003e-07
8.097421e-07
7.232453e-07
7.592422e-07
-0.0007771893
0.0007784095
4.056608e-12
-4.200032e-06
7.260767e-07
7.640229e-07
7.304614e-07
7.516959e-07
-0.0007795818
0.0007808106
3.533819e-12
-4.202117e-06
7.311812e-07
7.555813e-07
7.348236e-07
7.506752e-07
-0.0007820391
0.0007832929
3.501188e-12
-4.242427e-06
7.404887e-07
7.539136e-07
7.435583e-07
7.618627e-07
-0.0007845285
0.0007857623
3.718607e-12
-4.279162e-06
7.580233e-07
7.646944e-07
7.608305e-07
7.725931e-07
-0.0007869815
0.0007882013
4.256852e-12
-4.311964e-06
7.711166e-07
7.750476e-07
7.734529e-07
7.815544e-07
-0.0007894094
0.0007906158
4.798945e-12
-4.336907e-06
7.816627e-07
7.836639e-07
7.836772e-07
7.9004e-07
-0.0007918121
0.0007930028
4.905905e-12
-4.356141e-06
7.908927e-07
7.918756e-07
7.926474e-07
7.965564e-07
-0.0007941849
0.0007953639
4.602621e-12
-4.371282e-06
7.980177e-07
7.981254e-07
7.995621e-07
8.038784e-07
-0.0007965344
0.0007976983
4.351326e-12
-4.385228e-06
8.054702e-07
8.052179e-07
8.067705e-07
8.09908e-07
-0.0007988548
0.0008000037
3.451581e-12
-4.393879e-06
8.114593e-07
8.110613e-07
8.125936e-07
8.146682e-07
-0.0008011454
0.000802279
3.338072e-12
-4.39674e-06
8.159733e-07
8.156455e-07
8.169245e-07
8.181695e-07
-0.0008034055
0.0008045232