/*--------------------------------*- C++ -*----------------------------------*\
| =========                 |                                                 |
| \\      /  F ield         | foam-extend: Open Source CFD                    |
|  \\    /   O peration     | Version:     3.1                                |
|   \\  /    A nd           | Web:         http://www.extend-project.de       |
|    \\/     M anipulation  |                                                 |
\*---------------------------------------------------------------------------*/
FoamFile
{
    version     2.0;
    format      ascii;
    class       regIOobject;
    location    "1.5/uniform";
    object      profilingInfo;
}
// * * * * * * * * * * * * * * * * * * * * * * * * * * * * * * * * * * * * * //

profilingInfo
(

    {
        id              19;
        parentId        17;
        description     "Foam::Time::writeObject - outputTime";
        calls           3;
        totalTime       16.72673;
        childTime       0;
        onStack         1;
    }

    {
        id              17;
        parentId        1;
        description     "Foam::Time::writeObject";
        calls           1505;
        totalTime       16.73043;
        childTime       16.72673;
        onStack         1;
    }

    {
        id              1;
        description     "application::main";
        calls           1;
        totalTime       362.8206;
        childTime       82.82924;
        onStack         1;
    }

    {
        id              6;
        parentId        1;
        description     "MULES::explicitSolve";
        calls           3010;
        totalTime       8.049862;
        childTime       0;
        onStack         0;
    }

    {
        id              5;
        parentId        4;
        description     "functionObjectList::read";
        calls           1;
        totalTime       2e-06;
        childTime       0;
        onStack         0;
    }

    {
        id              18;
        parentId        1;
        description     "functionObjects_.execute()";
        calls           1504;
        totalTime       0.003812;
        childTime       0;
        onStack         0;
    }

    {
        id              4;
        parentId        1;
        description     "functionObjects_.start()";
        calls           1;
        totalTime       7e-06;
        childTime       2e-06;
        onStack         0;
    }

    {
        id              7;
        parentId        1;
        description     "fvMatrix::solve_U";
        calls           1505;
        totalTime       8.976194;
        childTime       7.753959;
        onStack         0;
    }

    {
        id              15;
        parentId        1;
        description     "fvMatrix::solve_k";
        calls           1505;
        totalTime       3.455944;
        childTime       3.237926;
        onStack         0;
    }

    {
        id              13;
        parentId        1;
        description     "fvMatrix::solve_omega";
        calls           1505;
        totalTime       3.87972;
        childTime       2.743707;
        onStack         0;
    }

    {
        id              2;
        parentId        1;
        description     "fvMatrix::solve_pcorr";
        calls           1;
        totalTime       0.162762;
        childTime       0.162591;
        onStack         0;
    }

    {
        id              11;
        parentId        1;
        description     "fvMatrix::solve_pd";
        calls           6020;
        totalTime       41.57051;
        childTime       40.46847;
        onStack         0;
    }

    {
        id              8;
        parentId        7;
        description     "lduMatrix::solver_Ux";
        calls           1505;
        totalTime       2.681603;
        childTime       0;
        onStack         0;
    }

    {
        id              9;
        parentId        7;
        description     "lduMatrix::solver_Uy";
        calls           1505;
        totalTime       2.844379;
        childTime       0;
        onStack         0;
    }

    {
        id              10;
        parentId        7;
        description     "lduMatrix::solver_Uz";
        calls           1505;
        totalTime       2.227977;
        childTime       0;
        onStack         0;
    }

    {
        id              16;
        parentId        15;
        description     "lduMatrix::solver_k";
        calls           1505;
        totalTime       3.237926;
        childTime       0;
        onStack         0;
    }

    {
        id              14;
        parentId        13;
        description     "lduMatrix::solver_omega";
        calls           1505;
        totalTime       2.743707;
        childTime       0;
        onStack         0;
    }

    {
        id              3;
        parentId        2;
        description     "lduMatrix::solver_pcorr";
        calls           1;
        totalTime       0.162591;
        childTime       0;
        onStack         0;
    }

    {
        id              12;
        parentId        11;
        description     "lduMatrix::solver_pd";
        calls           6020;
        totalTime       40.46847;
        childTime       0;
        onStack         0;
    }
);


// ************************************************************************* //
