/*--------------------------------*- C++ -*----------------------------------*\
| =========                 |                                                 |
| \\      /  F ield         | foam-extend: Open Source CFD                    |
|  \\    /   O peration     | Version:     3.1                                |
|   \\  /    A nd           | Web:         http://www.extend-project.de       |
|    \\/     M anipulation  |                                                 |
\*---------------------------------------------------------------------------*/
FoamFile
{
    version     2.0;
    format      ascii;
    class       volScalarField;
    location    "17.5";
    object      nut;
}
// * * * * * * * * * * * * * * * * * * * * * * * * * * * * * * * * * * * * * //

dimensions      [0 2 -1 0 0 0 0];

internalField   nonuniform List<scalar> 
119952
(
4.237677e-05
2.816524e-05
2.867785e-05
3.159303e-05
3.343504e-05
3.158893e-05
3.041044e-05
2.964435e-05
2.90973e-05
2.866744e-05
2.829203e-05
2.793702e-05
2.758961e-05
2.723961e-05
2.687836e-05
2.649655e-05
2.608447e-05
2.563072e-05
2.51132e-05
2.449611e-05
3.050778e-05
2.909262e-05
2.842137e-05
3.620005e-05
3.512972e-05
3.455354e-05
3.418894e-05
3.419184e-05
3.416947e-05
2.002067e-05
2.991487e-05
3.229164e-05
3.654278e-05
4.089517e-05
4.536067e-05
4.984054e-05
5.43308e-05
5.872203e-05
6.306275e-05
7.111272e-05
0.0002941542
0.0003371638
0.0003872808
0.0004421017
0.0004989307
0.000554617
0.000607239
0.0006559461
0.0007007627
0.0009845846
0.001028738
0.00107643
0.001129446
0.001188817
0.001255102
0.001327716
0.001405562
0.001487194
0.001571447
0.001658073
0.001742018
0.001823635
0.001901809
0.001975037
0.002042103
0.002102399
0.002156206
0.002206286
0.002228961
0.00219615
0.002164831
0.002135301
0.002097815
0.002049623
0.002004541
0.001972505
0.00195761
0.001960378
0.001979789
0.002013999
0.002060152
0.002113001
0.002166927
0.002215696
0.002253281
0.002274182
0.002282351
0.002285747
0.002287952
0.002284246
0.002281872
0.00228949
0.002296062
0.002284374
0.00226042
0.002218665
0.002113687
0.001935899
0.001884335
0.001850916
0.001819454
0.001773315
0.001706181
0.001617614
0.00151226
0.001400986
0.001299751
0.001221815
0.001169878
0.001137299
0.001115752
0.001100476
0.001090905
0.001088664
0.001094943
0.001109579
0.001132518
0.001163654
0.001202395
0.001247652
0.001299704
0.001357844
0.001419868
0.001483576
0.001547166
0.001609433
0.001669645
0.001727314
0.001781762
0.001831623
0.001874331
0.001904866
0.001917133
0.001906912
0.001873022
0.001814405
0.001731318
0.00162799
0.001513711
0.001401608
0.001303934
0.001227139
0.001170826
0.001130423
0.001100396
0.00107618
0.001055594
0.001035396
0.00100965
0.0009822381
0.0009541895
0.0009256278
0.0008981429
0.0008726093
0.0008498359
0.0008301899
0.0008137563
0.0008003986
0.0007898431
0.0007817494
0.0007757782
0.0007716404
0.000769116
0.000767991
0.0007680853
0.0007691283
0.0007708194
0.0007730904
0.0007759125
0.0007791952
0.0007828063
0.000786476
0.0007898514
0.0007925836
0.0007943656
0.0007949705
0.0007943505
0.000792403
0.0007889958
0.0007841116
0.0007776605
0.0007695652
0.0007597948
0.0007483987
0.0007354736
0.0007211677
0.0007056693
0.0006891878
0.0006719408
0.0006541539
0.0006360699
0.0006179587
0.0006001171
0.0005828769
0.0005665373
0.0005515444
0.000539361
0.0004456836
0.0004393665
0.0004281847
0.0004073983
0.000389038
0.000374516
0.0003626487
0.0003527402
0.0003442255
0.0003368005
0.0003301689
0.0003240594
0.0003182547
0.0003125709
0.0003068636
0.0003010498
0.0002951301
0.0002891615
0.0002832433
0.0002774974
0.0002720207
0.0002668429
0.0002619082
0.0002570961
0.0002522721
0.0002473359
0.0002422607
0.0002371306
0.0002321375
0.0002275542
0.0002236287
0.0002204477
0.0002178927
0.0002157474
0.0002139916
0.0002145558
0.0002112549
0.0002134754
0.0002162529
0.0002193345
0.0002226512
0.0002261242
0.0002297806
0.0002336253
0.0002377084
0.0002420622
0.0002467401
0.0002517395
0.0002570848
0.0002627836
0.0002688357
0.0002752334
0.0002819696
0.0002890408
0.0002957215
0.000300099
0.0003043667
0.0003085463
0.0003126172
0.0003165488
0.0003203267
0.0003239655
0.0003275089
0.0003309934
0.0003344507
0.0003379224
0.0003413925
0.000344839
0.0003482411
0.0003515652
0.0004521946
0.0004586948
0.0004645193
0.0004697479
0.0004743374
0.000478337
0.0004820507
0.0004856594
0.0004891757
0.0004926521
0.0004961629
0.0004997693
0.0005035115
0.0005074266
0.0005115398
0.0005158883
0.0005204991
0.0005253759
0.0005304905
0.0005357822
0.0005411602
0.0005465032
0.0005516768
0.0005565245
0.0005609227
0.0005647993
0.0005680803
0.0005707691
0.0005729221
0.0005746069
0.0005759693
0.0005771274
0.0005781683
0.0005791666
0.0005801754
0.0005812212
0.0005823054
0.0005834038
0.0005844679
0.0005854308
0.0005862276
0.0005868088
0.0005871434
0.0005871981
0.0005869048
0.0005861001
0.0005845472
0.0005825923
0.0005802597
0.000576835
0.0005717901
0.0005646945
0.0005548024
0.0005422259
0.000528257
0.0005148155
0.0005068723
0.0005038511
0.0005008508
0.000495338
0.0004886881
0.0004828503
0.0004788468
0.000476194
0.0004748267
0.0004765875
0.0004811884
0.000488547
0.0004989678
0.0005123713
0.0005271062
0.000539856
0.0005517411
0.0005620954
0.0005705925
0.0005773934
0.000582956
0.0005877173
0.0005920093
0.0005960214
0.0005999239
0.0006039888
0.0006082638
0.0006125266
0.0006167357
0.0006209435
0.0006251807
0.0006294926
0.0006339467
0.0006386407
0.0006437472
0.0006494966
0.0006561002
0.000663692
0.0006723235
0.0006819884
0.0006926378
0.0007041974
0.0007165674
0.0007296246
0.0007432245
0.0007572061
0.0007713894
0.0007855823
0.000799583
0.0008131842
0.000826183
0.0008383874
0.000849622
0.0008597333
0.0008685942
0.0008761069
0.0008822054
0.0008868575
0.000890066
0.0008918695
0.0008923452
0.0008915974
0.0008897465
0.0008869336
0.0008833223
0.0008790865
0.0008744022
0.0008694981
0.0008646136
0.000859875
0.000855393
0.0008512958
0.0008477119
0.0008447788
0.0008426421
0.0008413879
0.0008410891
0.0008419798
0.0008443065
0.0008484634
0.0008553241
0.0008679248
0.0007420365
4.199578e-05
4.558917e-05
5.118327e-05
5.814203e-05
6.604009e-05
7.44643e-05
8.321012e-05
9.208847e-05
0.0001019483
0.0003946701
0.0005049546
0.0006225027
0.0007378248
0.0008464147
0.0009472521
0.001039979
0.001122824
0.00119295
0.001687675
0.001723265
0.001752699
0.00178
0.001809586
0.00184353
0.001883225
0.001931669
0.00199351
0.002073202
0.002176864
0.002302062
0.002449079
0.002617155
0.002801781
0.002995993
0.003191756
0.003380788
0.003554848
0.003682681
0.003760478
0.003812272
0.003835077
0.003828229
0.003794506
0.003740348
0.003673871
0.003604955
0.003545302
0.003504998
0.003491273
0.003507489
0.00354958
0.003608152
0.003671039
0.003727375
0.00377043
0.003798464
0.004520342
0.004532718
0.004550119
0.004577036
0.0046159
0.004667127
0.004729087
0.004799799
0.004877394
0.004960336
0.005047078
0.005135335
0.005222254
0.005304582
0.00537948
0.005444196
0.005497298
0.005536781
0.005561919
0.005564395
0.005544703
0.005509933
0.005463031
0.005404121
0.005335123
0.005268053
0.005212396
0.005175664
0.00516314
0.005177348
0.005218118
0.005281029
0.005358055
0.005439305
0.005515006
0.005578059
0.00562651
0.005663114
0.005690185
0.005709197
0.005720127
0.005728759
0.005733592
0.005723137
0.005699486
0.005668529
0.005627318
0.005577492
0.005533646
0.005500198
0.005452318
0.005378935
0.005270383
0.005122571
0.004936985
0.004721592
0.004490527
0.004259888
0.004041781
0.00384169
0.003660962
0.00350051
0.003362472
0.003249587
0.003163954
0.003106635
0.003077992
0.003077813
0.003105153
0.003158262
0.003234633
0.003331082
0.003448482
0.003585882
0.003739346
0.003905448
0.00408116
0.004263349
0.004448078
0.00463008
0.004802647
0.004957912
0.005087331
0.005182253
0.005234718
0.005237854
0.005191714
0.005099055
0.004967393
0.00481071
0.00464663
0.004491349
0.004355211
0.004241417
0.004147699
0.004068864
0.003998809
0.003931855
0.003863396
0.003788451
0.003708028
0.00362228
0.003532843
0.00344228
0.003353239
0.00326827
0.003189478
0.003118439
0.003056183
0.003003257
0.002959827
0.002925809
0.002900982
0.002885032
0.002877597
0.002878295
0.002886728
0.002902517
0.002925275
0.002954519
0.00298961
0.003029652
0.003073455
0.003119589
0.003166449
0.003212467
0.003256302
0.003296882
0.003333329
0.003364862
0.003390678
0.003409958
0.003421982
0.003426237
0.003422455
0.003410625
0.003390962
0.003363872
0.003329905
0.003289734
0.003244131
0.003194009
0.003140394
0.003084421
0.003027283
0.002970291
0.002914973
0.002867208
0.002691616
0.002491105
0.002356461
0.002261016
0.002190409
0.002136583
0.002094788
0.00206215
0.002036828
0.002017549
0.002003246
0.00199287
0.001985295
0.001979288
0.001973654
0.001967408
0.001959882
0.001950779
0.001940226
0.001928713
0.001916849
0.001905065
0.001893394
0.001881414
0.00186835
0.001853248
0.001835236
0.00181381
0.001789076
0.001761806
0.001733261
0.00170482
0.001677661
0.001652748
0.001631149
0.001614355
0.00160241
0.001591515
0.001581617
0.001572579
0.001564459
0.001557468
0.001551952
0.001548355
0.001547175
0.001548921
0.001554058
0.001562951
0.001575795
0.001592543
0.001612881
0.001636297
0.001662201
0.001690024
0.001719234
0.001749265
0.001779404
0.001808787
0.001836524
0.001861915
0.001884625
0.001904753
0.001922659
0.001938696
0.001953085
0.001965938
0.001977311
0.001987193
0.001995461
0.002001841
0.002411271
0.002420342
0.002425758
0.002427899
0.002427076
0.002423698
0.00241822
0.002411152
0.002403013
0.002394308
0.002385507
0.002377019
0.0023692
0.002362367
0.002356805
0.002352755
0.002350386
0.002349754
0.002350763
0.00235316
0.002356547
0.002360396
0.00236411
0.002367108
0.002368891
0.002369075
0.002367442
0.002363987
0.002358895
0.002352472
0.002345063
0.002337007
0.00232864
0.002320249
0.002311843
0.0023034
0.002294864
0.002286148
0.002277148
0.002267764
0.002257919
0.002247555
0.002236604
0.002224947
0.002212324
0.002197756
0.002180387
0.002159689
0.002134899
0.002105273
0.002070069
0.002028527
0.00197979
0.00192405
0.001863522
0.001801408
0.001737763
0.001670659
0.00159883
0.001523007
0.001445384
0.001368785
0.001296119
0.001229876
0.001171952
0.001123613
0.001085605
0.001058238
0.001041294
0.00103383
0.001034151
0.001022924
0.00101338
0.001017672
0.001033944
0.001060186
0.00109451
0.00113467
0.001177976
0.001206183
0.001235488
0.001265587
0.001296096
0.001326597
0.001356643
0.001386002
0.00141474
0.001442978
0.001470877
0.001498638
0.001526491
0.001554688
0.001583473
0.001613046
0.001643552
0.001675067
0.001707601
0.001741106
0.001775485
0.001810616
0.001846377
0.001882706
0.001919595
0.001956679
0.00199352
0.002029666
0.002064668
0.002098098
0.00212956
0.002158703
0.002185226
0.002208882
0.002229484
0.002246903
0.002261077
0.002272002
0.002279742
0.002284415
0.002286197
0.002285311
0.002282028
0.00227666
0.002269557
0.002261101
0.002251689
0.002241697
0.002231498
0.002221447
0.002211909
0.002203206
0.002195684
0.002189605
0.002185309
0.002183001
0.002183045
0.002185677
0.002192215
0.00220446
0.002219483
5.105535e-05
6.954061e-05
0.0001003557
0.000144657
0.0002142216
0.0002506589
0.0002887825
0.0003291082
0.0003732017
0.0004407246
0.001489082
0.001645833
0.001780334
0.00191196
0.002046122
0.002184414
0.002318431
0.002446954
0.002569546
0.003803801
0.00411899
0.004381822
0.004588254
0.004742565
0.004854634
0.004934699
0.004991613
0.005032975
0.005062941
0.005090222
0.005126617
0.005172189
0.005223823
0.005277204
0.005329441
0.005379359
0.005426143
0.005472387
0.005430916
0.005418643
0.005432865
0.005472383
0.005533499
0.005611502
0.005703781
0.005808621
0.005919962
0.006025817
0.006112193
0.006172137
0.00620778
0.006228052
0.006242048
0.006251516
0.006248572
0.006218819
0.007008642
0.006908958
0.006807878
0.006708301
0.006611735
0.006520503
0.006438922
0.006377615
0.006348379
0.006359003
0.0064148
0.006517495
0.006664029
0.006846449
0.00705348
0.007271883
0.007487854
0.007689722
0.007867244
0.008009983
0.008109295
0.008160046
0.00816151
0.008118763
0.008042409
0.007949355
0.007849789
0.007747339
0.007647418
0.007557949
0.00748343
0.007428528
0.007401746
0.007397495
0.007404903
0.007414484
0.007420099
0.007421368
0.007399116
0.007377626
0.007360764
0.007352773
0.007355648
0.00736884
0.007390257
0.007418256
0.007452373
0.007492877
0.007539673
0.007591524
0.007646042
0.00769992
0.007749744
0.007792234
0.007824951
0.007845283
0.007851125
0.007839082
0.007811553
0.007770688
0.0077146
0.007643591
0.007565405
0.007491295
0.00743176
0.00739538
0.007388123
0.007412545
0.007467403
0.00754453
0.007633647
0.007722593
0.007800636
0.007861955
0.007908671
0.007942358
0.007966037
0.007980914
0.007986715
0.007986117
0.007979899
0.007965044
0.007942953
0.007919964
0.007895478
0.007870889
0.007845009
0.00781494
0.007764618
0.007682507
0.007562623
0.007402066
0.007201851
0.00696788
0.006710797
0.006443304
0.006176451
0.005918001
0.00567346
0.005447808
0.005246273
0.005073937
0.004935036
0.004832712
0.004769068
0.004745126
0.004760727
0.004814385
0.00490305
0.005021934
0.005164576
0.005329261
0.005513316
0.005713416
0.005926434
0.00614838
0.006373512
0.006594118
0.006801067
0.006984974
0.00713712
0.007249736
0.007316615
0.007333541
0.007297426
0.007210855
0.007083956
0.006933107
0.006776514
0.006628929
0.00649845
0.006386732
0.006291156
0.006206732
0.00612772
0.006048683
0.005965447
0.005874656
0.005775802
0.005669876
0.005558588
0.005444651
0.00533111
0.005220974
0.005116934
0.005021205
0.004935474
0.004860903
0.004798193
0.004747676
0.004709415
0.004683287
0.004669047
0.004666365
0.00467486
0.004694109
0.004723615
0.004762697
0.004810508
0.004865718
0.004926574
0.004990983
0.005056713
0.005121716
0.005184362
0.00524347
0.005297973
0.005346754
0.005388575
0.00542217
0.005446466
0.005460721
0.00546455
0.005457899
0.005440983
0.005414225
0.005378216
0.005333722
0.005281704
0.005223339
0.005159971
0.005093055
0.005024125
0.004954562
0.004885642
0.004817955
0.004743077
0.004681337
0.004628167
0.004581106
0.004538957
0.004501323
0.004468213
0.004439789
0.004416154
0.004397191
0.00438243
0.00437102
0.004361826
0.004353641
0.004345403
0.004336363
0.004326177
0.004314985
0.00430329
0.004291681
0.004280534
0.004269809
0.00425898
0.004247133
0.004233087
0.004215656
0.004193908
0.004167417
0.004136397
0.004101653
0.004064356
0.004025728
0.003986838
0.00394859
0.003911778
0.003876931
0.003843719
0.00381105
0.003778741
0.003747512
0.003717766
0.003690122
0.003665375
0.003644426
0.003628168
0.003617389
0.003612844
0.003615107
0.003624352
0.003640331
0.003662482
0.003690113
0.00372255
0.003759127
0.003799051
0.003841229
0.003884282
0.003926767
0.003967504
0.004005857
0.004041795
0.004075605
0.004107558
0.004137513
0.004164922
0.004189395
0.004210622
0.004228332
0.004242339
0.00425402
0.004249451
0.004242713
0.004233659
0.004222055
0.00420786
0.004191318
0.004172793
0.00415271
0.004131522
0.004109695
0.004087699
0.004065988
0.004045004
0.004025175
0.004006898
0.003990538
0.003976436
0.003964978
0.00395613
0.00394947
0.003944408
0.003940177
0.003935932
0.003930888
0.003924404
0.003916017
0.003905533
0.00389312
0.003879226
0.003864648
0.003849829
0.003834837
0.003819656
0.003804191
0.003788671
0.003773163
0.003757598
0.003741781
0.003725432
0.003708274
0.003690104
0.003670841
0.003650465
0.003628864
0.003605773
0.003580679
0.00355285
0.003521575
0.003486017
0.003445376
0.003398684
0.003344972
0.003283137
0.003213515
0.003136917
0.003053535
0.002962981
0.002863949
0.002755474
0.002637781
0.002512264
0.002381329
0.002248128
0.002116119
0.001988721
0.001869114
0.001760212
0.001664532
0.001583841
0.001518793
0.001468929
0.00143303
0.001409473
0.001396651
0.001393106
0.001397556
0.00140888
0.001426118
0.001448504
0.001472785
0.00150667
0.00154122
0.001578599
0.00161823
0.0016596
0.001702284
0.001745948
0.001790334
0.001835266
0.001880654
0.001926507
0.001972919
0.002020038
0.002068023
0.002117019
0.00216713
0.002218403
0.00227081
0.002324248
0.002378512
0.002433286
0.002488084
0.002542292
0.002595781
0.002648618
0.002700562
0.002751148
0.002799932
0.002846499
0.002890474
0.002931525
0.002969366
0.003003764
0.003034538
0.003061567
0.003084786
0.003104194
0.00311985
0.003131872
0.00314044
0.003145786
0.003148195
0.003147998
0.003145573
0.003141334
0.003135714
0.003129146
0.003122075
0.003114929
0.003108149
0.003102133
0.003097297
0.003093977
0.0030926
0.003093447
0.003097138
0.003104023
0.003115052
0.003128519
4.523948e-05
7.773431e-05
0.0001642738
0.0005854484
0.001028609
0.001944379
0.002606637
0.00340832
0.004292838
0.005021069
0.005558432
0.005955607
0.006283959
0.006504599
0.006705481
0.006874699
0.007025155
0.007167874
0.007282861
0.007083906
0.007061838
0.006906697
0.006911708
0.00702741
0.00718378
0.007411895
0.007709188
0.00808184
0.00854329
0.009173446
0.009932774
0.01
0.01
0.01
0.01
0.01
0.01
0.01
0.01
0.01
0.01
0.01
0.01
0.01
0.01
0.01
0.01
0.01
0.01
0.01
0.01
0.01
0.01
0.01
0.01
0.01
0.01
0.01
0.01
0.01
0.01
0.01
0.01
0.01
0.01
0.01
0.01
0.01
0.01
0.01
0.01
0.009866896
0.009700273
0.009548739
0.009416175
0.009302364
0.009213345
0.009169109
0.009179349
0.009244032
0.009357665
0.009509439
0.009685312
0.009871042
0.01
0.01
0.01
0.01
0.01
0.01
0.01
0.01
0.01
0.01
0.01000001
0.01000002
0.009923735
0.009824865
0.009754162
0.009709759
0.009678518
0.009663825
0.009661291
0.009662852
0.009662977
0.009658302
0.009647779
0.009633767
0.00961968
0.009609588
0.009604635
0.009602966
0.009602078
0.00960167
0.009603996
0.00961212
0.009627688
0.00965018
0.009677033
0.009704483
0.0097287
0.009746418
0.00975573
0.009754642
0.009741222
0.009713868
0.009670579
0.009612614
0.00954286
0.009465573
0.00938797
0.009319591
0.009270102
0.009247563
0.009257227
0.00930071
0.00937471
0.009467385
0.009564631
0.009651866
0.009718594
0.009762397
0.009790689
0.009808176
0.009817999
0.009820718
0.009816554
0.00980754
0.009795968
0.009782393
0.009767748
0.009753766
0.009738862
0.009720017
0.009691072
0.009645786
0.009575987
0.009476345
0.009344736
0.009179641
0.008981409
0.008753448
0.00850172
0.008235552
0.00796383
0.007694068
0.00743286
0.007186858
0.006962989
0.006768033
0.006608084
0.006488159
0.006411919
0.006381435
0.006396982
0.006456697
0.006556182
0.006688732
0.006846574
0.007023144
0.007217001
0.007425981
0.007647296
0.007876226
0.008105488
0.008325747
0.008526756
0.008699262
0.008837308
0.008936087
0.008992272
0.009003804
0.008966767
0.008884091
0.008768756
0.008638539
0.008509625
0.008391717
0.008287357
0.008194749
0.008110831
0.008031861
0.007953618
0.007872129
0.00778442
0.007688654
0.007584544
0.007473057
0.007356013
0.007235927
0.007115689
0.00699823
0.006886282
0.006782242
0.006688063
0.006605225
0.006534741
0.006477192
0.006432814
0.006401593
0.006383319
0.006377762
0.006384537
0.006403212
0.006433265
0.006473974
0.006524258
0.006582544
0.00664675
0.006714452
0.006783222
0.006851042
0.006916552
0.006978806
0.007036782
0.007089164
0.007134455
0.007171216
0.0071983
0.007214998
0.007221022
0.007216388
0.007201303
0.007176098
0.007141245
0.007097413
0.007045541
0.006986847
0.006922752
0.006854799
0.006784538
0.006713427
0.006642719
0.006573367
0.006505475
0.006440144
0.006378224
0.006320464
0.00626743
0.006219632
0.006177536
0.006141486
0.006111534
0.006087295
0.006067831
0.006051681
0.00603716
0.00602279
0.006007529
0.00599092
0.005973114
0.005954982
0.005937661
0.005921964
0.005908067
0.005895506
0.005883215
0.005869762
0.005853601
0.005833367
0.005808141
0.005777702
0.005742591
0.005703959
0.005663171
0.005621293
0.005578983
0.005536663
0.005494657
0.005453254
0.005412387
0.005371761
0.005331249
0.005291054
0.005252152
0.005215576
0.005182452
0.005153961
0.005131287
0.005115495
0.005107221
0.0051066
0.005113425
0.005127501
0.005148447
0.005175418
0.005207767
0.005244887
0.005285916
0.005329536
0.005374111
0.00541811
0.005460576
0.005501465
0.005541574
0.005580587
0.005617586
0.005651795
0.005682916
0.005710682
0.005734841
0.005755002
0.005770795
0.005781811
0.005786878
0.005786052
0.005779889
0.005768857
0.005753321
0.005733801
0.005710979
0.005685625
0.005658514
0.00563038
0.005601902
0.005573692
0.005546335
0.005520369
0.005496263
0.005474346
0.005454687
0.005436943
0.005421024
0.005407072
0.005394887
0.005383477
0.005371793
0.005358934
0.005344251
0.005327339
0.005308218
0.005287512
0.005266181
0.00524393
0.005220911
0.005197679
0.005174619
0.005151939
0.005129707
0.005107838
0.005086097
0.005064123
0.005041501
0.005017886
0.004993113
0.004967237
0.004940414
0.004912664
0.004883717
0.004853037
0.00481994
0.004783725
0.004743634
0.004698825
0.004648319
0.004591152
0.004526491
0.004453968
0.004373321
0.004284041
0.004185381
0.004076266
0.003955758
0.003823468
0.003679717
0.003525607
0.003362968
0.003194228
0.003022308
0.002850572
0.002682734
0.002522662
0.002373936
0.002239307
0.002120432
0.002018041
0.00193225
0.001862783
0.001809062
0.001770237
0.001745203
0.001732674
0.001731269
0.001739589
0.001756275
0.001780054
0.001809764
0.001844395
0.001883102
0.001925209
0.001970192
0.002017656
0.002067306
0.002118938
0.002172431
0.002227731
0.002284832
0.002343742
0.00240446
0.002466958
0.002531161
0.002596937
0.002664088
0.002732343
0.002801354
0.002870699
0.002939892
0.003008397
0.003075571
0.003141199
0.003205304
0.003267538
0.00332755
0.003385014
0.003439633
0.003491139
0.003539298
0.003583909
0.003624812
0.003661892
0.003695079
0.003724358
0.003749768
0.003771403
0.003789418
0.003804019
0.003815463
0.003824066
0.003830193
0.00383425
0.003836658
0.003837864
0.003838317
0.003838478
0.003838798
0.003839721
0.003841681
0.003845117
0.003850455
0.003858132
0.003868624
0.003882248
0.003898035
2.432972e-05
4.025051e-05
6.23369e-05
0.0002734855
0.0004550935
0.0008056194
0.001146449
0.001460194
0.001851994
0.002229212
0.002631089
0.003139351
0.003732365
0.004383345
0.005079543
0.005916819
0.007505978
0.008075048
0.008578815
0.008967918
0.009204358
0.009331972
0.009388698
0.009389778
0.008839632
0.008170716
0.007589514
0.007100734
0.006724856
0.006461398
0.006306845
0.006244621
0.006246978
0.006374474
0.006592268
0.006921044
0.007344875
0.007916996
0.008636577
0.009494655
0.01
0.01
0.01
0.01
0.01
0.01
0.01
0.01
0.01
0.01
0.01
0.01
0.01
0.01
0.01
0.01
0.01
0.01
0.01
0.01
0.01
0.01
0.01
0.01
0.01
0.01
0.01
0.01
0.01
0.01
0.01
0.01
0.01
0.01
0.01
0.01
0.01
0.01
0.01
0.01
0.01
0.01
0.01
0.01
0.01
0.01
0.01
0.01
0.01
0.01
0.01
0.01
0.01
0.01
0.01
0.01
0.01
0.01
0.01
0.01
0.01
0.01
0.01000001
0.01000004
0.01000016
0.01000015
0.01000005
0.01
0.01
0.01
0.01
0.01
0.01
0.01
0.01
0.01
0.01
0.01000002
0.01000006
0.0100002
0.01000034
0.0100002
0.01000004
0.01
0.01
0.01
0.01
0.01
0.01
0.01
0.01
0.01
0.01
0.01
0.01
0.01
0.01000001
0.01000007
0.01000023
0.01000024
0.0100001
0.01000001
0.01
0.01
0.01
0.01
0.01000001
0.01000009
0.01000058
0.01000084
0.01000073
0.01000027
0.01000003
0.01
0.01
0.01
0.01
0.01
0.01
0.01
0.01
0.01
0.01000001
0.01000013
0.01000116
0.01000212
0.01000169
0.01000048
0.01000013
0.01000014
0.01000038
0.01000205
0.01000311
0.00980733
0.009563269
0.009314202
0.009065727
0.008822809
0.008592204
0.008381577
0.00819862
0.008050468
0.007943139
0.007881008
0.007866332
0.007898843
0.007975324
0.008089382
0.008232195
0.008394897
0.008571017
0.008757783
0.008955972
0.009163187
0.009374259
0.009581467
0.009775536
0.009947342
0.01000176
0.01000085
0.01000012
0.01000005
0.01000045
0.01000071
0.01000068
0.01000027
0.009955112
0.009856368
0.009772638
0.009698927
0.00962938
0.009560685
0.009491473
0.009419457
0.009342212
0.009258018
0.009166123
0.009066689
0.00896078
0.008850077
0.008736286
0.008621957
0.00850994
0.008402845
0.008302961
0.00821226
0.008132232
0.008063883
0.008007765
0.007964035
0.00793267
0.007913457
0.007906124
0.007910359
0.007925823
0.007952096
0.007988522
0.00803401
0.008086898
0.008144983
0.008205782
0.00826695
0.008326774
0.008384417
0.008439449
0.008490963
0.008537409
0.008577118
0.008608719
0.008631265
0.008644305
0.008647804
0.008641919
0.008626816
0.008602642
0.008569622
0.00852822
0.00847925
0.008423885
0.008363558
0.008299857
0.008234356
0.008168431
0.008103103
0.008038998
0.007976427
0.007915628
0.007857087
0.007801511
0.007749681
0.007702401
0.00766042
0.007624248
0.007593914
0.007568787
0.007547479
0.007528011
0.00750837
0.007487176
0.007463841
0.00743846
0.007412105
0.007386624
0.007363627
0.007343756
0.007326566
0.007310846
0.007294987
0.007277255
0.007256053
0.007230189
0.007199127
0.007163137
0.007123257
0.007081041
0.007037944
0.006994695
0.006951247
0.006907418
0.006863254
0.006818882
0.006774322
0.006729506
0.00668451
0.006639772
0.006596105
0.006554642
0.006516803
0.006484159
0.006458274
0.006440492
0.006431638
0.006431773
0.006440166
0.006455397
0.00647623
0.006502388
0.006533609
0.00656943
0.006608813
0.006650326
0.00669222
0.006733022
0.006772211
0.006810195
0.006846921
0.006883093
0.006918548
0.006952229
0.006983122
0.007010662
0.00703446
0.007053936
0.007068436
0.007077487
0.007080926
0.007078823
0.007071297
0.007058458
0.007040591
0.007018299
0.006992422
0.006963884
0.00693356
0.00690222
0.006870539
0.006839142
0.006808645
0.006779654
0.006752704
0.006728159
0.006706113
0.006686368
0.006668495
0.006651778
0.006635546
0.006619488
0.006602487
0.006583626
0.00656236
0.006538459
0.006512292
0.006484922
0.006456292
0.006426977
0.006397554
0.006368515
0.00634017
0.006312632
0.006285855
0.00625964
0.006233627
0.006207345
0.006180306
0.006152153
0.00612281
0.006092539
0.006061741
0.006030561
0.005998638
0.005965274
0.005929769
0.005891511
0.00584982
0.00580383
0.005752575
0.005695193
0.005630897
0.005559002
0.005478907
0.005389969
0.005291458
0.005182554
0.00506245
0.004930514
0.004786433
0.004630326
0.004462795
0.004284938
0.004098374
0.003905314
0.003708622
0.003511733
0.003318341
0.003131996
0.002955782
0.002792213
0.002643292
0.00251059
0.002395208
0.002297754
0.002218317
0.002156467
0.002111316
0.002081618
0.002065864
0.002062399
0.002069543
0.002085692
0.002109402
0.002139437
0.002174789
0.002214672
0.0022585
0.002305857
0.002356469
0.002410169
0.002466864
0.00252649
0.002588983
0.00265425
0.002722149
0.00279248
0.002864978
0.002939314
0.003015098
0.003091887
0.003169199
0.003246519
0.003323308
0.003399012
0.003473155
0.003545705
0.003616414
0.003684993
0.003751176
0.003814711
0.003875365
0.003932921
0.003987182
0.004037979
0.004085173
0.004128667
0.004168405
0.004204384
0.004236662
0.004265352
0.004290613
0.004312668
0.004331805
0.004348359
0.004362701
0.004375237
0.004386394
0.004396617
0.004406368
0.004416091
0.004426267
0.004437331
0.004449764
0.004463988
0.00448049
0.004499413
0.004519576
2.245377e-05
3.489447e-05
7.006246e-05
0.0002161767
0.0003514181
0.0005686804
0.0007326005
0.0009192141
0.001138122
0.0013505
0.00159748
0.001917063
0.002277758
0.002699802
0.003237776
0.004293191
0.004778446
0.00529036
0.005817639
0.00635599
0.006908861
0.007465097
0.008005226
0.008512551
0.00897251
0.009372039
0.009717473
0.01
0.01
0.01
0.01
0.009770206
0.009059637
0.008356037
0.007680847
0.007079779
0.006573418
0.006169931
0.005883582
0.005712001
0.005647845
0.005695344
0.005848649
0.006141404
0.006575743
0.007198
0.008019274
0.009018992
0.01
0.01
0.01
0.01
0.01
0.01
0.01
0.01
0.01
0.01
0.01
0.01
0.01
0.01
0.01
0.01
0.01
0.01
0.01
0.01
0.01
0.01
0.01
0.01
0.01
0.01
0.01
0.01
0.01000001
0.01000001
0.01000001
0.01000001
0.01000001
0.01000001
0.01000001
0.01000001
0.01000001
0.01000001
0.01000003
0.01000007
0.0100001
0.0100001
0.01000006
0.01000001
0.01000001
0.01000001
0.01000001
0.01000002
0.01000004
0.01000003
0.01000001
0.01
0.01
0.01
0.01
0.01000001
0.01000001
0.01000001
0.01000001
0.01000001
0.01000002
0.01000002
0.01000002
0.01000002
0.01000011
0.01000048
0.01000047
0.01000018
0.01000002
0.01
0.01
0.01
0.01
0.01000001
0.01000002
0.01000003
0.01000004
0.01000007
0.01000016
0.01000059
0.01000103
0.01000103
0.01000048
0.01000008
0.01
0.01
0.01
0.01
0.01
0.01
0.01
0.01
0.01
0.01
0.01
0.01000002
0.01000013
0.01000127
0.01000281
0.0100025
0.01000093
0.01000011
0.01
0.01
0.01
0.01
0.01000002
0.01000017
0.01000117
0.01000171
0.01000139
0.01000044
0.01000005
0.01
0.01
0.01
0.01000001
0.01000002
0.01000006
0.01000017
0.01000019
0.0100001
0.01000006
0.01000021
0.01000233
0.01000496
0.01000389
0.01000114
0.01000035
0.01000037
0.01000173
0.01001392
0.01001625
0.01000774
0.01000112
0.01000014
0.01000002
0.01
0.01
0.009877762
0.009683388
0.009508753
0.009361466
0.009248499
0.009175552
0.00914639
0.009162177
0.009221031
0.009317859
0.009444444
0.00959069
0.009748065
0.009912525
0.01
0.01
0.01000003
0.01000022
0.01000222
0.0100061
0.0100057
0.01000226
0.0100003
0.01000005
0.01000005
0.01000005
0.01000005
0.01000006
0.01000024
0.01000083
0.01000229
0.01000389
0.009848281
0.01000196
0.01000035
0.01000005
0.01000002
0.01000002
0.01000002
0.01000002
0.01000001
0.01
0.01
0.009950298
0.009848489
0.0097493
0.009654804
0.009566879
0.009487142
0.009416889
0.009356844
0.00930724
0.009267991
0.009238863
0.009219659
0.009210232
0.009210424
0.009220103
0.009239098
0.009266966
0.009302772
0.00934496
0.009391431
0.009439844
0.009488077
0.009534755
0.009579541
0.009622491
0.009662775
0.00969861
0.009728289
0.009750715
0.009765326
0.009772066
0.00977123
0.009763096
0.009747699
0.009724859
0.009694447
0.009656665
0.009612198
0.009562182
0.009508102
0.009451655
0.009394465
0.009337698
0.009281861
0.009226993
0.009173064
0.009120228
0.00906893
0.00901981
0.008973559
0.008931163
0.008893514
0.00886115
0.008833861
0.008810565
0.008789346
0.008767758
0.008743648
0.008716011
0.008685132
0.008651898
0.008618387
0.008587425
0.008560787
0.008538387
0.008518696
0.008499645
0.00847927
0.008455915
0.008428342
0.008395908
0.008358695
0.008317517
0.00827384
0.008229634
0.008186376
0.008144266
0.008102365
0.008059855
0.008016669
0.007972922
0.007928619
0.007883653
0.007838055
0.007792344
0.007747535
0.007704926
0.007666214
0.00763326
0.007607804
0.007591269
0.007584347
0.007586651
0.00759679
0.007612951
0.007633702
0.007658424
0.007687131
0.007719913
0.007755929
0.007793061
0.007829319
0.00786357
0.007895357
0.007925268
0.007955381
0.00798707
0.008019588
0.008050889
0.008079284
0.008104069
0.008124894
0.008141154
0.008152142
0.008157465
0.008157101
0.008151126
0.008139633
0.008122797