/*--------------------------------*- C++ -*----------------------------------*\
| =========                 |                                                 |
| \\      /  F ield         | foam-extend: Open Source CFD                    |
|  \\    /   O peration     | Version:     3.1                                |
|   \\  /    A nd           | Web:         http://www.extend-project.de       |
|    \\/     M anipulation  |                                                 |
\*---------------------------------------------------------------------------*/
FoamFile
{
    version     2.0;
    format      ascii;
    class       volScalarField;
    location    "17.5";
    object      omega;
}
// * * * * * * * * * * * * * * * * * * * * * * * * * * * * * * * * * * * * * //

dimensions      [0 0 -1 0 0 0 0];

internalField   nonuniform List<scalar> 
119952
(
289.9606
365.1813
343.2664
296.6663
264.1757
264.4176
267.529
272.5333
279.0153
286.6679
295.2496
304.6184
314.6917
325.3981
336.6422
348.3018
360.2411
372.3605
384.7208
398.0507
331.7562
330.722
333.393
278.349
272.7565
269.5507
267.1153
264.9965
260.3679
132.844
696.9514
581.8228
492.2587
427.4325
377.8603
338.312
305.6077
278.0474
254.5793
229.7665
194.0054
168.3559
149.8357
135.7105
124.5424
115.6321
108.42
102.5021
97.48334
76.90432
73.90742
70.77998
67.56213
64.36237
61.26179
58.34604
55.66007
53.21116
51.01294
49.07519
47.27023
45.59142
44.04208
42.62161
41.32671
40.14498
39.05473
38.05259
37.88892
37.87326
37.6775
37.51805
37.42524
37.41608
37.32655
37.0707
36.61781
35.98634
35.22393
34.39446
33.56645
32.79846
32.12339
31.56681
31.14839
30.88941
30.73499
30.60041
30.48604
30.44193
30.34986
30.25677
30.26624
30.40712
30.65962
31.17254
32.58953
35.03418
35.64412
35.97872
36.25195
36.70113
37.42252
38.47564
39.87304
41.5152
43.13202
44.40048
45.18234
45.5649
45.67474
45.54211
45.10841
44.31269
43.16243
41.71894
40.05942
38.27438
36.46083
34.71239
33.07951
31.60067
30.3028
29.19215
28.2619
27.49834
26.88611
26.40975
26.05581
25.81431
25.68106
25.67092
25.80719
26.10149
26.56098
27.21407
28.09586
29.2175
30.52937
31.89197
33.10767
34.01714
34.57785
34.85679
34.96618
35.00386
35.0086
35.08176
35.40565
35.79188
36.24572
36.73437
37.21278
37.64641
38.00247
38.26085
38.41149
38.45357
38.39357
38.24282
38.01467
37.72187
37.37683
36.99304
36.58044
36.15333
35.72755
35.31055
34.90899
34.53303
34.18985
33.89024
33.64537
33.46442
33.35228
33.30904
33.32825
33.40948
33.55307
33.75361
34.01146
34.32753
34.70219
35.13375
35.61996
36.15798
36.74459
37.37665
38.05115
38.76491
39.51357
40.29088
41.08774
41.88944
42.67657
43.41109
43.98218
46.35586
50.96985
54.50879
57.13103
59.03469
60.40634
61.40369
62.12993
62.67644
63.09803
63.44819
63.77276
64.11399
64.50603
64.97434
65.53331
66.18322
66.91285
67.70146
68.52292
69.3563
70.19547
71.05393
71.96232
72.95965
74.08276
75.35589
76.78049
78.32791
79.93387
81.51303
82.99708
84.36239
85.61496
86.67138
86.45137
84.96696
83.57967
82.22504
80.88539
79.54362
78.18579
76.80183
75.38487
73.93341
72.44989
70.94122
69.42003
67.90382
66.41254
64.96575
63.5797
62.26476
61.02558
59.86028
58.75115
57.70683
56.73768
55.8484
55.03639
54.29178
53.59976
52.94495
52.31789
51.71564
51.12767
50.55086
49.98848
49.44154
48.91285
38.41669
37.92858
37.35004
36.69178
36.0439
35.42683
34.84442
34.29497
33.77986
33.29551
32.83613
32.39601
31.97087
31.55608
31.14776
30.74411
30.34416
29.94849
29.5592
29.1795
28.81346
28.46566
28.14042
27.84125
27.57071
27.32907
27.11466
26.92484
26.75537
26.59967
26.45482
26.31653
26.18026
26.04354
25.90519
25.76513
25.62419
25.48389
25.34628
25.2135
25.08718
24.96841
24.85837
24.75987
24.67973
24.62889
24.60683
24.61371
24.65837
24.774
24.98885
25.33149
25.84298
26.55735
27.50352
28.38425
29.10293
29.66627
30.25458
30.94475
31.65324
32.287
32.77489
33.06561
33.1305
32.95608
32.53492
31.86483
30.95896
29.85566
28.61977
27.33041
26.05584
24.84347
23.7207
22.69526
21.76229
20.9171
20.15473
19.46956
18.85524
18.30315
17.80725
17.3662
16.97536
16.62956
16.32426
16.0551
15.81816
15.60913
15.42271
15.25301
15.09438
14.94214
14.79298
14.64539
14.49915
14.3546
14.21217
14.07247
13.93617
13.80409
13.67704
13.55582
13.44122
13.33394
13.2346
13.1437
13.06161
12.98856
12.92465
12.86984
12.82397
12.78675
12.7578
12.7366
12.72246
12.71468
12.71253
12.71521
12.72179
12.73144
12.74321
12.75556
12.76701
12.77683
12.78436
12.78889
12.7897
12.78584
12.7761
12.75982
12.73569
12.70056
12.64935
12.57096
12.44052
12.22933
12.23125
778.3529
631.7319
541.1013
479.6186
434.5108
399.1896
370.2277
345.7494
323.5276
275.4024
224.7283
192.9449
171.8043
156.7555
145.3541
136.3057
128.8824
122.6714
97.61471
93.82829
90.16695
86.55663
83.03857
79.64613
76.37756
73.18818
70.0264
66.85092
63.77703
60.76214
57.83507
55.09701
52.60886
50.40608
48.49736
46.87184
45.50717
44.67684
44.2342
43.79234
43.38378
43.0303
42.72375
42.45371
42.18949
41.88725
41.48804
40.93457
40.20395
39.31523
38.32319
37.3051
36.33561
35.46171
34.69999
34.04277
30.74191
30.26762
29.80376
29.33778
28.8644
28.3839
27.90062
27.41883
26.94151
26.47048
26.00903
25.56118
25.13049
24.72046
24.33342
23.97086
23.63249
23.31962
23.03208
22.77377
22.54163
22.3345
22.14734
21.98089
21.83425
21.68457
21.51482
21.3133
21.07564
20.80645
20.51834
20.22742
19.94509
19.68089
19.44182
19.23224
19.05484
18.91094
18.79735
18.7113
18.6539
18.61957
18.61018
18.63768
18.69406
18.76711
18.86173
18.98688
19.11622
19.21501
19.32481
19.46972
19.67029
19.9395
20.28206
20.68974
21.13612
21.5813
21.98774
22.3331
22.60739
22.80185
22.90252
22.89291
22.76086
22.50266
22.1236
21.63803
21.06873
20.44468
19.79809
19.1603
18.54385
17.958
17.41346
16.91694
16.47214
16.08059
15.74211
15.45515
15.21717
15.02539
14.87787
14.77498
14.72142
14.72858
14.80571
14.95856
15.18759
15.47808
15.79593
16.09507
16.33463
16.49364
16.57339
16.58988
16.56444
16.51741
16.46523
16.42557
16.39899
16.38655
16.38538
16.3894
16.39169
16.38514
16.36365
16.32261
16.25922
16.17243
16.06272
15.93171
15.78174
15.61564
15.43656
15.24777
15.05252
14.85384
14.65452
14.45733
14.26506
14.08072
13.90749
13.74849
13.60657
13.48385
13.38134
13.29908
13.23646
13.19254
13.16649
13.15764
13.16535
13.18879
13.22695
13.27853
13.34207
13.41595
13.49851
13.58807
13.68291
13.7811
13.88045
13.9785
14.07244
14.15907
14.23384
14.27425
14.71743
15.24793
15.61111
15.85291
16.00535
16.09046
16.12385
16.11655
16.07672
16.01079
15.92473
15.82461
15.71691
15.60839
15.5053
15.41246
15.33297
15.26798
15.21642
15.1754
15.14145
15.11204
15.08664
15.06702
15.05663
15.05985
15.08062
15.12103
15.17999
15.2528
15.33191
15.40885
15.47593
15.52605
15.55036
15.53697
15.48701
15.42978
15.36469
15.29223
15.21234
15.12438
15.02717
14.9193
14.79936
14.66622
14.51935
14.35914
14.1871
14.00602
13.81965
13.6321
13.44718
13.26799
13.09695
12.93606
12.78725
12.65242
12.53308
12.42987
12.3422
12.26829
12.20577
12.15245
12.10656
12.06672
12.03171
12.0006
11.9729
11.94871
10.76406
10.71258
10.66998
10.63413
10.60312
10.57522
10.54893
10.52286
10.49578
10.46665
10.43462
10.39909
10.35963
10.31602
10.26813
10.21599
10.15977
10.09989
10.03699
9.971922
9.905726
9.839552
9.774579
9.711855
9.652232
9.596343
9.544531
9.496773
9.452756
9.41197
9.373807
9.337647
9.302845
9.268814
9.235465
9.202757
9.170722
9.139467
9.109144
9.079892
9.051796
9.024887
8.999216
8.974979
8.952795
8.935512
8.925685
8.925107
8.936529
8.962976
9.007975
9.07569
9.171164
9.296985
9.448694
9.615902
9.802662
10.02469
10.29689
10.62643
11.01444
11.45786
11.94992
12.48109
13.03879
13.60643
14.16126
14.67417
15.11435
15.4572
15.6873
15.79715
15.78407
15.64933
15.39973
15.04859
14.61534
14.12317
13.59532
13.05245
12.51214
11.98852
11.49174
11.02842
10.60242
10.21471
9.86405
9.548475
9.265458
9.012113
8.785418
8.582368
8.400049
8.235692
8.086723
7.950815
7.825931
7.710341
7.602618
7.501592
7.406281
7.315769
7.229217
7.146617
7.068107
6.993854
6.924039
6.858795
6.798189
6.742222
6.690839
6.643931
6.601348
6.562909
6.528408
6.497623
6.47033
6.446305
6.425325
6.407163
6.391592
6.378362
6.367177
6.357723
6.349734
6.34293
6.337011
6.331626
6.32642
6.320951
6.314819
6.30742
6.298082
6.285766
6.269488
6.248164
6.222688
6.199031
6.18125
660.2547
597.0024
543.5592
503.4099
473.355
447.8138
426.2486
408.1633
394.3783
384.6501
186.6422
182.0172
177.1559
172.3694
167.4305
162.3534
157.6114
153.1501
148.7463
115.5062
107.5029
101.2755
96.6174
93.09161
90.29559
87.95342
85.89276
84.00949
82.26361
80.48882
78.50748
76.42019
74.34362
72.35239
70.4779
68.72257
67.07827
65.50697
64.85653
63.8131
62.49621
61.01408
59.45672
57.89146
56.36044
54.89703
53.54015
52.32638
51.25801
50.30768
49.43716
48.60783
47.80259
47.03435
46.3392
45.76019
42.30721
41.88691
41.43499
40.94295
40.40991
39.83699
39.21928
38.53728
37.77598
36.94053
36.05094
35.14031
34.24487
33.3974
32.61991
31.92353
31.31037
30.77575
30.31137
29.90885
29.56129
29.26295
29.00807
28.79123
28.60543
28.43614
28.27177
28.10282
27.91443
27.69
27.42428
27.11803
26.7747
26.41415
26.0583
25.72193
25.41126
25.1223
24.89479
24.67099
24.44568
24.21393
23.97264
23.72133
23.46184
23.19675
22.92805
22.65738
22.38621
22.1161
21.84894
21.58672
21.33108
21.08292
20.84272
20.61012
20.38511
20.16642
19.95789
19.76193
19.5803
19.41466
19.26104
19.1117
18.95846
18.79494
18.6184
18.43108
18.24015
18.05332
17.87288
17.70058
17.53842
17.38979
17.26054
17.15739
17.07848
17.0211
16.98552
16.97335
16.98351
17.013
17.05707
17.10702
17.15739
17.20855
17.25696
17.29517
17.33073
17.37828
17.44804
17.54643
17.67638
17.83684
18.02091
18.2158
18.40632
18.57883
18.72205
18.8255
18.87813
18.86897
18.78902
18.63321
18.40163
18.09992
17.73885
17.3334
16.9017
16.46337
16.03778
15.63477
15.26022
14.91841
14.61161
14.34036
14.10367
13.89921
13.72367
13.57357
13.44619
13.3408
13.26002
13.2103
13.20229
13.24458
13.3427
13.49077
13.6659
13.83387
13.96333
14.03786
14.05763
14.03322
13.97881
13.90802
13.8317
13.75846
13.69244
13.63436
13.58341
13.53696
13.49142
13.44295
13.38805
13.32396
13.24879
13.16161
13.06239
12.95181
12.8311
12.70187
12.56597
12.42534
12.28193
12.1376
11.99407
11.85298
11.71563
11.58362
11.45862
11.34241
11.23676
11.14317
11.06256
10.99495
10.93987
10.89654
10.86427
10.84255
10.83098
10.82907
10.8362
10.85152
10.87401
10.90256
10.93599
10.97321
11.01298
11.05416
11.09527
11.13507
11.17174
11.20418
11.23021
11.24875
11.26797
11.26555
11.24728
11.21654
11.17559
11.12592
11.06846
11.00385
10.93252
10.85495
10.77183
10.68432
10.59419
10.50365
10.41498
10.33026
10.25129
10.17924
10.11429
10.05576
10.00256
9.953722
9.908779
9.867803
9.831476
9.800822
9.776881
9.760313
9.751036
9.748042
9.749473
9.75299
9.756285
9.757306
9.754231
9.745435
9.730567
9.711321
9.688619
9.662114
9.631775
9.59743
9.558792
9.515486
9.467108
9.413301
9.353667
9.28794
9.216271
9.139364
9.058406
8.974805
8.889899
8.804814
8.720501
8.637937
8.558264
8.482756
8.412638
8.348803
8.291555
8.240541
8.194989
8.154231
8.117905
8.085622
8.05692
8.031333
8.008283
7.985578
7.984115
7.982164
7.98008
7.977523
7.974086
7.96971
7.964347
7.957841
7.949942
7.940361
7.928811
7.91503
7.898809
7.880001
7.85849
7.834163
7.806879
7.77643
7.742915
7.70674
7.668418
7.628571
7.5879
7.547117
7.50687
7.467736
7.430182
7.394438
7.360464
7.327838
7.296298
7.265789
7.236297
7.207826
7.179976
7.152488
7.125252
7.098319
7.071899
7.046285
7.021759
6.998466
6.976391
6.955476
6.935785
6.917747
6.902193
6.890019
6.882355
6.880383
6.88567
6.89996
6.925489
6.962819
7.011875
7.073448
7.149677
7.245279
7.365753
7.515645
7.698279
7.915652
8.168309
8.455524
8.775193
9.123277
9.49263
9.872288
10.24878
10.60905
10.9425
11.24053
11.49562
11.69895
11.84091
11.91323
11.91095
11.83347
11.68455
11.47222
11.20812
10.90533
10.57676
10.23412
9.887506
9.545152
9.21338
8.896749
8.598275
8.319659
8.061559
7.823827
7.605709
7.406
7.2232
7.055659
6.90171
6.759774
6.628442
6.506537
6.393164
6.287795
6.190186
6.09949
6.014773
5.935506
5.861409
5.792239
5.727768
5.667765
5.611987
5.560186
5.51211
5.467511
5.42615
5.3878
5.352257
5.319332
5.288859
5.260689
5.234683
5.210699
5.188583
5.16819
5.149385
5.132035
5.115964
5.100995
5.086882
5.073413
5.060251
5.047147
5.033573
5.019338
5.003822
4.98737
4.969532
4.952444
4.936485
374.8191
277.7202
377.5769
172.3118
134.0903
95.19324
82.41881
71.68775
63.35634
59.49867
58.28476
58.08629
58.27692
59.28527
60.30751
61.49805
62.82674
64.18112
65.41419
66.46067
67.18266
67.74914
67.81181
67.90766
67.9798
67.91223
67.67534
67.26283
66.68679
65.9514
65.05494
61.62116
60.69936
59.76722
58.82553
57.88623
56.95871
56.04478
55.14613
54.26785
53.41344
52.58267
51.77505
50.98896
50.22158
49.46571
48.71473
47.9688
47.23317
46.50547
45.77501
45.03368
44.28532
43.5417
42.81354
42.10869
41.43975
40.82309
40.264
39.75028
39.26062
38.77561
38.28594
37.79598
37.31912
36.87171
36.46579
36.10056
35.82464
35.54654
35.25579
34.92278
34.53795
34.10441
33.62791
33.12044
32.58811
32.02763
31.45164
30.88288
30.34434
29.85404
29.4211
29.04553
28.72021
28.4346
28.17598
27.93061
27.68652
27.4371
27.18364
26.93432
26.70022
26.49071
26.30387
26.126
25.94023
25.73148
25.49209
25.22534
24.94924
24.67607
24.41397
24.16779
23.93868
23.72422
23.52278
23.32928
23.14017
22.95177
22.75875
22.55658
22.34419
22.12452
21.90202
21.68059
21.46224
21.24709
21.03407
20.82194
20.60984
20.39722
20.18392
19.9693
19.75307
19.53576
19.32215
19.11654
18.92063
18.73569
18.5627
18.40143
18.25014
18.10649
17.96929
17.83999
17.72227
17.61423
17.50919
17.40069
17.28631
17.17146
17.07164
16.9962
16.94282
16.90702
16.88853
16.89177
16.91935
16.96738
17.02792
17.0911
17.14593
17.185
17.20378
17.20067
17.18007
17.15184
17.12553
17.10438
17.09059
17.08808
17.10001
17.12578
17.1605
17.19674
17.22606
17.23977
17.2292
17.18596
17.10267
16.97413
16.79825
16.57649
16.31395
16.01894
15.70231
15.37685
15.05662
14.75441
14.47764
14.23059
14.01447
13.82769
13.66658
13.52605
13.40053
13.28541
13.17797
13.07768
12.98754
12.91232
12.85892
12.838
12.86295
12.93633
13.0395
13.13894
13.20368
13.21947
13.18944
13.1251
13.03905
12.94219
12.8427
12.74617
12.65559
12.57196
12.49484
12.42261
12.35292
12.28326
12.21133
12.13523
12.05369
11.966
11.87198
11.77194
11.66656
11.55684
11.44403
11.32937
11.21426
11.10005
10.98793
10.8789
10.77373
10.6731
10.57771
10.48848
10.40649
10.33295
10.26876
10.21414
10.16847
10.13079
10.10025
10.0763
10.05865
10.04704
10.04109
10.04025
10.04376
10.05074
10.06032
10.07167
10.08403
10.09669
10.10888
10.11989
10.12884
10.13487
10.13684
10.13366
10.12487
10.10906
10.08586
10.05532
10.01784
9.97391
9.92403
9.868537
9.807615
9.741328
9.669804
9.593575
9.513852
9.432496
9.351641
9.27336
9.19986
9.132796
9.0726
9.0185
8.969116
8.923034
8.87933
8.837686
8.798395
8.762222
8.730205
8.703282
8.681943
8.665964
8.654258
8.645139
8.636776
8.627728
8.61699
8.603756
8.587577
8.568515
8.546927
8.523247
8.497394
8.469272
8.438781
8.405736
8.369773
8.330388
8.287072
8.239386
8.187068
8.130132
8.069134
8.005178
7.939388
7.872629
7.805439
7.738267
7.671806
7.607095
7.54541
7.487975
7.435483
7.388204
7.345824
7.307639
7.272943
7.24133
7.212398
7.185792
7.161279
7.138973
7.119765
7.103118
7.088241
7.074652
7.062199
7.050788
7.040215
7.030142
7.020131
7.009709
6.998424
6.985903
6.97186
6.9561
6.938471
6.918835
6.897105
6.873346
6.84745
6.819216
6.788622
6.755994
6.7218
6.686616
6.651022
6.615617
6.581001
6.547524
6.515216
6.484476
6.455333
6.427486
6.400608
6.374377
6.348511
6.322795
6.297111
6.271476
6.246049
6.221104
6.196947
6.173789
6.151614
6.130183
6.109237
6.088738
6.068975
6.050402
6.033545
6.019035
6.007663
6.000299
5.997973
6.001525
6.01166
6.029257
6.055676
6.093023
6.143768
6.210341
6.294948
6.399464
6.525372
6.673769
6.845238
7.03949
7.254872
7.487961
7.733845
7.987198
8.243235
8.49759
8.745509
8.981077
9.197202
9.386207
9.54065
9.654134
9.721982
9.741834
9.713766
9.640129
9.525169
9.374411
9.194125
8.990875
8.771139
8.541009
8.305944
8.070638
7.838982
7.614061
7.398168
7.192839
6.998945
6.816805
6.646318
6.487094
6.338574
6.200125
6.071118
5.950971
5.839157
5.735226
5.638891
5.549555
5.466446
5.389034
5.316847
5.249457
5.186465
5.127498
5.07221
5.020285
4.971439
4.92542
4.882011
4.841027
4.802312
4.765736
4.73119
4.698574
4.667786
4.638734
4.611339
4.585522
4.561178
4.538193
4.516421
4.49571
4.475866
4.456695
4.437954
4.419482
4.401103
4.382756
4.364463
4.346594
4.330361
345.9446
234.2934
178.0978
154.0824
124.5717
101.3372
85.9825
79.54204
72.69226
68.71028
65.43991
61.38731
57.4991
54.03691
51.12999
48.15044
43.18275
42.47896
42.20385
42.47435
43.39226
44.75669
46.33818
48.06056
49.90425
51.81868
53.66501
55.43775
57.11594
58.3582
59.3102
60.0314
60.57453
60.85901
60.9015
60.71208
60.33319
59.78962
59.13363
58.43401
57.75666
57.09516
56.44751
55.81444
55.18053
54.52451
53.84815
53.15663
52.44754
51.71747
50.97228
50.22405
49.48099
48.7477
48.02859
47.32405
46.62711
45.93061
45.23706
44.55648
43.88893
43.22176
42.55055
41.88996
41.26175
40.68189
40.16426
39.72799
39.37655
39.07206
38.75415
38.37688
37.93168
37.44255
36.94344
36.45876
35.99618
35.55145
35.12604
34.73752
34.37072
33.99142
33.57947
33.13274
32.65931
32.16918
31.67029
31.17104
30.69056
30.25134
29.86733
29.54755
29.29306
29.09701
28.94846
28.83446
28.73835
28.6377
28.50754
28.32303
28.07164
27.76825
27.45495
27.14687
26.84906
26.56947
26.3115
26.07151
25.84084
25.6105
25.37561
25.13748
24.90315
24.68864
24.49133
24.30601
24.12663
23.94853
23.77164
23.59852
23.42907
23.25424
23.06173
22.84663
22.61659
22.38572
22.16802
21.96534
21.77254
21.58159
21.38559
21.18053
20.96512
20.73904
20.50181
20.25404
19.9985
19.74113
19.48906
19.24819
19.02336
18.81918
18.64001
18.48884
18.36685
18.2751
18.21616
18.19053
18.18315
18.1715
18.13448
18.06161
17.96331
17.87625
17.8183
17.78402
17.76382
17.75823
17.7772
17.82839
17.90785
18.00113
18.08873
18.15005
18.16922
18.13843
18.05999
17.94533
17.80915
17.66309
17.50961
17.35229
17.20115
17.06612
16.95199
16.85827
16.7803
16.71122
16.64377
16.57086
16.48574
16.38222
16.25538
16.1022
15.9221
15.71707
15.4913
15.25062
15.00278
14.75864
14.53044
14.32772
14.1562
14.01511
13.89903
13.80029
13.7105
13.62246
13.53198
13.43735
13.33992
13.24472
13.15281
13.06293
12.98827
12.95415
12.97466
13.03368
13.0918
13.11141
13.07868
13.00276
12.89928
12.78118
12.6577
12.53513
12.41723
12.30575
12.20155
12.10437
12.01287
11.92522
11.8396
11.7544
11.66841
11.58076
11.49099
11.3989
11.30452
11.20814
11.11026
11.0117
10.91345
10.81654
10.72203
10.63085
10.54366
10.46075
10.38214
10.3078
10.23792
10.17308
10.11431
10.06277
10.01884
9.981691
9.949857
9.922205
9.898183
9.8776
9.860417
9.846535
9.835617
9.827053
9.820046
9.813784
9.807619
9.801111
9.793979
9.786004
9.777027
9.766797
9.754809
9.740143
9.721644
9.698293
9.669433
9.635073
9.595648
9.551725
9.503874
9.452572
9.398031
9.34007
9.278161
9.211675
9.14037
9.064946
8.98715
8.909162
8.83348
8.763127
8.700407
8.645689
8.597581
8.553812
8.512223
8.471334
8.430489
8.389841
8.350244
8.313011
8.279533
8.25088
8.227415
8.208423
8.192155
8.176595
8.160423
8.143088
8.124304
8.103854
8.081635
8.057746
8.032447
8.005967
7.978541
7.950321
7.92118
7.890759
7.858437
7.823332
7.784409
7.740844
7.692536
7.640155
7.584747
7.52753
7.469385
7.410583
7.351011
7.290906
7.231212
7.173458
7.119562
7.071218
7.02847
6.990072
6.954657
6.921507
6.890463
6.861343
6.833847
6.807808
6.783349
6.760691
6.739869
6.72068
6.702811
6.686068
6.670398
6.655746
6.641928
6.628605
6.615334
6.601677
6.587288
6.571934
6.555465
6.537734
6.518533
6.497589
6.474663
6.449613
6.422422
6.393068
6.361468
6.327899
6.292863
6.256935
6.220781
6.185216
6.150825
6.118083
6.087017
6.05756
6.029525
6.002592
5.976393
5.9506
5.924948
5.899252
5.873455
5.847656
5.822106
5.797172
5.773196
5.750249
5.727986
5.705847
5.683487
5.661003
5.638709
5.616888
5.595842
5.576036
5.558071
5.54261
5.530345
5.52198
5.518318
5.52033
5.529135
5.545933
5.57196
5.608453
5.656615
5.717585
5.792433
5.88213
5.987385
6.108383
6.244544
6.394484
6.556244
6.727564
6.905991
7.088699
7.272296
7.452833
7.62588
7.786843
7.931303
8.055283
8.155475
8.229435
8.275625
8.293347
8.28265
8.244271
8.179623
8.090772
7.98037
7.851527
7.707652
7.552303
7.389023
7.221167
7.051758
6.883379
6.718134
6.557637
6.403058
6.255182
6.114475
5.981165
5.855294
5.736779
5.625454
5.521077
5.423382
5.332061
5.246573
5.166433
5.091194
5.020433
4.953756
4.890802
4.831246
4.774799
4.721211
4.670265
4.621782
4.575613
4.531633
4.489745
4.449868
4.411916
4.375805
4.341471
4.308853
4.277875
4.248449
4.220473
4.193835
4.168407
4.144046
4.120612
4.097959
4.076053
4.05477
4.034157
4.014228
3.996321
185.2122
136.0577
207.1335
100.5215
85.35671
71.88046
67.63915
64.42768
61.05955
59.45114
57.52383
54.98465
52.66736
50.33882
47.75534
42.72821
41.61438
40.64224
39.79113
39.05837
38.40129
37.85841
37.47601
37.27817
37.27576
37.44912
37.7147
38.1614
38.90098
39.99626
41.40718
43.08174
44.95277
46.91057
48.80937
50.70877
52.29086
53.53795
54.50278
55.19793
55.66122
55.93754
56.04946
55.9876
55.76793
55.42532
55.02081
54.64805
54.3542
54.17485
54.07714
54.01125
53.92286
53.79524
53.59748
53.31349
52.95514
52.53484
52.05222
51.50716
50.91328
50.28848
49.64689
49.00244
48.36584
47.73123
47.08646
46.43303
45.78839
45.16618
44.56048
43.96514
43.40011
42.90111
42.49575
42.19681
42.03128
42.03522
42.14978
42.20981
42.07687
41.69441
41.11058
40.44412
39.7943
39.19487
38.62111
38.01995
37.38367
36.74786
36.13665
35.53792
34.92858
34.30534
33.68293
33.08335
32.52583
32.02474
31.59679
31.27403
31.07041
30.96852
30.94268
30.96798
31.02979
31.12127
31.22364
31.30198
31.31656
31.21088
30.94157
30.56209
30.14239
29.67587
29.18485
28.70759
28.27588
27.90464
27.59238
27.3262
27.08968
26.87116
26.663
26.46837
26.29701
26.13208
25.95987
25.77317
25.57899
25.39401
25.22531
25.0538
24.84909
24.59777
24.32137
24.06304
23.83441
23.63395
23.44941
23.25921
23.04583
22.80168
22.52663
22.2245
21.89951
21.55757
21.2076
20.86026
20.52622
20.21526
19.93601
19.69677
19.50616
19.37128
19.29636
19.28629
19.34922
19.48114
19.6439
19.7832
19.85198
19.8249
19.7197
19.6132
19.54877
19.51741
19.49702
19.49134
19.52329
19.60459
19.72039
19.83635
19.91596
19.93012
19.86128
19.70728
19.48061
19.20484
18.90199
18.58789
18.26981
17.95398
17.6539
17.3829
17.14753
16.94683
16.7757
16.62677
16.49282
16.36798
16.24699
16.1249
15.99745
15.86152
15.71528
15.55832
15.39138
15.21578
15.03453
14.85574
14.69182
14.55562
14.4553
14.38492
14.3305
14.28078
14.228
14.16518
14.08972
14.00096
13.90497
13.81095
13.70764
13.5805
13.44662
13.3504
13.32126
13.3431
13.36778
13.34981
13.27372
13.15564
13.01653
12.86958
12.72223
12.57888
12.44209
12.3126
12.19075
12.07661
11.96905
11.86642
11.76734
11.6707
11.57578
11.48221
11.38971
11.29803
11.20692
11.11624
11.02612
10.9371
10.84995
10.76555
10.68481
10.60853
10.53716
10.47062
10.40842
10.34989
10.29459
10.24263
10.19489
10.15277
10.11694
10.08624
10.05853
10.0324
10.00737
9.983455
9.960929
9.940068
9.9208
9.902534
9.884306
9.865151
9.84445
9.822015
9.798
9.772804
9.747004
9.721022
9.694611
9.666623
9.635481
9.599933
9.559473
9.514403
9.465553
9.413858
9.360167
9.305161
9.249047
9.191248
9.130548
9.065481
8.99502
8.919464
8.840786
8.761859
8.685677
8.616277
8.556751
8.507104
8.464686
8.42582
8.387357
8.3474
8.305279
8.261383
8.21696
8.173806
8.133779
8.098457
8.068831
8.044268
8.02252
8.000978
7.978292
7.954415
7.929541
7.903692
7.87673
7.848648
7.819778
7.790481
7.761145
7.732201
7.703731
7.675445
7.646719
7.616433
7.583021
7.545001
7.501731
7.453786
7.402598
7.349771
7.296488
7.242672
7.187593
7.131089
7.07409
7.018467
6.966922
6.921679
6.882821
6.848314
6.81585
6.784422
6.754107
6.724986
6.696861
6.669675
6.643674
6.61907
6.595771
6.57348
6.55197
6.531313
6.511756
6.493447
6.476299
6.459971
6.443962
6.427776
6.411061
6.393645
6.37547
6.356456
6.336362
6.314793
6.291349
6.26575
6.23784
6.207535
6.174778
6.139677
6.102711
6.064551
6.025938
5.987945
5.951532
5.916996
5.884376
5.853681
5.824738
5.797125
5.770359
5.744051
5.717887
5.691612
5.665106
5.638421
5.611798
5.585674
5.560565
5.536701
5.513663
5.490551
5.466694
5.442122
5.417172
5.39205
5.366913
5.342087
5.317997
5.295103
5.274
5.255389
5.240051
5.228776
5.222254
5.221051
5.225688
5.236737
5.254861
5.280812
5.315422
5.359591
5.414206
5.479978
5.55724
5.645812
5.745033
5.853879
5.971028
6.094835
6.22324
6.353736
6.483498
6.609647
6.729494
6.840736
6.941414
7.029983
7.105268
7.166362
7.212502
7.242942
7.256954
7.253913
7.233448
7.19558
7.140806
7.070138
6.985093
6.887601
6.779871
6.664238
6.543025
6.41842
6.292388
6.166623
6.042528
5.921217
5.803534
5.69008
5.58125
5.477264
5.378202
5.284032
5.194643
5.109755
5.029121
4.952506
4.879662
4.810346
4.744328
4.681396
4.621361
4.564053
4.509325
4.457038
4.407073
4.359347
4.313793
4.270338
4.228903
4.189415
4.151801
4.115986
4.081886
4.049414
4.018473
3.988966
3.960781
3.933796
3.907929
3.883119
3.859262
3.836369
3.814432
3.794855
79.48185
57.02358
53.18848
50.15579
48.71771
46.9739
45.4715
44.12242
42.90402
41.22497
37.70043
37.20264
36.73993
36.31435
35.89405
35.47512
35.10179
34.80084
34.58596
34.44173
34.22727
33.86677
33.55463
33.31768
33.16211
33.09791
33.14101
33.30276
33.59519
34.02058
34.5705
35.274
36.23923
37.41186
38.8279
40.51137
42.34525
44.2999
46.25102
47.84047
49.12944
50.08124
50.71411
51.07922
51.25067
51.27831
51.23182
51.12966
50.99439
50.87113
50.85687
51.01982
51.41432
52.05461
52.85112
53.69554
54.46657
55.09135
55.54478
55.81961
55.94378
55.96053
55.88387
55.69419
55.3779
54.95625
54.46368
53.93064
53.40378
52.91125
52.41543
51.87481
51.30686
50.7915
50.32714
49.87412
49.47115
49.15296
48.98335
48.99289
49.1396
49.47583
50.0712
50.68338
50.92851
50.68257
49.95367
48.91748
47.87013
46.98195
46.23392
45.44702
44.4963
43.34563
42.09192
40.91519
39.88115
38.92333
37.98067
37.07776
36.26862
35.5945
35.07356
34.71133
34.51888
34.49785
34.59019
34.74417
34.9367
35.19083
35.5547
36.00131
36.4469
36.80782
36.94306
36.73798
36.30793
35.72334
34.98816
34.122
33.22195
32.39386
31.70748
31.16531
30.73835
30.39115
30.09997
29.85029
29.61829
29.41918
29.22505
29.00689
28.75568
28.49364
28.26558
28.09249
27.93115
27.71595
27.41824
27.08867
26.79458
26.54404
26.33378
26.13297
25.89325
25.58495
25.20605
24.76842
24.28906
23.78635
23.27884
22.78421
22.31682
21.88777
21.50797
21.18902
20.94289
20.78219
20.71714
20.75262
20.89788
21.17226
21.56583
21.99526
22.34748
22.54468
22.54969
22.38858
22.19486
22.074
22.01103
21.96312
21.94238
21.98236
22.08486
22.20177
22.26441
22.22702
22.06883
21.78636
21.39681
20.93324
20.43436
19.93178
19.44314
18.9719
18.52204
18.10681
17.73664
17.41562
17.14175
16.90822
16.70682
16.53126
16.3773
16.24104
16.11826
16.00512
15.89835
15.79477
15.69138
15.58572
15.4754
15.35926
15.24264
15.13745
15.06197
15.02499
15.01222
15.00142
14.97989
14.94451
14.89251
14.82243
14.73404
14.63781
14.54257
14.42255
14.25112
14.05032
13.88848
13.81019
13.79576
13.79705
13.75367
13.64359
13.49351
13.32857
13.16098
12.99597
12.83625
12.68355
12.53845
12.40151
12.27308
12.15214
12.03733
11.92747
11.82168
11.71964
11.62149
11.52717
11.43621
11.34777
11.26114
11.17604
11.09294
11.01269
10.93607
10.86403
10.7975
10.73682
10.68159
10.63093
10.58383
10.53936
10.49704
10.45735
10.42181
10.39126
10.36418
10.33788
10.31073
10.28232
10.2529
10.22333
10.19459
10.16695
10.13962
10.11109
10.07989
10.04531
10.00741
9.966915
9.925119
9.883746
9.844073
9.805811
9.766926
9.724915
9.6783
9.626959
9.571716
9.513894
9.454776
9.395431
9.336778
9.278978
9.220809
9.16009
9.094462
9.02221
8.943465
8.860733
8.777791
8.698863
8.629327
8.572556
8.527552
8.489802
8.453782
8.415349
8.372614
8.325444
8.274966
8.223245
8.172742
8.125705
8.083902
8.048544
8.018905
7.992237
7.965172
7.936407
7.906579
7.876278
7.845541
7.814007
7.781456
7.748226
7.715023
7.682591
7.651549
7.622186
7.594381
7.567568
7.540403
7.510709
7.476264
7.435953
7.390309
7.341151
7.290511
7.240024
7.189372
7.137006
7.082462
7.026838
6.972293
6.922144
6.879454
6.844406
6.81398
6.784674
6.755115
6.725686
6.696799
6.668376
6.640352
6.612954
6.586329
6.560345
6.534767
6.509532
6.484961
6.461556
6.439648
6.419227
6.399908
6.38106
6.36207
6.342559
6.322444
6.301836
6.28078
6.259013
6.23598
6.211116
6.184047
6.154543
6.122421
6.087559
6.05002
6.010232
5.968953
5.927173
5.886231
5.847201
5.810349
5.775802
5.743717
5.71386
5.685534
5.658037
5.630957
5.604018
5.576947
5.549593
5.521992
5.494368
5.467171
5.44102
5.416273
5.392449
5.36837
5.343156
5.316857
5.289907
5.262504
5.234744
5.20679
5.178878
5.151335
5.124688
5.099694
5.077241
5.058137
5.042886
5.03163
5.024343
5.021071
5.022048
5.027724
5.038747
5.055947
5.080273
5.112665
5.153848
5.204146
5.263391
5.330979
5.405994
5.487262
5.573354
5.662615
5.753237
5.843366
5.931212
6.015158
6.093894
6.166538
6.23259
6.291803
6.344038
6.389066
6.426445
6.455485
6.475302
6.484936
6.483474
6.470205
6.444754
6.407162
6.357894
6.297806
6.228084
6.150137
6.065504
5.975751
5.882394
5.786837
5.690322
5.593904
5.49845
5.404636
5.312971
5.22381
5.137388
5.053832
4.973055
4.895069
4.81993
4.747648
4.6782
4.611543
4.547622
4.486374
4.427733
4.371612
4.317905
4.266539
4.217505
4.170756
4.126168
4.083652
4.043138
4.004544
3.967782
3.932765
3.899401
3.867595
3.83726
3.808278
3.780577
3.754063
3.728677
3.704383
3.681196
3.66057
103.1046
43.16238
34.86718
33.00361
31.92086
31.25987
30.89869
30.73103
30.71199
30.80487
30.84891
30.69259
30.54285
30.4006
30.2668
30.14235
30.03669
29.9533
29.88674
29.82118
29.74469
29.67652
29.65495
29.70148
29.81945
30.02051
30.31532
30.70976
31.21373
31.8365
32.65416
33.71509
35.02433
36.52502
38.25337
40.25052
42.13219
43.87343
45.33476
46.41692
47.10437
47.41247
47.41414
47.22891
47.00142
46.83165
46.82091
46.98553
47.36729
47.98251
48.89039
50.18192
51.83645
53.85353
56.06356
58.23105
60.13789
61.68337
62.86794
63.75379
64.44425
65.03717
65.51969
65.80375
65.80576
65.55683
65.14428
64.70099
64.42964
64.42501
64.49969
64.40897
64.20399
64.05494
63.80359
63.49894
63.33918
63.34491
63.38037
63.42806
63.58561
63.88854
64.37002
64.62275
64.17717
63.19051
61.84464
60.36905
59.09413
58.16473
57.28473
56.2067
54.80647
52.9426
50.80558
48.84379
47.23545