/*--------------------------------*- C++ -*----------------------------------*\
| =========                 |                                                 |
| \\      /  F ield         | foam-extend: Open Source CFD                    |
|  \\    /   O peration     | Version:     3.1                                |
|   \\  /    A nd           | Web:         http://www.extend-project.de       |
|    \\/     M anipulation  |                                                 |
\*---------------------------------------------------------------------------*/
FoamFile
{
    version     2.0;
    format      ascii;
    class       volScalarField;
    location    "17.5";
    object      pd;
}
// * * * * * * * * * * * * * * * * * * * * * * * * * * * * * * * * * * * * * //

dimensions      [1 -1 -2 0 0 0 0];

internalField   nonuniform List<scalar> 
119952
(
5893.877
5207.381
5104.975
5209.497
5318.519
5243.597
5223.414
5211.608
5204.559
5198.958
5193.809
5188.501
5182.905
5177.303
5172.119
5167.885
5165.039
5163.097
5156.833
5119.898
5309.281
5221.107
5196.023
5443.2
5427.927
5474.306
5506.963
5584.131
5794.597
5839.073
4043.513
4045.785
4084.884
4126.514
4176.282
4229.606
4286.672
4346.858
4407.736
4452.619
4511.511
4564.984
4610.162
4649.433
4682.087
4708.458
4728.521
4742.45
4750.965
4774.987
4767.61
4758.663
4761.785
4766.139
4774.09
4785.581
4800.421
4818.105
4840.098
4857.232
4880.955
4908.442
4935.412
4962.592
4990.124
5017.939
5049.466
5105.389
5200.138
5152.376
5150.203
5201.767
5228.791
5226.959
5215.844
5209.898
5204.326
5198.875
5193.235
5187.131
5180.696
5174.176
5168.218
5163.639
5161.215
5161.684
5166.064
5176.016
5208.509
5237.39
5258.58
5331.476
5422.242
5455.978
5486.098
5514.611
5503.585
5394.106
5390.789
5429.527
5449.055
5469.11
5486.412
5501.594
5515.074
5526.397
5535.466
5543.427
5552.15
5562.578
5573.884
5584.701
5594.254
5602.594
5610.047
5616.756
5622.542
5627.4
5631.331
5634.34
5636.409
5637.589
5638.057
5637.976
5637.509
5636.826
5635.949
5634.995
5634.021
5633.071
5632.22
5631.587
5631.329
5631.683
5632.994
5635.61
5639.715
5645.526
5653.119
5662.248
5672.432
5683.142
5693.863
5704.126
5713.528
5721.993
5730.708
5742.371
5752.348
5757.076
5763.538
5769.74
5775.575
5781.292
5786.791
5792.116
5797.27
5802.26
5807.093
5811.771
5816.293
5820.659
5824.885
5828.965
5832.882
5836.657
5840.276
5843.72
5846.985
5850.056
5852.88
5855.469
5857.781
5859.811
5861.547
5862.997
5864.192
5865.166
5865.95
5866.497
5866.865
5867.066
5867.106
5867.014
5866.812
5866.522
5866.167
5865.771
5865.36
5864.96
5864.596
5864.288
5864.037
5863.818
5863.551
5863.062
5862.185
5866.427
5869.234
5869.233
5869.597
5870.12
5870.84
5871.594
5872.452
5873.361
5874.314
5875.336
5876.41
5877.561
5878.783
5880.124
5881.594
5883.205
5884.966
5886.874
5888.913
5891.051
5893.248
5895.458
5897.628
5899.707
5901.64
5903.37
5904.845
5906.024
5906.854
5907.276
5907.207
5906.456
5904.541
5900.384
5895.092
5903.744
5910.012
5914.377
5917.799
5920.668
5923.131
5925.293
5927.269
5929.083
5930.76
5932.32
5933.758
5935.064
5936.226
5937.237
5938.096
5938.811
5939.398
5939.868
5940.234
5940.507
5940.698
5940.82
5940.887
5940.914
5940.908
5940.873
5940.808
5940.697
5940.499
5940.232
5939.907
5939.469
5938.797
5953.835
5944.457
5935.668
5935.274
5934.192
5932.342
5930.852
5929.496
5928.118
5926.766
5925.453
5924.17
5922.923
5921.619
5920.38
5919.147
5917.927
5916.719
5915.519
5914.328
5913.148
5911.986
5910.851
5909.771
5908.769
5907.806
5906.99
5906.301
5905.76
5905.38
5905.275
5905.236
5905.413
5905.776
5906.308
5907.003
5907.843
5908.817
5909.914
5911.131
5912.467
5913.933
5915.549
5917.348
5919.316
5921.1
5922.122
5922.763
5923.639
5924.694
5925.809
5926.996
5928.177
5928.228
5926.682
5927.61
5929.13
5929.812
5931.021
5932.325
5933.192
5933.751
5934.235
5934.685
5934.996
5935.099
5934.974
5934.609
5934.029
5933.27
5932.486
5931.764
5931.117
5930.469
5929.715
5928.807
5927.712
5926.414
5924.997
5923.44
5921.778
5920.042
5918.241
5916.359
5914.413
5912.39
5910.259
5908.01
5905.629
5903.099
5900.406
5897.544
5894.518
5891.335
5888.003
5884.535
5880.94
5877.233
5873.433
5869.554
5865.612
5861.628
5857.622
5853.609
5849.603
5845.62
5841.669
5837.76
5833.897
5830.083
5826.32
5822.604
5818.934
5815.304
5811.709
5808.143
5804.6
5801.073
5797.559
5794.053
5790.551
5787.047
5783.542
5780.006
5776.485
5772.98
5769.435
5765.865
5762.259
5758.588
5754.811
5750.943
5746.849
5742.386
5737.43
5731.662
5725.952
5726.709
5746.915
3388.105
3426.574
3456.169
3479.577
3498.697
3510.015
3515.514
3519.523
3509.683
3470.034
3470.322
3463.736
3456.017
3455.482
3463.43
3479.954
3503.515
3536.443
3600.389
3648.924
3672.301
3712.044
3752.9
3789.678
3822.525
3850.696
3873.735
3892.432
3906.698
3910.931
3922.04
3931.289
3939.594
3949.066
3960.389
3974.828
3994.74
4022.106
4041.357
4073.941
4118.958
4170.28
4227.746
4290.026
4353.842
4417.956
4478.538
4535.053
4587.61
4632.081
4668.783
4698.753
4721.631
4738.135
4749.197
4757.209
4754.416
4757.464
4759.479
4760.702
4765.192
4773.075
4784.687
4800.204
4818.95
4840.472
4865.328
4891.376
4917.621
4944.329
4971.85
5000.524
5031.35
5065.087
5100.803
5133.001
5151.542
5164.076
5181.651
5199.057
5208.228
5209.615
5207.516
5204.213
5199.847
5194.086
5186.85
5178.421
5169.492
5161.197
5155.117
5153.021
5156.631
5167.917
5187.785
5216.611
5252.497
5294.325
5342.955
5393.435
5432.961
5458.434
5468.959
5465.609
5448.528
5441.363
5450.396
5464.51
5478.926
5492.187
5504.646
5516.677
5528.138
5538.932
5549.352
5560.009
5571.173
5582.489
5593.333
5603.234
5612.007
5619.633
5626.097
5631.338
5635.353
5638.135
5639.783
5640.464
5640.132
5639.198
5637.953
5636.589
5635.238
5633.902
5632.547
5631.18
5629.792
5628.461
5627.372
5626.873
5627.164
5628.473
5631.285
5635.95
5642.904
5652.383
5664.054
5676.895
5689.692
5701.544
5712.054
5721.336
5729.823
5737.9
5745.795
5753.337
5759.829
5765.966
5772.032
5778.001
5783.853
5789.528
5795.006
5800.282
5805.352
5810.217
5814.88
5819.348
5823.629
5827.733
5831.684
5835.479
5839.12
5842.606
5845.926
5849.053
5851.971
5854.644
5857.044
5859.153
5860.96
5862.474
5863.734
5864.78
5865.638
5866.309
5866.784
5867.072
5867.189
5867.166
5867.03
5866.807
5866.513
5866.167
5865.768
5865.397
5865.067
5864.807
5864.604
5864.506
5864.509
5864.699
5865.229
5866.599
5867.385
5869.285
5869.763
5870.289
5871.01
5871.747
5872.541
5873.389
5874.279
5875.196
5876.151
5877.139
5878.175
5879.294
5880.538
5881.941
5883.525
5885.304
5887.275
5889.404
5891.633
5893.898
5896.134
5898.285
5900.305
5902.156
5903.809
5905.239
5906.42
5907.319
5907.885
5908.037
5907.67
5906.758
5905.728
5905.651
5908.377
5912.726
5916.199
5919.144
5921.773
5924.09
5926.174
5928.101
5929.898
5931.576
5933.135
5934.56
5935.833
5936.938
5937.872
5938.647
5939.281
5939.794
5940.202
5940.512
5940.733
5940.876
5940.954
5941.012
5941.056
5941.096
5941.123
5941.114
5941.04
5940.882
5940.637
5940.31
5939.967
5939.88
5943.551
5943.667
5939.482
5936.115
5934.21
5932.676
5931.188
5929.712
5928.303
5926.96
5925.649
5924.359
5923.088
5921.827
5920.56
5919.297
5918.041
5916.795
5915.548
5914.301
5913.054
5911.818
5910.612
5909.459
5908.389
5907.43
5906.6
5905.928
5905.436
5905.133
5905.031
5905.144
5905.438
5905.883
5906.49
5907.251
5908.144
5909.155
5910.274
5911.494
5912.817
5914.24
5915.75
5917.311
5918.854
5920.271
5921.467
5922.505
5923.484
5924.494
5925.517
5926.557
5927.518
5928.338
5928.494
5928.599
5928.92
5929.738
5930.891
5931.965
5932.824
5933.514
5934.113
5934.63
5935.018
5935.218
5935.238
5935.075
5934.706
5934.189
5933.619
5933.069
5932.497
5931.831
5930.993
5929.932
5928.659
5927.215
5925.627
5923.931
5922.16
5920.33
5918.451
5916.517
5914.526
5912.372
5910.162
5907.873
5905.482
5902.918
5900.184
5897.287
5894.229
5891.013
5887.648
5884.143
5880.51
5876.763
5872.919
5868.993
5865.003
5860.968
5856.909
5852.842
5848.785
5844.75
5840.75
5836.791
5832.881
5829.022
5825.216
5821.463
5817.758
5814.098
5810.477
5806.891
5803.332
5799.796
5796.278
5792.773
5789.278
5785.788
5782.302
5778.819
5775.327
5771.831
5768.331
5764.814
5761.274
5757.696
5754.068
5750.356
5746.582
5742.756
5739.077
5735.937
5734.107
5733.721
5735.145
4351.612
4551.151
4762.486
4983.743
5200.696
5412.631
5610.624
5782.792
5920.319
6007.51
6042.948
6037.598
5982.432
5881.585
5740.062
5566.213
5368.702
5155.712
4940.52
4672.278
4461.898
4259.106
4074.113
3909.819
3767.435
3646.785
3546.763
3466.668
3407.542
3355.603
3320.306
3300.34
3291.292
3291.241
3299.52
3315.199
3338.83
3372.153
3401.252
3424.069
3454.709
3480.031
3497.714
3508.272
3510.865
3505.978
3495.668
3479.806
3462.228
3451.551
3446.334
3448.139
3458.069
3476.193
3502.548
3538.266
3588.041
3637.412
3683.825
3729.217
3773.332
3813.188
3847.04
3874.591
3895.776
3911.269
3922.229
3929.997
3934.543
3937.635
3941.028
3945.914
3953.339
3964.479
3980.206
4001.579
4030.444
4067.733
4113.586
4168.319
4230.882
4299.14
4369.843
4439.862
4507.256
4568.005
4620.766
4665.24
4701.153
4728.313
4747.325
4758.809
4763.432
4763.79
4761.066
4758.196
4755.107
4754.35
4757.449
4764.752
4776.366
4792.297
4812.372
4835.914
4861.866
4889.188
4917.037
4945.008
4973.015
5001.428
5030.284
5059.841
5089.364
5118.593
5141.187
5157.514
5174.041
5189.959
5201.35
5206.734
5207.901
5206.52
5202.881
5196.771
5188.13
5177.295
5165.182
5153.464
5144.269
5140.582
5145.254
5159.14
5182.25
5213.999
5252.371
5294.296
5338.667
5382.756
5419.97
5445.275
5459.984
5464.234
5461.737
5459.144
5463.611
5473.539
5484.625
5495.579
5506.615
5517.788
5528.976
5540.203
5551.627
5563.305
5575.384
5587.602
5599.363
5610.105
5619.626
5627.797
5634.49
5639.594
5643.059
5644.92
5645.338
5644.606
5642.962
5640.857
5638.558
5636.446
5634.553
5632.803
5631.059
5629.223
5627.304
5625.408
5623.753
5622.87
5623.002
5623.997
5626.626
5631.47
5639.102
5649.83
5663.241
5678.039
5692.574
5705.57
5716.53
5725.76
5733.771
5741.045
5747.957
5754.752
5761.156
5767.212
5773.238
5779.26
5785.216
5791.029
5796.65
5802.056
5807.235
5812.18
5816.887
5821.363
5825.622
5829.679
5833.552
5837.259
5840.813
5844.222
5847.475
5850.548
5853.408
5856.014
5858.327
5860.325
5862.008
5863.405
5864.555
5865.497
5866.267
5866.862
5867.283
5867.443
5867.335
5867.274
5867.252
5867.106
5866.82
5866.478
5866.108
5865.742
5865.412
5865.162
5865.021
5865.028
5865.224
5865.664
5866.323
5867.065
5867.733
5868.817
5869.866
5870.771
5871.605
5872.441
5873.309
5874.203
5875.115
5876.033
5876.945
5877.848
5878.777
5879.772
5880.901
5882.244
5883.842
5885.706
5887.838
5890.178
5892.619
5895.056
5897.4
5899.586
5901.565
5903.36
5904.967
5906.381
5907.604
5908.637
5909.455
5910.035
5910.4
5910.662
5911.099
5912.122
5913.984
5916.455
5919.051
5921.474
5923.668
5925.671
5927.564
5929.382
5931.141
5932.822
5934.395
5935.818
5937.052
5938.072
5938.873
5939.513
5940.028
5940.431
5940.733
5940.95
5941.086
5941.147
5941.165
5941.162
5941.204
5941.301
5941.433
5941.509
5941.495
5941.358
5941.088
5940.664
5939.959
5938.658
5936.467
5934.232
5933.004
5932.528
5932.134
5931.46
5930.531
5929.465
5928.339
5927.172
5925.966
5924.738
5923.504
5922.265
5921.017
5919.758
5918.485
5917.215
5915.91
5914.604
5913.274
5911.933
5910.637
5909.408
5908.262
5907.231
5906.353
5905.652
5905.156
5904.877
5904.784
5904.904
5905.227
5905.751
5906.425
5907.229
5908.149
5909.17
5910.283
5911.481
5912.765
5914.127
5915.547
5916.995
5918.427
5919.785
5921.006
5922.083
5923.091
5924.082
5925.065
5925.993
5926.855
5927.584
5928.304
5929.033
5929.748
5930.454
5931.217
5931.969
5932.657
5933.28
5933.851
5934.357
5934.758
5935.018
5935.167
5935.183
5935.014
5934.665
5934.21
5933.707
5933.185
5932.585
5931.838
5930.89
5929.724
5928.346
5926.779
5925.071
5923.273
5921.401
5919.471
5917.485
5915.44
5913.307
5911.051
5908.703
5906.264
5903.678
5900.924
5898.007
5894.93
5891.696
5888.312
5884.785
5881.127
5877.352
5873.475
5869.513
5865.485
5861.412
5857.306
5853.186
5849.076
5844.976
5840.915
5836.899
5832.93
5829.014
5825.154
5821.349
5817.596
5813.892
5810.233
5806.613
5803.027
5799.469
5795.935
5792.42
5788.921
5785.436
5781.962
5778.496
5775.033
5771.574
5768.118
5764.663
5761.207
5757.746
5754.279
5750.822
5747.406
5744.122
5741.079
5738.513
5736.578
5735.703
5735.68
3294.574
3310.492
3340.383
3375.57
3424.436
3493.609
3572.522
3668.189
3782.541
3893.408
4009.597
4153.669
4318.36
4500.894
4698.629
4902.232
5107.55
5304.915
5486.359
5643.245
5768.77
5859.798
5900.411
5886.202
5823.332
5715.722
5569.155
5391.625
5191.923
4981.106
4775.528
4464.175
4275.096
4099.92
3931.106
3780.321
3652.68
3546.97
3460.717
3392.191
3339.905
3302.882
3279.414
3267.283
3264.465
3269.585
3282.222
3302.788
3332.018
3367.961
3406.669
3444.355
3477.452
3503.068
3519.809
3526.766
3524.213
3512.946
3493.146
3467.9
3443.466
3425.748
3418.537
3422.176
3434.881
3456.628
3486.844
3526.669
3577.492
3629.979
3680.664
3732.54
3782.882
3827.946
3865.51
3894.921
3916.78
3931.457
3939.942
3943.376
3943.233
3941.389
3939.482
3938.912
3940.891
3946.933
3958.326
3976.445
4002.913
4039.145
4086.408
4145.17
4213.974
4289.484
4367.691
4445.339
4519.292
4586.405
4644.741
4692.885
4730.118
4756.733
4773.398
4780.944
4780.23
4774.498
4765.903
4755.945
4748.251
4745.086
4746.663
4753.001
4764.232
4780.339
4801.447
4826.927
4855.428
4885.463
4915.491
4944.54
4972.499
4999.836
5026.845
5054.147
5081.4
5107.848
5131.076
5150.827
5168.845
5185.161
5198.054
5206.312
5210.242
5210.485
5207.255
5200.544
5190.279
5176.568
5159.895
5141.16
5127.789
5122.822
5126.699
5141.47
5167.973
5204.033
5245.964
5290.6
5335.686
5378.358
5414.596
5441.412
5459.044
5467.925
5471.09
5470.813
5472.462
5479.573
5489.51
5499.163
5509.141
5519.558
5529.431
5538.797
5550.878
5564.876
5578.457
5591.259
5603.503
5614.91
5625.133
5633.902
5640.973
5646.197
5649.651
5651.227
5650.943
5649.106
5646.154
5642.636
5639.088
5636.208
5633.829
5631.742
5629.722
5627.493
5624.962
5622.179
5619.972
5619.035
5618.943
5619.524
5621.315
5625.663
5633.394
5644.979
5659.889
5676.889
5693.799
5708.586
5720.096
5729.122
5736.946
5743.881
5750.247
5756.414
5762.453
5768.448
5774.312
5780.224
5786.254
5792.25
5797.991
5803.456
5808.664
5813.617
5818.326
5822.795
5827.028
5831.044
5834.868
5838.53
5842.053
5845.443
5848.695
5851.784
5854.669
5857.298
5859.616
5861.586
5863.203
5864.505
5865.526
5866.314
5866.764
5866.547
5866.915
5867.662
5868.201
5868.165
5867.914
5867.611
5867.275
5866.901
5866.488
5866.07
5865.657
5865.263
5865.116
5865.244
5865.568
5866.055
5866.681
5867.392
5868.235
5869.351
5870.458
5871.397
5872.246
5873.094
5873.968
5874.86
5875.754
5876.626
5877.454
5878.23
5878.987
5879.802
5880.775
5882.058
5883.679
5885.616
5887.905
5890.428
5892.99
5895.614
5898.17
5900.489
5902.532
5904.341
5905.952
5907.402
5908.731
5909.954
5911.052
5912.015
5912.872
5913.646
5914.463
5915.522
5917.007
5918.868
5920.884
5923
5925.015
5926.783
5928.535
5930.288
5932.034
5933.708
5935.315
5936.79
5938.073
5939.084
5939.811
5940.356
5940.778
5941.068
5941.254
5941.376
5941.451
5941.481
5941.481
5941.484
5941.568
5941.698
5941.884
5942.071
5942.141
5942.031
5941.739
5941.32
5940.817
5940.347
5939.882
5939.187
5937.979
5936.431
5934.844
5933.327
5931.87
5930.502
5929.194
5927.906
5926.625
5925.342
5924.048
5922.746
5921.442
5920.133
5918.811
5917.435
5916.106
5914.817
5913.425
5911.998
5910.596
5909.249
5907.989
5906.874
5905.922
5905.142
5904.606
5904.317
5904.283
5904.457
5904.837
5905.409
5906.136
5906.99
5907.95
5908.998
5910.118
5911.288
5912.529
5913.855
5915.237
5916.63
5918.011
5919.334
5920.553
5921.656
5922.694
5923.702
5924.664
5925.524
5926.328
5927.089
5927.843
5928.496
5928.91
5929.523
5930.368
5931.243
5931.984
5932.644
5933.241
5933.756
5934.11
5934.347
5934.505
5934.575
5934.496
5934.293
5934.03
5933.734
5933.392
5932.938
5932.335
5931.509
5930.455
5929.177
5927.703
5926.078
5924.331
5922.488
5920.566
5918.572
5916.505
5914.351
5912.097
5909.72
5907.213
5904.582
5901.8
5898.855
5895.75
5892.487
5889.073
5885.516
5881.825
5878.015
5874.1
5870.098
5866.028
5861.908
5857.756
5853.593
5849.428
5845.288
5841.176
5837.107
5833.089
5829.126
5825.221
5821.374
5817.583
5813.842
5810.149
5806.498
5802.884
5799.301
5795.746
5792.215
5788.704
5785.214
5781.742
5778.282
5774.836
5771.405
5767.99
5764.594
5761.219
5757.874
5754.57
5751.333
5748.201
5745.253
5742.561
5740.276
5738.502
5737.387
5736.624
3460.397
3431.367
3406.067
3381.453
3356.313
3333.636
3315.936
3301.945
3292.581
3288.197
3289.735
3296.071
3311.305
3334.876
3367.048
3411.037
3478.652
3552.819
3637.75
3733.753
3843.208
3971.348
4119.282
4285.961
4469.168
4664.773
4867.906
5072.423
5270.961
5448.421
5598.208
5711.815
5783.16
5805.542
5775.026
5693.458
5568.201
5406.362
5217.811
5010.966
4791.461
4564.394
4336.938
4139.194
3967.267
3811.043
3673.303
3557.441
3462.533
3386.044
3326.042
3281.297
3251.142
3234.761
3230.304
3233.363
3241.265
3254.951
3277.905
3313.753
3360.036
3409.782
3457.071
3498.127
3529.954
3550.053
3556.389
3549.09
3529.099
3496.859
3457.276
3420.209
3393.526
3382.13
3385.358
3399.176
3422.91
3455.467
3497.124
3550.223
3606.302
3666.126
3729.553
3790.324
3842.773
3884.762
3916.626
3939.374
3953.463
3959.616
3959.501
3955.095
3948.144
3940.193
3932.768
3927.475
3926.578
3931.744
3944.014
3966.317
4000.184
4047.421
4109.626
4184.676
4267.966
4355.671
4443.591
4527.218
4603.061
4668.509
4721.824
4762.421
4790.24
4805.506
4809.038
4802.18
4788.201
4771.331
4752.814
4737.748
4729.777
4730.434
4736.42
4746.921
4762.701
4784.959
4813.054
4844.953
4878.343
4910.997
4941.321
4969.16
4995.531
5021.317
5047.154
5072.914
5098.276
5122.207
5143.34
5163.491
5182.514
5198.066
5208.931
5215.169
5216.815
5213.905
5206.585
5194.237
5173.629
5150.393
5127.975
5110.566
5098.611
5097.397
5112.169
5143.222
5186.08
5234.517
5284.427
5333.25
5378.015
5415.691
5444.271
5463.36
5467.346
5465.711
5471.345
5481.163
5486.502
5491.644
5498.669
5496.191
5498.865
5514.883
5539.002
5555.351
5568.436
5581.66
5595.024
5608.022
5620.138
5630.753
5639.655
5647.254
5653.092
5656.501
5657.473
5656.256
5653.218
5648.905
5643.55
5638.699
5635.131
5632.388
5630.082
5627.85
5624.058
5614.233
5607.7
5612.107
5615.699
5614.796
5611.891
5611.885
5615.519
5624.822
5636.776
5652.647
5672.549
5692.262
5708.307
5721.529
5732.749
5740.775
5746.113
5751.343
5756.989
5763.387
5769.785
5775.783
5781.733
5787.751
5793.716
5799.483
5804.969
5810.176
5815.118
5819.807
5824.239
5828.409
5832.35
5836.098
5839.691
5843.167
5846.537
5849.798
5852.934
5855.891
5858.604
5860.996
5863.003
5864.599
5865.764
5865.659
5864.85
5865.683
5867.649
5868.891
5869.2
5869.156
5868.834
5867.999
5867.603
5867.524
5867.422
5867.002
5866.49
5865.974
5865.515
5865.325
5865.369
5865.68
5866.219
5866.758
5867.46
5868.456
5869.667
5870.725
5871.612
5872.446
5873.301
5874.186
5875.079
5875.962
5876.802
5877.568
5878.245
5878.851
5879.455
5880.156
5881.338
5882.675
5884.496
5887.068
5890.265
5893.352
5896.236
5898.902
5901.308
5903.442
5905.319
5906.99
5908.507
5909.954
5911.361
5912.692
5913.955
5915.208
5916.32
5917.309
5918.277
5919.318
5920.818
5922.552
5924.308
5925.959
5927.712
5929.17
5930.679
5932.449
5934.422
5936.219
5937.742
5939.001
5939.958
5940.666
5941.091
5941.375
5941.493
5941.645
5941.778
5941.82
5941.759
5941.706
5941.661
5941.666
5941.825
5942.131
5942.487
5942.69
5942.604
5942.223
5941.662
5941.09
5940.426
5939.507
5938.218
5936.799
5935.393
5934.054
5932.871
5931.792
5930.644
5929.42
5928.184
5926.936
5925.665
5924.37
5923.063
5921.747
5920.4
5918.903
5917.503
5916.244
5914.891
5913.529
5911.97
5910.455
5908.973
5907.561
5906.357
5905.356
5904.487
5903.897
5903.611
5903.591
5903.802
5904.23
5904.862
5905.647
5906.47
5907.466
5908.598
5909.829
5911.043
5912.291
5913.585
5914.836
5916.075
5917.451
5918.924
5920.253
5921.367
5922.381
5923.41
5924.305
5925.062
5925.451
5925.258
5925.959
5927.382
5928.666
5929.434
5930.131
5930.859
5931.578
5932.226
5932.778
5933.229
5933.574
5933.801
5934.009
5934.159
5934.224
5934.188
5934.052
5933.847
5933.561
5933.133
5932.589
5931.893
5931.006
5929.896
5928.596
5927.091
5925.442
5923.665
5921.777
5919.792
5917.715
5915.543
5913.264
5910.865
5908.331
5905.654
5902.833
5899.855
5896.717
5893.421
5889.972
5886.379
5882.651
5878.803
5874.848
5870.804
5866.69
5862.524
5858.325
5854.113
5849.902
5845.711
5841.55
5837.43
5833.362
5829.352
5825.398
5821.502
5817.666
5813.885
5810.155
5806.468
5802.82
5799.206
5795.623
5792.065
5788.533
5785.03
5781.554
5778.094
5774.657
5771.248
5767.868
5764.523
5761.223
5757.98
5754.813
5751.752
5748.83
5746.112
5743.635
5741.536
5739.854
5738.639
5737.601
3849.987
3797.102
3751.634
3707.093
3668.481
3626.445
3591.327
3557.766
3525.805
3494.603
3464.768
3436.083
3408.703
3382.921
3358.258
3334.798
3317.189
3303.003
3292.932
3287.636
3287.764
3293.998
3307.291
3328.437
3357.932
3397.638
3444.467
3508.035
3584.108
3674.646
3779.871
3902.502
4043.852
4203.522
4380.442
4573.39
4773.357
4972.892
5163.456
5333.544
5474.359
5576.774
5634.662
5642.38
5598.021
5503.147
5366.44
5196.687
5000.842
4786.87
4563.431
4342.52
4134.064
3948.138
3786.683
3646.245
3526.321
3427.325
3347.548
3284.557
3237.318
3204.296
3184.129
3176.482
3180.544
3190.513
3202.903
3217.194
3240.601
3284.799
3346.707
3414.196
3477.528
3529.536
3568.451
3593.213
3600.086
3589.465
3560.063
3509.444
3446.002
3390.251
3351.961
3335.015
3335.192
3348.702
3376.081
3408.566
3451.466
3515.324
3575.473
3642.981
3720.98
3797.196
3860.338
3907.952
3942.667
3966.842
3980.371
3983.603
3979.555
3969.955
3956.426
3940.879
3925.016
3910.74
3901.265
3896.796
3901.192
3918.78
3950.042
3995.62
4060.34
4140.884
4237.42
4340.651
4441.594
4536.52
4622.662
4696.69
4756.402
4801.047
4830.478
4844.523
4843.464
4828.448
4803.578
4771.612
4739.37
4717.668
4710.862
4711.635
4715.289
4724.469
4739.386
4763.439
4795.398
4832.314
4870.919
4907.553
4939.389
4966.587
4991.249
5014.678
5038.285
5053.45
5065.379
5093.585
5132.417
5162.709
5184.078
5201.461
5214.8
5223.161
5225.813
5221.82
5205.456
5187.688
5170.112
5150.236
5120.184
5088.129
5063.856
5055.241
5069.785
5107.871
5160.933
5218.498
5276.651
5332.967
5382.451
5421.692
5433.735
5432.149
5454.538
5485.029
5493.153
5490.807
5477.706
5377.693
5368.674
5449.309
5517.052
5534.242
5544.966
5556.672
5569.861
5584.062
5598.359
5611.063
5622.498
5634.653
5646.128
5654.58
5660.092
5663.032
5663.406
5661.303
5657.17
5651.771
5644.375
5637.516
5633.501
5630.291
5626.084
5607.329
5572.091
5574.414
5602.076
5614.993
5613.107
5610.514
5611.142
5613.021
5614.635
5615.797
5616.086
5617.459
5629.59
5655.716
5697.375
5726.063
5737.591
5744.396
5749.844
5754.869
5759.812
5765.049
5770.897
5776.935
5783.065
5789.297
5795.361
5801.131
5806.523
5811.65
5816.547
5821.235
5825.617
5829.686
5833.514
5837.149
5840.647
5844.075
5847.432
5850.706
5853.91
5856.995
5859.88
5862.448
5864.575
5866.021
5866.222
5866.096
5866.947
5867.359
5866.041
5865.412
5866.453
5869.097
5869.837
5869.511
5869.087
5868.635
5868.156
5867.617
5866.976
5866.304
5865.684
5865.096
5864.059
5864.175
5865.416
5866.897
5867.91
5868.827
5869.759
5870.699
5871.565
5872.393
5873.259
5874.148
5875.028
5875.898
5876.711
5877.444
5878.037
5877.764
5877.255
5877.937
5879.92
5882.208
5884.373
5886.909
5890.02
5893.388
5896.628
5899.558
5902.153
5904.419
5906.39
5908.126
5909.654
5911.169
5912.779
5914.297
5915.754
5917.361
5918.48
5919.012
5920.014
5921.126
5921.469
5921.553
5924.015
5926.766
5928.711
5930.298
5931.89
5933.613
5935.397
5937.132
5938.644
5939.956
5940.907
5941.524
5941.831
5941.897
5942.005
5942.005
5942.08
5942.17
5942.044
5941.823
5941.859
5941.783
5941.887
5942.339
5942.979
5943.31
5942.612
5940.603
5939.929
5940.357
5940.875
5940.051
5938.603
5936.573
5935.462
5934.822
5933.76
5932.442
5931.129
5929.817
5928.547
5927.3
5926.026
5924.705
5923.361
5921.992
5920.377
5918.855
5917.476
5916.257
5914.939
5913.371
5911.849
5910.256
5908.681
5907.152
5905.757
5904.6
5903.62
5902.948
5902.648
5902.649
5902.712
5902.784
5903.493
5904.719
5905.984
5907.129
5908.288
5909.463
5910.584
5911.474
5912.701
5914.181
5915.794
5917.235
5918.687
5919.992
5921.071
5922.139
5922.82
5920.519
5920.412
5922.198
5925.649
5927.2
5927.883
5928.505
5929.181
5929.911
5930.658
5931.372
5932.014
5932.553
5932.99
5933.356
5933.62
5933.792
5933.895
5933.937
5933.94
5933.932
5933.887
5933.737
5933.409
5932.975
5932.421
5931.664
5930.656
5929.448
5928.059
5926.544
5924.856
5923.024
5921.072
5919.003
5916.824
5914.524
5912.098
5909.536
5906.826
5903.968
5900.955
5897.783
5894.452
5890.97
5887.342
5883.579
5879.693
5875.699
5871.615
5867.459
5863.25
5859.006
5854.745
5850.486
5846.244
5842.032
5837.862
5833.744
5829.681
5825.679
5821.735
5817.847
5814.015
5810.237
5806.505
5802.818
5799.168
5795.551
5791.962
5788.398
5784.873
5781.392
5777.916
5774.479
5771.081
5767.727
5764.424
5761.185
5758.023
5754.962
5752.031
5749.269
5746.702
5744.378
5742.418
5740.791
5739.531
5738.387
4144.618
4108.784
4041.207
3967.891
3900.124
3842.717
3791.48
3745.73
3704.857
3665.255
3623.199
3588.781
3555.887
3524.192
3493.449
3463.785
3435.24
3407.788
3381.356
3357.603
3336.182
3317.674
3302.117
3290.212
3282.535
3279.672
3282.036
3290.613
3306.773
3331.73
3366.367
3411.194
3468.96
3539.423
3623.622
3722.543
3838.459
3974.129
4130.362
4302.552
4488.257
4679.755
4868.915
5046.081
5200.597
5323.088
5404.403
5439.297
5423.735
5358.514
5247.225
5096.449
4912.504
4708.224
4492.53
4274.334
4063.806
3869.244
3698.6
3554.468
3435.707
3338.877
3261.781
3201.572
3154.559
3120.792
3101.733
3097.81
3106.871
3122.107
3132.43
3144.051
3161.436
3185.911
3241.455
3320.947
3412.045
3503.689
3576.554
3622.907
3646.053
3649.061
3637.849
3600.352
3521.012
3419.652
3334.434
3284.371
3273.239
3277.626
3278.581
3283.078
3301.673
3358.113
3450.108
3533.836
3615.952
3711.892
3800.284
3865.489
3925.695
3973.365
4001.164
4012.737
4011.012
4001.736
3985.607
3964.298
3939.523
3914.382
3890.625
3869.378
3850.824
3843.71
3854.438
3882.913
3931.482
3996.545
4090.508
4204.171
4324.102
4440.802
4549.371
4646.794
4730.017
4796.529
4844.476
4875.832
4889.112
4882.154
4845.115
4799.861
4761.356
4734.82
4708.989
4690.999
4686.432
4688.022
4696.314
4709.483
4736.645
4774.315
4817.941
4863.548
4905.943
4939.77
4965.345
4983.9
4955.237
4953.914
4996.453
5068.81
5110.957
5138.961
5164.441
5187.853
5208.257
5224.399
5234.448
5227.787
5187.121
5197.257
5208.151
5190.192
5152.15
5104.41
5056.476
5017.554
4995.433
5004.022
5041.429
5088.983
5173.678
5267.812
5338.092
5383.535
5372.23
5404.162
5465.449
5501.131
5505.149
5504.267
5443.159
5271.754
5275.445
5371.537
5498.946
5528.533
5535.424
5544.543
5555.943
5569.045
5579.856
5591.147
5608.251
5627.532
5642.016
5652.768
5660.968
5666.624
5669.538
5669.558
5666.761
5661.725
5655.189
5645.326
5635.776
5626.596
5596.432
5498.904
5491.834
5550.906
5615.743
5623.513
5616.319
5608.874
5604.196
5606.616
5611.543
5611.562
5600.507
5446.633
5222.797
5328.208
5584.333
5710.609
5735.352
5742.751
5747.672
5752.17
5756.573
5761.079
5765.861
5770.477
5774.572
5782.019
5790.126
5796.849
5802.726
5808.134
5813.147
5817.963
5822.569
5826.824
5830.748
5834.447
5837.957
5841.328
5844.7
5848.069
5851.386
5854.695
5857.92
5861.053
5863.931
5866.381
5868.211
5869.436
5869.069
5856.926
5846.342
5854.024
5867.593
5871.153
5870.547
5870.226
5870.122
5869.869
5869.438
5868.895
5868.212
5867.374
5866.335
5863.854
5859.933
5860.791
5863.722
5865.542
5866.552
5867.562
5868.544
5869.464
5870.362
5871.22
5872.057
5872.973
5873.89
5874.717
5875.3
5874.063
5874.255
5875.86
5877.858
5878.481
5878.877
5879.422
5880.796
5883.041
5885.792
5889.308
5893.187
5896.894
5900.161
5902.993
5905.458
5907.586
5909.446
5910.966
5912.261
5913.6
5915.098
5916.923
5919.07
5917.259
5915.303
5916.398
5917.401
5918.379
5921.613
5926.868
5928.761
5929.769
5931.106
5932.62
5934.176
5935.801
5937.757
5939.766
5941.339
5942.347
5942.857
5942.941
5942.742
5942.434
5942.312
5942.361
5942.628
5942.445
5942.121
5942.012
5941.552
5941.449
5942.195
5943.524
5944.181
5938.832
5931.132
5930.781
5937.545
5941.224
5939.809
5937.116
5935.778
5935.784
5935.531
5934.265
5932.854
5931.453
5930.002
5928.762
5927.601
5926.333
5924.971
5923.579
5922.149
5920.429
5918.989
5917.831
5916.529
5914.999
5913.371
5911.716
5910.011
5908.313
5906.699
5905.092
5903.589
5902.29
5900.565
5899.404
5900.244
5901.524
5902.368
5903.205
5904.187
5905.297
5906.491
5906.844
5906.945
5908.361
5910.844
5912.847
5914.098
5915.265
5916.693
5918.386
5917.968
5912.383
5913.164
5917.929
5923.46
5924.892
5925.393
5925.968
5926.859
5927.634
5928.274
5928.968
5929.745
5930.556
5931.329
5931.995
5932.51
5932.967
5933.328
5933.562
5933.704
5933.804
5933.891
5933.98
5934.048
5934.051
5933.884
5933.635
5933.376
5933.051
5932.498
5931.671
5930.517
5929.198
5927.763
5926.094
5924.285
5922.367
5920.316
5918.152
5915.845
5913.399
5910.813
5908.071
5905.179
5902.134
5898.93
5895.568
5892.054
5888.395
5884.6
5880.683
5876.654
5872.534
5868.342
5864.094
5859.807
5855.502
5851.197
5846.905
5842.64
5838.418
5834.245
5830.126
5826.066
5822.066
5818.12
5814.233
5810.4
5806.615
5802.876
5799.176
5795.513
5791.887
5788.287
5784.729
5781.209
5777.718
5774.273
5770.879
5767.541
5764.267
5761.072
5757.971
5754.987
5752.146
5749.477
5747.003
5744.794
5742.922
5741.336
5740.073
5738.887
4110.134
4063.368
3977.686
3919.654
3865.204
3816.238
3771.858
3731.135
3693.167
3657.557
3624.011
3591.046
3558.993
3527.661
3497.098
3467.257
3438.232
3410.137
3383.103
3357.951
3335.571
3316.022
3299.222
3285.343
3274.655
3268.185
3266.969
3271.973
3284.434
3305.901
3337.722
3380.311
3434.354
3499.551
3577.104
3670.606
3781.943
3912.778
4062.246
4226.978
4402.515
4580.777
4753.205
4909.459
5039.469
5134.149
5185.375
5190.077
5147.458
5057.803
4922.263
4752.984
4551.616
4336.666
4120.003
3909.543
3714.968
3539.619
3385.82
3258.044
3160.46
3089.415
3037.695
3000.516
2973.08
2954.514
2933.097
2917.619
2953.692
3012.437
3054.064
3042.873
3012.701
2990.603
3040.295
3183.481
3358.626
3498.209
3585.864
3634.103
3636.373
3662.027
3631.809
3486.969
3340.841
3275.845
3241.541
3162.889
3123.145
3072.608
2629.51
2474.244
2927.925
3319.041