/*--------------------------------*- C++ -*----------------------------------*\
| =========                 |                                                 |
| \\      /  F ield         | foam-extend: Open Source CFD                    |
|  \\    /   O peration     | Version:     3.1                                |
|   \\  /    A nd           | Web:         http://www.extend-project.de       |
|    \\/     M anipulation  |                                                 |
\*---------------------------------------------------------------------------*/
FoamFile
{
    version     2.0;
    format      ascii;
    class       volScalarField;
    location    "13.5";
    object      k;
}
// * * * * * * * * * * * * * * * * * * * * * * * * * * * * * * * * * * * * * //

dimensions      [0 2 -2 0 0 0 0];

internalField   nonuniform List<scalar> 
119952
(
0.04610899
0.04237248
0.04165815
0.04174961
0.0417775
0.04147829
0.04188507
0.04269929
0.04375323
0.04492274
0.0461336
0.04733314
0.04848466
0.04956404
0.05055577
0.05145017
0.05223942
0.05291924
0.0535132
0.05419539
0.05609766
0.05450509
0.05422643
0.05540519
0.05268554
0.05086454
0.04919656
0.04746724
0.0447721
0.01620835
0.07433963
0.07023893
0.06815175
0.06760497
0.06818012
0.0694868
0.07119717
0.07308807
0.07498516
0.07692409
0.07572014
0.07828358
0.08248484
0.08715319
0.0916032
0.09554593
0.09888531
0.1016337
0.1037533
0.1153434
0.1156971
0.1153516
0.1145145
0.1133823
0.1120661
0.1107054
0.1093747
0.1081178
0.1071367
0.1063862
0.1054906
0.1046217
0.103859
0.1032457
0.102799
0.1025249
0.1024136
0.1025633
0.1047874
0.1050715
0.1049858
0.1056244
0.1064636
0.1071775
0.1076788
0.1081329
0.1086132
0.1091231
0.1096474
0.1101641
0.1106387
0.1110308
0.1113007
0.1114095
0.1113226
0.1110094
0.1104415
0.1096047
0.1087275
0.1077395
0.106316
0.1052204
0.1047501
0.1037313
0.1023614
0.1010173
0.09936544
0.09580467
0.09282483
0.09022218
0.08792093
0.08590311
0.08410446
0.08252004
0.08113345
0.07992943
0.07888228
0.07797471
0.0771821
0.07647415
0.0758444
0.0753079
0.07490622
0.07465283
0.07454869
0.07459148
0.07477804
0.07510818
0.07558563
0.07621405
0.07699384
0.07792389
0.07899913
0.08020332
0.08150338
0.08284817
0.08417128
0.08539029
0.08639092
0.08704208
0.08733778
0.08728707
0.08687962
0.08612947
0.08506445
0.08371766
0.08212033
0.08030345
0.07830946
0.07619853
0.07405519
0.0719774
0.070051
0.06834447
0.06683673
0.06570897
0.06566628
0.06691591
0.06856788
0.07008663
0.07115115
0.07163502
0.07189286
0.0720448
0.07185436
0.07117691
0.07012748
0.06887537
0.06746894
0.06589589
0.06413858
0.06233845
0.06066839
0.05923662
0.05806644
0.05708766
0.05617196
0.0552168
0.05414391
0.05293123
0.05162565
0.0502836
0.04896397
0.04770517
0.04653457
0.04547086
0.04450563
0.04362625
0.04281984
0.04207492
0.04138422
0.04074293
0.04014738
0.03959383
0.03907832
0.0385967
0.03814449
0.03771694
0.03730865
0.03691438
0.03652865
0.03614731
0.03576643
0.03538451
0.03499953
0.03461118
0.03420779
0.03349317
0.03222316
0.03126748
0.03050043
0.02984492
0.02926166
0.02873479
0.02825232
0.02780925
0.02740352
0.02703117
0.02668648
0.02636578
0.02606706
0.0257896
0.02553238
0.02529416
0.02507377
0.02487041
0.02468367
0.02451346
0.02435982
0.02422302
0.02410359
0.02400091
0.02391473
0.023845
0.02379205
0.02375627
0.02373827
0.02373842
0.02375781
0.02379768
0.02385773
0.02393121
0.02393543
0.02416836
0.02448545
0.02478718
0.02507793
0.02535396
0.0256151
0.02586199
0.02609558
0.02631582
0.0265159
0.02669783
0.02686527
0.02702044
0.02716466
0.0272989
0.02742421
0.02754178
0.02765284
0.02775844
0.02785921
0.02795523
0.02804605
0.02813099
0.02820969
0.02828276
0.02835228
0.02842195
0.02849609
0.02857879
0.02867409
0.02878466
0.02890979
0.02904821
0.02919137
0.02982111
0.03000997
0.03008793
0.03001374
0.02986392
0.02967312
0.02946997
0.02927875
0.0291104
0.02897205
0.02886738
0.02879937
0.02876684
0.02876508
0.02878722
0.02882538
0.02887164
0.0289187
0.02896014
0.02899067
0.02900691
0.02900793
0.02899422
0.02896722
0.02893563
0.0289035
0.0288778
0.02887018
0.02890366
0.0290051
0.0292037
0.02952327
0.03002747
0.03075312
0.03142937
0.03205987
0.03388207
0.03677832
0.04017586
0.04343947
0.04589615
0.0466959
0.04524461
0.04234163
0.03912855
0.03631983
0.03420339
0.03252114
0.03077487
0.02880506
0.02676858
0.02484169
0.02316209
0.02180394
0.02074996
0.01978811
0.01902942
0.01845581
0.01804013
0.01776111
0.01760367
0.01755471
0.01760284
0.01773809
0.01795287
0.01824231
0.01860371
0.01903723
0.01953978
0.02010634
0.02073034
0.02140349
0.02211706
0.02286439
0.02363901
0.02443495
0.02524695
0.02607042
0.02690147
0.02773697
0.02857413
0.02941098
0.03024645
0.03107972
0.03190992
0.03273768
0.03357391
0.03442101
0.03526446
0.03609457
0.03690663
0.03769712
0.03846259
0.03919917
0.0399025
0.04056763
0.04118902
0.04176063
0.042276
0.0427286
0.04311228
0.04342142
0.04365096
0.04379668
0.04385583
0.04382739
0.04371149
0.04350897
0.04322191
0.04285441
0.04241251
0.04190246
0.04132811
0.04068972
0.03998625
0.03921882
0.03839256
0.03751611
0.03660001
0.03565515
0.03469192
0.03371978
0.03274714
0.03178147
0.03082942
0.02989689
0.02898903
0.02811025
0.02726411
0.02645337
0.02567992
0.02494518
0.02424926
0.02359183
0.02296973
0.02237429
0.02178066
0.02120611
0.02109417
0.09534817
0.08899854
0.09218912
0.09795531
0.1036287
0.1084444
0.1123361
0.1154454
0.1179806
0.1201139
0.1279295
0.1371248
0.1461391
0.1539743
0.1604412
0.165629
0.1697424
0.1729728
0.1971947
0.1974784
0.1975629
0.1971641
0.1965138
0.195788
0.1950628
0.1943636
0.1936521
0.1928527
0.1922416
0.1913074
0.1899773
0.1885212
0.1870744
0.1856982
0.1844321
0.1833174
0.1823557
0.1817888
0.1813524
0.1807612
0.1802633
0.1799453
0.1798178
0.1798711
0.1800801
0.1803873
0.1807522
0.1811625
0.1814937
0.1817732
0.1819781
0.1820732
0.1820372
0.1818311
0.1813946
0.1806831
0.1909663
0.1890952
0.1869337
0.1845415
0.1819708
0.1793088
0.1766483
0.1739694
0.1712442
0.1684634
0.1656588
0.1628475
0.1600471
0.1573007
0.1546641
0.1522224
0.1501124
0.1483951
0.1471727
0.1462102
0.1452569
0.1446212
0.1443468
0.1442697
0.144305
0.1444454
0.1447095
0.1450857
0.1455479
0.146066
0.1466012
0.1471065
0.1475308
0.1478229
0.1479372
0.1478329
0.1474846
0.1468821
0.1460602
0.1450596
0.1438517
0.1425794
0.1414731
0.1402724
0.1387404
0.1368922
0.1346936
0.1319505
0.1289286
0.1260869
0.1233902
0.1207677
0.1182221
0.1157614
0.1134014
0.1111602
0.1090537
0.1070964
0.1053009
0.1036756
0.1022287
0.1009716
0.09992259
0.09912539
0.0985882
0.09831604
0.09831358
0.09858725
0.09914608
0.09999881
0.1011505
0.1026019
0.1043459
0.1063573
0.1085826
0.1109414
0.1133338
0.1156478
0.1177635
0.1195588
0.1209301
0.1218206
0.1223084
0.1224071
0.1221301
0.1214968
0.1205239
0.1192227
0.117597
0.1156468
0.1133774
0.110796
0.1079185
0.1047749
0.1014035
0.09789937
0.09442997
0.09116934
0.08821366
0.08560888
0.08343374
0.08173296
0.08055327
0.07992963
0.07982251
0.08011589
0.08066262
0.08127596
0.08188537
0.08243932
0.08288632
0.08318794
0.0833298
0.08332294
0.08319684
0.08298256
0.08269499
0.08232802
0.081858
0.08125143
0.08048135
0.07953459
0.07839782
0.07711053
0.07571932
0.07426019
0.07275578
0.07123503
0.06972805
0.06826077
0.06683846
0.06546613
0.06414916
0.06289277
0.06170093
0.06057611
0.05951859
0.05852729
0.05759883
0.05672927
0.05591241
0.05514341
0.05441375
0.05371958
0.05304922
0.05240448
0.051771
0.0511848
0.0499445
0.04847739
0.04742122
0.04658828
0.04587706
0.04523387
0.04463135
0.04405574
0.04350029
0.04296152
0.0424371
0.04192472
0.04142168
0.04092603
0.04043646
0.03995187
0.03947136
0.03899433
0.03852054
0.0380502
0.03758406
0.03712327
0.03666849
0.03622163
0.03578625
0.0353659
0.03496405
0.03458408
0.0342292
0.03390233
0.03360569
0.03333959
0.0331052
0.03290234
0.03272892
0.03258675
0.0324959
0.03245991
0.03246498
0.03250531
0.03257723
0.03267713
0.03280144
0.03294658
0.03310883
0.03328442
0.03346956
0.0336606
0.03385444
0.03404892
0.03424307
0.03443694
0.03463102
0.03482546
0.0350197
0.03521244
0.03540222
0.03558819
0.03577136
0.03595577
0.03614865
0.03635951
0.03659724
0.03686791
0.0371747
0.03751604
0.03788318
0.03826077
0.03862862
0.03896257
0.04201897
0.04217351
0.04224317
0.04222779
0.04213962
0.04200131
0.04183755
0.04166907
0.04151278
0.0413816
0.04128133
0.04121083
0.04116355
0.0411291
0.04109508
0.04104874
0.04097821
0.04087361
0.04072825
0.04053976
0.04031056
0.04004711
0.03975797
0.03945186
0.03913642
0.03881888
0.03850951
0.03821091
0.03791597
0.03761852
0.03730512
0.03696062
0.03654863
0.03600711
0.03532142
0.03459635
0.03399288
0.03363223
0.03359917
0.03401867
0.03501257
0.03664786
0.03878392
0.04120598
0.04368949
0.04607262
0.0482214
0.0498122
0.05038165
0.04967587
0.04784321
0.04529867
0.04246907
0.03966919
0.03709743
0.03488594
0.03308142
0.03165532
0.03054727
0.02971262
0.02911572
0.02872475
0.02851201
0.02845583
0.02854071
0.02875565
0.02909194
0.02954224
0.03010038
0.03076066
0.03151654
0.03235965
0.03327969
0.03426501
0.0353033
0.036382
0.0374888
0.03861195
0.03974071
0.04086565
0.04197894
0.04307443
0.04414756
0.04519521
0.04621549
0.04720744
0.04817086
0.0491076
0.05002604
0.05091802
0.05177803
0.05260263
0.05338923
0.05413519
0.05483728
0.0554916
0.05609361
0.05663804
0.05711872
0.05752902
0.05786249
0.05811311
0.05827504
0.058343
0.05831379
0.05818635
0.0579601
0.0576345
0.05720963
0.05668734
0.05607207
0.05536977
0.05458562
0.05372364
0.05278777
0.05178337
0.05071838
0.04960269
0.04844677
0.04726074
0.04605388
0.04483444
0.04360972
0.04238618
0.04116957
0.03996515
0.03877767
0.0376115
0.0364707
0.03535882
0.03427915
0.03323384
0.03222512
0.03125216
0.03031587
0.02941328
0.02856291
0.02780346
0.02716206
0.05151439
0.05582438
0.06086483
0.06635659
0.07235983
0.07900489
0.08653859
0.09543914
0.1065675
0.1203549
0.1790628
0.1953021
0.2115976
0.2271841
0.2413271
0.2537212
0.2664768
0.2803811
0.3026261
0.3688642
0.3803469
0.3883837
0.3949776
0.4002556
0.4042762
0.4071339
0.4088893
0.4095649
0.4094751
0.4085293
0.4080328
0.4075409
0.4066103
0.40507
0.4029401
0.4003127
0.3972909
0.3942411
0.3892115
0.3844287
0.3798425
0.3753781
0.3709913
0.3666301
0.3622637
0.3578764
0.3534747
0.3491006
0.3446727
0.34024
0.3358788
0.3316228
0.3275073
0.323555
0.3197642
0.3161163
0.3293069
0.3258923
0.3224079
0.3188734
0.3152426
0.3115004
0.3076763
0.3038059
0.2999163
0.2959997
0.2920353
0.2880616
0.2840957
0.2801451
0.2762363
0.272395
0.2686436
0.2650108
0.2615428
0.2582474
0.2551651
0.252377
0.2499021
0.2477501
0.2459221
0.2443888
0.2431009
0.2419941
0.2409986
0.2400819
0.2392176
0.2383793
0.2375598
0.2367665
0.2359804
0.2351534
0.2341675
0.2328643
0.2311206
0.2289974
0.2264947
0.2237019
0.2207795
0.2176937
0.2143886
0.2109131
0.2072972
0.2035859
0.1998238
0.1960656
0.1923647
0.1887766
0.1853444
0.1820868
0.1789931
0.1761431
0.1736764
0.1715961
0.1698355
0.1684098
0.1673455
0.1666152
0.1661626
0.1659403
0.1659308
0.1661131
0.1664597
0.1669315
0.1674764
0.1680318
0.1685303
0.168906
0.1690997
0.1690666
0.1687791
0.1682331
0.1674399
0.1664342
0.1652479
0.1639571
0.1625741
0.1610368
0.1592204
0.1570933
0.154609
0.1518042
0.1488126
0.1458283
0.1429086
0.1400487
0.1372569
0.1345413
0.131915
0.129394
0.1269953
0.124737
0.1226374
0.1207148
0.1189893
0.1174825
0.1162193
0.1152469
0.1145953
0.1142825
0.1143263
0.1147465
0.1155623
0.1167862
0.1184209
0.1204648
0.1229055
0.125701
0.1287643
0.1319726
0.1351836
0.1382391
0.1409887
0.1432848
0.1450072
0.1461071
0.1466586
0.146728
0.1463584
0.1455921
0.144462
0.1429845
0.1411625
0.1390081
0.1365268
0.1337153
0.1305805
0.1271379
0.1234083
0.1194603
0.1154018
0.1113208
0.1072783
0.1033215
0.09952681
0.09598923
0.09279916
0.0900278
0.08770709
0.08583026
0.08436532
0.08326621
0.08248303
0.08196204
0.08164678
0.08148101
0.08141464
0.08141158
0.08145514
0.08154377
0.08167765
0.08184971
0.08202656
0.08218607
0.08230826
0.08236613
0.08233315
0.08218671
0.08190769
0.0814806
0.08088671
0.08012023
0.07918694
0.07809673
0.07688222
0.07558315
0.07423582
0.07286755
0.0715024
0.07016149
0.06886219
0.06761772
0.06643696
0.06532472
0.0642822
0.06330752
0.06239627
0.06154214
0.0607375
0.05997349
0.05924131
0.05852868
0.05783937
0.05717105
0.05652565
0.05589112
0.05526331
0.05464194
0.05402806
0.05342315
0.05282858
0.05224535
0.0516739
0.05111408
0.05056527
0.0500265
0.04949659
0.0489743
0.04845844
0.04794802
0.04744239
0.04694129
0.04644498
0.04595425
0.04547052
0.04499575
0.04453252
0.04408395
0.04365364
0.04324545
0.04286334
0.04251127
0.04219302
0.041912
0.04167081
0.04147157
0.04131643
0.04120924
0.04115467
0.04115252
0.0411993
0.04129216
0.04142759
0.04160143
0.04180912
0.04204578
0.04230641
0.04258599
0.04287964
0.04318306
0.04349309
0.04380808
0.04412764
0.04445176
0.04477971
0.04510964
0.04543898
0.04576532
0.04608788
0.04640923
0.04673625
0.04708015
0.0474542
0.04786952
0.04833243
0.04884423
0.04939856
0.04997942
0.05056312
0.05112057
0.05162124
0.05204306
0.052335
0.05250097
0.05254563
0.05248884
0.05236273
0.05220233
0.05203699
0.05188747
0.05176819
0.05168592
0.05163755
0.05161393
0.05160161
0.05158457
0.05154645
0.05147208
0.05134866
0.05116691
0.05092277
0.05061896
0.05026483
0.04987403
0.04946074
0.04903649
0.04860921
0.0481842
0.04776612
0.04734761
0.0469212
0.04647492
0.04599275
0.04545987
0.04485013
0.04412455
0.04329002
0.04240202
0.04149238
0.04056836
0.03965373
0.03880953
0.0381306
0.03771679
0.03765151
0.03801663
0.03887937
0.04027871
0.04215587
0.04421342
0.04624701
0.04804952
0.04941642
0.05014568
0.0500956
0.04926414
0.04780323
0.04595955
0.04399495
0.04210761
0.04040233
0.03896974
0.03784191
0.03699824
0.03639604
0.03600814
0.03581429
0.03579632
0.035938
0.03622614
0.03665083
0.03720462
0.03788026
0.03866897
0.03955991
0.04054058
0.0415973
0.04271539
0.04387956
0.04507437
0.04628499
0.0474979
0.04870138
0.04988581
0.05104366
0.0521692
0.05325812
0.05430707
0.05531335
0.05627454
0.05719316
0.05807091
0.05890356
0.05968879
0.06042506
0.061111
0.06174478
0.06232388
0.06284524
0.06330526
0.06369933
0.06402257
0.06427065
0.06443905
0.06452258
0.06451511
0.06441183
0.06421417
0.06392286
0.06353747
0.06305702
0.06248121
0.06181214
0.06105474
0.06021386
0.05929283
0.05829825
0.05723791
0.05612125
0.05495843
0.05375922
0.05253247
0.05128593
0.05002634
0.04875958
0.04749087
0.04622488
0.04496604
0.04371837
0.04248587
0.04127203
0.04008058
0.03891417
0.03777617
0.03666774
0.03559232
0.0345497
0.03354686
0.03258636
0.03168918
0.03090506
0.03875076
0.0439935
0.04870555
0.07521864
0.1020271
0.1354105
0.1577772
0.1802305
0.2014655
0.2213325
0.2388085
0.2540185
0.2688643
0.2840367
0.2994115
0.3150306
0.3308668
0.3465234
0.361856
0.3769979
0.3918005
0.406102
0.4198549
0.4331018
0.4458851
0.4580612
0.4695206
0.4801175
0.4899045
0.4989211
0.5071719
0.5387893
0.5422282
0.5436734
0.5440303
0.5433763
0.5417836
0.539371
0.5362439
0.5325565
0.5285208
0.5242076
0.5197341
0.5152107
0.5107232
0.5062997
0.5019531
0.4976755
0.4934464
0.4892115
0.4848679
0.4801768
0.4750751
0.4695823
0.4637626
0.4577029
0.451487
0.445177
0.4388092
0.4324269
0.4261048
0.4199163
0.4139318
0.4082054
0.4027678
0.397599
0.392693
0.38798
0.3831871
0.3786956
0.3744263
0.3702275
0.3659594
0.3615609
0.3570557
0.3525041
0.3479458
0.3433779
0.3387689
0.3340889
0.3293313
0.3245282
0.3197273
0.3149628
0.3102567
0.3056341
0.3011354
0.2968111
0.2927202
0.2889229
0.2854776
0.2824349
0.2798163
0.2775992
0.2757207
0.2740972
0.2726488
0.2713184
0.2700705
0.2688877
0.2677769
0.2667541
0.2658243
0.2649283
0.2639448
0.2626725
0.2609796
0.2588014
0.25617
0.2532525
0.2500363
0.2465782
0.2429081
0.2390333
0.2349683
0.2307463
0.2264169
0.2220445
0.2176971
0.2134384
0.2093264
0.2054132
0.2017404
0.1983287
0.1951822
0.1924038
0.190048
0.1881079
0.1865817
0.1854527
0.1846899
0.1842583
0.1841303
0.1842794
0.1846702
0.1852513
0.1859522
0.1866888
0.1873715
0.1879143
0.1882422
0.1883034
0.1880749
0.1875549
0.1867543
0.1857015
0.18444
0.1830295
0.1814581
0.1796942
0.1776671
0.1753394
0.1727116
0.1698266
0.1667959
0.1637375
0.1607022
0.1577017
0.1547533
0.1518735
0.1490803
0.1463922
0.1438285
0.1414093
0.139156
0.1370923
0.1352447
0.1336436
0.1323263
0.1313523
0.1307688
0.1306076
0.1309021
0.1316853
0.1329819
0.1348
0.1371275
0.1399601
0.1432882
0.1470485
0.1511064
0.1552862
0.1594094
0.1632945
0.1667409
0.1695274
0.1714798
0.1725555
0.172901
0.1726503
0.171889
0.1706843
0.16908
0.1671085
0.1647984
0.1621802
0.1592717
0.1560755
0.1525923
0.1488186
0.1447445
0.1404232
0.1359281
0.131319
0.1266404
0.1219381
0.1172779
0.1127374
0.1083953
0.1043212
0.1005644
0.0971527
0.09410022
0.09140851
0.08906987
0.08706534
0.08536658
0.08393899
0.08274477
0.08174897
0.08092359
0.08024907
0.07971497
0.07931781
0.07905572
0.07892505
0.07891678
0.07901373
0.0791914
0.0794175
0.07965233
0.07985322
0.0799783
0.07999109
0.07986282
0.0795734
0.0791123
0.07847676
0.07767714
0.07673791
0.07569218
0.07457528
0.07342003
0.07225646
0.07111029
0.07000165
0.0689448
0.06794816
0.0670152
0.06614459
0.06533191
0.06456894
0.06384829
0.06316089
0.06250722
0.06187173
0.06124627
0.06062671
0.06001228
0.05940349
0.05880125
0.05820679
0.05762156
0.05704686
0.0564836
0.05593211
0.05539228
0.05486356
0.05434511
0.05383591
0.05333493
0.05284122
0.05235412
0.05187331
0.05139892
0.05093161
0.05047269
0.05002414
0.04958868
0.04916969
0.04877111
0.0483973
0.04805292
0.04774277
0.04747156
0.04724365
0.04706278
0.04693197
0.04685374
0.04683012
0.04686285
0.04695208
0.04709584
0.04729114
0.04753405
0.04781979
0.04814304
0.04849807
0.04887899
0.04927998
0.04969562
0.05012149
0.05055494
0.05099537
0.05144318
0.05189804
0.05235747
0.05281695
0.05327147
0.05371763
0.0541561
0.05459387
0.05504516
0.05552939
0.05606613
0.05666836
0.05733954
0.05807379
0.05885202
0.05964317
0.06040969
0.06111024
0.06170373
0.06215626
0.0624447
0.06256601
0.06253929
0.06240603
0.06222156
0.06203829
0.06189129
0.06179552
0.06175348
0.06175889
0.06179531
0.06184207
0.06187646
0.06187625
0.06182235
0.06169954
0.06149648
0.06120669
0.06083121
0.0603811
0.05987666
0.05934206
0.05879813
0.05825779
0.05772649
0.05720514
0.05669239
0.05617972
0.0556562
0.05510832
0.05452193
0.05388323
0.05317452
0.05237758
0.05149443
0.05054241
0.04952096
0.04841321
0.04721098
0.04592224
0.04457581
0.04323174
0.04197944
0.04092189
0.04016056
0.03978892
0.03987317
0.04043573
0.04147932
0.04295787
0.04465533
0.04636794
0.04795248
0.049264
0.05016269
0.0505451
0.05038839
0.0497643
0.04881613
0.04770773
0.0465871
0.04555096
0.04463782
0.04390329
0.04337249
0.04303843
0.04288093
0.04289227
0.0430665
0.04339685
0.0438751
0.04449167
0.04523557
0.04609418
0.04705349
0.04809796
0.04921054
0.05037318
0.05156776
0.05277714
0.05398603
0.05518149
0.05635294
0.05749196
0.05859176
0.05964668
0.06065161
0.06160167
0.0624932
0.06332777
0.06410266
0.06481597
0.06546654
0.06605385
0.06657737
0.06703668
0.06743126
0.06775985
0.06801941
0.0682058
0.068319
0.06835787
0.06831953
0.06819899
0.06798922
0.06769294
0.06731269
0.06685002
0.06630549
0.065679
0.06497112
0.0641855
0.0633275
0.06239885
0.06140508
0.06035352
0.05925385
0.05811543
0.05694633
0.0557533
0.05454201
0.0533173
0.05208338
0.05084404
0.04960278
0.04836302
0.04712809
0.04590128
0.04468577
0.04348477
0.04230124
0.04113816
0.03999816
0.03888433
0.03779953
0.03674797
0.03573445
0.03477148
0.03392841
0.01904761
0.02129698
0.02348281
0.03143858
0.0420088
0.05992988
0.07258509
0.08607193
0.1006307
0.1154607
0.1308628
0.1478399
0.1660438
0.1847678
0.2043558
0.2264279
0.260431
0.2765853
0.2930662
0.3097662
0.3269557
0.3439816
0.3603862
0.3762599
0.3917771
0.4069213
0.421701
0.4363088
0.4507018
0.4648282
0.4785869
0.4918271
0.5044187
0.5162755
0.5272314
0.5372173
0.5460337
0.5537073
0.5600119
0.5646764
0.5682935
0.5700598
0.5680049
0.5649159
0.5611423
0.5566242
0.5514528
0.5458163
0.5399036
0.5338789
0.5279045
0.5221397
0.5167051
0.5116707
0.5070971
0.503014
0.4994138
0.4962574
0.4934569
0.4909269
0.488562
0.4862283
0.4837655
0.4807946
0.4772991
0.4733661
0.4690952
0.464582
0.4598764
0.4549905
0.4499541
0.4448476
0.4397777
0.4348595
0.4301806
0.4257847
0.4216402
0.4177113
0.4139365
0.4103272
0.4069404
0.40371
0.4004337
0.3968991
0.3930112
0.3888241
0.3844701
0.3800532
0.375587
0.3710116
0.3662569
0.3613092
0.3562236
0.3510758
0.3459155
0.3407651
0.335646
0.3306065
0.3257233
0.3210779
0.3167527
0.3128392
0.3094195
0.3065316
0.3041466
0.3021766
0.3005104
0.299049
0.2977205
0.296481
0.2953214
0.29427
0.2933671
0.2926182
0.291929
0.291095
0.2898438
0.2879644
0.2854222
0.2824003
0.2789731
0.2752453
0.271318
0.267215
0.2629208
0.2584256
0.2537449
0.2489221
0.2440236
0.2391258
0.2343055
0.229635
0.2251829
0.2210081
0.217154
0.2136496
0.2105105
0.2078347
0.2056581
0.2039721
0.2027622
0.2020087
0.2016882
0.2017746
0.2022321
0.2030105
0.2040346
0.205201
0.2063884
0.2074729
0.2083406
0.2089018
0.2091068
0.2089416
0.2084071
0.2075097
0.2062742
0.2047676
0.2030604
0.2011414
0.1989992
0.1966046
0.1939426
0.1910319
0.1879201
0.1846884
0.1814207
0.1781713
0.1749663
0.1718274
0.1687767
0.1658368
0.1630293
0.1603753
0.157896
0.1556137
0.1535528
0.1517431
0.1502209
0.1490338
0.1482586
0.1479587
0.148181
0.1489739
0.1503804
0.1524266
0.1551173
0.1584507
0.1624375
0.1670666
0.1722301
0.177706
0.1832366
0.1886022
0.1935975
0.1979293
0.2012442
0.203275
0.2039896
0.2036717
0.2026084
0.2009822
0.1989006
0.1964011
0.1935155
0.1903015
0.1868118
0.1830862
0.1791396
0.174971
0.1705779
0.1659545
0.1611264
0.1561368
0.1510233
0.145802
0.1405177
0.1352357
0.1300233
0.1249447
0.1200578
0.1154076
0.111026
0.1069357
0.1031536
0.09968543
0.09652865
0.09367356
0.09110503
0.08880273
0.0867466
0.08491711
0.08329439
0.08186402
0.08061638
0.07954593
0.07864944
0.07792419
0.07736692
0.07697139
0.07672491
0.07660667
0.07658878
0.07663805
0.07671798
0.07679048
0.07681867
0.07676992
0.07661755
0.0763434
0.07594053
0.0754109
0.07476442
0.07402257
0.07321376
0.07236677
0.07150891
0.07066352
0.06984841
0.06907541
0.06835028
0.06767367
0.06704163
0.06644798
0.06588462
0.06534383
0.0648152
0.06429204
0.06377045
0.06324843
0.06272592
0.06220394
0.06168421
0.06116891
0.0606602
0.06015981
0.05966889
0.05918797
0.05871705
0.05825578
0.05780355
0.05735969
0.05692353
0.05649457
0.05607261
0.05565795
0.05525148
0.05485474
0.05446999
0.05410034
0.05374971
0.05342265
0.05312429
0.0528601
0.0526357
0.05245655
0.05232755
0.05225282
0.05223544
0.05227737
0.05237952
0.05254194
0.05276369
0.05304259
0.0533752
0.05375693
0.05418225
0.05464504
0.05513892
0.05565723
0.05619349
0.05674227
0.05729985
0.05786514
0.05843959
0.05902487
0.05961956
0.06021734
0.0608088
0.06138529
0.06194297
0.06248609
0.06302881
0.06359797
0.06422695
0.0649438
0.06576197
0.06667658
0.0676655
0.06869145
0.0697049
0.07065061
0.07147278
0.07212058
0.07255555
0.07275991
0.07274588
0.07256211
0.07228866
0.07201518
0.07181155
0.07170879
0.07170256
0.07177088
0.07188583
0.07201618
0.07212961
0.07219463
0.07218491
0.07208196
0.07187376
0.07155258
0.07111556
0.07056964
0.06993688
0.06925285
0.06855625
0.06787534
0.06722132
0.06659248
0.06598223
0.06538361
0.06478675
0.06417657
0.06353635
0.0628546
0.06212042
0.06132198
0.06045038
0.05950533
0.05848765
0.05738641
0.05618294
0.05486246
0.05341756
0.05185266
0.05018997
0.04847042
0.04675203
0.04511263
0.04364947
0.04246518
0.04165158
0.04127468
0.04135898
0.04187986
0.04279386
0.0440447
0.04549404
0.04699113
0.04844231
0.04974897
0.05082072
0.05158358
0.05200393
0.05209863
0.05192817
0.05157879
0.05113802
0.05068395
0.05026779
0.04991294
0.04967028
0.04957178
0.0496286
0.04983783
0.05019235
0.05068984
0.05132343
0.05208168
0.0529498
0.05391027
0.0549436
0.05602941
0.05714785
0.05828079
0.05941239
0.0605292
0.0616199
0.06267485
0.06368547
0.06464353
0.06554077
0.06636883
0.06712451
0.0678047
0.06840739
0.06893187
0.06937821
0.06974637
0.07003723
0.07025378
0.07039777
0.0704683
0.07045895
0.07037373
0.07021631
0.0699887
0.06969214
0.06932837
0.06889925
0.06840785
0.0678571
0.067249
0.06658443
0.06586343
0.0650866
0.06425697
0.06338006
0.06245542
0.06148449
0.06047449
0.05943247
0.05836397
0.0572733
0.05616406
0.05503933
0.05390183
0.05275406
0.05159846
0.05043754
0.04927394
0.04811037
0.04694965
0.04579465
0.04464835
0.04351377
0.04239405
0.04129247
0.04021266
0.03915851
0.03813506
0.03715447
0.03629558
0.007895903
0.009264746
0.01031672
0.01540798
0.02130482
0.02908844
0.03554912
0.0428935
0.05087809
0.05942335
0.06883243
0.07994181
0.09216305
0.1058545
0.1222861
0.1476724
0.1612627
0.1756099
0.1902454
0.2051242
0.2201754
0.2352898
0.2503101
0.2651381
0.2796337
0.2936817
0.3075026
0.322589
0.3379864
0.3537892
0.3700969
0.3864583
0.4024434
0.417949
0.4327466
0.446979
0.4608052
0.4742567
0.4872913
0.4998154
0.5116986
0.5227305
0.5327592
0.5416852
0.5492965
0.5555316
0.559676
0.5618471
0.5619775
0.5602069
0.5567482
0.5516935
0.5449117
0.5370357
0.5284463
0.5194462
0.5103383
0.5014176
0.4929236
0.4850568
0.4779807
0.4718239
0.4666898
0.462633
0.4596753
0.4577733
0.4568748
0.4568435
0.4575248
0.4586967
0.4601175
0.4612942
0.4620331
0.462308
0.4620798
0.4613587
0.4602174
0.458734
0.4569258
0.4547616
0.4522599
0.4495199
0.4466892
0.4439366
0.4413941
0.4390973
0.436977
0.4349302
0.4329195
0.4310094
0.429246
0.4275004
0.4254766
0.4228718
0.4195829
0.4157447
0.4115951
0.407316
0.4029418
0.3983888
0.3935624
0.388451
0.3831403
0.3777458
0.3723373
0.3669367
0.36156
0.3562675
0.3511615
0.3463522
0.3419526
0.3380907
0.3348789
0.332356
0.3304521
0.3290199
0.3279002
0.3269759
0.3261747
0.3254671
0.3248826
0.3244876
0.3243282
0.3243441
0.3242812
0.3237137
0.3222053
0.3195594
0.3159479
0.3117498
0.3070744
0.3021548
0.2971507
0.292104
0.286983
0.2817484
0.276386
0.2709192
0.2654074
0.2599304
0.254574
0.2494224
0.2445495
0.2400204
0.2358864
0.2321866
0.228953
0.2262404
0.2241477
0.222666
0.2217822
0.2214854
0.2217618
0.2225828
0.2238973
0.2256206
0.2276237
0.2297373
0.2317753
0.2335616
0.2349481
0.2358408
0.2362132
0.2360723
0.235414
0.2342259
0.2325286
0.2304345
0.2280382
0.2253616
0.2224293
0.2192623
0.2158838
0.2123305
0.2086504
0.2049039
0.2011518
0.1974429
0.1938183
0.1903046
0.1869305
0.1837255
0.1807176
0.177932
0.175392
0.1731201
0.1711412
0.1694864
0.1681969
0.1673306
0.1669876
0.1672509
0.1681814
0.1698429
0.1722848
0.1755238
0.1795536
0.1843934
0.190086
0.1966201
0.2038001
0.211238
0.2185459
0.2254636
0.2317544
0.2370218
0.2407257
0.2424606
0.2422482
0.2406205
0.2381457
0.2352034
0.2319526
0.228323
0.2242258
0.2197043
0.2148805
0.2098616
0.2047014
0.1994093
0.1939795
0.1884242
0.1827415
0.176947
0.1710725
0.1651455
0.1592042
0.1533031
0.1474921
0.1418056
0.1362983
0.1310099
0.1259658
0.121184
0.1166759
0.1124466
0.1084953
0.1048173
0.1014061
0.09825423
0.09534904
0.09267886
0.09023173
0.0879962
0.08596237
0.08412234
0.08246994
0.08100058
0.07971113
0.0785987
0.07765852
0.07688228
0.07625783
0.07576892
0.07539488
0.07511104
0.07488986
0.07470246
0.07452042
0.07431831
0.07407529
0.0737762
0.07341501
0.07299264
0.07251607
0.07199928
0.07145921
0.07091358
0.07037845
0.06986618
0.06938425
0.06893519
0.06851697
0.06812408
0.06774854
0.06738172
0.06701566
0.0666447
0.06626622
0.0658789
0.06548291
0.0650801
0.0646732
0.06426543
0.06385983
0.0634589
0.06306429
0.06267698
0.0622975
0.06192599
0.0615623
0.0612061
0.06085708
0.06051504
0.06018017
0.05985312
0.05953507
0.05922788
0.05893424
0.05865787
0.0584035
0.05817658
0.05798303
0.05782916
0.05772132
0.05766539
0.05766631
0.05772783
0.0578523
0.05804065
0.05829249
0.05860664
0.05898116
0.05941315
0.05989853
0.06043192
0.06100718
0.06161798
0.06225792
0.06291937
0.06359351
0.06427692
0.06496764
0.0656674
0.06638091
0.06711098
0.06785242
0.0685909
0.06930853
0.0699922
0.07064007
0.07126599
0.07190208
0.07259644
0.07340136
0.07435381
0.0754601
0.07669538
0.07801134
0.07934221
0.08061279
0.08174716
0.08267451
0.08333494
0.08368793
0.08372458
0.0834827
0.08305598
0.08258067
0.08219506
0.08198831
0.08197064
0.0820961
0.08230463
0.08254262
0.08276453
0.08292798
0.08299401
0.08293526
0.08273819
0.08239722
0.08190916
0.08127341
0.08050186
0.07962999
0.07871507
0.07781735
0.07697461
0.07619123
0.07545054
0.07473354
0.07402682
0.07332163
0.07260341
0.07185684
0.07107053
0.07023553
0.06934275
0.06838564
0.06736214
0.06626761
0.0650859
0.06380228
0.062401
0.06087146
0.05921174
0.05742898
0.05553917
0.05356993
0.0515668
0.04959402
0.04772566
0.04603676
0.04460134
0.04349017
0.04275858
0.04244101
0.04254598
0.04304472
0.04388586
0.04501356
0.04633688
0.04773493
0.04915377
0.05053003
0.0518072
0.05293116
0.05385675
0.05455902
0.0550407
0.05532905
0.05546981
0.05551622
0.05552539
0.0555475
0.05561767
0.05575999
0.05601026
0.05638558
0.05688856
0.05751248
0.05824453
0.05906763
0.05996215
0.06090774
0.06188493
0.06287618
0.0638658
0.06483964
0.06578492
0.06668983
0.06754291
0.06833251
0.06904603
0.06967439
0.07021253
0.07065707
0.07100749
0.07126432
0.07142646
0.07149169
0.07146708
0.07135807
0.07116936
0.07090563
0.07057227
0.07017607
0.06972466
0.06922597
0.06868772
0.06811714
0.06752042
0.06690192
0.06626356
0.06560489
0.06492358
0.06421653
0.06348171
0.06271916
0.0619215
0.06108783
0.06022304
0.05933083
0.0584138
0.05747402
0.05651334
0.05553344
0.05453591
0.05352225
0.05249405
0.0514531
0.05040141
0.04934125
0.04827508
0.04720559
0.04613564
0.04506831
0.04400689
0.04295483
0.04191594
0.04089425
0.03989471
0.03893091
0.03808617
0.00181496
0.00715129
0.01079161
0.01508457
0.01994637
0.02556873
0.03204256
0.03922089
0.0473057
0.05706835
0.07180569
0.08075755
0.09047831
0.1007316
0.1115499
0.1228763
0.1346543
0.1467807
0.1591005
0.1714975
0.183963
0.1980359
0.2123718
0.2267952
0.2412034
0.2555119
0.2696563
0.2835524
0.2972571
0.3107375
0.3239653
0.3372918
0.3510766
0.3651377
0.3795235
0.3940974
0.4085269
0.4224643
0.4356695
0.4483195
0.4605886
0.4725488
0.484176
0.4953864
0.5060529
0.5160248
0.5249067
0.5325146
0.5387588
0.5425905
0.544065
0.5431947
0.5399953
0.5345401
0.5270261
0.5177996
0.5072126
0.4956646
0.4836445
0.4715597
0.4598003
0.4487048
0.4385874
0.4297048
0.4222763
0.4164584
0.4123625
0.4100571
0.4095832
0.4109116
0.4139656
0.4185688
0.4243433
0.4304748
0.4369532
0.4434785
0.4496733
0.4552749
0.4601056
0.4640384
0.4670869
0.4693928
0.4710658