/*--------------------------------*- C++ -*----------------------------------*\
| =========                 |                                                 |
| \\      /  F ield         | foam-extend: Open Source CFD                    |
|  \\    /   O peration     | Version:     3.1                                |
|   \\  /    A nd           | Web:         http://www.extend-project.de       |
|    \\/     M anipulation  |                                                 |
\*---------------------------------------------------------------------------*/
FoamFile
{
    version     2.0;
    format      ascii;
    class       surfaceScalarField;
    location    "13.5";
    object      phi;
}
// * * * * * * * * * * * * * * * * * * * * * * * * * * * * * * * * * * * * * //

dimensions      [0 3 -1 0 0 0 0];

internalField   nonuniform List<scalar> 
275122
(
-0.0002598386
0.0002634221
-1.820551e-07
-3.401527e-06
-0.000233328
0.0002230726
9.017252e-07
9.353665e-06
-0.0002331313
0.0002394879
-2.371772e-07
-6.11946e-06
-0.0002628439
0.0002705438
-2.299316e-07
-7.46999e-06
-0.0002906137
0.0002939764
-2.741516e-07
-3.088478e-06
-0.000297057
0.0002976182
-2.779476e-07
-2.833037e-07
-0.0002988645
0.000299014
-2.495e-07
1.00006e-07
-0.0002992155
0.000299169
-2.272523e-07
2.737513e-07
-0.0002987806
0.0002985736
-2.075715e-07
4.145139e-07
-0.0002977891
0.0002974665
-1.83046e-07
5.05614e-07
-0.000296326
0.000295881
-1.607675e-07
6.057343e-07
-0.0002943603
0.0002937864
-1.401839e-07
7.140911e-07
-0.0002918704
0.0002911623
-1.213153e-07
8.294429e-07
-0.0002888332
0.0002879856
-1.051639e-07
9.527818e-07
-0.000285231
0.0002842422
-9.342017e-08
1.082281e-06
-0.0002810277
0.000279885
-8.738101e-08
1.230007e-06
-0.0002762178
0.0002749421
-8.131654e-08
1.357057e-06
-0.0002708998
0.0002695395
-8.228381e-08
1.442554e-06
-0.0002654697
0.0002642417
-1.343241e-07
1.36233e-06
-0.0002616157
0.0002620011
-4.385478e-07
5.315666e-08
-0.0002904815
0.0003020117
-9.927293e-07
-1.05375e-05
-0.0003044445
0.0003038959
-1.817339e-07
7.303533e-07
-0.0003058025
0.0003072209
-9.795803e-08
-1.320447e-06
-0.0003387894
0.0003504217
3.085393e-07
-1.194087e-05
-0.0003499108
0.0003482659
5.085386e-07
1.136348e-06
-0.0003471849
0.0003463469
-1.042917e-07
9.423173e-07
-0.0003428759
0.00034052
-1.098962e-07
2.465775e-06
-0.0003331585
0.0003286838
-9.090973e-08
4.565563e-06
-0.0003054482
0.0002842924
-1.385756e-07
2.12944e-05
-0.0001668308
0.0001711298
4.228588e-09
-4.303208e-06
-0.00021207
0.0002227466
-5.596253e-08
-1.062057e-05
-0.0002530905
0.0002632403
7.306201e-09
-1.015712e-05
-0.0002943444
0.0003049233
8.063148e-09
-1.058696e-05
-0.0003371682
0.0003481386
8.948997e-09
-1.097928e-05
-0.0003819606
0.0003934778
5.524038e-09
-1.15228e-05
-0.0004289229
0.0004409772
1.101437e-08
-1.20653e-05
-0.000477737
0.0004902286
8.687736e-09
-1.250023e-05
-0.0005282252
0.0005410919
8.243718e-09
-1.287495e-05
-0.0005798948
0.0005929748
6.655538e-09
-1.308661e-05
-0.0006323527
0.0006466005
1.907794e-07
-1.443852e-05
1.125473e-05
-0.0004403004
0.0004422901
7.877674e-10
-1.324517e-05
1.104182e-05
-0.0004488595
0.0004511363
3.177941e-11
-1.331862e-05
1.153673e-05
-0.0004571241
0.0004590076
-8.248625e-10
-1.34194e-05
1.1868e-05
-0.0004641705
0.000465722
-8.883828e-10
-1.341853e-05
1.216156e-05
-0.0004698254
0.0004710447
-9.449975e-10
-1.337989e-05
1.231366e-05
-0.0004742535
0.0004752172
-7.81752e-10
-1.32765e-05
1.234152e-05
-0.0004776888
0.000478421
-6.348031e-10
-1.307311e-05
1.226073e-05
-0.0004802847
0.0004807907
-1.287703e-09
-1.276544e-05
1.232321e-05
-0.0004818724
0.0004813511
-5.305216e-10
-1.180137e-05
9.785526e-06
-0.001956897
0.001962312
1.9399e-11
-4.589076e-05
1.048908e-05
9.75212e-06
1.044836e-05
1.061649e-05
-0.00196389
0.001962679
6.275031e-12
-4.147945e-05
1.075703e-05
1.05913e-05
1.072573e-05
1.009411e-05
-0.001961159
0.00195825
-6.975961e-12
-3.773397e-05
1.02465e-05
1.00727e-05
1.022961e-05
9.558357e-06
-0.00195484
0.001950492
-1.435361e-11
-3.375173e-05
9.521285e-06
9.507834e-06
9.512763e-06
9.103219e-06
-0.001944995
0.001938291
-1.596839e-11
-2.961756e-05
9.079611e-06
9.079886e-06
9.058957e-06
8.465158e-06
-0.001930975
0.001922677
-6.542682e-12
-2.547119e-05
8.438882e-06
8.446857e-06
8.41893e-06
7.872446e-06
-0.001913837
0.001904185
9.459993e-12
-2.174195e-05
7.842747e-06
7.853863e-06
7.825119e-06
7.320634e-06
-0.001894128
0.001883398
3.422374e-11
-1.85671e-05
7.343958e-06
7.303726e-06
7.32796e-06
6.919122e-06
-0.001872377
0.001859885
4.074392e-11
-1.578796e-05
7.236936e-06
6.90413e-06
7.220283e-06
5.71322e-06
-0.001847441
0.001838642
-9.001267e-11
-1.485446e-05
6.124316e-06
5.703305e-06
6.112901e-06
6.62074e-06
-0.001827098
0.001814458
1.014138e-10
-1.365566e-05
6.533024e-06
6.614181e-06
6.527609e-06
6.545158e-06
-0.00180219
0.001790399
7.018469e-12
-1.420898e-05
6.459683e-06
6.540431e-06
6.454501e-06
6.71593e-06
-0.001778859
0.001767776
-1.134487e-11
-1.57286e-05
6.693806e-06
6.712119e-06
6.689641e-06
7.055854e-06
-0.001756931
0.001746696
-1.829242e-11
-1.803129e-05
7.079292e-06
7.05373e-06
7.078011e-06
7.497088e-06
-0.001736851
0.001727784
-1.938817e-11
-2.102812e-05
7.551656e-06
7.494734e-06
7.551642e-06
8.030948e-06
-0.001719162
0.001711395
-1.561234e-11
-2.445567e-05
8.096275e-06
8.010187e-06
8.084537e-06
8.763911e-06
-0.001704191
0.001697861
-1.026739e-11
-2.873384e-05
8.875653e-06
8.643457e-06
8.780513e-06
1.022423e-05
-0.001691906
0.001685724
-7.357437e-12
-3.398635e-05
1.050499e-05
9.581803e-06
9.857676e-06
1.39943e-05
-0.001677283
0.001662781
-8.193938e-12
-3.868333e-05
1.497143e-05
1.223337e-05
1.19869e-05
1.968134e-05
-0.00164682
0.001658292
-9.820307e-12
-3.115326e-05
1.97024e-05
-0.001669327
0.001670411
-1.093845e-11
-2.078575e-05
3.325127e-05
-0.001666191
0.001664903
-6.688618e-12
-3.196418e-05
3.20737e-05
-0.001664206
0.001664281
1.579509e-12
-3.214864e-05
2.450793e-05
-0.001664822
0.001668212
5.958815e-12
-2.789803e-05
1.590285e-05
-0.001674213
0.001681015
7.39469e-12
-2.270454e-05
1.443594e-05
-0.001687425
0.001694101
5.661981e-12
-2.111185e-05
1.368955e-05
-0.001701054
0.001708269
3.494168e-12
-2.090437e-05
1.325178e-05
-0.001715671
0.001723349
-1.393257e-12
-2.092956e-05
1.294551e-05
-0.001731171
0.001739216
-9.079552e-12
-2.099027e-05
1.26094e-05
-0.00174739
0.001755743
-2.100368e-11
-2.096254e-05
1.213046e-05
-0.001764203
0.001772782
-3.489636e-11
-2.070997e-05
1.144724e-05
-0.001781429
0.001790105
-4.670848e-11
-2.012331e-05
1.052259e-05
-0.001798789
0.001807407
-4.898897e-11
-1.914127e-05
9.345628e-06
-0.001815979
0.001824385
-3.475363e-11
-1.775068e-05
7.952108e-06
-0.001832695
0.001840738
-2.330124e-12
-1.599526e-05
6.466188e-06
-0.001848654
0.001856193
4.026433e-11
-1.400488e-05
5.15106e-06
-0.001863581
0.001870492
8.1938e-11
-1.206272e-05
4.66433e-06
-0.001877128
0.001883136
1.093003e-10
-1.067304e-05
6.258661e-06
-0.001888202
0.001892451
1.145222e-10
-1.050716e-05
1.125195e-05
-0.001893008
0.00189267
8.06828e-11
-1.091361e-05
3.31117e-06
-0.001896011
0.001899247
5.084633e-11
-6.54719e-06
1.134498e-05
-0.001900328
0.00189804
1.906628e-11
-9.056368e-06
2.529981e-05
-0.001886342
0.001872682
-6.296883e-13
-1.163994e-05
1.673017e-07
-0.001864687
0.001861335
-1.581807e-11
3.184857e-06
-1.526288e-05
-0.001857951
0.00185266
-2.079788e-11
2.055383e-05
-2.725509e-05
-0.001846013
0.001839336
-1.757828e-11
3.393169e-05
-4.604101e-05
-0.001833341
0.001829271
-9.983273e-12
5.011021e-05
-8.358081e-05
-0.00182557
0.001837306
-1.536256e-12
7.184546e-05
-1.845666e-05
-0.001854336
0.001847632
5.110722e-12
7.106714e-05
-1.383255e-05
-1.83914e-05
-1.368181e-05
-1.034813e-05
-0.00183363
0.001825009
1.011156e-11
4.99778e-05
-1.060361e-05
-1.009771e-05
-1.030766e-05
-9.317066e-06
-0.00181661
0.001806403
7.014889e-12
4.632575e-05
-8.960501e-06
-9.090555e-06
-8.750612e-06
-7.975417e-06
-0.001795241
0.001784307
3.237417e-12
4.213557e-05
-7.806833e-06
-7.789236e-06
-7.630443e-06
-7.367357e-06
-0.001773739
0.001763578
-5.116879e-13
3.91746e-05
-7.289736e-06
-7.213531e-06
-7.142476e-06
-6.775167e-06
-0.001753516
0.001743709
-3.571478e-12
3.643055e-05
-6.649199e-06
-6.656721e-06
-6.542624e-06
-6.089495e-06
-0.00173403
0.001724747
-9.346129e-12
3.325416e-05
-5.969748e-06
-6.011534e-06
-5.900432e-06
-5.366133e-06
-0.00171566
0.001707039
-1.78936e-11
2.973676e-05
-5.227908e-06
-5.325521e-06
-5.19619e-06
-4.57734e-06
-0.001698661
0.001690857
-2.651755e-11
2.58161e-05
-4.437314e-06
-4.565336e-06
-4.432049e-06
-3.75578e-06
-0.001683359
0.001676548
-3.090832e-11
2.156703e-05
-3.616809e-06
-3.7621e-06
-3.620758e-06
-2.920453e-06
-0.00167014
0.001664514
-2.830908e-11
1.704615e-05
-2.77014e-06
-2.937051e-06
-2.791902e-06
-2.123031e-06
-0.001659339
0.001655058
-1.934808e-11
1.253396e-05
-1.999662e-06
-2.127633e-06
-2.002839e-06
-1.402035e-06
-0.001651328
0.001648567
-7.604107e-12
8.145187e-06
-1.290614e-06
-1.400641e-06
-1.290261e-06
-7.30695e-07
-0.0016464
0.001645201
2.893783e-12
3.921284e-06
-6.312343e-07
-7.290535e-07
-6.307783e-07
-1.096586e-07
-0.001644652
0.001645042
1.019247e-11
-1.095405e-07
-2.879759e-08
-1.104233e-07
-3.163144e-08
4.458576e-07
-0.001646035
0.001647952
1.40789e-11
-3.869466e-06
5.306909e-07
4.444666e-07
5.311441e-07
9.471239e-07
-0.001650451
0.001653818
1.50129e-11
-7.302163e-06
1.019367e-06
9.476649e-07
1.021027e-06
1.378948e-06
-0.00165773
0.001662449
1.35433e-11
-1.036023e-05
1.439047e-06
1.381246e-06
1.442237e-06
1.737123e-06
-0.001667667
0.001673618
1.012103e-11
-1.300243e-05
1.78449e-06
1.740973e-06
1.788982e-06
2.019282e-06
-0.001680019
0.001687071
6.840677e-12
-1.520872e-05
2.054831e-06
2.023595e-06
2.05909e-06
2.235782e-06
-0.001694518
0.001702516
3.941851e-12
-1.699877e-05
2.262996e-06
2.237579e-06
2.263774e-06
2.396728e-06
-0.001710841
0.001719606
-1.238979e-12
-1.838289e-05
2.414336e-06
2.394727e-06
2.412024e-06
2.49042e-06
-0.001728631
0.001737995
-1.748424e-12
-1.933355e-05
2.495775e-06
2.488664e-06
2.494489e-06
2.511417e-06
-0.001747563
0.001757368
-2.792434e-12
-1.983825e-05
2.505304e-06
2.511137e-06
2.505264e-06
2.463027e-06
-0.001767322
0.00177741
-5.164266e-12
-1.990642e-05
2.445892e-06
2.463234e-06
2.446159e-06
2.346009e-06
0.001797797
-7.943868e-12
-1.953469e-05
2.31773e-06
2.346157e-06
2.317801e-06
-0.00178759
2.157374e-06
-0.001808039
0.001818185
-9.333005e-12
-1.869374e-05
2.116978e-06
2.156949e-06
2.116449e-06
1.891038e-06
-0.001828298
0.001838182
-1.022353e-11
-1.733974e-05
1.837725e-06
1.890039e-06
1.836724e-06
1.545629e-06
-0.001847961
0.001857356
-1.11483e-11
-1.543862e-05
1.477296e-06
1.544298e-06
1.476119e-06
1.110418e-06
-0.001866557
0.001875273
-1.11036e-11
-1.298941e-05
1.028158e-06
1.108144e-06
1.02653e-06
5.835585e-07
-0.001883735
0.001891536
-1.00331e-11
-9.954328e-06
4.947687e-07
5.816915e-07
4.93294e-07
-3.717884e-08
-0.001898976
0.001905571
-8.178003e-12
-6.226546e-06
-1.461479e-07
-3.839933e-08
-1.473359e-07
-7.448464e-07
-0.00191167
0.001916733
-6.230087e-12
-1.835017e-06
-8.675451e-07
-7.466125e-07
-8.689945e-07
-1.57474e-06
-0.00192117
0.001924292
-3.534504e-12
3.470127e-06
-1.720295e-06
-1.575853e-06
-1.721547e-06
-2.532455e-06
-0.001926671
0.0019276
-1.269343e-12
9.546804e-06
-2.704294e-06
-2.533525e-06
-2.705515e-06
-3.572285e-06
-0.001927666
0.0019262
1.149827e-12
1.611716e-05
-3.752361e-06
-3.573206e-06
-3.753437e-06
-4.623956e-06
-0.001923801
0.001919882
3.627663e-12
2.276991e-05
-4.800664e-06
-4.624716e-06
-4.801573e-06
-5.623967e-06
-0.001915032
0.001908782
7.222041e-12
2.907658e-05
-5.788857e-06
-5.624649e-06
-5.789709e-06
-6.533976e-06
-0.001901674
0.001893367
1.240279e-11
3.474608e-05
-6.684722e-06
-6.53478e-06
-6.685817e-06
-7.354386e-06
-0.001884318
0.001874298
1.847587e-11
3.972073e-05
-7.494566e-06
-7.355607e-06
-7.496275e-06
-8.116944e-06
-0.001863653
0.001852225
2.495628e-11
4.417062e-05
-8.252166e-06
-8.118729e-06
-8.254773e-06
-8.855083e-06
-0.001840245
0.001827587
3.092971e-11
4.834553e-05
-8.986215e-06
-8.85669e-06
-8.989486e-06
-9.570674e-06
-0.001814353
0.001800468
3.612508e-11
5.242148e-05
-9.697334e-06
-9.569283e-06
-9.699486e-06
-1.025907e-05
-0.001785958
0.001770761
4.147635e-11
5.643424e-05
-1.037486e-05
-1.024227e-05
-1.03612e-05
-1.09163e-05
-0.001754836
0.001738203
5.045812e-11
6.038038e-05
-1.102594e-05
-1.085185e-05
-1.095414e-05
-1.159099e-05
-0.001720802
0.001702796
6.478843e-11
6.421286e-05
-1.16999e-05
-1.142241e-05
-1.149382e-05
-1.230499e-05
-0.001684144
0.001665147
7.787e-11
6.774651e-05
-1.238448e-05
-1.201342e-05
-1.204655e-05
-1.283841e-05
-0.00164558
0.001625474
7.998934e-11
7.080558e-05
-1.274141e-05
-1.261933e-05
-1.250086e-05
-1.247897e-05
-0.001604619
0.001582862
6.195942e-11
7.009418e-05
-1.160351e-05
-1.247079e-05
-1.178357e-05
-1.05339e-05
-0.001558395
0.001531348
5.861941e-11
6.728076e-05
-9.375594e-06
-1.079041e-05
-9.533833e-06
-8.918865e-06
-0.001503072
0.0014754
6.650971e-11
6.371517e-05
-9.126696e-06
-8.949443e-06
-9.048032e-06
-9.473461e-06
-0.001448245
0.001419242
6.077714e-11
6.665145e-05
-9.356312e-06
-9.47136e-06
-9.347382e-06
-8.908541e-06
-0.001389271
0.001359166
6.311756e-11
6.548786e-05
-8.782041e-06
-8.913817e-06
-8.778551e-06
-8.727379e-06
-0.00132931
0.001299795
5.123416e-11
6.465813e-05
-8.747735e-06
-8.807638e-06
-8.860012e-06
-8.358182e-06
-0.001270768
0.00124232
1.968379e-11
6.204512e-05
-8.258616e-06
-8.532751e-06
-8.447709e-06
-7.334708e-06
-0.001214253
0.001186443
1.760676e-11
5.691972e-05
-7.136854e-06
-7.430842e-06
-7.207302e-06
-6.114046e-06
-0.001158984
0.001132
2.785441e-11
5.104903e-05
-5.955388e-06
-6.08771e-06
-5.908508e-06
-5.25313e-06
-0.001105812
0.001080544
1.23871e-11
4.595696e-05
-5.164176e-06
-5.182517e-06
-5.089341e-06
-4.699466e-06
-0.00105641
0.001033422
-3.421002e-11
4.158394e-05
-4.63273e-06
-4.660423e-06
-4.603455e-06
-4.177561e-06
-0.00101161
0.0009909731
-7.179932e-11
3.722515e-05
-4.095196e-06
-4.1956e-06
-4.119548e-06
-3.607563e-06
-0.0009714426
0.0009530845
-6.457804e-11
3.269643e-05
-3.517824e-06
-3.648425e-06
-3.564476e-06
-3.098054e-06
-0.0009358453
0.0009198189
-1.328195e-11
2.836536e-05
-3.036445e-06
-3.133693e-06
-3.070797e-06
-2.693593e-06
-0.0009048799
0.0008911089
4.827594e-11
2.44922e-05
-2.650364e-06
-2.712003e-06
-2.665362e-06
-2.38106e-06
-0.0008782946
0.0008665227
9.341837e-11
2.123054e-05
-2.347322e-06
-2.382899e-06
-2.347424e-06
-2.118971e-06
-0.0008555819
0.0008455744
1.056962e-10
1.840165e-05
-2.08479e-06
-2.112374e-06
-2.078127e-06
-1.862023e-06
-0.0008362824
0.0008278276
8.0981e-11
1.581103e-05
-1.824397e-06
-1.853475e-06
-1.816415e-06
-1.588147e-06
-0.0008200025
0.0008129579
3.183301e-11
1.329771e-05
-1.54506e-06
-1.58163e-06
-1.538363e-06
-1.285067e-06
-0.0008064875
0.0008007522
-2.471637e-11
1.078183e-05
-1.242652e-06
-1.280693e-06
-1.238135e-06
-1.006823e-06
-0.000795582
0.0007911644
-8.148454e-11
8.374305e-06
-9.740844e-07
-1.004221e-06
-9.715099e-07
-7.657837e-07
-0.0007873054
0.000784134
-1.214541e-10
6.178299e-06
-7.390932e-07
-7.642389e-07
-7.376387e-07
-5.614871e-07
-0.0007814232
0.0007793346
-1.422703e-10
4.292184e-06
-5.410521e-07
-5.606216e-07
-5.402689e-07
-4.124666e-07
-0.0007776118
0.0007763958
-1.42482e-10
2.837226e-06
-3.984929e-07
-4.120181e-07
-3.98088e-07
-3.404209e-07
-0.0007754391
0.0007748643
-1.267989e-10
1.929355e-06
-3.37008e-07
-3.401988e-07
-3.367937e-07
-3.107142e-07
-0.0007744942
0.0007744058
-9.435395e-11
1.327489e-06
-3.089279e-07
-3.105926e-07
-3.087999e-07
-2.903145e-07
-0.0007744326
0.0007746708
-8.391621e-11
9.249261e-07
-2.913049e-07
-2.902223e-07
-2.911763e-07
-2.862391e-07
0.000775684
-6.310279e-11
5.350009e-07
-0.0007750759
-2.853376e-07
-2.861471e-07
-2.853048e-07
-2.721178e-07
-0.0007763865
0.0007772466
-4.560716e-11
2.283165e-07
-2.720475e-07
-2.721202e-07
-2.720961e-07
-2.60624e-07
-0.0007781933
0.000779307
-3.209659e-11
-7.373152e-08
-2.592812e-07
-2.606992e-07
-2.593135e-07
-2.378841e-07
-0.0007805168
0.0007819265
-2.221778e-11
-4.649399e-07
-2.344403e-07
-2.379124e-07
-2.344691e-07
-2.092388e-07
-0.0007834294
0.0007851184
-1.577093e-11
-8.56707e-07
-2.068794e-07
-2.092412e-07
-2.068828e-07
-1.817505e-07
-0.0007869223
0.0007889114
-1.068879e-11
-1.267487e-06
-1.790259e-07
-1.817367e-07
-1.790108e-07
-1.531879e-07
-0.0007910182
0.0007933094
-6.898188e-12
-1.683168e-06
-1.508092e-07
-1.531931e-07
-1.508356e-07
-1.271617e-07
-0.0007957141
0.0007983013
-4.106143e-12
-2.082527e-06
-1.251611e-07
-1.27173e-07
-1.251588e-07
-1.035197e-07
-0.0008010002
0.000803878
-2.032478e-12
-2.467017e-06
-1.01902e-07
-1.035267e-07
-1.018751e-07
-8.234665e-08
-0.0008068653
0.0008100285
-4.369216e-13
-2.836494e-06
-8.09681e-08
-8.235327e-08
-8.09665e-08
-6.348005e-08
-0.0008132993
0.000816742
5.91416e-13
-3.190924e-06
-6.237537e-08
-6.348548e-08
-6.23751e-08
-4.754296e-08
-0.0008202901
0.0008240035
1.38994e-12
-3.524678e-06
-4.682716e-08
-4.752069e-08
-4.682073e-08
-3.52504e-08
-0.0008278189
0.0008317911
2.036384e-12
-3.831402e-06
-3.517834e-08
-3.522292e-08
-3.517361e-08
-2.725277e-08
-0.0008358603
0.0008400747
2.536155e-12
-4.103625e-06
-2.814286e-08
-2.727625e-08
-2.812673e-08
-2.469638e-08
-0.0008443787
0.0008488148
2.920195e-12
-4.334912e-06
-2.591829e-08
-2.469177e-08
-2.585017e-08
-2.779449e-08
-0.000853332
0.000857967
3.221434e-12
-4.520497e-06
-2.95213e-08
-2.776363e-08
-2.937627e-08
-3.681857e-08
-0.0008626726
0.00086748
3.352705e-12
-4.656531e-06
-3.871864e-08
-3.666572e-08
-3.870427e-08
-5.102882e-08
-0.0008723463
0.0008772956
3.390643e-12
-4.740027e-06
-5.362844e-08
-5.099474e-08
-5.370366e-08
-7.095764e-08
-0.0008822894
0.000887353
3.257572e-12
-4.774128e-06
-7.370201e-08
-7.108527e-08
-7.372835e-08
-9.52926e-08
-0.0008924486
0.0008975955
2.991555e-12
-4.75957e-06
-9.83657e-08
-9.531527e-08
-9.838872e-08
-1.237061e-07
-0.0009027523
0.0009079615
2.60122e-12
-4.708191e-06
-1.268089e-07
-1.236647e-07
-1.268244e-07
-1.532917e-07
-0.0009131674
0.0009184173
2.1195e-12
-4.631602e-06
-1.558906e-07
-1.531435e-07
-1.559728e-07
-1.8108e-07
-0.0009236314
0.0009289426
1.614023e-12
-4.589203e-06
-1.798579e-07
-1.808386e-07
-1.801696e-07
-1.734481e-07
-0.0009341883
0.0009394302
1.103325e-12
-4.625771e-06
-1.343126e-07
-1.730668e-07
-1.35317e-07
7.542114e-08
-0.0009438526
0.000947727
6.297103e-13
-4.575315e-06
2.746867e-07
7.805526e-08
2.727286e-07
4.812043e-07
-0.0002364654
0.0002365359
-5.0251e-12
-5.516172e-07
-5.172504e-08
-0.0002371598
0.0002374656
-4.313157e-11
-2.540386e-07
-2.444299e-07
-0.0002386695
0.0002391267
1.226538e-11
-2.127678e-07
-3.570576e-07
-0.0002405995
0.0002411082
4.737909e-11
-1.517081e-07
-4.422016e-07
-0.0002426619
0.0002431799
9.082883e-11
-7.587713e-08
-5.140807e-07
-0.000244726
0.0002452345
1.597417e-10
5.383119e-09
-5.782501e-07
-0.000246738
0.0002472288
3.336038e-10
8.706653e-08
-6.364515e-07
-0.000248675
0.000249146
6.390643e-10
1.648901e-07
-6.890299e-07
-0.0002505314
0.000250982
8.485866e-10
2.376242e-07
-7.35603e-07
-0.0002523067
0.0002527371
6.051207e-10
3.046557e-07
-7.778716e-07
-0.0002540015
0.0002544121
8.098615e-12
3.673312e-07
-8.183171e-07
-0.0002556188
0.0002560109
-3.828104e-10
4.265435e-07
-8.597542e-07
-0.0002571583
0.00025753
-3.91555e-10
4.884639e-07
-8.991953e-07
-0.0002586197
0.0002589725
-2.306606e-10
5.465906e-07
-9.35915e-07
-0.0002600061
0.0002603405
-7.892415e-11
6.01524e-07
-9.697935e-07
-0.0002613197
0.0002616363
5.670009e-12
6.531635e-07
-1.00093e-06
-0.0002625627
0.0002628621
4.886247e-11
7.014375e-07
-1.029254e-06
-0.0002637378
0.0002640208
6.715765e-11
7.46185e-07
-1.054696e-06
-0.0002648484
0.0002651158
7.023672e-11
7.87195e-07
-1.077019e-06
-0.0002658978
0.0002661508
7.319681e-11
8.240302e-07
-1.09596e-06
-0.0002668908
0.0002671304
7.346636e-11
8.563095e-07
-1.111489e-06
-0.0002678329
0.000268061
6.862938e-11
8.833466e-07
-1.12352e-06
-0.0002687303
0.0002689487
6.67997e-11
9.051062e-07
-1.131985e-06
-0.0002695937
0.0002698051
6.905802e-11
9.20523e-07
-1.137418e-06
-0.0002704316
0.0002706382
7.401127e-11
9.307861e-07
-1.139754e-06
-0.0002712542
0.0002714586
7.03036e-11
9.352605e-07
-1.13914e-06
-0.0002720722
0.0002722781
5.872797e-11
9.332018e-07
-1.135433e-06
-0.0002729002
0.0002731109
5.832336e-11
9.247289e-07
-1.129108e-06
-0.0002737521
0.0002739715
6.5277e-11
9.09649e-07
-1.120315e-06
-0.0002746437
0.0002748762
6.927873e-11
8.877595e-07
-1.107681e-06
-0.000275592
0.0002758435
7.401743e-11
8.561313e-07
-1.089572e-06
-0.0002766226
0.0002769015
7.525088e-11
8.106055e-07
-1.062626e-06
-0.0002777676
0.000278086
8.190294e-11
7.441446e-07
-1.012792e-06
-0.0002790811
0.0002794629
7.376123e-11
6.30953e-07
-8.877846e-07
-0.0002807121
0.0002812455
5.916193e-11
3.542906e-07
6.109377e-07
-0.0002829979
0.0002830045
1.014852e-10
-6.175683e-07
1.430514e-06
-0.00028366
0.0002838871
5.794279e-11
-1.65767e-06
1.465994e-06
-0.0002847849
0.0002851159
8.46704e-11
-1.797053e-06
1.580159e-06
-0.0002861623
0.0002865306
8.942492e-11
-1.948611e-06
1.635006e-06
-0.0002876751
0.0002880715
9.360882e-11
-2.031455e-06
1.68521e-06
-0.0002892807
0.0002896927
9.487005e-11
-2.097304e-06
1.725647e-06
-0.0002909468
0.000291372
1.014819e-10
-2.150965e-06
1.761744e-06
-0.0002926574
0.0002930905
1.081338e-10
-2.194928e-06
1.790983e-06
-0.0002943973
0.0002948355
1.132625e-10
-2.22926e-06
1.814497e-06
-0.0002961528
0.0002965938
9.564284e-11
-2.255605e-06
1.83117e-06
-0.0002979185
0.0002983607
8.518847e-11
-2.273425e-06
1.843596e-06
-0.000299683
0.0003001226
9.154544e-11
-2.283199e-06
1.852243e-06
-0.0003014315
0.0003018647
8.751744e-11
-2.285526e-06
1.857276e-06
-0.0003031499
0.0003035732
8.603982e-11
-2.280738e-06
1.858917e-06
-0.0003048249
0.0003052354
7.964002e-11
-2.269469e-06
1.857385e-06
-0.000306445
0.0003068402
7.58733e-11
-2.252672e-06
1.8534e-06
-0.000308001
0.0003083791
7.555767e-11
-2.231546e-06
1.847128e-06
-0.0003094863
0.0003098458
7.052184e-11
-2.206704e-06
1.838253e-06
-0.0003108957
0.0003112355
6.526393e-11
-2.178094e-06
1.826566e-06
-0.0003122245
0.0003125433
6.458272e-11
-2.145456e-06
1.812035e-06
-0.0003134677
0.0003137644
6.08271e-11
-2.108798e-06
1.79538e-06
-0.000314621
0.0003148947
5.455116e-11
-2.06914e-06
1.77827e-06
-0.0003156819
0.0003159326
5.388724e-11
-2.029016e-06
1.763507e-06
-0.0003166519
0.0003168811
5.686711e-11
-1.992769e-06
1.754627e-06
-0.0003175395
0.0003177508
5.260275e-11
-1.965942e-06
1.754944e-06
-0.0003183613
0.0003185606
3.918256e-11
-1.954294e-06
1.767076e-06
-0.0003191433
0.0003193384
3.01455e-11
-1.962144e-06
1.790348e-06
-0.0003199169
0.0003201156
3.623777e-11
-1.98915e-06
1.820694e-06
-0.0003207116
0.0003209206
3.812861e-11
-2.029793e-06
1.855971e-06
-0.0003215506
0.0003217742
4.047648e-11
-2.079629e-06
1.893365e-06
-0.0003224499
0.0003226902
4.24314e-11
-2.133694e-06
1.925243e-06
-0.0003234164
0.0003236728
4.389791e-11
-2.181756e-06
1.949253e-06
-0.0003244425
0.0003247091
3.975211e-11
-2.215835e-06
1.936146e-06
-0.0003254742
0.0003257588
2.003374e-10
-2.220969e-06
1.929168e-06
-0.0003266653
0.0003269451
1.932834e-10
-2.209075e-06
2.531878e-06
-0.0003256161
0.001326991
2.084218e-11
-8.985171e-06
4.501462e-07
2.53611e-06
4.328781e-07
-0.0003256201
-0.0003363601
-0.0003363606
1.182048e-06
-0.00133305
0.001335703
8.253328e-12
-8.321971e-06
1.674297e-06
1.159103e-06
1.652883e-06
1.363899e-06
-0.001337532
0.001339331
2.705607e-12
-7.428799e-06
1.468043e-06
1.346247e-06
1.451339e-06
1.323757e-06
-0.001341467
0.001343424
1.992496e-12
-7.346497e-06
1.386593e-06
1.308137e-06
1.371337e-06
1.327764e-06
-0.001345164
0.001346446
2.846274e-12
-6.675932e-06
1.383833e-06
1.313117e-06
1.369242e-06
1.316777e-06
-0.001347502
0.001348334
4.257285e-12
-6.132777e-06
1.347746e-06
1.302816e-06
1.333943e-06
1.31775e-06
-0.00134909
0.00134975
4.756789e-12
-5.957142e-06
1.34398e-06
1.304452e-06
1.330925e-06
1.366902e-06
-0.001350379
0.001350989
4.247137e-12
-6.10041e-06
1.390449e-06
1.353606e-06
1.378782e-06
1.443198e-06
-0.00135161
0.00135227
3.563061e-12
-6.449988e-06
1.463848e-06
1.430487e-06
1.451877e-06
1.526362e-06
-0.001352985
0.001353789
3.891138e-12
-6.941524e-06
1.554082e-06
1.514444e-06
1.541682e-06
1.638501e-06
-0.001354681
0.001355723
4.750137e-12
-7.614843e-06
1.658924e-06
1.627275e-06
1.648106e-06
1.748433e-06
-0.00135688
0.001358202
5.118481e-12
-8.33417e-06
1.767358e-06
1.738584e-06
1.757855e-06
1.847031e-06
-0.001359655
0.001361274
5.310261e-12
-9.020865e-06
1.862987e-06
1.838045e-06
1.854307e-06
1.925935e-06
-0.001363017
0.001364903
5.201853e-12
-9.598424e-06
1.938039e-06
1.917758e-06
1.930057e-06
1.979243e-06
-0.001366898
0.001368995
4.251458e-12
-1.001638e-05
1.987612e-06
1.971754e-06
1.980268e-06
2.005124e-06
-0.001371177
0.001373409
3.33682e-12
-1.024771e-05
2.009689e-06
1.998246e-06
2.002951e-06
2.003925e-06
-0.001375695
0.001377973
2.716282e-12
-1.02824e-05
2.004588e-06
1.997556e-06
1.998287e-06
1.976227e-06
-0.001380274
0.001382504
1.592392e-12
-1.011771e-05
1.973509e-06
1.970311e-06
1.967632e-06
1.92444e-06
-0.001384721
0.001386804
-1.869313e-13
-9.757772e-06
1.918466e-06
1.918973e-06
1.913051e-06
1.850842e-06
-0.001388837
0.001390675
-1.736956e-12
-9.214323e-06
1.842499e-06
1.84576e-06
1.837441e-06
1.760295e-06
-0.001392426
0.001393928
-2.924807e-12
-8.511928e-06
1.749611e-06
1.755555e-06
1.744856e-06
1.656978e-06
-0.001395313
0.001396414
-3.230911e-12
-7.701167e-06
1.647485e-06
1.65258e-06
1.643088e-06
1.539062e-06
-0.001397382
0.001398035
-2.806177e-12
-6.782374e-06
1.529665e-06
1.535148e-06
1.525791e-06
1.425999e-06
-0.001398495
0.001398656
-2.03185e-12
-5.814944e-06
1.404512e-06
1.42228e-06
1.401106e-06
1.272498e-06
-0.001398683
0.001398393
-1.346388e-12
-4.766292e-06
1.258868e-06
1.269006e-06
1.255412e-06
1.113648e-06
-0.001397937
0.001397141
-1.006411e-12
-3.617103e-06
1.096443e-06
1.110328e-06
1.092819e-06
9.233214e-07
-0.00139617
0.001394843
-8.379785e-13
-2.315238e-06
9.008716e-07
9.200453e-07
8.975758e-07
6.774109e-07
-0.001393325
0.001391434
-1.093681e-12
-7.475964e-07
6.45339e-07
6.74088e-07
6.419098e-07
3.580448e-07
-0.001389346
0.001386816
-1.729096e-12
1.201334e-06
3.100354e-07
3.5432e-07
3.06469e-07
-5.389453e-08
-0.001384008
0.001380721
-5.001985e-12
3.616545e-06
-1.08475e-07
-5.677169e-08
-1.113228e-07
-5.860651e-07
-0.001377034
0.001372623
-1.029475e-11
6.88807e-06
-6.491332e-07
-5.894033e-07
-6.517127e-07
-1.228495e-06
-0.001367404
0.001361508
-1.57924e-11
1.111342e-05
-1.374158e-06
-1.2341e-06
-1.38091e-06
-2.608548e-06
-0.00135474
0.001347178
-3.852575e-11
1.871259e-05
-2.951967e-06
-2.621217e-06
-2.968326e-06
-5.01179e-06
-0.001339641
0.00133247
-4.559291e-11
2.84049e-05
-5.578666e-06
-5.03639e-06
-5.607544e-06
-9.511852e-06
-0.001325815
0.001319795
-6.982746e-11
4.567932e-05
-1.030406e-05
-9.527951e-06
-1.031562e-05
-1.082266e-05
-0.00131505
0.001308715
-3.280303e-11
4.898987e-05
-1.052071e-05
-1.081297e-05
-1.049834e-05
-6.424577e-06
-0.001297051
0.001280784
-1.068943e-11
4.01162e-05
-5.525236e-06
-6.397878e-06
-5.501541e-06
-2.987895e-06
-0.001261016
0.001239141
-8.830779e-12
3.319695e-05
-2.679741e-06
-2.978822e-06
-2.675517e-06
-2.197535e-06
-0.001215625
0.001190738
2.971822e-11
3.356453e-05
-2.141448e-06
-2.197245e-06
-2.141286e-06
-1.923918e-06
-0.001163907
0.001134948
8.094286e-11
3.648929e-05
-1.842675e-06
-1.92243e-06
-1.841009e-06
-1.494969e-06
-0.001103428
0.001069676
1.565954e-10
3.959808e-05
-1.429898e-06
-1.493249e-06
-1.428256e-06
-1.662267e-06
-0.001034112
0.0009979552
2.288323e-10
4.300956e-05
-1.765078e-06
-1.661265e-06
-1.764839e-06
-2.747781e-06
-0.0009629015
0.0009306027
1.593054e-10
4.375305e-05
-2.982155e-06
-2.74458e-06
-2.979953e-06
-3.210575e-06
-0.0009012451
0.0008741633
2.069687e-11
3.998377e-05
-3.242001e-06
-3.20903e-06
-3.240418e-06
-3.407074e-06
-0.0008490717
0.0008251837
-7.918786e-11
3.762427e-05
-3.462273e-06
-3.405804e-06
-3.461132e-06
-3.459308e-06
-0.0008028657
0.0007822943
-1.070042e-10
3.432788e-05
-3.419523e-06
-3.458629e-06
-3.418911e-06
-2.440567e-06
-0.0007642938
0.0007492749
-7.594515e-11
2.437345e-05
-2.236965e-06
-2.44027e-06
-2.236673e-06
-9.25419e-07
-0.0007374369
0.0007285617
-3.157929e-11
1.223674e-05
-7.553698e-07
-9.253935e-07
-7.553274e-07
1.046484e-07
-0.0007221461
0.0007174151
-4.193632e-12
4.14186e-06
1.899317e-07
1.045997e-07
1.899088e-07
5.371922e-07
-0.0007138791
0.0007110558
1.817328e-12
6.576541e-07
5.456577e-07
5.371816e-07
5.456585e-07
5.369314e-07
-0.0007086322
0.0007064317
-4.696281e-12
1.052473e-07
5.106904e-07
5.369433e-07
5.107052e-07
3.809178e-07
-0.000704176
0.0007019661
-1.259877e-11
7.04904e-07
3.716645e-07
3.808047e-07
3.716031e-07
2.088672e-07
-0.0006995737
0.0006973084
-1.805315e-11
1.388369e-06
2.300516e-07
2.084377e-07
2.295921e-07
-4.787725e-08
-0.0006952363
0.000693503
-1.997867e-11
1.60633e-06
1.131019e-07
-5.025885e-08
1.119698e-07
1.270485e-07
-0.0006911508
0.0006874455
-2.004727e-11
3.315396e-06
6.364093e-08
1.315291e-07
6.767273e-08
-1.273997e-07
-0.0006841443
0.0006813524
-1.901969e-11
3.512142e-06
-2.387559e-07
-1.206457e-07
-2.334217e-07
-2.501155e-07
-0.0006785188
0.0006756335
-1.968052e-11
3.957452e-06
-2.897022e-07
-2.463297e-07
-2.859694e-07
-3.04923e-07
-0.0006727082
0.0006698205
-1.46858e-11
4.140088e-06
-3.241488e-07
-3.019758e-07
-3.213263e-07
-3.176588e-07
-0.000666923
0.0006640538
-1.103076e-11
4.144213e-06
-3.224916e-07
-3.149306e-07
-3.198363e-07
-2.97055e-07
-0.0006611797
0.0006583535
-7.609587e-12
4.004225e-06
-2.939706e-07
-2.948496e-07
-2.920524e-07
-2.567927e-07
-0.0006555503
0.0006528423
-4.567689e-12
3.717181e-06
-2.494298e-07
-2.550345e-07
-2.479368e-07
-2.047374e-07
-0.0006501862
0.000647659
-2.201419e-12
3.324616e-06
-1.95388e-07
-2.033669e-07
-1.939157e-07
-1.481567e-07
-0.0006452021
0.0006428802
-5.796718e-13
2.89543e-06
-1.395778e-07
-1.471764e-07
-1.386107e-07
-9.59914e-08
-0.000640633
0.000638511
4.347013e-13
2.49048e-06
-8.893667e-08
-9.5313e-08
-8.826963e-08
-4.823851e-08
-0.0006364574
0.0006345133
9.400598e-13
2.123732e-06
-4.206287e-08
-4.774971e-08
-4.159188e-08
-7.739959e-09
-0.0006326284
0.0006308293
1.159919e-12
1.819925e-06
-2.973515e-09
-7.432251e-09
-2.692448e-09
2.367631e-08
-0.0006290791
0.0006273861
1.353689e-12
1.587727e-06
2.847362e-08
2.405992e-08
2.905089e-08
4.905818e-08
-0.0006257164
0.0006240688
1.33497e-12
1.443326e-06
5.250756e-08