/*--------------------------------*- C++ -*----------------------------------*\
| =========                 |                                                 |
| \\      /  F ield         | foam-extend: Open Source CFD                    |
|  \\    /   O peration     | Version:     3.1                                |
|   \\  /    A nd           | Web:         http://www.extend-project.de       |
|    \\/     M anipulation  |                                                 |
\*---------------------------------------------------------------------------*/
FoamFile
{
    version     2.0;
    format      ascii;
    class       volScalarField;
    location    "2.5";
    object      k;
}
// * * * * * * * * * * * * * * * * * * * * * * * * * * * * * * * * * * * * * //

dimensions      [0 2 -2 0 0 0 0];

internalField   nonuniform List<scalar> 
119952
(
0.01430537
0.01371317
0.0135978
0.01325547
0.01291533
0.01270173
0.01264908
0.01267504
0.01273918
0.01282556
0.01292247
0.0130223
0.01312032
0.0132139
0.01330184
0.0133835
0.01345968
0.01353392
0.01361901
0.01377094
0.01397078
0.01365534
0.01369757
0.01391832
0.01350169
0.01332572
0.01319046
0.01305564
0.01268925
0.01290401
0.01732314
0.01735841
0.01708132
0.01685603
0.01675221
0.01675834
0.01683986
0.01696438
0.01710545
0.01724684
0.01590356
0.01559335
0.01579403
0.01621563
0.01670974
0.01720806
0.01767865
0.01811586
0.01850149
0.02048687
0.02065634
0.02075766
0.02082661
0.02089811
0.0209954
0.02112653
0.02129269
0.02148837
0.02172494
0.0220097
0.02225401
0.02249142
0.02273151
0.02297944
0.02323895
0.02351191
0.02379859
0.02414458
0.02481583
0.02498856
0.02510434
0.02531672
0.02550748
0.02561629
0.02564994
0.02566309
0.0256747
0.02568908
0.02570904
0.02573566
0.02576889
0.02580823
0.02585284
0.02590194
0.02595498
0.02601217
0.02607502
0.02615446
0.02627855
0.02641326
0.02654157
0.02679637
0.02713107
0.02734427
0.02747929
0.02759129
0.02761876
0.02725588
0.02705035
0.02692892
0.02685891
0.02681069
0.02677056
0.02673396
0.02669814
0.02666254
0.02662744
0.02659318
0.02656
0.02652807
0.02649753
0.02646854
0.02644121
0.02641559
0.02639164
0.02636934
0.02634866
0.02632954
0.02631186
0.02629545
0.02628023
0.02626619
0.02625333
0.02624166
0.02623116
0.02622177
0.02621344
0.02620612
0.0261998
0.02619449
0.02619021
0.02618697
0.02618481
0.0261837
0.02618361
0.02618447
0.02618618
0.02618863
0.02619172
0.02619534
0.02619942
0.0262039
0.02620875
0.02621394
0.02621946
0.0262256
0.02623743
0.02627171
0.02632003
0.02635821
0.02637554
0.02637077
0.02634568
0.02630232
0.02624405
0.02617499
0.02609814
0.02601603
0.02593076
0.02584396
0.02575681
0.02567057
0.02558658
0.02550571
0.02542833
0.02535457
0.02528448
0.02521805
0.02515522
0.0250959
0.02503992
0.02498708
0.02493713
0.02488981
0.0248448
0.02480181
0.0247605
0.02472054
0.0246816
0.02464339
0.02460561
0.02456802
0.02453039
0.02449253
0.02445428
0.02441549
0.02437606
0.02433589
0.0242949
0.02425303
0.02421023
0.02416648
0.02412177
0.0240761
0.02402949
0.02398227
0.02394524
0.02313051
0.02174561
0.02106523
0.02063051
0.02028445
0.01997831
0.01969953
0.01944446
0.01921095
0.01899725
0.01880169
0.01862236
0.01845722
0.01830425
0.01816166
0.01802796
0.01790184
0.01778219
0.01766805
0.01755864
0.0174533
0.01735151
0.01725281
0.01715684
0.01706335
0.01697213
0.01688303
0.01679603
0.01671113
0.0166284
0.0165482
0.01647105
0.01639779
0.01633052
0.01627269
0.01625668
0.01646253
0.01671148
0.01695362
0.01717894
0.01738425
0.01757016
0.01773887
0.01789316
0.01803521
0.01816724
0.0182911
0.01840824
0.01851988
0.01862697
0.01873028
0.01883041
0.01892785
0.01902297
0.01911611
0.01920751
0.01929739
0.01938591
0.01947324
0.01955948
0.01964475
0.0197291
0.01981261
0.01989528
0.01997716
0.02005827
0.02013863
0.02021835
0.02029761
0.02037482
0.02326285
0.02327503
0.02326205
0.02326566
0.02331217
0.02340925
0.02355268
0.02373187
0.0239345
0.02414931
0.02436721
0.02458158
0.02478818
0.02498459
0.02516978
0.0253436
0.02550643
0.025659
0.02580214
0.02593674
0.02606367
0.02618374
0.02629768
0.02640616
0.02650977
0.02660901
0.02670436
0.02679621
0.02688493
0.02697084
0.02705422
0.02713533
0.02721438
0.02729159
0.02736711
0.02744111
0.02751372
0.02758502
0.0276551
0.02772399
0.02779168
0.02785808
0.02792298
0.02798603
0.02804667
0.02810185
0.0281458
0.02818423
0.02822069
0.0282558
0.02829032
0.02832469
0.02835858
0.02840566
0.02842782
0.02839134
0.02835044
0.02831671
0.02829999
0.02830716
0.02834094
0.02840004
0.02848078
0.02857806
0.02868645
0.02880099
0.02891761
0.02903324
0.02914574
0.02925378
0.02935663
0.02945399
0.0295459
0.02963256
0.02971431
0.02979155
0.02986469
0.02993416
0.03000033
0.03006358
0.03012424
0.03018262
0.03023899
0.03029358
0.03034662
0.0303983
0.03044877
0.0304982
0.0305467
0.03059439
0.03064136
0.0306877
0.03073348
0.03077876
0.03082359
0.030868
0.03091203
0.03095571
0.03099904
0.03104205
0.03108473
0.0311271
0.03116914
0.03121086
0.03125225
0.03129331
0.03133402
0.03137439
0.03141441
0.03145408
0.0314934
0.03153238
0.03157103
0.03160938
0.03164744
0.03168524
0.03172283
0.03176024
0.03179754
0.03183478
0.03187205
0.03190943
0.03194704
0.031985
0.03202348
0.03206266
0.03210279
0.03214418
0.03218723
0.03223251
0.0322808
0.03233327
0.03239154
0.0324584
0.0325387
0.03264172
0.03278829
0.03307277
0.03358338
0.02586711
0.02405102
0.02314241
0.02276675
0.02269268
0.02275273
0.02285589
0.02295239
0.02301816
0.02247613
0.02251912
0.02323847
0.02416436
0.02505759
0.02582383
0.02643738
0.02691141
0.02726822
0.03055553
0.03048639
0.03037565
0.03018409
0.02997546
0.02979862
0.0296642
0.02957872
0.02954059
0.02953366
0.02960982
0.02966964
0.02970804
0.02976103
0.02984322
0.02995907
0.03011302
0.03030368
0.03052533
0.03081346
0.03109482
0.03133332
0.03156256
0.03178768
0.0320058
0.03221463
0.03241155
0.03259322
0.03275769
0.0329036
0.03302298
0.03311796
0.03318474
0.03322453
0.03324157
0.03324045
0.0332261
0.03320355
0.03579602
0.03574784
0.03571012
0.03568445
0.03566989
0.03566785
0.03567946
0.03570632
0.03574833
0.03580619
0.0358833
0.0359792
0.03609176
0.03622015
0.0363643
0.03652275
0.03669776
0.03689194
0.0371157
0.03731772
0.03746995
0.03763032
0.03780029
0.03795205
0.03808449
0.03819649
0.0382955
0.03838517
0.03846811
0.03854634
0.0386213
0.03869413
0.03876581
0.03883727
0.03890959
0.03898426
0.03906405
0.03915345
0.03925955
0.03938295
0.03951691
0.03967262
0.03985892
0.04003599
0.04016603
0.04025984
0.04029509
0.04026455
0.04022119
0.04022095
0.04024243
0.04027656
0.04031689
0.04035952
0.04040233
0.04044398
0.04048377
0.04052139
0.04055672
0.0405898
0.04062077
0.04064986
0.04067736
0.0407036
0.04072889
0.04075354
0.04077784
0.04080205
0.04082642
0.04085113
0.04087636
0.04090227
0.04092901
0.04095671
0.0409855
0.04101545
0.04104664
0.04107912
0.04111291
0.04114806
0.04118457
0.04122245
0.04126171
0.04130231
0.04134422
0.04138737
0.04143166
0.041477
0.04152326
0.04157033
0.04161808
0.04166641
0.04171523
0.04176448
0.04181418
0.04186452
0.04191605
0.04196954
0.04202476
0.04208039
0.04213689
0.04219404
0.04225089
0.04230618
0.04235865
0.04240736
0.04245157
0.04249074
0.04252453
0.04255284
0.04257574
0.04259351
0.04260662
0.04261565
0.04262121
0.04262389
0.04262424
0.0426228
0.04262008
0.04261653
0.04261256
0.04260851
0.04260464
0.04260114
0.04259815
0.04259572
0.04259385
0.04259249
0.04259155
0.04259089
0.0425904
0.0425899
0.04258923
0.04258825
0.04258681
0.0425848
0.0425821
0.04257861
0.04257427
0.04256901
0.04256279
0.04255558
0.04254735
0.04253817
0.0425281
0.0425175
0.04250735
0.04250167
0.04096751
0.03996079
0.03957572
0.03940929
0.0393187
0.03925233
0.03919147
0.03912949
0.03906441
0.03899617
0.03892548
0.03885321
0.03878019
0.03870711
0.03863451
0.03856283
0.03849234
0.03842326
0.03835569
0.03828968
0.03822524
0.03816235
0.03810095
0.03804105
0.03798258
0.03792555
0.03786996
0.03781587
0.03776341
0.03771282
0.0376645
0.03761917
0.03757815
0.03754413
0.03752295
0.03752641
0.03755678
0.0376057
0.03766553
0.03773226
0.03780338
0.03787713
0.03795219
0.03802756
0.03810247
0.03817633
0.03824872
0.03831938
0.03838815
0.03845494
0.03851975
0.03858263
0.03864366
0.03870293
0.03876056
0.03881668
0.03887138
0.0389248
0.03897703
0.03902816
0.03907829
0.03912748
0.03917578
0.03922324
0.0392699
0.03931575
0.03936079
0.03940497
0.0394481
0.03948659
0.0424531
0.04254839
0.04262186
0.04267648
0.04271717
0.04274891
0.04277589
0.04280142
0.04282792
0.042857
0.04288959
0.04292607
0.04296645
0.04301045
0.04305761
0.04310742
0.04315933
0.04321282
0.04326742
0.04332271
0.04337833
0.04343399
0.04348945
0.04354452
0.04359906
0.04365295
0.04370613
0.04375856
0.0438102
0.04386107
0.04391118
0.04396055
0.04400922
0.04405724
0.04410464
0.04415147
0.04419776
0.04424353
0.04428879
0.04433353
0.04437769
0.0444212
0.04446393
0.04450566
0.04454595
0.04458386
0.04461895
0.04465203
0.04468378
0.04471449
0.0447444
0.04477354
0.04480249
0.04483184
0.04485773
0.0448796
0.04489906
0.04491639
0.04493187
0.04494611
0.04495997
0.04497441
0.04499036
0.04500856
0.04502949
0.04505339
0.04508027
0.04510996
0.04514216
0.04517651
0.04521259
0.04525003
0.04528843
0.04532749
0.0453669
0.04540645
0.04544595
0.04548527
0.0455243
0.04556299
0.04560129
0.04563919
0.0456767
0.04571383
0.0457506
0.04578705
0.04582321
0.04585911
0.04589479
0.04593027
0.04596559
0.04600077
0.04603584
0.0460708
0.04610566
0.04614044
0.04617513
0.04620973
0.04624424
0.04627863
0.04631291
0.04634704
0.04638103
0.04641485
0.04644849
0.04648193
0.04651514
0.0465481
0.0465808
0.04661321
0.04664534
0.04667717
0.04670872
0.04673998
0.04677097
0.04680173
0.04683228
0.04686268
0.04689298
0.04692324
0.04695356
0.04698404
0.04701479
0.04704596
0.04707772
0.04711029
0.04714394
0.04717899
0.04721588
0.04725517
0.04729762
0.04734424
0.04739645
0.0474562
0.04752641
0.04761163
0.04772271
0.04787286
0.04802631
0.05086748
0.05421426
0.05782363
0.06080989
0.06333052
0.06520854
0.06660468
0.06762829
0.06826928
0.06973527
0.08592567
0.09735291
0.1028254
0.1051584
0.1058285
0.1055858
0.1048054
0.1036913
0.1023002
0.1130451
0.1109537
0.1087649
0.1066537
0.1046707
0.1027723
0.1009067
0.09904124
0.09714161
0.09526935
0.09332764
0.09119358
0.0890262
0.0869009
0.08484021
0.08284911
0.08092579
0.0790678
0.07729007
0.07557893
0.07371954
0.07187677
0.07009013
0.06836468
0.06670507
0.06511486
0.06359534
0.06214462
0.06076537
0.05942215
0.05814157
0.056915
0.05573342
0.05459732
0.05350933
0.05247054
0.05148463
0.05407548
0.05308749
0.05215966
0.05129093
0.05047124
0.04969768
0.04897166
0.04829453
0.04766982
0.04709717
0.04657959
0.04612464
0.04573058
0.04539532
0.04511895
0.04490026
0.04473702
0.04462683
0.04456512
0.04454449
0.04456135
0.04461191
0.04468782
0.04478078
0.0448834
0.04498869
0.04509056
0.04518283
0.04526055
0.04532141
0.04536207
0.04538034
0.04537612
0.04535046
0.04530511
0.04524284
0.04516704
0.04508742
0.04496455
0.04484519
0.04473308
0.04463075
0.04454077
0.04446552
0.04440665
0.04436561
0.04434295
0.0443399
0.0443569
0.04439303
0.04444798
0.04452153
0.04461338
0.04472252
0.04484918
0.04499103
0.0451458
0.04529347
0.04542854
0.04556277
0.04569994
0.0458398
0.04596345
0.04607109
0.04616854
0.04625958
0.04634626
0.0464299
0.04651147
0.04659184
0.04667178
0.04675213
0.04683399
0.04691878
0.04700875
0.04710671
0.04721637
0.04733794
0.04746909
0.0476143
0.0477661
0.04790137
0.04800613
0.04807776
0.04811333
0.04811116
0.04810591
0.04812373
0.04816149
0.0482109
0.04826697
0.04832672
0.04838829
0.04845026
0.04851165
0.04857185
0.04863053
0.04868749
0.04874271
0.04879624
0.0488482
0.04889877
0.04894814
0.04899651
0.0490441
0.0490911
0.0491377
0.04918406
0.04923034
0.0492767
0.04932326
0.04937017
0.04941755
0.0494655
0.04951413
0.04956351
0.04961373
0.04966485
0.04971694
0.04977003
0.04982417
0.04987938
0.04993564
0.04999293
0.0500512
0.05011039
0.05017041
0.05023118
0.0502926
0.05035459
0.05041708
0.05048005
0.0505435
0.05060752
0.05067234
0.0507381
0.0508044
0.05087047
0.05093643
0.05100239
0.05106823
0.05113366
0.05119821
0.0512614
0.05132273
0.05138168
0.05143775
0.05149056
0.05153979
0.05158529
0.05162701
0.05166507
0.05169965
0.05173102
0.05175945
0.05178527
0.05180883
0.05183049
0.0518506
0.05186947
0.05188739
0.0519046
0.05192128
0.05193755
0.05195354
0.05196924
0.05198466
0.05199975
0.05201446
0.05202869
0.05204234
0.05205532
0.05206753
0.05207889
0.05208931
0.05209875
0.05210713
0.05211444
0.05212063
0.05212572
0.05212969
0.05213259
0.05213449
0.0521353
0.05213427
0.05212495
0.05205994
0.05207265
0.0521012
0.05212765
0.05214784
0.05216144
0.05216889
0.05217075
0.05216746
0.05215943
0.0521471
0.05213088
0.05211121
0.05208849
0.05206313
0.05203551
0.052006
0.05197492
0.05194256
0.05190918
0.05187501
0.05184027
0.05180516
0.05176983
0.05173446
0.05169922
0.05166431
0.05162994
0.0515964
0.05156406
0.05153346
0.05150546
0.05148137
0.05146327
0.05145403
0.0514554
0.05146615
0.05148508
0.05150939
0.05153721
0.05156732
0.05159894
0.05163156
0.05166485
0.05169856
0.05173255
0.05176665
0.05180074
0.05183473
0.05186855
0.05190214
0.05193546
0.05196848
0.05200121
0.05203363
0.05206576
0.0520976
0.05212917
0.05216049
0.05219157
0.05222242
0.05225303
0.05228342
0.05231357
0.05234346
0.05237306
0.05240235
0.05243148
0.05246179
0.0525023
0.05248757
0.05248664
0.05249355
0.05250487
0.05251838
0.05253262
0.05254688
0.05256104
0.05257529
0.05258998
0.05260548
0.05262211
0.05264011
0.05265966
0.05268083
0.05270362
0.05272796
0.05275375
0.05278087
0.05280915
0.05283844
0.05286858
0.05289942
0.05293084
0.0529627
0.05299489
0.05302734
0.05305997
0.05309272
0.05312555
0.05315844
0.05319137
0.05322435
0.05325736
0.05329041
0.05332351
0.05335667
0.05338986
0.05342309
0.05345631
0.05348948
0.05352252
0.05355532
0.05358773
0.0536195
0.05365027
0.05367982
0.05370831
0.05373602
0.05376314
0.05378979
0.05381602
0.05384195
0.05386759
0.05389228
0.05391576
0.05393829
0.05395988
0.0539805
0.0540002
0.05401912
0.05403743
0.05405536
0.05407316
0.05409112
0.05410944
0.05412834
0.05414794
0.05416832
0.05418951
0.05421151
0.05423428
0.05425774
0.05428184
0.05430648
0.0543316
0.05435713
0.054383
0.05440918
0.05443562
0.0544623
0.0544892
0.05451631
0.05454363
0.05457116
0.05459891
0.05462687
0.05465506
0.05468349
0.05471215
0.05474104
0.05477017
0.05479952
0.05482909
0.05485885
0.05488878
0.05491886
0.05494905
0.05497931
0.05500961
0.05503989
0.05507011
0.05510022
0.05513014
0.05515995
0.05518969
0.05521935
0.05524888
0.05527827
0.05530748
0.0553365
0.05536532
0.05539392
0.05542232
0.05545051
0.05547853
0.0555064
0.05553417
0.05556188
0.05558961
0.05561743
0.05564545
0.05567379
0.05570259
0.05573203
0.05576232
0.05579371
0.05582652
0.05586116
0.05589812
0.05593806
0.0559818
0.0560304
0.05608528
0.05614817
0.05622159
0.05630856
0.05640935
0.05650303
0.05316734
0.06243716
0.07106626
0.1156349
0.1530477
0.1982753
0.2211951
0.2406889
0.2539523
0.2625442
0.2698142
0.2744603
0.275165
0.2737222
0.2703173
0.2657036
0.260281
0.2542861
0.2479135
0.2412734
0.234429
0.227639
0.2210224
0.2146039
0.2084755
0.2026252
0.1969893
0.1915341
0.1862661
0.1811722
0.1762017
0.1763228
0.1720237
0.16774
0.1635187
0.1593814
0.1553408
0.1514006
0.1475641
0.1438281
0.1401769
0.1366097
0.133131
0.1297256
0.1263875
0.1231156
0.1199094
0.116771
0.1137006
0.1106947
0.1077542
0.1048905
0.1021005
0.09938192
0.09673626
0.0941646
0.09166897
0.08925009
0.08690821
0.08464991
0.08247397
0.08037605
0.07835814
0.07642221
0.07456681
0.07279379
0.07109457
0.06947381
0.06789707
0.0664017
0.06498814
0.06365416
0.06239715
0.06121605
0.06011064
0.05908057
0.05812595
0.0572463
0.05644265
0.05571559
0.05506417
0.05448821
0.05398749
0.0535607
0.05320542
0.05291822
0.05269448
0.05252879
0.05241512
0.05234691
0.05231757
0.05232006
0.05234683
0.05239022
0.05244297
0.05249831
0.05255025
0.05259386
0.05262464
0.05263914
0.05263519
0.05261202
0.05257043
0.05251215
0.05243978
0.05235614
0.05226291
0.05216393
0.05206308
0.05196477
0.05187295
0.05179081
0.05172083
0.05166505
0.05162498
0.05160181
0.05159624
0.05160857
0.05163893
0.05168716
0.05175286
0.05183507
0.05193275
0.05204321
0.05216371
0.05228648
0.05240672
0.05253122
0.05266098
0.0527835
0.05289462
0.05299567
0.05309004
0.05318035
0.05326805
0.05335404
0.05343904
0.05352367
0.05360853
0.05369423
0.05378156
0.05387147
0.05396525
0.05406448
0.05417127
0.05428591
0.0544068
0.05453307
0.05465996
0.05477553
0.05487044
0.05494118
0.05498892
0.05501518
0.055038
0.05507032
0.0551157
0.05517025
0.0552306
0.05529466
0.05536108
0.05542876
0.05549687
0.05556486
0.05563234
0.05569912
0.05576506
0.05583015
0.0558944
0.05595788
0.05602068
0.05608291
0.05614466
0.05620605
0.05626717
0.0563281
0.05638894
0.05644976
0.05651063
0.05657163
0.05663284
0.05669431
0.05675612
0.05681833
0.05688101
0.05694423
0.05700804
0.05707249
0.05713765
0.05720355
0.05727019
0.05733759
0.05740574
0.05747458
0.05754409
0.05761419
0.05768483
0.05775595
0.05782751
0.05789946
0.05797181
0.05804459
0.05811785
0.05819156
0.05826548
0.05833914
0.05841241
0.05848529
0.05855775
0.05862969
0.05870099
0.05877139
0.05884067
0.05890852
0.05897459
0.05903857
0.05910015
0.0591591
0.05921526
0.05926857
0.05931903
0.0593667
0.05941166
0.05945408
0.05949415
0.05953209
0.05956815
0.05960255
0.05963551
0.05966724
0.05969791
0.05972764
0.05975652
0.05978465
0.059812
0.0598386
0.05986439
0.05988933
0.05991337
0.05993643
0.05995845
0.05997938
0.05999916
0.06001774
0.06003511
0.06005122
0.06006608
0.06007969
0.06009207
0.06010323
0.06011322
0.06012201
0.06012926
0.06013336
0.06013012
0.06013043
0.06013475
0.0601415
0.06014907
0.0601563
0.06016242
0.06016694
0.06016953
0.06017
0.06016826
0.06016429
0.0601581
0.06014977
0.06013943
0.06012719
0.0601132
0.06009759
0.06008054
0.06006219
0.06004272
0.06002229
0.06000104
0.05997914
0.05995677
0.0599341
0.05991134
0.05988875
0.05986662
0.05984536
0.05982554
0.0598079
0.05979349
0.05978366
0.0597799
0.05978284
0.05979009
0.05980198
0.05981706
0.0598342
0.05985267
0.059872
0.05989187
0.05991209
0.05993254
0.05995313
0.0599738
0.05999448
0.0600152
0.0600359
0.06005659
0.06007726
0.06009794
0.06011862
0.06013932
0.06016006
0.06018085
0.0602017
0.06022264
0.06024365
0.06026475
0.06028592
0.06030719
0.06032851
0.06034985
0.06037119
0.0603925
0.06041381
0.06043533
0.0604572
0.06047402
0.06048877
0.06050292
0.06051703
0.06053117
0.06054518
0.06055889
0.06057221
0.06058514
0.06059773
0.06061011
0.06062241
0.06063479
0.0606474
0.06066037
0.06067379
0.06068775
0.0607023
0.06071746
0.06073324
0.06074964
0.06076662
0.06078417
0.06080223
0.06082079
0.06083981
0.06085925
0.06087909
0.06089931
0.0609199
0.06094086
0.06096218
0.06098387
0.06100594
0.06102838
0.06105122
0.06107444
0.06109804
0.06112201
0.06114632
0.06117091
0.06119574
0.0612207
0.06124569
0.06127056
0.06129513
0.06131928
0.06134302
0.06136646
0.06138969
0.06141277
0.06143574
0.06145858
0.06148131
0.06150373
0.06152571
0.06154732
0.06156858
0.06158947
0.06160996
0.06162998
0.06164952
0.06166855
0.0616871
0.06170521
0.06172295
0.0617404
0.06175764
0.06177476
0.06179183
0.06180892
0.06182608
0.06184336
0.0618608
0.06187843
0.06189628
0.06191439
0.06193277
0.06195145
0.06197046
0.06198983
0.06200957
0.06202971
0.06205029
0.06207131
0.06209281
0.06211481
0.06213731
0.06216033
0.06218388
0.06220796
0.06223257
0.0622577
0.06228334
0.06230948
0.06233609
0.06236314
0.06239061
0.06241846
0.06244665
0.06247514
0.06250388
0.06253282
0.06256192
0.06259113
0.06262039
0.06264967
0.06267891
0.0627081
0.06273718
0.06276615
0.06279498
0.06282365
0.06285218
0.06288056
0.06290882
0.06293699
0.06296511
0.06299324
0.06302144
0.06304982
0.06307847
0.06310753
0.06313716
0.06316753
0.06319888
0.06323147
0.06326563
0.06330178
0.06334039
0.06338208
0.06342759
0.06347782
0.06353385
0.06359692
0.06366837
0.06374896
0.06383627
0.06391404
0.02889901
0.0332085
0.03745452
0.05239088
0.0707262
0.1022979
0.1229045
0.1435248
0.1643131
0.1842564
0.2036278
0.2234125
0.243232
0.261934
0.2796285
0.2978619
0.3251415
0.329408
0.3306167
0.3285062
0.3246156
0.3200597
0.3133808
0.3054177
0.2970671
0.2886333
0.2803487
0.2723314
0.2646524
0.2573357
0.2503683
0.2437333
0.237426
0.2314302
0.2257234
0.2202853
0.2150994
0.2101458
0.2054106
0.2008601
0.196401
0.1919985
0.1873451
0.182965
0.1788085
0.1748201
0.1709769
0.1672674
0.1636773
0.1601902
0.1567894
0.1534602
0.1501922
0.1469722
0.1437892
0.140638
0.137516
0.1344212
0.1313533
0.1283128
0.1253013
0.1223238
0.1193809
0.116477
0.113618
0.1108082
0.1080505
0.1053479
0.1027036
0.1001214
0.09760906
0.09517042
0.09280567
0.09051628
0.0883037
0.08616924
0.08411382
0.08213868
0.08024372
0.07843133
0.07669526
0.0750344
0.07345192
0.07194997
0.07052891
0.06918894
0.06793019
0.06675312
0.06565826
0.06464619
0.06371753
0.06287299
0.06211302
0.06143754
0.06084567
0.06033556
0.05990439
0.05954842
0.05926272
0.05904126
0.05887775
0.05876574
0.05869797
0.05866634
0.05866247
0.05867868
0.0587082
0.05874463
0.05878206
0.05881506
0.05883859
0.05884783
0.05883852
0.05881208
0.05877026
0.05871488
0.05864791
0.05857165
0.05848879
0.05840253
0.05831647
0.05823398
0.05815803
0.05809115
0.05803554
0.05799297
0.05796483
0.05795218
0.05795565
0.05797555
0.0580118
0.058064
0.0581314
0.05821308
0.05830697
0.0584108
0.0585232
0.05863987
0.05875511
0.05886821
0.05897716
0.05907994
0.0591769
0.05926989
0.05936063
0.05945022
0.05953935
0.05962859
0.05971843
0.05980936
0.05990186
0.05999652
0.06009408
0.06019538
0.06030129
0.06041246
0.0605287
0.0606486
0.06077023
0.0608899
0.06100093
0.06109743
0.0611768
0.06124002
0.06128963
0.0613352
0.06138411
0.06143978
0.06150146
0.06156741
0.06163637
0.06170743
0.06177985
0.061853
0.06192644
0.06199988
0.06207315
0.06214614
0.06221883
0.06229123
0.06236337
0.06243533
0.06250717
0.06257896
0.06265077
0.06272264
0.06279462
0.06286676
0.06293907
0.0630116
0.06308436
0.06315739
0.06323071
0.06330436
0.06337838
0.0634528
0.06352768
0.06360305
0.06367898
0.06375551
0.06383268
0.0639105
0.06398901
0.06406819
0.06414802
0.06422848
0.06430953
0.06439111
0.06447319
0.06455571
0.06463866
0.06472199
0.06480571
0.06488979
0.06497417
0.06505865
0.06514294
0.06522684
0.06531027
0.06539315
0.0654754
0.06555692
0.06563755
0.06571712
0.06579553
0.06587245
0.06594772
0.06602108
0.0660923
0.06616127
0.06622787
0.06629203
0.06635375
0.06641304
0.06647
0.06652473
0.06657739
0.06662814
0.06667714
0.06672458
0.06677062
0.06681537
0.06685897
0.06690147
0.06694294
0.06698339
0.0670228
0.06706115
0.06709839
0.06713446
0.0671693
0.06720285
0.06723505
0.06726585
0.0672952
0.06732308
0.06734947
0.06737435
0.06739773
0.06741962
0.06744006
0.06745906
0.06747666
0.06749277
0.06750705
0.06751898
0.06752929
0.06753872
0.06754768
0.06755626
0.06756433
0.06757172
0.06757822
0.06758368
0.06758793
0.06759086
0.06759239
0.06759245
0.067591
0.06758802
0.06758357
0.06757766
0.06757034
0.06756169
0.06755178
0.06754073
0.06752862
0.06751558
0.06750175
0.06748725
0.06747229
0.06745707
0.06744181
0.06742684
0.06741254
0.06739941
0.06738809
0.06737936
0.06737413
0.06737318
0.06737669
0.06738317
0.06739264
0.0674042
0.06741708
0.06743076
0.06744495
0.06745943
0.06747407
0.06748878
0.06750348
0.06751815
0.06753275
0.06754729
0.06756177
0.06757625
0.06759073
0.06760523
0.06761979
0.06763445
0.06764924
0.06766419
0.06767933
0.06769468
0.06771024
0.06772602
0.06774208
0.06775836
0.06777486
0.06779155
0.0678084
0.06782538
0.06784245
0.06785963
0.06787681
0.06789338
0.06790934
0.0679249
0.06794019
0.06795525
0.06797005
0.0679845
0.06799855
0.06801215
0.0680253
0.068038
0.06805029
0.06806225
0.06807393
0.06808543
0.06809683
0.06810819
0.0681196
0.06813112
0.06814279
0.06815467
0.06816678
0.06817915
0.06819181
0.06820477
0.06821805
0.06823167
0.06824564
0.06825998
0.06827471
0.06828986
0.06830545
0.0683215
0.06833804
0.0683551
0.06837269
0.06839082
0.0684095
0.06842872
0.06844846
0.06846868
0.06848934
0.06851037
0.06853169
0.06855319
0.06857478
0.06859637
0.06861795
0.06863955
0.06866122
0.06868296
0.06870479
0.06872668
0.06874863
0.06877056
0.06879238
0.06881411
0.06883576
0.0688573
0.06887871
0.0688999
0.06892079
0.06894133
0.06896143
0.06898106
0.06900019
0.0690188
0.06903691
0.06905453
0.06907172
0.06908852
0.06910498
0.06912117
0.06913714
0.06915298
0.06916874
0.0691845
0.06920033
0.0692163
0.06923249
0.06924894
0.06926574
0.06928293
0.06930058
0.06931873
0.06933744
0.06935674
0.06937666
0.06939723
0.06941848
0.06944042
0.06946306
0.0694864
0.06951044
0.06953516
0.06956056
0.06958661
0.06961328
0.06964054
0.06966838
0.06969674
0.06972559
0.06975491
0.06978465
0.06981469
0.06984489
0.06987517
0.06990549
0.06993582
0.06996611
0.06999634
0.07002648
0.07005653
0.07008647
0.07011633
0.07014612
0.07017586
0.07020562
0.07023546
0.07026545
0.07029569
0.0703263
0.07035743
0.07038925
0.07042197
0.07045582
0.0704911
0.07052815
0.0705674
0.07060933
0.07065454
0.07070373
0.0707577
0.07081738
0.07088369
0.07095747
0.07103877
0.07112458
0.07120029
0.01339016
0.01560894
0.01744417
0.02686138
0.03749014
0.05160635
0.06254792
0.07469311
0.087536
0.1010224
0.1153726
0.1321577
0.1500389
0.1693639
0.1918215
0.2270989
0.2443519
0.2617925
0.2787102
0.2950903
0.3107433
0.3253586
0.3381862
0.3485778
0.3554403
0.3580027
0.3556484
0.3509201
0.3433447
0.3319065
0.3191806
0.3066035
0.2939928
0.2815752
0.2697725
0.2588018
0.2487338
0.2395755
0.2312952
0.2238376
0.217117
0.211058
0.2056024
0.2006836
0.1962386
0.1922056
0.1885293
0.1851848
0.1821323
0.1793198
0.1766468
0.1740293
0.171452
0.1689631
0.1665761
0.1642718
0.1620359
0.1598594
0.1577313
0.1556374
0.1535626
0.1514926
0.1494127
0.1473094
0.145171
0.1429884
0.1407517
0.1384635
0.1361305
0.1337577
0.1313481
0.1289014
0.1264256
0.12393
0.1214237
0.1189143
0.1164087
0.1139133
0.1114346
0.1089774
0.1065453
0.1041455
0.1017857
0.09947158
0.09720812
0.09500009
0.09285175
0.09077027
0.08876154
0.08682513
0.08495891
0.08316347
0.08144218
0.07979759
0.0782309
0.07674301
0.075335
0.07400817
0.07276381
0.07160337
0.07052852
0.06954089
0.06864167
0.06783148
0.0671103
0.06647727
0.06593059
0.06546737
0.06508344
0.06477347
0.06453165
0.06435206
0.06422786
0.06415071
0.06411007
0.06409681
0.06410649
0.06413331
0.06417105
0.06421373
0.06425589
0.06429295
0.06432129
0.06433827
0.06434233
0.06433303
0.06431086
0.0642772
0.06423419
0.06418457
0.06413148
0.0640781
0.06402749
0.06398242
0.06394539
0.06391852
0.06390356
0.06390184
0.06391432
0.0639417
0.06398415
0.06404124
0.06411255
0.06419951
0.06429952
0.06440903
0.06452095
0.06463242
0.06474325
0.06485335
0.06496159
0.06506682
0.06516904
0.06526915
0.06536823
0.06546706
0.06556619
0.06566607
0.0657671
0.06586964
0.0659741
0.06608095
0.06619073
0.06630409
0.06642144
0.06654249
0.06666668
0.06679275
0.06691877
0.06704191
0.06715805
0.06726341
0.06735611
0.06743665
0.06750716
0.0675729
0.06763888
0.06770775
0.06777988
0.06785469
0.06793154
0.06800989
0.06808925
0.0681692
0.06824943
0.06832971
0.06840994
0.06849006
0.06857008
0.06865004
0.06873001
0.06881007
0.0688903
0.06897078
0.06905158
0.06913275
0.06921435
0.06929639
0.06937891
0.0694619
0.06954539
0.06962937
0.06971386
0.06979887
0.06988441
0.06997052
0.07005722
0.07014455
0.07023256
0.07032128
0.07041075
0.070501
0.07059203
0.07068386
0.07077648
0.07086984
0.07096394
0.07105871
0.07115412
0.07125012
0.07134667
0.07144374
0.07154127
0.07163922
0.0717375
0.07183595
0.07193435
0.0720325
0.07213027
0.07222752
0.07232415
0.07242
0.07251496
0.07260884
0.07270146
0.07279277
0.07288245
0.07297035
0.07305629
0.07314016
0.07322185
0.0733013
0.07337848
0.07345343
0.07352619
0.07359685
0.07366554
0.07373239
0.07379753
0.07386112
0.07392328
0.07398412
0.07404373
0.07410215
0.07415942
0.07421553
0.07427045
0.07432412
0.07437648
0.07442746
0.07447698
0.07452495
0.07457129
0.07461596
0.07465887
0.07470001
0.07473932
0.0747768
0.07481243
0.07484623
0.0748782
0.07490839
0.0749368
0.07496346
0.07498827
0.07501113
0.07503192
0.07505075
0.07506789
0.07508354
0.07509783
0.07511083
0.07512254
0.07513296
0.07514208
0.07514988
0.07515632
0.07516138
0.07516506
0.07516733
0.07516823
0.07516775
0.07516595
0.07516285
0.07515853
0.07515305
0.0751465
0.07513897
0.07513058
0.07512147
0.07511181
0.0751018
0.07509168
0.07508174
0.07507237
0.075064
0.07505718
0.07505252
0.07505064
0.075052
0.07505656
0.0750634
0.07507184
0.07508188
0.07509282
0.07510435
0.07511623
0.07512833
0.07514052
0.0751527
0.07516482
0.07517683
0.07518872
0.07520047
0.07521211
0.07522364
0.07523516
0.07524666
0.07525821
0.07526984
0.07528162
0.07529357
0.07530574
0.07531817
0.07533086
0.07534386
0.07535719
0.07537083
0.07538478
0.07539901
0.07541351
0.07542823
0.07544315
0.07545823
0.0754734
0.07548851
0.07550351
0.07551838
0.07553317
0.07554787
0.07556245
0.07557687
0.07559107
0.07560501
0.07561866
0.07563198
0.07564498
0.07565765
0.07567002
0.07568211
0.07569396
0.07570562
0.07571711
0.07572849
0.07573981
0.0757511
0.07576241
0.07577376
0.07578522
0.0757968
0.07580854
0.07582049
0.07583269
0.07584517
0.07585797
0.07587115
0.07588475
0.07589881
0.07591337
0.07592848
0.07594417
0.07596047
0.07597738
0.07599493
0.0760131
0.07603188
0.07605122
0.07607107
0.07609138
0.07611208
0.07613308
0.07615435
0.07617584
0.07619757
0.07621954
0.07624174
0.07626417
0.0762868
0.0763096
0.07633252
0.07635552
0.07637857
0.07640166
0.07642478
0.07644787
0.07647087
0.07649371
0.07651631
0.07653858
0.07656045
0.07658185
0.07660273
0.07662306
0.07664281
0.07666199
0.07668061
0.0766987
0.0767163
0.07673348
0.07675029
0.07676681
0.07678313
0.07679932
0.07681548
0.07683169
0.07684803
0.07686461
0.07688149
0.07689876
0.07691648
0.07693472
0.07695354
0.07697299
0.07699311
0.07701393
0.07703548
0.07705777
0.07708081
0.0771046
0.07712912
0.07715437
0.07718032
0.07720693
0.07723416
0.07726197
0.0772903
0.07731911
0.07734832
0.07737787
0.0774077
0.07743775
0.07746795
0.07749827
0.07752865
0.07755906
0.07758946
0.07761984
0.07765017
0.07768046
0.07771071
0.07774094
0.0777712
0.07780151
0.07783196
0.07786263
0.07789363
0.07792507
0.07795711
0.07798992
0.07802373
0.07805877
0.07809534
0.07813378
0.0781745
0.07821796
0.07826471
0.07831536
0.0783706
0.07843117
0.07849777
0.07857093
0.07865046
0.07873334
0.07880607
0.004156011
0.01479276
0.02209711
0.03017217