/*--------------------------------*- C++ -*----------------------------------*\
| =========                 |                                                 |
| \\      /  F ield         | foam-extend: Open Source CFD                    |
|  \\    /   O peration     | Version:     3.1                                |
|   \\  /    A nd           | Web:         http://www.extend-project.de       |
|    \\/     M anipulation  |                                                 |
\*---------------------------------------------------------------------------*/
FoamFile
{
    version     2.0;
    format      ascii;
    class       volScalarField;
    location    "2.5";
    object      p;
}
// * * * * * * * * * * * * * * * * * * * * * * * * * * * * * * * * * * * * * //

dimensions      [1 -1 -2 0 0 0 0];

internalField   nonuniform List<scalar> 
119952
(
9044.09
8791.253
8734.59
8757.97
8785.263
8741.32
8718.955
8698.905
8681.672
8664.863
8648.75
8633.072
8617.687
8602.482
8587.329
8572.195
8556.804
8540.555
8521.718
8491.064
8543.235
8489.122
8460.336
8530.822
8500.664
8497.851
8488.569
8496.998
8557.422
7197.507
8846.944
8838.08
8835.068
8831.379
8828.581
8824.764
8820.904
8816.989
8813.468
8804.122
8781.577
8775.711
8767.127
8758.471
8749.779
8741.09
8732.352
8723.301
8714.159
8679.629
8666.632
8654.113
8644.528
8634.844
8625.178
8615.733
8606.309
8596.752
8587.461
8575.861
8566.684
8557.808
8548.566
8539.462
8530.471
8521.633
8514.187
8515.192
8530.421
8496.323
8479.398
8480.318
8473.577
8457.484
8438.677
8421.535
8405.314
8389.612
8374.389
8359.509
8344.865
8330.383
8315.984
8301.558
8286.974
8272.078
8256.994
8242.707
8233.494
8222.814
8208.72
8211.872
8220.733
8211.539
8203.071
8194.414
8172.636
8115.391
8096.672
8091.24
8081.384
8071.871
8061.637
8051.014
8040.236
8029.341
8018.387
8007.401
7996.408
7985.421
7974.451
7963.5
7952.571
7941.666
7930.782
7919.917
7909.069
7898.231
7887.401
7876.572
7865.737
7854.891
7844.027
7833.137
7822.214
7811.252
7800.244
7789.181
7778.057
7766.865
7755.598
7744.249
7732.813
7721.283
7709.653
7697.92
7686.078
7674.122
7662.049
7649.853
7637.532
7625.081
7612.494
7599.761
7586.859
7573.782
7560.742
7548.051
7535.412
7521.909
7508.456
7494.889
7481.232
7467.487
7453.658
7439.747
7425.769
7411.73
7397.632
7383.487
7369.304
7355.09
7340.855
7326.608
7312.36
7298.12
7283.897
7269.702
7255.545
7241.435
7227.383
7213.397
7199.489
7185.666
7171.94
7158.319
7144.812
7131.429
7118.178
7105.066
7092.103
7079.295
7066.651
7054.176
7041.878
7029.763
7017.836
7006.103
6994.568
6983.236
6972.109
6961.192
6950.484
6939.98
6929.658
6919.484
6909.52
6932.713
6923.197
6914.2
6905.358
6896.755
6888.381
6880.236
6872.33
6864.657
6857.214
6850.001
6843.016
6836.26
6829.729
6823.422
6817.335
6811.466
6805.811
6800.368
6795.132
6790.099
6785.264
6780.622
6776.168
6771.895
6767.795
6763.86
6760.078
6756.437
6752.917
6749.488
6746.108
6742.697
6739.066
6734.795
6729.708
6730.287
6730.02
6729.505
6728.835
6728.163
6727.522
6726.939
6726.423
6725.983
6725.622
6725.342
6725.144
6725.027
6724.992
6725.037
6725.16
6725.359
6725.632
6725.977
6726.392
6726.873
6727.419
6728.028
6728.697
6729.423
6730.205
6731.039
6731.926
6732.862
6733.846
6734.88
6735.971
6737.053
6738.195
6713.881
6712.025
6711.366
6712.513
6713.535
6714.695
6715.952
6717.222
6718.547
6719.904
6721.28
6722.671
6724.075
6725.49
6726.914
6728.346
6729.786
6731.231
6732.681
6734.136
6735.593
6737.053
6738.514
6739.975
6741.437
6742.897
6744.356
6745.813
6747.267
6748.718
6750.165
6751.609
6753.048
6754.484
6755.916
6757.345
6758.771
6760.196
6761.621
6763.05
6764.487
6765.942
6767.43
6768.978
6770.594
6772.099
6773.176
6774.09
6775.114
6776.167
6777.241
6778.337
6779.438
6780.407
6779.819
6781.599
6782.973
6783.972
6784.959
6785.937
6786.915
6787.882
6788.843
6789.796
6790.734
6791.659
6792.567
6793.46
6794.337
6795.197
6796.042
6796.87
6797.682
6798.479
6799.259
6800.023
6800.771
6801.503
6802.219
6802.918
6803.601
6804.268
6804.918
6805.552
6806.169
6806.769
6807.352
6807.918
6808.467
6808.998
6809.512
6810.008
6810.486
6810.946
6811.387
6811.809
6812.213
6812.597
6812.961
6813.305
6813.629
6813.932
6814.214
6814.473
6814.71
6814.924
6815.114
6815.28
6815.421
6815.535
6815.622
6815.682
6815.712
6815.712
6815.681
6815.615
6815.515
6815.377
6815.2
6814.981
6814.716
6814.401
6814.033
6813.605
6813.111
6812.542
6811.887
6811.132
6810.257
6809.235
6808.028
6806.582
6804.797
6802.515
6799.469
6795.303
6790.467
6791.279
6815.057
8596.848
8604.4
8612.153
8620.163
8627.955
8636.075
8644.579
8652.747
8660.19
8642.054
8652.73
8656.155
8659.581
8662.516
8665.096
8667.323
8669.314
8670.577
8645.883
8647.229
8642.252
8640.575
8639.453
8637.861
8636.014
8633.909
8631.323
8628.555
8624.614
8619.134
8615.614
8611.261
8606.527
8601.596
8596.405
8590.994
8585.633
8580.772
8571.395
8564.48
8558.4
8551.884
8545.089
8538.079
8530.853
8523.455
8515.595
8507.069
8499.404
8491.082
8482.326
8473.526
8464.719
8455.851
8446.972
8438.196
8364.303
8355.342
8346.192
8336.452
8326.671
8317.028
8307.47
8297.901
8288.276
8278.722
8269.428
8259.932
8250.356
8240.994
8231.99
8223.467
8215.78
8209.249
8203.672
8197.226
8186.009
8173.06
8162.499
8152.113
8139.286
8124.115
8108.359
8092.992
8078.054
8063.374
8048.874
8034.53
8020.318
8006.202
7992.153
7978.18
7964.396
7951.07
7938.678
7927.693
7918.047
7909.787
7903.97
7899.432
7891.701
7880.194
7864.695
7845.245
7821.122
7800.339
7786.92
7776.014
7765.188
7754.108
7742.98
7731.897
7720.833
7709.768
7698.708
7687.665
7676.646
7665.656
7654.694
7643.761
7632.855
7621.974
7611.115
7600.273
7589.444
7578.622
7567.801
7556.976
7546.139
7535.282
7524.4
7513.485
7502.529
7491.525
7480.466
7469.345
7458.154
7446.886
7435.536
7424.096
7412.561
7400.926
7389.185
7377.333
7365.366
7353.281
7341.073
7328.739
7316.278
7303.686
7290.965
7278.127
7265.2
7252.225
7239.221
7226.12
7212.835
7199.394
7185.827
7172.158
7158.398
7144.552
7130.625
7116.626
7102.563
7088.446
7074.283
7060.083
7045.853
7031.604
7017.345
7003.085
6988.835
6974.605
6960.404
6946.242
6932.129
6918.076
6904.092
6890.186
6876.369
6862.649
6849.037
6835.542
6822.171
6808.934
6795.839
6782.895
6770.108
6757.485
6745.035
6732.763
6720.675
6708.778
6697.076
6685.575
6674.278
6663.189
6652.311
6641.65
6631.208
6621.007
6611.09
6601.459
6655.761
6646.584
6637.431
6628.588
6619.983
6611.613
6603.479
6595.58
6587.915
6580.483
6573.283
6566.312
6559.569
6553.052
6546.758
6540.685
6534.83
6529.189
6523.76
6518.537
6513.516
6508.694
6504.065
6499.622
6495.36
6491.272
6487.347
6483.576
6479.946
6476.439
6473.032
6469.69
6466.369
6463.032
6459.752
6456.941
6455.576
6454.735
6453.906
6453.119
6452.374
6451.689
6451.072
6450.532
6450.073
6449.697
6449.406
6449.199
6449.076
6449.035
6449.076
6449.196
6449.394
6449.666
6450.01
6450.425
6450.907
6451.453
6452.063
6452.732
6453.459
6454.242
6455.078
6455.965
6456.902
6457.888
6458.924
6460.012
6461.168
6462.488
6402.868
6404.203
6404.992
6405.839
6406.941
6408.179
6409.461
6410.768
6412.099
6413.454
6414.829
6416.22
6417.623
6419.038
6420.463
6421.896
6423.335
6424.781
6426.232
6427.686
6429.144
6430.604
6432.065
6433.526
6434.987
6436.448
6437.906
6439.362
6440.816
6442.267
6443.714
6445.157
6446.596
6448.031
6449.462
6450.89
6452.315
6453.738
6455.16
6456.584
6458.012
6459.448
6460.892
6462.336
6463.749
6465.073
6466.255
6467.347
6468.432
6469.526
6470.627
6471.735
6472.854
6473.944
6474.793
6475.605
6476.574
6477.566
6478.53
6479.484
6480.441
6481.397
6482.348
6483.29
6484.22
6485.137
6486.04
6486.927
6487.798
6488.654
6489.493
6490.317
6491.125
6491.917
6492.694
6493.454
6494.198
6494.927
6495.639
6496.335
6497.015
6497.679
6498.326
6498.956
6499.57
6500.168
6500.748
6501.311
6501.857
6502.386
6502.897
6503.39
6503.865
6504.322
6504.76
6505.179
6505.58
6505.961
6506.322
6506.663
6506.983
6507.282
6507.56
6507.816
6508.049
6508.259
6508.445
6508.606
6508.742
6508.852
6508.935
6508.989
6509.014
6509.009
6508.971
6508.9
6508.794
6508.65
6508.466
6508.24
6507.968
6507.646
6507.27
6506.836
6506.336
6505.762
6505.105
6504.352
6503.488
6502.492
6501.338
6499.994
6498.429
6496.622
6494.69
6492.942
6492.399
6493.439
6496.899
8603.883
8784.295
8933.254
9047.593
9128.015
9177.338
9199.647
9199.657
9181.447
9146.92
9082.882
9033.386
8978.834
8923.234
8867.558
8812.959
8760.313
8710.154
8665.368
8584.917
8544.647
8506.574
8474.038
8445.151
8420.039
8398.583
8380.528
8365.626
8355.226
8342.576
8335.024
8330.432
8327.305
8325.835
8325.683
8326.966
8329.502
8333.372
8334.553
8337.08
8342.682
8347.682
8352.793
8357.844
8362.828
8367.683
8372.147
8375.515
8380.138
8383.801
8386.701
8389.28
8391.6
8393.675
8395.333
8397.055
8336.331
8336.623
8336.168
8335.193
8333.804
8332.093
8330.078
8327.692
8324.912
8321.684
8318.108
8314.227
8309.78
8304.957
8299.953
8294.788
8289.423
8283.841
8277.973
8271.832
8265.438
8258.587
8251.565
8244.538
8237.448
8230.205
8222.772
8215.115
8207.237
8199.213
8190.927
8182.432
8173.834
8165.146
8156.355
8147.467
8138.441
8129.367
8120.128
8110.748
8101.107
8091.331
8081.709
8072.208
8062.743
8053.255
8043.769
8034.267
8024.739
8015.244
8005.853
7996.635
7987.655
7979.012
7970.698
7962.761
7954.95
7947.157
7937.067
7925.075
7913.562
7902.24
7889.601
7875.492
7860.788
7846.152
7831.723
7817.435
7803.256
7789.191
7775.247
7761.423
7747.729
7734.215
7720.978
7708.19
7696.073
7684.919
7674.762
7665.392
7657.16
7649.379
7639.901
7627.735
7613.142
7596.391
7577.465
7559.317
7545.375
7533.466
7521.913
7510.392
7498.965
7487.665
7476.449
7465.28
7454.147
7443.053
7432
7420.986
7410.009
7399.068
7388.159
7377.28
7366.425
7355.592
7344.773
7333.964
7323.159
7312.35
7301.531
7290.695
7279.834
7268.941
7258.009
7247.029
7235.994
7224.898
7213.732
7202.49
7191.165
7179.75
7168.24
7156.628
7144.911
7133.082
7121.138
7109.075
7096.89
7084.58
7072.144
7059.583
7046.901
7034.105
7021.206
7008.222
6995.168
6982.023
6968.729
6955.284
6941.72
6928.054
6914.291
6900.439
6886.505
6872.496
6858.422
6844.291
6830.111
6815.893
6801.645
6787.376
6773.095
6758.814
6744.541
6730.286
6716.06
6701.872
6687.733
6673.653
6659.641
6645.707
6631.862
6618.113
6604.472
6590.947
6577.546
6564.28
6551.155
6538.18
6525.364
6512.712
6500.232
6487.931
6475.815
6463.89
6452.161
6440.633
6429.311
6418.199
6407.3
6396.621
6386.165
6375.939
6365.927
6356.103
6346.414
6337.312
6328.363
6319.583
6311.031
6302.716
6294.636
6286.788
6279.173
6271.791
6264.64
6257.719
6251.025
6244.557
6238.313
6232.29
6226.484
6220.892
6215.511
6210.336
6205.364
6200.59
6196.009
6191.615
6187.401
6183.363
6179.49
6175.775
6172.209
6168.778
6165.473
6162.284
6159.216
6156.304
6153.65
6151.425
6149.751
6148.493
6147.439
6146.503
6145.667
6144.925
6144.277
6143.719
6143.253
6142.877
6142.59
6142.391
6142.279
6142.251
6142.305
6142.439
6142.651
6142.938
6143.298
6143.728
6144.224
6144.786
6145.41
6146.093
6146.834
6147.629
6148.477
6149.376
6150.323
6151.317
6152.357
6153.443
6154.565
6155.738
6156.802
6157.708
6158.751
6159.962
6161.252
6162.564
6163.884
6165.215
6166.563
6167.93
6169.311
6170.706
6172.112
6173.529
6174.955
6176.389
6177.83
6179.276
6180.728
6182.183
6183.641
6185.101
6186.562
6188.023
6189.484
6190.945
6192.403
6193.86
6195.313
6196.764
6198.21
6199.653
6201.092
6202.527
6203.957
6205.383
6206.805
6208.225
6209.641
6211.055
6212.468
6213.878
6215.281
6216.669
6218.022
6219.319
6220.532
6221.676
6222.794
6223.909
6225.019
6226.122
6227.205
6228.267
6229.333
6230.314
6231.244
6232.166
6233.092
6234.028
6234.972
6235.919
6236.863
6237.799
6238.726
6239.641
6240.543
6241.43
6242.302
6243.158
6243.999
6244.825
6245.634
6246.428
6247.206
6247.968
6248.714
6249.444
6250.159
6250.857
6251.539
6252.204
6252.854
6253.486
6254.102
6254.702
6255.284
6255.85
6256.398
6256.929
6257.442
6257.937
6258.415
6258.874
6259.314
6259.736
6260.139
6260.522
6260.885
6261.229
6261.551
6261.853
6262.134
6262.392
6262.628
6262.84
6263.029
6263.193
6263.332
6263.445
6263.531
6263.588
6263.617
6263.615
6263.581
6263.514
6263.412
6263.273
6263.095
6262.875
6262.61
6262.297
6261.932
6261.51
6261.026
6260.474
6259.846
6259.133
6258.326
6257.413
6256.384
6255.235
6253.977
6252.654
6251.391
6250.382
6249.935
6250.423
6251.721
6002.649
6102.068
6217.352
6353.535
6522.224
6702.299
6919.929
7151.461
7390.898
7624.549
7854.679
8079.041
8278.875
8453.798
8597.263
8706.617
8782.559
8828.064
8847.292
8845.083
8826.128
8795.245
8755.529
8709.15
8658.698
8606.625
8554.265
8502.854
8453.369
8406.844
8365.489
8243.775
8208.321
8176.952
8147.173
8120.295
8097.162
8077.679
8061.482
8048.194
8037.502
8029.513
8023.523
8019.336
8017.017
8016.444
8017.317
8019.366
8022.329
8025.947
8030.149
8034.33
8038.759
8043.623
8048.752
8053.897
8058.897
8063.673
8068.176
8072.429
8076.273
8079.677
8082.721
8085.419
8087.716
8089.615
8090.997
8092.158
8093.546
8093.8
8092.832
8091.485
8090.052
8088.405
8086.407
8084.014
8081.202
8078.003
8074.372
8070.282
8065.838
8061.112
8056.133
8050.915
8045.45
8039.724
8033.759
8027.567
8021.014
8014.129
8007.129
8000.081
7992.922
7985.596
7978.076
7970.373
7962.473
7954.363
7946.092
7937.685
7929.14
7920.465
7911.674
7902.78
7893.783
7884.707
7875.446
7865.979
7856.415
7846.845
7837.328
7827.831
7818.32
7808.781
7799.226
7789.648
7780.081
7770.577
7761.15
7751.82
7742.624
7733.603
7724.735
7716.02
7707.255
7698.181
7687.924
7676.526
7664.903
7653.168
7640.664
7627.248
7613.314
7599.261
7585.252
7571.306
7557.428
7543.639
7529.958
7516.405
7503.006
7489.81
7476.89
7464.362
7452.355
7441.003
7430.319
7420.171
7410.459
7400.751
7390.026
7377.69
7363.768
7348.503
7332.157
7316.471
7302.704
7290.095
7278.031
7266.22
7254.596
7243.136
7231.794
7220.534
7209.34
7198.204
7187.123
7176.091
7165.106
7154.162
7143.257
7132.385
7121.543
7110.724
7099.924
7089.135
7078.352
7067.567
7056.774
7045.964
7035.131
7024.266
7013.363
7002.412
6991.407
6980.339
6969.202
6957.988
6946.69
6935.302
6923.817
6912.231
6900.536
6888.73
6876.807
6864.764
6852.598
6840.307
6827.891
6815.35
6802.687
6789.908
6777.018
6764.029
6750.943
6737.751
6724.427
6710.971
6697.399
6683.72
6669.943
6656.074
6642.121
6628.092
6613.996
6599.841
6585.636
6571.391
6557.114
6542.815
6528.504
6514.191
6499.885
6485.597
6471.337
6457.115
6442.942
6428.826
6414.779
6400.811
6386.93
6373.147
6359.471
6345.911
6332.477
6319.177
6306.019
6293.012
6280.164
6267.481
6254.972
6242.642
6230.498
6218.546
6206.791
6195.239
6183.894
6172.761
6161.844
6151.147
6140.674
6130.427
6120.402
6110.61
6101.069
6091.876
6082.892
6074.099
6065.531
6057.2
6049.104
6041.241
6033.611
6026.215
6019.05
6012.116
6005.411
5998.933
5992.679
5986.646
5980.832
5975.233
5969.845
5964.666
5959.69
5954.913
5950.33
5945.937
5941.727
5937.695
5933.834
5930.138
5926.6
5923.215
5919.979
5916.894
5913.977
5911.259
5908.798
5906.672
5904.941
5903.534
5902.341
5901.296
5900.375
5899.569
5898.872
5898.277
5897.782
5897.383
5897.079
5896.866
5896.742
5896.705
5896.753
5896.882
5897.09
5897.373
5897.731
5898.158
5898.654
5899.215
5899.838
5900.521
5901.262
5902.057
5902.904
5903.802
5904.747
5905.737
5906.769
5907.838
5908.933
5910.051
5911.151
5912.245
5913.399
5914.608
5915.855
5917.132
5918.433
5919.757
5921.103
5922.467
5923.848
5925.243
5926.65
5928.069
5929.497
5930.933
5932.376
5933.825
5935.279
5936.736
5938.197
5939.659
5941.122
5942.586
5944.049
5945.511
5946.972
5948.43
5949.885
5951.336
5952.784
5954.228
5955.667
5957.101
5958.531
5959.955
5961.375
5962.79
5964.199
5965.604
5967.001
5968.39
5969.766
5971.121
5972.444
5973.723
5974.946
5976.119
5977.265
5978.396
5979.514
5980.619
5981.706
5982.78
5983.836
5984.828
5985.778
5986.724
5987.675
5988.629
5989.582
5990.533
5991.477
5992.413
5993.339
5994.252
5995.153
5996.039
5996.911
5997.768
5998.61
5999.436
6000.247
6001.042
6001.822
6002.586
6003.334
6004.065
6004.782
6005.481
6006.165
6006.833
6007.484
6008.119
6008.737
6009.338
6009.923
6010.491
6011.041
6011.574
6012.089
6012.587
6013.067
6013.528
6013.971
6014.395
6014.8
6015.186
6015.552
6015.898
6016.223
6016.528
6016.811
6017.072
6017.311
6017.526
6017.718
6017.886
6018.029
6018.146
6018.236
6018.298
6018.332
6018.336
6018.308
6018.247
6018.153
6018.022
6017.852
6017.643
6017.39
6017.092
6016.744
6016.344
6015.887
6015.368
6014.782
6014.125
6013.392
6012.581
6011.692
6010.735
6009.737
6008.746
6007.85
6007.163
6006.832
6006.965
6007.441
5786.736
5764.223
5744.581
5702.745
5673.636
5619.143
5604.665
5599.269
5605.979
5627.004
5665.373
5720.305
5800.529
5905.157
6034.61
6191.368
6349.675
6563.836
6796.133
7037.727
7282.917
7526.247
7758.599
7964.163
8137.687
8276.567
8380.088
8450.156
8490.472
8505.54
8500.018
8478.542
8445.632
8404.695
8358.199
8308.224
8256.81
8205.647
8155.819
8108.188
8063.032
8020.456
7979.918
7944.376
7913.376
7885.145
7859.899
7838.154
7819.913
7804.852
7792.683
7783.192
7776.043
7770.918
7767.775
7766.479
7766.793
7768.457
7771.234
7774.903
7779.151
7783.778
7788.565
7793.676
7799.092
7804.624
7810.09
7815.374
7820.416
7825.142
7829.577
7833.519
7837.115
7840.299
7843.052
7845.383
7847.289
7848.837
7849.974
7850.665
7850.63
7849.889
7848.762
7847.386
7845.702
7843.624
7841.129
7838.22
7834.908
7831.175
7827.052
7822.604
7817.852
7812.808
7807.491
7801.915
7796.088
7790.021
7783.698
7777.092
7770.257
7763.271
7756.162
7748.909
7741.496
7733.906
7726.136
7718.179
7710.044
7701.76
7693.332
7684.764
7676.067
7667.247
7658.315
7649.272
7640.112
7630.807
7621.385
7611.901
7602.377
7592.832
7583.269
7573.685
7564.079
7554.457
7544.826
7535.208
7525.621
7516.074
7506.583
7497.162
7487.82
7478.533
7469.25
7459.799
7449.981
7439.503
7428.32
7416.713
7404.78
7392.336
7379.309
7365.873
7352.259
7338.606
7324.966
7311.365
7297.83
7284.388
7271.067
7257.897
7244.922
7232.198
7219.799
7207.796
7196.239
7185.115
7174.307
7163.645
7152.841
7141.397
7128.97
7115.51
7101.24
7086.451
7072.06
7058.546
7045.783
7033.526
7021.572
7009.831
6998.261
6986.828
6975.498
6964.254
6953.084
6941.98
6930.936
6919.947
6909.006
6898.109
6887.251
6876.426
6865.629
6854.852
6844.09
6833.336
6822.582
6811.82
6801.043
6790.244
6779.413
6768.543
6757.626
6746.654
6735.619
6724.514
6713.33
6702.061
6690.7
6679.241
6667.678
6656.005
6644.218
6632.312
6620.285
6608.132
6595.853
6583.447
6570.914
6558.256
6545.477
6532.582
6519.573
6506.454
6493.22
6479.862
6466.379
6452.781
6439.074
6425.266
6411.365
6397.378
6383.314
6369.18
6354.987
6340.742
6326.455
6312.136
6297.794
6283.439
6269.082
6254.732
6240.399
6226.094
6211.827
6197.609
6183.45
6169.359
6155.347
6141.424
6127.6
6113.883
6100.285
6086.812
6073.475
6060.282
6047.24
6034.359
6021.645
6009.106
5996.748
5984.578
5972.601
5960.824
5949.251
5937.888
5926.739
5915.808
5905.1
5894.618
5884.366
5874.349
5864.578
5855.061
5845.81
5836.79
5827.989
5819.418
5811.084
5802.986
5795.123
5787.494
5780.101
5772.94
5766.011
5759.312
5752.84
5746.594
5740.57
5734.766
5729.178
5723.802
5718.636
5713.674
5708.914
5704.349
5699.976
5695.789
5691.784
5687.955
5684.298
5680.808
5677.485
5674.327
5671.341
5668.541
5665.951
5663.605
5661.54
5659.778
5658.287
5657.005
5655.887
5654.911
5654.063
5653.334
5652.716
5652.205
5651.796
5651.484
5651.268
5651.144
5651.108
5651.158
5651.29
5651.503
5651.792
5652.156
5652.59
5653.092
5653.66
5654.29
5654.98
5655.727
5656.529
5657.382
5658.285
5659.234
5660.226
5661.258
5662.326
5663.422
5664.547
5665.687
5666.839
5668.014
5669.223
5670.466
5671.743
5673.047
5674.375
5675.724
5677.092
5678.476
5679.875
5681.286
5682.708
5684.14
5685.581
5687.028
5688.481
5689.939
5691.4
5692.865
5694.331
5695.798
5697.265
5698.732
5700.197
5701.661
5703.121
5704.579
5706.033
5707.482
5708.928
5710.368
5711.803
5713.232
5714.655
5716.073
5717.483
5718.887
5720.282
5721.668
5723.042
5724.4
5725.736
5727.043
5728.315
5729.545
5730.737
5731.901
5733.046
5734.173
5735.283
5736.375
5737.446
5738.491
5739.5
5740.483
5741.458
5742.429
5743.395
5744.354
5745.307
5746.252
5747.188
5748.113
5749.026
5749.926
5750.812
5751.683
5752.541
5753.383
5754.21
5755.021
5755.817
5756.598
5757.363
5758.112
5758.845
5759.562
5760.264
5760.949
5761.618
5762.271
5762.907
5763.527
5764.13
5764.716
5765.285
5765.837
5766.372
5766.889
5767.389
5767.871
5768.334
5768.779
5769.206
5769.613
5770.001
5770.37
5770.718
5771.046
5771.354
5771.64
5771.904
5772.145
5772.365
5772.561
5772.732
5772.88
5773.001
5773.096
5773.164
5773.204
5773.215
5773.195
5773.143
5773.058
5772.938
5772.781
5772.586
5772.351
5772.072
5771.748
5771.376
5770.953
5770.476
5769.942
5769.35
5768.7
5767.992
5767.235
5766.442
5765.639
5764.867
5764.185
5763.663
5763.375
5763.339
5763.507
5941.141
5905.14
5868.4
5817.483
5780.29
5708.841
5672.691
5636.535
5600.674
5564.678
5529.26
5494.467
5460.696
5429.077
5399.264
5311.708
5294.915
5286.841
5289.491
5305.109
5337.243
5389.649
5464.992
5562.508
5685.567
5838.129
6017.564
6227.079
6458.575
6703.76
6954.491
7201.582
7435.041
7642.522
7817.269
7956.611
8060.587
8131.559
8173.412
8190.781
8188.3
8170.448
8141.324
8104.29
8061.805
8015.801
7968.191
7920.548
7873.784
7828.442
7784.929
7744.243
7706.9
7673.486
7643.956
7617.645
7594.38
7574.335
7557.557
7543.864
7533.019
7524.762
7518.813
7514.966
7513.081
7512.959
7514.309
7516.882
7520.483
7524.911
7530.037
7535.568
7541.322
7547.23
7553.249
7559.272
7565.179
7570.865
7576.264
7581.335
7585.951
7590.304
7594.186
7597.594
7600.539
7603.031
7605.06
7606.663
7607.639
7608.168
7608.188
7607.657
7606.658
7605.228
7603.442
7601.263
7598.668
7595.664
7592.259
7588.463
7584.297
7579.792
7574.967
7569.84
7564.433
7558.765
7552.849
7546.689
7540.286
7533.653
7526.815
7519.794
7512.608
7505.267
7497.783
7490.132
7482.29
7474.266
7466.074
7457.728
7449.229
7440.586
7431.812
7422.917
7413.906
7404.78
7395.54
7386.19
7376.746
7367.228
7357.649
7348.029
7338.381
7328.71
7319.016
7309.302
7299.577
7289.85
7280.132
7270.429
7260.751
7251.097
7241.454
7231.781
7222.03
7212.099
7201.886
7191.21
7180.01
7168.388
7156.419
7144.065
7131.302
7118.214
7104.942
7091.59
7078.215
7064.855
7051.538
7038.297
7025.16
7012.157
6999.325
6986.706
6974.345
6962.277
6950.517
6939.035
6927.737
6916.483
6905.079
6893.26
6880.824
6867.737
6854.155
6840.31
6826.619
6813.387
6800.671
6788.363
6776.338
6764.525
6752.885
6741.39
6730.013
6718.735
6707.543
6696.428
6685.381
6674.396
6663.467
6652.587
6641.751
6630.953
6620.184
6609.44
6598.713
6587.995
6577.279
6566.557
6555.821
6545.061
6534.271
6523.441
6512.563
6501.63
6490.632
6479.561
6468.411
6457.173
6445.841
6434.409
6422.869
6411.217
6399.448
6387.558
6375.542
6363.399
6351.126
6338.723
6326.19
6313.527
6300.738
6287.826
6274.792
6261.638
6248.364
6234.967
6221.448
6207.812
6194.066
6180.217
6166.274
6152.242
6138.132
6123.951
6109.708
6095.413
6081.075
6066.703
6052.308
6037.9
6023.489
6009.085
5994.699
5980.342
5966.023
5951.753
5937.544
5923.404
5909.344
5895.374
5881.505
5867.745
5854.104
5840.592
5827.217
5813.987
5800.912
5787.999
5775.255
5762.688
5750.305
5738.111
5726.114
5714.318
5702.729
5691.352
5680.192
5669.253
5658.539
5648.054
5637.802
5627.788
5618.017
5608.492
5599.218
5590.185
5581.386
5572.821
5564.494
5556.404
5548.552
5540.936
5533.556
5526.411
5519.498
5512.817
5506.364
5500.138
5494.135
5488.353
5482.788
5477.437
5472.297
5467.363
5462.632
5458.098
5453.759
5449.61
5445.645
5441.863
5438.257
5434.827
5431.572
5428.492
5425.594
5422.888
5420.39
5418.119
5416.094
5414.323
5412.79
5411.458
5410.297
5409.288
5408.415
5407.669
5407.04
5406.523
5406.112
5405.803
5405.591
5405.474
5405.446
5405.506
5405.649
5405.873
5406.174
5406.549
5406.995
5407.51
5408.09
5408.732
5409.434
5410.192
5411.005
5411.869
5412.781
5413.738
5414.738
5415.778
5416.852
5417.958
5419.091
5420.246
5421.417
5422.611
5423.837
5425.095
5426.383
5427.696
5429.032
5430.388
5431.762
5433.152
5434.557
5435.974
5437.402
5438.839
5440.284
5441.737
5443.195
5444.658
5446.124
5447.593
5449.063
5450.534
5452.005
5453.476
5454.944
5456.411
5457.875
5459.335
5460.791
5462.242
5463.689
5465.13
5466.565
5467.994
5469.415
5470.83
5472.237
5473.635
5475.023
5476.399
5477.762
5479.108
5480.432
5481.73
5482.998
5484.233
5485.437
5486.614
5487.768
5488.904
5490.02
5491.116
5492.191
5493.242
5494.269
5495.275
5496.266
5497.248
5498.221
5499.185
5500.141
5501.087
5502.023
5502.948
5503.86
5504.76
5505.645
5506.517
5507.374
5508.216
5509.043
5509.855
5510.651
5511.432
5512.197
5512.947
5513.681
5514.399
5515.101
5515.787
5516.456
5517.11
5517.747
5518.368
5518.972
5519.56
5520.13
5520.684
5521.22
5521.739
5522.24
5522.723
5523.189
5523.636
5524.064
5524.474
5524.864
5525.235
5525.586
5525.917
5526.227
5526.517
5526.784
5527.03
5527.253
5527.453
5527.629
5527.782
5527.909
5528.01
5528.084
5528.132
5528.15
5528.139
5528.097
5528.024
5527.917
5527.775
5527.597
5527.381
5527.125
5526.828
5526.487
5526.102
5525.67
5525.191
5524.665
5524.095
5523.484
5522.842
5522.184
5521.531
5520.916
5520.379
5519.962
5519.706
5519.612
5519.669
6030.868
5943.537
5861.449
5783.665
5718.092
5665.344
5619.737
5578.991
5541.602
5504.138
5401.848
5365.816
5329.691
5293.633
5257.598
5221.918
5186.454
5151.553
5118.306
5087.572
5060.105
5038.81
5024.583
5020.189
5028.292
5051.815
5093.586
5157.471
5248.642
5368.18
5517.922
5696.073
5902.912
6133.439
6379.19
6630.125
6875.609
7105.061
7308.546
7479.584
7615.759
7717.736
7788.31
7831.44
7851.612
7853.193
7840.299
7816.492
7784.899
7747.919
7707.349
7664.752
7621.466
7578.604
7536.937
7496.988
7459.626
7425.409
7394.531
7367.074
7342.871
7321.76
7303.747
7288.842
7276.932
7267.81
7261.232
7256.953
7254.744
7254.409
7255.745
7258.567
7262.59
7267.55
7273.261
7279.552
7286.192
7292.996
7299.856
7306.707
7313.467
7320.037
7326.325
7332.263
7337.804
7342.882
7347.501
7351.617
7355.228
7358.33
7360.922
7363.009
7364.569
7365.726
7366.327
7366.394
7365.946
7365.068
7363.497
7361.607
7359.337
7356.65
7353.551
7350.053
7346.177
7341.935
7337.347
7332.438
7327.227
7321.734
7315.98
7309.981
7303.739
7297.261
7290.574
7283.698
7276.62
7269.348
7261.899
7254.282
7246.499
7238.547
7230.426
7222.144
7213.705
7205.117
7196.379
7187.507
7178.518
7169.414
7160.197
7150.872
7141.445
7131.925
7122.326
7112.662
7102.951
7093.205
7083.429
7073.624
7063.795
7053.948
7044.09
7034.225
7024.356
7014.481
7004.596
6994.688
6984.723
6974.651
6964.395
6953.881
6943.016
6931.756
6920.134
6908.196
6895.943
6883.377
6870.549
6857.545
6844.444
6831.299
6818.147
6805.022
6791.953
6778.969
6766.097
6753.367
6740.809
6728.449
6716.305
6704.373
6692.623
6680.983
6669.35
6657.595
6645.565
6633.147
6620.322
6607.188
6593.897
6580.675
6567.725
6555.123
6542.832
6530.786
6518.939
6507.263
6495.733
6484.329
6473.032
6461.83
6450.713
6439.672
6428.7
6417.79
6406.935
6396.128
6385.363
6374.632
6363.928
6353.243
6342.57
6331.901
6321.226
6310.537
6299.827
6289.085
6278.303
6267.472
6256.584
6245.63
6234.601
6223.491
6212.29
6200.993
6189.591
6178.079
6166.452
6154.704
6142.83
6130.828
6118.694
6106.427
6094.025
6081.488
6068.818
6056.015
6043.082
6030.02
6016.832
6003.518
5990.079
5976.517
5962.837
5949.045
5935.149
5921.154
5907.07
5892.905
5878.668
5864.367
5850.012
5835.612
5821.179
5806.722
5792.251
5777.777
5763.31
5748.861
5734.442
5720.062
5705.732
5691.463
5677.265
5663.149
5649.125
5635.203
5621.393
5607.704
5594.145
5580.726
5567.455
5554.341
5541.391
5528.613
5516.014
5503.602
5491.382
5479.36
5467.543
5455.936
5444.543
5433.37
5422.421
5411.699
5401.209
5390.954
5380.938
5371.165
5361.636
5352.356
5343.319
5334.522
5325.963
5317.644
5309.565
5301.726
5294.125
5286.761
5279.633
5272.74
5266.079
5259.649
5253.446
5247.468
5241.712
5236.175
5230.853
5225.743
5220.842
5216.145
5211.648
5207.348
5203.24
5199.322
5195.589
5192.038
5188.668
5185.479
5182.472
5179.651
5177.023
5174.599
5172.388
5170.401
5168.639
5167.091
5165.737
5164.554
5163.526
5162.64
5161.885
5161.253
5160.736
5160.328
5160.025
5159.822
5159.714
5159.699
5159.771
5159.928
5160.166
5160.481
5160.872
5161.333
5161.863
5162.458
5163.115
5163.831
5164.604
5165.43
5166.307
5167.231
5168.201
5169.212
5170.262
5171.347
5172.463
5173.608
5174.777
5175.969
5177.185
5178.43
5179.703
5181.003
5182.327
5183.672
5185.037
5186.419
5187.816
5189.228
5190.652
5192.087
5193.531
5194.982
5196.441
5197.905
5199.373
5200.845
5202.319
5203.794
5205.27
5206.746
5208.22
5209.693
5211.163
5212.63
5214.093
5215.551
5217.005
5218.453
5219.895
5221.33
5222.758
5224.179
5225.591
5226.995
5228.388
5229.77
5231.14
5232.494
5233.831
5235.148
5236.44
5237.707
5238.945
5240.155
5241.341
5242.504
5243.646
5244.768
5245.87
5246.952
5248.012
5249.051
5250.071
5251.074
5252.065
5253.045
5254.015
5254.974
5255.923
5256.86
5257.785
5258.698
5259.597
5260.483
5261.354
5262.211
5263.053
5263.88
5264.692
5265.489
5266.27
5267.036
5267.786
5268.521
5269.239
5269.942
5270.629
5271.299
5271.954
5272.592
5273.214
5273.819
5274.408
5274.98
5275.535
5276.073
5276.593
5277.096
5277.581
5278.049
5278.498
5278.929
5279.341
5279.734
5280.107
5280.461
5280.795
5281.109
5281.402
5281.674
5281.923
5282.151
5282.356
5282.538
5282.696
5282.829
5282.937
5283.019
5283.075
5283.102
5283.102
5283.071
5283.01
5282.918
5282.792
5282.633
5282.438
5282.207
5281.938
5281.631
5281.284
5280.898
5280.472
5280.01
5279.514
5278.99
5278.448
5277.901
5277.368
5276.873
5276.444
5276.109
5275.89
5275.789
5275.809
5730.556
5641.663
5488.561
5431.779
5381.388
5337.733
5298.814
5262.712
5227.718
5193.436
5159.213
5124.153
5088.493
5052.384
5016.007
4979.398
4942.763
4906.481
4870.65
4835.801
4804.905
4779.142
4759.93
4750.518
4753.767
4771.887
4808.766
4868.302
4954.261
5068.972
5215.118
5391.61
5595.861
5823.448
6065.802
6311.696
6549.629
6769.39
6963.076
7125.755
7255.723
7354.065
7423.695
7468.378
7492.156
7498.872
7492.077
7474.92
7449.878
7419.065
7384.509
7347.619
7309.508
7271.401
7234.259
7198.706
7165.327
7134.587
7106.757
7082.01
7060.373
7041.782
7026.205
7013.619
7003.934
6996.979
6992.531
6990.313
6990.101
6991.829
6995.16
6999.82
7005.583
7012.211
7019.493
7027.23
7035.227
7043.315
7051.369
7059.296
7067.011
7074.428
7081.465
7088.06
7094.164
7099.739
7104.773
7109.252
7113.169
7116.521
7119.313
7121.553
7123.24
7124.385
7124.961
7124.981