/*--------------------------------*- C++ -*----------------------------------*\
| =========                 |                                                 |
| \\      /  F ield         | foam-extend: Open Source CFD                    |
|  \\    /   O peration     | Version:     3.1                                |
|   \\  /    A nd           | Web:         http://www.extend-project.de       |
|    \\/     M anipulation  |                                                 |
\*---------------------------------------------------------------------------*/
FoamFile
{
    version     2.0;
    format      ascii;
    class       volScalarField;
    location    "2.5";
    object      pd;
}
// * * * * * * * * * * * * * * * * * * * * * * * * * * * * * * * * * * * * * //

dimensions      [1 -1 -2 0 0 0 0];

internalField   nonuniform List<scalar> 
119952
(
9074.785
8828.667
8771.384
8791.496
8815.976
8772.672
8750.92
8731.483
8714.863
8698.667
8683.167
8668.102
8653.331
8638.739
8624.198
8609.678
8594.9
8579.264
8561.04
8530.999
8578.524
8524.672
8496.144
8561.484
8531.326
8528.513
8519.231
8527.66
8588.117
7228.202
9137.429
9125.025
9118.745
9111.789
9105.723
9098.635
9091.513
9084.329
9077.541
9066.046
9057.483
9051.617
9043.033
9034.377
9025.685
9016.996
9008.258
8999.207
8990.065
8986.191
8973.194
8960.675
8951.09
8941.407
8931.741
8922.295
8912.872
8903.315
8894.024
8882.423
8873.247
8864.371
8855.129
8846.025
8837.034
8828.195
8820.749
8821.755
8836.983
8802.886
8785.961
8786.88
8780.14
8764.046
8745.24
8728.097
8711.877
8696.175
8680.952
8666.072
8651.427
8636.946
8622.546
8608.12
8593.536
8578.641
8563.556
8549.27
8540.057
8529.376
8515.283
8518.435
8527.295
8518.101
8509.633
8500.977
8479.199
8421.953
8403.234
8397.803
8387.947
8378.433
8368.199
8357.576
8346.798
8335.904
8324.949
8313.964
8302.97
8291.984
8281.013
8270.062
8259.134
8248.228
8237.344
8226.48
8215.631
8204.794
8193.963
8183.134
8172.3
8161.454
8150.589
8139.699
8128.776
8117.814
8106.806
8095.743
8084.62
8073.427
8062.16
8050.811
8039.375
8027.845
8016.216
8004.483
7992.64
7980.685
7968.611
7956.416
7944.094
7931.643
7919.057
7906.323
7893.421
7880.345
7867.304
7854.614
7841.974
7828.471
7815.018
7801.452
7787.794
7774.05
7760.22
7746.31
7732.331
7718.292
7704.195
7690.05
7675.866
7661.653
7647.417
7633.171
7618.922
7604.682
7590.46
7576.265
7562.108
7547.998
7533.945
7519.96
7506.051
7492.229
7478.502
7464.881
7451.375
7437.992
7424.74
7411.629
7398.665
7385.858
7373.213
7360.739
7348.441
7336.325
7324.398
7312.665
7301.131
7289.798
7278.672
7267.755
7257.047
7246.542
7236.221
7226.047
7216.083
7208.619
7199.103
7190.106
7181.264
7172.662
7164.287
7156.142
7148.236
7140.563
7133.12
7125.907
7118.923
7112.166
7105.635
7099.328
7093.241
7087.372
7081.718
7076.274
7071.038
7066.005
7061.17
7056.528
7052.074
7047.801
7043.701
7039.766
7035.984
7032.343
7028.824
7025.394
7022.015
7018.603
7014.972
7010.701
7005.615
7006.193
7005.927
7005.412
7004.741
7004.069
7003.428
7002.845
7002.329
7001.889
7001.528
7001.248
7001.05
7000.934
7000.899
7000.943
7001.066
7001.265
7001.538
7001.883
7002.298
7002.779
7003.326
7003.934
7004.603
7005.329
7006.111
7006.946
7007.832
7008.768
7009.753
7010.786
7011.877
7012.96
7014.101
7020.443
7018.588
7017.928
7019.075
7020.097
7021.258
7022.514
7023.785
7025.109
7026.466
7027.842
7029.234
7030.638
7032.052
7033.476
7034.909
7036.348
7037.794
7039.244
7040.698
7042.156
7043.615
7045.076
7046.538
7047.999
7049.46
7050.919
7052.375
7053.829
7055.28
7056.727
7058.171
7059.611
7061.047
7062.479
7063.907
7065.334
7066.758
7068.183
7069.612
7071.05
7072.504
7073.992
7075.54
7077.157
7078.662
7079.738
7080.653
7081.677
7082.73
7083.803
7084.899
7086
7086.97
7086.381
7088.161
7089.536
7090.535
7091.521
7092.499
7093.478
7094.444
7095.406
7096.358
7097.297
7098.221
7099.13
7100.023
7100.899
7101.76
7102.604
7103.433
7104.245
7105.041
7105.821
7106.586
7107.334
7108.065
7108.781
7109.481
7110.164
7110.83
7111.481
7112.114
7112.731
7113.331
7113.914
7114.48
7115.029
7115.561
7116.074
7116.57
7117.048
7117.508
7117.949
7118.372
7118.775
7119.159
7119.524
7119.868
7120.192
7120.495
7120.776
7121.036
7121.273
7121.487
7121.677
7121.843
7121.983
7122.097
7122.185
7122.244
7122.275
7122.275
7122.243
7122.178
7122.077
7121.94
7121.763
7121.543
7121.278
7120.964
7120.595
7120.168
7119.674
7119.105
7118.45
7117.695
7116.819
7115.797
7114.591
7113.144
7111.359
7109.077
7106.031
7101.866
7097.03
7097.841
7121.62
9130.691
9134.961
9139.447
9144.19
9148.713
9153.567
9158.803
9163.704
9168.043
9163.21
9173.886
9177.311
9180.737
9183.672
9186.253
9188.479
9190.47
9191.734
9197.695
9199.041
9194.064
9192.388
9191.266
9189.674
9187.827
9185.722
9183.136
9180.368
9176.426
9170.947
9167.426
9163.074
9158.34
9153.408
9148.217
9142.807
9137.446
9132.584
9123.207
9116.292
9110.212
9103.696
9096.902
9089.892
9082.666
9075.267
9067.407
9058.881
9051.216
9042.894
9034.139
9025.338
9016.531
9007.664
8998.784
8990.008
8977.428
8968.467
8959.317
8949.577
8939.796
8930.153
8920.595
8911.026
8901.401
8891.847
8882.553
8873.057
8863.481
8854.119
8845.115
8836.592
8828.905
8822.374
8816.797
8810.351
8799.134
8786.185
8775.624
8765.238
8752.411
8737.24
8721.484
8706.117
8691.179
8676.499
8661.999
8647.655
8633.443
8619.327
8605.278
8591.305
8577.521
8564.195
8551.803
8540.818
8531.172
8522.912
8517.095
8512.557
8504.826
8493.319
8477.82
8458.37
8434.247
8413.464
8400.045
8389.139
8378.313
8367.233
8356.105
8345.022
8333.958
8322.893
8311.833
8300.79
8289.771
8278.781
8267.819
8256.886
8245.98
8235.099
8224.24
8213.398
8202.569
8191.747
8180.926
8170.101
8159.264
8148.407
8137.525
8126.61
8115.654
8104.65
8093.591
8082.47
8071.279
8060.011
8048.661
8037.221
8025.686
8014.051
8002.31
7990.458
7978.491
7966.406
7954.198
7941.864
7929.403
7916.811
7904.09
7891.252
7878.325
7865.35
7852.346
7839.245
7825.96
7812.519
7798.952
7785.283
7771.523
7757.677
7743.75
7729.751
7715.688
7701.571
7687.408
7673.208
7658.978
7644.729
7630.47
7616.211
7601.96
7587.73
7573.529
7559.367
7545.254
7531.201
7517.217
7503.311
7489.494
7475.774
7462.162
7448.667
7435.296
7422.059
7408.964
7396.02
7383.233
7370.61
7358.16
7345.888
7333.8
7321.903
7310.201
7298.7
7287.403
7276.314
7265.436
7254.775
7244.333
7234.132
7224.215
7214.584
7207.573
7198.396
7189.243
7180.4
7171.796
7163.426
7155.292
7147.393
7139.728
7132.296
7125.095
7118.124
7111.381
7104.864
7098.571
7092.498
7086.643
7081.002
7075.572
7070.349
7065.329
7060.507
7055.877
7051.435
7047.173
7043.084
7039.16
7035.389
7031.759
7028.252
7024.844
7021.502
7018.182
7014.844
7011.565
7008.753
7007.388
7006.547
7005.719
7004.932
7004.187
7003.501
7002.885
7002.345
7001.886
7001.51
7001.218
7001.011
7000.888
7000.848
7000.889
7001.009
7001.206
7001.478
7001.823
7002.237
7002.719
7003.266
7003.875
7004.545
7005.272
7006.055
7006.89
7007.778
7008.715
7009.701
7010.737
7011.824
7012.98
7014.3
7015.993
7017.328
7018.117
7018.964
7020.066
7021.304
7022.586
7023.893
7025.224
7026.579
7027.954
7029.345
7030.748
7032.163
7033.588
7035.021
7036.46
7037.906
7039.357
7040.811
7042.269
7043.729
7045.19
7046.651
7048.112
7049.573
7051.031
7052.487
7053.941
7055.392
7056.839
7058.282
7059.721
7061.156
7062.587
7064.015
7065.44
7066.863
7068.285
7069.709
7071.137
7072.573
7074.017
7075.461
7076.874
7078.198
7079.38
7080.472
7081.557
7082.651
7083.752
7084.86
7085.979
7087.069
7087.918
7088.73
7089.699
7090.691
7091.655
7092.609
7093.566
7094.522
7095.473
7096.415
7097.345
7098.262
7099.165
7100.052
7100.923
7101.779
7102.618
7103.442
7104.25
7105.042
7105.819
7106.579
7107.323
7108.052
7108.764
7109.46
7110.14
7110.804
7111.451
7112.081
7112.695
7113.293
7113.873
7114.436
7114.982
7115.511
7116.022
7116.515
7116.99
7117.447
7117.885
7118.305
7118.705
7119.086
7119.447
7119.788
7120.108
7120.407
7120.685
7120.941
7121.174
7121.384
7121.57
7121.731
7121.867
7121.977
7122.06
7122.114
7122.139
7122.134
7122.096
7122.025
7121.919
7121.775
7121.591
7121.365
7121.093
7120.771
7120.395
7119.961
7119.461
7118.887
7118.23
7117.477
7116.613
7115.617
7114.463
7113.119
7111.554
7109.747
7107.815
7106.067
7105.524
7106.564
7110.024
9384.868
9561.74
9707.431
9818.503
9895.658
9941.709
9960.755
9957.498
9936.021
9899.344
9849.288
9799.792
9745.241
9689.641
9633.965
9579.365
9526.719
9476.561
9431.774
9381.98
9341.709
9303.637
9271.101
9242.214
9217.101
9195.646
9177.59
9162.689
9152.289
9139.638
9132.087
9127.494
9124.368
9122.898
9122.746
9124.029
9126.565
9130.435
9131.615
9134.143
9139.745
9144.744
9149.855
9154.906
9159.89
9164.746
9169.21
9172.578
9177.2
9180.864
9183.763
9186.342
9188.663
9190.737
9192.395
9194.118
9194.706
9194.998
9194.543
9193.568
9192.179
9190.468
9188.453
9186.067
9183.287
9180.059
9176.483
9172.602
9168.155
9163.332
9158.328
9153.163
9147.798
9142.216
9136.348
9130.207
9123.813
9116.962
9109.94
9102.913
9095.823
9088.58
9081.147
9073.49
9065.612
9057.588
9049.302
9040.807
9032.209
9023.521
9014.73
9005.842
8996.816
8987.742
8978.503
8969.123
8959.482
8949.706
8940.084
8930.583
8921.118
8911.63
8902.144
8892.642
8883.114
8873.619
8864.228
8855.01
8846.03
8837.387
8829.073
8821.136
8813.325
8805.532
8795.442
8783.45
8771.937
8760.615
8747.976
8733.867
8719.163
8704.527
8690.098
8675.81
8661.631
8647.567
8633.622
8619.798
8606.104
8592.59
8579.353
8566.565
8554.448
8543.294
8533.137
8523.767
8515.535
8507.754
8498.276
8486.11
8471.517
8454.766
8435.84
8417.692
8403.75
8391.841
8380.288
8368.767
8357.34
8346.04
8334.824
8323.655
8312.522
8301.428
8290.375
8279.361
8268.384
8257.443
8246.534
8235.655
8224.8
8213.967
8203.148
8192.339
8181.534
8170.725
8159.906
8149.07
8138.209
8127.316
8116.384
8105.404
8094.37
8083.273
8072.107
8060.865
8049.54
8038.125
8026.615
8015.003
8003.286
7991.457
7979.513
7967.45
7955.265
7942.955
7930.519
7917.958
7905.276
7892.48
7879.581
7866.597
7853.543
7840.398
7827.104
7813.659
7800.095
7786.429
7772.666
7758.814
7744.88
7730.871
7716.797
7702.666
7688.486
7674.268
7660.02
7645.751
7631.47
7617.189
7602.916
7588.661
7574.435
7560.247
7546.108
7532.028
7518.016
7504.082
7490.237
7476.488
7462.847
7449.322
7435.921
7422.655
7409.53
7396.555
7383.739
7371.087
7358.607
7346.306
7334.19
7322.265
7310.536
7299.008
7287.686
7276.574
7265.675
7254.996
7244.54
7234.314
7224.302
7214.478
7204.789
7195.687
7186.738
7177.958
7169.406
7161.091
7153.011
7145.163
7137.548
7130.166
7123.015
7116.094
7109.4
7102.932
7096.688
7090.665
7084.859
7079.267
7073.886
7068.711
7063.739
7058.965
7054.384
7049.99
7045.776
7041.738
7037.865
7034.15
7030.584
7027.153
7023.848
7020.659
7017.591
7014.679
7012.025
7009.8
7008.126
7006.868
7005.814
7004.878
7004.042
7003.3
7002.652
7002.094
7001.628
7001.252
7000.965
7000.766
7000.654
7000.626
7000.68
7000.814
7001.026
7001.313
7001.673
7002.103
7002.599
7003.161
7003.785
7004.468
7005.209
7006.004
7006.852
7007.751
7008.698
7009.692
7010.732
7011.818
7012.94
7014.113
7015.177
7016.083
7017.126
7018.337
7019.627
7020.939
7022.259
7023.59
7024.938
7026.305
7027.686
7029.081
7030.487
7031.904
7033.33
7034.764
7036.205
7037.651
7039.103
7040.558
7042.016
7043.476
7044.937
7046.398
7047.859
7049.32
7050.778
7052.235
7053.688
7055.139
7056.585
7058.028
7059.467
7060.902
7062.332
7063.758
7065.18
7066.6
7068.016
7069.43
7070.843
7072.253
7073.656
7075.044
7076.397
7077.694
7078.907
7080.051
7081.169
7082.284
7083.394
7084.497
7085.58
7086.642
7087.708
7088.689
7089.619
7090.541
7091.467
7092.403
7093.347
7094.294
7095.238
7096.174
7097.101
7098.016
7098.918
7099.805
7100.677
7101.533
7102.374
7103.2
7104.009
7104.803
7105.581
7106.343
7107.089
7107.819
7108.534
7109.232
7109.914
7110.579
7111.229
7111.861
7112.477
7113.077
7113.659
7114.225
7114.773
7115.304
7115.817
7116.312
7116.79
7117.249
7117.689
7118.111
7118.514
7118.897
7119.26
7119.604
7119.926
7120.228
7120.509
7120.767
7121.003
7121.215
7121.404
7121.568
7121.707
7121.82
7121.906
7121.963
7121.992
7121.99
7121.956
7121.889
7121.787
7121.648
7121.47
7121.25
7120.985
7120.672
7120.307
7119.885
7119.401
7118.849
7118.221
7117.508
7116.701
7115.788
7114.759
7113.61
7112.352
7111.029
7109.766
7108.757
7108.31
7108.798
7110.096
7019.853
7107.719
7219.528
7365.191
7533.881
7744.611
7962.242
8193.773
8433.211
8666.861
8896.992
9121.353
9321.188
9496.11
9639.575
9748.93
9824.872
9870.377
9889.604
9887.395
9868.44
9837.557
9797.841
9751.463
9701.011
9648.938
9596.577
9545.167
9495.682
9449.156
9407.801
9347.4
9311.946
9280.577
9250.798
9223.92
9200.787
9181.304
9165.107
9151.819
9141.127
9133.138
9127.148
9122.961
9120.643
9120.069
9120.942
9122.991
9125.954
9129.572
9133.774
9137.955
9142.384
9147.248
9152.377
9157.522
9162.522
9167.298
9171.801
9176.054
9179.898
9183.302
9186.346
9189.044
9191.341
9193.24
9194.622
9195.783
9197.171
9197.425
9196.457
9195.11
9193.677
9192.03
9190.033
9187.639
9184.827
9181.629
9177.997
9173.907
9169.463
9164.737
9159.758
9154.54
9149.075
9143.349
9137.384
9131.192
9124.639
9117.754
9110.754
9103.706
9096.547
9089.22
9081.7
9073.997
9066.098
9057.988
9049.717
9041.31
9032.765
9024.09
9015.299
9006.405
8997.408
8988.332
8979.071
8969.604
8960.04
8950.47
8940.953
8931.456
8921.945
8912.406
8902.851
8893.273
8883.706
8874.202
8864.775
8855.445
8846.249
8837.228
8828.36
8819.645
8810.88
8801.806
8791.549
8780.151
8768.528
8756.793
8744.289
8730.873
8716.939
8702.886
8688.877
8674.931
8661.053
8647.264
8633.584
8620.03
8606.631
8593.435
8580.515
8567.987
8555.98
8544.628
8533.944
8523.796
8514.084
8504.376
8493.651
8481.315
8467.393
8452.128
8435.782
8420.096
8406.329
8393.72
8381.657
8369.845
8358.222
8346.761
8335.419
8324.159
8312.965
8301.829
8290.748
8279.716
8268.731
8257.787
8246.882
8236.01
8225.168
8214.349
8203.549
8192.76
8181.977
8171.192
8160.399
8149.589
8138.756
8127.892
8116.988
8106.037
8095.032
8083.964
8072.827
8061.613
8050.315
8038.927
8027.442
8015.856
8004.161
7992.355
7980.432
7968.389
7956.223
7943.932
7931.516
7918.975
7906.312
7893.533
7880.643
7867.654
7854.568
7841.376
7828.052
7814.596
7801.024
7787.345
7773.568
7759.699
7745.746
7731.717
7717.621
7703.466
7689.261
7675.016
7660.739
7646.44
7632.129
7617.816
7603.51
7589.222
7574.962
7560.74
7546.567
7532.451
7518.404
7504.436
7490.555
7476.772
7463.096
7449.536
7436.102
7422.802
7409.644
7396.637
7383.789
7371.106
7358.597
7346.267
7334.123
7322.171
7310.416
7298.864
7287.519
7276.386
7265.469
7254.772
7244.299
7234.052
7224.027
7214.235
7204.694
7195.501
7186.517
7177.724
7169.156
7160.825
7152.729
7144.866
7137.236
7129.84
7122.675
7115.741
7109.036
7102.558
7096.304
7090.271
7084.457
7078.858
7073.47
7068.291
7063.315
7058.538
7053.955
7049.562
7045.352
7041.32
7037.459
7033.763
7030.225
7026.84
7023.604
7020.519
7017.602
7014.884
7012.423
7010.297
7008.566
7007.159
7005.966
7004.921
7004
7003.194
7002.497
7001.902
7001.407
7001.008
7000.704
7000.491
7000.367
7000.33
7000.378
7000.507
7000.715
7000.998
7001.356
7001.783
7002.279
7002.84
7003.463
7004.146
7004.887
7005.682
7006.529
7007.427
7008.372
7009.362
7010.394
7011.463
7012.558
7013.676
7014.776
7015.87
7017.024
7018.233
7019.48
7020.757
7022.058
7023.382
7024.728
7026.092
7027.473
7028.868
7030.275
7031.694
7033.122
7034.558
7036.001
7037.45
7038.904
7040.361
7041.822
7043.284
7044.747
7046.211
7047.674
7049.136
7050.597
7052.055
7053.51
7054.961
7056.409
7057.853
7059.292
7060.726
7062.156
7063.58
7065
7066.415
7067.824
7069.229
7070.626
7072.015
7073.391
7074.746
7076.069
7077.348
7078.571
7079.744
7080.89
7082.021
7083.139
7084.244
7085.331
7086.405
7087.461
7088.453
7089.403
7090.349
7091.3
7092.254
7093.207
7094.158
7095.102
7096.038
7096.964
7097.877
7098.778
7099.664
7100.536
7101.393
7102.235
7103.061
7103.872
7104.667
7105.447
7106.211
7106.959
7107.69
7108.407
7109.106
7109.79
7110.458
7111.109
7111.744
7112.362
7112.963
7113.548
7114.116
7114.666
7115.199
7115.714
7116.212
7116.692
7117.153
7117.596
7118.02
7118.425
7118.811
7119.177
7119.523
7119.848
7120.153
7120.436
7120.697
7120.936
7121.151
7121.343
7121.511
7121.654
7121.771
7121.861
7121.923
7121.957
7121.961
7121.933
7121.872
7121.778
7121.647
7121.478
7121.268
7121.015
7120.717
7120.369
7119.969
7119.512
7118.993
7118.407
7117.75
7117.017
7116.206
7115.317
7114.36
7113.362
7112.371
7111.475
7110.788
7110.457
7110.59
7111.066
7055.081
7020.85
6990.184
6959.651
6930.542
6906.705
6892.228
6886.831
6893.541
6914.567
6952.936
7007.868
7088.091
7192.72
7322.173
7478.93
7698.55
7912.711
8145.007
8386.602
8631.792
8875.121
9107.474
9313.038
9486.561
9625.442
9728.963
9799.031
9839.347
9854.415
9848.893
9827.417
9794.507
9753.57
9707.074
9657.098
9605.685
9554.522
9504.694
9457.063
9411.907
9369.331
9328.793
9293.252
9262.251
9234.02
9208.774
9187.029
9168.788
9153.727
9141.558
9132.067
9124.918
9119.793
9116.65
9115.354
9115.668
9117.332
9120.109
9123.778
9128.026
9132.653
9137.44
9142.551
9147.967
9153.499
9158.965
9164.249
9169.291
9174.017
9178.452
9182.394
9185.99
9189.174
9191.927
9194.258
9196.164
9197.712
9198.849
9199.54
9199.505
9198.764
9197.637
9196.261
9194.577
9192.499
9190.004
9187.095
9183.783
9180.05
9175.927
9171.479
9166.727
9161.683
9156.366
9150.79
9144.963
9138.896
9132.573
9125.967
9119.132
9112.146
9105.037
9097.784
9090.371
9082.78
9075.01
9067.053
9058.918
9050.634
9042.207
9033.639
9024.942
9016.122
9007.19
8998.147
8988.987
8979.682
8970.26
8960.776
8951.252
8941.707
8932.144
8922.56
8912.954
8903.332
8893.701
8884.083
8874.496
8864.949
8855.458
8846.037
8836.696
8827.408
8818.125
8808.675
8798.856
8788.378
8777.195
8765.588
8753.655
8741.211
8728.184
8714.748
8701.134
8687.481
8673.841
8660.24
8646.705
8633.263
8619.942
8606.772
8593.797
8581.073
8568.674
8556.671
8545.114
8533.99
8523.182
8512.52
8501.716
8490.272
8477.845
8464.385
8450.115
8435.326
8420.935
8407.421
8394.658
8382.401
8370.447
8358.706
8347.136
8335.703
8324.373
8313.129
8301.959
8290.855
8279.811
8268.822
8257.881
8246.984
8236.126
8225.301
8214.504
8203.727
8192.965
8182.211
8171.457
8160.695
8149.918
8139.119
8128.288
8117.418
8106.501
8095.529
8084.494
8073.389
8062.205
8050.936
8039.575
8028.116
8016.553
8004.88
7993.093
7981.187
7969.16
7957.007
7944.728
7932.322
7919.789
7907.131
7894.352
7881.457
7868.448
7855.329
7842.095
7828.737
7815.254
7801.656
7787.949
7774.141
7760.24
7746.253
7732.189
7718.056
7703.862
7689.617
7675.33
7661.011
7646.669
7632.314
7617.957
7603.607
7589.274
7574.969
7560.703
7546.484
7532.325
7518.234
7504.222
7490.299
7476.475
7462.759
7449.16
7435.687
7422.35
7409.157
7396.115
7383.234
7370.52
7357.981
7345.623
7333.453
7321.476
7309.699
7298.126
7286.763
7275.614
7264.683
7253.975
7243.493
7233.241
7223.224
7213.453
7203.936
7194.685
7185.665
7176.864
7168.293
7159.959
7151.861
7143.998
7136.369
7128.976
7121.815
7114.886
7108.187
7101.715
7095.469
7089.445
7083.641
7078.053
7072.677
7067.511
7062.549
7057.789
7053.224
7048.851
7044.664
7040.659
7036.83
7033.173
7029.684
7026.36
7023.202
7020.216
7017.416
7014.826
7012.48
7010.415
7008.653
7007.163
7005.88
7004.762
7003.786
7002.938
7002.209
7001.591
7001.08
7000.671
7000.359
7000.143
7000.019
6999.983
7000.033
7000.165
7000.378
7000.667
7001.031
7001.465
7001.967
7002.535
7003.165
7003.855
7004.602
7005.404
7006.257
7007.16
7008.109
7009.101
7010.133
7011.201
7012.297
7013.422
7014.562
7015.714
7016.889
7018.098
7019.341
7020.618
7021.922
7023.25
7024.599
7025.967
7027.351
7028.75
7030.161
7031.583
7033.015
7034.456
7035.903
7037.356
7038.814
7040.275
7041.74
7043.206
7044.673
7046.14
7047.607
7049.072
7050.535
7051.996
7053.454
7054.908
7056.357
7057.803
7059.243
7060.678
7062.107
7063.53
7064.948
7066.358
7067.762
7069.157
7070.543
7071.917
7073.275
7074.611
7075.918
7077.19
7078.42
7079.612
7080.776
7081.921
7083.048
7084.158
7085.25
7086.321
7087.366
7088.375
7089.358
7090.333
7091.304
7092.27
7093.229
7094.182
7095.127
7096.063
7096.988
7097.901
7098.801
7099.687
7100.558
7101.416
7102.258
7103.085
7103.896
7104.692
7105.473
7106.238
7106.987
7107.72
7108.437
7109.139
7109.824
7110.493
7111.146
7111.782
7112.402
7113.005
7113.591
7114.16
7114.712
7115.247
7115.764
7116.264
7116.746
7117.209
7117.654
7118.081
7118.488
7118.876
7119.245
7119.593
7119.921
7120.229
7120.515
7120.779
7121.021
7121.24
7121.436
7121.607
7121.755
7121.876
7121.971
7122.039
7122.079
7122.09
7122.07
7122.018
7121.933
7121.813
7121.656
7121.461
7121.226
7120.947
7120.623
7120.251
7119.828
7119.351
7118.817
7118.225
7117.575
7116.867
7116.11
7115.317
7114.514
7113.742
7113.06
7112.538
7112.25
7112.214
7112.382
7448.776
7401.226
7361.037
7319.639
7282.446
7241.653
7205.503
7169.348
7133.486
7097.491
7062.072
7027.279
6993.509
6961.89
6932.076
6905.833
6889.04
6880.966
6883.616
6899.234
6931.368
6983.774
7059.117
7156.633
7279.692
7432.254
7611.689
7821.204
8052.7
8297.885
8548.616
8795.707
9029.166
9236.647
9411.394
9550.735
9654.712
9725.684
9767.536
9784.906
9782.425
9764.573
9735.449
9698.415
9655.93
9609.926
9562.316
9514.673
9467.909
9422.567
9379.054
9338.368
9301.025
9267.611
9238.081
9211.77
9188.505
9168.461
9151.682
9137.989
9127.144
9118.887
9112.938
9109.091
9107.206
9107.084
9108.434
9111.007
9114.608
9119.036
9124.162
9129.693
9135.447
9141.355
9147.374
9153.397
9159.304
9164.99
9170.389
9175.46
9180.076
9184.429
9188.311
9191.719
9194.664
9197.156
9199.185
9200.788
9201.764
9202.293
9202.313
9201.782
9200.783
9199.353
9197.567
9195.388
9192.793
9189.789
9186.384
9182.588
9178.422
9173.917
9169.092
9163.965
9158.558
9152.89
9146.974
9140.814
9134.411
9127.778
9120.94
9113.918
9106.732
9099.392
9091.908
9084.257
9076.414
9068.389
9060.197
9051.851
9043.353
9034.711
9025.937
9017.042
9008.031
8998.905
8989.665
8980.315
8970.871
8961.353
8951.774
8942.154
8932.506
8922.835
8913.141
8903.427
8893.702
8883.975
8874.257
8864.554
8854.876
8845.222
8835.579
8825.906
8816.155
8806.224
8796.011
8785.335
8774.135
8762.513
8750.544
8738.19
8725.427
8712.339
8699.067
8685.715
8672.34
8658.98
8645.663
8632.422
8619.285
8606.282
8593.45
8580.831
8568.47
8556.402
8544.642
8533.16
8521.863
8510.608
8499.204
8487.385
8474.949
8461.862
8448.28
8434.435
8420.744
8407.512
8394.796
8382.488
8370.463
8358.65
8347.01
8335.515
8324.138
8312.86
8301.668
8290.553
8279.506
8268.521
8257.592
8246.712
8235.876
8225.078
8214.31
8203.565
8192.838
8182.12
8171.404
8160.682
8149.946
8139.186
8128.396
8117.566
8106.688
8095.755
8084.757
8073.686
8062.536
8051.298
8039.966
8028.534
8016.994
8005.343
7993.573
7981.683
7969.667
7957.524
7945.251
7932.848
7920.315
7907.652
7894.863
7881.951
7868.917
7855.763
7842.489
7829.092
7815.573
7801.937
7788.191
7774.342
7760.399
7746.367
7732.257
7718.076
7703.833
7689.538
7675.2
7660.828
7646.433
7632.025
7617.614
7603.21
7588.824
7574.467
7560.148
7545.878
7531.669
7517.529
7503.469
7489.499
7475.63
7461.87
7448.229
7434.717
7421.342
7408.113
7395.037
7382.124
7369.38
7356.813
7344.43
7332.236
7320.239
7308.443
7296.854
7285.477
7274.317
7263.378
7252.664
7242.179
7231.927
7221.913
7212.142
7202.617
7193.343
7184.31
7175.511
7166.946
7158.619
7150.529
7142.677
7135.061
7127.681
7120.536
7113.623
7106.942
7100.489
7094.263
7088.26
7082.478
7076.913
7071.562
7066.422
7061.488
7056.757
7052.223
7047.884
7043.735
7039.771
7035.988
7032.382
7028.952
7025.697
7022.617
7019.719
7017.013
7014.515
7012.244
7010.219
7008.448
7006.915
7005.583
7004.422
7003.413
7002.54
7001.794
7001.165
7000.648
7000.237
6999.928
6999.716
6999.599
6999.571
6999.631
6999.774
6999.998
7000.299
7000.674
7001.12
7001.635
7002.215
7002.857
7003.559
7004.317
7005.13
7005.994
7006.906
7007.863
7008.863
7009.903
7010.977
7012.083
7013.216
7014.371
7015.542
7016.736
7017.962
7019.22
7020.508
7021.821
7023.157
7024.513
7025.887
7027.277
7028.682
7030.099
7031.527
7032.964
7034.409
7035.862
7037.32
7038.783
7040.249
7041.718
7043.188
7044.659
7046.13
7047.601
7049.069
7050.536
7052
7053.46
7054.916
7056.367
7057.814
7059.255
7060.69
7062.119
7063.54
7064.955
7066.362
7067.76
7069.148
7070.524
7071.887
7073.233
7074.557
7075.855
7077.123
7078.358
7079.562
7080.739
7081.893
7083.029
7084.145
7085.241
7086.316
7087.367
7088.394
7089.4
7090.391
7091.373
7092.346
7093.31
7094.266
7095.212
7096.148
7097.073
7097.985
7098.885
7099.77
7100.642
7101.499
7102.341
7103.168
7103.98
7104.776
7105.557
7106.322
7107.072
7107.806
7108.524
7109.226
7109.912
7110.582
7111.235
7111.872
7112.493
7113.097
7113.685
7114.255
7114.809
7115.345
7115.864
7116.365
7116.848
7117.314
7117.761
7118.189
7118.599
7118.989
7119.36
7119.711
7120.042
7120.352
7120.642
7120.909
7121.155
7121.378
7121.578
7121.754
7121.907
7122.034
7122.135
7122.209
7122.257
7122.275
7122.264
7122.222
7122.149
7122.042
7121.9
7121.722
7121.506
7121.25
7120.953
7120.612
7120.227
7119.795
7119.316
7118.79
7118.22
7117.609
7116.967
7116.309
7115.656
7115.041
7114.504
7114.087
7113.831
7113.737
7113.794
7779.118
7721.6
7639.512
7561.728
7496.154
7443.406
7397.8
7357.053
7319.664
7282.2
7241.223
7205.191
7169.066
7133.008
7096.973
7061.293
7025.829
6990.928
6957.681
6926.947
6899.48
6878.185
6863.958
6859.564
6867.667
6891.19
6932.961
6996.846
7088.017
7207.555
7357.297
7535.448
7742.287
7972.814
8218.565
8469.5
8714.984
8944.436
9147.921
9318.959
9455.134
9557.111
9627.684
9670.815
9690.987
9692.568
9679.674
9655.867
9624.274
9587.294
9546.724
9504.127
9460.841
9417.978
9376.312
9336.363
9299.001
9264.784
9233.906
9206.449
9182.246
9161.135
9143.122
9128.217
9116.307
9107.185
9100.607
9096.328
9094.119
9093.784
9095.12
9097.942
9101.965
9106.925
9112.636
9118.927
9125.567
9132.371
9139.231
9146.082
9152.842
9159.412
9165.7
9171.638
9177.179
9182.257
9186.876
9190.992
9194.603
9197.705
9200.297
9202.384
9203.944
9205.101
9205.702
9205.769
9205.321
9204.443
9202.872
9200.982
9198.712
9196.025
9192.926
9189.428
9185.552
9181.31
9176.722
9171.813
9166.602
9161.109
9155.355
9149.356
9143.114
9136.635
9129.949
9123.072
9115.994
9108.723
9101.274
9093.657
9085.874
9077.921
9069.798
9061.512
9053.076
9044.489
9035.753
9026.881
9017.892
9008.789
8999.572
8990.247
8980.82
8971.3
8961.701
8952.037
8942.326
8932.581
8922.804
8912.999
8903.17
8893.323
8883.465
8873.6
8863.731
8853.856
8843.971
8834.063
8824.099
8814.026
8803.77
8793.256
8782.391
8771.131
8759.509
8747.571
8735.318
8722.752
8709.924
8696.92
8683.819
8670.674
8657.523
8644.397
8631.328
8618.344
8605.472
8592.742
8580.184
8567.824
8555.68
8543.748
8531.998
8520.358
8508.725
8496.97
8484.94
8472.522
8459.697
8446.563
8433.272
8420.05
8407.1
8394.498
8382.207
8370.161
8358.314
8346.638
8335.108
8323.704
8312.407
8301.205
8290.088
8279.047
8268.075
8257.165
8246.31
8235.503
8224.738
8214.007
8203.303
8192.618
8181.945
8171.276
8160.601
8149.912
8139.202
8128.46
8117.678
8106.847
8095.959
8085.005
8073.976
8062.866
8051.665
8040.368
8028.966
8017.454
8005.827
7994.079
7982.205
7970.203
7958.069
7945.802
7933.4
7920.863
7908.193
7895.39
7882.457
7869.395
7856.207
7842.893
7829.454
7815.892
7802.212
7788.42
7774.524
7760.529
7746.445
7732.28
7718.043
7703.742
7689.387
7674.988
7660.554
7646.097
7631.626
7617.152
7602.685
7588.236
7573.817
7559.437
7545.107
7530.838
7516.64
7502.524
7488.5
7474.578
7460.768
7447.079
7433.52
7420.101
7406.83
7393.716
7380.766
7367.988
7355.389
7342.977
7330.757
7318.735
7306.918
7295.311
7283.918
7272.745
7261.796
7251.074
7240.584
7230.329
7220.313
7210.54
7201.011
7191.731
7182.694
7173.897
7165.338
7157.019
7148.94
7141.101
7133.5
7126.136
7119.008
7112.115
7105.454
7099.024
7092.821
7086.843
7081.087
7075.55
7070.228
7065.118
7060.217
7055.52
7051.023
7046.723
7042.615
7038.697
7034.964
7031.413
7028.044
7024.854
7021.847
7019.026
7016.398
7013.974
7011.763
7009.776
7008.014
7006.466
7005.112
7003.929
7002.901
7002.015
7001.26
7000.628
7000.111
6999.703
6999.4
6999.197
6999.089
6999.074
6999.146
6999.303
6999.541
6999.856
7000.247
7000.708
7001.238
7001.833
7002.49
7003.206
7003.979
7004.805
7005.682
7006.606
7007.576
7008.587
7009.637
7010.722
7011.838
7012.983
7014.152
7015.344
7016.56
7017.805
7019.078
7020.378
7021.702
7023.047
7024.412
7025.794
7027.191
7028.603
7030.027
7031.462
7032.906
7034.357
7035.816
7037.28
7038.748
7040.22
7041.694
7043.169
7044.645
7046.121
7047.595
7049.068
7050.538
7052.005
7053.468
7054.926
7056.38
7057.828
7059.27
7060.705
7062.133
7063.554
7064.966
7066.37
7067.763
7069.145
7070.515
7071.869
7073.206
7074.523
7075.815
7077.082
7078.32
7079.53
7080.716
7081.879
7083.021
7084.143
7085.245
7086.327
7087.387
7088.426
7089.446
7090.449
7091.44
7092.42
7093.39
7094.349
7095.298
7096.235
7097.16
7098.073
7098.972
7099.858
7100.729
7101.586
7102.428
7103.255
7104.067
7104.864
7105.645
7106.411
7107.161
7107.896
7108.614
7109.317
7110.004
7110.674
7111.329
7111.967
7112.589
7113.194
7113.783
7114.355
7114.91
7115.448
7115.968
7116.471
7116.956
7117.424
7117.873
7118.304
7118.716
7119.109
7119.482
7119.836
7120.17
7120.484
7120.777
7121.049
7121.298
7121.526
7121.731
7121.913
7122.071
7122.204
7122.312
7122.394
7122.45
7122.477
7122.477
7122.446
7122.385
7122.293
7122.167
7122.008
7121.813
7121.582
7121.313
7121.006
7120.659
7120.273
7119.847
7119.385
7118.889
7118.365
7117.823
7117.276
7116.743
7116.248
7115.819
7115.484
7115.265
7115.164
7115.184
7723.21
7664.975
7573.186
7516.403
7466.013
7422.358
7383.439
7347.336
7312.343
7278.061
7243.838
7208.778
7173.118
7137.009
7100.632
7064.023
7027.388
6991.106
6955.275
6920.425
6889.53
6863.767
6844.554
6835.143
6838.392
6856.512
6893.391
6952.927
7038.886
7153.597
7299.743
7476.235
7680.486
7908.073
8150.427
8396.321
8634.254
8854.015
9047.701
9210.38
9340.348
9438.69
9508.319
9553.002
9576.781
9583.497
9576.702
9559.545
9534.503
9503.69
9469.134
9432.244
9394.133
9356.026
9318.884
9283.331
9249.952
9219.212
9191.382
9166.635
9144.998
9126.407
9110.83
9098.244
9088.559
9081.604
9077.156
9074.938
9074.726
9076.454
9079.785
9084.445
9090.208
9096.836
9104.118
9111.855
9119.852
9127.94
9135.994
9143.921
9151.636
9159.053
9166.09
9172.685
9178.789
9184.364
9189.398
9193.877
9197.794
9201.146
9203.938
9206.178
9207.865
9209.01
9209.586
9209.606
9209.071
9207.96
9206.637
9204.774
9202.449