/*--------------------------------*- C++ -*----------------------------------*\
| =========                 |                                                 |
| \\      /  F ield         | foam-extend: Open Source CFD                    |
|  \\    /   O peration     | Version:     3.1                                |
|   \\  /    A nd           | Web:         http://www.extend-project.de       |
|    \\/     M anipulation  |                                                 |
\*---------------------------------------------------------------------------*/
FoamFile
{
    version     2.0;
    format      ascii;
    class       surfaceScalarField;
    location    "2.5";
    object      phi;
}
// * * * * * * * * * * * * * * * * * * * * * * * * * * * * * * * * * * * * * //

dimensions      [0 3 -1 0 0 0 0];

internalField   nonuniform List<scalar> 
275122
(
-0.0001541671
0.0001561361
-7.593155e-08
-1.893049e-06
-0.0001381244
0.0001317751
5.221587e-07
5.827194e-06
-0.0001370339
0.0001406848
-1.442695e-07
-3.506602e-06
-0.0001529616
0.0001571858
-1.582019e-07
-4.066009e-06
-0.0001677367
0.0001690429
-1.699494e-07
-1.136192e-06
-0.0001690181
0.0001687361
-1.459707e-07
4.279387e-07
-0.0001672334
0.0001666414
-1.301293e-07
7.22063e-07
-0.0001646436
0.0001638904
-1.223967e-07
8.755948e-07
-0.0001615966
0.0001608192
-1.09394e-07
8.868509e-07
-0.0001584303
0.0001576158
-9.870029e-08
9.132645e-07
-0.0001551298
0.0001542879
-8.836631e-08
9.302694e-07
-0.0001517302
0.0001508676
-7.848145e-08
9.41056e-07
-0.0001482532
0.00014737
-6.622306e-08
9.494632e-07
-0.0001447207
0.0001438322
-6.650051e-08
9.549666e-07
-0.0001411413
0.0001402395
-5.352862e-08
9.553459e-07
-0.0001375195
0.0001366141
-4.576465e-08
9.511255e-07
-0.0001338814
0.0001329794
-3.934661e-08
9.413192e-07
-0.0001303029
0.0001294248
-3.598201e-08
9.140947e-07
-0.000126958
0.0001262369
-5.4147e-08
7.752443e-07
-0.0001247072
0.0001248829
-1.845705e-07
8.879548e-09
-0.0001382744
0.0001437226
-4.706659e-07
-4.977611e-06
-0.0001452799
0.000145422
-1.145314e-07
-2.758206e-08
-0.0001465128
0.0001474432
-5.118849e-08
-8.792034e-07
-0.0001634299
0.0001695304
1.401152e-07
-6.240563e-06
-0.000170642
0.000170656
2.32139e-07
-2.461894e-07
-0.0001721134
0.0001724174
-1.300677e-08
-2.909743e-07
-0.0001723576
0.0001720631
-2.662375e-08
3.211864e-07
-0.0001705017
0.0001691218
-1.600563e-08
1.395957e-06
-0.0001595209
0.0001493365
-1.261629e-08
1.019704e-05
-0.0001269085
0.000130394
3.079829e-09
-3.488515e-06
-0.0001049338
0.0001102374
-2.774875e-08
-5.275848e-06
-0.0001254867
0.0001306194
3.43113e-09
-5.136127e-06
-0.0001463828
0.0001516999
3.827194e-09
-5.320928e-06
-0.0001680132
0.0001736122
4.105884e-09
-5.603138e-06
-0.0001907043
0.0001964954
3.872606e-09
-5.795005e-06
-0.0002140962
0.0002200478
3.652248e-09
-5.955192e-06
-0.0002380679
0.0002441448
3.292539e-09
-6.080271e-06
-0.0002624797
0.0002686625
3.142346e-09
-6.185942e-06
-0.000287165
0.0002933567
2.438979e-09
-6.194105e-06
-0.0003117722
0.0003184894
9.354911e-08
-6.810763e-06
5.223732e-06
-0.0002164153
0.0002173862
-6.018159e-12
-6.194587e-06
5.330447e-06
-0.0002201231
0.0002209547
-4.802844e-10
-6.161492e-06
5.466814e-06
-0.0002232418
0.0002239335
-7.141114e-10
-6.157816e-06
5.616165e-06
-0.0002257245
0.000226255
-7.060825e-10
-6.145941e-06
5.759324e-06
-0.000227594
0.0002279937
-7.53543e-10
-6.158294e-06
5.851649e-06
-0.0002290193
0.0002293253
-5.57921e-10
-6.157079e-06
5.905092e-06
-0.0002301051
0.0002303357
-4.690062e-10
-6.135232e-06
5.933418e-06
-0.0002309706
0.0002311582
-3.866115e-10
-6.120678e-06
6.103978e-06
-0.0002315981
0.0002314524
-1.482663e-10
-5.958208e-06
5.279927e-06
-0.0009378411
0.0009405466
1.245867e-11
-2.41594e-05
5.464949e-06
5.264956e-06
5.444009e-06
5.691412e-06
-0.0009418333
0.0009425515
8.023839e-12
-2.383105e-05
5.876777e-06
5.680958e-06
5.863702e-06
5.767322e-06
-0.0009430568
0.0009434291
2.163784e-12
-2.358736e-05
5.850782e-06
5.756186e-06
5.84076e-06
5.778349e-06
-0.000943843
0.0009440436
-1.804595e-12
-2.339009e-05
5.826373e-06
5.768185e-06
5.816594e-06
5.78299e-06
-0.0009440578
0.0009439227
-3.56501e-12
-2.309322e-05
5.840134e-06
5.773704e-06
5.83145e-06
5.809847e-06
-0.000943673
0.0009433094
-5.989224e-12
-2.290365e-05
5.832512e-06
5.800874e-06
5.823965e-06
5.789581e-06
-0.0009429199
0.0009423854
-1.117582e-11
-2.262049e-05
5.796156e-06
5.780901e-06
5.788344e-06
5.76497e-06
-0.0009418457
0.0009411466
-3.562296e-11
-2.231014e-05
5.74706e-06
5.757309e-06
5.740006e-06
5.741056e-06
-0.0009404183
0.0009395916
2.155045e-11
-2.194289e-05
5.650986e-06
5.733808e-06
5.643706e-06
5.383618e-06
-0.0009385063
0.0009386134
-1.669639e-12
-2.19262e-05
5.531137e-06
5.374494e-06
5.529839e-06
5.843108e-06
-0.0009380477
0.0009365139
-4.720088e-12
-2.155908e-05
5.704677e-06
5.840957e-06
5.704122e-06
5.612278e-06
-0.0009353128
0.0009341225
-2.639012e-12
-2.115629e-05
5.559387e-06
5.614082e-06
5.560856e-06
5.561863e-06
-0.0009329495
0.0009317475
-3.467689e-12
-2.097535e-05
5.52577e-06
5.562983e-06
5.52677e-06
5.522008e-06
-0.0009305389
0.0009292941
-4.188023e-13
-2.079077e-05
5.494848e-06
5.522688e-06
5.496e-06
5.49049e-06
-0.0009280433
0.0009267581
1.173071e-11
-2.063485e-05
5.472363e-06
5.486883e-06
5.470274e-06
5.482368e-06
-0.0009254666
0.0009241201
2.529141e-11
-2.053645e-05
5.470031e-06
5.469524e-06
5.461032e-06
5.556529e-06
-0.0009227838
0.0009213735
1.233991e-11
-2.069256e-05
5.563039e-06
5.488498e-06
5.49484e-06
6.000665e-06
-0.0009198484
0.0009175276
-5.619295e-13
-2.128058e-05
6.140423e-06
5.69156e-06
5.768743e-06
7.634574e-06
-0.000913821
0.0009061991
-2.846824e-12
-2.176415e-05
8.239256e-06
6.813139e-06
6.699089e-06
7.463821e-06
-0.0008964564
0.0009036403
-4.54922e-12
-1.464773e-05
6.856702e-06
-0.0009082548
0.0009084237
-3.927683e-12
-7.025656e-06
1.391474e-05
-0.0009052176
0.0009021508
-4.346592e-12
-1.084785e-05
1.16514e-05
-0.0008997573
0.0008974029
-4.894858e-12
-9.297023e-06
5.202678e-06
-0.0008952455
0.0008946124
-5.876707e-12
-4.569562e-06
2.012798e-07
-0.0008949859
0.0008950032
-7.209329e-12
-2.18541e-07
-1.892116e-06
-0.0008950394
0.0008949791
-8.094755e-12
1.952461e-06
-2.79466e-06
-0.0008948263
0.0008945429
-8.290951e-12
3.078058e-06
-3.422589e-06
-0.0008941919
0.0008937499
-8.713778e-12
3.864553e-06
-3.834155e-06
-0.0008932529
0.0008926793
-9.33303e-12
4.407738e-06
-4.109789e-06
-0.0008920692
0.0008914054
-9.293682e-12
4.773607e-06
-4.302808e-06
-0.0008907187
0.0008899927
-8.335109e-12
5.028837e-06
-4.434513e-06
-0.0008892508
0.0008884829
-1.018925e-11
5.202374e-06
-4.514065e-06
-0.000887706
0.0008869156
-1.080946e-11
5.304568e-06
-4.54784e-06
-0.000886124
0.0008853356
-1.038972e-11
5.336314e-06
-4.51394e-06
-0.0008845536
0.0008837933
-9.259758e-12
5.274175e-06
-4.374049e-06
-0.0008830507
0.0008823594
-1.190994e-11
5.065296e-06
-3.960235e-06
-0.0008816958
0.0008810791
-1.151703e-11
4.576887e-06
-3.021347e-06
-0.0008804696
0.000879873
-1.294944e-11
3.617942e-06
-6.754693e-07
-0.0008791851
0.0008779523
-1.719791e-11
1.908278e-06
2.50151e-06
-0.00087513
0.0008730785
-1.230837e-11
-4.499918e-07
7.074393e-07
-0.0008727034
0.0008723424
-8.827013e-12
-3.464296e-07
5.637097e-06
-0.0008715763
0.0008693071
-8.478093e-12
-3.367846e-06
1.337013e-05
-0.0008624538
0.0008560289
-9.373979e-12
-6.945219e-06
3.194489e-06
-0.0008521251
0.0008506976
-1.02936e-11
-1.766925e-06
-1.916314e-06
-0.0008488723
0.000846941
-1.150437e-11
3.847612e-06
-6.419967e-06
-0.0008448695
0.0008428804
-1.131259e-11
8.409115e-06
-1.427353e-05
-0.0008412164
0.0008404215
-1.062032e-11
1.506837e-05
-3.439422e-05
-0.000840918
0.0008506703
-1.009255e-11
2.464188e-05
-6.940008e-06
-0.0008622173
0.0008619396
-1.041702e-11
2.415172e-05
-4.978872e-06
-6.952363e-06
-5.002756e-06
-3.02358e-06
-0.000859437
0.0008583655
-9.911334e-12
1.314983e-05
-2.989748e-06
-3.047097e-06
-3.017891e-06
-2.247123e-06
-0.0008570859
0.0008552706
-9.151134e-12
1.057039e-05
-2.095935e-06
-2.282158e-06
-2.129878e-06
-1.732442e-06
-0.000853283
0.0008514546
-8.348946e-12
8.733777e-06
-1.688536e-06
-1.764759e-06
-1.719677e-06
-1.554449e-06
-0.0008497856
0.0008482408
-8.00908e-12
7.780391e-06
-1.534336e-06
-1.583967e-06
-1.562777e-06
-1.44514e-06
-0.0008467461
0.0008453202
-8.026923e-12
7.225441e-06
-1.429022e-06
-1.471275e-06
-1.454066e-06
-1.379214e-06
-0.0008439343
0.0008426102
-8.143744e-12
6.869926e-06
-1.371366e-06
-1.401954e-06
-1.393248e-06
-1.342997e-06
-0.0008413172
0.0008400693
-8.50643e-12
6.648465e-06
-1.337979e-06
-1.362693e-06
-1.356966e-06
-1.318616e-06
-0.0008388444
0.0008376553
-8.308441e-12
6.490056e-06
-1.31513e-06
-1.335629e-06
-1.331556e-06
-1.301606e-06
-0.0008364862
0.0008353464
-8.02806e-12
6.370353e-06
-1.299196e-06
-1.316325e-06
-1.313432e-06
-1.289169e-06
-0.0008342231
0.0008331239
-7.916519e-12
6.277561e-06
-1.287412e-06
-1.301937e-06
-1.299782e-06
-1.280135e-06
-0.0008320385
0.0008309732
-7.605049e-12
6.204916e-06
-1.278889e-06
-1.291109e-06
-1.289499e-06
-1.273578e-06
-0.0008299197
0.0008288832
-7.055472e-12
6.147369e-06
-1.272683e-06
-1.282899e-06
-1.28167e-06
-1.26876e-06
-0.0008278567
0.0008268449
-6.603969e-12
6.101058e-06
-1.26809e-06
-1.276636e-06
-1.275689e-06
-1.265001e-06
-0.0008258416
0.0008248508
-6.372015e-12
6.062712e-06
-1.26445e-06
-1.271614e-06
-1.270823e-06
-1.261887e-06
-0.0008238674
0.0008228945
-6.167472e-12
6.030297e-06
-1.261406e-06
-1.267402e-06
-1.266714e-06
-1.259275e-06
-0.0008219279
0.0008209703
-5.924727e-12
6.00281e-06
-1.258857e-06
-1.263844e-06
-1.263251e-06
-1.25712e-06
-0.0008200182
0.0008190736
-5.612095e-12
5.979704e-06
-1.256764e-06
-1.260879e-06
-1.260376e-06
-1.255394e-06
-0.0008181336
0.0008172001
-5.324428e-12
5.960492e-06
-1.255088e-06
-1.25846e-06
-1.258028e-06
-1.253938e-06
-0.0008162705
0.000815346
-5.120646e-12
5.944468e-06
-1.253624e-06
-1.256412e-06
-1.255993e-06
-1.252616e-06
-0.0008144245
0.0008135068
-4.907156e-12
5.931432e-06
-1.252319e-06
-1.254594e-06
-1.254209e-06
-1.251684e-06
-0.0008125914
0.0008116788
-4.63352e-12
5.922018e-06
-1.251469e-06
-1.253246e-06
-1.252958e-06
-1.251329e-06
-0.0008107679
0.0008098587
-4.37935e-12
5.916587e-06
-1.251188e-06
-1.252536e-06
-1.252333e-06
-1.251455e-06
-0.0008089506
0.000808043
-4.139032e-12
5.914906e-06
-1.251357e-06
-1.25235e-06
-1.252198e-06
-1.251935e-06
-0.0008071359
0.0008062281
-3.920686e-12
5.916596e-06
-1.251863e-06
-1.252558e-06
-1.25244e-06
-1.252679e-06
0.00080441
-3.645571e-12
5.921355e-06
-1.252616e-06
-1.2531e-06
-1.253007e-06
-0.00080532
-1.253598e-06
-0.0008034991
0.0008025851
-3.356235e-12
5.928932e-06
-1.253551e-06
-1.253952e-06
-1.25391e-06
-1.254779e-06
-0.0008016696
0.0008007498
-3.074964e-12
5.939343e-06
-1.254739e-06
-1.255077e-06
-1.255024e-06
-1.256247e-06
-0.0007998277
0.0007989006
-2.750606e-12
5.952481e-06
-1.256275e-06
-1.256389e-06
-1.256382e-06
-1.258099e-06
-0.0007979705
0.0007970344
-2.407278e-12
5.968642e-06
-1.258173e-06
-1.258107e-06
-1.258164e-06
-1.260213e-06
-0.0007960949
0.0007951483
-2.027832e-12
5.987462e-06
-1.260309e-06
-1.260136e-06
-1.260223e-06
-1.262521e-06
-0.0007941977
0.0007932391
-1.637663e-12
6.008589e-06
-1.26263e-06
-1.26238e-06
-1.262484e-06
-1.264966e-06
-0.0007922759
0.000791304
-1.249768e-12
6.031689e-06
-1.26508e-06
-1.264773e-06
-1.264882e-06
-1.267481e-06
-0.0007903269
0.0007893402
-8.79789e-13
6.056391e-06
-1.267596e-06
-1.267247e-06
-1.267361e-06
-1.270005e-06
-0.0007883479
0.0007873453
-5.226823e-13
6.082333e-06
-1.270114e-06
-1.269752e-06
-1.269866e-06
-1.272491e-06
-0.0007863367
0.0007853172
-1.959567e-13
6.109183e-06
-1.272585e-06
-1.27224e-06
-1.27234e-06
-1.274922e-06
-0.0007842913
0.000783254
7.044953e-14
6.136686e-06
-1.274989e-06
-1.274677e-06
-1.27475e-06
-1.277281e-06
-0.00078221
0.0007811541
3.908923e-13
6.164655e-06
-1.277333e-06
-1.27704e-06
-1.277095e-06
-1.279561e-06
-0.0007800913
0.0007790162
6.122401e-13
6.192934e-06
-1.279609e-06
-1.279319e-06
-1.279371e-06
-1.281769e-06
-0.000777934
0.0007768393
7.935725e-13
6.221375e-06
-1.281805e-06
-1.28152e-06
-1.281559e-06
-1.2839e-06
-0.0007757373
0.0007746226
9.652952e-13
6.24979e-06
-1.283931e-06
-1.283625e-06
-1.283647e-06
-1.285907e-06
-0.0007735006
0.0007723658
1.16174e-12
6.277881e-06
-1.285918e-06
-1.285607e-06
-1.285618e-06
-1.287614e-06
-0.0007712235
0.0007700685
1.388976e-12
6.305037e-06
-1.287596e-06
-1.287419e-06
-1.287436e-06
-1.289012e-06
-0.0007689061
0.0007677311
1.580368e-12
6.330553e-06
-1.2889e-06
-1.288879e-06
-1.28877e-06
-1.289885e-06
-0.0007665487
0.0007653543
1.728415e-12
6.353091e-06
-1.289699e-06
-1.289687e-06
-1.289485e-06
-1.290043e-06
-0.0007641529
0.0007629409
1.90614e-12
6.37098e-06
-1.289679e-06
-1.289837e-06
-1.28947e-06
-1.28881e-06
-0.0007617225
0.0007604967
2.085979e-12
6.379321e-06
-1.288178e-06
-1.288617e-06
-1.287973e-06
-1.284208e-06
-0.0007592676
0.0007580373
1.765815e-12
6.363946e-06
-1.282814e-06
-1.284011e-06
-1.2826e-06
-1.264081e-06
-0.0007568013
0.0007555509
1.266578e-12
6.291416e-06
-1.256586e-06
-1.263967e-06
-1.256416e-06
-1.186428e-06
-0.0007542433
0.0007527265
7.71025e-12
6.127988e-06
-1.118661e-06
-1.186158e-06
-1.119916e-06
-1.060939e-06
-0.0007514822
0.0007497396
4.36765e-12
6.026494e-06
-1.082152e-06
-1.059809e-06
-1.081001e-06
-1.208606e-06
-0.0007483002
0.0007469153
3.064822e-12
6.220198e-06
-1.211163e-06
-1.206569e-06
-1.209012e-06
-1.181368e-06
-0.0007454342
0.0007439129
2.01873e-12
6.242386e-06
-1.180924e-06
-1.179562e-06
-1.179283e-06
-1.200489e-06
-0.0007424234
0.0007409339
1.232122e-12
6.290193e-06
-1.201313e-06
-1.198956e-06
-1.199876e-06
-1.206261e-06
-0.0007394426
0.0007379518
7.869932e-13
6.311802e-06
-1.205582e-06
-1.204875e-06
-1.204274e-06
-1.212539e-06
-0.0007364684
0.0007349873
5.484518e-13
6.330058e-06
-1.213031e-06
-1.211441e-06
-1.211956e-06
-1.220965e-06
-0.0007335107
0.0007320381
3.49529e-13
6.356155e-06
-1.221636e-06
-1.22002e-06
-1.220903e-06
-1.228985e-06
-0.000730572
0.0007291071
-3.061539e-14
6.381134e-06
-1.229296e-06
-1.228776e-06
-1.229122e-06
-1.233295e-06
-0.0007276432
0.000726178
-5.705731e-13
6.397911e-06
-1.233445e-06
-1.232912e-06
-1.232996e-06
-1.236379e-06
-0.0007247124
0.0007232455
-9.27397e-13
6.412066e-06
-1.2366e-06
-1.235955e-06
-1.236197e-06
-1.238855e-06
-0.0007217785
0.0007203104
-1.17831e-12
6.422523e-06
-1.238671e-06
-1.238533e-06
-1.238373e-06
-1.240146e-06
-0.0007188415
0.000717371
-1.37416e-12
6.429321e-06
-1.239569e-06
-1.239821e-06
-1.239245e-06
-1.240143e-06
-0.0007158986
0.000714424
-1.258344e-12
6.432941e-06
-1.239436e-06
-1.239727e-06
-1.239016e-06
-1.239895e-06
-0.0007129473
0.0007114689
-1.050805e-12
6.435971e-06
-1.239252e-06
-1.239534e-06
-1.238914e-06
-1.239033e-06
-0.0007099887
0.0007085068
-8.527525e-13
6.436071e-06
-1.238266e-06
-1.238824e-06
-1.238067e-06
-1.236672e-06
-0.0007070226
0.0007055367
-6.207455e-13
6.430352e-06
-1.235727e-06
-1.236511e-06
-1.235568e-06
-1.233023e-06
-0.0007040484
0.0007025589
-3.75467e-13
6.419118e-06
-1.231988e-06
-1.232836e-06
-1.231792e-06
-1.228593e-06
-0.0007010673
0.0006995754
-1.959415e-13
6.403662e-06
-1.227503e-06
-1.228379e-06
-1.227284e-06
-1.223586e-06
-0.0006980818
0.0006965888
-2.444199e-13
6.384636e-06
-1.222435e-06
-1.223378e-06
-1.222234e-06
-1.217998e-06
-0.0006950945
0.0006936016
-4.639197e-13
6.36208e-06
-1.216777e-06
-1.21781e-06
-1.216595e-06
-1.211834e-06
-0.0006921079
0.0006906163
-7.294931e-13
6.335957e-06
-1.210549e-06
-1.211651e-06
-1.210369e-06
-1.205114e-06
-0.0006891244
0.0006876355
-1.164512e-12
6.306293e-06
-1.203771e-06
-1.204947e-06
-1.203611e-06
-1.197858e-06
-0.0006861468
0.000684662
-1.696454e-12
6.273086e-06
-1.196448e-06
-1.197719e-06
-1.196312e-06
-1.190118e-06
-0.0006831779
0.0006816987
-2.202407e-12
6.236397e-06
-1.188647e-06
-1.189973e-06
-1.188497e-06
-1.181943e-06
-0.0006802208
0.0006787488
-2.889651e-12
6.196339e-06
-1.180428e-06
-1.181768e-06
-1.180243e-06
-1.173375e-06
0.0006758155
-3.636506e-12
6.153158e-06
-0.0006772787
-1.171788e-06
-1.173198e-06
-1.171621e-06
-1.164346e-06
-0.0006743547
0.000672902
-4.715966e-12
6.106738e-06
-1.162742e-06
-1.164268e-06
-1.162689e-06
-1.154969e-06
-0.0006714523
0.0006700113
-5.346075e-12
6.057441e-06
-1.153285e-06
-1.154946e-06
-1.153253e-06
-1.145277e-06
-0.0006685738
0.0006671461
-6.658614e-12
6.005286e-06
-1.143591e-06
-1.145217e-06
-1.143513e-06
-1.135439e-06
-0.0006657225
0.0006643096
-7.38611e-12
5.951072e-06
-1.133737e-06
-1.135355e-06
-1.133642e-06
-1.125399e-06
-0.0006629013
0.0006615045
-8.561626e-12
5.894802e-06
-1.123689e-06
-1.12531e-06
-1.123588e-06
-1.115246e-06
-0.0006601128
0.0006587333
-9.213544e-12
5.836851e-06
-1.113523e-06
-1.115162e-06
-1.113439e-06
-1.10496e-06
-0.0006573594
0.0006559983
-1.008796e-11
5.777337e-06
-1.103256e-06
-1.104881e-06
-1.103164e-06
-1.094625e-06
-0.0006546432
0.0006533015
-1.036383e-11
5.716572e-06
-1.092928e-06
-1.094528e-06
-1.092819e-06
-1.084248e-06
-0.0006519662
0.0006506449
-1.100186e-11
5.654755e-06
-1.082562e-06
-1.084152e-06
-1.082469e-06
-1.073853e-06
-0.0006493302
0.00064803
-1.105611e-11
5.592067e-06
-1.072174e-06
-1.073766e-06
-1.072083e-06
-1.063442e-06
-0.0006467368
0.0006454585
-1.170593e-11
5.528579e-06
-1.061786e-06
-1.063342e-06
-1.061679e-06
-1.053064e-06
-0.0006441874
0.0006429317
-1.160618e-11
5.464536e-06
-1.051438e-06
-1.052957e-06
-1.051334e-06
-1.042679e-06
-0.0006416834
0.0006404509
-1.260438e-11
5.399919e-06
-1.041081e-06
-1.042597e-06
-1.040998e-06
-1.03236e-06
-0.0006392261
0.0006380173
-1.219766e-11
5.334885e-06
-1.030797e-06
-1.032259e-06
-1.030687e-06
-1.022061e-06
-0.0006368166
0.0006356322
-1.282443e-11
5.269416e-06
-1.020605e-06
-1.021923e-06
-1.020455e-06
-1.011854e-06
-0.0006344562
0.0006332969
-1.190534e-11
5.20369e-06
-1.010469e-06
-1.011697e-06
-1.010329e-06
-1.001516e-06
-0.0006321461
0.0006310125
-1.20551e-11
5.137243e-06
-1.000351e-06
-1.001468e-06
-1.00033e-06
-9.911699e-07
-0.0006298877
0.0006287804
-1.047865e-11
5.0701e-06
-9.901894e-07
-9.911779e-07
-9.901801e-07
-9.806146e-07
-0.000627682
0.000626602
-1.146721e-11
5.001265e-06
-9.800596e-07
-9.805725e-07
-9.799839e-07
-9.69785e-07
-0.0006255312
0.0006244804
-9.875371e-12
4.930153e-06
-9.699369e-07
-9.697223e-07
-9.698307e-07
-9.576691e-07
-0.0006234391
0.0006224226
-1.098118e-11
4.850586e-06
-9.594902e-07
-9.57647e-07
-9.592678e-07
-9.429829e-07
-0.0006214167
0.0006204487
-7.47557e-12
4.748568e-06
-9.476936e-07
-9.434694e-07
-9.464539e-07
-9.153186e-07
-0.0006194836
0.0006185562
-6.40997e-12
4.580557e-06
-9.13497e-07
-9.18588e-07
-9.05828e-07
-7.59712e-07
-0.0006175266
0.0006160364
-1.22999e-11
4.226181e-06
-6.365754e-07
-7.242977e-07
-6.15391e-07
-4.818811e-07
-0.0001530043
0.0001525061
1.456658e-10
9.799124e-07
-6.906263e-07
-0.0001515468
0.0001513071
4.21677e-10
9.299067e-07
-7.773476e-07
-0.0001507821
0.0001506419
-7.687018e-11
9.176703e-07
-8.058941e-07
-0.0001502734
0.0001501623
-5.881408e-11
9.170274e-07
-8.199407e-07
-0.0001498495
0.0001497503
-8.303534e-11
9.192225e-07
-8.27499e-07
-0.0001494621
0.0001493689
-5.754567e-11
9.207691e-07
-8.297003e-07
-0.0001490942
0.0001490044
-3.631946e-11
9.196241e-07
-8.29736e-07
-0.0001487387
0.0001486517
-2.657769e-11
9.167107e-07
-8.284276e-07
-0.0001483945
0.0001483103
-1.872842e-11
9.126989e-07
-8.259947e-07
-0.0001480609
0.0001479792
-1.453057e-11
9.07775e-07
-8.224802e-07
-0.0001477371
0.0001476577
-2.030466e-11
9.0186e-07
-8.182615e-07
-0.000147423
0.0001473461
-2.144471e-11
8.952013e-07
-8.135248e-07
-0.0001471186
0.0001470441
-1.416482e-11
8.880056e-07
-8.086519e-07
-0.0001468241
0.0001467522
-1.026766e-11
8.806005e-07
-8.036388e-07
-0.0001465398
0.0001464704
-7.483672e-12
8.730424e-07
-7.985723e-07
-0.0001462657
0.0001461988
-6.871016e-12
8.653988e-07
-7.934839e-07
-0.0001460018
0.0001459376
-5.047545e-12
8.577072e-07
-7.884198e-07
-0.0001457484
0.0001456868
-2.786771e-12
8.500238e-07
-7.83423e-07
-0.0001455055
0.0001454465
-2.371476e-12
8.42387e-07
-7.784767e-07
-0.0001452731
0.0001452168
-1.786527e-12
8.347953e-07
-7.73584e-07
-0.0001450514
0.0001449977
3.631487e-13
8.272609e-07
-7.687675e-07
-0.0001448404
0.0001447894
1.350618e-12
8.197869e-07
-7.640651e-07
-0.0001446403
0.000144592
1.742922e-12
8.123566e-07
-7.595581e-07
-0.0001444512
0.0001444058
4.47227e-12
8.049541e-07
-7.55039e-07
-0.0001442734
0.000144231
9.452672e-12
7.975141e-07
-7.504214e-07
-0.0001441076
0.000144068
1.160098e-11
7.89978e-07
-7.458912e-07
-0.000143954
0.0001439178
4.615651e-12
7.821492e-07
-7.410281e-07
-0.0001438139
0.0001437811
5.268209e-13
7.738354e-07
-7.357821e-07
-0.0001436885
0.0001436595
5.932881e-12
7.647831e-07
-7.314061e-07
-0.0001435795
0.0001435562
8.824596e-12
7.546872e-07
-7.23601e-07
-0.0001434918
0.0001434733
1.167146e-11
7.420579e-07
-7.139156e-07
-0.0001434319
0.0001434201
1.252859e-11
7.2568e-07
-7.055202e-07
-0.0001434083
0.0001434151
1.562795e-11
6.986658e-07
-6.746918e-07
-0.0001434486
0.0001434744
1.973037e-11
6.488137e-07
-6.123483e-07
-0.0001436208
0.0001437164
1.75114e-11
5.167683e-07
1.513928e-07
-0.0001440536
0.0001439627
2.468366e-11
-6.046241e-08
5.757758e-07
-0.0001436189
0.0001435418
1.003218e-11
-4.98694e-07
6.391563e-07
-0.000143339
0.000143288
7.869547e-12
-5.881645e-07
6.621148e-07
-0.0001431585
0.0001431253
4.215568e-12
-6.289176e-07
6.784523e-07
-0.0001430426
0.0001430198
7.568175e-13
-6.556842e-07
6.893991e-07
-0.0001429638
0.0001429493
-4.267635e-12
-6.748892e-07
6.974893e-07
-0.0001429155
0.0001429075
-5.0874e-12
-6.894851e-07
7.033277e-07
-0.000142892
0.0001428897
-3.882105e-12
-7.010503e-07
7.082217e-07
-0.0001428899
0.0001428924
-3.831214e-12
-7.106855e-07
7.121628e-07
-0.0001429057
0.0001429123
-7.610741e-12
-7.187302e-07
7.155502e-07
-0.0001429372
0.0001429473
-9.701185e-12
-7.256948e-07
7.186678e-07
-0.0001429822
0.0001429954
-7.964698e-12
-7.318765e-07
7.215493e-07
-0.0001430389
0.0001430548
-7.169835e-12
-7.374581e-07
7.24313e-07
-0.0001431059
0.0001431242
-5.197378e-12
-7.426052e-07
7.269622e-07
-0.0001431821
0.0001432025
-5.45522e-12
-7.473809e-07
7.295313e-07
-0.0001432665
0.0001432888
-4.743797e-12
-7.518685e-07
7.320635e-07
-0.0001433582
0.0001433823
-2.913651e-12
-7.561282e-07
7.345464e-07
-0.0001434566
0.0001434823
-2.635401e-12
-7.601921e-07
7.37003e-07
-0.0001435611
0.0001435882
-2.762646e-12
-7.640989e-07
7.394377e-07
-0.0001436712
0.0001436996
-1.063173e-12
-7.678686e-07
7.418482e-07
-0.0001437865
0.0001438162
-2.490867e-13
-7.715217e-07
7.442519e-07
-0.0001439065
0.0001439373
-7.683926e-13
-7.750761e-07
7.466305e-07
-0.000144031
0.0001440629
7.409421e-13
-7.78534e-07
7.490004e-07
-0.0001441596
0.0001441925
3.384018e-12
-7.819171e-07
7.513952e-07
-0.0001442921
0.0001443259
3.693559e-12
-7.852368e-07
7.537185e-07
-0.0001444281
0.0001444628
1.621918e-12
-7.884541e-07
7.559397e-07
-0.0001445673
0.0001446029
5.071653e-13
-7.915297e-07
7.581569e-07
-0.0001447097
0.0001447461
1.510119e-12
-7.94504e-07
7.602878e-07
-0.0001448549
0.0001448919
2.240952e-12
-7.973516e-07
7.623594e-07
-0.0001450025
0.0001450402
3.504071e-12
-8.000762e-07
7.643476e-07
-0.0001451522
0.0001451905
3.188119e-12
-8.026582e-07
7.666086e-07
-0.0001453036
0.0001453423
4.093573e-12
-8.052701e-07
7.685277e-07
-0.000145455
0.0001454939
1.407508e-11
-8.073913e-07
7.706176e-07
-0.0001456126
0.0001456531
3.674364e-11
-8.111293e-07
8.178646e-07
-0.0001457772
0.0001457982
1.261817e-10
-8.389333e-07
7.80053e-07
-0.000145208
0.000588116
5.38945e-12
-3.19895e-06
3.664988e-08
7.803866e-07
3.115983e-08
-0.0001452102
-0.0001480629
-0.0001480642
4.292935e-07
-0.0005901911
0.0005910417
3.676617e-12
-2.962706e-06
6.32179e-07
4.235477e-07
6.270569e-07
5.67393e-07
-0.0005917422
0.0005923919
3.253533e-12
-3.01563e-06
6.19902e-07
5.62872e-07
6.157548e-07
6.266551e-07
-0.000593013
0.0005935215
3.022242e-12
-3.069715e-06
6.575597e-07
6.229605e-07
6.540642e-07
6.632796e-07
-0.0005939894
0.0005944175
3.137859e-12
-3.10344e-06
6.775713e-07
6.600434e-07
6.744394e-07
6.888347e-07
-0.0005948404
0.0005952417
3.55133e-12
-3.165883e-06
6.961254e-07
6.861109e-07
6.935113e-07
7.07001e-07
-0.0005956356
0.0005960247
3.696995e-12
-3.223371e-06
7.123977e-07
7.047919e-07
7.100634e-07
7.322684e-07
-0.0005963921
0.0005967409
4.126166e-12
-3.280396e-06
7.353226e-07
7.303845e-07
7.336019e-07
7.506328e-07
-0.0005970796
0.0005974079
4.379983e-12
-3.331734e-06
7.523818e-07
7.492931e-07
7.510851e-07
7.656073e-07
-0.0005977283
0.0005980425
4.629047e-12
-3.377352e-06
7.670762e-07
7.645002e-07
7.659722e-07
7.776126e-07
-0.0005983519
0.0005986587
4.831862e-12
-3.417987e-06
7.788522e-07
7.767264e-07
7.780167e-07
7.872201e-07
-0.0005989631
0.0005992671
4.89182e-12
-3.453856e-06
7.88408e-07
7.865248e-07
7.877408e-07
7.950026e-07
-0.0005995704
0.0005998747
4.839614e-12
-3.485458e-06
7.96104e-07
7.944478e-07
7.955749e-07
8.013064e-07
-0.0006001795
0.0006004864
4.768863e-12
-3.513226e-06
8.023355e-07
8.008461e-07
8.018826e-07
8.065082e-07
-0.0006007945
0.0006011051
4.732785e-12
-3.53779e-06
8.07454e-07
8.061088e-07
8.070712e-07
8.108855e-07
-0.0006014174
0.0006017324
4.737756e-12
-3.559713e-06
8.117668e-07
8.105619e-07
8.114565e-07
8.146403e-07
-0.0006020493
0.000602369
4.734935e-12
-3.579357e-06
8.154617e-07
8.143652e-07
8.151884e-07
8.179429e-07
-0.0006026905
0.0006030148
4.736686e-12
-3.597106e-06
8.187073e-07
8.176862e-07
8.184569e-07
8.208987e-07
-0.0006033408
0.0006036695
4.808628e-12
-3.613305e-06
8.216258e-07
8.206848e-07
8.214231e-07
8.235982e-07
-0.0006039998
0.0006043325
4.856431e-12
-3.628165e-06
8.242878e-07
8.234153e-07
8.241082e-07
8.261078e-07
-0.0006046667
0.0006050032
4.800002e-12
-3.641883e-06
8.267672e-07
8.259278e-07
8.265839e-07
8.284599e-07
-0.000605341
0.0006056809
4.806005e-12
-3.654653e-06
8.290943e-07
8.283005e-07
8.289423e-07
8.307031e-07
-0.0006060219
0.0006063647
4.869e-12
-3.66661e-06
8.3131e-07
8.305785e-07
8.311954e-07
8.328642e-07
-0.0006067084
0.0006070538
4.793925e-12
-3.677838e-06
8.334536e-07
8.327602e-07
8.333779e-07
8.349395e-07
-0.0006074
0.0006077476
4.746057e-12
-3.688233e-06
8.354886e-07
8.348141e-07
8.353455e-07
8.368609e-07
-0.000608096
0.0006084457
4.876482e-12
-3.697882e-06
8.374325e-07
8.367001e-07
8.372468e-07
8.387365e-07
-0.0006087958
0.0006091471
4.876009e-12
-3.706962e-06
8.392491e-07
8.385831e-07
8.391111e-07
8.405298e-07
-0.0006094988
0.0006098513
4.736706e-12
-3.715476e-06
8.410458e-07
8.40408e-07
8.409307e-07
8.423051e-07
-0.0006102042
0.0006105576
4.681607e-12
-3.723508e-06
8.428032e-07
8.42198e-07
8.427025e-07
8.44013e-07
-0.0006109113
0.0006112654
4.799948e-12
-3.730972e-06
8.445016e-07
8.439065e-07
8.443918e-07
8.456661e-07
-0.0006116196
0.0006119742
4.833047e-12
-3.737896e-06
8.461368e-07
8.455506e-07
8.460252e-07
8.472602e-07
-0.0006123286
0.0006126831
4.649113e-12
-3.744301e-06
8.477194e-07
8.471577e-07
8.476223e-07
8.487862e-07
-0.0006130374
0.0006133917
4.335351e-12
-3.750113e-06
8.492314e-07
8.48686e-07
8.491293e-07
8.502413e-07
-0.0006137457
0.0006140994
4.20896e-12
-3.755284e-06
8.506684e-07
8.501283e-07
8.505555e-07
8.516037e-07
-0.0006144526
0.0006148053
4.188413e-12
-3.759745e-06
8.520195e-07
8.514995e-07
8.519212e-07
8.528479e-07
-0.0006151574
0.0006155087
4.277501e-12
-3.763308e-06
8.532501e-07
8.527497e-07
8.531532e-07
8.539461e-07
-0.0006158592
0.0006162086
4.181368e-12
-3.765745e-06
8.543373e-07
8.538374e-07
8.542246e-07
8.548465e-07
-0.0006165571
0.0006169038
3.909302e-12
-3.766716e-06
8.552154e-07
8.547426e-07
8.551174e-07
8.554658e-07
-0.0006172494
0.0006175926
3.928425e-12
-3.765596e-06
8.557952e-07
8.553833e-07
8.557219e-07
8.556509e-07
-0.0006179342
0.0006182724
4.117085e-12
-3.761317e-06
8.559352e-07
8.555691e-07
8.558774e-07
8.551034e-07
-0.0006186085
0.0006189397
4.044926e-12
-3.751869e-06
8.553033e-07
8.550027e-07
8.55188e-07
8.531929e-07
-0.0006192678
0.0006195886
3.945856e-12
-3.733544e-06
8.533161e-07
8.530653e-07
8.531665e-07
8.486677e-07
-0.0006199042
0.0006202081
3.958953e-12
-3.69816e-06
8.485793e-07
8.485383e-07
8.484618e-07
8.372176e-07
-0.0006205031
0.0006207813
4.013374e-12
-3.624736e-06
8.361208e-07
8.371154e-07
8.360234e-07
8.021087e-07
-0.0006210532
0.0006213314
3.835138e-12
-3.468973e-06
7.933427e-07
8.020266e-07
7.932582e-07
7.099938e-07
-0.0006216545
0.0006220511
3.627953e-12
-3.175304e-06
6.794844e-07
7.099031e-07
6.793588e-07
6.118271e-07
-0.0006225118
0.0006229786
3.646571e-12
-2.904777e-06
6.072587e-07
6.117134e-07
6.071574e-07
5.995708e-07
-0.0006234249
0.0006238529
3.754841e-12
-2.828807e-06
6.009122e-07
5.994755e-07
6.008157e-07
5.923637e-07
-0.0006242744
0.0006246873
3.588046e-12
-2.781453e-06
5.920087e-07
5.922646e-07
5.919112e-07
5.867461e-07
-0.0006250946
0.0006254935
2.998911e-12
-2.746439e-06
5.870943e-07
5.866524e-07
5.870046e-07
5.836558e-07
-0.0006258879
0.000626275
1.849073e-12
-2.72287e-06
5.843174e-07
5.835647e-07
5.842296e-07
5.795866e-07
-0.0006266596
0.0006270368
-6.020117e-13
-2.699325e-06
5.815099e-07
5.795018e-07
5.814468e-07
5.729178e-07
-0.0006274163
0.000627782
3.820432e-12
-2.664084e-06
5.76124e-07
5.730327e-07
5.763196e-07
5.13913e-07
-0.0006282752
0.0006290058
5.2951e-12
-2.809285e-06
5.248661e-07
5.141937e-07
5.25708e-07
5.325165e-07
-0.0006296083
0.0006296048
3.989853e-12
-2.044028e-06
4.905389e-07
5.334019e-07
4.910677e-07
4.94689e-07
-0.0006296912
0.0006301104
3.413882e-12
-2.287227e-06
4.368152e-07
4.973213e-07
4.391355e-07
4.610398e-07
-0.0006305775
0.0006310779
3.255202e-12
-2.312119e-06
4.43328e-07
4.626611e-07
4.447201e-07
4.649703e-07
-0.0006315737
0.0006320767
3.815902e-12
-2.35476e-06
4.598781e-07
4.660659e-07
4.60848e-07
4.791237e-07
-0.0006325619
0.0006330358
4.638201e-12
-2.39354e-06
4.800206e-07
4.798624e-07
4.80687e-07
4.957609e-07
-0.0006334912
0.0006339347
5.367587e-12
-2.432726e-06
4.983727e-07
4.962498e-07
4.988255e-07
5.107685e-07
-0.0006343636
0.0006347842
5.97549e-12
-2.469299e-06
5.13291e-07
5.110833e-07
5.135992e-07
5.247725e-07
-0.0006351933
0.0006355908
6.511429e-12
-2.502966e-06
5.277387e-07
5.249784e-07
5.279263e-07
5.37985e-07
-0.0006359776
0.0006363563
6.940082e-12
-2.535857e-06
5.404358e-07
5.38124e-07
5.405706e-07
5.490338e-07
-0.0006367269
0.0006370908
7.280295e-12
-2.564588e-06
5.512031e-07
5.491288e-07
5.512944e-07
5.582412e-07
-0.0006374484
0.0006378011
7.533879e-12
-2.589264e-06