/*--------------------------------*- C++ -*----------------------------------*\
| =========                 |                                                 |
| \\      /  F ield         | foam-extend: Open Source CFD                    |
|  \\    /   O peration     | Version:     3.1                                |
|   \\  /    A nd           | Web:         http://www.extend-project.de       |
|    \\/     M anipulation  |                                                 |
\*---------------------------------------------------------------------------*/
FoamFile
{
    version     2.0;
    format      ascii;
    class       volScalarField;
    location    "20";
    object      k;
}
// * * * * * * * * * * * * * * * * * * * * * * * * * * * * * * * * * * * * * //

dimensions      [0 2 -2 0 0 0 0];

internalField   nonuniform List<scalar> 
119952
(
0.08463757
0.0810046
0.08027527
0.07863006
0.07684149
0.0754654
0.07503489
0.0750803
0.07537851
0.07581285
0.07632052
0.07686066
0.07740628
0.07794085
0.07845464
0.07894804
0.0794292
0.07990986
0.08046877
0.0814507
0.0840315
0.08196493
0.08218844
0.08435809
0.08134794
0.07985757
0.07861274
0.07747015
0.07505806
0.02654975
0.1010345
0.09841889
0.09610223
0.09474248
0.09428056
0.09451057
0.09517254
0.09606858
0.09706817
0.09811839
0.09337177
0.09345195
0.09595961
0.09948501
0.1031996
0.1067021
0.1098586
0.112655
0.1150715
0.1260771
0.1273087
0.1280953
0.1284302
0.1285249
0.1285723
0.1286596
0.1288279
0.1290793
0.1293
0.1299813
0.1304057
0.1305943
0.1306641
0.130663
0.1306172
0.1305336
0.1303558
0.1302948
0.1326702
0.1326414
0.1317415
0.1315802
0.1315583
0.1312539
0.1305339
0.129603
0.1286368
0.1277008
0.1268006
0.1259347
0.1250963
0.1242791
0.1234795
0.1226976
0.1219329
0.1211751
0.1203994
0.119598
0.1189912
0.1185312
0.1177385
0.1174099
0.1180303
0.1182608
0.1182739
0.1186325
0.1191558
0.1171431
0.1151159
0.1135981
0.1122489
0.1111201
0.1101282
0.1092394
0.1084419
0.1077228
0.1070723
0.1064831
0.1059475
0.1054546
0.1049904
0.1045423
0.1041016
0.1036648
0.1032318
0.1028058
0.1023921
0.1019947
0.1016147
0.1012496
0.1008947
0.100544
0.1001927
0.09983871
0.09948217
0.09912523
0.09877267
0.09842935
0.09809721
0.0977745
0.09745685
0.09713944
0.09681827
0.09649069
0.09615719
0.09582231
0.09549237
0.09517282
0.09486646
0.0945725
0.09428711
0.09400516
0.09372195
0.09343438
0.09314019
0.09283023
0.09251533
0.09226426
0.09216527
0.09213051
0.09214323
0.09216407
0.09217848
0.09217736
0.09215263
0.09210194
0.0920274
0.09193352
0.09182397
0.09170096
0.09156474
0.09141488
0.09125141
0.09107561
0.09089013
0.09069824
0.09050277
0.09030556
0.09010743
0.08990864
0.08970928
0.08950962
0.08931089
0.08911469
0.08892221
0.08873388
0.08854869
0.0883644
0.08817843
0.08798842
0.08779293
0.08759102
0.08738213
0.08716505
0.08693885
0.08670249
0.08645668
0.08620265
0.08594372
0.08568288
0.08542514
0.08517425
0.08493554
0.08471183
0.0845065
0.0843063
0.08413117
0.08421835
0.08399226
0.08306774
0.08199658
0.08085612
0.07967657
0.07853278
0.07742274
0.07636506
0.07536718
0.07443597
0.07357827
0.07279761
0.07209506
0.07146716
0.07090707
0.07039192
0.06986068
0.06927425
0.06865343
0.06804658
0.0674816
0.06698318
0.06655751
0.06620326
0.06590289
0.06564063
0.06540399
0.06519687
0.06501968
0.06486634
0.06474592
0.06464413
0.06447078
0.06427807
0.06406042
0.06460467
0.06548371
0.06681646
0.06926432
0.07309663
0.0766982
0.07872102
0.07940201
0.07902588
0.07785954
0.07618804
0.07426699
0.07228405
0.07035633
0.06852993
0.06680728
0.06522041
0.06376066
0.06245729
0.06132192
0.06034102
0.05951234
0.05887711
0.05845232
0.05821583
0.05777202
0.05591848
0.05328261
0.05656052
0.06495458
0.07032448
0.07237766
0.07245975
0.07123959
0.07342491
0.07197936
0.06977083
0.06731286
0.06518418
0.06339952
0.06198363
0.06092545
0.06011794
0.05949266
0.05901395
0.058708
0.05850969
0.05830111
0.05803458
0.05770547
0.05732507
0.05691187
0.05648444
0.05605824
0.05564828
0.05526674
0.0549197
0.05460799
0.05432947
0.05408058
0.05385736
0.05365541
0.0534694
0.05329318
0.05312042
0.05294515
0.05276232
0.05256799
0.05235948
0.05213549
0.05189601
0.05164222
0.05137635
0.05110145
0.05082115
0.05053928
0.05025989
0.04998756
0.04972955
0.04949026
0.04924631
0.04900124
0.04876869
0.04854749
0.04833526
0.04812996
0.04793665
0.04775447
0.04768941
0.04740027
0.04706079
0.04671225
0.04635361
0.04598922
0.04562477
0.0452648
0.04491278
0.04457088
0.04424032
0.04392166
0.04361507
0.04332038
0.04303716
0.04276485
0.04250289
0.04225083
0.04200819
0.04177456
0.04154956
0.04133297
0.04112467
0.04092475
0.04073347
0.04055143
0.04037928
0.04021772
0.04006876
0.03993476
0.0398179
0.03972098
0.03964924
0.03961199
0.03961694
0.0396684
0.03977008
0.03992697
0.04014451
0.04042907
0.04078714
0.04122378
0.04174105
0.04233656
0.04300184
0.04372014
0.04446822
0.04521752
0.04593269
0.0465738
0.04709917
0.04746729
0.04764426
0.04761431
0.04738197
0.04696775
0.0463986
0.04570108
0.04490856
0.04405766
0.04318263
0.04231582
0.04149583
0.0407594
0.04013043
0.03962559
0.03925689
0.03903406
0.03895662
0.03901706
0.0392077
0.03952103
0.03995087
0.04048693
0.04111696
0.04182819
0.04260738
0.04344119
0.04431549
0.04521563
0.04612336
0.04700859
0.04780636
0.04857181
0.05031483
0.0987808
0.09373135
0.09943546
0.1072454
0.1143334
0.1201643
0.124868
0.1286916
0.1319779
0.1347582
0.143921
0.1546266
0.1645757
0.1731046
0.1800492
0.1855417
0.1898357
0.1931775
0.2184912
0.2185602
0.2184247
0.2178533
0.2171158
0.2163735
0.2157113
0.2151428
0.2146443
0.2140698
0.2137096
0.2131978
0.2122787
0.2111455
0.2099288
0.2087054
0.2075095
0.2063639
0.2052507
0.2043644
0.2035546
0.2024425
0.2011724
0.1998601
0.198537
0.1972278
0.1959559
0.1947334
0.1935756
0.1925283
0.1914679
0.1904309
0.1894097
0.1883739
0.1873229
0.1862711
0.1852404
0.184268
0.1932602
0.1921434
0.191045
0.1899834
0.1889334
0.1878784
0.1868218
0.185773
0.1847535
0.1837522
0.1827646
0.1818185
0.1808938
0.1799574
0.1789981
0.1780173
0.1770434
0.1761712
0.175568
0.1750338
0.1741352
0.1732229
0.1724984
0.171739
0.1707833
0.1696667
0.168481
0.1672744
0.166065
0.1648688
0.1636882
0.1625151
0.1613374
0.1601451
0.1589335
0.1577073
0.1564813
0.1552764
0.1541234
0.1530685
0.1520541
0.1511462
0.150535
0.1501201
0.1496525
0.1491052
0.1484391
0.1473827
0.1458994
0.1445685
0.1434559
0.1424108
0.1414092
0.1404325
0.1394593
0.1384879
0.1375262
0.136585
0.1356769
0.1348095
0.1339812
0.1331823
0.1323995
0.1316213
0.1308395
0.1300524
0.1292668
0.1284949
0.1277501
0.127041
0.1263689
0.1257271
0.1251034
0.1244848
0.123862
0.1232311
0.1225969
0.1219706
0.121364
0.1207843
0.1202309
0.1196963
0.1191704
0.1186424
0.118104
0.1175529
0.1169955
0.116443
0.115908
0.1153991
0.114919
0.1144634
0.1140232
0.113587
0.1131452
0.1126915
0.1122291
0.1117738
0.1113407
0.1109246
0.110518
0.1101286
0.109756
0.1093905
0.1090218
0.1086431
0.1082531
0.1078561
0.1074597
0.1070708
0.1066926
0.1063248
0.105964
0.1056064
0.1052494
0.1048927
0.1045374
0.1041853
0.1038367
0.1034909
0.1031449
0.1027961
0.1024423
0.102084
0.1017234
0.1013633
0.1010048
0.1006458
0.100282
0.09990774
0.09951911
0.09911402
0.09869463
0.09826232
0.09782121
0.09737165
0.09691882
0.09646363
0.09601423
0.09557235
0.09514767
0.09474118
0.09436073
0.09400416
0.09367429
0.09336586
0.09307771
0.0928338
0.09235145
0.09165182
0.09102089
0.09042104
0.08983844
0.08926226
0.08869029
0.08811883
0.08754438
0.08696311
0.08637228
0.085771
0.0851606
0.08454417
0.08392734
0.08331772
0.0827232
0.08215275
0.0816089
0.08109508
0.08061629
0.08018729
0.07982071
0.07952279
0.07929753
0.07914448
0.07905724
0.07902317
0.07902401
0.07903798
0.07904028
0.07900219
0.0788952
0.07867671
0.07830592
0.07780941
0.07726382
0.07663922
0.07587762
0.07504543
0.07436816
0.07409694
0.07429803
0.07492864
0.07590078
0.07707521
0.07829092
0.07939335
0.08025609
0.0808025
0.08101384
0.08091369
0.08055183
0.07998611
0.07928358
0.07851405
0.07773777
0.07700735
0.07635946
0.07579565
0.07533355
0.07491382
0.07410524
0.07220212
0.0701014
0.06906072
0.0692528
0.07027016
0.0719184
0.07423652
0.07767587
0.08023683
0.08300971
0.08594038
0.08890442
0.0917232
0.0941798
0.09609728
0.09739474
0.09806865
0.09815166
0.09767999
0.0967015
0.09534758
0.09378519
0.09213653
0.09045339
0.08877423
0.08712148
0.08550796
0.08397026
0.08253228
0.08120389
0.07998613
0.07887576
0.07786974
0.07696442
0.07615319
0.07542681
0.07477394
0.07418196
0.0736378
0.07312864
0.07264246
0.07216844
0.07169726
0.07122129
0.07073485
0.07023423
0.06971782
0.06918587
0.06864067
0.06808616
0.06752787
0.06697018
0.0664154
0.06586281
0.06531715
0.06478421
0.06426855
0.06376977
0.0632905
0.06282414
0.06236766
0.06193238
0.06150145
0.06106098
0.06061133
0.06015535
0.05969344
0.05922499
0.05874974
0.05826783
0.0577799
0.05728701
0.0567905
0.05629177
0.05579223
0.05529312
0.0547955
0.05430034
0.05380851
0.0533208
0.05283793
0.05236052
0.05188904
0.05142382
0.05096505
0.05051284
0.05006716
0.04962799
0.04919542
0.04876974
0.04835126
0.0479402
0.0475366
0.04714057
0.04675332
0.04638037
0.04602362
0.04568507
0.04536736
0.04507418
0.04481061
0.04458351
0.04440172
0.04427628
0.04422033
0.04424876
0.04437774
0.04462363
0.04500072
0.04551804
0.04617629
0.04696489
0.04785954
0.04881865
0.0497885
0.05073639
0.05162838
0.0524291
0.05310499
0.05362903
0.05398629
0.05417814
0.05422226
0.05414768
0.05398604
0.05376714
0.0535408
0.05335429
0.05324356
0.05323251
0.05333626
0.05356315
0.05391134
0.05437575
0.05494775
0.05561915
0.05637965
0.05721418
0.0580967
0.059009
0.05991848
0.06080681
0.06163975
0.06246209
0.06337755
0.06443081
0.05861352
0.06318645
0.0685131
0.0743292
0.08067622
0.08767773
0.09555077
0.1046389
0.1155318
0.1283178
0.187684
0.2046726
0.2216123
0.2385705
0.2549232
0.2702645
0.2845349
0.3016215
0.3299468
0.3937971
0.4050732
0.4143255
0.4219276
0.4284242
0.4335803
0.4375897
0.4404282
0.4420437
0.442971
0.4434459
0.4443409
0.4445839
0.4437234
0.4417675
0.4389242
0.4353953
0.4313511
0.4272752
0.420744
0.4147429
0.4091564
0.4038766
0.3988408
0.3939668
0.3891924
0.3844632
0.3797654
0.3751401
0.3703769
0.365548
0.3606591
0.3557224
0.3507842
0.345891
0.3410716
0.3363337
0.34442
0.3399963
0.3355082
0.3310337
0.3266031
0.3222076
0.3178565
0.3135663
0.309378
0.3053099
0.3013362
0.2974847
0.2937706
0.2901506
0.2865991
0.2831124
0.2796957
0.2763726
0.2731717
0.2700725
0.2670657
0.2641831
0.2613983
0.2586697
0.2559785
0.253326
0.2507293
0.2482085
0.2457677
0.2434304
0.2412023
0.2390439
0.2369213
0.2348144
0.2327201
0.2306537
0.2286409
0.2266745
0.2247259
0.2228892
0.2211528
0.2194731
0.2178075
0.2161367
0.2144678
0.2128256
0.2112403
0.2097335
0.2083208
0.2069942
0.2057182
0.2044518
0.2031723
0.2018795
0.200608
0.1994107
0.1983355
0.1973634
0.1963914
0.1953957
0.1944287
0.1934456
0.192372
0.1911726
0.1898767
0.188542
0.187223
0.1859522
0.1847315
0.1835348
0.1823262
0.1810801
0.1797904
0.1784636
0.1771272
0.1758136
0.1745522
0.1733765
0.1723088
0.1713455
0.1705154
0.1697947
0.1690696
0.1682228
0.1672412
0.1660528
0.164722
0.1634161
0.1622244
0.1611253
0.1600844
0.1590658
0.1580409
0.1569999
0.1559514
0.1549166
0.1539187
0.1529741
0.1520849
0.1512386
0.1504124
0.1495831
0.1487333
0.1478555
0.1469597
0.1460675
0.1452031
0.1443853
0.1436208
0.142901
0.1422061
0.1415131
0.1408049
0.1400725
0.1393218
0.1385728
0.137847
0.1371593
0.1365124
0.135897
0.1352961
0.1346905
0.1340642
0.1334126
0.1327436
0.1320746
0.1314269
0.1308183
0.1302565
0.1297362
0.1292431
0.1287597
0.1282713
0.127767
0.1272449
0.1267144
0.1261922
0.1256902
0.1252168
0.1247755
0.1243596
0.1239532
0.1235382
0.1231003
0.1226346
0.1221465
0.1216486
0.1211533
0.1206682
0.1201944
0.1197277
0.1192619
0.1187921
0.1183171
0.117839
0.1173617
0.1168875
0.1164159
0.1159433
0.1154642
0.1149745
0.1144732
0.1139637
0.1134512
0.1129391
0.1124259
0.1119052
0.1113687
0.1108088
0.1102232
0.1096138
0.1089858
0.108343
0.1076895
0.107028
0.1063642
0.1057037
0.1050544
0.1044246
0.1038219
0.1032543
0.1027238
0.1022371
0.1017857
0.1013786
0.1010001
0.100771
0.1004305
0.1000044
0.09951868
0.09898817
0.09841715
0.09780809
0.09716027
0.0964718
0.09574165
0.09497137
0.09416598
0.09333363
0.09248476
0.09163191
0.0907897
0.08997261
0.08919473
0.088472
0.08782235
0.08726917
0.08683997
0.0865471
0.08639843
0.08639571
0.08653405
0.08680172
0.08718007
0.08764344
0.08816021
0.08869378
0.08920493
0.08965154
0.08999231
0.09019619
0.09025664
0.09019167
0.08996889
0.08956319
0.08900305
0.08835224
0.08766584
0.08698165
0.08633244
0.08574618
0.08524322
0.08483299
0.08451254
0.08426656
0.0840744
0.08391183
0.08375789
0.08359814
0.08343348
0.08326508
0.08310635
0.08297618
0.08289703
0.08285493
0.08285686
0.082854
0.08273564
0.08229606
0.08156537
0.08076791
0.08012184
0.07961953
0.07924055
0.07889777
0.07852147
0.07886087
0.07960463
0.08077816
0.08239575
0.08445074
0.08687042
0.0895748
0.09242344
0.09526558
0.09795639
0.1003508
0.1023037
0.1036755
0.1043686
0.104345
0.1036436
0.1024055
0.1007947
0.09896561
0.09704131
0.09510426
0.09320971
0.09139393
0.08967797
0.08806971
0.08657944
0.0852198
0.08399471
0.08290059
0.08192845
0.08106577
0.08029808
0.07960989
0.07898551
0.07840954
0.07786729
0.07734523
0.07683139
0.07631578
0.07579076
0.07525119
0.07469451
0.07412072
0.07353194
0.07293175
0.07232427
0.07171389
0.07110611
0.07050818
0.06992632
0.06936522
0.06882688
0.06831202
0.06781799
0.06734327
0.06688011
0.06642271
0.06596866
0.06551587
0.06506155
0.06460309
0.06413882
0.06366812
0.06319116
0.06270863
0.06222156
0.06173113
0.0612385
0.0607447
0.06025057
0.05975684
0.05926425
0.05877351
0.05828529
0.05780019
0.05731866
0.05684096
0.05636713
0.05589707
0.05543055
0.05496722
0.05450678
0.054049
0.05359365
0.05314044
0.05268905
0.05223917
0.05178998
0.05134256
0.05089884
0.05045898
0.0500233
0.04959237
0.04916733
0.04875012
0.0483439
0.04795332
0.04758499
0.04724774
0.04695293
0.04671441
0.04654786
0.04646975
0.04649595
0.04664048
0.04691413
0.04732319
0.0478693
0.0485495
0.04935312
0.05025936
0.05123577
0.05223658
0.05320833
0.05412659
0.05497526
0.05574351
0.05642698
0.05702889
0.05756002
0.05803757
0.05848063
0.05890446
0.0593359
0.05980139
0.06031961
0.0609031
0.0615558
0.06227389
0.06304202
0.06385174
0.06468956
0.06554017
0.06637317
0.06718158
0.06793678
0.06867348
0.06937586
0.0700999
0.04405715
0.04977929
0.05487705
0.08398547
0.1135983
0.150286
0.1750191
0.1997931
0.2231925
0.2449566
0.2638613
0.2801406
0.2960048
0.312228
0.3285977
0.3451715
0.3619068
0.3787399
0.3951844
0.4109727
0.4262001
0.4407037
0.4546749
0.4682505
0.4813752
0.4940039
0.506115
0.5177283
0.5288955
0.5395232
0.549765
0.5831894
0.5870282
0.5895229
0.5903323
0.5897161
0.5878922
0.5849547
0.58097
0.5761263
0.5707272
0.5647944
0.5584445
0.5517827
0.5448779
0.5377855
0.5305559
0.5232381
0.5158839
0.5085245
0.5011601
0.4938616
0.4866104
0.4794157
0.4722901
0.4652281
0.4581423
0.4510374
0.4439768
0.4369832
0.4300613
0.4232294
0.4164805
0.4098018
0.4032114
0.3967049
0.3903618
0.3841272
0.3776227
0.3714504
0.3655979
0.35999
0.3545631
0.3492757
0.3441092
0.3390675
0.3341724
0.3294523
0.3249273
0.3206084
0.3164726
0.3124706
0.308557
0.3047065
0.3009183
0.2972152
0.2936328
0.2902024
0.2869395
0.283833
0.2808412
0.2779127
0.2750103
0.2721241
0.2692738
0.2664985
0.2638392
0.2613256
0.2589602
0.2567059
0.2545092
0.2523175
0.250111
0.2478944
0.2457153
0.2436086
0.2416262
0.2397965
0.2380935
0.2364509
0.2348032
0.2331138
0.2313849
0.2296519
0.2279707
0.2263978
0.2249649
0.2236613
0.222439
0.2212332
0.2199963
0.2187134
0.2174057
0.2161235
0.2149273
0.2138551
0.2128858
0.211967
0.2110623
0.2101225
0.2090822
0.2078985
0.2065888
0.2052237
0.2038869
0.2026329
0.2014702
0.2003692
0.199274
0.1981282
0.1968951
0.1955812
0.1942262
0.1928779
0.1915902
0.1904102
0.1893597
0.1884252
0.1875946
0.1868124
0.1859826
0.1850211
0.183911
0.1826816
0.181393
0.1801347
0.1789797
0.1779308
0.1769442
0.1759612
0.1749428
0.1738766
0.1727747
0.1716736
0.1706163
0.1696347
0.1687384
0.167911
0.1671154
0.1663105
0.1654639
0.1645598
0.1636095
0.162648
0.1617167
0.1608506
0.1600655
0.1593512
0.1586752
0.1579972
0.1572853
0.1565238
0.1557205
0.1549071
0.1541216
0.1533928
0.1527286
0.1521147
0.151524
0.1509278
0.1502978
0.1496209
0.148907
0.1481823
0.147481
0.1468343
0.1462584
0.1457486
0.1452837
0.144836
0.144379
0.1438922
0.1433687
0.1428183
0.1422654
0.1417383
0.1412577
0.1408279
0.1404357
0.1400569
0.1396614
0.139223
0.1387309
0.1381935
0.1376322
0.1370693
0.1365179
0.1359798
0.135448
0.1349124
0.1343646
0.133802
0.1332285
0.1326512
0.1320763
0.1315046
0.1309311
0.130347
0.1297444
0.1291205
0.1284807
0.1278351
0.127191
0.1265481
0.1258975
0.1252246
0.1245168
0.1237693
0.1229864
0.1221766
0.1213467
0.1205011
0.1196434
0.1187784
0.1179139
0.1170589
0.1162247
0.1154216
0.1146609
0.1139477
0.1132897
0.1126817
0.1121231
0.111596
0.1111054
0.1106178
0.110103
0.1095405
0.1089192
0.1082353
0.107489
0.1066809
0.1058113
0.1048813
0.1038952
0.1028619
0.1017942
0.1007081
0.0996217
0.09855359
0.09752233
0.09654702
0.09564783
0.09484594
0.09416778
0.09365456
0.09332352
0.09318657
0.09324861
0.09350561
0.09394358
0.09453846
0.09525618
0.09605304
0.09687809
0.09767769
0.09840105
0.09900493
0.0994574
0.09973759
0.09985332
0.09979914
0.09955965
0.09914212
0.09857223
0.09787536
0.09707062
0.09617651
0.09521474
0.09420998
0.09318781
0.09217177
0.09118157
0.09023276
0.08933645
0.08850144
0.08773778
0.08705671
0.08646789
0.08598399
0.0856198
0.08538346
0.08527278
0.08527616
0.08535372
0.08542122
0.08537661
0.08520297
0.08498308
0.08477745
0.08458533
0.08434822
0.08404511
0.08364509
0.08326099
0.08295213
0.08275679
0.08272103
0.08292028
0.08343654
0.08432965
0.08562199
0.08730227
0.08932008
0.09155534
0.09377757
0.0958356
0.09760824
0.09898772
0.09989888
0.100305
0.1002092
0.09964845
0.09868818
0.09741294
0.09592247
0.09431214
0.09265653
0.09101247
0.08941838
0.0879062
0.08650352
0.08522379
0.08407003
0.08303816
0.08211944
0.08130219
0.08057282
0.07991668
0.07931866
0.0787638
0.07823781
0.07772786
0.07722309
0.07671489
0.07619717
0.0756666
0.07512262
0.07456725
0.07400454
0.07344006
0.07288036
0.07233308
0.07180564
0.07130423
0.07083253
0.07039204
0.06998029
0.06959307
0.06922595
0.06887391
0.06853109
0.0681919
0.06785163
0.06750668
0.0671546
0.06679405
0.06642459
0.06604651
0.06566061
0.06526796
0.06486956
0.06446619
0.06405846
0.06364695
0.06323233
0.06281534
0.06239679
0.06197736
0.06155758
0.06113771
0.06071772
0.06029737
0.05987624
0.0594538
0.05902956
0.05860311
0.05817407
0.05774211
0.0573068
0.05686772
0.05642449
0.05597737
0.05552756
0.05507429
0.05461657
0.05415336
0.05368369
0.05320689
0.05272283
0.05223217
0.05173672
0.05123979
0.05074655
0.05026427
0.04980227
0.04937189
0.04898632
0.04866053
0.04841104
0.04825504
0.04820942
0.04828942
0.04850725
0.04887057
0.04938063
0.05003073
0.05080696
0.05169133
0.05266137
0.05369095
0.05475069
0.05580819
0.05684406
0.0578538
0.05883489
0.05978742
0.06071441
0.06162001
0.06250533
0.06337879
0.06424995
0.06512423
0.06600035
0.06687226
0.06772452
0.06854801
0.06932627
0.07005443
0.07071914
0.07132988
0.07187735
0.07239148
0.02157576
0.02408629
0.02651229
0.03535857
0.04715871
0.06712196
0.0812821
0.09640937
0.1127851
0.1294929
0.1468519
0.1660294
0.186641
0.2078446
0.2300609
0.2551634
0.2937274
0.3117714
0.3300817
0.3486607
0.3676738
0.3862788
0.4039493
0.4208093
0.4372581
0.4535659
0.4694515
0.4848725
0.5000075
0.5147906
0.5291494
0.5429674
0.5561012
0.5683281
0.579566
0.5897535
0.5988484
0.6069138
0.6140489
0.620255
0.6258286
0.6279335
0.62477
0.6216293
0.6175548
0.612193
0.6056491
0.5980952
0.5897292
0.580756
0.5713869
0.5618557
0.5522928
0.5427814
0.5334007
0.5242157
0.5152707
0.5065997
0.498224
0.4901591
0.4824152
0.4749751
0.4678313
0.4609546
0.4543011
0.4478315
0.4415118
0.4353212
0.4292779
0.4232497
0.4172392
0.4113216
0.4055273
0.3998468
0.3942455
0.3887022
0.3832071
0.3777942
0.3724812
0.367281
0.3622912
0.3575513
0.3530101
0.348593
0.3442423
0.3399253
0.3356422
0.3314289
0.3273468
0.3234543
0.3197772
0.3162943
0.3129465
0.30966
0.3063782
0.3030841
0.2998059
0.2966085
0.2935636
0.2907162
0.2880589
0.2855356
0.2830659
0.2805786
0.2780429
0.2754797
0.2729529
0.2705432
0.268312
0.2662792
0.2643976
0.2625788
0.2607344
0.2588164
0.2568319
0.2548433
0.2529372
0.2511926
0.2496493
0.2482755
0.2469781
0.2456564
0.2442465
0.2427416
0.24119
0.2396786
0.2383001
0.2371112
0.2361042
0.2352066
0.2343169
0.2333538
0.2322836
0.2311258
0.2299461
0.2288329
0.2278614
0.2270583
0.2263744
0.225718
0.2249916
0.2241126
0.2230418
0.221807
0.2205015
0.2192367
0.2180943
0.2170965
0.2162036
0.2153327
0.2143851
0.2132977
0.212071
0.2107594
0.2094337
0.2081803
0.2070685
0.2061225
0.2053128
0.2045808
0.2038518
0.2030202
0.2020183
0.2008499
0.1995852
0.1983308
0.197162
0.1961257
0.195216
0.1943654
0.1934883
0.192527
0.191466
0.1903327
0.1891855
0.1880926
0.1871059
0.1862444
0.1854865
0.1847763
0.1840459
0.1832401
0.1823367
0.1813543
0.1803438
0.1793696
0.1784885
0.1777285
0.1770767
0.1764827
0.1758816
0.1752181
0.1744665
0.1736413
0.172791
0.1719776
0.1712504
0.1706252
0.170081
0.1695745
0.169057
0.1684867
0.1678444
0.1671409
0.1664123
0.165711
0.1650866
0.1645648
0.1641371
0.1637701
0.1634223
0.1630583
0.1626456
0.1621686
0.1616407
0.1610959
0.160579
0.160127
0.1597494
0.1594237
0.1591084
0.1587574
0.1583336
0.1578212
0.1572343
0.1566084
0.1559787
0.1553625
0.1547634
0.1541702
0.1535661
0.1529376
0.1522805
0.1516017
0.1509142
0.1502295
0.149551
0.1488714
0.1481767
0.1474527
0.1466933
0.1459067
0.1451109
0.1443201
0.1435356
0.1427439
0.1419212
0.1410454
0.1401091
0.1391218
0.1380998
0.137055
0.1359929
0.1349166
0.1338308
0.1327442
0.1316669
0.1306124
0.1295941
0.1286246
0.127712
0.1268624
0.1260738
0.1253397
0.1246473
0.1239817
0.1233187
0.1226268
0.1218794
0.1210624
0.1201736
0.1192161
0.118193
0.1171045
0.1159504
0.114734
0.1134643
0.1121567
0.1108312
0.1095108
0.1082196
0.1069817
0.1058211
0.1047629
0.1038353
0.103074
0.102535
0.102243
0.1022141
0.1024542
0.1029569
0.1037006
0.1046484
0.105748
0.1069325
0.1081249
0.1092481
0.1102342
0.1110316
0.1116109
0.1119664
0.1121235
0.1120941
0.1118696
0.1114525
0.1108542
0.110087
0.1091609
0.1080877
0.106884
0.1055718
0.1041776
0.1027303
0.1012587
0.09979096
0.09835185
0.09696432
0.09565142
0.09443592
0.093338
0.09237751
0.09157425
0.09094228
0.09048485
0.09019721
0.09006113
0.09002041
0.08999898
0.08996481
0.0899405
0.08993241
0.0899155
0.08984115
0.08967382
0.08938993
0.08899355
0.08850006
0.08792909
0.08731827
0.08672511
0.08621862
0.08586762
0.08573005
0.08584811
0.08624623
0.08692368
0.08784626
0.08895796
0.09017777
0.09140325
0.0925204
0.09341903
0.09401059
0.09423756
0.0941025
0.09363751
0.09287781
0.09186948
0.09068252
0.08939439
0.08806817
0.08675382
0.08548815
0.08429558
0.08319034
0.08217873
0.08126102
0.08043298
0.07968695
0.07901281
0.07839891
0.07783273
0.07730166
0.07679404
0.07629995
0.07581135
0.07532246
0.07483032
0.07433483
0.07383851
0.07334617
0.07286433
0.07240047
0.07196257
0.07155804
0.07119283
0.07087055
0.07059157
0.07035246
0.07014764
0.06997076
0.06981426
0.06966963
0.06952891
0.06938565
0.06923498
0.06907348
0.06889896
0.06871035
0.06850749
0.06829093
0.06806149
0.06781991
0.06756675
0.0673025
0.06702773
0.06674323
0.06644996
0.06614894
0.06584107
0.06552697
0.06520687
0.06488066
0.06454794
0.06420818
0.06386079
0.06350527
0.06314124
0.06276841
0.06238656
0.0619955
0.06159518
0.06118582
0.06076831
0.06034295
0.05990838
0.05946296
0.05900486
0.05853213
0.05804291
0.05753556
0.05700883
0.0564621
0.05589567
0.05531099
0.05471081
0.05409928
0.0534821
0.05286682
0.05226321
0.05168351
0.05114224
0.05065572
0.05024155
0.04991798
0.04970296
0.04961286
0.04966069
0.04985501
0.05019959
0.05069343
0.05133061
0.05209962
0.05298377
0.05396457
0.05502303
0.05613907
0.0572919
0.0584617
0.05963063
0.06078443
0.0619135
0.06301222
0.06407661
0.06510274
0.0660854
0.06701515
0.06788067
0.06866269
0.0693591
0.06996825
0.07049466
0.07093612
0.07132589
0.009233333
0.01075311
0.01191958
0.01772504
0.02441484
0.03322069
0.04048295
0.04873527
0.05770603
0.06731387
0.07790991
0.09046004
0.1043051
0.1198779
0.1386538
0.1677091
0.1832246
0.1996321
0.2163753
0.2333987
0.2506149
0.2678647
0.2849856
0.3018341
0.318225
0.3341261
0.3497197
0.3667796
0.3840672
0.4018457
0.4200848
0.4382172
0.4557565
0.4726221
0.4887953
0.5039411
0.5184168
0.5323523
0.5457664
0.5586121
0.5707862
0.5821388
0.5924829
0.6016688
0.6095908
0.6161364
0.6211981
0.6247616
0.626542
0.6257928
0.6232692
0.6183189
0.6106894
0.6016785
0.59118
0.5794918
0.5669724
0.5539364
0.5406657
0.5274141
0.5144001
0.5018049
0.4897627
0.4783511
0.4676112
0.4575501
0.4481583
0.4394133
0.4312917
0.4237722
0.4168427
0.4104812
0.4046554
0.3993108
0.3944088
0.3898433
0.3855252
0.3813164
0.3770805
0.3729065
0.3688697
0.3650325
0.3613963
0.3579032
0.354467
0.351015
0.3475157
0.3439892
0.340504
0.3371402
0.3339716
0.3310264
0.3282577
0.3255727
0.3228804
0.320119
0.3172754
0.3143956
0.3115712
0.3088995
0.306437
0.3041764
0.3020433
0.2999316
0.2977483
0.2954543
0.2930802
0.2907193
0.28849
0.2864786
0.2846974
0.2830687
0.2814682
0.2797866
0.2779733
0.2760579
0.2741373
0.272331
0.2707334
0.2693776
0.2682031
0.2670792
0.2658768
0.2645279
0.2630481
0.2615256
0.260089
0.258858
0.2578877
0.2571269
0.2564385
0.2556776
0.2547574
0.2536735
0.2524989
0.251361
0.2503994
0.2497
0.2492362
0.2488823
0.2484876
0.2479392
0.247194
0.2462873
0.2453222
0.2444351
0.2437391
0.2432724
0.2429761
0.242719
0.2423298
0.2416842
0.2407527
0.2395956
0.2383582
0.2372088
0.2362668
0.2355622
0.2350264
0.2345097
0.2338442
0.2329355
0.231803
0.2305443
0.2292674
0.2280935
0.2271163
0.2263693
0.2258057
0.2252991
0.2247091
0.223933
0.2229194
0.2217027
0.2203989
0.2191611
0.2180892
0.2172182
0.2165038
0.2158376
0.2151002
0.214213
0.2131607
0.2119906
0.2107959
0.2096787
0.208715
0.2079311
0.2072912
0.2067073
0.206078
0.2053288
0.2044358
0.203432
0.2023942
0.2014178
0.2005853
0.1999339
0.1994371
0.199012
0.1985578
0.1979968
0.1972983
0.1964894
0.1956525
0.1948945
0.1942898
0.1938451
0.1935097
0.1932095
0.1928735
0.1924506
0.1919219
0.1913054
0.1906552
0.1900485
0.1895556
0.1892056
0.1889746
0.1888056
0.1886376
0.1884218
0.1881215
0.1877242
0.1872517
0.1867538
0.1862948
0.1859236
0.185637
0.185397
0.1851398
0.1848018
0.1843334
0.1837221
0.1830017
0.1822325
0.1814698
0.1807395
0.1800407
0.1793513
0.1786433
0.1778948
0.1770996
0.1762695
0.175426
0.1745873
0.1737579
0.1729259
0.1720687
0.1711631
0.1701984
0.1691884
0.168163
0.1671446
0.1661345
0.1651116
0.1640368
0.1628745
0.1616179
0.1602895
0.1589219
0.1575375
0.156144
0.1547439
0.1533424
0.1519491
0.1505752
0.1492345
0.1479425
0.1467112
0.1455481
0.1444563
0.1434294
0.1424557
0.1415225
0.1406104
0.1396856
0.1387086
0.1376493
0.1364963
0.1352558
0.133942
0.1325673
0.1311368
0.1296512
0.1281132
0.1265323
0.1249263
0.1233197
0.1217412
0.1202213
0.1187904
0.1174785
0.1163172
0.1153422
0.1146034
0.1141794
0.1141045
0.1143982
0.1150662
0.1160933
0.1174398
0.1190411
0.1208088
0.1226326
0.1243898
0.1259622
0.1272548
0.1282101
0.1288142
0.1290936
0.1291186
0.1289155
0.1284826
0.1278231
0.1269462
0.1258645
0.1245923
0.1231469
0.1215494
0.1198264
0.1180083
0.1161274
0.1142159
0.1123039
0.1104187
0.1085854
0.106829
0.1051745
0.1036453
0.1022646
0.1010535
0.1000296
0.09920209
0.0985723
0.09812742
0.09783184
0.09763484
0.09749991
0.09741049
0.09734709
0.09727865
0.09716861
0.09698621
0.09670889
0.09632316
0.09582193
0.09520529
0.09448248
0.09367272
0.09280611
0.09192132
0.09106123
0.09027091
0.08959717
0.08908297
0.08875696
0.08862527
0.08866832
0.08884315
0.08908808
0.0893304
0.08949714
0.08952695
0.08938094
0.08904193
0.08851325
0.08782452
0.08701389
0.0861092
0.08514579
0.08415889
0.08317856
0.08222842
0.08132528
0.08047965
0.0796966
0.07897664
0.07831647
0.07770976
0.07714826
0.07662261
0.076123
0.07564045
0.07516814
0.07470114
0.07423677
0.07377554
0.07332094
0.0728789
0.07245716
0.07206465
0.07171067
0.07140399
0.07115182
0.07095898
0.07082741
0.07075522
0.07073622
0.07076149
0.07082107
0.07090396
0.07099881
0.07109547
0.07118583
0.07126398
0.07132579
0.07136852
0.07139063
0.07139163
0.0713718
0.07133168
0.07127173
0.07119225
0.07109347
0.0709759
0.07084052
0.07068858
0.07052135
0.07033983
0.07014459
0.06993565
0.06971263
0.06947499
0.06922213
0.06895357
0.06866905
0.06836853
0.06805209
0.06771993
0.06737231
0.06700978
0.06663337
0.06624497
0.06584379
0.06542799
0.06499546
0.06454395
0.06407113
0.06357471
0.06305253
0.06250262
0.06192337
0.06131363
0.06067283
0.06000116
0.05929961
0.05857019
0.05781628
0.05704304
0.05625775
0.05546997
0.05469148
0.05393622
0.05322021
0.05256116
0.05197774
0.05148826
0.05110955
0.05085647
0.05074162
0.05077424
0.05095891
0.05129543
0.05177944
0.0524026
0.05315247
0.05401225
0.05496173
0.05597848
0.05704012
0.0581248
0.05921287
0.06028591
0.06132856
0.06232605
0.06326642
0.06413913
0.06493131
0.06562488
0.06622462
0.06673224
0.06715484
0.06751882
0.002283769
0.00881365
0.01313553
0.01816001
0.02377613
0.03021856
0.03759381
0.04571809
0.05484911
0.06589195
0.08262934
0.09269951
0.1036579
0.1152382
0.1274885
0.1403469
0.1537533
0.1675905
0.1816741
0.1958665
0.2101463
0.226362
0.2428872
0.2595064
0.2760906
0.2925538
0.3087884
0.3247628
0.3404848
0.3558653
0.3710444
0.386321
0.4021472
0.4182587
0.4346214
0.4510839
0.467209
0.4825744
0.4969846
0.5102865
0.5228348
0.5348436
0.546408
0.5575021
0.568059
0.5779608
0.587043
0.5949972
0.6015894
0.6067056
0.6100869
0.6108688
0.6090152
0.6048011
0.5980734
0.5890039
0.577652
0.5643061
0.5495059
0.5336764
0.5172504
0.5006307
0.4841675
0.4681522
0.4528197
0.4383569
0.4249069
0.412562
0.4013618
0.3912948
0.3822997
0.3742875
0.367164
0.3608576
0.3553179
0.350574
0.3465888
0.3432745
0.3404288
0.3377832
0.3352848
0.33287
0.3304964
0.3281599
0.3259657
0.3240106
0.322339
0.3209089
0.3195994
0.318266
0.316801
0.3151671
0.3134039
0.3116145
0.3099214
0.3084195
0.3071337
0.3060018
0.3049045
0.3037232
0.3023799
0.3008631
0.2992373
0.2976207
0.2961449
0.2948952
0.2938644
0.2929508
0.2919996
0.2908936
0.2895946
0.2881581
0.2867183
0.2854368
0.2844183
0.2836535
0.2830186
0.2823447
0.2815047
0.2804613
0.2792771
0.2780907