/*--------------------------------*- C++ -*----------------------------------*\
| =========                 |                                                 |
| \\      /  F ield         | foam-extend: Open Source CFD                    |
|  \\    /   O peration     | Version:     3.1                                |
|   \\  /    A nd           | Web:         http://www.extend-project.de       |
|    \\/     M anipulation  |                                                 |
\*---------------------------------------------------------------------------*/
FoamFile
{
    version     2.0;
    format      ascii;
    class       volScalarField;
    location    "20";
    object      pd;
}
// * * * * * * * * * * * * * * * * * * * * * * * * * * * * * * * * * * * * * //

dimensions      [1 -1 -2 0 0 0 0];

internalField   nonuniform List<scalar> 
119952
(
5001.992
3226.503
2969.412
3203.747
3455.7
3220.431
3143.592
3079.537
3034.554
2997.946
2966.23
2938.739
2914.502
2892.406
2871.359
2849.97
2828.085
2801.274
2755.042
2625.521
3027.976
2784.622
2658.132
3208.404
3158.698
3190.233
3237.282
3375.219
3853.523
7325.662
3178.085
3115.569
3108.967
3095.474
3083.677
3070.489
3061.352
3053.42
3042.854
3013.186
2996.67
3008.792
2997.471
2988.81
2981.332
2975.335
2970.344
2965.684
2961.908
2979.071
2973.323
2948.69
2940.446
2938.911
2936.836
2935.839
2935.667
2934.88
2942.647
2937.871
2935.408
2945.175
2955.487
2965.819
2977.857
2992.088
3017.563
3106.956
3297.322
3140.158
3074.009
3166.211
3204.762
3171.442
3106.8
3059.107
3021.244
2986.996
2956.85
2930.875
2907.948
2886.946
2867.123
2847.555
2827.14
2805.232
2783.186
2768.698
2790.098
2815.839
2805.792
2925.061
3111.917
3148.198
3157.702
3168.272
3069.657
2722.691
2629.562
2706.58
2726.734
2742.713
2760.944
2773.123
2781.979
2789.351
2795.577
2801.136
2806.382
2811.523
2816.669
2821.8
2826.794
2831.544
2835.913
2839.85
2843.48
2847.024
2850.708
2854.695
2859.034
2863.647
2868.364
2873.03
2877.514
2881.673
2885.527
2889.237
2892.983
2896.898
2901.032
2905.362
2909.817
2914.275
2918.628
2922.888
2927.174
2931.676
2936.597
2942.097
2948.244
2955.003
2962.242
2969.726
2977.106
2984.709
2996.512
3015.531
3035.541
3045.432
3055.867
3069.656
3084.856
3101.185
3118.621
3137.016
3156.282
3176.42
3197.452
3219.418
3242.313
3266.091
3290.688
3316.05
3342.11
3368.817
3396.148
3424.087
3452.602
3481.632
3511.102
3540.952
3571.155
3601.737
3632.808
3664.531
3697.084
3730.662
3765.453
3801.637
3839.364
3878.74
3919.782
3962.438
4006.553
4051.933
4098.313
4145.46
4193.089
4241.021
4289.019
4337.011
4384.809
4432.373
4479.314
4525.417
4573.602
4627.179
4696.314
4733.961
4790.032
4843.961
4899.062
4955.752
5012.99
5070.609
5128.487
5186.035
5242.907
5298.703
5353.027
5405.485
5455.612
5503.53
5548.854
5590.439
5628.069
5661.469
5690.514
5715.009
5734.86
5750.217
5761.173
5767.986
5771.025
5770.559
5767.199
5761.377
5753.53
5744.017
5732.796
5715.36
5696.401
5728.136
5754.627
5772.965
5781.149
5789.281
5811.118
5840.788
5870.843
5901.479
5932.222
5962.752
5993.238
6023.846
6055.022
6086.568
6118.467
6150.855
6183.802
6217.279
6251.571
6286.638
6322.612
6359.08
6396.429
6434.426
6474.941
6516.581
6522.311
6489.372
6511.978
6562.388
6605.964
6640.46
6667.878
6719.255
6730.57
6723.936
6733.467
6739.432
6743.638
6749.426
6754.945
6759.916
6765.249
6772.055
6781.139
6792.678
6806.172
6821.18
6837.52
6854.597
6871.921
6889.288
6906.536
6923.512
6940.12
6956.3
6971.993
6987.14
7001.669
7015.514
7028.632
7041.001
7052.609
7063.45
7073.519
7082.813
7091.333
7099.082
7106.07
7112.311
7117.825
7122.643
7126.806
7130.368
7133.402
7136.012
7138.336
7140.396
7141.464
7140.578
7138.8
7137.187
7135.592
7133.941
7132.455
7131.107
7128.981
7121.708
7119.472
7120.13
7118.065
7115.792
7113.745
7111.72
7109.76
7107.856
7105.989
7104.148
7102.315
7100.473
7098.61
7096.71
7094.765
7092.765
7090.709
7088.6
7086.444
7084.253
7082.045
7079.84
7077.662
7075.542
7073.509
7071.591
7069.807
7068.189
7066.8
7065.652
7064.759
7064.125
7063.781
7063.759
7064.021
7064.532
7065.296
7066.255
7067.37
7068.595
7069.883
7071.18
7072.436
7073.608
7074.623
7075.421
7075.993
7076.335
7076.402
7076.192
7075.713
7074.976
7073.983
7072.777
7071.419
7070.027
7068.699
7067.462
7066.252
7064.986
7063.528
7061.845
7059.982
7057.96
7055.751
7053.347
7050.739
7047.923
7044.875
7041.576
7037.993
7034.073
7029.84
7025.271
7020.335
7014.979
7009.149
7002.697
6995.385
6986.714
6976.199
6966.086
6974.627
7041.141
6171.665
6015.211
5830.269
5654.088
5482.554
5316.859
5157.72
5005.076
4859.309
4712.632
4577.74
4461.84
4345.375
4239.389
4141.024
4050.023
3967.108
3887.447
3800.954
3757.264
3688.233
3622.168
3569.158
3521.474
3477.598
3437.677
3400.047
3367.311
3341.319
3299.597
3272.273
3249.259
3226.234
3205.831
3186.434
3168.008
3152.763
3146.159
3115.186
3093.478
3082.948
3072.975
3062.191
3052.177
3042.619
3033.442
3024.975
3010.068
3004.1
2998.643
2991.239
2983.524
2976.554
2970.27
2965.385
2968.935
2941.141
2937.798
2939.744
2940.081
2937.792
2934.735
2932.497
2931.432
2931.339
2931.281
2934.669
2941.416
2948.647
2956.585
2966.991
2981.895
3003.629
3035.729
3075.276
3108.803
3112.59
3098.533
3097.375
3098.221
3086.543
3059.534
3025.352
2991.862
2962.478
2937.21
2915.1
2895.155
2876.888
2859.931
2843.889
2828.842
2816.058
2807.341
2806.721
2818.725
2844.157
2883.223
2936.388
2997.238
3037.458
3038.998
3002.543
2930.168
2833.87
2760.124
2739.732
2747.804
2762.276
2774.345
2782.671
2788.762
2793.907
2798.777
2803.577
2808.361
2813.255
2818.353
2823.543
2828.528
2833.437
2837.698
2841.317
2844.618
2847.887
2851.421
2855.43
2859.946
2864.805
2869.641
2874.476
2879.134
2883.076
2886.618
2890.067
2893.651
2897.528
2901.723
2906.174
2910.815
2915.385
2919.694
2923.845
2927.993
2932.386
2937.299
2942.922
2949.3
2956.369
2964.036
2972.346
2981.465
2991.693
3003.246
3016.132
3029.52
3042.713
3056.298
3070.924
3086.709
3103.651
3121.631
3140.471
3160.095
3180.536
3201.871
3224.158
3247.397
3271.527
3296.459
3322.101
3348.382
3375.276
3402.792
3430.933
3459.663
3488.892
3518.515
3548.435
3578.606
3609.084
3640.015
3671.606
3704.083
3737.704
3772.692
3809.278
3847.62
3887.824
3929.832
3973.53
4018.664
4064.981
4112.14
4159.862
4207.848
4255.885
4303.788
4351.462
4398.917
4446.308
4494.204
4543.34
4594.432
4642.455
4693.777
4743.758
4794.965
4850.266
4906.255
4963.561
5021.888
5080.831
5139.893
5198.627
5256.565
5313.247
5368.23
5421.111
5471.402
5518.891
5563.12
5603.462
5639.646
5671.501
5698.653
5721.17
5739.019
5752.353
5761.359
5766.318
5767.613
5765.732
5761.223
5754.681
5746.597
5737.594
5728.572
5721.094
5720.084
5731.613
5750.309
5766.91
5781.607
5798.289
5821.738
5849.76
5879.522
5910.073
5940.853
5971.625
6002.311
6032.988
6063.767
6094.716
6126.052
6157.778
6189.719
6222.916
6256.491
6290.74
6325.567
6360.87
6396.619
6431.976
6465.269
6493.28
6505.173
6509.688
6537.104
6573.918
6611.587
6645.049
6675.192
6698.189
6725.299
6737.892
6742.577
6745.749
6752.396
6760.163
6765.112
6767.58
6770.442
6775.853
6784.631
6796.152
6810.043
6824.573
6842.064
6859.138
6876.256
6893.322
6910.241
6926.898
6943.215
6959.129
6974.584
6989.523
7003.834
7017.429
7030.287
7042.401
7053.762
7064.362
7074.197
7083.263
7091.56
7099.092
7105.867
7111.898
7117.203
7121.81
7125.756
7129.083
7131.838
7134.057
7135.735
7136.791
7137.092
7136.521
7135.254
7133.666
7131.991
7130.26
7128.478
7126.582
7124.647
7122.787
7120.029
7117.007
7114.423
7112.288
7110.346
7108.434
7106.53
7104.662
7102.846
7101.073
7099.321
7097.562
7095.776
7093.947
7092.062
7090.115
7088.103
7086.028
7083.899
7081.727
7079.53
7077.331
7075.156
7073.035
7070.999
7069.081
7067.316
7065.736
7064.378
7063.264
7062.421
7061.859
7061.529
7061.626
7061.944
7062.509
7063.31
7064.311
7065.474
7066.756
7068.113
7069.501
7070.873
7072.184
7073.386
7074.442
7075.327
7076.016
7076.469
7076.651
7076.524
7076.143
7075.564
7074.797
7073.919
7072.953
7071.932
7070.891
7069.708
7068.205
7066.421
7064.429
7062.278
7059.998
7057.568
7054.972
7052.257
7049.411
7046.323
7042.94
7039.305
7035.321
7031.045
7026.452
7021.51
7016.226
7010.592
7004.65
6998.541
6992.828
6988.865
6989.322
6995.58
7008.989
3659.036
3709.443
3782.865
3874.933
3984.589
4111.076
4253.643
4411.91
4584.785
4768.933
4963.37
5169.127
5380.297
5596.35
5815.206
6033.974
6247.528
6454.692
6652.981
6857.917
7024.238
7173.445
7300.626
7402.887
7478.484
7526.018
7544.481
7533.716
7499.056
7434.699
7345.223
7233.907
7104.304
6959.088
6801.262
6633.844
6460.189
6283.712
6093.887
5916.94
5740.063
5566.862
5398.802
5236.348
5080.498
4931.876
4791.522
4658.487
4529.185
4411.762
4301.25
4197.892
4102.406
4013.952
3932.996
3868.461
3754.414
3690.961
3639.499
3589.373
3540.465
3494.568
3452.471
3413.96
3378.554
3345.242
3314.056
3286.858
3261.88
3237.906
3215.356
3194.652
3175.505
3157.616
3140.574
3123.957
3109.033
3095.325
3082.195
3069.868
3058.5
3047.807
3037.44
3027.172
3017.081
3008.372
3000.727
2993.19
2985.932
2979.082
2972.343
2965.523
2958.296
2951.217
2944.419
2940.845
2939.275
2936.417
2932.726
2929.374
2926.897
2925.353
2924.699
2925.653
2928.79
2933.51
2939.889
2948.365
2959.435
2973.679
2991.38
3011.952
3034.492
3056.799
3067.291
3061.457
3054.168
3051.713
3044.625
3026.107
2999.142
2970.78
2945.046
2922.79
2903.421
2886.149
2870.683
2856.794
2844.114
2832.972
2824.131
2818.752
2820.122
2831.199
2851.411
2878.423
2912.801
2950.665
2974.035
2973.714
2949.199
2905.34
2847.029
2791.703
2764.605
2765.036
2775.06
2783.825
2789.78
2794.324
2798.01
2801.465
2805.169
2809.217
2813.733
2818.816
2824.246
2829.258
2834.344
2838.877
2842.14
2844.968
2847.779
2850.982
2854.91
2859.633
2864.924
2870.062
2874.961
2879.937
2883.826
2886.917
2889.958
2893.252
2897.002
2901.119
2905.505
2910.518
2915.542
2919.789
2923.734
2927.583
2931.627
2936.27
2941.801
2948.28
2955.606
2963.634
2972.464
2982.039
2991.925
3002.289
3013.529
3026.077
3039.537
3053.465
3068.154
3084.056
3101.288
3119.616
3138.679
3158.396
3178.887
3200.292
3222.694
3246.086
3270.387
3295.485
3321.263
3347.627
3374.559
3402.113
3430.334
3459.184
3488.535
3518.216
3548.074
3578.006
3608.065
3638.451
3669.44
3701.335
3734.461
3769.125
3805.606
3844.151
3884.849
3927.639
3972.267
4018.453
4065.76
4113.87
4162.292
4210.838
4259.049
4306.967
4354.212
4401.189
4447.68
4494.468
4541.169
4588.777
4637.799
4690.532
4744.665
4799.618
4855.795
4913.536
4972.96
5033.814
5095.572
5157.62
5219.35
5280.166
5339.484
5396.731
5451.356
5502.855
5550.701
5594.468
5633.744
5668.184
5697.637
5721.979
5741.321
5755.698
5765.328
5770.549
5771.769
5769.487
5764.285
5756.838
5747.918
5738.412
5729.361
5722.276
5718.887
5720.914
5728.346
5741.433
5757.779
5776.405
5797.994
5823.258
5851.939
5882.674
5914.539
5946.937
5979.444
6011.823
6043.964
6075.87
6107.555
6139.109
6170.582
6202.146
6233.902
6265.867
6298.092
6330.685
6363.123
6395.16
6426.653
6454.987
6478.262
6499.51
6519.509
6546.784
6578.005
6609.644
6638.572
6666.17
6693.852
6718.816
6735.365
6742.813
6746.81
6752.224
6759.374
6766.025
6771.332
6776.78
6784.647
6795.348
6807.75
6821.31
6836.539
6850.483
6865.956
6881.975
6897.922
6913.939
6929.927
6945.724
6961.189
6976.197
6990.717
7004.707
7018.054
7030.68
7042.589
7053.774
7064.224
7073.931
7082.889
7091.096
7098.551
7105.26
7111.23
7116.474
7121.013
7124.873
7128.082
7130.665
7132.64
7134.009
7134.764
7134.882
7134.342
7133.184
7131.614
7129.835
7127.964
7125.989
7123.972
7121.768
7119.267
7116.769
7114.493
7112.327
7110.206
7108.135
7106.123
7104.182
7102.324
7100.545
7098.827
7097.139
7095.449
7093.732
7091.966
7090.137
7088.234
7086.253
7084.196
7082.07
7079.887
7077.664
7075.424
7073.196
7071.013
7068.909
7066.921
7065.086
7063.44
7062.021
7060.86
7059.985
7059.417
7059.169
7059.106
7059.365
7059.897
7060.668
7061.642
7062.781
7064.049
7065.405
7066.811
7068.23
7069.625
7070.955
7072.186
7073.293
7074.253
7075.036
7075.612
7075.95
7076.021
7075.875
7075.576
7075.118
7074.49
7073.705
7072.775
7071.715
7070.493
7069.059
7067.382
7065.462
7063.341
7060.999
7058.395
7055.57
7052.549
7049.313
7045.883
7042.268
7038.399
7034.223
7029.765
7024.988
7019.981
7014.726
7009.519
7004.45
7000.291
6997.326
6996.955
6998.99
7005.298
3708.757
3669.052
3635.514
3602.707
3576.687
3560.18
3558.384
3574.714
3605.504
3616.145
3609.083
3619.515
3652.663
3705.281
3776.746
3866.069
3971.979
4094.277
4232.681
4384.497
4551.027
4730.065
4919.02
5117.2
5322.439
5532.513
5745.103
5957.612
6167.652
6372.61
6569.232
6791.319
6963.283
7108.284
7230.284
7327.915
7398.44
7440.397
7453.448
7438.441
7397.027
7329.399
7236.928
7122.66
6989.938
6842.01
6682.129
6513.32
6338.53
6160.559
5981.917
5805.054
5631.025
5461.066
5296.321
5137.698
4985.86
4841.323
4704.472
4575.173
4453.325
4339.447
4233.637
4135.422
4044.253
3959.47
3880.545
3806.372
3733.71
3671.359
3618.939
3569.392
3521.557
3477.005
3436.222
3398.762
3363.91
3331.678
3302.538
3275.805
3250.99
3228.193
3207.106
3187.347
3168.586
3150.531
3133.352
3117.879
3103.566
3089.672
3076.948
3065.544
3054.864
3044.329
3033.692
3023.176
3013.332
3004.23
2996.232
2989.545
2983.416
2977.146
2970.307
2962.922
2955.313
2948.682
2942.506
2937.242
2933.862
2931.05
2928.261
2925.577
2923.067
2920.856
2919.358
2919.361
2921.274
2925.096
2931.216
2939.455
2949.52
2960.996
2973.461
2986.657
3000.446
3013.617
3021.579
3021.642
3017.968
3013.932
3006.94
2992.84
2972.083
2948.792
2926.542
2907.261
2890.826
2876.128
2863.744
2853.202
2843.643
2835.221
2828.035
2823.68
2825.775
2834.033
2848.981
2868.908
2891.736
2915.865
2929.888
2928.947
2912.231
2882.259
2845.312
2808.32
2784.84
2781.001
2786.419
2792.717
2796.518
2799.289
2801.945
2804.024
2806.375
2809.562
2813.737
2818.913
2825.046
2830.974
2835.663
2839.871
2842.986
2845.117
2847.221
2849.948
2853.813
2858.899
2864.767
2871.049
2876.194
2880.573
2884.467
2887.113
2889.545
2892.425
2896.136
2900.501
2905.274
2910.231
2915.239
2919.596
2923.234
2926.592
2930.106
2934.389
2939.84
2946.448
2953.979
2962.02
2971.16
2981.28
2990.744
3000.339
3010.62
3022.008
3034.645
3048.445
3063.425
3079.666
3097.297
3116.096
3135.426
3155.196
3175.66
3197.082
3219.601
3243.194
3267.726
3293.039
3318.98
3345.416
3372.347
3399.911
3428.226
3457.261
3486.799
3516.573
3546.338
3575.887
3605.258
3634.746
3664.721
3695.587
3727.801
3761.767
3797.874
3836.495
3877.774
3921.582
3967.551
4015.229
4064.075
4113.597
4163.258
4212.689
4261.484
4309.472
4356.419
4402.396
4447.46
4492.025
4536.599
4582.063
4629.642
4680.834
4734.561
4789.805
4846.756
4905.965
4967.524
5031.095
5096.041
5161.607
5227.031
5291.559
5354.458
5415.002
5472.474
5526.221
5575.673
5620.311
5659.682
5693.505
5721.726
5744.278
5761.197
5772.674
5779.072
5780.845
5778.517
5772.689
5764.062
5753.434
5741.733
5730.045
5719.608
5711.714
5707.545
5707.837
5714.743
5726.92
5743.625
5763.794
5787.292
5814.372
5844.553
5876.833
5910.429
5944.731
5979.214
6013.487
6047.277
6080.428
6112.885
6144.646
6175.772
6206.404
6236.719
6266.78
6296.757
6326.739
6356.624
6385.924
6414.829
6442.712
6468.298
6491.259
6514.562
6541.912
6572.444
6603.163
6633.294
6660.898
6684.97
6706.355
6723.538
6735.838
6744.843
6753.508
6763.411
6773.443
6782.253
6790.02
6798.119
6807.799
6819.412
6832.573
6846.827
6861.324
6876.372
6891.641
6907.141
6922.414
6937.563
6952.461
6967.127
6981.341
6995.092
7008.361
7021.112
7033.273
7044.797
7055.653
7065.818
7075.276
7084.017
7092.034
7099.323
7105.884
7111.722
7116.842
7121.256
7124.984
7128.044
7130.449
7132.22
7133.373
7133.922
7133.87
7133.233
7132.054
7130.462
7128.6
7126.582
7124.437
7122.191
7119.8
7117.33
7114.942
7112.641
7110.359
7108.11
7105.959
7103.945
7102.067
7100.307
7098.641
7097.037
7095.459
7093.874
7092.251
7090.565
7088.795
7086.93
7084.966
7082.903
7080.749
7078.514
7076.218
7073.883
7071.541
7069.227
7066.983
7064.85
7062.871
7061.087
7059.539
7058.26
7057.275
7056.596
7056.223
7056.133
7056.343
7056.827
7057.552
7058.484
7059.586
7060.821
7062.152
7063.543
7064.957
7066.358
7067.711
7068.986
7070.162
7071.222
7072.141
7072.895
7073.47
7073.874
7074.139
7074.285
7074.305
7074.191
7073.925
7073.46
7072.811
7071.996
7070.937
7069.584
7067.952
7066.084
7063.995
7061.65
7059.011
7056.106
7052.983
7049.654
7046.095
7042.303
7038.241
7033.952
7029.415
7024.781
7020.019
7015.452
7011.057
7007.554
7004.824
7003.89
7004.39
7007.406
4240.906
4197.033
4153.967
4108.284
4059.399
4006.268
3956.511
3906.573
3857.282
3808.827
3761.74
3717.536
3675.319
3636.885
3603.714
3575.614
3553.737
3544.325
3544.024
3548.587
3554.263
3566.399
3591.185
3631.761
3689.149
3762.331
3852.21
3959.608
4083.462
4223.03
4377.226
4544.811
4724.669
4915.222
5114.465
5320.319
5530.492
5742.971
5955.774
6165.433
6367.288
6559.044
6728.779
6893.139
7036.905
7158.924
7256.35
7326.409
7367.602
7379.542
7362.832
7319.079
7249.765
7156.54
7041.96
6909.182
6761.401
6601.818
6433.502
6259.502
6082.555
5904.954
5729.301
5557.469
5390.323
5228.439
5072.136
4922.277
4779.544
4644.13
4516.665
4397.609
4287.199
4185.141
4090.635
4002.651
3920.549
3843.304
3771.343
3704.994
3645.389
3592.881
3545.07
3500.403
3458.795
3420.11
3383.921
3349.961
3318.48
3289.875
3264.009
3240.741
3219.733
3200.138
3181.249
3162.698
3144.489
3127.124
3111.562
3097.093
3084.155
3073.152
3063.063
3052.973
3042.342
3031.195
3020.116
3010.022
3000.641
2992.808
2987.193
2982.176
2976.368
2969.324
2961.211
2952.506
2944.696
2938.295
2932.536
2929.386
2927.724
2925.795
2923.19
2919.879
2916.157
2912.69
2910.109
2910.95
2915.337
2920.815
2928.165
2936.633
2944.886
2952.678
2960.122
2967.414
2974.283
2979.405
2982.958
2983.554
2979.898
2973.835
2962.71
2946.007
2926.133
2906.124
2888.94
2875.986
2864.197
2855.044
2848.29
2841.564
2834.633
2828.214
2823.918
2824.371
2829.364
2839.402
2854.406
2873.207
2889.602
2897.961
2896.928
2884.547
2862.567
2837.11
2813.69
2797.163
2792.006
2794.866
2799.765
2803.013
2804.472
2805.518
2805.89
2806.769
2809.008
2813.064
2819.021
2826.165
2833.096
2837.862
2841.471
2843.899
2844.998
2845.965
2847.982
2851.887
2857.827
2864.991
2872.34
2878.064
2882.237
2885.553
2887.361
2888.764
2890.992
2894.55
2899.313
2905.131
2910.087
2914.54
2919.101
2922.426
2924.945
2927.518
2931.241
2936.745
2943.794
2951.93
2960.298
2969.28
2979.48
2988.749
2997.406
3006.425
3016.344
3027.89
3041.417
3056.714
3073.475
3091.876
3111.43
3130.8
3150.42
3170.761
3192.173
3214.833
3238.69
3263.554
3289.188
3315.37
3341.842
3368.668
3396.189
3424.666
3454.063
3483.979
3513.982
3543.719
3572.75
3601.12
3629.308
3657.756
3686.965
3717.663
3750.413
3785.779
3824.384
3866.442
3911.697
3959.571
4009.393
4060.451
4112.067
4163.57
4214.426
4264.166
4312.456
4359.019
4403.778
4446.854
4488.756
4530.5
4573.388
4618.635
4667.148
4719.003
4773.862
4831.721
4892.794
4957.041
5024.01
5092.952
5162.978
5233.156
5302.546
5370.21
5435.219
5496.674
5553.765
5605.782
5652.113
5692.286
5726.02
5753.162
5773.812
5788.066
5796.269
5798.868
5796.434
5789.658
5779.281
5766.135
5751.159
5735.422
5720.148
5706.667
5696.306
5690.287
5689.682
5695.433
5707.272
5724.515
5746.236
5771.853
5800.981
5833.025
5867.213
5902.835
5939.259
5975.906
6012.28
6047.969
6082.67
6116.201
6148.468
6179.487
6209.381
6238.359
6266.582
6294.313
6321.719
6348.91
6375.893
6402.967
6429.547
6455.068
6479.928
6505.967
6534.403
6564.654
6594.97
6624.189
6651.046
6675.078
6696.505
6715.404
6731.54
6745.012
6756.993
6768.667
6780.034
6790.574
6800.442
6810.482
6821.677
6834.421
6848.223
6862.479
6876.826
6891.264
6905.706
6920.152
6934.504
6948.595
6962.47
6976.104
6989.2
7002.029
7014.455
7026.435
7037.932
7048.872
7059.209
7068.91
7077.953
7086.322
7094.007
7101.001
7107.3
7112.904
7117.812
7122.028
7125.571
7128.448
7130.665
7132.246
7133.213
7133.581
7133.37
7132.613
7131.358
7129.692
7127.717
7125.525
7123.172
7120.701
7118.144
7115.561
7113.011
7110.514
7108.089
7105.785
7103.65
7101.702
7099.926
7098.292
7096.764
7095.306
7093.874
7092.42
7090.911
7089.316
7087.609
7085.778
7083.819
7081.735
7079.53
7077.215
7074.81
7072.338
7069.834
7067.342
7064.906
7062.577
7060.403
7058.434
7056.714
7055.281
7054.164
7053.377
7052.921
7052.784
7052.956
7053.411
7054.115
7055.03
7056.119
7057.344
7058.668
7060.054
7061.467
7062.872
7064.238
7065.539
7066.756
7067.875
7068.889
7069.792
7070.582
7071.274
7071.868
7072.38
7072.803
7073.115
7073.298
7073.337
7073.223
7072.921
7072.358
7071.497
7070.312
7068.799
7067.023
7065.002
7062.704
7060.149
7057.335
7054.226
7050.813
7047.174
7043.312
7039.28
7035.054
7030.806
7026.496
7022.511
7018.52
7015.343
7012.767
7011.472
7011.195
7012.533
4675.051
4625.513
4579.34
4535.695
4495.071
4449.581
4409.598
4369.735
4329.028
4287.243
4245.022
4202.375
4157.377
4111.679
4062.96
4007.095
3957.268
3907.727
3858.442
3809.764
3762.074
3716.282
3672.761
3632.393
3596.012
3564.763
3539.529
3522.163
3512.26
3508.989
3512.745
3526.258
3551.821
3591.572
3646.954
3719.338
3808.321
3913.84
4035.72
4173.359
4325.735
4491.548
4669.381
4857.607
5054.424
5257.859
5465.363
5674.333
5882.717
6088.221
6287.708
6478.655
6655.278
6817.135
6958.927
7077.806
7171.087
7236.54
7272.852
7279.779
7258.117
7209.555
7136.201
7040.223
6924.116
6790.721
6643.007
6484.06
6316.715
6144.148
5969.123
5794.102
5621.89
5454.338
5292.114
5135.535
4984.601
4839.198
4699.681
4567.066
4442.804
4327.868
4222.309
4125.348
4035.789
3952.335
3874.136
3800.587
3732.139
3669.106
3611.94
3561.422
3516.58
3475.529
3437.176
3400.849
3366.091
3332.978
3301.968
3274.21
3249.794
3228.513
3209.778
3191.858
3173.963
3155.696
3137.185
3119.01
3103.231
3089.702
3077.822
3068.944
3060.45
3051.039
3040.271
3028.406
3015.966
3004.087
2995.605
2989.419
2984.761
2981.18
2975.988
2968.652
2959.605
2949.675
2939.887
2932.347
2927.653
2925.646
2924.942
2923.422
2920.373
2915.79
2910.07
2904.021
2899.101
2898.629
2903.217
2909.001
2915.485
2922.098
2927.401
2930.88
2932.786
2934.101
2935.881
2938.913
2945.714
2948.568
2946.854
2943.591
2935.238
2921.002
2902.788
2884.413
2868.914
2857.278
2850.832
2846.236
2842.384
2838.467
2832.617
2825.894
2820.321
2818.131
2820.354
2827.221
2841.33
2858.67
2868.458
2874.026
2873.262
2863.16
2846.505
2827.154
2811.131
2801.188
2797.823
2801.22
2806.649
2810.405
2810.855
2809.507
2807.37
2806.199
2807.227
2811.246
2818.523
2827.459
2835.662
2841.172
2844.483
2845.434
2844.62
2843.73
2844.645
2848.667
2856.081
2865.28
2874.071
2880.877
2885.37
2887.567
2887.711
2887.355
2888.658
2892.531
2898.078
2904.343
2909.864
2914.726
2919.054
2921.558
2922.636
2923.631
2926.53
2932.332
2940.023
2948.53
2958.427
2967.766
2976.185
2985.403
2993.207
3000.395
3008.383
3018.917
3032.598
3048.384
3064.954
3083.987
3105.753
3125.025
3143.933
3163.851
3185.208
3208.149
3232.484
3257.816
3283.827
3310.351
3336.784
3363.282
3390.642
3419.414
3449.541
3480.2
3510.664
3540.576
3568.903
3595.77
3622.165
3648.625
3675.472
3703.773
3734.416
3768.35
3806.708
3849.828
3897.192
3947.771
4000.552
4054.656
4109.196
4163.289
4216.238
4267.478
4316.467
4362.701
4405.949
4446.415
4484.826
4522.556
4561.265
4602.411
4647.37
4696.961
4751.232
4810.036
4873.322
4940.87
5012.078
5086.046
5161.724
5237.982
5313.648
5387.539
5458.471
5525.301
5586.979
5642.61
5691.488
5733.101
5767.086
5793.278
5811.729
5822.816
5827.024
5824.971
5817.369
5805.023
5788.829
5769.762
5748.886
5727.42
5706.858
5688.756
5674.613
5665.854
5663.652
5668.679
5680.823
5699.324
5723.066
5751.109
5782.765
5817.329
5854.075
5892.341
5931.496
5970.885
6009.925
6048.058
6084.802
6119.811
6152.87
6183.923
6213.073
6240.562
6266.673
6291.817
6316.402
6340.782
6365.102
6389.669
6414.653
6440.164
6466.423
6494.09
6523.533
6554.209
6584.88
6614.431
6642.044
6667.299
6690.228
6710.981
6729.37
6745.294
6759.369
6772.581
6785.489
6798.135
6810.554
6823.092
6836.244
6850.147
6864.518
6879.024
6893.459
6907.735
6921.745
6935.504
6949.012
6962.159
6974.957
6987.35
6999.628
7011.473
7022.965
7034.084
7044.756
7054.919
7064.539
7073.583
7082.029
7089.858
7097.057
7103.616
7109.526
7114.785
7119.385
7123.319
7126.622
7129.278
7131.272
7132.655
7133.436
7133.631
7133.268
7132.382
7131.016
7129.231
7127.105
7124.713
7122.118
7119.38
7116.553
7113.717
7110.929
7108.224
7105.656
7103.297
7101.185
7099.304
7097.632
7096.137
7094.776
7093.496
7092.245
7090.968
7089.613
7088.131
7086.502
7084.711
7082.758
7080.647
7078.379
7075.965
7073.422
7070.777
7068.068
7065.349
7062.673
7060.098
7057.682
7055.484
7053.555
7051.942
7050.676
7049.777
7049.249
7049.084
7049.256
7049.725
7050.45
7051.391
7052.508
7053.765
7055.124
7056.548
7057.999
7059.444
7060.851
7062.195
7063.46
7064.638
7065.732
7066.743
7067.678
7068.558
7069.391
7070.187
7070.936
7071.627
7072.244
7072.768
7073.166
7073.42
7073.407
7073.097
7072.469
7071.534
7070.314
7068.787
7066.926
7064.737
7062.225
7059.411
7056.324
7053.021
7049.493
7045.807
7041.952
7038.082
7034.161
7030.412
7027.045
7024.168
7021.753
7020.222
7019.414
7019.512
4906.066
4887.623
4839.945
4780.317
4721.033
4667.823
4619.067
4574.317
4532.882
4491.442
4445.723
4406.466
4367.278
4327.369
4286.399
4244.329
4201
4156.034
4109.526
4062.223
4015.051
3965.98
3916.523
3866.906
3817.518
3768.659
3720.659
3673.653
3628.59
3586.728
3549.376
3518.58
3494.72
3478.755
3471.697
3474.106
3487.69
3513.965
3554.024
3609.239
3680.356
3767.754
3871.518
3991.485
4127.1
4277.415
4441.171
4617.005
4802.954
4997.01
5197.089
5399.759
5603.998
5807.681
6008.96
6205.232
6392.296
6565.452
6721.33
6856.868
6968.712
7054.211
7111.55
7139.733
7138.753
7109.72
7054.641
6976.073
6876.535
6758.606
6624.946
6478.034
6320.883
6155.886
5986.004
5814.525
5643.882
5476.669
5315
5159.54
5010.332
4866.753
4727.768
4593.843
4466.816
4348.172
4239.169
4140.262
4050.333
3967.514
3890.119
3817.149
3748.153
3683.292
3623.088
3568.828
3522.043
3481.568
3444.954
3410.389
3376.953
3343.939
3311.668
3280.762
3253.901
3232.267
3213.702
3197.952
3182.085
3165.479
3147.483
3128.436
3109.248
3091.649
3079.496
3071.272
3064.379
3057.696
3048.992
3037.835
3024.662
3010.586
2997.346
2988.8
2984.577
2982.558
2980.868
2976.387
2968.431
2957.851
2945.943
2933.894
2924.123
2920.333
2921.148
2922.334
2921.289
2917.574
2911.388
2903.177
2893.668
2885.214
2882.784
2888.215
2895.746
2902.326
2907.491
2910.093
2909.196
2905.169
2900.023
2896.795
2897.604
2907.831
2916.091
2916.923
2916.096
2909.837
2896.634
2878.022
2859.713
2847.296
2835.415
2833.289
2835.714
2837.426
2835.817
2830
2821.245
2812.578
2807.317
2806.861
2812.213
2824.948
2842.635
2853.71
2858.804
2856.752
2846.484
2831.595
2816.091
2803.574
2797.005
2798.456
2806.419
2814.669
2819.211
2818.101
2813.44
2807.633
2803.587
2802.996
2807.129
2817.084
2829.478
2839.82
2846.23
2848.929
2847.768
2843.777
2839.66
2838.726
2843.018
2853.313
2866.125
2877.372
2885.373
2889.949
2890.617
2887.922
2884.427
2884.394
2889.328
2896.303
2903.296
2909.83
2915.686
2919.721
2920.867
2919.492
2917.697
2919.437
2926.508
2935.944
2945.678
2956.003
2965.336
2973.526
2982.257
2988.519
2992.868
2997.821
3006.966
3021.431
3038.8
3056.863
3076.047
3098.383
3117.907
3135.789
3154.871
3176.027
3199.405
3224.65
3250.92
3277.456
3304.5
3330.551
3356.201
3383.166
3412.457
3443.972
3475.994
3507.328
3538.026
3565.325
3589.951
3613.695
3637.282
3660.914
3686.263
3713.656
3744.863
3782.576
3827.105
3877.504
3931.909
3988.702
4046.863
4105.352
4162.985
4218.842
4272.284
4322.56
4368.782
4410.262
4447.027
4480.217
4512.274
4545.346
4580.794
4621.037
4667.813
4721.203
4780.89
4846.689
4918.196
4994.582
5074.748
5157.436
5241.255
5324.759
5406.479
5484.917
5558.609
5626.237
5686.652
5738.938
5782.497
5816.962
5842.262
5858.479
5865.921
5865.267
5857.444
5843.473
5824.333
5801.008
5774.612
5746.294
5717.329
5689.465
5664.887
5645.642
5633.285
5629.032
5633.646
5646.875
5667.547
5694.234
5725.705
5760.861
5798.722
5838.557
5879.861
5922.153
5964.805
6007.055
6048.126
6087.338
6124.164
6158.251
6189.431
6217.783
6243.613
6267.334
6289.484
6310.684
6331.659
6352.903
6374.941
6398.26
6423.102
6449.873
6478.865
6509.839
6541.97
6574.1
6605.177
6634.469
6661.552
6686.264
6708.528
6728.372
6746.02
6762.003
6777.055
6791.75
6806.302
6820.742
6835.205
6849.926
6864.96
6880.205
6895.426
6910.406
6924.999
6939.104
6952.696
6965.745
6978.249
6990.263
7001.825
7013.032
7023.812
7034.237
7044.223
7053.83
7063.007
7071.705
7079.897
7087.561
7094.68
7101.238
7107.219
7112.612
7117.416
7121.619
7125.172
7128.191
7130.602
7132.309
7133.475
7134.076
7134.101
7133.582
7132.562
7131.059
7129.114
7126.79
7124.153
7121.274
7118.221
7115.022
7111.812
7108.712
7105.782
7103.046
7100.599
7098.498
7096.705
7095.176
7093.871
7092.735
7091.703
7090.699
7089.643
7088.453
7087.081
7085.526
7083.779
7081.838
7079.704
7077.371
7074.846
7072.146
7069.294
7066.337
7063.341
7060.369
7057.49
7054.775
7052.295
7050.115
7048.291
7046.864
7045.856
7045.27
7045.093
7045.29
7045.808
7046.594
7047.6
7048.787
7050.117
7051.553
7053.055
7054.584
7056.104
7057.582
7058.991
7060.314
7061.55
7062.71
7063.816
7064.876
7065.901
7066.925
7067.972
7069.038
7070.113
7071.173
7072.185
7073.092
7073.863
7074.435
7074.752
7074.737
7074.409
7073.775
7072.81
7071.462
7069.767
7067.744
7065.415
7062.794
7059.928
7056.83
7053.567
7050.159
7046.72
7043.271
7039.987
7036.953
7034.299
7032.052
7030.353
7029.137
7028.18
4890.281
4856.607
4787.425
4736.522
4687.24
4641.674
4599.271
4559.276
4520.842
4483.539
4447.213
4409.967
4372.023
4333.003
4292.859
4251.277
4208.127
4163.249
4116.491
4068.301
4020.085
3971.007
3921.299
3871.163
3820.294
3768.546
3716.715
3665.722
3616.558
3570.834
3530.355
3496.376
3469.704
3451.261
3442.178
3443.44
3456.339
3481.896
3521.489
3575.831
3645.658
3731.468
3833.465
3951.49
4085.015
4233.133
4394.518
4567.714
4750.192
4939.111
5132.634
5329.426
5528.764
5728.472
5925.27
6115.777
6295.928
6461.308
6608.122
6733.43
6834.33
6908.523
6954.589
6971.939
6960.874
6922.859
6860.202
6775.83
6672.753
6553.301
6420.267
6275.808
6122.245
5962.01
5796.948
5629.662
5463.883
5302.885
5148.71
5001.779
4861.524
4726.646
4596.056
4470.046
4350.012
4237.648
4135.016
4043.79
3962.569
3888.296
3818.42
3751.613
3687.38
3626.031
3568.495
3517.291
3476.489
3441.514
3409.603