/*--------------------------------*- C++ -*----------------------------------*\
| =========                 |                                                 |
| \\      /  F ield         | foam-extend: Open Source CFD                    |
|  \\    /   O peration     | Version:     3.1                                |
|   \\  /    A nd           | Web:         http://www.extend-project.de       |
|    \\/     M anipulation  |                                                 |
\*---------------------------------------------------------------------------*/
FoamFile
{
    version     2.0;
    format      ascii;
    class       surfaceScalarField;
    location    "20";
    object      phi;
}
// * * * * * * * * * * * * * * * * * * * * * * * * * * * * * * * * * * * * * //

dimensions      [0 3 -1 0 0 0 0];

internalField   nonuniform List<scalar> 
275122
(
-0.0004120533
0.0004178569
-4.164447e-07
-5.387078e-06
-0.0003690341
0.0003518196
1.415176e-06
1.579934e-05
-0.0003663274
0.000375831
-3.96912e-07
-9.106661e-06
-0.0004078085
0.0004188463
-4.824915e-07
-1.055532e-05
-0.0004464007
0.0004496907
-5.62737e-07
-2.727275e-06
-0.0004498219
0.00044916
-4.94652e-07
1.156566e-06
-0.0004453111
0.000443817
-4.617826e-07
1.955883e-06
-0.0004387169
0.0004368472
-4.353835e-07
2.305015e-06
-0.0004309194
0.0004288657
-4.132511e-07
2.466966e-06
-0.0004225605
0.0004204151
-3.908828e-07
2.536252e-06
-0.0004138735
0.0004116592
-3.669511e-07
2.581253e-06
-0.0004049323
0.0004026652
-3.421707e-07
2.609271e-06
-0.0003958024
0.0003934975
-3.173535e-07
2.622259e-06
-0.0003865357
0.0003842024
-2.928571e-07
2.626199e-06
-0.0003771598
0.0003748102
-2.733318e-07
2.622947e-06
-0.0003677404
0.0003653837
-2.536725e-07
2.610304e-06
-0.0003583128
0.0003559645
-2.339634e-07
2.582286e-06
-0.0003489659
0.0003466957
-2.164857e-07
2.486683e-06
-0.0003403391
0.0003385196
-2.659471e-07
2.085446e-06
-0.0003347653
0.0003351818
-6.749926e-07
2.584523e-07
-0.0003717218
0.0003863559
-1.342464e-06
-1.329165e-05
-0.0003904035
0.0003902485
-2.924369e-07
4.474893e-07
-0.0003940537
0.000396248
-1.680518e-07
-2.026203e-06
-0.0004394435
0.0004553632
3.362911e-07
-1.625602e-05
-0.0004578236
0.0004570741
6.52392e-07
9.708219e-08
-0.0004596007
0.000460386
-3.044976e-07
-4.807307e-07
-0.0004604704
0.0004594631
-2.701238e-07
1.277405e-06
-0.0004548632
0.000450922
-2.293934e-07
4.17057e-06
-0.0004246905
0.0003969516
-3.051375e-07
2.804401e-05
-0.0002033809
0.000209273
5.286977e-09
-5.897301e-06
-0.00026908
0.0002828623
-7.194857e-08
-1.371042e-05
-0.0003222149
0.0003352723
7.525014e-09
-1.306487e-05
-0.0003751507
0.0003886566
8.548521e-09
-1.351446e-05
-0.0004295725
0.0004433871
9.451409e-09
-1.382408e-05
-0.0004855736
0.0004997785
8.083659e-09
-1.4213e-05
-0.0005432153
0.0005578334
1.6681e-08
-1.463478e-05
-0.0006022155
0.0006171589
9.226803e-09
-1.495264e-05
-0.0006622063
0.0006773156
1.372303e-08
-1.512306e-05
-0.0007228255
0.0007380766
8.131624e-09
-1.525926e-05
-0.0007833535
0.0007998367
2.362166e-07
-1.671938e-05
1.319398e-05
-0.0005431055
0.0005452476
8.230459e-10
-1.533683e-05
1.348513e-05
-0.0005517146
0.0005537133
-6.014187e-10
-1.548326e-05
1.372038e-05
-0.0005593477
0.000561163
-1.324657e-09
-1.553434e-05
1.410093e-05
-0.0005661844
0.0005677296
-1.430858e-09
-1.56447e-05
1.450078e-05
-0.0005719277
0.000573178
-1.55154e-09
-1.574953e-05
1.481132e-05
-0.0005766537
0.0005776863
-1.180695e-09
-1.584275e-05
1.504047e-05
-0.0005806192
0.0005815069
-1.201605e-09
-1.592692e-05
1.519297e-05
-0.0005840332
0.0005848611
-8.915049e-10
-1.602003e-05
1.570056e-05
-0.0005871347
0.0005868982
-7.794899e-10
-1.546333e-05
1.402878e-05
-0.002390316
0.002399676
-1.308839e-11
-6.59234e-05
1.429846e-05
1.399017e-05
1.424641e-05
1.488485e-05
-0.002407069
0.002413242
-9.679208e-11
-6.677144e-05
1.544605e-05
1.485627e-05
1.541138e-05
1.527976e-05
-0.002418334
0.002423148
-1.248822e-10
-6.641132e-05
1.554515e-05
1.525144e-05
1.55209e-05
1.544184e-05
-0.002428078
0.002432852
-1.504585e-10
-6.674177e-05
1.55702e-05
1.541369e-05
1.554184e-05
1.547725e-05
-0.00243754
0.00244207
-6.771041e-11
-6.680903e-05
1.568544e-05
1.545453e-05
1.566115e-05
1.571138e-05
-0.002446238
0.002450204
1.468973e-12
-6.699786e-05
1.583144e-05
1.568455e-05
1.580487e-05
1.579928e-05
-0.002454089
0.002457639
-6.862576e-11
-6.682743e-05
1.586364e-05
1.577424e-05
1.584002e-05
1.582747e-05
-0.002461258
0.002464652
2.34446e-10
-6.659688e-05
1.579963e-05
1.579703e-05
1.577797e-05
1.578222e-05
-0.002468561
0.002472307
-3.15373e-10
-6.680995e-05
1.57766e-05
1.575288e-05
1.575251e-05
1.52478e-05
-0.00247217
0.002476419
-1.527995e-10
-6.546219e-05
1.537793e-05
1.522094e-05
1.536694e-05
1.6044e-05
-0.002480945
0.002484038
-3.815667e-11
-6.753042e-05
1.618384e-05
1.603627e-05
1.617344e-05
1.603717e-05
-0.002486438
0.002488623
-6.258525e-11
-6.606575e-05
1.590962e-05
1.60306e-05
1.590375e-05
1.593044e-05
-0.00249094
0.002493275
-1.390773e-10
-6.584272e-05
1.583017e-05
1.592295e-05
1.5824e-05
1.591507e-05
-0.002495544
0.002497633
1.752107e-12
-6.560534e-05
1.584947e-05
1.590654e-05
1.584544e-05
1.591746e-05
-0.002499631
0.002501517
1.797739e-11
-6.542445e-05
1.58617e-05
1.59028e-05
1.585734e-05
1.596168e-05
-0.002503301
0.00250498
2.547554e-11
-6.534665e-05
1.590362e-05
1.591526e-05
1.588691e-05
1.623111e-05
-0.002506593
0.002508363
2.869921e-11
-6.624905e-05
1.619626e-05
1.601059e-05
1.604122e-05
1.759371e-05
-0.002509494
0.002507965
1.645877e-11
-6.745262e-05
1.789377e-05
1.662229e-05
1.687165e-05
2.224213e-05
-0.002501984
0.002487294
-2.435952e-12
-6.980054e-05
2.366869e-05
1.956942e-05
1.90103e-05
2.998881e-05
-0.002467922
0.002490882
-1.680817e-11
-5.294889e-05
2.201424e-05
-0.002513377
0.002516707
-2.484467e-11
-2.534413e-05
4.315911e-05
-0.00251
0.002507205
-2.361072e-11
-4.036414e-05
3.765549e-05
-0.002505439
0.002504273
-1.764257e-11
-3.648939e-05
2.140224e-05
-0.002502482
0.002504682
-1.049483e-11
-2.360234e-05
5.560191e-06
-0.002509978
0.002515398
-5.327898e-12
-1.098009e-05
7.212274e-07
-0.00251968
0.002523377
-2.925075e-12
-4.418975e-06
-2.294799e-06
-0.002527033
0.002530265
-1.653841e-12
-9.36995e-07
-4.076249e-06
-0.002533197
0.002535814
-2.795245e-13
1.459202e-06
-5.400321e-06
-0.002538265
0.002540459
3.59954e-12
3.206247e-06
-6.270101e-06
-0.002542524
0.002544415
8.955142e-12
4.378894e-06
-6.86225e-06
-0.002546229
0.002547947
1.445342e-11
5.144112e-06
-7.303792e-06
-0.002549608
0.002551207
2.055198e-11
5.705461e-06
-7.648392e-06
-0.002552744
0.00255424
2.372313e-11
6.152218e-06
-7.906018e-06
-0.002555656
0.002557061
3.087594e-11
6.501243e-06
-8.018407e-06
-0.00255837
0.002559726
3.96948e-11
6.66287e-06
-7.78919e-06
-0.002560982
0.002562364
1.086695e-11
6.406933e-06
-6.818742e-06
-0.002563648
0.002565122
1.080124e-11
5.344817e-06
-4.349603e-06
-0.002566427
0.002567842
-2.252289e-12
2.935454e-06
1.516213e-06
-0.002569027
0.002569351
-6.660054e-12
-1.839806e-06
1.194682e-05
-0.002564489
0.002560577
-9.823447e-12
-8.034524e-06
5.626139e-06
-0.002562559
0.002565021
-1.278088e-11
-8.088403e-06
1.783789e-05
-0.00256581
0.002563894
-1.294576e-11
-1.592118e-05
4.32897e-05
-0.002548252
0.002530818
-1.595313e-11
-2.585598e-05
1.268753e-05
-0.002522631
0.00252245
-1.809103e-11
-1.250642e-05
-2.76937e-06
-0.002522917
0.002520171
-1.491808e-11
5.514786e-06
-1.531344e-05
-0.002515356
0.002512489
-1.098108e-11
1.818064e-05
-3.708732e-05
-0.002510656
0.002511905
-8.285883e-12
3.583868e-05
-9.164581e-05
-0.00251414
0.002544342
-7.35842e-12
6.144368e-05
-2.032763e-05
-0.002580807
0.002580218
-6.047379e-12
6.689852e-05
-1.305063e-05
-2.017695e-05
-1.275399e-05
-6.895128e-06
-0.002570355
0.002568222
-2.609512e-12
2.975397e-05
-7.280869e-06
-6.54941e-06
-6.895467e-06
-6.423242e-06
-0.002570018
0.002569819
-3.039978e-13
2.465718e-05
-6.085906e-06
-6.140642e-06
-5.808265e-06
-4.703946e-06
-0.002567158
0.00256422
7.102582e-13
2.077171e-05
-4.441741e-06
-4.468306e-06
-4.219265e-06
-4.054432e-06
-0.002561731
0.00255986
3.809892e-14
1.763782e-05
-4.019823e-06
-3.86113e-06
-3.831157e-06
-3.847453e-06
-0.002558348
0.002556972
-2.69809e-12
1.634348e-05
-3.804177e-06
-3.678435e-06
-3.638177e-06
-3.639798e-06
-0.002555587
0.002554223
-5.406106e-12
1.553976e-05
-3.596515e-06
-3.488889e-06
-3.450298e-06
-3.513874e-06
-0.002552873
0.002551559
-7.275383e-12
1.506668e-05
-3.49273e-06
-3.381976e-06
-3.36463e-06
-3.453198e-06
-0.00255024
0.00254893
-7.563313e-12
1.486765e-05
-3.440037e-06
-3.337334e-06
-3.327105e-06
-3.409402e-06
-0.002547595
0.002546272
-6.434472e-12
1.473587e-05
-3.397692e-06
-3.307504e-06
-3.298542e-06
-3.365253e-06
-0.002544947
0.002543664
-4.444781e-12
1.454717e-05
-3.354523e-06
-3.276229e-06
-3.268034e-06
-3.316839e-06
-0.002542407
0.002541215
-2.141014e-12
1.428655e-05
-3.306693e-06
-3.239221e-06
-3.231195e-06
-3.267903e-06
-0.002540062
0.002538977
-9.306442e-14
1.400577e-05
-3.259324e-06
-3.20022e-06
-3.193392e-06
-3.228024e-06
-0.002537931
0.002536936
7.520683e-13
1.377897e-05
-3.222164e-06
-3.169185e-06
-3.164808e-06
-3.203209e-06
-0.002535967
0.002535022
9.644785e-14
1.365093e-05
-3.20023e-06
-3.151948e-06
-3.150181e-06
-3.193785e-06
-0.002534085
0.002533145
-2.202954e-12
1.36253e-05
-3.193124e-06
-3.148961e-06
-3.149277e-06
-3.197434e-06
-0.002532198
0.002531226
-5.057421e-12
1.368586e-05
-3.198642e-06
-3.158091e-06
-3.160133e-06
-3.211768e-06
-0.002530233
0.002529198
-7.761438e-12
1.381842e-05
-3.21397e-06
-3.177241e-06
-3.180225e-06
-3.228452e-06
-0.002528134
0.002527033
-9.31644e-12
1.395868e-05
-3.229994e-06
-3.198292e-06
-3.200589e-06
-3.237202e-06
-0.002525911
0.002524776
-9.320242e-12
1.403231e-05
-3.237001e-06
-3.211158e-06
-3.211701e-06
-3.23344e-06
-0.002523639
0.002522518
-7.865891e-12
1.400699e-05
-3.231551e-06
-3.211145e-06
-3.209794e-06
-3.218025e-06
-0.002521414
0.002520354
-5.64151e-12
1.388811e-05
-3.214836e-06
-3.198628e-06
-3.195829e-06
-3.195138e-06
-0.002519326
0.002518355
-3.316681e-12
1.371004e-05
-3.191555e-06
-3.178036e-06
-3.17473e-06
-3.171652e-06
-0.002517424
0.002516547
-1.688133e-12
1.352708e-05
-3.168692e-06
-3.156239e-06
-3.15338e-06
-3.154628e-06
-0.002515704
0.002514895
-1.366272e-12
1.339512e-05
-3.153167e-06
-3.140147e-06
-3.138925e-06
-3.147978e-06
0.002513329
-1.821481e-12
1.334469e-05
-3.148049e-06
-3.135043e-06
-3.135335e-06
-0.002514107
-3.151011e-06
-0.002512556
0.002511772
-3.649739e-12
1.336749e-05
-3.152207e-06
-3.139788e-06
-3.141294e-06
-3.163292e-06
-0.002510981
0.002510157
-5.145647e-12
1.346235e-05
-3.165513e-06
-3.153644e-06
-3.156135e-06
-3.181562e-06
-0.00250931
0.002508425
-5.828161e-12
1.359973e-05
-3.183905e-06
-3.173117e-06
-3.175582e-06
-3.197381e-06
-0.002507517
0.002506584
-5.796126e-12
1.371054e-05
-3.198716e-06
-3.189973e-06
-3.191464e-06
-3.205226e-06
-0.002505641
0.002504694
-4.947291e-12
1.375562e-05
-3.205346e-06
-3.198786e-06
-3.19906e-06
-3.205859e-06
-0.002503751
0.002502818
-3.518643e-12
1.374412e-05
-3.205354e-06
-3.200239e-06
-3.199852e-06
-3.204042e-06
-0.002501896
0.002500987
-2.030647e-12
1.371519e-05
-3.203788e-06
-3.199107e-06
-3.19894e-06
-3.205375e-06
-0.002500086
0.002499187
-9.651139e-13
1.37133e-05
-3.206062e-06
-3.201053e-06
-3.201811e-06
-3.213424e-06
-0.002498289
0.002497374
-6.449603e-13
1.376501e-05
-3.215281e-06
-3.209708e-06
-3.211632e-06
-3.230501e-06
-0.002496446
0.002495477
-6.120573e-13
1.389093e-05
-3.233795e-06
-3.227401e-06
-3.230762e-06
-3.25811e-06
-0.002494476
0.002493407
-7.706055e-13
1.410542e-05
-3.262645e-06
-3.255608e-06
-3.260205e-06
-3.291658e-06
-0.002492287
0.002491089
-9.979886e-13
1.437018e-05
-3.296245e-06
-3.289682e-06
-3.294319e-06
-3.322462e-06
-0.002489836
0.002488514
-1.143756e-12
1.461584e-05
-3.325976e-06
-3.32089e-06
-3.324443e-06
-3.343909e-06
-0.002487146
0.002485733
-8.316789e-13
1.478961e-05
-3.345833e-06
-3.342598e-06
-3.344538e-06
-3.352912e-06
-0.002484291
0.002482836
7.914718e-13
1.486469e-05
-3.353297e-06
-3.351696e-06
-3.352061e-06
-3.350087e-06
-0.002481369
0.00247992
3.14238e-12
1.484594e-05
-3.34953e-06
-3.348926e-06
-3.34831e-06
-3.339316e-06
-0.002478471
0.002477059
6.08884e-12
1.476582e-05
-3.338684e-06
-3.338451e-06
-3.337932e-06
-3.326427e-06
-0.002475649
0.002474281
8.52691e-12
1.467308e-05
-3.326789e-06
-3.3259e-06
-3.326377e-06
-3.316192e-06
-0.002472902
0.002471563
9.523929e-12
1.460847e-05
-3.318776e-06
-3.315711e-06
-3.318305e-06
-3.310871e-06
-0.002470193
0.002468852
6.804493e-12
1.459428e-05
-3.316632e-06
-3.310415e-06
-3.316253e-06
-3.308769e-06
-0.002467463
0.002466108
3.395708e-12
1.460989e-05
-3.318788e-06
-3.308382e-06
-3.318628e-06
-3.300926e-06
-0.002464716
0.002463384
7.952161e-12
1.455879e-05
-3.312999e-06
-3.300296e-06
-3.312742e-06
-3.208788e-06
-0.002461983
0.002460479
4.679021e-12
1.431792e-05
-3.198427e-06
-3.2083e-06
-3.199076e-06
-2.909705e-06
-0.002458382
0.002455534
-7.426103e-12
1.393583e-05
-2.633404e-06
-2.90743e-06
-2.636407e-06
-2.404389e-06
-0.002453833
0.002449963
9.915656e-13
1.371951e-05
-2.529191e-06
-2.395034e-06
-2.5209e-06
-3.408905e-06
-0.00244823
0.00244675
-5.818608e-12
1.515845e-05
-3.438113e-06
-3.401857e-06
-3.429704e-06
-3.373521e-06
-0.002444866
0.002442561
5.480732e-12
1.564402e-05
-3.30409e-06
-3.364951e-06
-3.295942e-06
-3.386651e-06
-0.002440244
0.00243798
7.169962e-12
1.581405e-05
-3.395802e-06
-3.379043e-06
-3.388046e-06
-3.444908e-06
-0.002435721
0.002433385
8.714595e-12
1.609476e-05
-3.441887e-06
-3.437073e-06
-3.43455e-06
-3.460372e-06
-0.002430972
0.002428477
9.912425e-12
1.630813e-05
-3.454101e-06
-3.452185e-06
-3.446307e-06
-3.482405e-06
-0.002425927
0.002423292
1.083098e-11
1.654577e-05
-3.480437e-06
-3.475152e-06
-3.4735e-06
-3.511335e-06
-0.0024206
0.002417815
1.063266e-11
1.681676e-05
-3.511254e-06
-3.504655e-06
-3.504718e-06
-3.540681e-06
-0.002414966
0.002412018
9.521532e-12
1.709747e-05
-3.540699e-06
-3.534319e-06
-3.534368e-06
-3.565275e-06
-0.00240901
0.002405917
8.834252e-12
1.734095e-05
-3.56487e-06
-3.559275e-06
-3.558916e-06
-3.584702e-06
-0.002402776
0.002399565
9.28673e-12
1.753709e-05
-3.584102e-06
-3.579081e-06
-3.578555e-06
-3.59816e-06
-0.002396315
0.002393012
1.017101e-11
1.768247e-05
-3.596847e-06
-3.592804e-06
-3.591663e-06
-3.608149e-06
-0.00238968
0.002386303
1.111169e-11
1.77976e-05
-3.606833e-06
-3.603117e-06
-3.601886e-06
-3.617522e-06
-0.0023829
0.002379452
1.171687e-11
1.79062e-05
-3.616589e-06
-3.61274e-06
-3.611846e-06
-3.62842e-06
-0.002375979
0.002372457
1.174855e-11
1.80264e-05
-3.62799e-06
-3.623906e-06
-3.623492e-06
-3.64066e-06
-0.002368904
0.002365293
1.168862e-11
1.816593e-05
-3.640837e-06
-3.636467e-06
-3.636623e-06
-3.655927e-06
-0.002361647
0.002357939
1.238922e-11
1.832475e-05
-3.656643e-06
-3.651742e-06
-3.652466e-06
-3.672838e-06
-0.002354194
0.002350384
1.390892e-11
1.849362e-05
-3.673346e-06
-3.668753e-06
-3.669252e-06
-3.689792e-06
-0.002346537
0.002342626
1.544124e-11
1.866351e-05
-3.689975e-06
-3.685936e-06
-3.686097e-06
-3.706361e-06
-0.002338676
0.002334661
1.655201e-11
1.883324e-05
-3.70641e-06
-3.702747e-06
-3.702727e-06
-3.722964e-06
-0.002330607
0.002326484
1.707151e-11
1.9009e-05
-3.723202e-06
-3.719609e-06
-3.719663e-06
-3.740651e-06
-0.002322317
0.002318072
1.681902e-11
1.920231e-05
-3.741428e-06
-3.737526e-06
-3.738042e-06
-3.760635e-06
-0.002313778
0.002309394
1.595614e-11
1.9424e-05
-3.762013e-06
-3.757654e-06
-3.759185e-06
-3.784439e-06
-0.00230495
0.002300402
1.445681e-11
1.968243e-05
-3.785863e-06
-3.781303e-06
-3.783119e-06
-3.812431e-06
-0.002295784
0.00229105
1.205698e-11
1.997931e-05
-3.813306e-06
-3.808979e-06
-3.810445e-06
-3.843515e-06
0.002281295
7.203262e-12
2.030944e-05
-0.002286236
-3.843837e-06
-3.840399e-06
-3.840981e-06
-3.87648e-06
-0.002276265
0.002271102
3.663644e-12
2.066553e-05
-3.877394e-06
-3.873755e-06
-3.874744e-06
-3.911658e-06
-0.00226584
0.002260437
2.97651e-13
2.104718e-05
-3.912889e-06
-3.909069e-06
-3.910279e-06
-3.948903e-06
-0.002254923
0.002249258
-3.817435e-12
2.145906e-05
-3.950556e-06
-3.946317e-06
-3.947983e-06
-3.988045e-06
-0.002243468
0.002237512
-7.618695e-12
2.190723e-05
-3.99005e-06
-3.98554e-06
-3.987535e-06
-4.027248e-06
-0.002231415
0.002225141
-1.10827e-11
2.238263e-05
-4.029026e-06
-4.024886e-06
-4.026645e-06
-4.062531e-06
-0.002218713
0.002212103
-1.368072e-11
2.285797e-05
-4.063255e-06
-4.060376e-06
-4.061117e-06
-4.088249e-06
-0.002205336
0.002198397
-1.48184e-11
2.328531e-05
-4.086825e-06
-4.086321e-06
-4.084889e-06
-4.097968e-06
-0.00219131
0.002184079
-1.500306e-11
2.361129e-05
-4.093547e-06
-4.096252e-06
-4.091809e-06
-4.086894e-06
-0.002176721
0.002169263
-1.556989e-11
2.378653e-05
-4.079069e-06
-4.085418e-06
-4.077611e-06
-4.052946e-06
-0.002161709
0.002154103
-1.665767e-11
2.379324e-05
-4.041859e-06
-4.051721e-06
-4.040684e-06
-3.997819e-06
-0.002146431
0.002138767
-1.756971e-11
2.362453e-05
-3.983529e-06
-3.99677e-06
-3.982572e-06
-3.924486e-06
-0.002131067
0.002123423
-1.808349e-11
2.330598e-05
-3.907393e-06
-3.923546e-06
-3.906721e-06
-3.837707e-06
-0.002115767
0.002108232
-1.784745e-11
2.284583e-05
-3.81809e-06
-3.836839e-06
-3.817737e-06
-3.741969e-06
-0.002100703
0.002093334
-1.71994e-11
2.2294e-05
-3.72085e-06
-3.741169e-06
-3.720532e-06
-3.643505e-06
-0.002085976
0.002078846
-1.825595e-11
2.166038e-05
-3.622072e-06
-3.642862e-06
-3.621412e-06
-3.546886e-06
-0.002071724
0.002064847
-1.970945e-11
2.10239e-05
-3.527296e-06
-3.546491e-06
-3.526386e-06
-3.459021e-06
-0.002057947
0.002051368
-1.963414e-11
2.038012e-05
-3.441832e-06
-3.458886e-06
-3.44122e-06
-3.384086e-06
-0.002044723
0.002038392
-1.754608e-11
1.98363e-05
-3.369312e-06
-3.384032e-06
-3.368697e-06
-3.328441e-06
-0.002031911
0.002025842
-1.585584e-11
1.935464e-05
-3.314826e-06
-3.328803e-06
-3.313257e-06
-3.290923e-06
-0.002019521
0.002013592
-1.801188e-11
1.906453e-05
-3.277977e-06
-3.292524e-06
-3.274723e-06
-3.273737e-06
-0.002007263
0.002001487
-2.80248e-11
1.883623e-05
-3.257125e-06
-3.276786e-06
-3.252842e-06
-3.272978e-06
-0.001995181
0.001989492
-1.544413e-11
1.872806e-05
-3.246459e-06
-3.276577e-06
-3.243293e-06
-3.222164e-06
-0.001983132
0.001977503
-3.087036e-11
1.83956e-05
-3.160688e-06
-3.218712e-06
-3.164749e-06
-2.767936e-06
-0.001971269
0.001962525
5.314739e-11
1.813142e-05
-1.918113e-06
-2.777409e-06
-1.923375e-06
-1.283492e-06
-0.0004855037
0.0004825023
-8.018832e-10
4.285705e-06
-3.412923e-06
-0.0004776976
0.0004759198
-1.020968e-09
5.191733e-06
-3.411497e-06
-0.0004706956
0.0004689831
-4.393932e-10
5.124447e-06
-3.414498e-06
-0.000463953
0.0004623443
-5.841923e-10
5.023827e-06
-3.65541e-06
-0.0004577016
0.0004561699
-5.176027e-10
5.187561e-06
-3.626822e-06
-0.000451567
0.000450046
-5.986149e-10
5.148431e-06
-3.679249e-06
-0.00044556
0.0004440687
-5.590009e-10
5.171114e-06
-3.625791e-06
-0.0004396204
0.0004381562
-6.125906e-10
5.090575e-06
-3.546755e-06
-0.0004338155
0.0004323898
-6.209206e-10
4.973098e-06
-3.423681e-06
-0.0004281987
0.0004268357
-6.409137e-10
4.787383e-06
-3.259015e-06
-0.0004228642
0.0004215884
-6.529198e-10
4.535499e-06
-3.057073e-06
-0.0004179132
0.0004167502
-6.809187e-10
4.220751e-06
-2.824634e-06
-0.0004134492
0.0004124249
-7.217792e-10
3.849566e-06
-2.567752e-06
-0.0004095732
0.0004087116
-7.638446e-10
3.43019e-06
-2.29668e-06
-0.0004063751
0.0004056986
-7.455096e-10
2.97392e-06
-2.012096e-06
-0.0004039409
0.0004034716
-9.02918e-10
2.482286e-06
-1.664981e-06
-0.0004022802
0.0004019859
-7.960783e-10
1.960037e-06
-1.449491e-06
-0.0004014231
0.0004013557
-6.18181e-10
1.517477e-06
-1.265463e-06
-0.0004014558
0.0004016018
-3.860069e-10
1.119822e-06
-1.108306e-06
-0.0004023198
0.000402662
-1.133522e-10
7.662184e-07
-9.808924e-07
-0.0004039432
0.0004044627
2.028809e-10
4.611483e-07
-8.854742e-07
-0.0004062499
0.0004069274
4.365878e-10
2.075331e-07
-8.231316e-07
-0.0004091639
0.0004099809
5.495871e-10
5.562992e-09
-7.973734e-07
-0.000412589
0.0004135112
4.545007e-10
-1.252137e-07
-8.059994e-07
-0.0004164054
0.0004174084
1.932114e-10
-1.972388e-07
-8.501296e-07
-0.000420503
0.0004215563
-1.118366e-10
-2.03072e-07
-9.278445e-07
-0.0004247567
0.0004258285
-3.475138e-10
-1.435883e-07
-1.036717e-06
-0.0004290372
0.0004300973
-4.17133e-10
-2.294351e-08
-1.175062e-06
-0.0004332096
0.0004342128
-3.363688e-10
1.72165e-07
-1.33741e-06
-0.0004371194
0.0004380382
-2.097753e-10
4.187769e-07
-1.517793e-06
-0.0004406451
0.0004414492
-1.2659e-10
7.138603e-07
-1.707455e-06
-0.0004436569
0.0004443151
-1.36246e-10
1.049442e-06
-1.875856e-06
-0.0004460492
0.0004465417
-2.738899e-10
1.383583e-06
-2.100563e-06
-0.0004476441
0.0004479285
-5.940607e-10
1.816793e-06
-2.289087e-06
-0.0004485541
0.0004487187
-5.245007e-10
2.125001e-06
-6.430737e-07
-0.0004489415
0.0004480488
-6.478189e-11
1.535846e-06
2.785754e-08
-0.0004453589
0.000444457
1.297779e-09
8.72754e-07
-3.97528e-07
-0.0004409469
0.0004395504
3.399859e-09
1.790649e-06
-1.262929e-06
-0.0004349052
0.0004332352
4.385463e-09
2.928622e-06
-1.464271e-06
-0.0004280124
0.0004261361
6.356889e-10
3.339862e-06
-5.588355e-07
-0.000420544
0.0004186928
-3.871739e-09
2.413928e-06
1.107591e-06
-0.0004125967
0.0004106187
-1.616119e-09
8.720426e-07
1.398527e-06
-0.0004051608
0.0004034804
-1.241152e-09
2.831039e-07
1.52055e-06
-0.0003987622
0.0003973001
-1.254644e-09
-5.717269e-08
1.563982e-06
-0.0003931991
0.0003919253
-1.379609e-09
-2.888159e-07
1.548747e-06
-0.0003883402
0.0003872282
-1.286605e-09
-4.354867e-07
1.527417e-06
-0.0003841057
0.0003831438
-1.160684e-09
-5.643416e-07
1.530114e-06
-0.0003804608
0.0003796419
-9.012384e-10
-7.103151e-07
1.562591e-06
-0.0003773727
0.0003766835
-6.514178e-10
-8.72693e-07
1.586928e-06
-0.0003748009
0.0003742646
-5.546055e-10
-1.050027e-06
1.679396e-06
-0.0003728028
0.0003723694
-4.243325e-10
-1.245588e-06
1.742596e-06
-0.0003712131
0.0003708814
-3.547666e-10
-1.410541e-06
1.778155e-06
-0.000370025
0.0003697941
-3.209333e-10
-1.546946e-06
1.801009e-06
-0.0003692417
0.0003691052
-2.926389e-10
-1.664232e-06
1.816776e-06
-0.0003687915
0.0003687175
-2.60184e-10
-1.742573e-06
1.803152e-06
-0.0003685459
0.0003685015
-2.375794e-10
-1.758502e-06
1.75305e-06
-0.000368396
0.0003683366
-2.064284e-10
-1.693432e-06
1.548509e-06
-0.000368137
0.000368043
-1.462536e-10
-1.454412e-06
1.289604e-06
-0.0003676402
0.0003674398
-6.410866e-11
-1.089113e-06
9.032778e-07
-0.0003666189
0.0003662462
9.491083e-11
-5.306897e-07
3.799533e-07
-0.0003647915
0.0003641303
3.176532e-10
2.809291e-07
-4.183766e-07
-0.0003614304
0.0003602483
2.196616e-09
1.598295e-06
-3.459223e-06
-0.0003554598
0.0003535415
1.04536e-08
5.367107e-06
-1.011186e-05
-0.0003486214
0.0003472949
-6.947472e-09
1.144524e-05
-5.55405e-06
-0.0003419894
0.0003396353
-9.010326e-09
7.917156e-06
6.74245e-07
-0.0003317149
0.0003292386
1.032335e-11
1.801968e-06
1.810841e-06
-0.0003225637
0.0003205506
3.948931e-09
1.983457e-07
1.148996e-06
-0.0003147697
0.0003127793
4.460961e-09
8.369413e-07
5.308211e-07
-0.0003065241
0.000304354
3.430757e-09
1.63592e-06
-4.027895e-08
-0.0002977207
0.0002952968
-3.266216e-11
2.464279e-06
-1.219154e-06
-0.0002845985
0.001198582
6.855892e-10
2.272867e-05
-1.718945e-06
-1.202963e-06
-1.721835e-06
-0.0002847769
-0.000322954
-0.0003231188
-7.09122e-07
-0.001181714
0.001162932
7.395843e-10
2.083561e-05
-3.081334e-07
-7.199288e-07
-3.172066e-07
-7.05737e-07
-0.001144939
0.001128145
5.53851e-10
1.96237e-05
-6.996891e-07
-7.133932e-07
-7.111038e-07
-8.186154e-07
-0.001112735
0.001097826
2.848355e-10
1.804604e-05
-7.332566e-07
-8.369105e-07
-7.487165e-07
-5.088627e-07
-0.001083349
0.001069585
-5.141157e-12
1.566557e-05
-4.331485e-07
-5.174932e-07
-4.415177e-07
-3.196527e-07
-0.001056677
0.001044803
-2.757968e-10
1.312246e-05
-2.940159e-07
-3.298249e-07
-3.040561e-07
-1.489931e-07
-0.001033773
0.00102357
-4.797898e-10
1.076283e-05
-1.223258e-07
-1.57671e-07
-1.304375e-07
4.641288e-08
-0.001014102
0.001005341
-5.595255e-10
8.535129e-06
7.4691e-08
3.837163e-08
6.725662e-08
2.444132e-07
-0.0009971758
0.0009897526
-5.2164e-10
6.428171e-06
2.590143e-07
2.38522e-07
2.536123e-07
4.292455e-07
-0.0009829252
0.0009769652
-4.172621e-10
4.202431e-06
4.546264e-07
4.24259e-07
4.498528e-07
6.898578e-07
-0.0009716173
0.0009672168
-2.931423e-10
1.59399e-06
7.171762e-07
6.861795e-07
7.136338e-07
9.574473e-07
-0.0009635143
0.0009608599
-1.805874e-10
-1.223436e-06
9.845944e-07
9.542849e-07
9.816298e-07
1.213065e-06
-0.0009588754
0.0009578543
-9.280779e-11
-3.874741e-06
1.237569e-06
1.210379e-06
1.234962e-06
1.429518e-06
-0.0009573768
0.0009576986
-3.140759e-11
-6.077385e-06
1.450698e-06
1.427069e-06
1.448346e-06
1.608493e-06
-0.0009584491
0.0009598217
4.905018e-12
-7.837917e-06
1.626298e-06
1.606281e-06
1.624172e-06
1.761015e-06
-0.0009615332
0.0009637441
2.485096e-11
-9.282076e-06
1.77652e-06
1.75902e-06
1.774586e-06
1.889157e-06
-0.0009662132
0.0009690673
3.526256e-11
-1.043409e-05
1.902629e-06
1.887308e-06
1.900816e-06
2.001239e-06
-0.0009721161
0.0009754825
3.87878e-11
-1.1393e-05
2.013761e-06
1.999494e-06
2.012048e-06
2.103418e-06
-0.0009790079
0.0009828046
3.807066e-11
-1.22304e-05
2.114997e-06
2.101799e-06
2.113416e-06
2.194444e-06
-0.0009867337
0.0009908913
3.290087e-11
-1.295277e-05
2.204667e-06
2.192922e-06
2.20317e-06
2.27435e-06
-0.0009951551
0.0009996115
2.492027e-11
-1.356963e-05
2.283706e-06
2.272882e-06
2.282244e-06
2.347964e-06
-0.001004158
0.001008873
1.81722e-11
-1.412212e-05
2.356929e-06
2.346557e-06
2.355545e-06
2.417346e-06
-0.001013668
0.001018611
1.26361e-11
-1.462725e-05
2.425915e-06
2.416024e-06
2.424629e-06
2.482178e-06
-0.001023625
0.001028767
7.066843e-12
-1.508457e-05
2.490205e-06
2.480878e-06
2.48899e-06
2.54124e-06
-0.001033969
0.001039278
2.946905e-12
-1.548592e-05
2.54853e-06
2.539921e-06
2.547191e-06
2.593402e-06
-0.001044633
0.001050072
3.966728e-13
-1.582329e-05
2.599963e-06
2.592045e-06
2.598554e-06
2.639288e-06
-0.001055545
0.001061081
-2.27389e-12
-1.610251e-05
2.645096e-06
2.637926e-06
2.643777e-06
2.680228e-06
-0.00106664
0.001072249
-5.533994e-12
-1.633725e-05
2.685542e-06
2.678933e-06
2.684279e-06
2.717289e-06
-0.001077873
0.001083533
-7.395906e-12
-1.653723e-05
2.722171e-06
2.716033e-06
2.72094e-06
2.750702e-06
-0.001089204
0.001094901
-8.195105e-12
-1.670582e-05
2.75518e-06
2.749454e-06
2.753945e-06
2.780504e-06
-0.001100602
0.001106318
-7.85789e-12
-1.68437e-05
2.784528e-06
2.779258e-06
2.783295e-06
2.806615e-06
-0.001112033
0.001117753
-6.056228e-12
-1.695075e-05
2.810139e-06
2.805398e-06
2.808939e-06
2.828942e-06
-0.001123466
0.001129173
-4.541685e-12
-1.702688e-05
2.831997e-06
2.827737e-06
2.830798e-06
2.847541e-06
-0.001134869
0.001140548
-4.037464e-12
-1.707267e-05
2.850144e-06
2.846337e-06
2.848936e-06
2.862581e-06
-0.00114621
0.001151848
-3.951388e-12
-1.708951e-05
2.864741e-06
2.861398e-06
2.863563e-06
2.874294e-06
-0.001157462
0.001163043
-3.755451e-12
-1.707968e-05
2.876078e-06
2.873124e-06
2.874909e-06
2.883072e-06
-0.001168597
0.001174111
-3.675326e-12
-1.704641e-05
2.884571e-06
2.881901e-06
2.88338e-06
2.889424e-06
-0.001179593
0.001185029
-4.088892e-12
-1.699402e-05
2.890728e-06
2.888267e-06
2.889561e-06
2.893918e-06
-0.001190431
0.001195782
-4.225849e-12
-1.692739e-05
2.895127e-06
2.892812e-06
2.894027e-06
2.897088e-06
-0.001201098
0.001206361
-4.146714e-12
-1.685128e-05
2.898321e-06
2.895969e-06
2.897248e-06
2.899078e-06
-0.001211587
0.001216759
-3.711016e-12
-1.676875e-05
2.900513e-06
2.897918e-06
2.899306e-06
2.899512e-06
-0.001221895
0.001226975
-2.666642e-12
-1.667933e-05
2.901434e-06
2.898309e-06
2.900156e-06
2.896802e-06
-0.001232017
0.001237
-1.558861e-12
-1.657303e-05
2.899356e-06
2.895572e-06
2.898129e-06
2.883391e-06
-0.001241938
0.001246814
-1.123913e-12
-1.641084e-05
2.884997e-06
2.882209e-06
2.883809e-06
2.82429e-06
-0.001251648
0.001256488
-1.111793e-12
-1.610867e-05
2.81144e-06
2.823097e-06
2.810216e-06
2.664536e-06
-0.00126142
0.001266487
-1.034803e-12
-1.562201e-05
2.614432e-06
2.66322e-06
2.613056e-06
2.490409e-06
-0.001271626
0.001276761
-9.871597e-13
-1.505421e-05
2.470678e-06
2.48926e-06
2.469494e-06
2.460416e-06
-0.001281857
0.001286937
2.699e-13
-1.492961e-05
2.465781e-06
2.459288e-06
2.464656e-06
2.461224e-06
-0.001292004
0.001297078
3.24283e-12
-1.492505e-05
2.465777e-06
2.460054e-06
2.464597e-06
2.458761e-06
-0.001302131
0.001307204
8.382533e-12
-1.492221e-05
2.467187e-06
2.457555e-06
2.46604e-06
2.460218e-06
-0.001312245
0.001317306
2.08537e-11
-1.493859e-05
2.480078e-06
2.458961e-06
2.478968e-06
2.46465e-06
-0.001322285
0.00132728
6.859456e-11
-1.494986e-05
2.513679e-06
2.463272e-06
2.512612e-06
2.404539e-06
-0.001332224
0.001337397
2.317349e-10
-1.489158e-05
2.457034e-06
2.401526e-06
2.455734e-06
2.254514e-06
-0.001341973
0.001347712
-1.171874e-10
-1.471463e-05
2.237045e-06
2.25077e-06
2.233793e-06
2.3777e-06
-0.001354705
0.00135907
-5.792691e-11
-1.402584e-05
2.448081e-06
2.383235e-06
2.451943e-06
2.39526e-06
-0.001363007
0.001367659
-1.790412e-11
-1.389086e-05
2.21723e-06
2.402394e-06
2.22431e-06
2.255897e-06
-0.001372623
0.001377565
-2.18688e-12
-1.386092e-05
2.196544e-06
2.263059e-06
2.203189e-06
2.227461e-06
-0.001382429
0.001387295
2.937073e-12
-1.369706e-05
2.182073e-06
2.233471e-06
2.187656e-06
2.184129e-06
-0.001392137
0.001396949
4.519082e-12
-1.350022e-05
2.155033e-06
2.189231e-06
2.159871e-06
2.148347e-06
-0.001401712
0.001406413
4.97566e-12
-1.326564e-05
2.129719e-06
2.15275e-06
2.133907e-06
2.119493e-06
-0.00141105
0.001415602
4.822037e-12
-1.300961e-05
2.105786e-06
2.123298e-06
2.109444e-06
2.085035e-06
-0.001420099
0.001424511
4.046543e-12
-1.273882e-05
2.075063e-06
2.088451e-06
2.078323e-06
2.050019e-06
-0.001428865
0.001433128
2.575188e-12
-1.245376e-05
2.042442e-06
2.052958e-06
2.045267e-06
2.014318e-06
-0.001437334
0.001441448
1.622523e-12
-1.216379e-05
2.007991e-06
2.016911e-06
2.010495e-06
1.977807e-06
-0.001445505
0.001449469
1.652945e-12
-1.186868e-05
1.972163e-06
1.980098e-06
1.974382e-06
1.94072e-06
-0.001453377
0.001457192
1.878482e-12
-1.157168e-05
1.935497e-06
1.942778e-06
1.937503e-06
1.903584e-06
-0.001460952
0.00146462
1.780057e-12
-1.127579e-05
1.89866e-06
1.905431e-06
1.900459e-06
1.866512e-06
-0.001468234
0.001471755
1.275164e-12
-1.098088e-05
1.861695e-06
1.868123e-06
1.863244e-06
1.828736e-06
-0.001475223