/*--------------------------------*- C++ -*----------------------------------*\
| =========                 |                                                 |
| \\      /  F ield         | foam-extend: Open Source CFD                    |
|  \\    /   O peration     | Version:     3.1                                |
|   \\  /    A nd           | Web:         http://www.extend-project.de       |
|    \\/     M anipulation  |                                                 |
\*---------------------------------------------------------------------------*/
FoamFile
{
    version     2.0;
    format      ascii;
    class       volScalarField;
    location    "17.5";
    object      k;
}
// * * * * * * * * * * * * * * * * * * * * * * * * * * * * * * * * * * * * * //

dimensions      [0 2 -2 0 0 0 0];

internalField   nonuniform List<scalar> 
119952
(
0.06658578
0.06197116
0.06003432
0.05786725
0.05558927
0.05354497
0.05236425
0.05164774
0.0512064
0.05095933
0.05086587
0.05090026
0.05104581
0.05128947
0.05161025
0.05199609
0.05244768
0.05297264
0.05361917
0.05456547
0.05780331
0.05662962
0.05743697
0.06036698
0.0588777
0.0586106
0.05846988
0.05824406
0.05699277
0.01782469
0.08750168
0.08474923
0.08240978
0.08102309
0.08051307
0.0807036
0.08137616
0.08234597
0.08348171
0.08475565
0.08173786
0.08289858
0.08615039
0.09039527
0.09481567
0.09902741
0.1029298
0.10656
0.1098797
0.1223721
0.1246755
0.1262686
0.1270215
0.127169
0.1268424
0.1261224
0.1251731
0.1240819
0.1230005
0.122344
0.1214552
0.1204723
0.1194413
0.1183761
0.1173009
0.1162559
0.1152692
0.1144678
0.1159514
0.1152632
0.1141178
0.1138413
0.1137493
0.1133443
0.1125889
0.1116968
0.110778
0.1098688
0.1089907
0.1081624
0.1073984
0.1067072
0.1060911
0.1055514
0.1050843
0.104673
0.1042991
0.103973
0.1038597
0.1039056
0.1037294
0.1039421
0.1049828
0.1058459
0.1065273
0.1074075
0.1085125
0.1072001
0.1056899
0.1046986
0.1038899
0.1031062
0.1023156
0.1014833
0.1005749
0.09957724
0.09848753
0.09730756
0.09604562
0.09472404
0.09338022
0.09205683
0.09078717
0.08958987
0.08847039
0.08742488
0.08644697
0.08554018
0.08473883
0.08412088
0.08377676
0.08373534
0.08391338
0.08415169
0.0842779
0.08414212
0.08367763
0.08289539
0.08186718
0.08068603
0.0794376
0.07818554
0.07697847
0.07586935
0.07487844
0.07400181
0.07323627
0.07257554
0.07200851
0.07151966
0.07108885
0.07068842
0.07029255
0.06987595
0.06941258
0.06887051
0.06823192
0.06751434
0.06680306
0.06604395
0.06523767
0.06439059
0.06349982
0.06260605
0.06173728
0.06092381
0.06019858
0.05959188
0.05913153
0.05882733
0.05866527
0.05860985
0.05862094
0.05866891
0.05873804
0.05882026
0.05890521
0.05897199
0.05898787
0.05891404
0.0587161
0.05837582
0.05789165
0.05727368
0.05653826
0.05570466
0.05479419
0.05382927
0.05283202
0.051823
0.0508211
0.04984298
0.04890367
0.04801389
0.04718361
0.04641834
0.04571876
0.04508839
0.04452704
0.04403616
0.04361496
0.04326189
0.04297752
0.04276189
0.04260541
0.04249711
0.04243888
0.04253126
0.04258024
0.04240887
0.0421564
0.04188944
0.04161803
0.04135812
0.04113164
0.0409249
0.04069682
0.04040167
0.04001778
0.03956402
0.03907605
0.03858561
0.03811514
0.03767584
0.03727052
0.03689833
0.03655663
0.03624099
0.03593878
0.03564427
0.03536385
0.03509841
0.03484253
0.0345898
0.03433624
0.03408121
0.03382807
0.03358341
0.03335635
0.03315766
0.03299619
0.03287098
0.03268973
0.03284917
0.03316383
0.03347165
0.03378741
0.03409698
0.03440197
0.03470494
0.03500706
0.03530754
0.03560344
0.03589181
0.03616935
0.03643243
0.03668232
0.03694828
0.03726728
0.03760946
0.0379216
0.03824464
0.03860349
0.0389746
0.03931798
0.03986614
0.04066087
0.04111997
0.04125785
0.04121769
0.04106568
0.04081942
0.04047648
0.04003261
0.03949172
0.03886882
0.0381953
0.03719407
0.0368143
0.03633428
0.03575428
0.03510063
0.03442127
0.03376843
0.0331638
0.03260307
0.03211771
0.03168844
0.03130427
0.03096233
0.0306607
0.03039833
0.03017495
0.029991
0.02984748
0.02974545
0.02968554
0.02966764
0.02969059
0.0297519
0.02984709
0.02997018
0.03011451
0.03027244
0.03043466
0.03059082
0.03073166
0.03085118
0.03094673
0.03101773
0.03106479
0.03108974
0.03109544
0.03108576
0.03106597
0.03104233
0.03102153
0.03100972
0.03101272
0.03103421
0.03107646
0.03114262
0.03123439
0.03132872
0.03143361
0.03155198
0.03167991
0.03180423
0.03191461
0.03200602
0.03210874
0.03232337
0.03229041
0.0321972
0.03207581
0.03190764
0.03168474
0.03140872
0.03108504
0.03071877
0.03032107
0.02990569
0.02948635
0.02907566
0.02868536
0.02832298
0.02799507
0.02770728
0.02746131
0.02725541
0.02708644
0.02695021
0.02684211
0.02675768
0.02669236
0.02664171
0.0266017
0.02656856
0.02653804
0.02650551
0.02646969
0.02642769
0.02637685
0.02631442
0.02623809
0.02614708
0.02604121
0.02591856
0.02578053
0.02562881
0.02546571
0.02529447
0.0251192
0.02494508
0.02477766
0.02462284
0.02448653
0.02437411
0.02429021
0.02423893
0.02422439
0.02425024
0.02431989
0.02443562
0.0245989
0.02480938
0.02506414
0.02535827
0.02568534
0.02603788
0.02640749
0.02678481
0.02715934
0.0275192
0.02785114
0.02814081
0.02837363
0.02853568
0.02861515
0.0286066
0.02851069
0.02833257
0.02807858
0.0277584
0.02738622
0.02697951
0.02655662
0.0261297
0.02570744
0.02529957
0.02491126
0.02453969
0.02417352
0.02377775
0.02335443
0.02345595
0.1085502
0.1009484
0.1015253
0.1051008
0.1094825
0.1136744
0.1173273
0.1203775
0.1228865
0.1231986
0.1274688
0.1342169
0.1414495
0.1482324
0.1540263
0.158776
0.1626142
0.1656421
0.1871785
0.187288
0.1872582
0.186787
0.1861086
0.1854433
0.1848703
0.1844246
0.1840869
0.1837024
0.1835818
0.1833537
0.1827287
0.181933
0.1810699
0.1801862
0.179291
0.1783871
0.1774754
0.1768236
0.176332
0.1755148
0.1746631
0.173846
0.173094
0.1724473
0.1719214
0.1715208
0.17126
0.1712016
0.1712845
0.1715756
0.172108
0.1728803
0.1738962
0.1751772
0.1767419
0.1785358
0.1933301
0.1948096
0.1957153
0.1959475
0.1954241
0.1941297
0.1921431
0.1896423
0.1868369
0.1839052
0.1810262
0.1782828
0.1756736
0.1731426
0.1706673
0.1682422
0.165963
0.1639095
0.1622099
0.1606553
0.1589266
0.1574432
0.1562156
0.1549959
0.1536396
0.1521777
0.150667
0.1491271
0.1475699
0.1460151
0.1444879
0.1430145
0.1416198
0.1403244
0.1391453
0.1380926
0.1371706
0.1363672
0.135728
0.1352738
0.1349477
0.1347908
0.1349675
0.1353949
0.1359493
0.1366291
0.1374122
0.1378938
0.1378851
0.1377339
0.1375944
0.1373469
0.1369303
0.1362942
0.135463
0.1344788
0.1333222
0.1319771
0.1304315
0.1286805
0.1267333
0.1246168
0.1223735
0.1200542
0.1177091
0.1153804
0.1130992
0.1108863
0.1087597
0.1067438
0.1048749
0.1031929
0.101724
0.1004716
0.09941613
0.09851853
0.09772886
0.09699912
0.09629108
0.0955782
0.09484537
0.09408824
0.09331089
0.09251638
0.09172955
0.09101025
0.09038778
0.08988187
0.08950281
0.08924966
0.08911009
0.08905977
0.08906481
0.08908499
0.08908017
0.08901283
0.08885636
0.08858881
0.08819051
0.08764285
0.08691814
0.086039
0.08504774
0.08395811
0.08279227
0.0815727
0.08032143
0.07906002
0.07780991
0.07659152
0.07542253
0.07431648
0.07328288
0.07232915
0.0714627
0.07069194
0.07002573
0.06947114
0.06903065
0.06869974
0.06846552
0.06830651
0.06819439
0.06809652
0.0679789
0.06780934
0.06756073
0.06721395
0.06675929
0.06619675
0.06553516
0.06479024
0.06398233
0.06313394
0.06226749
0.06140445
0.06056341
0.059761
0.05900758
0.05831097
0.05767207
0.05709183
0.05656655
0.05609581
0.05566071
0.05525851
0.05486953
0.05450715
0.05382941
0.05289225
0.05211229
0.05144349
0.05085401
0.0503198
0.04983312
0.04939919
0.0490273
0.0487228
0.04848151
0.04828886
0.04812518
0.0479708
0.04780962
0.04763162
0.0474329
0.04721449
0.04698098
0.04673908
0.04649629
0.0462585
0.04602769
0.04580399
0.0455861
0.04537028
0.04515063
0.04492028
0.04467312
0.0444056
0.04411889
0.04381995
0.04351139
0.04320065
0.04289567
0.04261634
0.0424124
0.04230482
0.042283
0.04234769
0.04249939
0.04273523
0.04304707
0.04341985
0.04383217
0.04425986
0.04467857
0.04506359
0.04539096
0.04563941
0.04578971
0.04582775
0.0457454
0.04553633
0.04519702
0.04473134
0.04415504
0.04348523
0.04278297
0.04213011
0.0415426
0.04099476
0.04047701
0.03999242
0.03954782
0.03914693
0.03878908
0.03846824
0.03817681
0.03791906
0.03894992
0.03854276
0.03821302
0.03794181
0.03769612
0.03746155
0.03723506
0.03701893
0.03681386
0.03661706
0.03642793
0.03624679
0.03607545
0.03591777
0.03577956
0.03566791
0.03559051
0.03555475
0.03556695
0.03563164
0.03575103
0.0359245
0.03614813
0.03641457
0.03671302
0.03702909
0.03734547
0.03764416
0.03791007
0.03813439
0.03831487
0.0384536
0.03855495
0.03862491
0.03867068
0.0387003
0.0387219
0.03874249
0.03876671
0.03879622
0.03882979
0.03886357
0.03889136
0.03890514
0.03889535
0.03885189
0.03876614
0.03863776
0.03846728
0.03825429
0.03800075
0.03771227
0.03739407
0.03705583
0.03671216
0.03635632
0.0359824
0.03559693
0.03520714
0.03481716
0.0344296
0.03404652
0.03366999
0.03330179
0.03294346
0.03259645
0.03226207
0.03194145
0.03163585
0.03134603
0.03107306
0.03081889
0.03058465
0.03037082
0.03017679
0.02999934
0.02983541
0.02968232
0.02953746
0.02939804
0.02926109
0.02912368
0.02898345
0.02883875
0.02868841
0.02853145
0.02836766
0.0281981
0.02802513
0.02784984
0.02767105
0.02748807
0.02730089
0.02710981
0.02691532
0.02671808
0.02651904
0.02631945
0.02612076
0.02592456
0.02573255
0.02554653
0.02536846
0.02520055
0.02504532
0.0249057
0.02478507
0.02468723
0.02461632
0.02457664
0.02457264
0.02460894
0.02469045
0.02482247
0.0250105
0.02525957
0.02557328
0.02595216
0.02639253
0.02688517
0.02741532
0.02796276
0.02850398
0.02901333
0.02946668
0.02984456
0.03013658
0.03033489
0.030438
0.0304502
0.03038009
0.03023539
0.03002397
0.02975882
0.02944618
0.02910609
0.02875452
0.02849855
0.02831398
0.05833746
0.06344463
0.06935047
0.07573355
0.08264897
0.0902733
0.09902081
0.1095685
0.1230824
0.1413277
0.213992
0.2316547
0.2481476
0.2620612
0.2752897
0.288113
0.3004252
0.3122099
0.3269065
0.4005399
0.4102511
0.4152883
0.4182432
0.4197
0.4199829
0.4193306
0.4178654
0.4154639
0.4124622
0.4083222
0.4042859
0.4004698
0.3967714
0.3930388
0.3891855
0.3851849
0.3810411
0.3770303
0.3715225
0.3661773
0.3609092
0.3557693
0.3507657
0.3458726
0.3410677
0.3363394
0.3316865
0.3271639
0.3226783
0.3182191
0.313816
0.3094556
0.3051397
0.3008813
0.2967033
0.292642
0.3015652
0.2978016
0.2940543
0.2903836
0.2867682
0.2831986
0.2797142
0.2763477
0.273126
0.2700276
0.2669825
0.2640023
0.261106
0.2582907
0.2555601
0.2529019
0.2502794
0.2476652
0.2450656
0.2424788
0.2399334
0.237487
0.2351616
0.2329857
0.2309758
0.2291303
0.2274432
0.2259205
0.2245886
0.2235049
0.222721
0.2222939
0.2223136
0.2228573
0.2240232
0.2259152
0.2285723
0.2317865
0.2350042
0.2377793
0.2397213
0.2405464
0.2401092
0.2384259
0.2356715
0.232137
0.2281516
0.2240317
0.2200197
0.2162234
0.2126547
0.2093124
0.2061256
0.2030082
0.1999408
0.1969707
0.194195
0.191537
0.188997
0.186674
0.184579
0.1826123
0.1806669
0.1786953
0.176695
0.174675
0.1726485
0.1706349
0.1686598
0.1667542
0.1649484
0.1632726
0.1617509
0.1604055
0.1592432
0.1582598
0.1574384
0.1568304
0.1564284
0.156262
0.1563613
0.1567586
0.1574034
0.1582326
0.1591738
0.1601144
0.1608525
0.1613914
0.1617933
0.1620177
0.1619869
0.1616218
0.1608557
0.1597784
0.1583967
0.1567096
0.1547197
0.1524355
0.1498782
0.1470851
0.1441076
0.1410047
0.1378381
0.1346663
0.1315404
0.1285011
0.1255797
0.1228012
0.1201879
0.1177565
0.1155145
0.1134602
0.111583
0.1098656
0.1082882
0.1068332
0.1054864
0.1042376
0.1030807
0.1020138
0.1010356
0.1001483
0.09935882
0.09869316
0.09820544
0.09790538
0.09779569
0.09786905
0.09810517
0.09846903
0.0989125
0.09938058
0.09981774
0.1001742
0.1004092
0.1004932
0.1004017
0.1001143
0.09961674
0.09890901
0.09803184
0.09700929
0.09586975
0.09464056
0.09334565
0.09200509
0.0906353
0.08924949
0.08785796
0.08646873
0.08508882
0.08372592
0.08238973
0.08109244
0.07984818
0.07867163
0.07757641
0.07657348
0.07566971
0.07486678
0.07416046
0.07354076
0.0729926
0.07249696
0.07203269
0.07157866
0.07111583
0.07062931
0.07010959
0.06955294
0.06896161
0.06834284
0.06770784
0.06706971
0.06644344
0.06584342
0.06528323
0.06477185
0.06431592
0.06391558
0.06357282
0.06327876
0.06302859
0.06279827
0.06258427
0.0623504
0.06207551
0.06176358
0.06140143
0.06097676
0.06049262
0.05996207
0.05939422
0.05879521
0.05817452
0.05754405
0.05691676
0.05630522
0.05572047
0.055171
0.05466233
0.05419712
0.05377547
0.05339538
0.05305374
0.05274723
0.05247243
0.05222563
0.05200295
0.05180053
0.05161438
0.05144028
0.05127381
0.05111074
0.0509476
0.05078237
0.05061477
0.05045117
0.05029864
0.05016853
0.05007705
0.05004636
0.05010099
0.05025438
0.0505118
0.05087828
0.0513547
0.05193546
0.05260612
0.05334348
0.05411942
0.0549046
0.05566885
0.05638261
0.05702036
0.05756209
0.0579933
0.05830472
0.05849155
0.058553
0.05849336
0.05832565
0.05806059
0.05771255
0.05729099
0.05679281
0.05621113
0.05554369
0.05479449
0.05397324
0.05309238
0.05216751
0.05121304
0.05024641
0.04928066
0.04833553
0.04744721
0.04660843
0.04581416
0.0450625
0.04436128
0.04371562
0.04312389
0.04258001
0.04207878
0.0416247
0.04122613
0.04088721
0.04060548
0.04038116
0.04021652
0.0401152
0.04008145
0.04011943
0.04023234
0.04042166
0.04068651
0.04102305
0.04142385
0.04187765
0.04236932
0.04288006
0.04338871
0.04387458
0.04432214
0.04472487
0.04508406
0.04540467
0.04569288
0.04595595
0.04620212
0.04643978
0.04667582
0.04691385
0.04715319
0.04738927
0.04761455
0.04781921
0.04799174
0.0481198
0.04819081
0.04819315
0.04811816
0.04796318
0.04773268
0.04743255
0.04706988
0.0466534
0.04618865
0.04568604
0.04514997
0.04458394
0.0439964
0.04339509
0.04278655
0.04217698
0.04157248
0.04097898
0.0404019
0.03984596
0.03931518
0.03881285
0.03834141
0.03790233
0.03749608
0.03712222
0.03677946
0.03646554
0.03617713
0.03591008
0.03566061
0.0354276
0.0352102
0.03500718
0.03481403
0.03462575
0.03443719
0.03424345
0.03404049
0.03382527
0.03359532
0.03334866
0.03308522
0.03280734
0.03251898
0.03222257
0.03192099
0.03161731
0.03131449
0.03101519
0.03072161
0.03043542
0.03015779
0.02988933
0.0296302
0.02938016
0.02913864
0.02890484
0.02867786
0.02845685
0.02824118
0.02803059
0.02782523
0.02762564
0.02743264
0.02724732
0.02707101
0.02690546
0.02675308
0.02661724
0.02650242
0.02641432
0.02635966
0.02634578
0.02637983
0.026468
0.02661429
0.02681994
0.02708176
0.02739255
0.02773981
0.02810883
0.02848119
0.02884053
0.02916783
0.02945235
0.02967825
0.02984547
0.02994193
0.02998225
0.0299501
0.02987682
0.02974425
0.02961569
0.02946996
0.04495325
0.05124541
0.05692493
0.08850552
0.1201332
0.159549
0.185644
0.2116808
0.2360969
0.2590142
0.2792879
0.2969154
0.314032
0.3313729
0.3488245
0.3661108
0.3829149
0.3994449
0.4157446
0.4316966
0.4471853
0.4619329
0.4756115
0.4879164
0.4991381
0.5094038
0.5186847
0.5266662
0.5329444
0.5375488
0.5407681
0.5591228
0.5571033
0.5538875
0.5497902
0.5449636
0.5395645
0.5337398
0.5275985
0.52126
0.5148331
0.5083128
0.5017508
0.4951712
0.4886183
0.4821165
0.475681
0.4693136
0.4629918
0.4564961
0.4498744
0.443225
0.4365448
0.4298573
0.4231846
0.4165414
0.4099383
0.4033983
0.3969459
0.3906159
0.3844633
0.3785137
0.3727623
0.3671869
0.3617524
0.3564191
0.3511721
0.3459817
0.3406989
0.335675
0.3309212
0.3263815
0.3219738
0.3176588
0.3134752
0.3094966
0.3057656
0.3022628
0.298923
0.2956839
0.2925147
0.2894334
0.2864742
0.2836347
0.2808591
0.278076
0.2752554
0.2724295
0.2696459
0.2669329
0.2643372
0.2619177
0.2597078
0.2577113
0.2559212
0.254356
0.2530836
0.2521816
0.2517233
0.2518281
0.2526716
0.2544246
0.2573215
0.2616631
0.2674708
0.2742206
0.280907
0.2865721
0.2905293
0.2923703
0.2919198
0.2892686
0.2848225
0.2792209
0.2731291
0.2670805
0.2613708
0.2560693
0.2511658
0.2465229
0.242016
0.2375538
0.2331479
0.2288746
0.2248332
0.2210674
0.217587
0.2144157
0.2115552
0.2089408
0.2064615
0.2040241
0.2015871
0.1991468
0.1967135
0.1943058
0.191952
0.1896889
0.1875555
0.1855894
0.1838236
0.1822874
0.1809959
0.179948
0.1791124
0.1785637
0.17833
0.1784472
0.1789516
0.1798565
0.1811289
0.1826993
0.1844735
0.1863426
0.1881732
0.1898438
0.1912578
0.1922999
0.1928392
0.192765
0.1920139
0.1906695
0.1888195
0.1864691
0.1836465
0.1804003
0.1767929
0.1728973
0.1687944
0.1645677
0.1602975
0.1560584
0.1519167
0.1479268
0.1441284
0.1405457
0.1371901
0.1340627
0.1311556
0.1284549
0.1259432
0.1236028
0.1214189
0.1193816
0.1174855
0.1157296
0.1141166
0.1126528
0.1113469
0.1102108
0.1092578
0.1085005
0.1079892
0.1077642
0.1078226
0.1081479
0.1087065
0.1094448
0.1102926
0.1111728
0.1120107
0.1127408
0.1133112
0.1136848
0.1138311
0.1137251
0.1133561
0.112745
0.1119354
0.1109569
0.109843
0.1086233
0.1073204
0.1059505
0.1045242
0.1030482
0.1015269
0.09996404
0.0983642
0.09673409
0.09508353
0.09342528
0.0917747
0.09014855
0.08856382
0.08703635
0.08557988
0.0842056
0.08292141
0.08173143
0.08063585
0.07963102
0.07870985
0.07786258
0.07707794
0.07634431
0.07565129
0.07499074
0.07435794
0.07375154
0.07317384
0.07263006
0.07212865
0.07167877
0.07128979
0.07096825
0.07071818
0.0705367
0.07041691
0.07035594
0.07034641
0.0703675
0.07040007
0.07042015
0.0704068
0.07033659
0.07018922
0.06994837
0.06960158
0.06914073
0.06857788
0.06793128
0.06720876
0.06642308
0.06559106
0.06473228
0.06386742
0.06301642
0.06219693
0.06142299
0.06070447
0.06004668
0.05945107
0.05891621
0.05843824
0.05801144
0.05762919
0.0572846
0.05697107
0.0566828
0.05641518
0.05616533
0.05593245
0.05571793
0.05552508
0.0553618
0.05524366
0.0551856
0.05520549
0.05532285
0.05555642
0.05591998
0.05642088
0.05706124
0.05783746
0.05873825
0.05974202
0.06081738
0.06192835
0.06303975
0.06411664
0.06512684
0.066046
0.06685726
0.06755007
0.06811937
0.06856429
0.06888748
0.06909631
0.06919885
0.0691923
0.06908554
0.06887406
0.06854424
0.06808601
0.06749944
0.06679096
0.06597358
0.06505988
0.06406837
0.06301061
0.06190853
0.06076729
0.05961191
0.05845393
0.0573025
0.05617117
0.05507032
0.05400868
0.05299322
0.05202932
0.05112135
0.05027319
0.04948851
0.04876981
0.04812538
0.04757381
0.04712069
0.0467696
0.04652436
0.04638841
0.04636412
0.04645212
0.04665058
0.04695472
0.04735611
0.04784218
0.04839589
0.04899599
0.04961798
0.05023612
0.05082779
0.05137975
0.05189146
0.05236997
0.05282305
0.05325797
0.05368315
0.05410785
0.05453979
0.05498211
0.05543156
0.05587887
0.05631091
0.05671302
0.05707015
0.05736674
0.05758779
0.05771922
0.05774935
0.05767176
0.05748848
0.05721108
0.05685351
0.05642881
0.05594558
0.05540783
0.05481995
0.05418649
0.05351438
0.05281359
0.05209361
0.05136244
0.05062718
0.04989469
0.04917177
0.04846481
0.04777974
0.047122
0.0464964
0.04590669
0.04535514
0.04484238
0.0443676
0.04392892
0.04352388
0.04314986
0.04280412
0.04248372
0.04218519
0.04190415
0.04163618
0.04138003
0.0411327
0.04088682
0.04063547
0.04037276
0.04009404
0.03979544
0.03947389
0.03912854
0.03876163
0.03837746
0.03798072
0.03757607
0.03716833
0.03676204
0.03636122
0.03596915
0.03558835
0.03522053
0.03486666
0.03452704
0.03420139
0.03388896
0.03358863
0.03329896
0.03301832
0.03274496
0.0324771
0.03221302
0.03195097
0.03168923
0.03142607
0.03115983
0.03088906
0.03061274
0.03033063
0.03004348
0.02975331
0.02946363
0.02917953
0.02890762
0.02865577
0.02843257
0.02824664
0.02810547
0.02801475
0.02797696
0.0279917
0.02805443
0.02815826
0.02829226
0.0284455
0.02860421
0.02875871
0.02889665
0.02901228
0.02909692
0.02915184
0.02917482
0.02917026
0.02915224
0.02245867
0.02512063
0.02771762
0.03721257
0.04973544
0.07100505
0.08591206
0.1017242
0.1186949
0.1359135
0.1537344
0.1732756
0.1941856
0.2156056
0.2379059
0.2629134
0.3014382
0.319623
0.3381979
0.3571191
0.3766214
0.3959327
0.4144005
0.4320444
0.4487133
0.46478
0.480343
0.4953929
0.5098687
0.5236402
0.5365742
0.5485068
0.5591221
0.5682181
0.5753684
0.5801832
0.5831878
0.5841034
0.5828145
0.5796523
0.5753748
0.5697554
0.561133
0.5528489
0.5446298
0.5363808
0.5281882
0.5201533
0.5123601
0.5048759
0.4977439
0.4909895
0.4845922
0.4785155
0.4727032
0.4671013
0.461657
0.456335
0.4511189
0.4460028
0.4409813
0.4359265
0.4306974
0.425429
0.4201801
0.4149725
0.4097996
0.4046426
0.399491
0.3943593
0.3892898
0.3843474
0.3795845
0.3750227
0.3706339
0.3663593
0.3621134
0.3578612
0.3535915
0.3493886
0.3453711
0.3415846
0.3379623
0.3343898
0.3308023
0.3272691
0.3239412
0.3209129
0.3181684
0.3156041
0.313094
0.3106074
0.3082007
0.3059287
0.3037776
0.3016542
0.2994405
0.2970919
0.2946738
0.2922697
0.2899318
0.2877387
0.2857825
0.2841054
0.2827015
0.2815637
0.280758
0.2804366
0.2807294
0.2817641
0.2837868
0.2871676
0.2923298
0.2999135
0.3105858
0.3241178
0.3389573
0.3528496
0.3639419
0.371258
0.3743813
0.3731076
0.3676945
0.3591387
0.3489852
0.3388699
0.3293467
0.3203669
0.3119244
0.3039149
0.2962064
0.2887033
0.281378
0.2742943
0.2675721
0.2613297
0.2556138
0.2504434
0.2458207
0.2417193
0.2380589
0.2347048
0.2315195
0.2284292
0.2254119
0.2224693
0.2196171
0.2168856
0.2143176
0.2119585
0.2098498
0.2080272
0.2065213
0.205352
0.2045269
0.2040377
0.2039386
0.2043869
0.2054536
0.2071887
0.2095843
0.2125629
0.2159796
0.2196864
0.2235035
0.2272941
0.230825
0.2338258
0.2360244
0.237211
0.2372624
0.236144
0.2339794
0.2309483
0.2270783
0.2224505
0.2171995
0.2114889
0.2054935
0.1993696
0.1932399
0.187202
0.1813355
0.175707
0.1703715
0.1653681
0.1607142
0.1564079
0.1524331
0.1487648
0.145374
0.1422317
0.1393124
0.1365966
0.134072
0.1317335
0.129582
0.1276238
0.1258703
0.124337
0.1230422
0.1220063
0.1212514
0.1208067
0.120746
0.1210641
0.1217335
0.1227018
0.1238905
0.125201
0.1265311
0.127786
0.128885
0.1297665
0.130384
0.130696
0.1306697
0.1303062
0.129673
0.1288243
0.1278008
0.1266394
0.1253668
0.1239984
0.1225409
0.1209957
0.1193625
0.1176419
0.115837
0.113954
0.1120027
0.1099964
0.1079515
0.1058864
0.1038203
0.1017727
0.09976297
0.09780856
0.09592369
0.09412017
0.09240797
0.09079488
0.08928618
0.08788449
0.08658973
0.08539964
0.08431036
0.08331729
0.08241596
0.08160294
0.08087638
0.08023646
0.07968536
0.07922705
0.07886588
0.0786058
0.07844888
0.07839401
0.07843486
0.07855913
0.07874666
0.07899453
0.07928383
0.07958636
0.07987214
0.0801112
0.08027525
0.08033934
0.08028142
0.08008371
0.07973401
0.07922678
0.07857576
0.07780599
0.07693112
0.07597074
0.07494877
0.07389126
0.07282405
0.07177075
0.07075133
0.06978123
0.06887125
0.06802757
0.06725215
0.0665434
0.06589684
0.06530613
0.06476415
0.06426397
0.06379979
0.06336782
0.06296703
0.06259968
0.06227156
0.06199161
0.06176974
0.06162551
0.06158123
0.06165779
0.06187555
0.06225211
0.06279985
0.06352437
0.06442394
0.06548843
0.06669726
0.06801789
0.06940794
0.07082265
0.07222091
0.07356434
0.07482183
0.07597484
0.07701327
0.07793253
0.07873171
0.07941158
0.07997419
0.08042575
0.08074693
0.08094234
0.0810136
0.08094633
0.08072256
0.08033576
0.07979302
0.07910844
0.07830009
0.07738528
0.07638171
0.075302
0.0741602
0.07296372
0.07172772
0.07046118
0.06917037
0.06786696
0.06656319
0.06526951
0.06399572
0.06275236
0.06155086
0.06040299
0.05932025
0.05831314
0.05739102
0.05656561
0.05585958
0.05528177
0.0548396
0.05453872
0.05438222
0.05437003
0.05449852
0.05476011
0.05514264
0.0556286
0.05619472
0.05681275
0.05745185
0.05808277
0.05868425
0.05925095
0.05979391
0.06032634
0.06085522
0.0613865
0.06193023
0.0624973
0.0630932
0.06371322
0.06434242
0.06495955
0.06554204
0.06606952
0.06652447
0.06688974
0.0671495
0.06728994
0.06730046
0.06717794
0.06693128
0.06658157
0.06615362
0.06566631
0.06512518
0.06452689
0.0638701
0.0631607
0.0624101
0.06163148
0.06083626
0.06003293
0.05922797
0.05842695
0.05763527
0.05685825
0.05610129
0.05536994
0.05466962
0.05400467
0.05337734
0.05278737
0.05223254
0.05170984
0.05121719
0.05075438
0.05032247
0.04992204
0.04955148
0.04920639
0.04888032
0.04856558
0.0482561
0.04794898
0.04763606
0.0473102
0.04696559
0.0465975
0.04620242
0.04577959
0.04533167
0.04486382
0.04438284
0.04389477
0.04340532
0.04291937
0.04244076
0.04197234
0.04151615
0.04107352
0.04064522
0.04023165
0.03983293
0.03944908
0.03907992
0.03872491
0.03838295
0.03805232
0.0377306
0.03741486
0.03710178
0.03678777
0.03646912
0.03614217
0.03580349
0.03545003
0.03507941
0.03469015
0.03428186
0.03385545
0.03341329
0.0329593
0.03249898
0.03203918
0.03158784
0.0311535
0.03074466
0.03036912
0.03003327
0.02974166
0.02949662
0.02929805
0.02914311
0.02902723
0.02894387
0.02888642
0.02884679
0.02881942
0.02879729
0.0287779
0.02875375
0.02873856
0.00973935
0.01131618
0.01254305
0.01867143
0.02573619
0.03506052
0.04271184
0.05137072
0.0607565
0.07073998
0.08168696
0.09458445
0.1087139
0.1244874
0.1433533
0.1724389
0.1879599
0.2043005
0.220926
0.2377944
0.2548351
0.2719255
0.2889109
0.3056422
0.3219566
0.3378334
0.3532946
0.3699892
0.3869316
0.4043807
0.4223334
0.4402679
0.4575246
0.4736474
0.488959
0.5035156
0.5173211
0.5302921
0.5422559
0.5529836
0.5622794
0.5699119
0.5751454
0.5778555
0.5779696
0.5754312
0.5706178
0.5637201
0.5549928
0.5448786
0.5338151
0.5222779
0.5105181
0.4990071
0.4879541
0.4774656
0.467642
0.4585676
0.4502973
0.4428575
0.4362544
0.4304542
0.4253866
0.4209353
0.4169824
0.4133829
0.4100596
0.4069634
0.404029
0.4011043
0.3980181
0.3949276
0.3918831
0.3889531
0.3861533
0.3834529
0.3807886
0.3780921
0.3753234
0.3724882
0.3696357
0.366848
0.3642023
0.3617327
0.3594065
0.3571346
0.3548029
0.3523382
0.3497629
0.347212
0.344853
0.3427471
0.3407984
0.3388346
0.3367591
0.3347033
0.3329346
0.3315837
0.3305628
0.3296976
0.3287975
0.3278678
0.3270398
0.3263663
0.3257395
0.3249362
0.3237783
0.3222915
0.3206737
0.3190812
0.3175957
0.3163562
0.3155004
0.3150553
0.3149781
0.3153149
0.3162926
0.3182003
0.3212004
0.3255383
0.3317387
0.3404994
0.3527652
0.3702398
0.3943936
0.4238647
0.4543536
0.4809808
0.5006531
0.5127143
0.5171824
0.5136493
0.5023764
0.4855409
0.4669671
0.4497698
0.4339474
0.4192396
0.4050709
0.3910455
0.3770824
0.3633386
0.3501229
0.3377075
0.3262759
0.3159245
0.3066328
0.298336
0.2909607
0.2844277
0.2786284
0.2734
0.2685667
0.2640376
0.2597857
0.2558086
0.2521195
0.2487504
0.2457493
0.2431672
0.2410403
0.2393892
0.2382255
0.2375665
0.2374452
0.2378963
0.2389786
0.2410286
0.2442308
0.2486009
0.2539809
0.260134
0.2667947
0.2737347
0.2807029
0.2874312
0.29345
0.2983025
0.3016041
0.3030832
0.3026783
0.3004655
0.2966023
0.2913021
0.284576
0.2765944
0.2677064
0.2583084
0.2487588
0.2393275
0.2301871
0.2214376
0.213135
0.2053114
0.1980007
0.19124
0.1850396
0.1793806
0.1742258
0.1695286
0.1652402
0.1613155
0.1577163
0.1544133
0.1513865
0.1486254
0.1461283
0.1439014
0.1419582
0.1403177
0.1390044
0.1380462
0.1374726
0.1373094
0.1376297
0.1384389
0.1396892
0.1412983
0.143147
0.1450972
0.1470156
0.1487808
0.1503037
0.1515164
0.1523565
0.1527546
0.1526639
0.1521232
0.1512943
0.1502523
0.1490541
0.1477341
0.1463054
0.1447653
0.1431023
0.1413035
0.1393614
0.1372769
0.1350585
0.132719
0.130274
0.1277491
0.1251704
0.1225638
0.1199541
0.1173645
0.1148157
0.1123251
0.1099087
0.1075804
0.1053529
0.1032371
0.101242
0.09937533
0.09764313
0.09604927
0.09459569
0.09328348
0.0921135
0.09108671
0.09020445
0.08946855
0.08888113
0.08844414
0.08815826
0.08802223
0.0880322
0.08818093
0.08845701
0.08884313
0.08931374
0.08983424
0.09039752
0.09097095
0.09151503
0.09199094
0.09236276
0.09260094
0.09268006
0.0925777
0.09227857
0.09177736
0.09107918
0.09021675
0.08921813
0.08810895
0.08691925
0.08567997
0.08442005
0.08316449
0.08193402
0.08074465
0.07960864
0.07853446
0.07752565
0.07658212
0.07570123
0.07487842
0.07410837
0.07338616
0.0727085
0.07207471
0.07148765
0.07095411
0.07048498
0.07009481
0.06980064
0.06961827
0.06957718
0.06970139
0.07001173
0.07052455
0.07125005
0.07219096
0.07334062
0.07468
0.07617543
0.07778021
0.07944055
0.08110435
0.08272641
0.08426912
0.08570797
0.0870395
0.08826312
0.08937892
0.0903868
0.09128335
0.09206322
0.09268393
0.09313766
0.09343674
0.09358169
0.09355527
0.09333899
0.09293304
0.09235602
0.09163392
0.09079373
0.08985885
0.0888471
0.08776852
0.08662747
0.08542217
0.08415903
0.08284267
0.08147655
0.08006846
0.07862806
0.0771654
0.07569312
0.07422819
0.07279035
0.07139941
0.07007366
0.06882951
0.06768157
0.06664369
0.06573451
0.06496929
0.06435904
0.06391209
0.06363243
0.06351929
0.0635674
0.06376709
0.06410348
0.06455465
0.06509068
0.06567533
0.06627106
0.06684708
0.06738897
0.06790672
0.06842903
0.06897069
0.06952973
0.07011053
0.07073089
0.07140657
0.07213717
0.07290318
0.07367133
0.0744064
0.0750781
0.07566403
0.0761485
0.07651739
0.07675613
0.07685181
0.07679552
0.07658721
0.07624214
0.07579119
0.07527228
0.0747102
0.07410306
0.07343572
0.07270325
0.07191744
0.07109584
0.07025603
0.06941173
0.06857027
0.06773506
0.06690797
0.06609087
0.06528635
0.06449819
0.06373149
0.06299216
0.0622852
0.06161233
0.06097097
0.06035558
0.05976092
0.05918568
0.05863431
0.05811497
0.05763482
0.05719515
0.05678993
0.05640886
0.05604101
0.05567632
0.05530809
0.05493192
0.05454019
0.05412631
0.05368472
0.05321207
0.05270877
0.05217913
0.05163051
0.05107263
0.05051327
0.04995857
0.04941261
0.04887747
0.04835394
0.04784222
0.04734232
0.04685427
0.04637836
0.0459154
0.04546687
0.04503457
0.0446199
0.04422305
0.0438425
0.04347499
0.04311589
0.04275986
0.04240133
0.04203485
0.04165545
0.04125877
0.04084099
0.04039899
0.0399308
0.03943551
0.03891321
0.03836511
0.03779367
0.03720264
0.03659704
0.03598311
0.03536805
0.03475968
0.03416599
0.0335946
0.03305225
0.03254451
0.03207572
0.03164854
0.03126425
0.03092221
0.03062113
0.0303576
0.03012924
0.02993086
0.02976023
0.02961033
0.02948916
0.002392631
0.009301209
0.01384845
0.01912413
0.02499964
0.03171626
0.03937239
0.04777002
0.05717188
0.06849276
0.08556623
0.09584111
0.106981
0.1186976
0.1310403
0.1439466
0.1573463
0.1711193
0.1850909
0.1991238
0.213198
0.2290825
0.2452105
0.2613982
0.2775207
0.2935223
0.3092892
0.3248324
0.340079
0.3548974
0.3695079
0.3840656
0.3989686
0.41391
0.4289408
0.4440049
0.4587128
0.4727149
0.4861465
0.4990323
0.5113162
0.5228931
0.5335802
0.5429854
0.5507261
0.5563313
0.5590729
0.5587855
0.5556456
0.5497086
0.5411109
0.530274
0.5176688
0.5037557
0.489054
0.4740674
0.4592854
0.4451182
0.4319033
0.4198968
0.4092378
0.399954
0.3920173
0.3853611
0.3799171
0.375616
0.3723701
0.3700491
0.3684868
0.3674815
0.366788
0.3659914
0.3650202
0.3639803
0.3629176
0.3618704
0.3609634
0.360282
0.3598545
0.3596361
0.3595334
0.3594284
0.3592151
0.358834
0.3583073
0.3577355