/*--------------------------------*- C++ -*----------------------------------*\
| =========                 |                                                 |
| \\      /  F ield         | foam-extend: Open Source CFD                    |
|  \\    /   O peration     | Version:     3.1                                |
|   \\  /    A nd           | Web:         http://www.extend-project.de       |
|    \\/     M anipulation  |                                                 |
\*---------------------------------------------------------------------------*/
FoamFile
{
    version     2.0;
    format      ascii;
    class       volScalarField;
    location    "17.5";
    object      nut;
}
// * * * * * * * * * * * * * * * * * * * * * * * * * * * * * * * * * * * * * //

dimensions      [0 2 -1 0 0 0 0];

internalField   nonuniform List<scalar> 
119952
(
5.137114e-05
3.438783e-05
3.526926e-05
3.914741e-05
4.158647e-05
3.934176e-05
3.784961e-05
3.678759e-05
3.598343e-05
3.530546e-05
3.470616e-05
3.415408e-05
3.362506e-05
3.310154e-05
3.256858e-05
3.201881e-05
3.144518e-05
3.084574e-05
3.019912e-05
2.947905e-05
3.768107e-05
3.574746e-05
3.512495e-05
4.570896e-05
4.433774e-05
4.372414e-05
4.31926e-05
4.307325e-05
4.308909e-05
2.760692e-05
3.117558e-05
3.41339e-05
3.863232e-05
4.315987e-05
4.791642e-05
5.293148e-05
5.826858e-05
6.382327e-05
6.955502e-05
7.936095e-05
0.0003559454
0.0004156933
0.0004836286
0.0005570938
0.0006335027
0.0007114721
0.0007903311
0.0008696137
0.0009479804
0.001357944
0.001436882
0.001508438
0.001569422
0.00161884
0.001656792
0.001684524
0.001705102
0.0017217
0.001737158
0.001756181
0.001773852
0.001791781
0.001810251
0.001829843
0.001851883
0.001878116
0.001910115
0.001949374
0.001835221
0.001997096
0.002008601
0.002028674
0.00204738
0.002048895
0.00204178
0.002033189
0.002026021
0.00202182
0.002021611
0.002026001
0.002035216
0.002049104
0.002067256
0.002089231
0.002114486
0.002142874
0.002174844
0.002209934
0.00225051
0.002293485
0.002337449
0.002392371
0.002452231
0.002498185
0.00253166
0.002543326
0.002342613
0.002299986
0.002245789
0.002212301
0.002186797
0.002158259
0.002124498
0.002083014
0.002031748
0.001970164
0.001898851
0.001819445
0.00173484
0.001649083
0.001566671
0.00149147
0.001425779
0.001370086
0.001323376
0.00128377
0.001249323
0.001218942
0.00119319
0.001174359
0.001165214
0.001167185
0.001179534
0.001200039
0.00122589
0.001254334
0.00128361
0.001313079
0.001342917
0.00137353
0.001405189
0.001437829
0.001471429
0.001505925
0.001540552
0.0015743
0.001606355
0.001636
0.001662547
0.001685275
0.001703314
0.001715714
0.001721719
0.001720717
0.00171207
0.001694461
0.001666989
0.001626695
0.001576781
0.001521783
0.001463548
0.001403162
0.00134146
0.001280231
0.00122076
0.001164182
0.001111486
0.00106376
0.001021886
0.0009860911
0.0009558097
0.0009300648
0.0009079518
0.0008890621
0.0008734817
0.0008615685
0.0008536141
0.0008495862
0.0008490595
0.0008513305
0.00085564
0.0008613602
0.0008679657
0.0008749059
0.0008816292
0.0008876281
0.0008924842
0.0008958986
0.0008976913
0.0008977865
0.0008962096
0.0008930448
0.0008884649
0.0008825722
0.0008754832
0.000867252
0.0008577949
0.0008471845
0.0008353856
0.0008224963
0.0008086144
0.0007938529
0.0007785228
0.0007629628
0.0007472909
0.0007316288
0.000717528
0.0005953723
0.0005754053
0.0005528829
0.0005302356
0.0005131119
0.0004926166
0.000475539
0.0004625494
0.0004529441
0.0004456589
0.0004394467
0.000433252
0.0004269122
0.0004207002
0.0004148418
0.0004094682
0.0004046208
0.0004002239
0.000396158
0.000392313
0.0003886635
0.0003850058
0.0003810485
0.0003769978
0.0003729384
0.0003688237
0.0003645725
0.000360125
0.0003554605
0.0003506067
0.0003456316
0.000340638
0.0003357615
0.0003311876
0.0003273331
0.000328071
0.0003364649
0.0003458514
0.0003548033
0.0003645611
0.0003736775
0.0003825621
0.0003911741
0.0003994504
0.0004072933
0.0004145796
0.0004211796
0.000426946
0.0004317039
0.0004352216
0.0004373296
0.0004382986
0.0004379139
0.0004275813
0.0004133489
0.0003980178
0.0003826657
0.0003646408
0.000347238
0.0003448468
0.0003523583
0.0003614257
0.000369863
0.0003779589
0.0003860306
0.0003941446
0.00040225
0.0004103181
0.0004184211
0.0004252032
0.000549589
0.0005189906
0.0005482929
0.0005760014
0.0005898681
0.0005996844
0.0006096304
0.0006199616
0.0006303469
0.000641143
0.000652191
0.0006633566
0.0006746346
0.0006860672
0.0006977209
0.0007096673
0.0007219745
0.0007346984
0.0007478703
0.0007614838
0.0007754835
0.0007897548
0.0008041196
0.0008183424
0.0008320905
0.0008449477
0.0008564307
0.0008660576
0.000873427
0.0008783312
0.0008808179
0.0008811441
0.0008796795
0.000876827
0.0008729767
0.0008685144
0.0008638396
0.0008593263
0.0008552673
0.0008518316
0.0008490683
0.0008469368
0.0008452541
0.0008437138
0.000841952
0.0008395565
0.000835794
0.0008311987
0.000826578
0.0008217243
0.0008163773
0.0008110977
0.0008063244
0.0008021349
0.0008000622
0.0007968227
0.0007934475
0.0007912169
0.0007899316
0.0007894058
0.0007895283
0.0007898757
0.0007901283
0.0007904737
0.0007910797
0.0007920929
0.0007937444
0.0007962077
0.0007992305
0.0008026232
0.0008062501
0.0008099318
0.0008134845
0.0008167676
0.0008196887
0.0008222008
0.0008242878
0.0008259429
0.0008271674
0.0008279748
0.0008283848
0.0008284129
0.0008280902
0.0008274887
0.0008266651
0.0008256722
0.0008245757
0.0008234613
0.0008224322
0.000821555
0.000820848
0.0008203311
0.0008199643
0.0008196665
0.0008193287
0.0008188262
0.0008180849
0.0008170528
0.000815656
0.0008138396
0.0008115469
0.0008086809
0.0008050086
0.0008003134
0.0007948017
0.0007887708
0.0007825572
0.0007765353
0.0007711104
0.0007666149
0.000763275
0.000761239
0.0007606235
0.0007615508
0.0007641622
0.0007686056
0.0007750111
0.0007834677
0.0007940035
0.0008065596
0.0008209429
0.000836771
0.0008535327
0.0008706928
0.000887611
0.0009034379
0.0009177716
0.0009306819
0.0009424316
0.0009536033
0.000964429
0.0009749924
0.0009855342
0.0009962682
0.001007372
0.001019149
0.001031978
0.001048136
0.0008520836
4.573428e-05
4.918927e-05
5.570409e-05
6.375971e-05
7.253634e-05
8.150309e-05
9.040081e-05
9.912088e-05
0.0001086247
0.0004202619
0.0005350119
0.000658907
0.00078301
0.0009019873
0.001012501
0.001114223
0.001207961
0.001295016
0.001857434
0.001942593
0.002030738
0.002117175
0.002201549
0.002284424
0.00236598
0.002446275
0.00252488
0.002600072
0.002673151
0.002742626
0.002807907
0.002871714
0.002934934
0.002997484
0.003058921
0.003119173
0.003178834
0.003226446
0.003262354
0.003301334
0.003346692
0.003398109
0.00345548
0.003518703
0.00358746
0.003661527
0.003740895
0.003826836
0.003918496
0.004017024
0.004123095
0.00423629
0.0043557
0.004480341
0.004608499
0.004735635
0.005641231
0.00572932
0.005790923
0.005824685
0.005829986
0.005808541
0.005764897
0.005706194
0.005639846
0.005571823
0.005506324
0.00544439
0.005385583
0.005329004
0.005275735
0.005227617
0.005189185
0.005161536
0.005145779
0.005135573
0.005122575
0.00512021
0.005119268
0.005111435
0.005095573
0.005075271
0.005053441
0.005031927
0.005012555
0.004997177
0.004987411
0.004984487
0.004989177
0.005001852
0.005022531
0.005051016
0.005086836
0.005127505
0.00517365
0.005226111
0.00528251
0.005343835
0.005411619
0.005480641
0.005546445
0.005607153
0.005659889
0.005685364
0.00569472
0.005701888
0.005703212
0.005692661
0.005665757
0.005615669
0.005541704
0.005446388
0.005328058
0.00518618
0.005021908
0.004838704
0.00464245
0.004440733
0.004241452
0.004051319
0.003874841
0.003714084
0.003569127
0.003438983
0.003322642
0.003219811
0.003130993
0.003056895
0.00299781
0.002953472
0.002923183
0.002906034
0.002901151
0.002907853
0.002925587
0.002953775
0.002991741
0.003038538
0.003092677
0.003151611
0.00321491
0.00328576
0.003363571
0.003447295
0.003535589
0.003626798
0.00371897
0.003809864
0.003897061
0.00397808
0.004050586
0.004112426
0.004161845
0.004197187
0.00421676
0.004218299
0.004197997
0.00415732
0.004100281
0.004028526
0.003944093
0.003849001
0.003745405
0.003635444
0.003521265
0.003404808
0.003287679
0.003171181
0.003056526
0.002945077
0.002838467
0.002738522
0.002647058
0.002565632
0.002495374
0.002436918
0.00239043
0.002355666
0.002332025
0.00231863
0.002314407
0.002318155
0.002328634
0.002344628
0.002365011
0.002388781
0.002415091
0.002443243
0.002472679
0.002502929
0.002533585
0.002564246
0.002594519
0.002623958
0.002651954
0.002677834
0.002700809
0.00272012
0.002735357
0.002745822
0.002750049
0.002747494
0.002737006
0.002721756
0.002625633
0.002494188
0.002382122
0.002283243
0.002193401
0.002110347
0.002033442
0.001963051
0.001899798
0.00184416
0.00179626
0.001755973
0.001723035
0.001697042
0.001677486
0.001663781
0.001655275
0.001651257
0.001651015
0.001653891
0.001659304
0.001666711
0.001675679
0.001685977
0.001697527
0.001710328
0.001724418
0.001739868
0.001756805
0.001775431
0.001796201
0.001819802
0.001845751
0.001874463
0.001906487
0.0019426
0.001984082
0.002030713
0.002081691
0.002136642
0.002195076
0.002256307
0.00231931
0.002382632
0.002444469
0.002502852
0.002555753
0.002601075
0.002636744
0.002660865
0.002671855
0.002668546
0.002649978
0.002615063
0.002562296
0.002489192
0.002396289
0.002294016
0.002198011
0.002114118
0.002036827
0.001961623
0.00188813
0.001817971
0.001753202
0.001695429
0.001645596
0.001603964
0.001570428
0.001544959
0.001810483
0.001794131
0.001785506
0.001782954
0.001784638
0.001790151
0.001799878
0.001814343
0.001834103
0.001858873
0.001888129
0.00192146
0.001958585
0.001999367
0.002043792
0.002091922
0.00214386
0.002199691
0.002259434
0.002322986
0.002390071
0.002460184
0.002532545
0.002606078
0.002679392
0.002750792
0.002818366
0.002880236
0.002934895
0.002981483
0.003019778
0.003050004
0.003072696
0.003088658
0.003098928
0.003104699
0.003107217
0.003107596
0.003106664
0.003104881
0.003102323
0.003098692
0.003093332
0.003085287
0.003073339
0.003056093
0.003032068
0.0030001
0.002960202
0.002913317
0.002860984
0.002805403
0.002748399
0.002690906
0.00263526
0.002582934
0.002533409
0.002487079
0.002444769
0.002407073
0.002374352
0.002346698
0.002324108
0.002306472
0.002293548
0.002284923
0.002280031
0.002278217
0.002278722
0.002280573
0.002283167
0.002286527
0.002290613
0.00229538
0.002300652
0.002305791
0.00231024
0.002313516
0.002315177
0.002314815
0.002312087
0.002306758
0.002298741
0.002288073
0.002274874
0.002259388
0.002242097
0.002223716
0.002205162
0.002187005
0.002169228
0.002152073
0.00213593
0.002121053
0.00210755
0.002095385
0.002084386
0.002074251
0.002064573
0.00205485
0.002044508
0.002032932
0.002019505
0.002003671
0.001984995
0.001963213
0.001938259
0.001910259
0.001879497
0.001846384
0.001811432
0.001775251
0.001738581
0.001702308
0.001667456
0.001635139
0.001606487
0.001582548
0.001564204
0.001552066
0.001546414
0.001547117
0.001553681
0.001565319
0.001581163
0.001598026
0.001620242
0.001647061
0.001673059
0.001700099
0.001727716
0.001755175
0.001782138
0.001808888
0.001836084
0.001863995
0.001893002
0.001926339
0.001962313
3.402059e-05
4.210395e-05
5.448164e-05
6.945139e-05
8.766595e-05
0.0001101111
0.0001386576
0.0001761219
0.0002276228
0.00032376
0.001177576
0.001367351
0.001555029
0.001698376
0.001835367
0.001975594
0.002117156
0.002259521
0.002417395
0.004481196
0.004723187
0.004847761
0.004943701
0.00502511
0.005097011
0.005164011
0.005225932
0.005279974
0.005330846
0.005409467
0.00551704
0.005627499
0.005726222
0.005808435
0.005874913
0.005928348
0.005971619
0.006012336
0.005940527
0.005918567
0.005923618
0.005943807
0.005971416
0.006001464
0.00603096
0.006058335
0.00608286
0.006104675
0.006123235
0.006139649
0.006154972
0.006169557
0.00618356
0.006197199
0.006210726
0.006223397
0.00700914
0.007024833
0.007036094
0.007044961
0.007052141
0.007058484
0.00706525
0.00707297
0.007081776
0.007090981
0.007099308
0.007107081
0.007114915
0.007122957
0.007131169
0.007139142
0.0071463
0.007152724
0.007159424
0.007167046
0.007176425
0.007189134
0.007206025
0.007227712
0.00725441
0.007285983
0.007322288
0.007363546
0.007410258
0.007463157
0.007522691
0.007589129
0.007662762
0.007743032
0.007829771
0.007922686
0.008020123
0.0081176
0.008187899
0.008241814
0.008274493
0.00828333
0.008267519
0.008228133
0.008168437
0.00809381
0.008010688
0.007925344
0.007842334
0.007763297
0.007688295
0.007618586
0.007553895
0.007493072
0.007435058
0.007381321
0.007334862
0.007290068
0.007246224
0.007208528
0.007175525
0.007142071
0.007105659
0.0070672
0.007028609
0.006991518
0.006957598
0.00692861
0.006906192
0.006891745
0.006886252
0.006890371
0.006904248
0.006927773
0.006960058
0.006999148
0.007040548
0.00708651
0.007136495
0.007190728
0.00724924
0.007311139
0.007373961
0.007435406
0.007493284
0.007544267
0.007584889
0.007616429
0.007639742
0.007652546
0.007651285
0.007631273
0.007584628
0.007510568
0.007407786
0.007275004
0.007112211
0.006921495
0.006707601
0.0064777
0.00624031
0.006003832
0.005775248
0.005559385
0.005358856
0.005174576
0.005006554
0.004854621
0.004718745
0.004598899
0.004494896
0.004406452
0.004333278
0.004275178
0.004232164
0.004204429
0.004192178
0.004195468
0.004214155
0.004247813
0.004295568
0.00435597
0.004426253
0.004504539
0.004594442
0.004695048
0.004804963
0.004922282
0.005044552
0.005168782
0.005291607
0.005409579
0.005519434
0.005618292
0.00570377
0.005773927
0.005827008
0.005861324
0.005875163
0.005866529
0.005837424
0.00578966
0.005725306
0.005646289
0.005554344
0.005450994
0.005337558
0.005215172
0.00508484
0.004947583
0.004804647
0.004657686
0.004508842
0.004360667
0.00421595
0.004077467
0.003947782
0.003829087
0.003723064
0.003630889
0.003553214
0.003490215
0.00344165
0.003406931
0.003385202
0.003375429
0.003376482
0.00338721
0.003406538
0.003433466
0.003467133
0.00350677
0.003551723
0.003601378
0.003655187
0.003712474
0.003772458
0.003834078
0.003896115
0.003957051
0.004015409
0.004069961
0.004119045
0.004160506
0.004192715
0.004213059
0.004211675
0.004199517
0.004174071
0.004133643
0.004079412
0.004014246
0.003940354
0.003859499
0.003773895
0.003686057
0.003598652
0.003514319
0.003435445
0.003363983
0.003301321
0.003248248
0.003204971
0.003171204
0.003146294
0.003129348
0.003119331
0.003115178
0.003115897
0.003120657
0.00312882
0.003139975
0.003153939
0.003170768
0.003190722
0.003214191
0.003241512
0.003273987
0.003312723
0.003358937
0.003413904
0.003478956
0.003555249
0.003643178
0.003742597
0.003853175
0.003974109
0.004103924
0.004240321
0.004380277
0.004520377
0.004657039
0.004786549
0.004905266
0.00500995
0.005097882
0.005166873
0.005215213
0.005241583
0.005245014
0.005225058
0.005182343
0.00511904
0.005040472
0.004950786
0.004851249
0.00474188
0.004623191
0.00449669
0.004364924
0.004230763
0.004097486
0.003967696
0.003844236
0.003728841
0.003624745
0.003517835
0.003426559
0.00334974
0.003285549
0.00323329
0.003191908
0.003159994
0.003135766
0.003117364
0.003105683
0.003102655
0.00310941
0.003125768
0.003151685
0.003187205
0.003232422
0.003287419
0.003352201
0.003426629
0.003510358
0.003602767
0.003702884
0.003809319
0.003920238
0.004033359
0.004145976
0.004255152
0.004358102
0.004452726
0.004537976
0.004613658
0.004680018
0.004737558
0.004787066
0.004829634
0.004866563
0.004899157
0.004928453
0.004955028
0.004978967
0.00499992
0.005017146
0.005029534
0.005035678
0.005033907
0.005022341
0.004998962
0.004961783
0.004910733
0.004847367
0.004773928
0.004693443
0.004608187
0.00452121
0.004433894
0.004346817
0.004261715
0.004179973
0.004102571
0.004030395
0.003964327
0.003905139
0.003853379
0.003809341
0.003773109
0.003744575
0.003723438
0.003709194
0.003701128
0.003698331
0.003699753
0.003704227
0.003710494
0.003717222
0.003723381
0.003728929
0.003733856
0.003738022
0.003740643
0.003740876
0.003737914
0.003731074
0.003719886
0.003704087
0.003683503
0.003658084
0.003628147
0.003594383
0.003557587
0.003518488
0.003478256
0.003438024
0.003398805
0.003361426
0.003326481
0.003294313
0.003265022
0.003238468
0.003214299
0.003191979
0.003170831
0.003150067
0.00312884
0.003106281
0.003081549
0.003053866
0.003022549
0.002987015
0.00294679
0.002901512
0.002850958
0.00279509
0.002734136
0.002668664
0.002599633
0.002528398
0.002456679
0.002386467
0.002319876
0.002258936
0.002205375
0.002160434
0.00212478
0.002098529
0.002081332
0.002072555
0.002071324
0.002076758
0.002087864
0.002103835
0.002123723
0.002147005
0.002172814
0.002200822
0.002229229
0.002259169
0.002290753
0.002325488
0.002361639
4.1246e-05
6.763784e-05
0.0001495879
0.0005128975
0.0008897141
0.001619871
0.00217767
0.00285788
0.003633962
0.004276735
0.004751545
0.005134602
0.005506671
0.005866062
0.006233246
0.006582606
0.006899523
0.007199294
0.00748644
0.007761842
0.008032415
0.008287065
0.00847341
0.008591408
0.008680386
0.008742973
0.008784824
0.008814966
0.008728186
0.008492059
0.008604404
0.007795762
0.007700936
0.007627486
0.007581059
0.007570471
0.007593966
0.007647548
0.007730466
0.007835527
0.007953759
0.008099211
0.008261317
0.008445716
0.008641729
0.008849951
0.009069503
0.009303711
0.009565433
0.009619083
0.009647348
0.009669039
0.00968452
0.00969458
0.009699889
0.009700955
0.009698236
0.009692361
0.009683975
0.009673796
0.009662694
0.00965106
0.009638864
0.009625866
0.00961184
0.009596612
0.009580682
0.009565921
0.009532404
0.009503688
0.009479023
0.009457092
0.009436731
0.009417834
0.009401344
0.009388117
0.009378074
0.009370136
0.009362787
0.00935522
0.009347472
0.009340059
0.009333228
0.009326425
0.009318541
0.009308845
0.009297731
0.009286449
0.009276138
0.009267566
0.009261659
0.009259047
0.009259584
0.009262606
0.009267399
0.009273771
0.00928206
0.009292186
0.009303576
0.009315859
0.009328899
0.009342396
0.009357825
0.009378707
0.009405982
0.009434563
0.009457614
0.00946945
0.009469029
0.009457019
0.009434494
0.009402201
0.009360571
0.009310373
0.009253598
0.00919313
0.009132547
0.009074762
0.009020991
0.008968984
0.008917594
0.008866574
0.008817204
0.00877105
0.008729548
0.00869213
0.008657712
0.008626434
0.008597864
0.00856993
0.008540322
0.008508129
0.008473954
0.008439194
0.008405484
0.008374535
0.008348034
0.008327526
0.008314218
0.008308951
0.008312101
0.00832365
0.00834295
0.008368629
0.008396666
0.008427234
0.008460934
0.008498345
0.008539865
0.008585224
0.008633294
0.008682702
0.008732002
0.008779856
0.008824372
0.008863932
0.008897321
0.008922699
0.00893746
0.008938506
0.008921618
0.008881822
0.008817915
0.008727419
0.008608516
0.008460843
0.008286161
0.008088656
0.007874586
0.007651308
0.00742607
0.007205018
0.006992659
0.006791851
0.006604149
0.006430301
0.006270632
0.006125214
0.00599397
0.005876817
0.005773812
0.005685253
0.00561173
0.00555405
0.005513061
0.005489478
0.005483789
0.00549619
0.005526512
0.005574183
0.005637966
0.00571518
0.005806118
0.00591245
0.006032515
0.006163948
0.006303585
0.006447478
0.006591201
0.006730353
0.006860944
0.006979637
0.00708388
0.007171773
0.007241714
0.007292346
0.007322909
0.007333538
0.007324864
0.007298619
0.007256726
0.007200809
0.007132048
0.007051175
0.006958571
0.006854377
0.006738665
0.006611624
0.006473771
0.006326113
0.006170234
0.006008252
0.005842766
0.005676679
0.005513037
0.005354828
0.005204808
0.005065381
0.004938541
0.00482583
0.004728322
0.004646634
0.004580967
0.004531154
0.004496728
0.004477008
0.004471187
0.00447841
0.004497844
0.004528695
0.004570242
0.004621808
0.004682767
0.004752375
0.004829729
0.004913623
0.005002554
0.005094513
0.005186779
0.005277888
0.005366326
0.005449359
0.005524276
0.005588214
0.005638174
0.005671841
0.005687159
0.005682427
0.005656368
0.0056081
0.005540339
0.005457059
0.005360751
0.005254516
0.005141968
0.005027019
0.004913569
0.004805195
0.004704892
0.004614874
0.004536539
0.004470483
0.004416629
0.004374354
0.004342609
0.004320084
0.004305385
0.004297169
0.004294265
0.004295776
0.004301163
0.004310301
0.004323475
0.004341301
0.004364389
0.004393556
0.004431087
0.004478803
0.00453857
0.004612142
0.004700951
0.004805822
0.004926907
0.005063784
0.005215303
0.005379379
0.005552809
0.005731498
0.005911032
0.006087087
0.006255313
0.006411705
0.006553061
0.006676908
0.006781367
0.006865072
0.006927035
0.006966587
0.006983524
0.006977521
0.006948695
0.006900752
0.006836088
0.006755418
0.006658893
0.006547298
0.006422191
0.006286232
0.006142266
0.005994057
0.00584438
0.005697184
0.005553791
0.005417658
0.005289626
0.005170096
0.00506034
0.004961202
0.004872864
0.00479493
0.004726816
0.004667984
0.004618029
0.004576721
0.004543578
0.004519336
0.004506983
0.004507513
0.00452152
0.004549537
0.004591959
0.004648961
0.004720426
0.004805883
0.004904446
0.005014738
0.005134825
0.005262186
0.005393752
0.005526024
0.00565535
0.00577847
0.005893267
0.005999118
0.006096305
0.006185256
0.006266453
0.006340662
0.006408977
0.006472612
0.00653256
0.006589295
0.006642652
0.006691948
0.00673618
0.006774127
0.006804317
0.00682511
0.006834695
0.006831144
0.006812597
0.006777539
0.006726154
0.006660291
0.006582658
0.006496221
0.006403472
0.006306555
0.006206907
0.006105765
0.006004721
0.005905309
0.005808909
0.00571681
0.005630254
0.005550393
0.005478192
0.005414369
0.005359398
0.005313529
0.005276764
0.005248824
0.005229125
0.005216774
0.005210598
0.005209246
0.005211344
0.005215629
0.005221015
0.005226538
0.005231181
0.005234039
0.005235096
0.005234022
0.005229676
0.005221007
0.005207177
0.0051876
0.005161853
0.005129607
0.005090873
0.005046142
0.004996185
0.00494223
0.004885728
0.004828162
0.004770935
0.004715278
0.004662175
0.00461233
0.004566157
0.004523784
0.004485078
0.004449684
0.004417062
0.004386533
0.004357314
0.004328545
0.004299312
0.004268654
0.004235575
0.004199041
0.004158002
0.004111407
0.004058247
0.003997619
0.003928826
0.003851491
0.003765664
0.003671925
0.003571447
0.003466007
0.003357918
0.003249859
0.003144627
0.003044869
0.002952852
0.002870329
0.002798471
0.002737916
0.002688786
0.002650806
0.002623335
0.002605554
0.002596498
0.002595233
0.002600815
0.002612378
0.002629104
0.002649778
0.002673057
0.002699825
0.002730513
2.300512e-05
3.739323e-05
5.674507e-05
0.0002478713
0.0004076994
0.000698806
0.0009858906
0.001250097
0.001582288
0.001906388
0.002257242
0.002711333
0.003249095
0.003857273
0.004538563
0.005403056
0.007044228
0.007699329
0.008326557
0.008884156
0.00936456
0.00976551
0.01
0.01
0.01
0.01
0.01
0.01
0.01
0.01
0.01
0.01
0.01
0.01
0.009757963
0.009251516
0.008759876
0.008303438
0.007900523
0.007566283
0.007223154
0.006957816
0.006905605
0.006768734
0.006675653
0.00663329
0.006627027
0.006655962
0.006719374
0.006814622
0.006939467
0.007087695
0.00726318
0.007460484
0.007684024
0.007927906
0.008200803
0.008510368
0.008852951
0.0092337
0.009646065
0.01
0.01
0.01
0.01
0.01
0.01
0.01
0.01
0.01
0.01
0.01
0.01
0.01
0.01
0.01
0.01
0.01
0.01
0.01
0.01
0.01
0.01
0.01
0.01
0.01
0.01
0.01
0.01
0.01
0.01
0.01
0.01
0.01
0.01
0.01
0.01
0.01
0.01
0.01
0.01
0.01
0.01
0.01
0.01
0.01
0.01
0.01
0.01
0.01
0.01
0.01
0.009947472
0.009864281
0.009801839
0.009766812
0.009749605
0.00974087
0.009725687
0.009701408
0.009668022
0.009626726
0.009579842
0.009530103
0.009479078
0.009426572
0.009372176
0.009318648
0.009269723
0.009228495
0.009196337
0.009172702
0.009155326
0.009142226
0.009132568
0.009125868
0.009122741
0.009122597
0.009125248
0.009130245
0.009135722
0.00913921
0.009139314
0.009135538
0.00912841
0.009118937
0.009108344
0.009097997
0.009089286
0.009083412
0.00908128
0.009083483
0.009090361
0.009101944
0.009117918
0.009137317
0.009157984
0.00918129
0.009208223
0.009238838
0.009271682
0.009305159
0.009340214
0.009377442
0.009419872
0.00946534
0.009511403
0.009555419
0.009594043
0.00962405
0.009642582
0.00964743
0.009636741
0.009609501
0.009563015
0.009494685
0.009402938
0.009287516
0.009149924
0.00899335
0.008822197
0.008641606
0.008456748
0.008272195
0.008091611
0.007917675
0.007752167
0.007596185
0.007450378
0.007315143
0.007190826
0.007077899
0.006977096
0.006889454
0.006816253
0.006758864
0.00671858
0.006696509
0.006693497
0.006710074
0.006746414
0.006802207
0.006876358
0.006966775
0.007075609
0.007201099
0.00734025
0.007488952
0.007642126
0.007794295
0.007940373
0.008076107
0.008198293
0.008304791
0.008394169
0.008465196
0.008516957
0.008549657
0.008565396
0.008564965
0.008550463
0.00852373
0.008485992
0.008437807
0.008379166
0.008309666
0.008228708
0.008135693
0.008030196
0.007912115
0.007781786
0.00764008
0.00748838
0.007328545
0.007162849
0.006993911
0.006824569
0.006657692
0.006496032
0.006342203
0.006198604
0.006067333
0.005950122
0.005848306
0.005762814
0.005694186
0.005642617
0.005608037
0.00559018
0.005588659
0.005603016
0.005632758
0.005677354
0.00573621
0.005808558
0.005893378
0.005989301
0.006094559
0.006206903
0.006323497
0.006440583
0.00655692
0.006670064
0.006776703
0.0068735
0.006957229
0.007024955
0.0070741
0.007102406
0.007108079
0.007089876
0.007047146
0.00698164
0.006897226
0.006796699
0.006683625
0.00656216
0.006436749
0.006311775
0.00619122
0.00607839
0.005975744
0.005884868
0.005806537
0.005740769
0.005686934
0.00564393
0.005610386
0.005584846
0.005565943
0.005552567
0.005544005
0.005540046
0.00554103
0.00554781
0.005561596
0.005583341
0.005615231
0.005659929
0.005719704
0.00579659
0.005892141
0.006007216
0.006141867
0.006295303
0.006465759
0.006650278
0.006844635
0.007043717
0.00724237
0.007435919
0.007619973
0.007790906
0.007946343
0.008084683
0.008204823
0.008305997
0.008387596
0.008449091
0.008490205
0.008508026
0.008504031
0.008480568
0.008438841
0.008379027
0.008301258
0.008206391
0.008096062
0.007972727
0.007839212
0.007698773
0.007554333
0.007408973
0.007264863
0.007124569
0.00698967
0.006860783
0.006738849
0.006624603
0.006518278
0.006419831
0.006329238
0.006246644
0.006172395
0.006107001
0.006051008
0.006004881
0.005969452
0.005947727
0.005940942
0.005950138
0.00597611
0.006019282
0.006079626
0.006156606
0.006249153
0.006355602
0.006473622
0.006600179
0.006731622
0.006863949
0.006993233
0.007116308
0.007231685
0.007339808
0.007441662
0.007537706
0.007628234
0.007713987
0.007796058
0.007875427
0.00795246
0.00802669
0.008096975
0.008161835
0.008219771
0.008269375
0.008309148
0.008337533
0.008352904
0.008353596
0.00833817
0.008305795
0.008257109
0.008194412
0.008120617
0.008038319
0.007949344
0.007855039
0.007756636
0.00765546
0.007553025
0.007450895
0.007350572
0.007253472
0.007160935
0.007074204
0.006994366
0.00692231
0.006858718
0.006804062
0.006758559
0.006722089
0.006694142
0.00667381
0.00665986
0.006650938
0.006645807
0.006643473
0.006643137
0.006644031
0.006645265
0.006645784
0.006644352
0.006640052
0.006632633
0.00662091
0.006603847
0.006580657
0.006550768
0.006513748
0.00646948
0.00641835
0.006361137
0.006299247
0.006234198
0.006167558
0.006100823
0.00603532
0.005972133
0.005912087
0.005855731
0.005803355
0.005755004
0.005710526
0.005669608
0.005631814
0.005596603
0.00556332
0.00553119
0.005499299
0.005466586
0.005431853
0.00539378
0.005350964
0.005301959
0.005245346
0.005179813
0.005104253
0.005017881
0.004920364
0.004811922
0.004693407
0.004566334
0.004432829
0.004295497
0.004157238
0.004021031
0.003889722
0.003765856
0.003651525
0.003548344
0.00345734
0.00337908
0.003313569
0.003260592
0.003219442
0.003189536
0.003169781
0.003159638
0.003157746
0.003163529
0.0031743
0.00319066
2.103364e-05
3.241421e-05
6.470518e-05
0.000196604
0.0003165059
0.0005048
0.0006478713
0.0008102219
0.00100216
0.001189218
0.001408414
0.001691873
0.002015105
0.002399576
0.002898703
0.003861944
0.004316002
0.004803673
0.005315883
0.00585096
0.006413716
0.006994288
0.00757568
0.008142045
0.008676571
0.009171966
0.009641285
0.01
0.01
0.01
0.01
0.01
0.01
0.01
0.01
0.01
0.01
0.01
0.01
0.01
0.01
0.01
0.009689922
0.009185293
0.008677686
0.008183051
0.00772569
0.007318987
0.006972277
0.006677471
0.006437024
0.006237975
0.00608888
0.005968471
0.005901583
0.00589436
0.005936654
0.006023694
0.006151589
0.006320788
0.006526033
0.006766674
0.007040609
0.007354625
0.007705711
0.008104384
0.008551745
0.009033243
0.009565668
0.01
0.01
0.01
0.01
0.01
0.01
0.01
0.01
0.01
0.01
0.01
0.01
0.01
0.01
0.01
0.01
0.01
0.01
0.01
0.01
0.01
0.01
0.01
0.01
0.01
0.01
0.01
0.01
0.01
0.01
0.01
0.01
0.01
0.01
0.01
0.01
0.01
0.01
0.01
0.01
0.01
0.01
0.01
0.01
0.01
0.01
0.01
0.01
0.01
0.01
0.01
0.009917401
0.009799827
0.009698323
0.009635427
0.009635243
0.00969795
0.009795583
0.009890108
0.009955055
0.009982177
0.009968612
0.00990931
0.00980477
0.009669373
0.009529048
0.009406644
0.009298892
0.009202054
0.009116135
0.00904411
0.008988837
0.008950712
0.008925894
0.008909676
0.008899219
0.008892618
0.008891704
0.008896255
0.008907176
0.008925455
0.008949862
0.00897779
0.00900817
0.009039382
0.009070427
0.00910052
0.009128987
0.009155456
0.009179911
0.009202487
0.009223499
0.009243209
0.009262313
0.009281947
0.009303341
0.009328768
0.009357696
0.009391338
0.009431472
0.009476856
0.009523419
0.009568888
0.009618575
0.009674974
0.009746317
0.009825164
0.009906593
0.009986404
0.01
0.01
0.01
0.01
0.01
0.01000001
0.01000001
0.01000001
0.01000001
0.009971049
0.009873297
0.009761134
0.009636631
0.00950224
0.009360729
0.009214852
0.009067485
0.00892165
0.008779681
0.008643177
0.008513182
0.008390407
0.008275469
0.008169102
0.008072288
0.007986319
0.007912746
0.007853274
0.007809619
0.0077834
0.007776027
0.007788635
0.007822042
0.007876613
0.007951986
0.008046405
0.008159924
0.008290882
0.008435118
0.00858725
0.008740918
0.008889853
0.00902891
0.009154235
0.009263912
0.009357113
0.00943329
0.009491654
0.009531831
0.00955534
0.0095661
0.009565665
0.009556241
0.009539113
0.009514647
0.009482501
0.009441864
0.009391703
0.009331019
0.009259008
0.009175114
0.009078949
0.00897038
0.008850017
0.008718766
0.008577858
0.00842885
0.00827359
0.008114163
0.00795284
0.007792086
0.007634489
0.007482641
0.007339038
0.007205993
0.00708558
0.006979577
0.006889413
0.006816169
0.006760631
0.006723329
0.00670458
0.006704517
0.006723103
0.006760118
0.006815112
0.006887321
0.006975586
0.007078285
0.007193318
0.007318132
0.007449696
0.007584368
0.007717731
0.007848421
0.007973262
0.008088653
0.008191196
0.008277868
0.008346233
0.008394189
0.008419866
0.008421929
0.008399706
0.008353191
0.008285129
0.008198643
0.00809689
0.007983669
0.007863154
0.007739563
0.007616858
0.00749852
0.007387335
0.007285349
0.007193935
0.007113658