/*--------------------------------*- C++ -*----------------------------------*\
| =========                 |                                                 |
| \\      /  F ield         | foam-extend: Open Source CFD                    |
|  \\    /   O peration     | Version:     3.1                                |
|   \\  /    A nd           | Web:         http://www.extend-project.de       |
|    \\/     M anipulation  |                                                 |
\*---------------------------------------------------------------------------*/
FoamFile
{
    version     2.0;
    format      ascii;
    class       volScalarField;
    location    "17.5";
    object      pd;
}
// * * * * * * * * * * * * * * * * * * * * * * * * * * * * * * * * * * * * * //

dimensions      [1 -1 -2 0 0 0 0];

internalField   nonuniform List<scalar> 
119952
(
5133.433
3898.606
3735.798
3936.333
4139.449
4032.1
4022.736
4030.879
4055.491
4087.477
4125.31
4167.815
4213.566
4261.223
4309.835
4357.755
4403.356
4443.776
4470.135
4444.465
4730.88
4615.073
4578.174
4941.604
4911.979
4959.579
4980.745
5071.456
5415.47
6925.719
3290.718
3290.367
3327.662
3366.113
3406.166
3448.145
3492.083
3537.936
3585.735
3611.651
3651.654
3708.104
3741.381
3768.041
3787.408
3797.126
3796.022
3783.157
3762.021
3723.462
3693.242
3626.231
3576.748
3542.161
3510.579
3488.251
3473.234
3466.34
3468.946
3464.381
3470.828
3490.619
3512.495
3537.288
3566.346
3600.335
3646.942
3743.454
3911.34
3814.563
3823.051
3922.957
3985.509
4003.537
4008.577
4027.816
4057.106
4092.01
4131.985
4176.068
4222.838
4271.12
4319.893
4367.989
4414.203
4457.188
4497.58
4537.989
4592.809
4644.646
4671.88
4763.784
4894.435
4923.928
4927.294
4932.779
4860.731
4592.914
4503.464
4526.431
4514.651
4501.339
4494.032
4490.279
4492.478
4502.262
4520.148
4546.214
4579.708
4619.541
4664.414
4713.013
4764.153
4816.782
4869.942
4922.741
4974.297
5023.868
5071.181
5116.763
5161.829
5207.487
5253.957
5300.623
5346.57
5390.838
5432.806
5472.38
5509.762
5545.104
5578.522
5610.061
5639.56
5667.037
5692.002
5714.589
5734.913
5752.956
5768.732
5782.307
5793.781
5803.252
5810.987
5817.25
5822.384
5827.227
5833.91
5842.679
5852.503
5860.511
5869.334
5881.042
5894.614
5909.905
5926.827
5944.891
5963.849
5983.305
6003.108
6023.146
6043.34
6063.513
6083.456
6102.977
6121.987
6140.537
6158.79
6176.942
6195.142
6213.456
6231.908
6250.497
6269.254
6288.254
6307.514
6327.03
6346.779
6366.72
6386.798
6406.96
6427.141
6447.261
6467.251
6487.051
6506.52
6525.677
6544.31
6562.415
6579.883
6596.461
6612.286
6627.285
6641.212
6653.959
6665.364
6675.27
6685.054
6698.911
6707.624
6714.548
6720.729
6725.228
6729.339
6732.537
6735.072
6737.221
6739.158
6740.983
6742.691
6744.203
6745.542
6746.754
6747.881
6748.975
6750.063
6751.129
6752.144
6753.067
6753.896
6754.583
6754.972
6755.048
6754.764
6754.067
6752.882
6751.136
6748.724
6745.516
6741.31
6735.749
6728.095
6716.312
6701.419
6713.691
6720.739
6724.818
6727.411
6728.895
6729.687
6729.865
6729.646
6729.103
6728.314
6727.345
6726.263
6725.15
6724.076
6723.124
6721.842
6720.516
6719.082
6717.437
6715.537
6713.514
6711.042
6704.882
6699.603
6700.783
6701.519
6701.902
6702.067
6702.177
6702.354
6702.688
6703.228
6703.949
6705.374
6740.288
6719.848
6709.859
6712.202
6713.89
6715.147
6717.673
6720.699
6724.171
6727.906
6732.021
6736.354
6740.866
6745.457
6750.071
6754.65
6759.133
6763.468
6767.603
6771.497
6775.109
6778.409
6781.371
6783.975
6786.215
6788.083
6789.581
6790.728
6791.549
6792.087
6792.394
6792.531
6792.546
6792.48
6792.368
6792.227
6792.052
6791.834
6791.559
6791.227
6790.841
6790.408
6789.992
6789.774
6789.737
6788.954
6786.279
6782.798
6779.868
6777.571
6775.654
6774.2
6773.017
6769.432
6761.593
6763.709
6767.409
6766.992
6766.397
6766.587
6766.685
6766.615
6766.613
6766.728
6766.864
6766.983
6767.063
6767.084
6767.021
6766.906
6766.789
6766.619
6766.425
6766.214
6765.999
6765.786
6765.593
6765.405
6765.231
6765.05
6764.857
6764.628
6764.359
6764.104
6763.812
6763.517
6763.217
6762.925
6762.693
6762.488
6762.356
6762.309
6762.353
6762.494
6762.732
6763.06
6763.484
6763.983
6764.558
6765.202
6765.905
6766.653
6767.426
6768.193
6768.918
6769.564
6770.09
6770.476
6770.697
6770.735
6770.582
6770.228
6769.663
6768.872
6767.843
6766.558
6765
6763.152
6760.998
6758.533
6755.769
6752.742
6749.513
6746.082
6742.476
6738.672
6734.634
6730.279
6725.578
6720.474
6714.892
6708.704
6701.7
6693.641
6684.046
6672.552
6661.137
6664.661
6710.318
4375.914
4249.715
4113.84
3985.489
3869.499
3764.162
3668.888
3584.089
3513.054
3407.957
3363.934
3314.12
3267.44
3229.691
3197.059
3171.249
3150.722
3130.576
3121.675
3132.833
3110.8
3098.855
3096.129
3094.058
3094.07
3095.71
3097.571
3101.853
3111.21
3103.697
3112.316
3125.118
3139.272
3157.328
3179.086
3204.396
3233.922
3275.577
3291.54
3321.193
3362.676
3404.418
3447.44
3492.317
3538.514
3585.468
3632.229
3672.086
3714.938
3752.485
3780.901
3799.317
3806.914
3801.888
3784.335
3758.234
3683.922
3629.112
3586.633
3546.363
3509.129
3479.357
3459.463
3449.258
3446.394
3449.123
3459.3
3473.738
3490.812
3511.725
3538.024
3570.637
3611.54
3661.466
3718.01
3772.452
3807.799
3833.603
3871.937
3916.163
3954.241
3985.511
4016.705
4052.612
4094.105
4140.045
4188.913
4239.473
4290.861
4342.39
4393.417
4443.431
4492.259
4540.273
4588.704
4638.266
4688.771
4739.469
4794.03
4845.755
4866.552
4858.533
4821.868
4750.594
4654.294
4572.665
4526.437
4501.911
4485.846
4473.606
4466.354
4466.642
4476.358
4495.971
4524.845
4561.91
4605.934
4655.472
4708.879
4764.516
4820.979
4877.202
4932.411
4986.087
5037.974
5088.135
5136.984
5185.087
5232.833
5280.218
5326.857
5372.186
5415.598
5456.75
5495.535
5532.004
5566.274
5598.362
5628.254
5656.248
5682.123
5704.247
5724.784
5743.117
5759.179
5773.02
5784.704
5794.36
5802.167
5808.41
5813.523
5818.078
5822.727
5828.108
5834.605
5842.621
5851.954
5862.803
5875.495
5890.279
5906.981
5925.245
5944.621
5964.721
5985.22
6005.886
6026.569
6047.176
6067.596
6087.731
6107.503
6126.891
6145.943
6164.762
6183.469
6202.163
6220.914
6239.752
6258.7
6277.788
6297.035
6316.444
6336.007
6355.709
6375.525
6395.423
6415.362
6435.28
6455.119
6474.821
6494.303
6513.475
6532.258
6550.545
6568.242
6585.267
6601.536
6617.004
6631.566
6645.127
6657.476
6669.106
6679.553
6688.687
6699.128
6708.007
6714.015
6719.821
6724.807
6728.915
6732.351
6735.237
6737.723
6739.935
6741.944
6743.759
6745.384
6746.846
6748.174
6749.397
6750.54
6751.622
6752.639
6753.571
6754.395
6755.084
6755.577
6755.811
6755.736
6755.302
6754.451
6753.116
6751.225
6748.693
6745.417
6741.285
6736.101
6729.901
6723.441
6718.959
6719.772
6723.698
6725.903
6727.326
6728.153
6728.359
6728.106
6727.509
6726.66
6725.635
6724.498
6723.309
6722.125
6720.995
6719.885
6718.684
6717.406
6716.015
6714.45
6712.674
6710.87
6708.617
6704.996
6703.315
6702.738
6702.87
6703.101
6703.368
6703.644
6704.03
6704.513
6705.228
6705.955
6707.096
6715.597
6721.838
6719.81
6715.879
6714.905
6716.674
6719.972
6723.267
6726.644
6730.059
6734.016
6738.308
6742.74
6747.228
6751.72
6756.161
6760.489
6764.641
6768.566
6772.216
6775.555
6778.552
6781.189
6783.454
6785.343
6786.863
6788.033
6788.897
6789.501
6789.897
6790.163
6790.36
6790.518
6790.662
6790.805
6790.924
6790.992
6790.969
6790.814
6790.499
6790.022
6789.395
6788.626
6787.679
6786.426
6784.76
6782.548
6780.126
6777.657
6775.57
6773.922
6772.7
6771.856
6771.248
6769.803
6767.689
6766.506
6766.636
6767.416
6768.132
6768.463
6768.55
6768.622
6768.756
6768.863
6768.87
6768.781
6768.614
6768.388
6768.175
6767.777
6767.4
6767.03
6766.69
6766.321
6766.012
6765.736
6765.499
6765.277
6765.041
6764.778
6764.495
6764.172
6763.827
6763.505
6763.197
6762.856
6762.565
6762.334
6762.184
6762.126
6762.141
6762.255
6762.46
6762.749
6763.117
6763.558
6764.074
6764.657
6765.298
6765.988
6766.714
6767.455
6768.184
6768.871
6769.483
6769.985
6770.35
6770.56
6770.596
6770.448
6770.108
6769.568
6768.819
6767.851
6766.652
6765.209
6763.505
6761.523
6759.254
6756.701
6753.873
6750.81
6747.527
6744.017
6740.242
6736.169
6731.778
6727.056
6721.935
6716.387
6710.344
6703.803
6696.971
6690.254
6684.531
6680.906
6679.919
6680.93
3736.655
3827.651
3941.892
4073.19
4220.855
4384.345
4562.237
4753.297
4954.911
5162.616
5378.663
5599.824
5818.773
6031.418
6234.368
6423.68
6593.55
6737.236
6847.649
6934.269
6978.384
6986.392
6958.557
6896.864
6803.847
6682.91
6538.172
6374.117
6198.874
6005.247
5809.567
5608.39
5407.811
5210.47
5018.744
4834.481
4659.884
4496.587
4332.399
4187.989
4052.636
3929.374
3817.268
3715.569
3623.823
3541.517
3468.939
3402.623
3341.754
3292.324
3249.373
3212.611
3182.257
3157.499
3138.397
3130.945
3100.171
3091.038
3089.592
3089.886
3089.79
3089.582
3090.035
3091.353
3093.618
3096.013
3099.004
3104.989
3112.847
3122.784
3136.427
3154.811
3177.757
3204.469
3234.054
3265.866
3300.595
3336.623
3374.408
3415.079
3458.213
3503.702
3551.441
3600.619
3649.848
3697.781
3742.008
3780.423
3811.348
3831.7
3837.99
3827.209
3796.997
3747.486
3681.424
3615.221
3559.387
3511.44
3471.943
3443.079
3425.617
3418.343
3419.583
3427.026
3438.883
3454.563
3473.303
3496.007
3522.728
3554.075
3590.348
3631.769
3676.216
3722.987
3763.372
3795.212
3830.099
3872.358
3915.633
3955.579
3994.665
4037.172
4084.53
4135.736
4189.252
4243.902
4299.016
4354.142
4408.958
4463.108
4516.456
4568.849
4620.446
4671.055
4720.728
4765.952
4806.065
4836.858
4846.32
4831.481
4794.137
4736.534
4661.626
4585.658
4527.987
4491.063
4465.701
4446.528
4434.219
4431.218
4439.091
4458.297
4488.253
4527.811
4575.488
4629.459
4687.673
4748.102
4809.038
4869.262
4928.029
4984.986
5040.053
5093.346
5145.15
5195.826
5245.62
5294.492
5342.131
5388.118
5432.028
5473.553
5512.554
5549.008
5582.924
5614.278
5643.058
5669.322
5692.474
5714.971
5734.262
5750.992
5765.378
5777.498
5787.426
5795.289
5801.291
5805.796
5809.296
5812.369
5815.586
5819.607
5824.989
5832.053
5841.034
5851.978
5865.377
5881.193
5899.142
5918.711
5939.36
5960.6
5982.05
6003.456
6024.673
6045.635
6066.294
6086.616
6106.595
6126.258
6145.669
6164.918
6184.09
6203.254
6222.461
6241.741
6261.107
6280.577
6300.157
6319.848
6339.64
6359.522
6379.477
6399.474
6419.469
6439.414
6459.251
6478.92
6498.332
6517.404
6536.041
6554.167
6571.692
6588.546
6604.621
6619.885
6634.234
6647.559
6659.824
6671.104
6681.487
6691.214
6700.779
6709.029
6715.45
6720.459
6724.812
6728.587
6731.786
6734.614
6737.106
6739.391
6741.558
6743.634
6745.618
6747.503
6749.282
6750.948
6752.49
6753.886
6755.119
6756.194
6757.081
6757.754
6758.183
6758.333
6758.166
6757.644
6756.719
6755.348
6753.473
6751.033
6748.002
6744.387
6740.334
6736.143
6732.376
6729.768
6728.847
6729.248
6729.891
6730.14
6729.859
6729.136
6728.095
6726.812
6725.349
6723.791
6722.216
6720.661
6719.174
6717.811
6716.527
6715.231
6713.876
6712.446
6710.99
6709.482
6707.743
6706.25
6704.603
6703.399
6702.82
6702.698
6702.784
6703.068
6703.464
6704.076
6704.736
6705.631
6706.483
6708.101
6710.822
6711.005
6709.811
6710.011
6712.339
6715.728
6719.368
6723.072
6726.692
6730.745
6734.862
6739.312
6743.856
6748.414
6752.935
6757.357
6761.627
6765.684
6769.474
6772.95
6776.074
6778.819
6781.171
6783.128
6784.696
6785.888
6786.725
6787.313
6787.734
6788.038
6788.309
6788.605
6788.928
6789.268
6789.639
6790.016
6790.33
6790.503
6790.465
6790.169
6789.594
6788.742
6787.622
6786.238
6784.599
6782.692
6780.499
6778.154
6775.906
6774.002
6772.584
6771.561
6770.854
6770.167
6769.892
6770.237
6770.64
6770.854
6770.982
6771.104
6771.193
6771.233
6771.251
6771.261
6771.221
6771.076
6770.812
6770.445
6769.998
6769.501
6768.941
6768.373
6767.82
6767.284
6766.867
6766.48
6766.128
6765.83
6765.536
6765.221
6764.868
6764.489
6764.078
6763.628
6763.233
6762.871
6762.462
6762.127
6761.892
6761.751
6761.717
6761.785
6761.956
6762.216
6762.557
6762.97
6763.447
6763.984
6764.577
6765.222
6765.911
6766.633
6767.366
6768.088
6768.769
6769.376
6769.877
6770.244
6770.454
6770.492
6770.348
6770.021
6769.503
6768.791
6767.879
6766.763
6765.435
6763.883
6762.09
6760.04
6757.727
6755.153
6752.326
6749.258
6745.944
6742.394
6738.571
6734.45
6729.99
6725.192
6720.026
6714.601
6708.975
6703.313
6697.839
6692.924
6688.622
6685.204
6682.264
3476.833
3451.99
3436.994
3423.639
3417.771
3426.617
3448.42
3487.477
3541.996
3580.769
3608.152
3656.393
3727.445
3818.958
3929.169
4056.547
4198.744
4355.268
4525.456
4707.716
4901.078
5103.467
5312.424
5523.645
5733.824
5939.664
6136.024
6318.124
6481.888
6623.108
6739.803
6837.576
6881.885
6886.013
6850.354
6780.917
6681.252
6554.697
6405.342
6237.866
6057.193
5866.826
5670.422
5471.622
5273.945
5080.224
4892.655
4712.979
4542.615
4381.881
4231.602
4092.862
3965.122
3848.372
3742.539
3647.046
3561.095
3483.914
3414.738
3353.186
3299.202
3252.519
3213.14
3180.731
3154.286
3132.711
3114.899
3101.017
3089.841
3084.277
3083.545
3083.789
3084.148
3084.473
3085.008
3086.126
3087.71
3089.631
3092.568
3095.869
3101.085
3110.145
3124.055
3143.081
3166.849
3194.442
3224.897
3258.176
3293.587
3330.414
3369.449
3411.01
3454.956
3501.757
3551.913
3605.218
3660.223
3713.898
3763.97
3809.392
3847.456
3873.239
3880.916
3866.763
3826.712
3761.076
3678.002
3591.76
3516.357
3458.593
3418.435
3393.094
3379.985
3377.062
3383.276
3395.39
3411.069
3430.112
3450.365
3472.721
3497.276
3524.412
3556.201
3592.305
3631.054
3671.36
3710.174
3746.36
3784.004
3826.211
3871.154
3916.678
3963.713
4014.205
4068.716
4126.335
4185.694
4245.699
4305.786
4365.696
4425.27
4484.23
4542.367
4599.458
4655.088
4707.912
4756.646
4798.336
4829.972
4848.294
4848.355
4827.733
4787.59
4730.561
4660.603
4587.146
4523.034
4473.92
4437.144
4409.487
4391.207
4384.172
4389.838
4408.357
4439.119
4481.071
4532.796
4592.173
4656.53
4723.127
4789.787
4855.106
4918.337
4979.276
5038.022
5094.807
5149.916
5203.595
5255.943
5306.876
5356.166
5403.514
5448.597
5491.148
5530.997
5568.052
5602.26
5633.594
5662.061
5687.69
5710.453
5730.835
5748.42
5763.362
5775.856
5785.97
5793.776
5799.387
5803.016
5805.08
5806.169
5806.931
5808.039
5810.172
5813.891
5819.643
5827.859
5838.973
5852.903
5869.951
5889.503
5910.805
5933.124
5955.826
5978.443
6000.68
6022.403
6043.619
6064.362
6084.678
6104.643
6124.332
6143.821
6163.194
6182.536
6201.951
6221.513
6241.225
6261.032
6280.973
6301.053
6321.257
6341.559
6361.932
6382.345
6402.759
6423.133
6443.42
6463.553
6483.466
6503.076
6522.305
6541.061
6559.259
6576.809
6593.63
6609.63
6624.733
6638.838
6651.877
6663.865
6674.849
6684.878
6694.03
6702.116
6708.915
6714.685
6719.563
6723.747
6727.302
6730.273
6733.112
6735.654
6738.084
6740.494
6742.915
6745.336
6747.722
6750.024
6752.196
6754.205
6756.008
6757.556
6758.879
6759.93
6760.702
6761.172
6761.332
6761.166
6760.653
6759.77
6758.487
6756.771
6754.606
6752.011
6749.019
6745.759
6742.435
6739.335
6736.791
6735.094
6734.24
6733.746
6733.031
6731.881
6730.349
6728.561
6726.62
6724.582
6722.494
6720.516
6718.693
6716.965
6715.462
6714.127
6712.886
6711.658
6710.42
6709.202
6707.958
6706.625
6705.312
6704.126
6703.365
6702.991
6702.812
6702.877
6703.152
6703.664
6704.316
6705.232
6706.201
6707.553
6708.718
6709.751
6711.249
6712.965
6714.724
6716.653
6718.963
6721.803
6725.131
6728.717
6732.599
6736.831
6741.114
6745.67
6750.251
6754.796
6759.224
6763.479
6767.491
6771.196
6774.537
6777.472
6779.974
6782.036
6783.668
6784.888
6785.73
6786.247
6786.555
6786.724
6786.799
6786.973
6787.325
6787.8
6788.355
6788.985
6789.623
6790.18
6790.541
6790.595
6790.269
6789.511
6788.307
6786.872
6785.204
6783.264
6781.025
6778.606
6776.155
6773.928
6772.074
6770.712
6769.849
6769.431
6769.351
6769.624
6770.058
6770.356
6770.558
6770.847
6771.274
6771.744
6772.14
6772.411
6772.557
6772.574
6772.447
6772.171
6771.762
6771.24
6770.625
6769.931
6769.206
6768.496
6767.845
6767.294
6766.841
6766.475
6766.145
6765.86
6765.488
6765.041
6764.568
6764.057
6763.535
6763.016
6762.454
6761.972
6761.564
6761.268
6761.107
6761.079
6761.184
6761.406
6761.728
6762.13
6762.597
6763.118
6763.69
6764.311
6764.978
6765.688
6766.431
6767.19
6767.942
6768.656
6769.294
6769.822
6770.207
6770.425
6770.461
6770.304
6769.953
6769.413
6768.686
6767.767
6766.657
6765.355
6763.858
6762.156
6760.242
6758.113
6755.772
6753.225
6750.478
6747.518
6744.34
6740.887
6737.162
6733.135
6728.84
6724.271
6719.537
6714.638
6709.725
6704.907
6700.479
6696.549
6692.539
6686.91
3917.984
3876.424
3837.158
3795.714
3751.178
3706.191
3664.117
3623.164
3584.239
3547.923
3513.909
3483.714
3457.449
3436.782
3422.324
3414.781
3419.221
3433.908
3458.137
3489.148
3524.522
3570.204
3631.064
3707.58
3802.339
3914.308
4042.597
4186.273
4344.275
4515.368
4698.255
4891.516
5092.402
5297.954
5506.363
5714.06
5917.286
6113.886
6294.332
6454.284
6588.809
6692.514
6758.004
6794.908
6796.41
6760.23
6689.575
6588.343
6460.422
6310.116
6141.984
5960.855
5770.786
5575.586
5378.871
5183.766
4993.021
4808.622
4632.046
4464.569
4306.773
4158.969
4022.227
3897.728
3785.395
3684.42
3593.653
3511.965
3438.441
3372.498
3313.764
3262.193
3218.254
3182.059
3152.94
3129.547
3110.556
3094.856
3082.64
3074.552
3071.269
3072.099
3075.032
3078.702
3080.551
3081.246
3082.064
3083.557
3083.623
3083.316
3083.48
3085.57
3093.042
3107.023
3127.076
3151.827
3180.436
3211.923
3246.172
3282.785
3321.381
3361.948
3404.452
3449.259
3497.737
3551.284
3610.226
3672.897
3735.23
3795.228
3852.45
3902.827
3938.649
3951.816
3935.743
3882.502
3791.976
3677.925
3561.47
3463.132
3393.689
3350.669
3326.288
3316.357
3318.831
3334.097
3353.779
3376.541
3400.642
3419.902
3440.916
3463.743
3485.033
3512.235
3544.332
3578.596
3614.623
3652.049
3690.233
3729.928
3773.054
3819.763
3870.076
3924.713
3983.851
4046.779
4112.237
4178.789
4245.331
4311.419
4377.052
4442.252
4506.738
4570.327
4632.742
4693.216
4750.447
4801.262
4842.478
4870.45
4881.693
4873.144
4844.306
4797.021
4733.822
4659.18
4580.385
4506.972
4446.087
4398.126
4361.097
4335.541
4323.62
4326.58
4344.665
4377.224
4422.892
4479.932
4545.991
4617.927
4692.29
4766.125
4837.566
4905.898
4971.214
5033.916
5094.438
5153.113
5210.109
5265.437
5318.994
5370.593
5419.989
5466.913
5511.109
5552.369
5590.534
5625.489
5657.151
5685.477
5710.491
5732.296
5751.134
5767.009
5780.044
5790.403
5798.136
5803.277
5805.918
5806.312
5805.014
5802.818
5800.501
5798.8
5798.426
5799.944
5803.905
5810.949
5821.771
5836.862
5855.884
5877.909
5901.795
5926.5
5951.187
5975.281
5998.476
6020.693
6042.096
6062.828
6083.026
6102.874
6122.49
6141.965
6161.392
6180.821
6200.311
6219.962
6239.878
6260.067
6280.488
6301.092
6321.848
6342.723
6363.686
6384.702
6405.707
6426.645
6447.463
6468.093
6488.46
6508.483
6528.073
6547.136
6565.576
6583.301
6600.214
6616.215
6631.21
6645.141
6657.929
6669.556
6680.067
6689.49
6697.786
6704.939
6711.117
6716.401
6720.747
6724.315
6727.358
6730.116
6732.37
6734.649
6736.981
6739.434
6742.04
6744.784
6747.609
6750.424
6753.128
6755.644
6757.916
6759.812
6761.514
6762.824
6763.768
6764.363
6764.611
6764.511
6764.063
6763.265
6762.112
6760.603
6758.746
6756.567
6754.091
6751.393
6748.608
6745.904
6743.444
6741.37
6739.709
6738.234
6736.608
6734.647
6732.35
6729.801
6727.07
6724.398
6721.661
6719.125
6716.936
6715.109
6713.63
6712.42
6711.326
6710.236
6709.139
6708.053
6706.899
6705.606
6704.201
6702.492
6700.998
6701.526
6702.481
6702.732
6702.912
6703.379
6704.073
6705.021
6706.058
6707.254
6708.366
6709.627
6711.369
6713.115
6714.623
6716.278
6718.498
6721.395
6724.841
6728.689
6732.881
6737.39
6742.109
6746.884
6751.691
6756.406
6760.986
6765.356
6769.437
6773.156
6776.446
6779.254
6781.557
6783.359
6784.689
6785.579
6786.044
6786.148
6786.09
6785.996
6785.741
6785.784
6786.216
6786.811
6787.398
6788.175
6789.15
6790.203
6790.927
6791.116
6790.76
6789.744
6787.837
6786.299
6784.572
6782.315
6779.707
6776.989
6774.347
6771.986
6770.029
6768.598
6767.846
6767.754
6768.109
6768.629
6769.173
6769.738
6770.375
6771.126
6771.947
6772.726
6773.356
6773.786
6774.015
6774.055
6773.909
6773.584
6773.098
6772.478
6771.739
6770.894
6769.997
6769.11
6768.306
6767.653
6767.155
6766.781
6766.458
6766.117
6765.886
6765.302
6764.737
6764.111
6763.516
6762.886
6762.087
6761.434
6760.936
6760.576
6760.367
6760.332
6760.464
6760.74
6761.127
6761.592
6762.112
6762.679
6763.287
6763.94
6764.64
6765.388
6766.177
6766.994
6767.815
6768.604
6769.316
6769.909
6770.344
6770.592
6770.641
6770.482
6770.115
6769.546
6768.792
6767.853
6766.737
6765.456
6764.01
6762.396
6760.616
6758.669
6756.556
6754.272
6751.819
6749.177
6746.355
6743.307
6740.049
6736.524
6732.802
6728.834
6724.758
6720.539
6716.372
6712.221
6708.375
6704.546
6700.326
6693.995
4349.708
4298.498
4251.843
4207.566
4166.753
4121.191
4081.534
4042.093
4002.39
3962.17
3921.966
3881.695
3840.074
3798.516
3755.206
3706.85
3664.918
3624.335
3585.357
3548.379
3513.968
3482.708
3455.215
3432.592
3415.149
3404.085
3399.9
3406.216
3421.663
3445.973
3479.827
3525.804
3586.054
3663.049
3756.832
3867.056
3993.155
4134.358
4289.788
4458.099
4637.517
4825.852
5020.638
5220.212
5424.125
5627.897
5828.444
6020.347
6196.884
6352.17
6481.316
6580.702
6645.726
6676.344
6671.407
6630.474
6555.611
6450.489
6319.387
6166.845
5997.585
5816.271
5627.379
5434.615
5241.565
5051.446
4866.67
4688.932
4519.258
4357.798
4205.124
4062.255
3930.576
3811.855
3705.987
3611.641
3527.212
3451.223
3382.516
3320.456
3264.915
3216.444
3176.029
3143.941
3119.212
3099.831
3083.937
3070.496
3060.205
3054.382
3053.975
3058.96
3065.457
3072.871
3077.939
3079.275
3079.16
3080.859
3078.274
3071.08
3065.634
3064.124
3069.032
3082.407
3104.1
3130.898
3161.849
3194.76
3230.495
3269.312
3310.404
3352.631
3395.358
3439.568
3488.603
3546.932
3615.107
3688.638
3761.167
3832.861
3907.249
3978.249
4030.635
4054.247
4040.411
3970.553
3838.464
3670.607
3508.16
3383.403
3306.303
3266.625
3247.609
3241.795
3246.135
3278.188
3309.344
3340.211
3372.73
3396.542
3407.914
3418.614
3436.616
3461.112
3490.793
3521.401
3553.668
3589.774
3628.503
3668.487
3711.639
3759.051
3813.758
3876.642
3945.715
4018.658
4093.687
4168.936
4243.031
4315.725
4387.54
4458.941
4529.847
4599.927
4668.948
4736.248
4799.842
4856.161
4900.789
4928.594
4934.875
4917.574
4878.941
4821.649
4746.73
4659.047
4566.913
4480.199
4407.577
4348.699
4301.067
4266.685
4248.808
4248.374
4266.006
4301.077
4352.264
4417.269
4492.703
4574.468
4658.296
4740.555
4818.899
4892.634
4962.306
5028.814
5092.929
5155.166
5215.66
5274.289
5330.89
5385.282
5437.246
5486.527
5532.857
5575.984
5615.678
5651.736
5683.991
5712.415
5737.05
5757.954
5775.298
5789.353
5800.373
5808.505
5813.752
5816.04
5815.306
5811.761
5806.164
5799.682
5793.342
5788.033
5784.545
5783.282
5784.812
5790.15
5800.614
5816.911
5838.536
5863.932
5891.344
5919.282
5946.611
5972.6
5996.923
6019.598
6041.161
6061.758
6081.61
6101.15
6120.51
6139.788
6159.097
6178.537
6198.158
6217.977
6238.087
6258.567
6279.401
6300.492
6321.773
6343.191
6364.707
6386.307
6407.956
6429.578
6451.084
6472.389
6493.407
6514.042
6534.196
6553.766
6572.646
6590.729
6607.904
6624.068
6639.108
6652.931
6665.482
6676.731
6686.698
6695.443
6702.933
6709.157
6714.611
6719.208
6722.655
6725.523
6727.914
6729.97
6731.845
6733.763
6735.884
6738.293
6741.039
6744.095
6747.368
6750.719
6754.03
6757.169
6759.968
6762.361
6764.414
6766.01
6767.161
6767.901
6768.262
6768.255
6767.895
6767.202
6766.191
6764.88
6763.285
6761.431
6759.352
6757.076
6754.671
6752.213
6749.792
6747.45
6745.188
6742.908
6740.446
6737.679
6734.593
6731.269
6727.863
6724.509
6720.965
6717.723
6715.186
6713.287
6711.924
6710.917
6710.035
6709.12
6708.188
6707.229
6705.959
6703.152
6694.59
6689.784
6695.733
6701.749
6702.583
6702.348
6702.397
6702.832
6703.588
6704.588
6705.669
6706.8
6707.982
6709.291
6710.75
6712.207
6713.691
6715.491
6717.863
6720.868
6724.455
6728.547
6733.066
6737.916
6742.96
6748.034
6753.063
6757.995
6762.769
6767.313
6771.538
6775.343
6778.638
6781.36
6783.484
6785.029
6786.057
6786.632
6786.732
6786.334
6785.772
6785.526
6784.629
6784.306
6784.285
6782.098
6779.777
6784.059
6788.701
6790.777
6791.742
6792.102
6791.698
6790.514
6788.415
6786.388
6784.297
6781.735
6778.763
6775.691
6772.74
6770.082
6767.819
6766.096
6765.333
6765.55
6766.296
6766.86
6767.789
6769.096
6770.32
6771.497
6772.661
6773.699
6774.522
6775.087
6775.383
6775.425
6775.233
6774.828
6774.235
6773.49
6772.602
6771.589
6770.51
6769.441
6768.475
6767.728
6767.205
6766.875
6766.638
6766.342
6765.866
6765.536
6764.978
6764.277
6763.514
6762.731
6761.823
6760.958
6760.313
6759.835
6759.546
6759.499
6759.677
6760.014
6760.46
6760.976
6761.537
6762.131
6762.759
6763.43
6764.158
6764.947
6765.796
6766.696
6767.623
6768.533
6769.369
6770.074
6770.597
6770.903
6770.977
6770.825
6770.454
6769.887
6769.13
6768.173
6767.05
6765.792
6764.396
6762.86
6761.191
6759.392
6757.47
6755.431
6753.281
6750.981
6748.532
6745.914
6743.138
6740.122
6736.976
6733.596
6730.155
6726.558
6723.033
6719.451
6716.075
6712.502
6708.578
6702.684
4595.567
4573.471
4521.053
4457.986
4396.44
4342.066
4292.331
4246.785
4204.918
4163.147
4117.374
4078.359
4039.671
4000.683
3961.114
3920.977
3880.196
3838.54
3796.246
3754.165
3713.035
3671.45
3630.663
3591.036
3552.968
3516.959
3483.017
3451.499
3423.893
3401.264
3384.653
3375.805
3375.955
3386.009
3406.997
3439.661
3485.676
3546.392
3622.866
3715.453
3823.981
3947.944
4086.709
4239.192
4403.226
4576.449
4758.685
4947.4
5143.067
5342.912
5542.557
5737.675
5922.769
6091.519
6237.869
6356.694
6444.204
6497.4
6515.307
6498.711
6448.651
6366.925
6256.602
6121.824
5966.949
5797.009
5616.297
5429.638
5241.071
5054.131
4871.787
4695.543
4526.821
4366.414
4213.71
4069.293
3934.802
3811.585
3701.832
3605.476
3520.288
3444.046
3375.3
3312.885
3255.765
3203.749
3158.312
3121.694
3094.853
3076.588
3063.467
3052.155
3040.842
3031.342
3027.555
3032.403
3044.96
3057.851
3067.086
3073.949
3076.966
3076.333
3080.55
3075.899
3058.14
3039.273
3033.268
3036.875
3050.599
3074.597
3101.592
3136.382
3172.385
3211.829
3253.597
3297.289
3341.239
3383.7
3425.092
3470.882
3532.154
3612.051
3701.224
3785.868
3869.676
3966.17
4070.11
4153.515
4198.392
4189.694
4094.546
3898.415
3647.152
3413.882
3254.363
3174.913
3150.757
3148.314
3160.742
3202.526
3225.698
3266.182
3303.965
3350.227
3378.552
3373.2
3364.874
3381.339
3405.362
3433.104
3459.979
3488.963
3525.019
3564.373
3602.9
3646.06
3690.01
3745.687
3817.724
3899.656
3985.319
4071.893
4157.272
4239.766
4319.46
4397.746
4475.571
4552.862
4629.619
4706.398
4782.75
4855.987
4921.811
4974.879
5006.383
5008.545
4980.176
4929.035
4859.899
4769.15
4660.636
4546.945
4442.298
4357.93
4286.358
4226.435
4182.618
4158.118
4154.035
4168.421
4197.046
4251.639
4335.788
4431.166
4527.268
4622.974
4714.843
4800.385
4879.337
4953.004
5022.986
5090.478
5156.195
5220.31
5282.521
5342.454
5399.96
5454.869
5506.924
5555.824
5601.253
5642.885
5680.438
5713.656
5742.409
5766.742
5786.772
5802.683
5814.823
5823.66
5829.525
5832.338
5831.795
5827.481
5819.42
5808.666
5797.032
5785.736
5775.966
5768.849
5764.229
5762.37
5764.595
5773.889
5791.646
5817.056
5847.259
5879.495
5911.713
5942.52
5970.967
5996.597
6019.335
6040.902
6061.358
6080.564
6099.559
6118.431
6137.27
6156.222
6175.402
6194.898
6214.795
6235.171
6255.997
6277.241
6298.815
6320.631
6342.625
6364.758
6387.011
6409.348
6431.714
6454.005
6476.113
6497.933
6519.358
6540.273
6560.562
6580.099
6598.765
6616.426
6632.925
6648.123
6661.928
6674.289
6685.192
6694.652
6702.753
6709.496
6714.902
6719.337
6722.889
6725.343
6727.42
6729.135
6730.526
6731.76
6733.164
6734.94
6737.221
6740.094
6743.524
6747.294
6751.192
6755.031
6758.618
6761.953
6765.011
6767.388
6769.292
6770.741
6771.703
6772.217
6772.32
6772.054
6771.457
6770.564
6769.423
6768.056
6766.471
6764.692
6762.734
6760.61
6758.298
6755.847
6753.254
6750.503
6747.561
6744.365
6740.83
6736.937
6732.796
6728.544
6724.262
6720.023
6716.136
6713.207
6711.156
6709.974
6709.292
6708.748
6708.05
6707.333
6706.566
6704.001
6681.77
6660.472
6668.873
6692.804
6701.884
6701.872
6701.256
6701.106
6701.489
6702.311
6703.415
6704.628
6705.856
6707.068
6708.275
6709.517
6710.84
6712.345
6714.203
6716.593
6719.632
6723.361
6727.724
6732.598
6737.835
6743.261
6748.721
6754.114
6759.358
6764.422
6769.245
6773.716
6777.701
6781.077
6783.757
6785.72
6787
6787.714
6788.014
6787.792
6786.9
6785.898
6785.079
6781.353
6771.444
6756.186
6759.337
6776.222
6787.084
6789.95
6791.493
6792.891
6793.211
6790.459
6788.3
6787.175
6786.951
6784.852
6781.707
6778.226
6774.716
6771.346
6768.212
6765.146
6761.812
6756.949
6747.928
6752.061
6762.48
6767.111
6768.538
6769.925
6771.414
6772.947
6774.392
6775.521
6776.244
6776.612
6776.658
6776.414
6775.907
6775.178
6774.302
6773.284
6772.105
6770.82
6769.52
6768.34
6767.527
6767.002
6766.763
6766.706
6766.547
6766.065
6765.122
6764.452
6764.003
6763.525
6762.607
6761.544
6760.495
6759.55
6758.917
6758.57
6758.603
6758.85
6759.251
6759.77
6760.346
6760.941
6761.548
6762.181
6762.86
6763.61
6764.444
6765.365
6766.373
6767.443
6768.521
6769.531
6770.395
6771.046
6771.437
6771.552
6771.406
6771.001
6770.424
6769.694
6768.735
6767.596
6766.358
6765.007
6763.543
6761.972
6760.301
6758.541
6756.697
6754.78
6752.799
6750.763
6748.621
6746.343
6743.852
6741.25
6738.422
6735.638
6732.639
6729.667
6726.601
6723.687
6720.515
6717.105
6712.135
4575.578
4538.887
4465.603
4412.954
4362.306
4315.691
4272.435
4231.769
4192.84
4155.228
4118.778
4081.634
4044.114
4005.874
3966.934
3927.066
3886.246
3844.451
3801.69
3758.512
3716.342
3674.582
3633.36
3592.89
3552.855
3513.457
3475.737
3440.513
3408.863
3382.71
3363.549
3352.178
3349.759
3357.319
3376.144
3407.376
3452.397
3512.189
3587.425
3678.399
3785.001
3906.577
4042.274
4189.903
4347.161
4513.672
4689.87
4874.418
5065.208
5258.995
5451.376
5637.32
5811.324
5967.35
6099.495
6202.78
6273.685
6310.339
6312.712
6282.3
6221.127
6131.472
6015.943
5878.317
5722.417
5553.097
5374.794
5191.627
5007.952
4828.271
4655.329
4489.998
4332.793
4183.623
4042.275
3909.766
3786.01
3671.743
3571.291
3486.365
3413.134
3347.603
3287.396
3231.947
3180.835
3132.932
3090.338
3057.391
3036.223
3025.19
3018.763
3013.932
3006.47
2998.615
2996.777
3006.492