/*--------------------------------*- C++ -*----------------------------------*\
| =========                 |                                                 |
| \\      /  F ield         | foam-extend: Open Source CFD                    |
|  \\    /   O peration     | Version:     3.1                                |
|   \\  /    A nd           | Web:         http://www.extend-project.de       |
|    \\/     M anipulation  |                                                 |
\*---------------------------------------------------------------------------*/
FoamFile
{
    version     2.0;
    format      ascii;
    class       volScalarField;
    location    "5";
    object      p;
}
// * * * * * * * * * * * * * * * * * * * * * * * * * * * * * * * * * * * * * //

dimensions      [1 -1 -2 0 0 0 0];

internalField   nonuniform List<scalar> 
119952
(
7621.639
7623.253
7627.6
7618.286
7658.053
7669.462
7679.781
7678.057
7685.636
7702.087
7709.353
7718.736
7724.576
7726.576
7740.153
7759.818
7751.031
7763.578
7769.778
7784.933
7790.255
7767.98
7783.483
7800.348
7785.515
7796.581
7844.163
7843.321
7868.061
5850.75
7009.66
7043.453
7125.205
7107.212
7129.863
7135.632
7148.153
7163.758
7168.794
7161.96
7175.793
7172.38
7179.281
7185.683
7196.003
7208.876
7227.403
7234.649
7242.159
7223.884
7238.483
7248.426
7266.695
7286.06
7291.712
7302.682
7306.777
7308.861
7316.379
7297.563
7304.564
7309.968
7315.129
7319.803
7325.537
7338.33
7342.354
7336.835
7337.373
7339.82
7357.21
7372.092
7388.405
7382.624
7401.596
7409.904
7419.535
7433.396
7437.349
7447.872
7455.326
7459.915
7465.12
7472.127
7478.269
7483.237
7487.222
7494.24
7499.911
7499.172
7510.733
7535.058
7545.354
7541.839
7528.404
7554.746
7520.76
7435.782
7398.623
7420.07
7429.683
7434.027
7439.127
7445.183
7452.533
7459.439
7463.169
7466.327
7471.936
7481.239
7527.798
7588.168
7503.319
7522.939
7534.233
7540.729
7543.797
7551.074
7560.735
7538.021
7546.177
7546.903
7545.79
7545.483
7545.153
7545.833
7548.247
7549.676
7550.692
7551.923
7553.269
7554.59
7555.714
7556.868
7557.887
7559.389
7560.246
7561.228
7563.868
7558.027
7564.531
7564.738
7564.627
7565.628
7567.509
7566.624
7542.778
7521.353
7500.265
7500.269
7517.067
7516.724
7523.881
7533.077
7537.982
7548.727
7534.538
7540.874
7542.267
7544.043
7542.384
7540.533
7542.56
7542.347
7537.383
7537.258
7536.911
7534.306
7531.807
7530.234
7528.709
7525.586
7520.745
7518.504
7516.404
7514.62
7515.177
7506.003
7505.425
7503.793
7501.029
7498.337
7496.7
7492.211
7486.42
7492.42
7501.958
7495.841
7492.092
7490.571
7492.694
7493.88
7491.904
7497.343
7502.586
7514.623
7542.392
7606.742
7439.097
7449.364
7444.103
7452.601
7435.87
7484.286
7487.191
7489.282
7493.933
7500.524
7506.328
7512.412
7519.625
7527.774
7524.897
7531.889
7532.73
7522.719
7589.363
7564.861
7567.959
7566.508
7597.152
7586.572
7590.578
7596.495
7602.561
7608.542
7613.157
7618.857
7624.461
7631.574
7635.43
7638.148
7642.378
7656.967
7661.873
7667.812
7677.887
7682.763
7688.635
7695.018
7700.774
7706.791
7713.432
7719.645
7725.028
7730.699
7735.952
7740.816
7735.934
7799.679
7772.78
7767.768
7774.202
7780.836
7783.675
7789.667
7792.418
7785.321
7811.782
7812.934
7819.38
7825.882
7831.969
7837.58
7834.839
7882.385
7867.241
7627.206
7776.836
7782.688
7778.762
7785.968
7790.766
7797.1
7795.635
7789.223
7794.948
7800.373
7785.151
7786.196
7782.325
7778.19
7773.332
7769.667
7761.621
7751.985
7747.252
7738.798
7728.364
7720.133
7711.382
7700.405
7688.504
7676.24
7663.852
7651.432
7638.369
7624.638
7610.104
7595.177
7581.264
7566.33
7551.246
7530.128
7512.003
7492.975
7472.414
7449.003
7428.484
7407.071
7385.653
7362.746
7340.442
7313.659
7290.673
7267.466
7243.989
7221.124
7197.896
7166.581
7118.106
7058.272
7022.859
7010.1
6992.333
6972.631
6900.481
6897.656
6867.382
6833.716
6807.295
6778.942
6745.898
6712.067
6688.271
6657.008
6627.953
6598.311
6567.162
6537.784
6510.276
6482.637
6455.386
6427.989
6401.442
6376.765
6351.247
6325.688
6300.87
6277.278
6253.186
6229.688
6206.107
6183.075
6160.756
6139.679
6117.966
6096.923
6076.826
6057.135
6037.789
6018.866
6000.161
5981.584
5963.891
5946.3
5929.217
5912.474
5895.73
5880.963
5868.536
5851.959
5834.879
5823.619
5810.439
5797.073
5784.41
5772.309
5761.202
5752.621
5735.564
5729.095
5718.678
5709.085
5700.294
5691.923
5684.383
5677.036
5670.329
5662.825
5656.052
5650.899
5646.554
5641.838
5638.077
5634.318
5631.43
5629.266
5627.389
5625.774
5625.918
5627.874
5628.44
5618.297
5597.582
5582
6506.257
6495.606
6455.793
6423.568
6392.271
6371.745
6331.606
6293.096
6254.647
6240.164
6214.116
6169.37
6145.864
6117.949
6092.305
6071.897
6053.181
6079.384
6096.22
6059.435
6034.485
6040.763
6055.798
6086.158
6116.53
6143.792
6189.616
6257.571
6329.808
6402.574
6468.365
6528.717
6595.91
6640.234
6687.7
6728.54
6764.399
6792.956
6803.498
6822.081
6835.57
6846.677
6857.732
6867.102
6877.934
6886.124
6895.897
6894.291
6896.661
6903.421
6911.296
6924.17
6937.529
6951.374
6961.239
6970.835
6920.222
6933.562
6948.061
6963.353
6978.795
6988.317
6992.941
6996.088
6999.544
7002.448
7003.364
7004.477
7007.061
7010.973
7015.844
7021.168
7026.861
7032.53
7036.97
7040.216
7044.812
7052.491
7063.026
7074.533
7084.812
7094.955
7105.323
7115.538
7123.935
7130.539
7137.608
7144.701
7151.681
7158.12
7164.033
7169.654
7175.149
7180.701
7186.314
7192.278
7198.892
7206.514
7215.285
7222.134
7223.21
7218.223
7207.388
7189.304
7162.514
7137.8
7126.709
7129.243
7137.066
7144.237
7150.386
7155.43
7160.282
7164.924
7170.521
7177.709
7188.711
7206.219
7231.008
7232.536
7224.122
7223.915
7228.122
7232.903
7237.118
7239.824
7239.89
7238.593
7237.645
7237.334
7237.546
7238.267
7239.317
7240.486
7241.804
7243.106
7244.401
7245.659
7247.061
7248.403
7249.514
7250.392
7251.056
7251.58
7252.03
7252.378
7252.809
7253.83
7255.115
7255.168
7253.45
7249.69
7242.854
7230.403
7214.541
7203.611
7207.241
7215.556
7223.077
7228.893
7233.109
7236.327
7238.471
7239.039
7238.875
7238.413
7237.607
7236.658
7235.907
7234.97
7233.371
7231.556
7229.978
7228.544
7226.905
7224.98
7222.737
7220.186
7217.283
7214.131
7211.072
7208.365
7205.986
7203.857
7201.747
7199.359
7196.425
7193.45
7190.864
7188.615
7186.019
7183.327
7184.543
7189.225
7189.561
7186.817
7184.949
7184.571
7184.989
7185.464
7185.308
7187.608
7189.012
7180.097
7238.731
7190.09
7171.761
7178.86
7185.193
7191.655
7202.627
7210.787
7215.629
7221.643
7226.812
7232.371
7238.116
7243.235
7248.557
7255.537
7262.686
7270.996
7285.085
7272.443
7284.821
7292.089
7296.426
7302.652
7309.948
7316.833
7322.022
7327.316
7333.338
7339.28
7344.904
7350.926
7356.244
7361.546
7366.919
7373.178
7379.932
7386.518
7393.939
7401.303
7408.029
7414.644
7420.619
7426.938
7432.878
7439.044
7445.376
7452.341
7459.352
7466.151
7473.039
7479.417
7487.181
7490.104
7493.94
7501.675
7509.056
7514.483
7519.05
7524.245
7528.661
7532.298
7539.518
7545.578
7549.868
7556.106
7562.986
7567.396
7566.975
7553.599
7388.261
7418.09
7464.402
7482.897
7484.046
7483.219
7484.867
7487.884
7489.873
7490.301
7488.167
7483.417
7479.141
7474.586
7470.182
7465.468
7459.405
7452.311
7444.952
7437.791
7431.332
7423.49
7414.454
7404.261
7393.204
7381.283
7368.678
7356.051
7343.3
7330.448
7316.694
7301.971
7286.374
7268.965
7253.593
7239.086
7221.754
7202.543
7181.907
7160.361
7138.483
7116.818
7095.09
7072.903
7049.833
7026.373
7002.412
6978.218
6953.156
6927.219
6899.869
6870.639
6836.483
6797.35
6762.602
6728.88
6697.234
6670.848
6643.348
6613.377
6582.204
6551.586
6521.821
6492.607
6463.242
6433.392
6403.078
6372.754
6342.827
6313.427
6284.001
6254.108
6224.174
6195.623
6169.975
6145.205
6118.803
6090.72
6063.456
6036.757
6012.449
5987.903
5964.385
5940.872
5916.545
5893.74
5869.861
5846.815
5825.764
5804.342
5783.482
5763.703
5744.973
5725.986
5706.846
5687.927
5669.555
5651.791
5634.524
5617.576
5601.062
5584.859
5568.997
5553.938
5540.134
5526.562
5512.487
5498.694
5485.626
5473.87
5462.195
5450.681
5439.497
5428.819
5418.57
5408.831
5399.616
5390.836
5382.493
5374.708
5367.456
5360.602
5354.152
5348.086
5342.492
5337.553
5333.248
5329.176
5325.474
5322.353
5319.937
5317.979
5316.253
5314.515
5312.508
5309.333
5304.88
5298.522
5294.527
5766.217
5596.681
5469.111
5325.061
5211.794
5138.187
5089.809
5039.826
5005.774
4930.397
5100.523
5144.502
5209.921
5337.061
5428.91
5544.901
5683.465
5807.988
5913.276
6028.378
6133.336
6215.743
6287.195
6346.908
6389.791
6447.869
6451.813
6457.377
6465.733
6450.891
6435.651
6420.91
6402.718
6379.019
6355.037
6332.893
6308.61
6281.212
6252.516
6221.137
6182.839
6148.274
6115.076
6073.445
6035.939
6003.06
5974.958
5946.027
5916.178
5885.5
5858.173
5836.162
5816.577
5799.08
5788.475
5781.151
5713.18
5707.936
5707.386
5713.047
5732.379
5761.977
5798.589
5840.605
5893.472
5959.995
6034.348
6102.565
6168.615
6231.222
6289.663
6344.62
6392.811
6434.974
6470.415
6491.687
6506.504
6520.643
6532.771
6542.898
6551.912
6560.723
6569.173
6577.932
6585.16
6588.807
6592.279
6598.575
6607.651
6619.378
6632.244
6644.89
6656.352
6666.237
6675.725
6685.936
6697.451
6708.978
6720.921
6732.625
6741.438
6748.68
6754.025
6756.634
6757.73
6759.502
6762.573
6766.797
6771.706
6776.671
6781.832
6787.022
6792.471
6798.023
6804.862
6812.779
6821.739
6831.105
6840.451
6849.855
6859.151
6868.165
6876.557
6884.698
6892.609
6900.235
6907.501
6914.276
6920.631
6926.536
6931.896
6936.988
6941.747
6946.3
6950.517
6954.222
6956.725
6958.164
6958.404
6956.964
6952.299
6943.948
6931.794
6919.741
6910.496
6905.078
6903.902
6906.001
6909.837
6914.34
6919.426
6924.917
6930.467
6936.996
6943.821
6951.021
6958.122
6964.06
6969.068
6973.685
6978.007
6982.181
6985.73
6987.7
6988.837
6989.653
6990.47
6991.239
6992.08
6992.907
6994.002
6995.387
6996.84
6998.086
6999.029
7000.075
7001.184
7002.345
7003.271
7004.221
7005.108
7006.057
7006.98
7007.814
7008.608
7009.118
7009.067
7008.742
7008.11
7007.011
7005.573
7003.272
6998.388
6990.565
6982.177
6976.577
6976.303
6978.813
6980.714
6981.945
6982.924
6984.175
6985.269
6985.936
6986.534
6986.994
6986.992
6986.462
6985.651
6984.667
6983.363
6981.554
6979.414
6977.254
6975.159
6973.059
6970.728
6968.17
6965.413
6962.778
6960.297
6958.159
6955.886
6953.317
6950.881
6948.755
6947.03
6945.61
6944.379
6943.392
6940.977
6937.339
6935.659
6935.041
6934.647
6934.388
6934.052
6933.647
6934.037
6932.412
6925.865
6914.618
6903.561
6898.549
6893.887
6891.477
6891.272
6893.498
6898.58
6905.724
6912.237
6917.478
6922.431
6927.842
6933.301
6938.44
6943.751
6949.312
6955.477
6962.062
6968.929
6974.109
6979.247
6985.263
6991.907
6998.322
7004.19
7010.205
7016.315
7022.371
7028.338
7034.435
7040.56
7046.493
7052.2
7057.984
7063.947
7070.195
7076.787
7083.759
7090.224
7096.935
7103.943
7110.842
7117.335
7123.415
7129.215
7135.234
7141.924
7148.951
7155.77
7162.258
7168.473
7174.383
7179.9
7185.423
7190.914
7196.631
7202.479
7208.011
7213.319
7218.329
7223.227
7227.86
7232.656
7237.402
7242.222
7247.066
7252.142
7257.636
7262.868
7269.226
7282.649
7276.656
7265.075
7253.631
7246.116
7243.945
7244.607
7245.085
7244.629
7243.237
7242.28
7240.69
7238.184
7233.896
7229.253
7225.028
7220.057
7213.916
7206.637
7197.999
7188.932
7179.731
7170.344
7160.479
7149.767
7138.07
7125.679
7112.92
7100.131
7086.86
7073.293
7059.012
7044.894
7029.995
7012.897
6994.453
6975.607
6956.153
6936.26
6915.818
6894.592
6872.932
6850.843
6828.26
6805.174
6781.107
6756.649
6731.27
6705.433
6678.504
6650.465
6620.357
6587.823
6552.336
6515.405
6481.431
6450.232
6422.455
6393.84
6363.919
6333.955
6304.528
6275.63
6246.927
6217.923
6188.287
6158.108
6127.809
6098.047
6068.621
6039.834
6010.718
5981.012
5952.168
5927.145
5901.922
5875.132
5847.609
5819.906
5793.328
5769.367
5744.533
5722.682
5699.646
5674.793
5652.148
5627.027
5605.61
5584.902
5562.177
5540.125
5519.526
5500.003
5481.106
5461.391
5441.961
5423.31
5405.471
5388.193
5371.323
5354.766
5338.784
5323.347
5308.469
5293.917
5279.412
5265.687
5252.042
5239.27
5227.509
5215.709
5203.893
5192.632
5182.037
5171.977
5162.323
5153.071
5144.266
5135.944
5128.078
5120.645
5113.64
5107.135
5101.152
5095.702
5090.689
5086.085
5081.901
5078.256
5075.09
5072.323
5069.841
5067.559
5065.337
5062.936
5059.867
5055.471
5050.06
5045.062
6510.036
6619.857
6760.996
6468.26
6452.602
6374.941
6420.204
6300.267
6131.743
5959.315
5762.245
5591.998
5445.269
5294.83
5155.305
5021.906
4922.308
4837.561
4774.438
4739.589
4724.009
4756.509
4791.175
4856.511
4944.935
5046.31
5150.772
5275.604
5409.017
5538.198
5669.684
5737.521
5851.374
5944.009
6015.589
6068.358
6110.967
6138.425
6155.209
6164.128
6158.75
6147.031
6132.971
6115.834
6096.033
6067.963
6039.869
6020.48
5999.921
5975.204
5940.982
5900.891
5859.712
5835.926
5801.363
5757.316
5721.041
5690.538
5657.029
5620.946
5583.755
5549.891
5529.257
5515.807
5503.2
5495.182
5486.284
5468.337
5453.517
5446.632
5444.004
5446.598
5461.26
5487.25
5530.06
5585.314
5646.988
5712.834
5781.08
5850.376
5916.997
5983.973
6045.426
6100.589
6148.785
6189.573
6222.468
6245.727
6261.837
6275.137
6286.768
6297.006
6306.626
6315.759
6323.532
6330.273
6335.773
6340.216
6344.843
6351.59
6360.301
6370.777
6382.204
6394.107
6405.896
6417.309
6428.268
6439.372
6450.974
6463.58
6476.526
6488.536
6496.391
6501.762
6506.108
6508.909
6511.867
6515.463
6519.341
6523.379
6527.541
6531.937
6536.677
6541.925
6547.743
6553.895
6560.294
6567.215
6574.692
6582.912
6591.714
6600.877
6610.062
6619.12
6627.991
6636.384
6644.326
6651.739
6658.777
6665.41
6671.655
6677.452
6682.876
6687.996
6692.65
6697.071
6701.113
6704.777
6708.182
6710.677
6711.556
6709.871
6705.195
6697.601
6687.741
6677.169
6668.876
6664.154
6662.922
6664.591
6668.205
6672.666
6677.63
6683.124
6688.389
6693.912
6699.707
6706.061
6713.958
6721.722
6727.335
6731.109
6734.031
6736.8
6739.171
6740.629
6741.984
6743.414
6744.68
6745.665
6746.4
6747.056
6747.799
6748.81
6750.065
6751.354
6752.499
6753.56
6754.71
6755.902
6757.026
6758.044
6758.972
6759.776
6760.523
6761.022
6761.37
6761.371
6761.005
6760.267
6758.783
6756.216
6752.33
6747.196
6741.457
6735.715
6732.006
6731.857
6733.736
6736.597
6739.824
6742.546
6744.416
6745.609
6746.329
6746.278
6746.152
6746.033
6745.391
6744.256
6742.788
6741.065
6739.236
6737.415
6735.501
6733.376
6731.005
6728.435
6725.883
6723.249
6720.498
6717.737
6715.174
6712.983
6710.675
6708.119
6705.612
6703.228
6700.97
6698.67
6696.348
6693.908
6691.903
6690.791
6690.033
6689.355
6688.775
6688.318
6687.895
6687.452
6686.726
6682.172
6674.586
6668.212
6661.114
6651.757
6642.81
6640.225
6643.606
6648.926
6655.147
6660.458
6665.277
6670.041
6674.972
6679.979
6685.276
6690.979
6696.759
6702.594
6708.498
6714.395
6720.131
6725.804
6731.781
6738.122
6744.537
6750.882
6756.912
6763.23
6769.8
6776.405
6782.946
6789.365
6795.746
6801.993
6808.088
6813.963
6820.094
6826.356
6833.198
6840.016
6846.176
6852.747
6859.767
6866.611
6873.036
6878.952
6884.588
6890.609
6897.137
6904.013
6910.669
6916.873
6922.704
6928.48
6934.41
6940.232
6945.857
6951.587
6957.248
6962.716
6967.779
6972.494
6977.145
6981.806
6986.334
6990.896
6994.988
6998.212
6999.559
6997.729
6992.352
6985.521
6978.912
6975.139
6976.367
6982.924
6990
6994.586
6996.928
6997.187
6995.527
6993.515
6991.13
6989.415
6987.194
6984.143
6979.464
6973.868
6967.459
6961.305
6955.381
6949.477
6942.643
6935.185
6926.739
6917.198
6906.748
6895.401
6883.289
6870.584
6857.487
6844.178
6830.664
6816.356
6801.077
6784.541
6767.166
6749.322
6730.869
6711.72
6691.973
6671.716
6650.534
6628.328
6605.658
6582.631
6559.311
6535.084
6510.216
6484.522
6458.239
6430.844
6402.405
6372.282
6340.16
6306.358
6273.098
6241.926
6210.596
6180.926
6151.952
6121.465
6091.689
6061.614
6031.932
6002.794
5973.776
5944.248
5914.17
5883.847
5853.746
5823.911
5794.565
5765.983
5736.627
5706.78
5680.754
5654.998
5627.812
5601.327
5573.974
5548.15
5524.746
5499.074
5475.724
5453.096
5428.349
5405.389
5380.697
5358.856
5338.29
5316.265
5294.425
5273.132
5252.872
5233.634
5214.154
5194.87
5176.195
5158.324
5141.049
5124.211
5107.735
5091.576
5075.856
5060.619
5045.877
5031.722
5018.159
5004.858
4992.069
4980.217
4968.125
4956.388
4945.433
4935.005
4924.946
4915.244
4905.981
4897.179
4888.842
4880.934
4873.478
4866.501
4860.072
4854.137
4848.614
4843.468
4838.753
4834.515
4830.727
4827.354
4824.29
4821.529
4818.952
4816.515
4814.038
4811.421
4808.556
4805.981
4804.015
4291.083
4367.07
4346.779
4705.211
4985.523
5366.205
5556.967
5785.852
5962.611
6102.835
6197.971
6312.494
6305.162
6296.01
6253.808
6256.283
6175.897
6077.035
5947.417
5771.244
5558.958
5360.776
5197.954
5054.4
4918.824
4782.508
4662.008
4568.411
4480.328
4409.542
4373.601
4372.034
4400.371
4448.189
4519.84
4610.162
4712.632
4828.877
4961.749
5104.502
5246.753
5381.715
5501.852
5612.931
5708.472
5782.506
5839.156
5875.145
5896.631
5907.483
5911.076
5907.474
5896.929
5884.964
5868.508
5848.95
5823.915
5793.452
5768.207
5739.877
5716.76
5692.975
5655.376
5613.474
5586.021
5554.361
5507.622
5467.886
5434.896
5401.205
5363.044
5325.543
5293.293
5272.45
5261.17
5250.823
5241.619
5232.095
5214.648
5198.257
5189.528
5187.069
5189.342
5201.865
5225.694
5264.644
5321.719
5384.913
5454.998
5526.663
5596.826
5665.635
5731.979
5793.54
5849.121
5897.534
5938.277
5971.048
5995.586
6013.293
6026.897
6038.312
6048.108
6056.587
6064.074
6071.069
6077.844
6084.468
6090.776
6097.089
6104.347
6112.969
6122.9
6133.999
6145.79
6157.845
6169.945
6181.761
6193.249
6204.667
6216.336
6227.908
6239.604
6247.791
6252.946
6257.576
6260.402
6264.256
6268.909
6273.492
6277.689
6281.872
6286.235
6290.947
6296.066
6301.744
6308.079
6314.732
6321.756
6329.173
6337.141
6345.604
6354.429
6363.361
6372.234
6380.991
6389.467
6397.584
6405.235
6412.467
6419.314
6425.706
6431.631
6437.118
6442.187
6446.789
6450.905
6454.464
6457.443
6459.543
6460.496
6460.006
6458.006
6454.5
6449.551
6443.439
6436.981
6431.59
6427.95
6426.309
6426.538
6428.412
6431.726
6435.921
6440.719
6445.674
6450.647
6455.826
6461.225
6467.221
6472.882
6477.493
6481.149
6484.359
6487.184
6489.629
6491.505
6493.274
6494.92
6496.41
6497.693
6498.799
6499.83
6500.83
6501.954
6503.319
6504.792
6506.117
6507.224
6508.323
6509.504
6510.675
6511.722
6512.635
6513.424
6514.122
6514.692
6515.005
6515.06
6514.886
6514.335
6513.493
6512.349
6510.927
6509.366
6507.655
6505.736
6503.409
6500.292
6497.971
6497.363
6497.741
6498.61
6499.159
6499.171
6499.363
6499.112
6498.754
6498.633
6498.201
6497.126
6495.408
6493.633
6492.119
6490.651
6488.994
6486.709
6484.148
6481.606
6479.078
6476.439
6473.856
6471.441
6469.007
6466.53
6464.324
6462.126
6459.631
6456.984
6454.501
6452.171
6450.1
6448.07
6446.369
6444.937
6443.604
6442.246
6440.909
6439.66
6438.881
6437.695
6435.484
6431.637
6426.167
6421.397
6416.982
6411.836
6407.709
6407.692
6409.641
6411.958
6413.457
6416.631
6420.927
6425.721
6430.685
6435.483
6440.609
6446.089
6451.402
6456.876
6462.586
6468.464
6474.41
6480.328
6486.454
6492.922
6499.609
6505.928
6511.496
6517.604
6524.144
6530.996
6537.83
6544.461
6550.933
6557.333
6563.672
6569.961
6576.358
6582.948
6589.734
6596.246
6602.275
6608.808
6615.7
6622.465
6628.751
6634.72
6640.651
6646.775
6653.243
6659.889
6666.376
6672.608
6678.591
6684.479
6690.181
6695.697
6701.25
6706.815
6712.302
6717.661
6722.676
6727.383
6731.883
6736.346
6740.701
6744.864
6748.673
6752.305
6755.881
6759.424
6763.334
6766.861
6769.379
6769.726
6768.902
6766.779
6764.678
6763.146
6762.278
6762.033
6762.471
6761.69
6759.119
6755.953
6752.592
6748.93
6744.281
6738.747
6732.893
6726.733
6719.987
6712.644
6704.562
6696.395
6687.703
6677.977
6667.105
6655.119
6642.399
6629.205
6615.849
6602.413
6588.602
6574.142
6558.659
6542.161
6524.941
6507.073
6488.63
6469.434
6449.428
6428.671
6407.12
6384.671
6361.749
6338.47
6314.799
6290.247
6264.991
6239.054
6212.413
6184.997
6156.557
6126.722
6095.034
6061.743
6030.366
6000.929
5969.242
5938.796
5908.734
5876.955
5846.216
5816.943
5787.745
5758.615
5728.734
5698.511
5667.954
5637.553
5607.307
5578.578
5549.695
5520.44
5491.649
5462.299
5436.57
5410.527
5383.609
5357.553
5331.128
5304.496
5280.003
5253.565
5228.714
5205.947
5181.546
5158.835
5133.811
5111.507
5090.839
5068.859
5047.094
5025.813
5005.804
4987.127
4967.587
4947.807
4928.956
4911.091
4893.567
4876.633
4860.178
4844.089
4828.4
4813.044
4798.266
4784.08
4770.564
4757.529
4744.766
4732.469
4720.443
4709.196
4698.371
4687.676
4677.369
4667.607
4658.392
4649.68
4641.411
4633.473
4625.92
4618.773
4612.382
4606.518
4600.969
4595.766
4590.946
4586.599
4582.707
4579.186
4575.992
4573.081
4570.372
4567.875
4565.521
4563.24
4560.982
4558.751
4556.834
3955.012
3959.382
3942.666
3911.4
3902.942
3843.022
3785.497
3783.621
3772.14
3793.034
3867.525
4014.042
4187.562
4373.862
4659.666
4950.139
5211.937
5424.053
5616.741
5704.708
5815.865
5922.662
5935.398
5949.011
5947.902
5950.219
5923.633
5805.94
5675.588
5506.108
5271.921
5063.712
4915.853
4784.707
4654.02
4524.431
4398.269
4289.714
4194.901
4119.634
4080.173
4071.834
4095.274
4144.131
4211.649
4295.447
4393.621
4512.823
4648.803
4799.975
4952.952
5101.269
5236.217
5352.884
5449.314
5524.45
5579.741
5614.817
5634.474
5640.6
5635.922
5624.371
5623.789
5625.042
5609.126
5580.392
5555.533
5540.139
5528.094
5500.608
5473.318
5446.612
5407.845
5365.152
5332.941
5296.159
5252.682
5213.52
5177.958
5142.054
5104.701
5069.134
5039.158
5017.207
5003.009
4994.013
4977.829
4967.63
4959.225
4944.303
4935.421
4933.708
4939.431
4954.762
4983.017
5025.376
5079.468
5142.476
5210.611
5279.779
5349.511
5418.012
5483.353
5544.101
5598.762
5646.115
5685.739
5717.622
5742.444
5761.186
5775.503
5786.965
5796.5
5804.668
5812.122
5819.408
5826.765
5834.039
5841.306
5848.62
5856.498
5865.232
5875.006
5885.768
5897.261
5909.146
5921.224
5933.225
5944.933
5956.446
5967.515
5978.275
5988.504
5997.333
6004.213
6009.807
6014.743
6019.503
6024.227
6028.843
6033.215
6037.428
6041.721
6046.224
6051.047
6056.342
6062.667
6069.572
6076.766
6084.293
6091.992
6099.971
6108.299
6116.819
6125.387
6133.921
6142.312
6150.473
6158.25
6165.58
6172.397
6178.641
6184.407
6189.602
6194.361
6198.658
6202.347
6205.514
6208.019
6209.716
6210.551
6210.353
6209.171
6207.037
6203.818
6199.654
6195.107
6190.87
6187.623
6185.823
6185.465
6186.55
6189.051
6192.547
6196.837
6201.449
6206.081
6210.881
6215.667
6220.362
6225.056
6229.457
6233.484
6237.13
6240.259
6242.919
6245.135
6246.949
6248.454
6249.853
6251.228
6252.635
6254.027
6255.231
6256.291
6257.433
6258.752
6260.151
6261.414
6262.507
6263.604
6264.747
6265.861
6266.831
6267.614
6268.275
6268.803
6269.116
6269.202
6269.024
6268.553
6267.616
6266.199
6264.11
6261.429
6258.243
6255.326
6252.685
6251.577
6251.554
6252.274
6253.281
6254.269
6254.98
6255.404
6255.832
6256.006
6255.537
6255.202
6254.719
6253.654
6252.092
6250.395
6248.451
6246.74
6244.944
6242.78
6240.178
6237.397
6234.752
6232.38
6229.924
6227.345
6224.225
6221.21
6218.616
6216.295
6213.926
6211.256
6208.509
6206.199
6204.243
6202.238
6200.162
6198.152
6196.517
6194.961
6193.246
6191.484
6189.916
6188.001
6185.445
6182.276
6178.284
6174.557
6171.273
6167.86
6164.689
6163.245
6163.805
6164.923
6167.889
6171.433
6175.379
6179.403
6183.521
6188.224
6193.39
6198.783
6204.156
6209.568
6215.269
6221.159
6227.255
6233.397
6239.573
6245.878
6252.299
6258.864
6265.105
6271.721
6278.429
6285.411
6292.401
6298.994
6305.366
6312.055
6318.925
6325.858
6331.995
6338.554
6345.207
6351.931
6358.602
6365.273
6371.96
6378.26
6384.2
6390.18
6396.356
6402.761
6409.258
6415.658
6421.868
6427.89
6433.765
6439.512
6445.131
6450.607
6456.059
6461.627
6467.166
6472.47
6477.437
6482.053
6486.417
6490.722
6494.98
6499.142
6503.066
6506.315
6508.377
6508.726
6507.724
6506.181
6505.146
6504.753
6504.937
6505.231
6505.782
6506.5
6506.28
6506.286
6505.495
6504.546
6503.687
6502.954
6501.735
6498.944
6494.973
6491.253
6487.237
6481.456
6474.559
6467.89
6461.353
6453.972
6445.435
6435.747
6424.915
6413.018
6400.308
6387.154
6373.85
6360.441
6346.601
6332.14
6316.717
6300.18
6282.651
6264.458
6245.717
6226.306
6206.057
6184.977
6163.263
6140.761
6117.685
6094.095
6070.034
6045.183
6019.648
5993.462
5966.603
5939.057
5910.58
5880.871
5849.519
5816.432
5785.888
5757.382
5726.686
5694.696
5664.954
5633.68
5603.11
5573.872
5545.278
5515.888
5485.361
5454.458
5424.094
5394.923
5364.855
5334.915
5306.522
5277.015
5248.15
5219.878
5194.252
5167.924
5140.232
5113.468
5086.157
5058.906
5033.496
5007.655
4983.003
4960.483
4935.958
4913.112
4888.194
4864.868
4842.928
4820.99
4799.475
4778.689
4759.037
4740.853
4721.956
4702.034
4682.274
4663.704
4646.098
4628.924
4612.032
4595.763
4579.73
4564.12
4549.056
4535.021
4522.483
4509.783
4497.34
4484.659
4472.48
4461.59
4450.668
4439.935
4429.438
4419.634
4410.265
4401.504
4393.39
4385.558
4377.879
4370.637
4364.414
4358.529
4352.802
4347.464
4342.531
4338.115
4334.269
4330.712
4327.435
4324.381
4321.588
4319.09
4316.857
4314.803
4312.806
4310.863
4309.472
3765.828
3734.137
3725.959
3715.267
3700.512
3688.318
3676.451
3660.877
3637.343
3618.175
3511.131
3454.38
3394.118
3331.219
3345.635
3471.185
3660.066
3789.706
3934.406
4294.497
4566.197
4852.736
5083.148
5238.212
5366.728
5512.985
5623.969
5666.544
5710.608
5715.76
5685.368
5636.526
5555.542
5419.972
5236.137
5004.117
4801.389
4649.615
4517.521
4387.642
4257.074
4129.618
4011.521
3900.311
3814.592
3766.046
3759.569
3786.464
3836.184
3900.938
3978.15
4072.519
4186.59
4324.292
4479.072
4641.221
4798.799
4946.04
5073.219
5178.151
5255.7
5309.459
5345.284
5368.187
5378.285
5379.479
5362.92
5351.614
5350.973
5343.786
5332.039
5314.619
5289.864
5266.963
5238.118
5207.486
5179.304
5150.34
5116.508
5080.423
5041.601
5000.072
4959.075
4919.772
4880.668
4842.053
4806.23
4775.921
4753.104
4737.764
4727.951
4719.549
4712.882
4706.826
4699.488
4693.5
4694.816
4704.508
4723.392
4753.99
4795.964
4846.345
4906.377
4971.757
5039.543
5107.118
5173.394
5236.653
5294.426
5345.938
5391.037
5429.238
5460.576
5485.57
5505.132
5520.446
5532.687
5542.789
5551.357
5559.073
5566.562
5574.2
5582.053
5590.064
5598.318
5607
5616.26
5626.181
5636.885
5648.218
5660.007
5672.098
5684.281
5696.213
5707.737
5718.715
5729.095
5738.776
5747.778
5755.637
5762.291
5768.142
5773.409
5778.24
5782.836
5787.241
5791.585
5796.027
5800.649
5805.568
5810.883
5816.937
5823.794
5831.146
5838.761
5846.49
5854.291
5862.286
5870.468
5878.745
5887.039
5895.26
5903.297
5911.057
5918.405
5925.191
5931.438
5937.134
5942.225
5946.798
5950.838
5954.346
5957.356
5959.777
5961.502
5962.432
5962.527
5961.792
5960.27
5957.983
5955.038
5951.672
5948.462
5945.949
5944.437
5944.103
5945.019
5946.983
5949.804
5953.409
5957.504
5961.823
5966.372
5970.671
5974.632
5978.651
5982.707
5986.548
5990.048
5993.155
5995.696
5997.686
5999.377
6000.916
6002.394
6003.881
6005.329
6006.757
6008.127
6009.387
6010.607
6011.945
6013.407
6014.764
6015.913
6017.007
6018.173
6019.363
6020.447
6021.374
6022.125
6022.682
6023.098
6023.26
6023.199
6022.888
6022.223
6021.449
6020.54
6019.666
6018.436
6016.761
6015.274
6013.686
6012.727
6012.234
6012.153
6012.2
6012.213
6012.165
6012.136
6011.776
6010.886
6010.088
6009.131
6007.723
6006.162
6004.291
6002.497
6000.596
5998.726
5996.579
5993.993
5991.309
5988.821
5986.591
5984.048
5981.299
5978.407
5975.57
5972.79
5970.221
5967.848
5965.238
5962.52
5960.131
5957.99
5955.629
5953.291
5951.154
5949.218
5947.314
5945.355
5943.345
5941.223
5939.059
5936.529
5933.256
5929.911
5926.862
5924.158
5921.687
5919.835
5919.052
5919.807
5921.91
5924.121
5927.166
5930.685
5934.481
5938.388
5942.528
5947.206
5952.456
5957.931
5963.421
5969.067
5974.774
5980.714
5986.917
5993.243
5999.651
6006.196
6012.672
6019.237
6025.841
6032.628
6039.726
6047.029
6053.476
6059.759
6066.713
6074.393
6082.012
6087.974
6093.949
6100.482
6107.568
6114.312
6120.913
6127.649
6133.837
6139.67
6145.687
6152.067
6158.714
6165.243
6171.528
6177.531
6183.431
6189.239
6194.976
6200.59
6206.131
6211.645
6217.147
6222.586
6227.753
6232.582
6237.053
6241.365
6245.64
6249.869
6253.977
6257.762
6260.962
6263.566
6265.939
6268.601
6271.768
6274.533
6276.305
6277.151
6277.43
6277.561
6278.281
6279.734
6280.451
6280.602
6279.112
6276.337
6272.268
6268.043
6263.689
6259.193
6254.223
6248.232
6241.164
6233.364
6226.179
6219.543
6212.991
6205.288
6195.955
6185.087
6172.923
6159.923
6146.53
6133.081
6119.614
6105.755
6091.162
6075.582
6058.856
6041.039
6022.546
6003.512
5983.9
5963.445
5942.189
5920.226
5897.616
5874.284
5850.38
5825.842
5800.719
5774.803
5748.383
5721.25
5693.561
5665.088
5635.62
5604.415
5571.481
5541.532
5513.156
5484.16
5451.774
5422.334
5390.424
5359.155
5329.275
5301.598
5272.297
5241.672
5210.515
5180.682
5151.725
5121.68
5090.165
5060.442
5030.694
5001.812
4973.781
4947.273
4920.308
4892.44
4865.333
4838.019
4811.197
4785.426
4760.057
4735.437
4712.098
4687.972
4664.398
4640.092
4616.74
4594.384
4572.466
4551.024
4530.241
4510.336
4492.107
4473.875
4454.492
4434.914
4416.637
4398.852
4381.455
4364.586
4348.226
4331.879
4316.593
4301.339
4286.967
4274.484
4261.922
4248.844
4235.929
4223.7
4212.606
4201.863
4191.205
4181.038
4171.394
4162.064
4153.526
4145.431
4137.534
4129.46
4122.411
4116.423
4110.521
4104.613
4099.137
4094.121
4089.76
4085.821
4082.022
4078.579
4075.428
4072.598
4070.143
4068.019
4066.156
4064.392
4062.719
4061.589
3522.756
3493.242
3423.476
3410.645
3395.476
3381.784
3369.101
3358.035
3342.103
3316.802
3263.155
3170.449
3059.432
2954.628
2890.545
2986.566
3272.361
3434.6
3574.59
3943.342
4317.772
4574.69
4751.422
4901.203
5107.368
5284.89
5372.343
5422.874
5465.302
5471.519
5432.184
5378.77
5327.601
5170.352
4953.4
4736.786
4547.826
4392.629
4259.7
4126.279
3994.576
3869.404
3747.815
3634.438
3541.351
3490.955
3480.384
3504.513
3551.028
3610.144
3678.439
3759.326
3863.792
3998.665
4154.949
4318.734
4481.037
4635.363
4771.378
4882.198
4960.323
5014.611
5050.956
5077.569
5089.43
5099.653
5108.581
5093.753
5081.925
5081.503
5079.977
5061.452
5015.769
4970.954
4943.402
4922.437
4903.843
4883.572
4856.362
4821.999
4783.652
4743.482
4703.344
4664.376
4626.796
4590.634
4557.384
4529.134
4507.565
4492.432
4482.917
4476.142
4470.255
4465.711
4463.861
4465.274
4471.056