/*--------------------------------*- C++ -*----------------------------------*\
| =========                 |                                                 |
| \\      /  F ield         | foam-extend: Open Source CFD                    |
|  \\    /   O peration     | Version:     3.1                                |
|   \\  /    A nd           | Web:         http://www.extend-project.de       |
|    \\/     M anipulation  |                                                 |
\*---------------------------------------------------------------------------*/
FoamFile
{
    version     2.0;
    format      ascii;
    class       volScalarField;
    location    "5";
    object      pd;
}
// * * * * * * * * * * * * * * * * * * * * * * * * * * * * * * * * * * * * * //

dimensions      [1 -1 -2 0 0 0 0];

internalField   nonuniform List<scalar> 
119952
(
7652.334
7660.667
7664.394
7651.813
7688.766
7700.813
7711.746
7710.635
7718.827
7735.891
7743.77
7753.766
7760.22
7762.832
7777.023
7797.3
7789.127
7802.287
7809.1
7824.868
7825.543
7803.53
7819.291
7831.01
7816.177
7827.243
7874.825
7873.983
7898.755
5881.445
7300.146
7330.398
7408.882
7387.622
7407.005
7409.503
7418.761
7431.099
7432.867
7423.884
7451.699
7448.286
7455.188
7461.589
7471.909
7484.782
7503.309
7510.555
7518.065
7530.446
7545.045
7554.989
7573.257
7592.623
7598.275
7609.245
7613.339
7615.424
7622.942
7604.125
7611.126
7616.531
7621.691
7626.365
7632.1
7644.893
7648.916
7643.397
7643.936
7646.383
7663.772
7678.654
7694.967
7689.186
7708.159
7716.467
7726.098
7739.958
7743.911
7754.435
7761.889
7766.477
7771.683
7778.689
7784.832
7789.799
7793.784
7800.802
7806.473
7805.735
7817.296
7841.621
7851.917
7848.402
7834.966
7861.309
7827.322
7742.344
7705.185
7726.633
7736.245
7740.59
7745.689
7751.746
7759.095
7766.002
7769.731
7772.89
7778.498
7787.802
7834.361
7894.73
7809.881
7829.502
7840.796
7847.291
7850.359
7857.637
7867.297
7844.583
7852.739
7853.465
7852.352
7852.046
7851.716
7852.396
7854.809
7856.238
7857.254
7858.486
7859.832
7861.152
7862.277
7863.43
7864.449
7865.952
7866.809
7867.79
7870.43
7864.589
7871.094
7871.301
7871.189
7872.191
7874.071
7873.187
7849.341
7827.916
7806.827
7806.831
7823.629
7823.286
7830.443
7839.639
7844.544
7855.289
7841.1
7847.437
7848.829
7850.605
7848.947
7847.096
7849.122
7848.909
7843.946
7843.82
7843.474
7840.868
7838.37
7836.797
7835.272
7832.148
7827.307
7825.067
7822.966
7821.183
7821.74
7812.565
7811.987
7810.356
7807.592
7804.9
7803.263
7798.774
7792.982
7798.983
7808.52
7802.403
7798.655
7797.133
7799.256
7800.443
7798.467
7803.906
7809.148
7821.186
7848.954
7882.648
7715.004
7725.271
7720.009
7728.507
7711.776
7760.192
7763.097
7765.188
7769.839
7776.43
7782.235
7788.318
7795.531
7803.68
7800.804
7807.796
7808.636
7798.625
7865.269
7840.768
7843.865
7842.414
7873.058
7862.478
7866.484
7872.401
7878.468
7884.448
7889.063
7894.763
7900.367
7907.481
7911.336
7914.054
7918.284
7932.873
7937.779
7943.718
7953.793
7958.669
7964.541
7970.924
7976.68
7982.698
7989.338
7995.551
8000.934
8006.605
8011.858
8016.722
8011.841
8075.585
8048.686
8043.675
8050.109
8056.742
8059.581
8065.573
8068.324
8061.228
8087.689
8088.84
8095.286
8101.789
8107.875
8113.486
8110.745
8158.291
8143.148
7933.769
8083.398
8089.251
8085.325
8092.53
8097.328
8103.662
8102.197
8095.785
8101.511
8106.936
8091.714
8092.759
8088.888
8084.753
8079.895
8076.23
8068.183
8058.547
8053.814
8045.361
8034.926
8026.695
8017.944
8006.967
7995.067
7982.803
7970.414
7957.995
7944.931
7931.201
7916.667
7901.74
7887.826
7872.892
7857.808
7836.69
7818.566
7799.537
7778.977
7755.565
7735.047
7713.633
7692.215
7669.308
7647.005
7620.222
7597.235
7574.029
7550.551
7527.687
7504.458
7473.143
7424.668
7364.834
7329.422
7316.663
7298.896
7279.194
7207.043
7204.218
7173.944
7140.278
7113.858
7085.504
7052.461
7018.629
6994.834
6963.571
6934.516
6904.873
6873.725
6844.346
6816.839
6789.2
6761.948
6734.551
6708.004
6683.328
6657.81
6632.251
6607.432
6583.841
6559.749
6536.251
6512.67
6489.638
6467.319
6446.242
6424.529
6403.486
6383.389
6363.698
6344.351
6325.429
6306.723
6288.146
6270.453
6252.862
6235.78
6219.037
6202.292
6187.526
6175.099
6158.522
6141.442
6130.182
6117.002
6103.635
6090.972
6078.871
6067.764
6059.183
6042.127
6035.657
6025.24
6015.648
6006.857
5998.486
5990.946
5983.599
5976.891
5969.388
5962.615
5957.461
5953.117
5948.401
5944.64
5940.88
5937.993
5935.828
5933.952
5932.336
5932.481
5934.436
5935.003
5924.86
5904.144
5888.562
7040.1
7026.167
6983.086
6947.595
6913.03
6889.237
6845.83
6804.053
6762.499
6761.32
6735.272
6690.526
6667.02
6639.106
6613.461
6593.053
6574.337
6600.54
6648.033
6611.247
6586.297
6592.576
6607.611
6637.97
6668.343
6695.604
6741.429
6809.383
6881.621
6954.387
7020.177
7080.53
7147.722
7192.047
7239.513
7280.352
7316.212
7344.769
7355.311
7373.893
7387.383
7398.489
7409.544
7418.915
7429.747
7437.937
7447.71
7446.103
7448.473
7455.234
7463.109
7475.982
7489.342
7503.187
7513.052
7522.648
7533.347
7546.687
7561.186
7576.478
7591.92
7601.442
7606.066
7609.213
7612.669
7615.573
7616.489
7617.602
7620.187
7624.098
7628.969
7634.293
7639.986
7645.655
7650.095
7653.341
7657.937
7665.616
7676.151
7687.658
7697.937
7708.08
7718.448
7728.663
7737.06
7743.664
7750.733
7757.826
7764.806
7771.245
7777.158
7782.779
7788.274
7793.826
7799.439
7805.403
7812.017
7819.639
7828.41
7835.259
7836.335
7831.348
7820.513
7802.429
7775.639
7750.925
7739.834
7742.368
7750.191
7757.362
7763.511
7768.555
7773.407
7778.049
7783.646
7790.834
7801.836
7819.344
7844.133
7845.661
7837.247
7837.04
7841.247
7846.028
7850.243
7852.949
7853.015
7851.718
7850.77
7850.459
7850.671
7851.392
7852.442
7853.611
7854.929
7856.231
7857.526
7858.784
7860.186
7861.528
7862.639
7863.517
7864.181
7864.705
7865.155
7865.503
7865.934
7866.956
7868.24
7868.293
7866.575
7862.815
7855.979
7843.528
7827.666
7816.736
7820.366
7828.681
7836.202
7842.018
7846.234
7849.452
7851.596
7852.164
7852
7851.538
7850.732
7849.783
7849.032
7848.095
7846.496
7844.681
7843.103
7841.669
7840.03
7838.105
7835.863
7833.311
7830.408
7827.256
7824.197
7821.49
7819.111
7816.982
7814.872
7812.484
7809.55
7806.575
7803.989
7801.74
7799.144
7796.452
7797.668
7802.35
7802.686
7799.942
7798.074
7797.696
7798.114
7798.589
7798.433
7800.733
7802.137
7793.222
7790.543
7741.902
7723.573
7730.672
7737.006
7743.467
7754.44
7762.6
7767.441
7773.455
7778.625
7784.183
7789.928
7795.048
7800.369
7807.349
7814.498
7822.808
7836.898
7824.255
7836.633
7843.902
7848.238
7854.465
7861.76
7868.646
7873.834
7879.128
7885.151
7891.092
7896.717
7902.739
7908.056
7913.358
7918.732
7924.99
7931.745
7938.33
7945.752
7953.116
7959.842
7966.456
7972.432
7978.75
7984.69
7990.856
7997.189
8004.154
8011.164
8017.964
8024.852
8031.23
8038.993
8041.916
8045.753
8053.487
8060.868
8066.296
8070.862
8076.058
8080.473
8084.111
8091.331
8097.391
8101.68
8107.918
8114.799
8119.209
8118.788
8105.412
8001.386
8031.215
8077.527
8096.022
8097.171
8096.344
8097.992
8101.009
8102.998
8103.426
8101.292
8096.542
8092.266
8087.711
8083.307
8078.593
8072.53
8065.436
8058.077
8050.916
8044.457
8036.615
8027.579
8017.386
8006.329
7994.408
7981.803
7969.176
7956.425
7943.573
7929.819
7915.097
7899.499
7882.09
7866.718
7852.211
7834.879
7815.668
7795.032
7773.486
7751.608
7729.943
7708.215
7686.028
7662.958
7639.498
7615.537
7591.343
7566.281
7540.344
7512.994
7483.764
7449.608
7410.475
7375.727
7342.005
7310.359
7283.973
7256.473
7226.502
7195.329
7164.711
7134.946
7105.732
7076.367
7046.517
7016.203
6985.879
6955.952
6926.552
6897.126
6867.233
6837.299
6808.748
6783.1
6758.331
6731.928
6703.845
6676.581
6649.882
6625.574
6601.028
6577.51
6553.997
6529.67
6506.865
6482.986
6459.94
6438.889
6417.467
6396.607
6376.828
6358.098
6339.111
6319.971
6301.052
6282.68
6264.916
6247.649
6230.701
6214.187
6197.984
6182.122
6167.063
6153.259
6139.687
6125.612
6111.819
6098.751
6086.995
6075.32
6063.806
6052.622
6041.944
6031.695
6021.956
6012.741
6003.961
5995.618
5987.833
5980.581
5973.727
5967.277
5961.211
5955.617
5950.678
5946.373
5942.301
5938.599
5935.478
5933.062
5931.104
5929.378
5927.64
5925.633
5922.458
5918.005
5911.647
5907.652
6547.203
6374.126
6243.288
6095.971
5979.437
5902.558
5850.917
5797.667
5760.347
5682.821
5866.929
5910.908
5976.328
6103.467
6195.316
6311.307
6449.871
6574.394
6679.683
6825.44
6930.398
7012.806
7084.257
7143.97
7186.853
7244.931
7248.876
7254.439
7262.795
7247.954
7232.713
7217.972
7199.78
7176.082
7152.1
7129.955
7105.672
7078.274
7049.578
7018.199
6979.902
6945.336
6912.139
6870.507
6833.002
6800.122
6772.021
6743.09
6713.24
6682.563
6655.235
6633.225
6613.64
6596.143
6585.537
6578.213
6571.555
6566.311
6565.761
6571.422
6590.754
6620.352
6656.964
6698.98
6751.847
6818.37
6892.723
6960.94
7026.99
7089.597
7148.038
7202.995
7251.186
7293.349
7328.79
7350.062
7364.879
7379.018
7391.146
7401.273
7410.287
7419.098
7427.548
7436.307
7443.535
7447.182
7450.654
7456.95
7466.026
7477.753
7490.619
7503.265
7514.727
7524.611
7534.1
7544.311
7555.826
7567.353
7579.296
7591
7599.813
7607.055
7612.4
7615.009
7616.105
7617.877
7620.948
7625.172
7630.081
7635.046
7640.207
7645.397
7650.846
7656.398
7663.237
7671.154
7680.114
7689.48
7698.826
7708.23
7717.526
7726.54
7734.932
7743.073
7750.984
7758.61
7765.876
7772.651
7779.006
7784.911
7790.271
7795.363
7800.122
7804.675
7808.892
7812.597
7815.1
7816.539
7816.779
7815.339
7810.674
7802.323
7790.169
7778.116
7768.871
7763.453
7762.277
7764.376
7768.212
7772.715
7777.801
7783.292
7788.842
7795.371
7802.196
7809.396
7816.497
7822.435
7827.443
7832.06
7836.382
7840.556
7844.105
7846.075
7847.212
7848.028
7848.845
7849.614
7850.455
7851.282
7852.377
7853.762
7855.215
7856.461
7857.404
7858.45
7859.559
7860.72
7861.646
7862.596
7863.483
7864.432
7865.355
7866.19
7866.983
7867.493
7867.442
7867.117
7866.485
7865.386
7863.948
7861.647
7856.763
7848.94
7840.552
7834.952
7834.678
7837.188
7839.089
7840.32
7841.299
7842.55
7843.644
7844.311
7844.909
7845.369
7845.367
7844.837
7844.026
7843.042
7841.738
7839.929
7837.789
7835.629
7833.534
7831.434
7829.103
7826.545
7823.788
7821.153
7818.672
7816.534
7814.261
7811.692
7809.256
7807.13
7805.405
7803.985
7802.754
7801.767
7799.352
7795.714
7794.034
7793.416
7793.022
7792.763
7792.427
7792.022
7792.412
7790.787
7784.24
7772.993
7761.936
7756.924
7752.262
7749.852
7749.647
7751.873
7756.955
7764.099
7770.612
7775.853
7780.806
7786.217
7791.676
7796.815
7802.126
7807.687
7813.852
7820.437
7827.304
7832.484
7837.622
7843.638
7850.282
7856.697
7862.565
7868.58
7874.69
7880.746
7886.713
7892.81
7898.935
7904.868
7910.575
7916.359
7922.322
7928.57
7935.162
7942.134
7948.599
7955.31
7962.318
7969.217
7975.71
7981.79
7987.59
7993.609
8000.299
8007.326
8014.145
8020.633
8026.848
8032.758
8038.275
8043.798
8049.289
8055.006
8060.854
8066.386
8071.694
8076.704
8081.602
8086.235
8091.031
8095.777
8100.597
8105.441
8110.517
8116.011
8121.243
8127.601
8141.024
8135.031
8123.45
8112.006
8104.491
8102.32
8102.982
8103.46
8103.004
8101.612
8100.655
8099.065
8096.559
8092.271
8087.628
8083.403
8078.432
8072.291
8065.012
8056.374
8047.307
8038.106
8028.719
8018.854
8008.142
7996.445
7984.054
7971.295
7958.506
7945.236
7931.668
7917.387
7903.269
7888.37
7871.272
7852.828
7833.982
7814.528
7794.635
7774.193
7752.967
7731.307
7709.218
7686.635
7663.549
7639.482
7615.024
7589.645
7563.808
7536.879
7508.84
7478.732
7446.198
7410.711
7373.78
7339.806
7308.607
7280.83
7252.215
7222.294
7192.33
7162.903
7134.005
7105.302
7076.298
7046.662
7016.483
6986.184
6956.422
6926.996
6898.209
6869.093
6839.387
6810.543
6785.52
6760.297
6733.507
6705.984
6678.281
6651.703
6627.742
6602.908
6581.057
6558.021
6533.168
6510.523
6485.402
6463.985
6443.277
6420.552
6398.5
6377.901
6358.378
6339.481
6319.766
6300.336
6281.685
6263.846
6246.568
6229.698
6213.141
6197.159
6181.722
6166.844
6152.292
6137.787
6124.062
6110.417
6097.645
6085.884
6074.084
6062.268
6051.007
6040.412
6030.352
6020.698
6011.446
6002.641
5994.319
5986.453
5979.02
5972.015
5965.51
5959.527
5954.077
5949.064
5944.46
5940.276
5936.631
5933.465
5930.698
5928.216
5925.934
5923.712
5921.311
5918.242
5913.846
5908.435
5903.437
7527.24
7625.507
7763.172
7479.916
7464.258
7417.253
7462.516
7342.58
7174.055
7001.627
6804.558
6634.31
6487.582
6337.143
6197.618
6064.219
5964.621
5879.874
5816.75
5781.901
5766.321
5798.822
5833.488
5898.823
5987.247
6088.623
6193.085
6317.916
6451.33
6580.51
6711.997
6841.146
6954.999
7047.634
7119.214
7171.983
7214.592
7242.05
7258.834
7267.753
7262.375
7250.655
7236.596
7219.459
7199.658
7171.588
7143.494
7124.105
7103.546
7078.829
7044.607
7004.516
6963.337
6939.551
6904.988
6860.941
6824.666
6794.163
6760.654
6724.571
6687.38
6653.516
6632.882
6619.432
6606.825
6598.807
6589.908
6571.962
6557.142
6550.257
6547.629
6550.223
6564.885
6590.874
6633.685
6688.939
6750.613
6816.459
6884.705
6954.001
7020.622
7087.598
7149.051
7204.214
7252.41
7293.198
7326.093
7349.352
7365.462
7378.762
7390.393
7400.631
7410.25
7419.384
7427.157
7433.898
7439.398
7443.841
7448.468
7455.215
7463.926
7474.402
7485.829
7497.732
7509.521
7520.934
7531.893
7542.997
7554.599
7567.205
7580.151
7592.161
7600.016
7605.387
7609.733
7612.534
7615.492
7619.088
7622.966
7627.004
7631.166
7635.562
7640.302
7645.55
7651.368
7657.52
7663.919
7670.84
7678.318
7686.537
7695.339
7704.502
7713.687
7722.745
7731.616
7740.009
7747.951
7755.364
7762.402
7769.035
7775.28
7781.077
7786.501
7791.621
7796.275
7800.696
7804.738
7808.402
7811.807
7814.302
7815.181
7813.496
7808.82
7801.226
7791.366
7780.794
7772.501
7767.779
7766.547
7768.216
7771.83
7776.291
7781.255
7786.749
7792.014
7797.537
7803.332
7809.686
7817.583
7825.347
7830.96
7834.734
7837.656
7840.425
7842.796
7844.254
7845.609
7847.039
7848.305
7849.29
7850.025
7850.681
7851.424
7852.435
7853.69
7854.979
7856.124
7857.185
7858.335
7859.527
7860.651
7861.669
7862.597
7863.401
7864.148
7864.647
7864.995
7864.996
7864.63
7863.892
7862.408
7859.841
7855.955
7850.821
7845.082
7839.34
7835.631
7835.482
7837.362
7840.222
7843.449
7846.171
7848.041
7849.234
7849.954
7849.903
7849.777
7849.658
7849.016
7847.881
7846.413
7844.69
7842.861
7841.04
7839.126
7837.001
7834.63
7832.06
7829.508
7826.874
7824.123
7821.362
7818.799
7816.608
7814.3
7811.744
7809.237
7806.853
7804.595
7802.295
7799.973
7797.533
7795.528
7794.416
7793.658
7792.98
7792.4
7791.943
7791.52
7791.077
7790.351
7785.797
7778.211
7771.837
7764.739
7755.382
7746.435
7743.85
7747.231
7752.551
7758.772
7764.083
7768.902
7773.666
7778.597
7783.604
7788.901
7794.604
7800.384
7806.219
7812.123
7818.02
7823.756
7829.429
7835.406
7841.747
7848.162
7854.507
7860.537
7866.855
7873.425
7880.03
7886.571
7892.99
7899.371
7905.618
7911.713
7917.588
7923.719
7929.981
7936.823
7943.641
7949.801
7956.372
7963.392
7970.236
7976.661
7982.577
7988.213
7994.234
8000.762
8007.638
8014.294
8020.498
8026.329
8032.105
8038.035
8043.857
8049.482
8055.212
8060.873
8066.341
8071.404
8076.119
8080.77
8085.431
8089.959
8094.521
8098.613
8101.837
8103.184
8101.354
8095.977
8089.146
8082.537
8078.764
8079.992
8086.549
8093.625
8098.211
8100.553
8100.812
8099.152
8097.14
8094.755
8093.04
8090.819
8087.768
8083.089
8077.493
8071.084
8064.93
8059.006
8053.102
8046.268
8038.81
8030.364
8020.823
8010.373
7999.026
7986.914
7974.209
7961.112
7947.803
7934.289
7919.981
7904.702
7888.166
7870.791
7852.947
7834.494
7815.345
7795.598
7775.341
7754.159
7731.953
7709.283
7686.256
7662.936
7638.709
7613.841
7588.147
7561.864
7534.469
7506.03
7475.907
7443.785
7409.983
7376.723
7345.551
7314.221
7284.551
7255.577
7225.09
7195.314
7165.239
7135.557
7106.419
7077.401
7047.873
7017.795
6987.472
6957.371
6927.536
6898.19
6869.608
6840.252
6810.405
6784.379
6758.623
6731.437
6704.952
6677.599
6651.775
6628.371
6602.699
6579.349
6556.721
6531.974
6509.014
6484.322
6462.481
6441.915
6419.89
6398.05
6376.757
6356.497
6337.259
6317.779
6298.495
6279.82
6261.949
6244.674
6227.836
6211.36
6195.201
6179.481
6164.244
6149.502
6135.347
6121.784
6108.483
6095.694
6083.842
6071.75
6060.013
6049.058
6038.63
6028.571
6018.869
6009.606
6000.804
5992.467
5984.559
5977.103
5970.126
5963.697
5957.762
5952.239
5947.093
5942.378
5938.14
5934.352
5930.979
5927.915
5925.154
5922.577
5920.14
5917.663
5915.046
5912.181
5909.606
5907.64
5559.428
5623.697
5592.382
5962.117
6242.429
6653.768
6844.529
7073.415
7250.173
7390.397
7485.534
7600.056
7592.724
7583.572
7541.371
7543.845
7524.772
7425.91
7296.292
7120.119
6907.833
6709.651
6546.829
6403.275
6267.699
6131.383
6010.883
5917.286
5829.203
5758.417
5722.476
5720.909
5749.246
5797.064
5868.715
5959.037
6061.507
6177.752
6310.624
6453.377
6595.628
6730.59
6850.727
6961.806
7057.347
7131.381
7188.031
7224.02
7245.506
7256.358
7259.951
7256.349
7245.804
7233.839
7217.383
7197.825
7172.79
7142.327
7117.082
7088.752
7065.635
7041.849
7004.251
6962.349
6934.896
6903.236
6856.497
6816.761
6783.771
6750.08
6711.919
6674.418
6642.168
6621.325
6610.045
6599.698
6590.494
6580.97
6563.523
6547.132
6538.403
6535.944
6538.217
6550.74
6574.569
6613.519
6670.594
6733.788
6803.873
6875.538
6945.701
7014.51
7080.853
7142.415
7197.996
7246.409
7287.152
7319.923
7344.461
7362.168
7375.772
7387.187
7396.983
7405.462
7412.949
7419.944
7426.719
7433.343
7439.651
7445.964
7453.222
7461.844
7471.775
7482.874
7494.665
7506.72
7518.82
7530.636
7542.124
7553.542
7565.211
7576.783
7588.479
7596.666
7601.821
7606.45
7609.277
7613.131
7617.784
7622.367
7626.564
7630.747
7635.11
7639.822
7644.941
7650.619
7656.954
7663.607
7670.631
7678.048
7686.016
7694.479
7703.304
7712.236
7721.109
7729.866
7738.342
7746.459
7754.11
7761.342
7768.189
7774.581
7780.506
7785.993
7791.062
7795.664
7799.78
7803.339
7806.318
7808.418
7809.371
7808.881
7806.881
7803.375
7798.426
7792.314
7785.856
7780.465
7776.825
7775.184
7775.413
7777.287
7780.601
7784.796
7789.594
7794.549
7799.522
7804.701
7810.1
7816.096
7821.757
7826.368
7830.024
7833.234
7836.059
7838.504
7840.38
7842.149
7843.795
7845.285
7846.568
7847.674
7848.705
7849.705
7850.829
7852.194
7853.667
7854.992
7856.099
7857.198
7858.379
7859.55
7860.597
7861.51
7862.299
7862.997
7863.567
7863.88
7863.935
7863.761
7863.21
7862.368
7861.224
7859.802
7858.241
7856.53
7854.611
7852.284
7849.167
7846.846
7846.238
7846.616
7847.485
7848.034
7848.046
7848.238
7847.987
7847.629
7847.509
7847.076
7846.001
7844.283
7842.508
7840.994
7839.526
7837.869
7835.584
7833.023
7830.481
7827.953
7825.314
7822.731
7820.316
7817.882
7815.405
7813.199
7811.001
7808.506
7805.859
7803.377
7801.046
7798.975
7796.945
7795.244
7793.812
7792.479
7791.121
7789.784
7788.535
7787.756
7786.57
7784.359
7780.512
7775.042
7770.272
7765.857
7760.711
7756.584
7756.567
7758.516
7760.833
7762.332
7765.506
7769.802
7774.596
7779.56
7784.358
7789.484
7794.964
7800.277
7805.751
7811.461
7817.339
7823.285
7829.203
7835.329
7841.797
7848.484
7854.803
7860.371
7866.479
7873.019
7879.871
7886.705
7893.336
7899.808
7906.208
7912.547
7918.836
7925.233
7931.823
7938.609
7945.121
7951.15
7957.683
7964.575
7971.34
7977.626
7983.595
7989.526
7995.65
8002.118
8008.764
8015.251
8021.483
8027.466
8033.354
8039.056
8044.572
8050.125
8055.69
8061.177
8066.536
8071.551
8076.258
8080.758
8085.221
8089.576
8093.739
8097.548
8101.18
8104.756
8108.299
8112.209
8115.736
8118.254
8118.601
8117.777
8115.654
8113.553
8112.021
8111.153
8110.908
8111.346
8110.565
8107.994
8104.828
8101.467
8097.805
8093.156
8087.622
8081.768
8075.608
8068.862
8061.519
8053.437
8045.27
8036.578
8026.852
8015.98
8003.994
7991.274
7978.08
7964.724
7951.288
7937.477
7923.017
7907.534
7891.036
7873.816
7855.948
7837.505
7818.309
7798.303
7777.546
7755.995
7733.546
7710.624
7687.345
7663.674
7639.122
7613.866
7587.929
7561.288
7533.872
7505.432
7475.597
7443.909
7410.618
7379.241
7349.804
7318.117
7287.671
7257.609
7225.83
7195.091
7165.818
7136.62
7107.49
7077.609
7047.386
7016.829
6986.428
6956.182
6927.453
6898.57
6869.315
6840.524
6811.174
6785.445
6759.402
6732.484
6706.428
6680.003
6653.371
6628.878
6602.44
6577.589
6554.822
6530.421
6507.71
6482.686
6460.382
6439.714
6417.734
6395.969
6374.688
6354.679
6336.002
6316.462
6296.682
6277.831
6259.966
6242.442
6225.508
6209.053
6192.964
6177.275
6161.919
6147.141
6132.955
6119.439
6106.404
6093.641
6081.344
6069.318
6058.071
6047.246
6036.551
6026.244
6016.482
6007.267
5998.555
5990.286
5982.348
5974.795
5967.648
5961.257
5955.393
5949.844
5944.641
5939.821
5935.474
5931.582
5928.061
5924.867
5921.956
5919.247
5916.75
5914.396
5912.115
5909.857
5907.626
5905.709
5462.647
5455.469
5435.304
5413.557
5405.099
5375.834
5318.31
5316.433
5304.952
5325.847
5400.338
5546.855
5720.374
5906.675
6192.478
6544.264
6806.062
7018.178
7210.866
7298.833
7409.99
7516.787
7529.522
7543.136
7542.026
7544.343
7517.757
7400.064
7269.713
7100.233
6866.046
6657.837
6509.978
6378.832
6248.145
6118.556
5992.394
5883.839
5789.026
5713.759
5674.298
5665.959
5689.399
5738.256
5805.774
5889.572
5987.746
6106.948
6242.928
6394.1
6547.077
6695.394
6830.342
6947.009
7043.439
7118.575
7173.866
7208.942
7228.599
7234.725
7230.047
7218.496
7217.914
7219.167
7203.251
7174.517
7149.658
7134.264
7122.219
7094.733
7067.443
7040.736
7001.97
6959.277
6927.066
6890.284
6846.807
6807.645
6772.083
6736.179
6698.826
6663.259
6633.283
6611.332
6597.134
6588.138
6571.954
6561.755
6553.35
6538.428
6529.546
6527.832
6533.555
6548.886
6577.142
6619.501
6673.593
6736.601
6804.736
6873.904
6943.636
7012.137
7077.478
7138.226
7192.887
7240.24
7279.864
7311.747
7336.569
7355.31
7369.628
7381.09
7390.625
7398.793
7406.247
7413.533
7420.89
7428.164
7435.431
7442.745
7450.623
7459.357
7469.131
7479.893
7491.386
7503.271
7515.349
7527.35
7539.058
7550.571
7561.64
7572.4
7582.629
7591.458
7598.338
7603.932
7608.868
7613.628
7618.352
7622.968
7627.34
7631.553
7635.845
7640.349
7645.172
7650.467
7656.792
7663.697
7670.891
7678.418
7686.117
7694.096
7702.424
7710.944
7719.512
7728.046
7736.437
7744.598
7752.375
7759.705
7766.522
7772.765
7778.532
7783.727
7788.486
7792.783
7796.472
7799.639
7802.144
7803.841
7804.676
7804.478
7803.296
7801.162
7797.943
7793.779
7789.232
7784.995
7781.748
7779.948
7779.59
7780.675
7783.176
7786.672
7790.962
7795.574
7800.206
7805.006
7809.792
7814.487
7819.181
7823.582
7827.609
7831.255
7834.384
7837.044
7839.26
7841.074
7842.579
7843.978
7845.353
7846.76
7848.152
7849.356
7850.416
7851.558
7852.877
7854.276
7855.539
7856.632
7857.729
7858.872
7859.987
7860.956
7861.739
7862.4
7862.928
7863.241
7863.327
7863.149
7862.678
7861.741
7860.324
7858.235
7855.554
7852.368
7849.451
7846.81
7845.702
7845.679
7846.399
7847.406
7848.394
7849.105
7849.529
7849.957
7850.131
7849.662
7849.327
7848.844
7847.779
7846.217
7844.52
7842.576
7840.865
7839.069
7836.905
7834.303
7831.522
7828.877
7826.505
7824.049
7821.47
7818.35
7815.335
7812.741
7810.42
7808.051
7805.381
7802.634
7800.324
7798.368
7796.363
7794.287
7792.277
7790.642
7789.086
7787.371
7785.609
7784.041
7782.126
7779.57
7776.401
7772.409
7768.682
7765.398
7761.985
7758.814
7757.37
7757.93
7759.048
7762.014
7765.558
7769.504
7773.528
7777.646
7782.349
7787.515
7792.908
7798.281
7803.693
7809.394
7815.284
7821.38
7827.522
7833.698
7840.003
7846.424
7852.989
7859.23
7865.846
7872.554
7879.536
7886.526
7893.119
7899.491
7906.18
7913.05
7919.983
7926.12
7932.679
7939.332
7946.055
7952.727
7959.398
7966.085
7972.385
7978.325
7984.305
7990.481
7996.886
8003.383
8009.783
8015.993
8022.015
8027.89
8033.637
8039.256
8044.732
8050.184
8055.752
8061.291
8066.595
8071.562
8076.178
8080.542
8084.847
8089.105
8093.267
8097.191
8100.44
8102.502
8102.851
8101.849
8100.306
8099.271
8098.878
8099.062
8099.356
8099.907
8100.625
8100.405
8100.411
8099.62
8098.671
8097.812
8097.079
8095.86
8093.069
8089.098
8085.378
8081.362
8075.581
8068.684
8062.015
8055.478
8048.097
8039.56
8029.872
8019.04
8007.143
7994.433
7981.279
7967.975
7954.566
7940.726
7926.265
7910.842
7894.305
7876.776
7858.583
7839.842
7820.431
7800.182
7779.102
7757.388
7734.886
7711.81
7688.22
7664.159
7639.308
7613.773
7587.587
7560.728
7533.182
7504.705
7474.996
7443.644
7410.557
7380.013
7351.507
7320.811
7288.821
7259.079
7227.805
7197.235
7167.997
7139.403
7110.013
7079.486
7048.583
7018.219
6989.048
6958.98
6929.04
6900.647
6871.14
6842.275
6814.003
6788.377
6762.049
6734.357
6707.593
6680.282
6653.031
6627.621
6601.78
6577.128
6554.608
6530.083
6507.237
6482.319
6458.993
6437.053
6415.115
6393.6
6372.814
6353.162
6334.978
6316.081
6296.159
6276.399
6257.829
6240.223
6223.049
6206.157
6189.888
6173.855
6158.245
6143.181
6129.146
6116.608
6103.908
6091.465
6078.784
6066.605
6055.715
6044.793
6034.06
6023.563
6013.759
6004.39
5995.629
5987.515
5979.683
5972.004
5964.762
5958.539
5952.654
5946.927
5941.589
5936.656
5932.24
5928.394
5924.837
5921.56
5918.506
5915.713
5913.215
5910.982
5908.928
5906.931
5904.988
5903.597
5514.077
5512.2
5504.021
5493.33
5478.575
5466.38
5454.514
5438.94
5415.406
5396.237
5350.506
5293.755
5233.493
5170.594
5185.01
5310.56
5499.441
5629.081
5773.781
6133.871
6405.572
6692.111
6922.523
7077.587
7206.103
7352.36
7463.344
7505.919
7549.983
7555.135
7524.743
7475.901
7394.917
7259.347
7075.512
6843.492
6640.764
6488.99
6356.896
6227.017
6096.449
5968.993
5850.896
5739.686
5653.967
5605.421
5598.944
5625.839
5675.559
5740.313
5817.525
5911.894
6025.965
6163.667
6318.447
6480.596
6638.174
6785.415
6912.593
7017.526
7095.075
7148.834
7184.659
7207.562
7217.66
7218.854
7202.295
7190.989
7190.348
7183.161
7171.414
7153.994
7129.239
7106.338
7077.493
7046.861
7018.679
6989.715
6955.883
6919.798
6880.976
6839.447
6798.45
6759.147
6720.043
6681.428
6645.605
6615.296
6592.479
6577.139
6567.326
6558.924
6552.257
6546.201
6538.862
6532.875
6534.191
6543.883
6562.767
6593.365
6635.338
6685.72
6745.751
6811.132
6878.918
6946.493
7012.769
7076.028
7133.801
7185.313
7230.412
7268.613
7299.951
7324.945
7344.507
7359.821
7372.062
7382.164
7390.732
7398.448
7405.937
7413.575
7421.428
7429.438
7437.693
7446.375
7455.635
7465.555
7476.26
7487.593
7499.382
7511.473
7523.656
7535.588
7547.112
7558.09
7568.47
7578.151
7587.153
7595.011
7601.666
7607.517
7612.784
7617.615
7622.211
7626.616
7630.96
7635.402
7640.024
7644.943
7650.258
7656.312
7663.169
7670.521
7678.136
7685.865
7693.666
7701.661
7709.843
7718.12
7726.414
7734.635
7742.672
7750.432
7757.78
7764.566
7770.813
7776.509
7781.6
7786.173
7790.213
7793.721
7796.731
7799.152
7800.877
7801.807
7801.902
7801.167
7799.645
7797.358
7794.413
7791.047
7787.837
7785.324
7783.812
7783.478
7784.394
7786.358
7789.179
7792.784
7796.879
7801.198
7805.747
7810.046
7814.007
7818.026
7822.082
7825.923
7829.423
7832.53
7835.071
7837.061
7838.752
7840.291
7841.769
7843.256
7844.704
7846.132
7847.502
7848.762
7849.982
7851.32
7852.782
7854.139
7855.288
7856.382
7857.548
7858.738
7859.822
7860.749
7861.5
7862.057
7862.473
7862.635
7862.574
7862.263
7861.598
7860.824
7859.915
7859.041
7857.811
7856.136
7854.649
7853.061
7852.102
7851.609
7851.528
7851.575
7851.588
7851.54
7851.511
7851.151
7850.261
7849.463
7848.506
7847.098
7845.537
7843.666
7841.872
7839.971
7838.101
7835.954
7833.368
7830.684
7828.196
7825.966
7823.423
7820.674
7817.782
7814.945
7812.165
7809.596
7807.223
7804.613
7801.895
7799.506
7797.365
7795.004
7792.666
7790.529
7788.593
7786.689
7784.73
7782.72
7780.598
7778.434
7775.904
7772.631
7769.286
7766.237
7763.533
7761.062
7759.21
7758.427
7759.182
7761.286
7763.496
7766.541
7770.06
7773.856
7777.763
7781.903
7786.581
7791.831
7797.306
7802.796
7808.442
7814.149
7820.089
7826.292
7832.618
7839.026
7845.571
7852.047
7858.612
7865.216
7872.003
7879.101
7886.404
7892.851
7899.134
7906.088
7913.768
7921.387
7927.349
7933.324
7939.857
7946.943
7953.687
7960.288
7967.024
7973.212
7979.045
7985.062
7991.442
7998.089
8004.618
8010.903
8016.906
8022.806
8028.614
8034.351
8039.965
8045.506
8051.02
8056.522
8061.961
8067.128
8071.957
8076.428
8080.74
8085.015
8089.244
8093.352
8097.137
8100.337
8102.941
8105.314
8107.976
8111.143
8113.908
8115.68
8116.526
8116.805
8116.936
8117.656
8119.109
8119.826
8119.977
8118.487
8115.712
8111.643
8107.418
8103.064
8098.568
8093.598
8087.607
8080.539
8072.739
8065.554
8058.918
8052.366
8044.663
8035.33
8024.462
8012.298
7999.298
7985.905
7972.456
7958.989
7945.13
7930.537
7914.957
7898.231
7880.414
7861.921
7842.887
7823.275
7802.82
7781.564
7759.601
7736.991
7713.659
7689.755
7665.217
7640.094
7614.178
7587.758
7560.625
7532.936
7504.463
7474.995
7443.79
7410.856
7380.907
7352.531
7323.535
7291.149
7261.709
7229.799
7198.53
7168.65
7140.973
7111.672
7081.047
7049.89
7020.057
6991.1
6961.055
6929.54
6899.817
6870.069
6841.187
6813.156
6786.648
6759.683
6731.815
6704.708
6677.394
6650.572
6624.801
6599.432
6574.812
6551.473
6527.347
6503.773
6479.467
6456.115
6433.759
6411.841
6390.399
6369.616
6349.711
6331.482
6313.25
6293.867
6274.289
6256.012
6238.227
6220.83
6203.961
6187.601
6171.254
6155.968
6140.714
6126.342
6113.859
6101.297
6088.219
6075.304
6063.075
6051.981
6041.238
6030.58
6020.413
6010.769
6001.439
5992.901
5984.806
5976.909
5968.835
5961.786
5955.798
5949.896
5943.988
5938.512
5933.496
5929.135
5925.196
5921.397
5917.954
5914.803
5911.973
5909.518
5907.394
5905.531
5903.767
5902.094
5900.964
5515.41
5516.554
5508.101
5495.27
5480.101
5466.409
5453.726
5442.66
5426.728
5401.427
5347.779
5255.074
5144.057
5039.252
4975.17
5071.191
5356.986
5519.225
5659.215
6027.967
6402.397
6659.315
6836.047
6985.828
7191.993
7369.515
7456.968
7507.499
7549.927
7556.144
7516.809
7463.395
7412.226
7254.977
7038.025
6821.411
6632.451
6477.254
6344.324
6210.904
6079.201
5954.029
5832.44
5719.063
5625.976
5575.58
5565.009
5589.138
5635.653
5694.769
5763.064
5843.951
5948.417
6083.29
6239.574
6403.359
6565.662
6719.987
6855.999
6966.813
7044.936
7099.225
7135.575
7162.193
7174.055
7184.278
7193.206
7178.378
7166.55
7166.128
7164.602
7146.077
7100.394
7055.579
7028.027
7007.062
6988.468
6968.197
6940.987
6906.624
6868.277
6828.107
6787.969
6749
6711.42
6675.258
6642.008
6613.759
6592.19
6577.057
6567.542
6560.767
6554.879
6550.336
6548.486
6549.899