/*--------------------------------*- C++ -*----------------------------------*\
| =========                 |                                                 |
| \\      /  F ield         | foam-extend: Open Source CFD                    |
|  \\    /   O peration     | Version:     3.1                                |
|   \\  /    A nd           | Web:         http://www.extend-project.de       |
|    \\/     M anipulation  |                                                 |
\*---------------------------------------------------------------------------*/
FoamFile
{
    version     2.0;
    format      ascii;
    class       volScalarField;
    location    "24";
    object      alpha;
}
// * * * * * * * * * * * * * * * * * * * * * * * * * * * * * * * * * * * * * //

dimensions      [0 0 -1 0 0 0 0];

internalField   nonuniform List<scalar> 
2539
(
0.00548363
0.00549259
0.00550662
0.00552048
0.00553441
0.00554839
0.00556242
0.00557651
0.00559065
0.00560484
0.00561909
0.0056334
0.00564776
0.00566218
0.00567666
0.00569119
0.00570577
0.00572042
0.00573512
0.00574988
0.0057647
0.00577958
0.00579451
0.00580951
0.00582456
0.00583967
0.00585485
0.00587008
0.00588538
0.00590073
0.00591615
0.00593163
0.00594717
0.00596278
0.00597844
0.00599417
0.00600997
0.00602582
0.00604175
0.00605773
0.00607378
0.0060899
0.00610608
0.00612233
0.00613865
0.00615503
0.00617148
0.006188
0.00620458
0.00622124
0.00623796
0.00625475
0.00627162
0.00628855
0.00630555
0.00632262
0.00633977
0.00635699
0.00637427
0.00639164
0.00640907
0.00642658
0.00644416
0.00646182
0.00647955
0.00649736
0.00651524
0.0065332
0.00655123
0.00656935
0.00658754
0.00660581
0.00662415
0.00664258
0.00666109
0.00667967
0.00669834
0.00671708
0.00673591
0.00675482
0.00677382
0.0067929
0.00681206
0.0068313
0.00685063
0.00687004
0.00688954
0.00690913
0.0069288
0.00694856
0.00696841
0.00698835
0.00700837
0.00702849
0.00704869
0.00706899
0.00708938
0.00710986
0.00713043
0.0071511
0.00717186
0.00719271
0.00721366
0.0072347
0.00725584
0.00727708
0.00729842
0.00731985
0.00734138
0.00736301
0.00738474
0.00740658
0.00742851
0.00745055
0.00747269
0.00749493
0.00751727
0.00753973
0.00756228
0.00758495
0.00760772
0.0076306
0.00765359
0.00767668
0.00769989
0.00772321
0.00774664
0.00777018
0.00779383
0.0078176
0.00784149
0.00786549
0.0078896
0.00791384
0.00793819
0.00796266
0.00798725
0.00801196
0.00803679
0.00806175
0.00808682
0.00811203
0.00813735
0.00816281
0.00818839
0.0082141
0.00823993
0.0082659
0.008292
0.00831822
0.00834459
0.00837108
0.00839771
0.00842447
0.00845138
0.00847842
0.00850559
0.00853291
0.00856037
0.00858797
0.00861571
0.0086436
0.00867163
0.00869981
0.00872814
0.00875661
0.00878524
0.00881401
0.00884294
0.00887202
0.00890125
0.00893064
0.00896019
0.0089899
0.00901976
0.00904979
0.00907997
0.00911032
0.00914084
0.00917152
0.00920237
0.00923338
0.00926457
0.00929593
0.00933163
0.00416723
0.00418148
0.00418618
0.00419039
0.00419457
0.00419876
0.00420296
0.00420717
0.00421138
0.0042156
0.00421982
0.00422406
0.0042283
0.00423254
0.0042368
0.00424106
0.00424533
0.0042496
0.00425388
0.00425817
0.00426247
0.00426677
0.00427108
0.0042754
0.00427972
0.00428406
0.00428839
0.00429274
0.00429709
0.00430146
0.00430582
0.0043102
0.00431458
0.00431897
0.00432337
0.00432777
0.00433219
0.00433661
0.00434103
0.00434547
0.00434991
0.00435436
0.00435882
0.00436328
0.00436775
0.00437223
0.00437672
0.00438121
0.00438572
0.00439023
0.00439475
0.00439927
0.0044038
0.00440834
0.00441289
0.00441745
0.00442201
0.00442659
0.00443117
0.00443575
0.00444035
0.00444495
0.00444956
0.00445418
0.00445881
0.00446345
0.00446809
0.00447274
0.0044774
0.00448207
0.00448674
0.00449142
0.00449612
0.00450082
0.00450552
0.00451024
0.00451496
0.0045197
0.00452444
0.00452919
0.00453394
0.00453871
0.00454348
0.00454826
0.00455306
0.00455785
0.00456266
0.00456748
0.0045723
0.00457713
0.00458198
0.00458683
0.00459168
0.00459655
0.00460143
0.00460631
0.0046112
0.00461611
0.00462102
0.00462594
0.00463086
0.0046358
0.00464074
0.0046457
0.00465066
0.00465563
0.00466061
0.0046656
0.0046706
0.00467561
0.00468063
0.00468565
0.00469069
0.00469573
0.00470078
0.00470585
0.00471092
0.004716
0.00472109
0.00472618
0.00473129
0.00473641
0.00474154
0.00474667
0.00475182
0.00475697
0.00476214
0.00476731
0.00477249
0.00477768
0.00478289
0.0047881
0.00479332
0.00479855
0.00480379
0.00480904
0.0048143
0.00481957
0.00482484
0.00483013
0.00483543
0.00484074
0.00484606
0.00485138
0.00485672
0.00486207
0.00486743
0.00487279
0.00487817
0.00488356
0.00488896
0.00489436
0.00489978
0.00490521
0.00491065
0.0049161
0.00492156
0.00492702
0.0049325
0.00493799
0.00494349
0.004949
0.00495452
0.00496005
0.0049656
0.00497115
0.00497671
0.00498228
0.00498787
0.00499346
0.00499907
0.00500468
0.00501031
0.00501595
0.00502159
0.00502725
0.00503292
0.0050386
0.0050443
0.00505
0.00505571
0.00506144
0.00506717
0.00507292
0.00507868
0.00508444
0.00509022
0.00509602
0.00510182
0.00510763
0.00511346
0.00511929
0.00512514
0.005131
0.00513687
0.00514275
0.00514865
0.0051545
0.00516161
0.00514348
0.00268791
0.00301434
0.00344102
0.00372703
0.00392059
0.00406452
0.00418094
0.00428136
0.00437191
0.00445598
0.00453555
0.00461183
0.00468558
0.00475732
0.00482743
0.00489619
0.0049638
0.00503043
0.00509621
0.00516127
0.0052257
0.00528958
0.00535297
0.00541595
0.00547857
0.00554087
0.0056029
0.0056647
0.0057263
0.00578774
0.00584905
0.00591025
0.00597138
0.00603244
0.00609347
0.00615449
0.00621551
0.00627656
0.00633765
0.0063988
0.00646002
0.00652133
0.00658274
0.00664428
0.00670595
0.00676776
0.00682973
0.00689188
0.00695421
0.00701674
0.00707948
0.00714244
0.00720564
0.0072691
0.00733281
0.0073968
0.00746108
0.00752567
0.00759058
0.00765582
0.00772141
0.00778736
0.0078537
0.00792044
0.0079876
0.0080552
0.00812326
0.00819181
0.00826087
0.00833047
0.00840064
0.00847141
0.00854282
0.00861491
0.00868772
0.0087613
0.00883571
0.00891101
0.00898728
0.0090646
0.00914306
0.00922279
0.00930393
0.00938662
0.00947109
0.00955756
0.00964636
0.00973785
0.00983252
0.009931
0.0100341
0.0101428
0.0102584
0.0103827
0.0105176
0.0106658
0.0108301
0.0110138
0.0112198
0.01145
0.0120842
0.0123778
0.0126563
0.012922
0.0131766
0.0134215
0.0136579
0.0138868
0.0141089
0.014325
0.0145355
0.0147411
0.0149422
0.015139
0.0153321
0.0155216
0.0157078
0.0158909
0.0160712
0.0162488
0.016424
0.0165968
0.0167673
0.0169358
0.0171024
0.017267
0.0174299
0.0175911
0.0177507
0.0179088
0.0180655
0.0182207
0.0183747
0.0185273
0.0186788
0.018829
0.0189782
0.0191262
0.0192733
0.0194193
0.0195644
0.0197085
0.0198518
0.0199942
0.0201357
0.0202765
0.0204164
0.0205556
0.0206941
0.0208318
0.0209689
0.0211052
0.021241
0.0213761
0.0215106
0.0216444
0.0217777
0.0219105
0.0220426
0.0221743
0.0223054
0.022436
0.0225661
0.0226957
0.0228248
0.0229535
0.0230817
0.0232094
0.0233368
0.0234637
0.0235902
0.0237163
0.0238419
0.0239672
0.0240922
0.0242167
0.0243409
0.0244647
0.0245881
0.0247113
0.024834
0.0249565
0.0250786
0.0252004
0.0253219
0.025443
0.0255639
0.0256845
0.0258047
0.0259247
0.0260444
0.0261638
0.0262829
0.0264017
0.0265205
0.0266397
0.0267595
0.0268786
0.0269927
0.0270938
0.0271783
0.0272546
0.0273308
0.0274069
0.0274829
0.0275588
0.0276346
0.0277103
0.0277858
0.0278613
0.0279366
0.0280119
0.028087
0.0281621
0.028237
0.0283118
0.0283865
0.0284612
0.0285357
0.0286101
0.0286845
0.0287587
0.0288328
0.0289069
0.0289808
0.0290547
0.0291284
0.0292021
0.0292757
0.0293491
0.0294225
0.0294958
0.029569
0.0296421
0.0297152
0.0297881
0.029861
0.0299338
0.0300064
0.030079
0.0301516
0.030224
0.0302963
0.0303686
0.0304408
0.0305129
0.0305849
0.0306568
0.0307287
0.0308005
0.0308722
0.0309438
0.0310153
0.0310868
0.0311582
0.0312295
0.0313007
0.0313719
0.031443
0.031514
0.0315849
0.0316558
0.0317265
0.0317973
0.0318679
0.0319385
0.032009
0.0320794
0.0321497
0.03222
0.0322902
0.0323604
0.0324304
0.0325004
0.0325704
0.0326402
0.03271
0.0327798
0.0328494
0.032919
0.0329885
0.033058
0.0331274
0.0331967
0.033266
0.0333352
0.0334043
0.0334734
0.0335424
0.0336113
0.0336802
0.033749
0.0338178
0.0338865
0.0339551
0.0340237
0.0340922
0.0341606
0.034229
0.0342973
0.0343656
0.0344338
0.0345019
0.03457
0.034638
0.034706
0.0347739
0.0348417
0.0349095
0.0349772
0.0350449
0.0351125
0.0351801
0.0352476
0.035315
0.0353824
0.0354497
0.035517
0.0355842
0.0356513
0.0357184
0.0357855
0.0358525
0.0359194
0.0359863
0.0360531
0.0361199
0.0361866
0.0362533
0.0363199
0.0363864
0.0364529
0.0365194
0.0365858
0.0366521
0.0367184
0.0367847
0.0368508
0.036917
0.0369831
0.0370491
0.0371151
0.037181
0.0372469
0.0373127
0.0373785
0.0374442
0.0375099
0.0375755
0.0376411
0.0377066
0.037772
0.0378375
0.0379028
0.0379682
0.0380334
0.0380987
0.0381638
0.038229
0.0382941
0.0383591
0.0384241
0.038489
0.0385539
0.0386187
0.0386835
0.0387483
0.0388129
0.0388776
0.0389422
0.0390068
0.0390713
0.0391357
0.0392001
0.0392645
0.0393288
0.0393931
0.0394573
0.0395215
0.0395856
0.0396497
0.0397138
0.0397778
0.0398417
0.0399056
0.0399695
0.0400333
0.0400971
0.0401608
0.0402245
0.0402881
0.0403517
0.0404153
0.0404788
0.0405422
0.0406057
0.040669
0.0407324
0.0407957
0.0408589
0.0409221
0.0409853
0.0410484
0.0411114
0.0411745
0.0412374
0.0413004
0.0413633
0.0414261
0.0414889
0.0415517
0.0416144
0.0416771
0.0417398
0.0418024
0.0418649
0.0419274
0.0419899
0.0420523
0.0421147
0.0421771
0.0422394
0.0423017
0.0423639
0.0424261
0.0424882
0.0425503
0.0426124
0.0426744
0.0427364
0.0427983
0.0428602
0.0429221
0.0429839
0.0430456
0.0431074
0.0431691
0.0432307
0.0432923
0.0433539
0.0434154
0.0434769
0.0435384
0.0435998
0.0436612
0.0437225
0.0437838
0.0438451
0.0439063
0.0439675
0.0440286
0.0440897
0.0441508
0.0442118
0.0442728
0.0443337
0.0443946
0.0444555
0.0445163
0.0445771
0.0446378
0.0446985
0.0447592
0.0448198
0.0448804
0.044941
0.0450015
0.045062
0.0451224
0.0451828
0.0452432
0.0453035
0.0453638
0.0454241
0.0454843
0.0455445
0.0456046
0.0456647
0.0457248
0.0457848
0.0458448
0.0459047
0.0459647
0.0460245
0.0460844
0.0461442
0.0462039
0.0462637
0.0463234
0.046383
0.0464426
0.0465022
0.0465618
0.0466213
0.0466807
0.0467402
0.0467996
0.0468589
0.0469183
0.0469775
0.0470368
0.047096
0.0471552
0.0472143
0.0472734
0.0473325
0.0473915
0.0474505
0.0475095
0.0475684
0.0476273
0.0476862
0.047745
0.0478038
0.0478625
0.0479212
0.0479799
0.0480386
0.0480972
0.0481557
0.0482143
0.0482728
0.0483312
0.0483897
0.0484481
0.0485064
0.0485647
0.048623
0.0486813
0.0487395
0.0487977
0.0488558
0.0489139
0.048972
0.04903
0.0490881
0.049146
0.049204
0.0492619
0.0493197
0.0493776
0.0494354
0.0494931
0.0495509
0.0496087
0.0496665
0.0497237
0.0497797
0.0498356
0.0498962
0.0499669
0.0500435
0.05012
0.0501965
0.050273
0.0503494
0.0504257
0.0505021
0.0505783
0.0506545
0.0507307
0.0508068
0.0508829
0.050959
0.0510349
0.0511109
0.0511868
0.0512626
0.0513384
0.0514142
0.0514899
0.0515656
0.0516412
0.0517168
0.0517923
0.0518678
0.0519432
0.0520186
0.0520939
0.0521692
0.0522445
0.0523197
0.0523949
0.05247
0.0525451
0.0526201
0.0526951
0.05277
0.0528449
0.0529198
0.0529946
0.0530693
0.0531441
0.0532187
0.0532933
0.0533679
0.0534425
0.053517
0.0535914
0.0536658
0.0537402
0.0538145
0.0538888
0.053963
0.0540372
0.0541113
0.0541854
0.0542594
0.0543335
0.0544074
0.0544813
0.0545552
0.054629
0.0547028
0.0547766
0.0548503
0.0549239
0.0549975
0.0550711
0.0551446
0.0552181
0.0552916
0.055365
0.0554383
0.0555116
0.0555849
0.0556581
0.0557313
0.0558044
0.0558775
0.0559506
0.0560236
0.0560965
0.0561694
0.0562423
0.0563152
0.056388
0.0564607
0.0565334
0.0566061
0.0566787
0.0567513
0.0568238
0.0568963
0.0569688
0.0570412
0.0571135
0.0571859
0.0572581
0.0573304
0.0574026
0.0574747
0.0575468
0.0576189
0.0576909
0.0577629
0.0578349
0.0579068
0.0579786
0.0580504
0.0581222
0.0581939
0.0582656
0.0583373
0.0584089
0.0584804
0.058552
0.0586235
0.0586949
0.0587663
0.0588376
0.058909
0.0589802
0.0590515
0.0591227
0.0591938
0.0592649
0.059336
0.059407
0.059478
0.0595489
0.0596198
0.0596907
0.0597615
0.0598323
0.059903
0.0599737
0.0600443
0.0601149
0.0601855
0.060256
0.0603265
0.060397
0.0604674
0.0605377
0.0606081
0.0606783
0.0607486
0.0608188
0.0608889
0.060959
0.0610291
0.0610992
0.0611691
0.0612391
0.061309
0.0613789
0.0614487
0.0615185
0.0615882
0.061658
0.0617276
0.0617972
0.0618668
0.0619364
0.0620059
0.0620753
0.0621448
0.0622141
0.0622835
0.0623529
0.0624222
0.0624912
0.0625593
0.0626275
0.0626993
0.0627796
0.0628621
0.0629076
0.0926821
0.0925764
0.0925419
0.0925737
0.092598
0.0926207
0.0926412
0.0926539
0.0926554
0.0926493
0.0926412
0.0926313
0.0926148
0.0925889
0.0925561
0.0925189
0.0924754
0.092426
0.0923697
0.0923061
0.0922383
0.0921651
0.0920881
0.092006
0.0919159
0.0918178
0.0917126
0.091602
0.0914873
0.0913675
0.0912394
0.0911039
0.0909626
0.0908171
0.0906675
0.0905122
0.090352
0.0901855
0.0900105
0.0898301
0.0896461
0.0894538
0.0892528
0.0890475
0.0888377
0.0886223
0.0884024
0.0881775
0.0879455
0.0877081
0.0874667
0.0872201
0.0869654
0.0867033
0.0864351
0.0861627
0.0858861
0.0856043
0.0853184
0.085027
0.0847273
0.0844199
0.0841067
0.0837901
0.083471
0.0831478
0.0828193
0.0824828
0.082139
0.0817892
0.0814349
0.0810759
0.0807109
0.0803417
0.0799685
0.07959
0.0792074
0.0788192
0.078422
0.0780164
0.0776046
0.0771902
0.0767759
0.0763612
0.0759459
0.0755275
0.075095
0.0746332
0.0741381
0.0736301
0.0731621
0.0728042
0.0725901
0.0724254
0.0720291
0.0710187
0.0692219
0.067118
0.0660521
0.0679661
0.0745124
0.0572847
0.0653769
0.0654462
0.0655154
0.0655846
0.0656538
0.0657229
0.065792
0.065861
0.06593
0.065999
0.0660679
0.0661367
0.0662056
0.0662744
0.0663431
0.0664118
0.0664805
0.0665491
0.0666177
0.0666863
0.0667548
0.0668233
0.0668917
0.0669601
0.0670285
0.0670968
0.067165
0.0672333
0.0673015
0.0673696
0.0674377
0.0675058
0.0675738
0.0676418
0.0677098
0.0677777
0.0678456
0.0679134
0.0679812
0.0680489
0.0681167
0.0681843
0.068252
0.0683196
0.0683871
0.0684546
0.0685221
0.0685895
0.0686569
0.0687243
0.0687916
0.0688589
0.0689261
0.0689933
0.0690605
0.0691276
0.0691947
0.0692617
0.0693287
0.0693957
0.0694626
0.0695295
0.0695963
0.0696631
0.0697299
0.0697966
0.0698633
0.06993
0.0699966
0.0700631
0.0701297
0.0701961
0.0702626
0.070329
0.0703954
0.0704617
0.070528
0.0705942
0.0706605
0.0707267
0.0707928
0.0708588
0.0709245
0.0709902
0.0710576
0.0711281
0.0711975
0.0712486
0.0712645
0.0712607
0.0712569
0.0712531
0.0712493
0.0712455
0.0712417
0.0712379
0.0712342
0.0712304
0.0712266
0.0712228
0.071219
0.0712152
0.0712115
0.0712077
0.0712039
0.0712001
0.0711964
0.0711926
0.0711889
0.0711851
0.0711813
0.0711776
0.0711738
0.0711701
0.0711663
0.0711626
0.0711588
0.0711551
0.0711514
0.0711476
0.0711439
0.0711401
0.0711364
0.0711327
0.071129
0.0711252
0.0711215
0.0711178
0.0711141
0.0711104
0.0711067
0.071103
0.0710992
0.0710955
0.0710918
0.0710881
0.0710844
0.0710807
0.0710771
0.0710734
0.0710697
0.071066
0.0710623
0.0710586
0.0710549
0.0710513
0.0710476
0.0710439
0.0710402
0.0710366
0.0710329
0.0710293
0.0710256
0.0710219
0.0710183
0.0710146
0.071011
0.0710073
0.0710037
0.071
0.0709964
0.0709927
0.0709891
0.0709855
0.0709818
0.0709782
0.0709746
0.0709709
0.0709673
0.0709637
0.0709601
0.0709565
0.0709528
0.0709492
0.0709456
0.070942
0.0709384
0.0709348
0.0709312
0.0709276
0.070924
0.0709204
0.0709168
0.0709132
0.0709096
0.070906
0.0709025
0.0708989
0.0708953
0.0708917
0.0708881
0.0708846
0.070881
0.0708774
0.0708739
0.0708703
0.0708667
0.0708632
0.0708596
0.0708561
0.0708525
0.070849
0.0708454
0.0708419
0.0708383
0.0708348
0.0708312
0.0708277
0.0708242
0.0708206
0.0708171
0.0708136
0.07081
0.0708065
0.070803
0.0707995
0.0707959
0.0707924
0.0707889
0.0707854
0.0707819
0.0707784
0.0707749
0.0707714
0.0707679
0.0707644
0.0707609
0.0707574
0.0707539
0.0707504
0.0707469
0.0707434
0.0707399
0.0707365
0.070733
0.0707295
0.070726
0.0707225
0.0707191
0.0707156
0.0707121
0.0707087
0.0707052
0.0707018
0.0706983
0.0706948
0.0706914
0.0706879
0.0706845
0.070681
0.0706776
0.0706741
0.0706707
0.0706673
0.0706638
0.0706604
0.070657
0.0706535
0.0706501
0.0706467
0.0706433
0.0706398
0.0706364
0.070633
0.0706296
0.0706262
0.0706228
0.0706193
0.0706159
0.0706125
0.0706091
0.0706057
0.0706023
0.0705989
0.0705955
0.0705921
0.0705888
0.0705854
0.070582
0.0705786
0.0705752
0.0705718
0.0705685
0.0705651
0.0705617
0.0705583
0.070555
0.0705516
0.0705482
0.0705449
0.0705415
0.0705381
0.0705348
0.0705314
0.0705281
0.0705247
0.0705214
0.070518
0.0705147
0.0705114
0.070508
0.0705047
0.0705013
0.070498
0.0704947
0.0704913
0.070488
0.0704847
0.0704814
0.070478
0.0704747
0.0704714
0.0704681
0.0704648
0.0704615
0.0704582
0.0704548
0.0704515
0.0704482
0.0704449
0.0704416
0.0704383
0.070435
0.0704317
0.0704285
0.0704252
0.0704219
0.0704186
0.0704153
0.070412
0.0704088
0.0704055
0.0704022
0.0703989
0.0703957
0.0703924
0.0703891
0.0703859
0.0703826
0.0703793
0.0703761
0.0703728
0.0703696
0.0703663
0.0703631
0.0703598
0.0703566
0.0703533
0.0703501
0.0703468
0.0703436
0.0703403
0.0703371
0.0703338
0.0703307
0.0703278
0.0703247
0.0703203
0.0703137
0.0703085
0.0703179
0.070355
0.0703812
0.0702372
0.0697529
0.0693474
0.0709111
0.0770383
0.0831839
0.0663641
0.0267841
0.0062309
0.00248331
0.00217591
0.00217004
0.00216753
0.00216501
0.00216249
0.00215997
0.00215746
0.00215495
0.00215245
0.00214995
0.00214745
0.00214496
0.00214246
0.00213998
0.00213749
0.00213502
0.00213299
0.00213207
0.00213187
0.00213167
0.00213147
0.00213126
0.00213105
0.00213084
0.00213063
0.00213042
0.0021302
0.00212999
0.00212977
0.00212955
0.00212932
0.0021291
0.00212887
0.00212864
0.00212841
0.00212817
0.00212793
0.00212769
0.00212745
0.00212721
0.00212696
0.00212671
0.00212646
0.0021262
0.00212594
0.00212568
0.00212542
0.00212515
0.00212488
0.0021246
0.00212433
0.00212405
0.00212377
0.00212348
0.00212319
0.0021229
0.0021226
0.0021223
0.002122
0.0021217
0.00212139
0.00212108
0.00212076
0.00212044
0.00212012
0.0021198
0.00211947
0.00211914
0.0021188
0.00211846
0.00211812
0.00211777
0.00211743
0.00211708
0.00211672
0.00211636
0.002116
0.00211564
0.00211527
0.0021149
0.00211453
0.00211416
0.00211378
0.0021134
0.00211302
0.00211263
0.00211224
0.00211185
0.00211146
0.00211107
0.00211067
0.00211027
0.00210987
0.00210947
0.00210907
0.00210867
0.00210826
0.00210785
0.00210744
0.00210704
0.00210663
0.00210621
0.0021058
0.00210539
0.00210498
0.00210457
0.00210415
0.00210374
0.00210333
0.00210291
0.0021025
0.00210209
0.00210168
0.00210127
0.00210086
0.00210045
0.00210004
0.00209963
0.00209922
0.00209882
0.00209842
0.00209801
0.00209761
0.00209722
0.00209682
0.00209642
0.00209603
0.00209564
0.00209525
0.00209486
0.00209448
0.0020941
0.00209372
0.00209334
0.00209297
0.00209259
0.00209222
0.00209186
0.00209149
0.00209113
0.00209077
0.00209042
0.00209006
0.00208971
0.00208936
0.00208902
0.00208868
0.00208834
0.002088
0.00208767
0.00208734
0.00208701
0.00208668
0.00208636
0.00208604
0.00208573
0.00208541
0.0020851
0.0020848
0.00208449
0.00208419
0.00208389
0.00208359
0.0020833
0.00208301
0.00208272
0.00208243
0.00208215
0.00208186
0.00208159
0.00208131
0.00208104
0.00208076
0.00208049
0.00208023
0.00207996
0.0020797
0.00207944
0.00207918
0.00207892
0.00207867
0.00207842
0.00207817
0.00207792
0.00207767
0.00207743
0.00207719
0.00207695
0.00207671
0.00207647
0.00207623
0.002076
0.00207577
0.00207554
0.00207531
0.00207508
0.00207485
0.00207463
0.0020744
0.00207418
0.00207396
0.00207374
0.00207352
0.0020733
0.00207309
0.00207287
0.00207266
0.00207245
0.00207223
0.00207202
0.00207181
0.00207161
0.0020714
0.00207119
0.00207099
0.00207078
0.00207058
0.00207037
0.00207017
0.00206997
0.00206977
0.00206957
0.00206937
0.00206917
0.00206898
0.00206878
0.00206859
0.00206839
0.0020682
0.002068
0.00206781
0.00206762
0.00206742
0.00206723
0.00206704
0.00206685
0.00206666
0.00206647
0.00206628
0.0020661
0.00206591
0.00206572
0.00206553
0.00206535
0.00206516
0.00206498
0.00206479
0.00206461
0.00206442
0.00206424
0.00206406
0.00206387
0.00206369
0.00206351
0.00206333
0.00206314
0.00206296
0.00206278
0.0020626
0.00206242
0.00206224
0.00206206
0.00206188
0.0020617
0.00206153
0.00206135
0.00206117
0.00206099
0.00206081
0.00206064
0.00206046
0.00206028
0.00206011
0.00205993
0.00205976
0.00205958
0.00205941
0.00205923
0.00205906
0.00205888
0.00205871
0.00205854
0.00205836
0.00205819
0.00205802
0.00205785
0.00205768
0.00205751
0.00205734
0.00205717
0.002057
0.00205683
0.00205666
0.00205649
0.00205632
0.00205616
0.00205599
0.00205583
0.00205566
0.0020555
0.00205533
0.00205517
0.00205501
0.00205484
0.00205468
0.00205452
0.00205436
0.0020542
0.00205404
0.00205389
0.00205373
0.00205357
0.00205342
0.00205326
0.00205311
0.00205296
0.00205281
0.00205266
0.00205251
0.00205236
0.00205221
0.00205206
0.00205192
0.00205177
0.00205163
0.00205148
0.00205134
0.0020512
0.00205106
0.00205092
0.00205079
0.00205065
0.00205052
0.00205038
0.00205025
0.00205012
0.00204999
0.00204986
0.00204973
0.00204961
0.00204948
0.00204936
0.00204924
0.00204911
0.00204899
0.00204887
0.00204876
0.00204864
0.00204853
0.00204841
0.0020483
0.00204819
0.00204808
0.00204797
0.00204786
0.00204776
0.00204765
0.00204755
0.00204745
0.00204735
0.00204725
0.00204715
0.00204705
0.00204695
0.00204686
0.00204677
0.00204667
0.00204658
0.00204649
0.0020464
0.00204632
0.00204623
0.00204614
0.00204606
0.00204598
0.0020459
0.00204582
0.00204574
0.00204566
0.00204558
0.0020455
0.00204543
0.00204535
0.00204528
0.00204521
0.00204514
0.00204507
0.002045
0.00204493
0.00204486
0.0020448
0.00204473
0.00204467
0.0020446
0.00204454
0.00204448
0.00204442
0.00204436
0.0020443
0.00204424
0.00204418
0.00204413
0.00204407
0.00204401
0.00204396
0.00204391
0.00204385
0.0020438
0.00204375
0.0020437
0.00204365
0.0020436
0.00204356
0.00204351
0.00204346
0.00204342
0.00204337
0.00204333
0.00204328
0.00204324
0.0020432
0.00204316
0.00204312
0.00204308
0.00204304
0.002043
0.00204296
0.00204292
0.00204289
0.00204285
0.00204282
0.00204278
0.00204275
0.00204271
0.00204268
0.00204265
0.00204262
0.00204259
0.00204256
0.00204253
0.0020425
0.00204247
0.00204245
0.00204242
0.0020424
0.00204237
0.00204235
0.00204232
0.0020423
0.00204228
0.00204226
0.00204224
0.00204222
0.0020422
0.00204218
0.00204216
0.00204215
0.00204213
0.00204211
0.0020421
0.00204209
0.00204207
0.00204206
0.00204205
0.00204204
0.00204203
0.00204202
0.00204201
0.002042
0.002042
0.00204199
0.00204198
0.00204198
0.00204198
0.00204197
0.00204197
0.00204197
0.00204197
0.00204197
0.00204197
0.00204197
0.00204197
0.00204198
0.00204198
0.00204199
0.00204199
0.002042
0.00204201
0.00204202
0.00204203
0.00204204
0.00204205
0.00204206
0.00204207
0.00204208
0.0020421
0.00204211
0.00204213
0.00204214
0.00204216
0.00204218
0.0020422
0.00204222
0.00204224
0.00204226
0.00204228
0.0020423
0.00204233
0.00204235
0.00204238
0.0020424
0.00204243
0.00204245
0.00204248
0.00204251
0.00204254
0.00204257
0.0020426
0.00204263
0.00204266
0.00204269
0.00204273
0.00204276
0.0020428
0.00204283
0.00204287
0.0020429
0.00204294
0.00204298
0.00204301
0.00204305
0.00204309
0.00204313
0.00204317
0.00204321
0.00204325
0.00204329
0.00204333
0.00204337
0.00204341
0.00204346
0.0020435
0.00204354
0.00204358
0.00204363
0.00204367
0.00204372
0.00204376
0.00204381
0.00204385
0.0020439
0.00204394
0.00204399
0.00204403
0.00204408
0.00204412
0.00204417
0.00204421
0.00204426
0.00204431
0.00204435
0.0020444
0.00204444
0.00204449
0.00204453
0.00204458
0.00204463
0.00204467
0.00204472
0.00204476
0.00204481
0.00204485
0.0020449
0.00204494
0.00204498
0.00204503
0.00204507
0.00204511
0.00204516
0.0020452
0.00204524
0.00204528
0.00204533
0.00204537
0.00204541
0.00204545
0.00204549
0.00204553
0.00204557
0.00204561
0.00204565
0.00204568
0.00204572
0.00204576
0.0020458
0.00204583
0.00204587
0.0020459
0.00204594
0.00204597
0.002046
0.00204604
0.00204607
0.0020461
0.00204613
0.00204616
0.00204619
0.00204622
0.00204625
0.00204628
0.00204631
0.00204633
0.00204636
0.00204639
0.00204641
0.00204644
0.00204646
0.00204648
0.00204651
0.00204653
0.00204655
0.00204657
0.00204659
0.00204661
0.00204663
0.00204665
0.00204666
0.00204668
0.0020467
0.00204671
0.00204673
0.00204674
0.00204676
0.00204677
0.00204678
0.00204679
0.0020468
0.00204681
0.00204682
0.00204683
0.00204684
0.00204685
0.00204686
0.00204686
0.00204687
0.00204688
0.00204688
0.00204689
0.00204689
0.00204689
0.00204689
0.0020469
0.0020469
0.0020469
0.0020469
0.0020469
0.0020469
0.0020469
0.00204689
0.00204689
0.00204689
0.00204689
0.00204688
0.00204688
0.00204687
0.00204687
0.00204686
0.00204685
0.00204684
0.00204684
0.00204683
0.00204682
0.00204681
0.0020468
0.00204679
0.00204678
0.00204677
0.00204676
0.00204674
0.00204673
0.00204672
0.0020467
0.00204669
0.00204667
0.00204666
0.00204664
0.00204663
0.00204661
0.00204659
0.00204658
0.00204656
0.00204654
0.00204652
0.0020465
0.00204648
0.00204646
0.00204644
0.00204642
0.0020464
0.00204638
0.00204636
0.00204633
0.00204631
0.00204629
0.00204626
0.00204624
0.00204622
0.00204619
0.00204617
0.00204614
0.00204611
0.00204609
0.00204606
0.00204603
0.00204601
0.00204598
0.00204595
0.00204592
0.00204589
0.00204586
0.00204583
0.0020458
0.00204577
0.00204574
0.00204571
0.00204568
0.00204565
0.00204562
0.00204559
0.00204556
0.00204552
0.00204549
0.00204546
0.00204542
0.00204539
0.00204536
0.00204532
0.00204529
0.00204525
0.00204522
0.00204518
0.00204515
0.00204511
0.00204508
0.00204504
0.00204501
0.00204497
0.00204493
0.0020449
0.00204486
0.00204482
0.00204479
0.00204475
0.00204471
0.00204468
0.00204464
0.0020446
0.00204456
0.00204453
0.00204449
0.00204445
0.00204441
0.00204438
0.00204434
0.0020443
0.00204426
0.00204422
0.00204419
0.00204415
0.00204411
0.00204407
0.00204403
0.002044
0.00204396
0.00204392
0.00204388
0.00204384
0.00204381
0.00204377
0.00204373
0.00204369
0.00204365
0.00204362
0.00204358
0.00204354
0.0020435
0.00204347
0.00204343
0.00204339
0.00204336
0.00204332
0.00204328
0.00204324
0.00204321
0.00204317
0.00204314
0.0020431
0.00204306
0.00204303
0.00204299
0.00204296
0.00204292
0.00204289
0.00204285
0.00204282
0.00204278
0.00204275
0.00204271
0.00204268
0.00204264
0.00204261
0.00204258
0.00204254
0.00204251
0.00204248
0.00204244
0.00204241
0.00204238
0.00204235
0.00204231
0.00204228
0.00204225
0.00204222
0.00204219
0.00204216
0.00204213
0.0020421
0.00204207
0.00204204
0.00204201
0.00204198
0.00204195
0.00204192
0.00204189
0.00204186
0.00204184
0.00204181
0.00204178
0.00204175
0.00204173
0.0020417
0.00204168
0.00204165
0.00204162
0.0020416
0.00204157
0.00204155
0.00204152
0.0020415
0.00204148
0.00204145
0.00204143
0.00204141
0.00204138
0.00204136
0.00204134
0.00204132
0.0020413
0.00204128
0.00204126
0.00204124
0.00204122
0.0020412
0.00204118
0.00204116
0.00204114
0.00204112
0.00204111
0.00204109
0.00204107
0.00204106
0.00204104
0.00204103
0.00204101
0.002041
0.00204098
0.00204097
0.00204095
0.00204094
0.00204093
0.00204092
0.00204091
0.0020409
0.00204088
0.00204087
0.00204086
0.00204086
0.00204085
0.00204084
0.00204083
0.00204082
0.00204082
0.00204081
0.00204081
0.0020408
0.0020408
0.00204079
0.00204079
0.00204079
0.00204078
0.00204078
0.00204078
0.00204078
0.00204078
0.00204078
0.00204078
0.00204078
0.00204079
0.00204079
0.00204079
0.0020408
0.0020408
0.00204081
0.00204081
0.00204082
0.00204083
0.00204084
0.00204085
0.00204085
0.00204087
0.00204088
0.00204089
0.0020409
0.00204091
0.00204093
0.00204094
0.00204096
0.00204097
0.00204099
0.00204101
0.00204103
0.00204105
0.00204107
0.00204109
0.00204111
0.00204113
0.00204116
0.00204118
0.0020412
0.00204123
0.00204126
0.00204128
0.00204131
0.00204134
0.00204137
0.0020414
0.00204143
0.00204147
0.0020415
0.00204154
)
;

boundaryField
{
    inlet
    {
        type            calculated;
        value           uniform 0.00548511;
    }
    outlet
    {
        type            calculated;
        value           uniform 0.00204154;
    }
    right
    {
        type            empty;
    }
    left
    {
        type            empty;
    }
    atmosphere
    {
        type            empty;
    }
    bottomWall
    {
        type            empty;
    }
}


// ************************************************************************* //
