/*--------------------------------*- C++ -*----------------------------------*\
| =========                 |                                                 |
| \\      /  F ield         | foam-extend: Open Source CFD                    |
|  \\    /   O peration     | Version:     3.1                                |
|   \\  /    A nd           | Web:         http://www.extend-project.de       |
|    \\/     M anipulation  |                                                 |
\*---------------------------------------------------------------------------*/
FoamFile
{
    version     2.0;
    format      ascii;
    class       surfaceScalarField;
    location    "24";
    object      phi;
}
// * * * * * * * * * * * * * * * * * * * * * * * * * * * * * * * * * * * * * //

dimensions      [0 3 -1 0 0 0 0];

internalField   nonuniform List<scalar> 
2538
(
0.0728841
0.0729439
0.0730233
0.0731021
0.0731811
0.0732602
0.0733396
0.0734192
0.073499
0.0735789
0.0736591
0.0737394
0.0738199
0.0739007
0.0739816
0.0740627
0.074144
0.0742256
0.0743073
0.0743892
0.0744713
0.0745537
0.0746362
0.074719
0.0748019
0.074885
0.0749684
0.075052
0.0751357
0.0752197
0.0753039
0.0753883
0.0754729
0.0755578
0.0756428
0.0757281
0.0758136
0.0758993
0.0759852
0.0760713
0.0761576
0.0762442
0.076331
0.076418
0.0765053
0.0765927
0.0766804
0.0767683
0.0768565
0.0769449
0.0770335
0.0771223
0.0772114
0.0773007
0.0773902
0.07748
0.07757
0.0776602
0.0777507
0.0778414
0.0779324
0.0780236
0.078115
0.0782067
0.0782986
0.0783908
0.0784832
0.0785759
0.0786688
0.078762
0.0788554
0.0789491
0.0790431
0.0791372
0.0792317
0.0793264
0.0794214
0.0795166
0.0796121
0.0797078
0.0798038
0.0799001
0.0799966
0.0800935
0.0801905
0.0802879
0.0803855
0.0804834
0.0805816
0.08068
0.0807787
0.0808778
0.080977
0.0810766
0.0811764
0.0812766
0.081377
0.0814777
0.0815787
0.08168
0.0817815
0.0818834
0.0819856
0.082088
0.0821908
0.0822938
0.0823972
0.0825008
0.0826048
0.0827091
0.0828136
0.0829185
0.0830237
0.0831292
0.083235
0.0833412
0.0834476
0.0835544
0.0836614
0.0837689
0.0838766
0.0839846
0.084093
0.0842017
0.0843108
0.0844201
0.0845298
0.0846399
0.0847503
0.084861
0.0849721
0.0850835
0.0851952
0.0853073
0.0854198
0.0855325
0.0856457
0.0857592
0.0858731
0.0859873
0.0861019
0.0862168
0.0863321
0.0864478
0.0865638
0.0866803
0.0867971
0.0869142
0.0870318
0.0871497
0.087268
0.0873867
0.0875058
0.0876252
0.0877451
0.0878654
0.087986
0.0881071
0.0882285
0.0883504
0.0884726
0.0885953
0.0887184
0.0888419
0.0889658
0.0890901
0.0892149
0.08934
0.0894656
0.0895917
0.0897181
0.089845
0.0899724
0.0901001
0.0902283
0.090357
0.0904861
0.0906157
0.0907457
0.0908762
0.0910071
0.0911385
0.0912703
0.0914027
0.0915662
0.0917482
0.091856
0.0918989
0.0919384
0.0919777
0.0920171
0.0920565
0.092096
0.0921355
0.0921751
0.0922147
0.0922543
0.092294
0.0923337
0.0923735
0.0924133
0.0924532
0.092493
0.092533
0.092573
0.092613
0.0926531
0.0926932
0.0927333
0.0927735
0.0928138
0.092854
0.0928944
0.0929347
0.0929752
0.0930156
0.0930561
0.0930967
0.0931373
0.0931779
0.0932186
0.0932593
0.0933001
0.0933409
0.0933818
0.0934227
0.0934636
0.0935046
0.0935457
0.0935868
0.0936279
0.0936691
0.0937103
0.0937516
0.0937929
0.0938342
0.0938756
0.0939171
0.0939586
0.0940001
0.0940417
0.0940834
0.0941251
0.0941668
0.0942086
0.0942504
0.0942923
0.0943342
0.0943761
0.0944182
0.0944602
0.0945023
0.0945445
0.0945867
0.0946289
0.0946712
0.0947136
0.094756
0.0947984
0.0948409
0.0948835
0.0949261
0.0949687
0.0950114
0.0950541
0.0950969
0.0951397
0.0951826
0.0952256
0.0952685
0.0953116
0.0953546
0.0953978
0.095441
0.0954842
0.0955275
0.0955708
0.0956142
0.0956576
0.0957011
0.0957446
0.0957882
0.0958318
0.0958755
0.0959193
0.095963
0.0960069
0.0960508
0.0960947
0.0961387
0.0961827
0.0962268
0.096271
0.0963152
0.0963594
0.0964037
0.0964481
0.0964925
0.096537
0.0965815
0.0966261
0.0966707
0.0967153
0.0967601
0.0968049
0.0968497
0.0968946
0.0969395
0.0969845
0.0970296
0.0970747
0.0971198
0.097165
0.0972103
0.0972556
0.097301
0.0973464
0.0973919
0.0974375
0.097483
0.0975287
0.0975744
0.0976202
0.097666
0.0977119
0.0977578
0.0978038
0.0978498
0.0978959
0.0979421
0.0979883
0.0980346
0.0980809
0.0981273
0.0981737
0.0982202
0.0982668
0.0983134
0.0983601
0.0984068
0.0984536
0.0985004
0.0985473
0.0985943
0.0986413
0.0986884
0.0987355
0.0987827
0.09883
0.0988773
0.0989247
0.0989721
0.0990196
0.0990672
0.0991148
0.0991624
0.0992102
0.099258
0.0993058
0.0993538
0.0994017
0.0994498
0.0994979
0.099546
0.0995943
0.0996425
0.0996909
0.0997393
0.0997878
0.0998363
0.0998849
0.0999336
0.0999823
0.100031
0.10008
0.100129
0.100178
0.100227
0.100276
0.100325
0.100374
0.100424
0.100472
0.10054
0.100209
0.104441
0.109115
0.114832
0.11845
0.120859
0.122639
0.124074
0.125307
0.126412
0.127431
0.128388
0.129299
0.130173
0.131016
0.131834
0.13263
0.133407
0.134168
0.134913
0.135645
0.136364
0.137073
0.137772
0.138462
0.139143
0.139817
0.140483
0.141143
0.141797
0.142446
0.143089
0.143727
0.14436
0.14499
0.145615
0.146237
0.146855
0.147471
0.148083
0.148692
0.149299
0.149904
0.150506
0.151107
0.151705
0.152302
0.152898
0.153492
0.154084
0.154676
0.155266
0.155856
0.156445
0.157033
0.157621
0.158209
0.158796
0.159383
0.15997
0.160558
0.161146
0.161734
0.162322
0.162912
0.163502
0.164094
0.164686
0.16528
0.165876
0.166473
0.167073
0.167675
0.168279
0.168886
0.169497
0.170111
0.170729
0.171352
0.171979
0.172613
0.173252
0.173899
0.174555
0.17522
0.175896
0.176585
0.177289
0.178011
0.178755
0.179526
0.180329
0.181173
0.182066
0.183022
0.184055
0.185182
0.186425
0.187802
0.189331
0.191017
0.195536
0.197524
0.199389
0.201148
0.202815
0.204404
0.205923
0.20738
0.208781
0.210133
0.211441
0.212707
0.213937
0.215132
0.216295
0.217429
0.218537
0.219619
0.220677
0.221714
0.222729
0.223725
0.224703
0.225664
0.226608
0.227536
0.22845
0.229349
0.230235
0.231108
0.231969
0.232818
0.233656
0.234483
0.2353
0.236107
0.236904
0.237692
0.238471
0.239241
0.240003
0.240757
0.241504
0.242242
0.242974
0.243698
0.244416
0.245127
0.245831
0.24653
0.247222
0.247908
0.248588
0.249263
0.249932
0.250596
0.251255
0.251909
0.252558
0.253201
0.253841
0.254475
0.255105
0.255731
0.256352
0.256969
0.257582
0.258191
0.258796
0.259397
0.259995
0.260588
0.261178
0.261764
0.262347
0.262927
0.263503
0.264075
0.264645
0.265211
0.265774
0.266334
0.26689
0.267444
0.267995
0.268543
0.269088
0.269631
0.27017
0.270707
0.271241
0.271773
0.272301
0.272828
0.273353
0.273879
0.274406
0.274925
0.275414
0.275838
0.276196
0.276527
0.276858
0.277188
0.277517
0.277845
0.278172
0.278498
0.278823
0.279147
0.27947
0.279792
0.280113
0.280433
0.280752
0.281071
0.281388
0.281705
0.28202
0.282335
0.282649
0.282962
0.283274
0.283585
0.283896
0.284205
0.284514
0.284822
0.285129
0.285435
0.285741
0.286045
0.286349
0.286652
0.286954
0.287256
0.287556
0.287856
0.288155
0.288454
0.288751
0.289048
0.289344
0.28964
0.289934
0.290228
0.290521
0.290814
0.291106
0.291397
0.291687
0.291977
0.292265
0.292554
0.292841
0.293128
0.293414
0.2937
0.293985
0.294269
0.294552
0.294835
0.295117
0.295399
0.29568
0.29596
0.296239
0.296518
0.296797
0.297074
0.297352
0.297628
0.297904
0.298179
0.298454
0.298728
0.299001
0.299274
0.299546
0.299818
0.300089
0.300359
0.300629
0.300899
0.301167
0.301435
0.301703
0.30197
0.302237
0.302502
0.302768
0.303033
0.303297
0.303561
0.303824
0.304086
0.304348
0.30461
0.304871
0.305132
0.305391
0.305651
0.30591
0.306168
0.306426
0.306683
0.30694
0.307197
0.307453
0.307708
0.307963
0.308217
0.308471
0.308724
0.308977
0.30923
0.309481
0.309733
0.309984
0.310234
0.310484
0.310734
0.310983
0.311231
0.311479
0.311727
0.311974
0.312221
0.312467
0.312713
0.312958
0.313203
0.313447
0.313691
0.313935
0.314178
0.314421
0.314663
0.314905
0.315146
0.315387
0.315627
0.315867
0.316107
0.316346
0.316585
0.316823
0.317061
0.317299
0.317536
0.317772
0.318009
0.318244
0.31848
0.318715
0.318949
0.319184
0.319417
0.319651
0.319884
0.320116
0.320349
0.32058
0.320812
0.321043
0.321273
0.321504
0.321733
0.321963
0.322192
0.322421
0.322649
0.322877
0.323104
0.323331
0.323558
0.323785
0.324011
0.324236
0.324462
0.324687
0.324911
0.325135
0.325359
0.325583
0.325806
0.326028
0.326251
0.326473
0.326695
0.326916
0.327137
0.327357
0.327578
0.327798
0.328017
0.328236
0.328455
0.328674
0.328892
0.32911
0.329327
0.329544
0.329761
0.329978
0.330194
0.33041
0.330625
0.33084
0.331055
0.331269
0.331484
0.331697
0.331911
0.332124
0.332337
0.332549
0.332762
0.332973
0.333185
0.333396
0.333607
0.333818
0.334028
0.334238
0.334447
0.334657
0.334866
0.335075
0.335283
0.335491
0.335699
0.335906
0.336113
0.33632
0.336527
0.336733
0.336939
0.337145
0.33735
0.337555
0.33776
0.337964
0.338168
0.338372
0.338576
0.338779
0.338982
0.339185
0.339387
0.339589
0.339791
0.339992
0.340194
0.340395
0.340595
0.340796
0.340996
0.341196
0.341395
0.341594
0.341793
0.341992
0.34219
0.342388
0.342586
0.342784
0.342981
0.343178
0.343375
0.343571
0.343768
0.343963
0.344159
0.344354
0.34455
0.344744
0.344939
0.345133
0.345327
0.345521
0.345715
0.345908
0.346101
0.346293
0.346486
0.346678
0.34687
0.347062
0.347253
0.347444
0.347635
0.347826
0.348016
0.348206
0.348396
0.348586
0.348775
0.348964
0.349153
0.349342
0.34953
0.349718
0.349906
0.350094
0.350281
0.350468
0.350655
0.350842
0.351028
0.351214
0.3514
0.351585
0.351771
0.351956
0.352141
0.352326
0.35251
0.352694
0.352878
0.353062
0.353245
0.353429
0.353612
0.353794
0.353977
0.354159
0.354341
0.354523
0.354704
0.354886
0.355067
0.355248
0.355428
0.355609
0.355789
0.355969
0.356149
0.356328
0.356508
0.356687
0.356865
0.357044
0.357223
0.357401
0.357579
0.357755
0.357927
0.3581
0.358294
0.358517
0.358752
0.358987
0.359222
0.359456
0.35969
0.359924
0.360157
0.36039
0.360622
0.360855
0.361086
0.361318
0.361549
0.36178
0.362011
0.362241
0.362471
0.3627
0.362929
0.363158
0.363387
0.363615
0.363843
0.36407
0.364297
0.364524
0.364751
0.364977
0.365203
0.365429
0.365654
0.365879
0.366104
0.366328
0.366552
0.366776
0.366999
0.367222
0.367445
0.367667
0.367889
0.368111
0.368333
0.368554
0.368775
0.368995
0.369215
0.369435
0.369655
0.369874
0.370093
0.370312
0.370531
0.370749
0.370967
0.371184
0.371401
0.371618
0.371835
0.372051
0.372267
0.372483
0.372698
0.372914
0.373129
0.373343
0.373557
0.373771
0.373985
0.374199
0.374412
0.374624
0.374837
0.375049
0.375261
0.375473
0.375684
0.375896
0.376106
0.376317
0.376527
0.376737
0.376947
0.377156
0.377366
0.377575
0.377783
0.377992
0.3782
0.378407
0.378615
0.378822
0.379029
0.379236
0.379442
0.379648
0.379854
0.38006
0.380265
0.38047
0.380675
0.38088
0.381084
0.381288
0.381492
0.381695
0.381899
0.382101
0.382304
0.382507
0.382709
0.382911
0.383112
0.383314
0.383515
0.383716
0.383916
0.384117
0.384317
0.384517
0.384716
0.384916
0.385115
0.385314
0.385512
0.385711
0.385909
0.386106
0.386304
0.386501
0.386698
0.386895
0.387092
0.387288
0.387484
0.38768
0.387876
0.388071
0.388266
0.388461
0.388656
0.38885
0.389044
0.389238
0.389432
0.389625
0.389818
0.390011
0.390204
0.390396
0.390589
0.390781
0.390972
0.391164
0.391355
0.391546
0.391737
0.391927
0.392118
0.392308
0.392498
0.392687
0.392877
0.393066
0.393255
0.393443
0.393632
0.39382
0.394008
0.394196
0.394384
0.39457
0.394754
0.394939
0.395138
0.39536
0.395573
0.395645
0.395442
0.395301
0.395276
0.39533
0.395374
0.395415
0.39545
0.395469
0.395468
0.395456
0.395441
0.395421
0.395387
0.395336
0.395275
0.395204
0.395122
0.395029
0.394922
0.394805
0.394678
0.394542
0.394399
0.394245
0.394077
0.393893
0.393697
0.393492
0.393279
0.393055
0.392816
0.392563
0.3923
0.39203
0.39175
0.39146
0.391161
0.390848
0.39052
0.390184
0.389838
0.389475
0.389098
0.388712
0.388317
0.387911
0.387496
0.38707
0.386631
0.386181
0.385724
0.385254
0.384768
0.384267
0.383755
0.383234
0.382704
0.382163
0.381614
0.381051
0.380471
0.379875
0.379269
0.378655
0.378034
0.377404
0.37676
0.376099
0.375423
0.374735
0.374036
0.373325
0.372601
0.371868
0.371123
0.370367
0.3696
0.368818
0.368015
0.367194
0.36636
0.36552
0.364676
0.36383
0.362979
0.362116
0.361213
0.360242
0.359203
0.358153
0.357215
0.356534
0.356136
0.355737
0.354666
0.352133
0.347974
0.3436
0.342385
0.348694
0.364719
0.383837
0.402278
0.40246
0.402643
0.402825
0.403007
0.403188
0.40337
0.403551
0.403732
0.403913
0.404094
0.404274
0.404455
0.404635
0.404814
0.404994
0.405173
0.405352
0.405531
0.40571
0.405889
0.406067
0.406245
0.406423
0.406601
0.406778
0.406956
0.407133
0.40731
0.407486
0.407663
0.407839
0.408015
0.408191
0.408366
0.408542
0.408717
0.408892
0.409067
0.409242
0.409416
0.40959
0.409764
0.409938
0.410112
0.410285
0.410458
0.410631
0.410804
0.410977
0.411149
0.411322
0.411494
0.411665
0.411837
0.412009
0.41218
0.412351
0.412522
0.412692
0.412863
0.413033
0.413203
0.413373
0.413543
0.413712
0.413882
0.414051
0.41422
0.414388
0.414557
0.414725
0.414893
0.415061
0.415229
0.415397
0.415564
0.415731
0.415899
0.416065
0.416232
0.416398
0.416563
0.416729
0.4169
0.417079
0.417248
0.417356
0.417381
0.417371
0.417362
0.417352
0.417343
0.417333
0.417324
0.417314
0.417305
0.417295
0.417286
0.417276
0.417267
0.417257
0.417248
0.417238
0.417229
0.417219
0.41721
0.4172
0.417191
0.417182
0.417172
0.417163
0.417153
0.417144
0.417135
0.417125
0.417116
0.417106
0.417097
0.417088
0.417078
0.417069
0.41706
0.41705
0.417041
0.417032
0.417022
0.417013
0.417004
0.416994
0.416985
0.416976
0.416966
0.416957
0.416948
0.416938
0.416929
0.41692
0.416911
0.416901
0.416892
0.416883
0.416874
0.416864
0.416855
0.416846
0.416837
0.416827
0.416818
0.416809
0.4168
0.416791
0.416781
0.416772
0.416763
0.416754
0.416745
0.416736
0.416726
0.416717
0.416708
0.416699
0.41669
0.416681
0.416672
0.416662
0.416653
0.416644
0.416635
0.416626
0.416617
0.416608
0.416599
0.41659
0.416581
0.416572
0.416562
0.416553
0.416544
0.416535
0.416526
0.416517
0.416508
0.416499
0.41649
0.416481
0.416472
0.416463
0.416454
0.416445
0.416436
0.416427
0.416418
0.416409
0.4164
0.416391
0.416382
0.416373
0.416364
0.416356
0.416347
0.416338
0.416329
0.41632
0.416311
0.416302
0.416293
0.416284
0.416275
0.416266
0.416258
0.416249
0.41624
0.416231
0.416222
0.416213
0.416204
0.416196
0.416187
0.416178
0.416169
0.41616
0.416151
0.416143
0.416134
0.416125
0.416116
0.416107
0.416099
0.41609
0.416081
0.416072
0.416064
0.416055
0.416046
0.416037
0.416029
0.41602
0.416011
0.416002
0.415994
0.415985
0.415976
0.415967
0.415959
0.41595
0.415941
0.415933
0.415924
0.415915
0.415907
0.415898
0.415889
0.415881
0.415872
0.415863
0.415855
0.415846
0.415837
0.415829
0.41582
0.415812
0.415803
0.415794
0.415786
0.415777
0.415769
0.41576
0.415751
0.415743
0.415734
0.415726
0.415717
0.415709
0.4157
0.415692
0.415683
0.415674
0.415666
0.415657
0.415649
0.41564
0.415632
0.415623
0.415615
0.415606
0.415598
0.415589
0.415581
0.415572
0.415564
0.415556
0.415547
0.415539
0.41553
0.415522
0.415513
0.415505
0.415496
0.415488
0.41548
0.415471
0.415463
0.415454
0.415446
0.415438
0.415429
0.415421
0.415412
0.415404
0.415396
0.415387
0.415379
0.415371
0.415362
0.415354
0.415346
0.415337
0.415329
0.415321
0.415312
0.415304
0.415296
0.415287
0.415279
0.415271
0.415262
0.415254
0.415246
0.415238
0.415229
0.415221
0.415213
0.415205
0.415196
0.415188
0.41518
0.415172
0.415163
0.415155
0.415147
0.415139
0.41513
0.415122
0.415114
0.415106
0.415098
0.41509
0.415081
0.415073
0.415065
0.415057
0.415049
0.41504
0.415033
0.415025
0.415017
0.415005
0.414987
0.414979
0.415019
0.415126
0.415138
0.414577
0.41317
0.412736
0.419094
0.436834
0.444079
0.379629
0.242051
0.132051
0.0960477
0.0922465
0.0921566
0.0921087
0.0920606
0.0920126
0.0919645
0.0919165
0.0918686
0.0918206
0.0917727
0.0917248
0.0916769
0.0916291
0.0915813
0.0915333
0.0914863
0.0914512
0.091436
0.0914301
0.091424
0.0914179
0.0914118
0.0914056
0.0913993
0.091393
0.0913866
0.0913802
0.0913737
0.0913672
0.0913606
0.0913539
0.0913472
0.0913404
0.0913336
0.0913266
0.0913196
0.0913125
0.0913054
0.0912982
0.0912909
0.0912835
0.091276
0.0912685
0.0912609
0.0912532
0.0912454
0.0912375
0.0912295
0.0912215
0.0912134
0.0912051
0.0911968
0.0911884
0.0911799
0.0911713
0.0911626
0.0911538
0.0911449
0.0911359
0.0911268
0.0911176
0.0911083
0.091099
0.0910895
0.0910799
0.0910702
0.0910605
0.0910506
0.0910406
0.0910305
0.0910204
0.0910101
0.0909998
0.0909893
0.0909788
0.0909682
0.0909575
0.0909467
0.0909358
0.0909248
0.0909138
0.0909026
0.0908914
0.0908801
0.0908688
0.0908573
0.0908458
0.0908342
0.0908226
0.0908109
0.0907992
0.0907874
0.0907755
0.0907636
0.0907516
0.0907396
0.0907276
0.0907155
0.0907034
0.0906913
0.0906791
0.0906669
0.0906547
0.0906425
0.0906303
0.090618
0.0906058
0.0905935
0.0905813
0.090569
0.0905568
0.0905446
0.0905324
0.0905202
0.090508
0.0904959
0.0904838
0.0904717
0.0904597
0.0904477
0.0904358
0.0904238
0.090412
0.0904002
0.0903884
0.0903767
0.090365
0.0903535
0.0903419
0.0903305
0.0903191
0.0903077
0.0902965
0.0902853
0.0902742
0.0902631
0.0902522
0.0902413
0.0902305
0.0902197
0.0902091
0.0901985
0.090188
0.0901776
0.0901673
0.0901571
0.0901469
0.0901368
0.0901268
0.0901169
0.0901071
0.0900974
0.0900877
0.0900781
0.0900687
0.0900593
0.0900499
0.0900407
0.0900315
0.0900224
0.0900134
0.0900045
0.0899957
0.0899869
0.0899782
0.0899696
0.0899611
0.0899526
0.0899442
0.0899359
0.0899276
0.0899194
0.0899113
0.0899033
0.0898953
0.0898874
0.0898795
0.0898717
0.089864
0.0898563
0.0898487
0.0898411
0.0898336
0.0898262
0.0898188
0.0898115
0.0898042
0.089797
0.0897898
0.0897826
0.0897755
0.0897685
0.0897615
0.0897546
0.0897477
0.0897408
0.089734
0.0897272
0.0897204
0.0897137
0.0897071
0.0897004
0.0896938
0.0896873
0.0896807
0.0896742
0.0896678
0.0896613
0.0896549
0.0896486
0.0896422
0.0896359
0.0896296
0.0896234
0.0896172
0.089611
0.0896048
0.0895986
0.0895925
0.0895864
0.0895803
0.0895742
0.0895682
0.0895622
0.0895562
0.0895502
0.0895442
0.0895383
0.0895324
0.0895265
0.0895206
0.0895147
0.0895089
0.089503
0.0894972
0.0894914
0.0894856
0.0894798
0.0894741
0.0894683
0.0894626
0.0894569
0.0894512
0.0894455
0.0894398
0.0894341
0.0894285
0.0894228
0.0894172
0.0894116
0.089406
0.0894004
0.0893948
0.0893892
0.0893836
0.0893781
0.0893725
0.089367
0.0893614
0.0893559
0.0893504
0.0893449
0.0893394
0.0893339
0.0893284
0.089323
0.0893175
0.0893121
0.0893066
0.0893012
0.0892958
0.0892904
0.0892849
0.0892796
0.0892742
0.0892688
0.0892634
0.0892581
0.0892527
0.0892474
0.0892421
0.0892367
0.0892314
0.0892261
0.0892209
0.0892156
0.0892103
0.0892051
0.0891999
0.0891947
0.0891895
0.0891843
0.0891791
0.0891739
0.0891688
0.0891637
0.0891586
0.0891535
0.0891484
0.0891433
0.0891383
0.0891333
0.0891283
0.0891233
0.0891183
0.0891134
0.0891085
0.0891036
0.0890987
0.0890939
0.0890891
0.0890843
0.0890795
0.0890748
0.08907
0.0890653
0.0890607
0.0890561
0.0890514
0.0890469
0.0890423
0.0890378
0.0890333
0.0890289
0.0890245
0.0890201
0.0890157
0.0890114
0.0890071
0.0890029
0.0889986
0.0889945
0.0889903
0.0889862
0.0889821
0.0889781
0.0889741
0.0889701
0.0889662
0.0889623
0.0889585
0.0889547
0.0889509
0.0889472
0.0889435
0.0889398
0.0889362
0.0889326
0.0889291
0.0889256
0.0889221
0.0889187
0.0889154
0.088912
0.0889087
0.0889055
0.0889023
0.0888991
0.088896
0.0888929
0.0888898
0.0888868
0.0888838
0.0888809
0.088878
0.0888751
0.0888723
0.0888695
0.0888668
0.0888641
0.0888614
0.0888588
0.0888562
0.0888537
0.0888512
0.0888487
0.0888463
0.0888439
0.0888415
0.0888392
0.0888369
0.0888347
0.0888325
0.0888303
0.0888281
0.088826
0.088824
0.0888219
0.08882
0.088818
0.0888161
0.0888142
0.0888123
0.0888105
0.0888087
0.088807
0.0888053
0.0888036
0.0888019
0.0888003
0.0887987
0.0887972
0.0887957
0.0887942
0.0887928
0.0887913
0.08879
0.0887886
0.0887873
0.088786
0.0887848
0.0887836
0.0887824
0.0887813
0.0887802
0.0887791
0.0887781
0.0887771
0.0887762
0.0887752
0.0887743
0.0887735
0.0887727
0.0887719
0.0887711
0.0887704
0.0887698
0.0887691
0.0887685
0.088768
0.0887674
0.088767
0.0887665
0.0887661
0.0887657
0.0887654
0.0887651
0.0887649
0.0887647
0.0887645
0.0887644
0.0887643
0.0887643
0.0887643
0.0887643
0.0887644
0.0887645
0.0887647
0.0887649
0.0887652
0.0887655
0.0887659
0.0887663
0.0887667
0.0887672
0.0887678
0.0887684
0.088769
0.0887697
0.0887704
0.0887712
0.0887721
0.088773
0.0887739
0.0887749
0.0887759
0.088777
0.0887782
0.0887794
0.0887806
0.0887819
0.0887833
0.0887847
0.0887862
0.0887877
0.0887892
0.0887909
0.0887925
0.0887943
0.0887961
0.0887979
0.0887998
0.0888018
0.0888038
0.0888059
0.088808
0.0888102
0.0888124
0.0888147
0.088817
0.0888195
0.0888219
0.0888244
0.088827
0.0888296
0.0888323
0.088835
0.0888378
0.0888407
0.0888436
0.0888465
0.0888495
0.0888526
0.0888557
0.0888589
0.0888621
0.0888654
0.0888687
0.0888721
0.0888755
0.088879
0.0888825
0.0888861
0.0888897
0.0888933
0.088897
0.0889008
0.0889046
0.0889084
0.0889123
0.0889163
0.0889202
0.0889242
0.0889283
0.0889324
0.0889365
0.0889407
0.0889449
0.0889491
0.0889534
0.0889577
0.088962
0.0889664
0.0889707
0.0889752
0.0889796
0.0889841
0.0889886
0.0889931
0.0889976
0.0890022
0.0890067
0.0890113
0.0890159
0.0890205
0.0890252
0.0890298
0.0890345
0.0890392
0.0890438
0.0890485
0.0890532
0.0890579
0.0890626
0.0890673
0.089072
0.0890767
0.0890813
0.089086
0.0890907
0.0890954
0.0891
0.0891047
0.0891093
0.0891139
0.0891186
0.0891231
0.0891277
0.0891323
0.0891368
0.0891413
0.0891458
0.0891503
0.0891547
0.0891592
0.0891636
0.0891679
0.0891723
0.0891766
0.0891808
0.0891851
0.0891893
0.0891934
0.0891976
0.0892016
0.0892057
0.0892097
0.0892137
0.0892176
0.0892215
0.0892253
0.0892291
0.0892329
0.0892366
0.0892402
0.0892439
0.0892474
0.0892509
0.0892544
0.0892578
0.0892612
0.0892645
0.0892677
0.0892709
0.0892741
0.0892772
0.0892802
0.0892832
0.0892861
0.089289
0.0892918
0.0892946
0.0892973
0.0892999
0.0893025
0.089305
0.0893075
0.0893099
0.0893123
0.0893145
0.0893168
0.089319
0.0893211
0.0893231
0.0893251
0.0893271
0.0893289
0.0893307
0.0893325
0.0893342
0.0893358
0.0893374
0.0893389
0.0893404
0.0893418
0.0893431
0.0893444
0.0893456
0.0893468
0.0893479
0.0893489
0.0893499
0.0893509
0.0893517
0.0893525
0.0893533
0.089354
0.0893546
0.0893552
0.0893558
0.0893562
0.0893567
0.089357
0.0893573
0.0893576
0.0893578
0.0893579
0.089358
0.0893581
0.0893581
0.089358
0.0893579
0.0893577
0.0893575
0.0893572
0.0893569
0.0893565
0.0893561
0.0893556
0.0893551
0.0893545
0.0893539
0.0893533
0.0893526
0.0893518
0.089351
0.0893501
0.0893492
0.0893483
0.0893473
0.0893463
0.0893452
0.0893441
0.0893429
0.0893417
0.0893404
0.0893391
0.0893378
0.0893364
0.089335
0.0893335
0.089332
0.0893305
0.0893289
0.0893273
0.0893256
0.0893239
0.0893221
0.0893204
0.0893185
0.0893167
0.0893148
0.0893129
0.0893109
0.0893089
0.0893068
0.0893048
0.0893027
0.0893005
0.0892983
0.0892961
0.0892939
0.0892916
0.0892893
0.0892869
0.0892845
0.0892821
0.0892797
0.0892772
0.0892747
0.0892722
0.0892696
0.089267
0.0892644
0.0892618
0.0892591
0.0892564
0.0892536
0.0892509
0.0892481
0.0892453
0.0892424
0.0892396
0.0892367
0.0892338
0.0892308
0.0892279
0.0892249
0.0892219
0.0892188
0.0892158
0.0892127
0.0892096
0.0892065
0.0892034
0.0892002
0.089197
0.0891938
0.0891906
0.0891874
0.0891841
0.0891809
0.0891776
0.0891743
0.089171
0.0891676
0.0891643
0.0891609
0.0891575
0.0891541
0.0891507
0.0891473
0.0891439
0.0891404
0.089137
0.0891335
0.08913
0.0891265
0.089123
0.0891195
0.089116
0.0891125
0.0891089
0.0891054
0.0891018
0.0890983
0.0890947
0.0890911
0.0890875
0.0890839
0.0890803
0.0890767
0.0890731
0.0890695
0.0890659
0.0890623
0.0890586
0.089055
0.0890514
0.0890477
0.0890441
0.0890404
0.0890368
0.0890332
0.0890295
0.0890259
0.0890222
0.0890186
0.0890149
0.0890113
0.0890076
0.089004
0.0890003
0.0889967
0.088993
0.0889894
0.0889858
0.0889821
0.0889785
0.0889749
0.0889712
0.0889676
0.088964
0.0889604
0.0889568
0.0889531
0.0889495
0.0889459
0.0889423
0.0889388
0.0889352
0.0889316
0.088928
0.0889245
0.0889209
0.0889174
0.0889138
0.0889103
0.0889067
0.0889032
0.0888997
0.0888962
0.0888927
0.0888892
0.0888857
0.0888823
0.0888788
0.0888754
0.0888719
0.0888685
0.0888651
0.0888617
0.0888583
0.0888549
0.0888515
0.0888481
0.0888448
0.0888414
0.0888381
0.0888348
0.0888315
0.0888282
0.0888249
0.0888217
0.0888184
0.0888152
0.088812
0.0888087
0.0888056
0.0888024
0.0887992
0.0887961
0.0887929
0.0887898
0.0887867
0.0887836
0.0887805
0.0887775
0.0887744
0.0887714
0.0887684
0.0887654
0.0887625
0.0887595
0.0887566
0.0887537
0.0887508
0.0887479
0.088745
0.0887422
0.0887394
0.0887366
0.0887338
0.088731
0.0887283
0.0887256
0.0887229
0.0887202
0.0887176
0.0887149
0.0887123
0.0887098
0.0887072
0.0887046
0.0887021
0.0886996
0.0886972
0.0886947
0.0886923
0.0886899
0.0886875
0.0886852
0.0886828
0.0886805
0.0886783
0.088676
0.0886738
0.0886716
0.0886694
0.0886673
0.0886652
0.0886631
0.088661
0.088659
0.088657
0.088655
0.088653
0.0886511
0.0886492
0.0886474
0.0886455
0.0886437
0.088642
0.0886402
0.0886385
0.0886368
0.0886352
0.0886335
0.088632
0.0886304
0.0886289
0.0886274
0.0886259
0.0886245
0.0886231
0.0886217
0.0886204
0.0886191
0.0886179
0.0886166
0.0886154
0.0886143
0.0886131
0.088612
0.088611
0.0886099
0.0886089
0.088608
0.088607
)
;

boundaryField
{
    inlet
    {
        type            calculated;
        value           uniform -0.0728841;
    }
    outlet
    {
        type            calculated;
        value           uniform 0.0886065;
    }
    right
    {
        type            empty;
    }
    left
    {
        type            empty;
    }
    atmosphere
    {
        type            empty;
    }
    bottomWall
    {
        type            empty;
    }
}


// ************************************************************************* //
