/*--------------------------------*- C++ -*----------------------------------*\
| =========                 |                                                 |
| \\      /  F ield         | foam-extend: Open Source CFD                    |
|  \\    /   O peration     | Version:     3.1                                |
|   \\  /    A nd           | Web:         http://www.extend-project.de       |
|    \\/     M anipulation  |                                                 |
\*---------------------------------------------------------------------------*/
FoamFile
{
    version     2.0;
    format      ascii;
    class       volVectorField;
    location    "24";
    object      U;
}
// * * * * * * * * * * * * * * * * * * * * * * * * * * * * * * * * * * * * * //

dimensions      [0 1 -1 0 0 0 0];

internalField   nonuniform List<vector> 
2539
(
(0.728644 0 0)
(0.729038 0 0)
(0.72984 0 0)
(0.730626 0 0)
(0.731415 0 0)
(0.732206 0 0)
(0.732999 0 0)
(0.733794 0 0)
(0.73459 0 0)
(0.735389 0 0)
(0.736189 0 0)
(0.736992 0 0)
(0.737796 0 0)
(0.738602 0 0)
(0.739411 0 0)
(0.740221 0 0)
(0.741033 0 0)
(0.741848 0 0)
(0.742664 0 0)
(0.743482 0 0)
(0.744302 0 0)
(0.745125 0 0)
(0.745949 0 0)
(0.746775 0 0)
(0.747604 0 0)
(0.748434 0 0)
(0.749267 0 0)
(0.750101 0 0)
(0.750938 0 0)
(0.751777 0 0)
(0.752618 0 0)
(0.753461 0 0)
(0.754306 0 0)
(0.755153 0 0)
(0.756002 0 0)
(0.756854 0 0)
(0.757708 0 0)
(0.758564 0 0)
(0.759422 0 0)
(0.760282 0 0)
(0.761144 0 0)
(0.762009 0 0)
(0.762876 0 0)
(0.763745 0 0)
(0.764616 0 0)
(0.765489 0 0)
(0.766365 0 0)
(0.767243 0 0)
(0.768124 0 0)
(0.769006 0 0)
(0.769891 0 0)
(0.770778 0 0)
(0.771668 0 0)
(0.77256 0 0)
(0.773454 0 0)
(0.77435 0 0)
(0.775249 0 0)
(0.77615 0 0)
(0.777054 0 0)
(0.77796 0 0)
(0.778868 0 0)
(0.779779 0 0)
(0.780692 0 0)
(0.781608 0 0)
(0.782526 0 0)
(0.783447 0 0)
(0.78437 0 0)
(0.785295 0 0)
(0.786223 0 0)
(0.787154 0 0)
(0.788087 0 0)
(0.789022 0 0)
(0.78996 0 0)
(0.790901 0 0)
(0.791844 0 0)
(0.79279 0 0)
(0.793738 0 0)
(0.794689 0 0)
(0.795643 0 0)
(0.796599 0 0)
(0.797558 0 0)
(0.798519 0 0)
(0.799483 0 0)
(0.80045 0 0)
(0.801419 0 0)
(0.802391 0 0)
(0.803366 0 0)
(0.804344 0 0)
(0.805324 0 0)
(0.806307 0 0)
(0.807293 0 0)
(0.808282 0 0)
(0.809273 0 0)
(0.810267 0 0)
(0.811264 0 0)
(0.812264 0 0)
(0.813267 0 0)
(0.814273 0 0)
(0.815281 0 0)
(0.816293 0 0)
(0.817307 0 0)
(0.818324 0 0)
(0.819344 0 0)
(0.820367 0 0)
(0.821393 0 0)
(0.822422 0 0)
(0.823454 0 0)
(0.824489 0 0)
(0.825527 0 0)
(0.826569 0 0)
(0.827613 0 0)
(0.82866 0 0)
(0.82971 0 0)
(0.830764 0 0)
(0.83182 0 0)
(0.83288 0 0)
(0.833943 0 0)
(0.835009 0 0)
(0.836078 0 0)
(0.837151 0 0)
(0.838226 0 0)
(0.839305 0 0)
(0.840387 0 0)
(0.841473 0 0)
(0.842562 0 0)
(0.843654 0 0)
(0.844749 0 0)
(0.845848 0 0)
(0.84695 0 0)
(0.848055 0 0)
(0.849164 0 0)
(0.850277 0 0)
(0.851392 0 0)
(0.852512 0 0)
(0.853634 0 0)
(0.854761 0 0)
(0.85589 0 0)
(0.857024 0 0)
(0.85816 0 0)
(0.859301 0 0)
(0.860445 0 0)
(0.861592 0 0)
(0.862744 0 0)
(0.863899 0 0)
(0.865057 0 0)
(0.86622 0 0)
(0.867386 0 0)
(0.868555 0 0)
(0.869729 0 0)
(0.870906 0 0)
(0.872088 0 0)
(0.873273 0 0)
(0.874461 0 0)
(0.875654 0 0)
(0.876851 0 0)
(0.878051 0 0)
(0.879256 0 0)
(0.880464 0 0)
(0.881677 0 0)
(0.882893 0 0)
(0.884114 0 0)
(0.885339 0 0)
(0.886567 0 0)
(0.8878 0 0)
(0.889037 0 0)
(0.890278 0 0)
(0.891524 0 0)
(0.892773 0 0)
(0.894027 0 0)
(0.895285 0 0)
(0.896548 0 0)
(0.897815 0 0)
(0.899086 0 0)
(0.900361 0 0)
(0.901641 0 0)
(0.902926 0 0)
(0.904214 0 0)
(0.905508 0 0)
(0.906806 0 0)
(0.908108 0 0)
(0.909415 0 0)
(0.910727 0 0)
(0.912043 0 0)
(0.913364 0 0)
(0.914689 0 0)
(0.916635 0 0)
(0.91833 0 0)
(0.918791 0 0)
(0.919187 0 0)
(0.91958 0 0)
(0.919974 0 0)
(0.920368 0 0)
(0.920763 0 0)
(0.921158 0 0)
(0.921553 0 0)
(0.921949 0 0)
(0.922345 0 0)
(0.922741 0 0)
(0.923139 0 0)
(0.923536 0 0)
(0.923934 0 0)
(0.924332 0 0)
(0.924731 0 0)
(0.92513 0 0)
(0.92553 0 0)
(0.92593 0 0)
(0.92633 0 0)
(0.926731 0 0)
(0.927132 0 0)
(0.927534 0 0)
(0.927936 0 0)
(0.928339 0 0)
(0.928742 0 0)
(0.929146 0 0)
(0.929549 0 0)
(0.929954 0 0)
(0.930359 0 0)
(0.930764 0 0)
(0.93117 0 0)
(0.931576 0 0)
(0.931982 0 0)
(0.932389 0 0)
(0.932797 0 0)
(0.933205 0 0)
(0.933613 0 0)
(0.934022 0 0)
(0.934431 0 0)
(0.934841 0 0)
(0.935251 0 0)
(0.935662 0 0)
(0.936073 0 0)
(0.936485 0 0)
(0.936897 0 0)
(0.937309 0 0)
(0.937722 0 0)
(0.938135 0 0)
(0.938549 0 0)
(0.938964 0 0)
(0.939378 0 0)
(0.939794 0 0)
(0.940209 0 0)
(0.940625 0 0)
(0.941042 0 0)
(0.941459 0 0)
(0.941877 0 0)
(0.942295 0 0)
(0.942713 0 0)
(0.943132 0 0)
(0.943552 0 0)
(0.943971 0 0)
(0.944392 0 0)
(0.944813 0 0)
(0.945234 0 0)
(0.945656 0 0)
(0.946078 0 0)
(0.946501 0 0)
(0.946924 0 0)
(0.947348 0 0)
(0.947772 0 0)
(0.948197 0 0)
(0.948622 0 0)
(0.949048 0 0)
(0.949474 0 0)
(0.9499 0 0)
(0.950327 0 0)
(0.950755 0 0)
(0.951183 0 0)
(0.951612 0 0)
(0.952041 0 0)
(0.95247 0 0)
(0.9529 0 0)
(0.953331 0 0)
(0.953762 0 0)
(0.954194 0 0)
(0.954626 0 0)
(0.955058 0 0)
(0.955491 0 0)
(0.955925 0 0)
(0.956359 0 0)
(0.956793 0 0)
(0.957228 0 0)
(0.957664 0 0)
(0.9581 0 0)
(0.958537 0 0)
(0.958974 0 0)
(0.959411 0 0)
(0.959849 0 0)
(0.960288 0 0)
(0.960727 0 0)
(0.961167 0 0)
(0.961607 0 0)
(0.962048 0 0)
(0.962489 0 0)
(0.962931 0 0)
(0.963373 0 0)
(0.963816 0 0)
(0.964259 0 0)
(0.964703 0 0)
(0.965147 0 0)
(0.965592 0 0)
(0.966038 0 0)
(0.966483 0 0)
(0.96693 0 0)
(0.967377 0 0)
(0.967825 0 0)
(0.968273 0 0)
(0.968721 0 0)
(0.96917 0 0)
(0.96962 0 0)
(0.97007 0 0)
(0.970521 0 0)
(0.970972 0 0)
(0.971424 0 0)
(0.971877 0 0)
(0.972329 0 0)
(0.972783 0 0)
(0.973237 0 0)
(0.973692 0 0)
(0.974147 0 0)
(0.974602 0 0)
(0.975059 0 0)
(0.975515 0 0)
(0.975973 0 0)
(0.976431 0 0)
(0.976889 0 0)
(0.977348 0 0)
(0.977808 0 0)
(0.978268 0 0)
(0.978729 0 0)
(0.97919 0 0)
(0.979652 0 0)
(0.980114 0 0)
(0.980577 0 0)
(0.981041 0 0)
(0.981505 0 0)
(0.981969 0 0)
(0.982435 0 0)
(0.982901 0 0)
(0.983367 0 0)
(0.983834 0 0)
(0.984302 0 0)
(0.98477 0 0)
(0.985239 0 0)
(0.985708 0 0)
(0.986178 0 0)
(0.986648 0 0)
(0.987119 0 0)
(0.987591 0 0)
(0.988063 0 0)
(0.988536 0 0)
(0.98901 0 0)
(0.989484 0 0)
(0.989958 0 0)
(0.990434 0 0)
(0.990909 0 0)
(0.991386 0 0)
(0.991863 0 0)
(0.992341 0 0)
(0.992819 0 0)
(0.993298 0 0)
(0.993777 0 0)
(0.994257 0 0)
(0.994738 0 0)
(0.995219 0 0)
(0.995701 0 0)
(0.996184 0 0)
(0.996667 0 0)
(0.997151 0 0)
(0.997635 0 0)
(0.99812 0 0)
(0.998606 0 0)
(0.999092 0 0)
(0.999579 0 0)
(1.00007 0 0)
(1.00055 0 0)
(1.00104 0 0)
(1.00153 0 0)
(1.00202 0 0)
(1.00251 0 0)
(1.00301 0 0)
(1.0035 0 0)
(1.00399 0 0)
(1.00448 0 0)
(1.00496 0 0)
(1.00585 0 0)
(0.998323 0 0)
(1.05608 0 0)
(1.12622 0 0)
(1.17041 0 0)
(1.19858 0 0)
(1.21859 0 0)
(1.2342 0 0)
(1.24729 0 0)
(1.25885 0 0)
(1.26939 0 0)
(1.27923 0 0)
(1.28854 0 0)
(1.29744 0 0)
(1.30602 0 0)
(1.31431 0 0)
(1.32237 0 0)
(1.33023 0 0)
(1.33791 0 0)
(1.34544 0 0)
(1.35282 0 0)
(1.36007 0 0)
(1.36721 0 0)
(1.37425 0 0)
(1.38119 0 0)
(1.38805 0 0)
(1.39482 0 0)
(1.40152 0 0)
(1.40815 0 0)
(1.41472 0 0)
(1.42123 0 0)
(1.42768 0 0)
(1.43409 0 0)
(1.44045 0 0)
(1.44676 0 0)
(1.45303 0 0)
(1.45927 0 0)
(1.46547 0 0)
(1.47164 0 0)
(1.47777 0 0)
(1.48388 0 0)
(1.48997 0 0)
(1.49602 0 0)
(1.50206 0 0)
(1.50807 0 0)
(1.51407 0 0)
(1.52004 0 0)
(1.526 0 0)
(1.53195 0 0)
(1.53788 0 0)
(1.5438 0 0)
(1.54971 0 0)
(1.55561 0 0)
(1.56151 0 0)
(1.56739 0 0)
(1.57327 0 0)
(1.57915 0 0)
(1.58502 0 0)
(1.5909 0 0)
(1.59677 0 0)
(1.60264 0 0)
(1.60852 0 0)
(1.61439 0 0)
(1.62028 0 0)
(1.62617 0 0)
(1.63207 0 0)
(1.63798 0 0)
(1.6439 0 0)
(1.64983 0 0)
(1.65578 0 0)
(1.66174 0 0)
(1.66773 0 0)
(1.67373 0 0)
(1.67976 0 0)
(1.68582 0 0)
(1.69191 0 0)
(1.69803 0 0)
(1.70419 0 0)
(1.71039 0 0)
(1.71664 0 0)
(1.72295 0 0)
(1.72931 0 0)
(1.73574 0 0)
(1.74225 0 0)
(1.74885 0 0)
(1.75555 0 0)
(1.76237 0 0)
(1.76933 0 0)
(1.77645 0 0)
(1.78377 0 0)
(1.79133 0 0)
(1.79919 0 0)
(1.8074 0 0)
(1.81606 0 0)
(1.82527 0 0)
(1.83517 0 0)
(1.84592 0 0)
(1.85772 0 0)
(1.87077 0 0)
(1.88527 0 0)
(1.90135 0 0)
(1.94508 0 0)
(1.96564 0 0)
(1.98485 0 0)
(2.00293 0 0)
(2.02003 0 0)
(2.03628 0 0)
(2.05179 0 0)
(2.06666 0 0)
(2.08093 0 0)
(2.09469 0 0)
(2.10798 0 0)
(2.12084 0 0)
(2.13331 0 0)
(2.14542 0 0)
(2.15721 0 0)
(2.16869 0 0)
(2.1799 0 0)
(2.19084 0 0)
(2.20154 0 0)
(2.21201 0 0)
(2.22226 0 0)
(2.23232 0 0)
(2.24219 0 0)
(2.25188 0 0)
(2.2614 0 0)
(2.27076 0 0)
(2.27997 0 0)
(2.28903 0 0)
(2.29796 0 0)
(2.30675 0 0)
(2.31542 0 0)
(2.32397 0 0)
(2.3324 0 0)
(2.34073 0 0)
(2.34894 0 0)
(2.35706 0 0)
(2.36508 0 0)
(2.373 0 0)
(2.38084 0 0)
(2.38858 0 0)
(2.39624 0 0)
(2.40382 0 0)
(2.41132 0 0)
(2.41875 0 0)
(2.4261 0 0)
(2.43338 0 0)
(2.44059 0 0)
(2.44773 0 0)
(2.45481 0 0)
(2.46182 0 0)
(2.46877 0 0)
(2.47566 0 0)
(2.48249 0 0)
(2.48927 0 0)
(2.49599 0 0)
(2.50266 0 0)
(2.50927 0 0)
(2.51583 0 0)
(2.52234 0 0)
(2.52881 0 0)
(2.53522 0 0)
(2.54159 0 0)
(2.54791 0 0)
(2.55419 0 0)
(2.56043 0 0)
(2.56662 0 0)
(2.57277 0 0)
(2.57888 0 0)
(2.58495 0 0)
(2.59098 0 0)
(2.59697 0 0)
(2.60292 0 0)
(2.60884 0 0)
(2.61472 0 0)
(2.62057 0 0)
(2.62638 0 0)
(2.63215 0 0)
(2.6379 0 0)
(2.64361 0 0)
(2.64928 0 0)
(2.65493 0 0)
(2.66054 0 0)
(2.66613 0 0)
(2.67168 0 0)
(2.6772 0 0)
(2.6827 0 0)
(2.68816 0 0)
(2.6936 0 0)
(2.69901 0 0)
(2.70439 0 0)
(2.70975 0 0)
(2.71508 0 0)
(2.72038 0 0)
(2.72565 0 0)
(2.7309 0 0)
(2.73615 0 0)
(2.74142 0 0)
(2.74669 0 0)
(2.75182 0 0)
(2.75647 0 0)
(2.76029 0 0)
(2.76362 0 0)
(2.76693 0 0)
(2.77024 0 0)
(2.77353 0 0)
(2.77681 0 0)
(2.78009 0 0)
(2.78335 0 0)
(2.7866 0 0)
(2.78985 0 0)
(2.79308 0 0)
(2.79631 0 0)
(2.79952 0 0)
(2.80273 0 0)
(2.80593 0 0)
(2.80912 0 0)
(2.8123 0 0)
(2.81547 0 0)
(2.81863 0 0)
(2.82178 0 0)
(2.82492 0 0)
(2.82806 0 0)
(2.83118 0 0)
(2.8343 0 0)
(2.83741 0 0)
(2.84051 0 0)
(2.8436 0 0)
(2.84668 0 0)
(2.84976 0 0)
(2.85282 0 0)
(2.85588 0 0)
(2.85893 0 0)
(2.86197 0 0)
(2.86501 0 0)
(2.86803 0 0)
(2.87105 0 0)
(2.87406 0 0)
(2.87707 0 0)
(2.88006 0 0)
(2.88305 0 0)
(2.88603 0 0)
(2.889 0 0)
(2.89197 0 0)
(2.89492 0 0)
(2.89787 0 0)
(2.90082 0 0)
(2.90375 0 0)
(2.90668 0 0)
(2.9096 0 0)
(2.91251 0 0)
(2.91542 0 0)
(2.91832 0 0)
(2.92121 0 0)
(2.9241 0 0)
(2.92698 0 0)
(2.92985 0 0)
(2.93271 0 0)
(2.93557 0 0)
(2.93842 0 0)
(2.94127 0 0)
(2.94411 0 0)
(2.94694 0 0)
(2.94976 0 0)
(2.95258 0 0)
(2.95539 0 0)
(2.9582 0 0)
(2.961 0 0)
(2.96379 0 0)
(2.96658 0 0)
(2.96936 0 0)
(2.97213 0 0)
(2.9749 0 0)
(2.97766 0 0)
(2.98042 0 0)
(2.98317 0 0)
(2.98591 0 0)
(2.98865 0 0)
(2.99138 0 0)
(2.9941 0 0)
(2.99682 0 0)
(2.99954 0 0)
(3.00224 0 0)
(3.00494 0 0)
(3.00764 0 0)
(3.01033 0 0)
(3.01302 0 0)
(3.01569 0 0)
(3.01837 0 0)
(3.02103 0 0)
(3.0237 0 0)
(3.02635 0 0)
(3.029 0 0)
(3.03165 0 0)
(3.03429 0 0)
(3.03692 0 0)
(3.03955 0 0)
(3.04218 0 0)
(3.04479 0 0)
(3.04741 0 0)
(3.05001 0 0)
(3.05262 0 0)
(3.05521 0 0)
(3.05781 0 0)
(3.06039 0 0)
(3.06297 0 0)
(3.06555 0 0)
(3.06812 0 0)
(3.07069 0 0)
(3.07325 0 0)
(3.0758 0 0)
(3.07835 0 0)
(3.0809 0 0)
(3.08344 0 0)
(3.08598 0 0)
(3.08851 0 0)
(3.09103 0 0)
(3.09356 0 0)
(3.09607 0 0)
(3.09858 0 0)
(3.10109 0 0)
(3.10359 0 0)
(3.10609 0 0)
(3.10858 0 0)
(3.11107 0 0)
(3.11355 0 0)
(3.11603 0 0)
(3.11851 0 0)
(3.12098 0 0)
(3.12344 0 0)
(3.1259 0 0)
(3.12836 0 0)
(3.13081 0 0)
(3.13325 0 0)
(3.1357 0 0)
(3.13813 0 0)
(3.14057 0 0)
(3.143 0 0)
(3.14542 0 0)
(3.14784 0 0)
(3.15025 0 0)
(3.15267 0 0)
(3.15507 0 0)
(3.15748 0 0)
(3.15987 0 0)
(3.16227 0 0)
(3.16466 0 0)
(3.16704 0 0)
(3.16942 0 0)
(3.1718 0 0)
(3.17417 0 0)
(3.17654 0 0)
(3.17891 0 0)
(3.18127 0 0)
(3.18362 0 0)
(3.18597 0 0)
(3.18832 0 0)
(3.19067 0 0)
(3.19301 0 0)
(3.19534 0 0)
(3.19767 0 0)
(3.2 0 0)
(3.20233 0 0)
(3.20465 0 0)
(3.20696 0 0)
(3.20927 0 0)
(3.21158 0 0)
(3.21389 0 0)
(3.21619 0 0)
(3.21848 0 0)
(3.22077 0 0)
(3.22306 0 0)
(3.22535 0 0)
(3.22763 0 0)
(3.22991 0 0)
(3.23218 0 0)
(3.23445 0 0)
(3.23672 0 0)
(3.23898 0 0)
(3.24124 0 0)
(3.24349 0 0)
(3.24574 0 0)
(3.24799 0 0)
(3.25023 0 0)
(3.25247 0 0)
(3.25471 0 0)
(3.25694 0 0)
(3.25917 0 0)
(3.2614 0 0)
(3.26362 0 0)
(3.26584 0 0)
(3.26805 0 0)
(3.27026 0 0)
(3.27247 0 0)
(3.27468 0 0)
(3.27688 0 0)
(3.27907 0 0)
(3.28127 0 0)
(3.28346 0 0)
(3.28565 0 0)
(3.28783 0 0)
(3.29001 0 0)
(3.29219 0 0)
(3.29436 0 0)
(3.29653 0 0)
(3.29869 0 0)
(3.30086 0 0)
(3.30302 0 0)
(3.30517 0 0)
(3.30733 0 0)
(3.30948 0 0)
(3.31162 0 0)
(3.31377 0 0)
(3.31591 0 0)
(3.31804 0 0)
(3.32018 0 0)
(3.32231 0 0)
(3.32443 0 0)
(3.32656 0 0)
(3.32868 0 0)
(3.33079 0 0)
(3.33291 0 0)
(3.33502 0 0)
(3.33712 0 0)
(3.33923 0 0)
(3.34133 0 0)
(3.34343 0 0)
(3.34552 0 0)
(3.34761 0 0)
(3.3497 0 0)
(3.35179 0 0)
(3.35387 0 0)
(3.35595 0 0)
(3.35803 0 0)
(3.3601 0 0)
(3.36217 0 0)
(3.36424 0 0)
(3.3663 0 0)
(3.36836 0 0)
(3.37042 0 0)
(3.37247 0 0)
(3.37453 0 0)
(3.37657 0 0)
(3.37862 0 0)
(3.38066 0 0)
(3.3827 0 0)
(3.38474 0 0)
(3.38677 0 0)
(3.38881 0 0)
(3.39083 0 0)
(3.39286 0 0)
(3.39488 0 0)
(3.3969 0 0)
(3.39892 0 0)
(3.40093 0 0)
(3.40294 0 0)
(3.40495 0 0)
(3.40696 0 0)
(3.40896 0 0)
(3.41096 0 0)
(3.41295 0 0)
(3.41495 0 0)
(3.41694 0 0)
(3.41893 0 0)
(3.42091 0 0)
(3.42289 0 0)
(3.42487 0 0)
(3.42685 0 0)
(3.42883 0 0)
(3.4308 0 0)
(3.43277 0 0)
(3.43473 0 0)
(3.43669 0 0)
(3.43866 0 0)
(3.44061 0 0)
(3.44257 0 0)
(3.44452 0 0)
(3.44647 0 0)
(3.44842 0 0)
(3.45036 0 0)
(3.4523 0 0)
(3.45424 0 0)
(3.45618 0 0)
(3.45811 0 0)
(3.46004 0 0)
(3.46197 0 0)
(3.4639 0 0)
(3.46582 0 0)
(3.46774 0 0)
(3.46966 0 0)
(3.47157 0 0)
(3.47349 0 0)
(3.4754 0 0)
(3.47731 0 0)
(3.47921 0 0)
(3.48111 0 0)
(3.48301 0 0)
(3.48491 0 0)
(3.48681 0 0)
(3.4887 0 0)
(3.49059 0 0)
(3.49247 0 0)
(3.49436 0 0)
(3.49624 0 0)
(3.49812 0 0)
(3.5 0 0)
(3.50187 0 0)
(3.50375 0 0)
(3.50562 0 0)
(3.50748 0 0)
(3.50935 0 0)
(3.51121 0 0)
(3.51307 0 0)
(3.51493 0 0)
(3.51678 0 0)
(3.51864 0 0)
(3.52049 0 0)
(3.52233 0 0)
(3.52418 0 0)
(3.52602 0 0)
(3.52786 0 0)
(3.5297 0 0)
(3.53154 0 0)
(3.53337 0 0)
(3.5352 0 0)
(3.53703 0 0)
(3.53886 0 0)
(3.54068 0 0)
(3.5425 0 0)
(3.54432 0 0)
(3.54614 0 0)
(3.54795 0 0)
(3.54976 0 0)
(3.55157 0 0)
(3.55338 0 0)
(3.55519 0 0)
(3.55699 0 0)
(3.55879 0 0)
(3.56059 0 0)
(3.56239 0 0)
(3.56418 0 0)
(3.56597 0 0)
(3.56776 0 0)
(3.56955 0 0)
(3.57133 0 0)
(3.57312 0 0)
(3.5749 0 0)
(3.57668 0 0)
(3.57842 0 0)
(3.58012 0 0)
(3.58189 0 0)
(3.58399 0 0)
(3.58635 0 0)
(3.5887 0 0)
(3.59105 0 0)
(3.59339 0 0)
(3.59573 0 0)
(3.59807 0 0)
(3.6004 0 0)
(3.60273 0 0)
(3.60506 0 0)
(3.60738 0 0)
(3.60971 0 0)
(3.61202 0 0)
(3.61434 0 0)
(3.61665 0 0)
(3.61895 0 0)
(3.62126 0 0)
(3.62356 0 0)
(3.62585 0 0)
(3.62815 0 0)
(3.63044 0 0)
(3.63272 0 0)
(3.63501 0 0)
(3.63729 0 0)
(3.63957 0 0)
(3.64184 0 0)
(3.64411 0 0)
(3.64638 0 0)
(3.64864 0 0)
(3.6509 0 0)
(3.65316 0 0)
(3.65541 0 0)
(3.65767 0 0)
(3.65991 0 0)
(3.66216 0 0)
(3.6644 0 0)
(3.66664 0 0)
(3.66887 0 0)
(3.67111 0 0)
(3.67333 0 0)
(3.67556 0 0)
(3.67778 0 0)
(3.68 0 0)
(3.68222 0 0)
(3.68443 0 0)
(3.68664 0 0)
(3.68885 0 0)
(3.69105 0 0)
(3.69325 0 0)
(3.69545 0 0)
(3.69765 0 0)
(3.69984 0 0)
(3.70203 0 0)
(3.70421 0 0)
(3.7064 0 0)
(3.70858 0 0)
(3.71075 0 0)
(3.71293 0 0)
(3.7151 0 0)
(3.71727 0 0)
(3.71943 0 0)
(3.72159 0 0)
(3.72375 0 0)
(3.72591 0 0)
(3.72806 0 0)
(3.73021 0 0)
(3.73236 0 0)
(3.7345 0 0)
(3.73664 0 0)
(3.73878 0 0)
(3.74092 0 0)
(3.74305 0 0)
(3.74518 0 0)
(3.74731 0 0)
(3.74943 0 0)
(3.75155 0 0)
(3.75367 0 0)
(3.75579 0 0)
(3.7579 0 0)
(3.76001 0 0)
(3.76212 0 0)
(3.76422 0 0)
(3.76632 0 0)
(3.76842 0 0)
(3.77052 0 0)
(3.77261 0 0)
(3.7747 0 0)
(3.77679 0 0)
(3.77887 0 0)
(3.78096 0 0)
(3.78304 0 0)
(3.78511 0 0)
(3.78719 0 0)
(3.78926 0 0)
(3.79133 0 0)
(3.79339 0 0)
(3.79545 0 0)
(3.79751 0 0)
(3.79957 0 0)
(3.80163 0 0)
(3.80368 0 0)
(3.80573 0 0)
(3.80778 0 0)
(3.80982 0 0)
(3.81186 0 0)
(3.8139 0 0)
(3.81594 0 0)
(3.81797 0 0)
(3.82 0 0)
(3.82203 0 0)
(3.82405 0 0)
(3.82608 0 0)
(3.8281 0 0)
(3.83012 0 0)
(3.83213 0 0)
(3.83414 0 0)
(3.83615 0 0)
(3.83816 0 0)
(3.84017 0 0)
(3.84217 0 0)
(3.84417 0 0)
(3.84617 0 0)
(3.84816 0 0)
(3.85015 0 0)
(3.85214 0 0)
(3.85413 0 0)
(3.85611 0 0)
(3.8581 0 0)
(3.86008 0 0)
(3.86205 0 0)
(3.86403 0 0)
(3.866 0 0)
(3.86797 0 0)
(3.86994 0 0)
(3.8719 0 0)
(3.87386 0 0)
(3.87582 0 0)
(3.87778 0 0)
(3.87974 0 0)
(3.88169 0 0)
(3.88364 0 0)
(3.88558 0 0)
(3.88753 0 0)
(3.88947 0 0)
(3.89141 0 0)
(3.89335 0 0)
(3.89529 0 0)
(3.89722 0 0)
(3.89915 0 0)
(3.90108 0 0)
(3.903 0 0)
(3.90493 0 0)
(3.90685 0 0)
(3.90877 0 0)
(3.91068 0 0)
(3.9126 0 0)
(3.91451 0 0)
(3.91642 0 0)
(3.91832 0 0)
(3.92023 0 0)
(3.92213 0 0)
(3.92403 0 0)
(3.92593 0 0)
(3.92782 0 0)
(3.92971 0 0)
(3.9316 0 0)
(3.93349 0 0)
(3.93538 0 0)
(3.93726 0 0)
(3.93914 0 0)
(3.94102 0 0)
(3.9429 0 0)
(3.94478 0 0)
(3.94663 0 0)
(3.94845 0 0)
(3.95033 0 0)
(3.95243 0 0)
(3.95478 0 0)
(3.95669 0 0)
(3.95621 0 0)
(3.95358 0 0)
(3.95244 0 0)
(3.95307 0 0)
(3.95353 0 0)
(3.95395 0 0)
(3.95436 0 0)
(3.95465 0 0)
(3.95473 0 0)
(3.95463 0 0)
(3.95449 0 0)
(3.95433 0 0)
(3.95408 0 0)
(3.95365 0 0)
(3.95307 0 0)
(3.95242 0 0)
(3.95166 0 0)
(3.95078 0 0)
(3.9498 0 0)
(3.94865 0 0)
(3.94744 0 0)
(3.94612 0 0)
(3.94472 0 0)
(3.94326 0 0)
(3.94165 0 0)
(3.93988 0 0)
(3.93798 0 0)
(3.93597 0 0)
(3.93388 0 0)
(3.93171 0 0)
(3.92939 0 0)
(3.92693 0 0)
(3.92434 0 0)
(3.92166 0 0)
(3.91893 0 0)
(3.91608 0 0)
(3.91313 0 0)
(3.91009 0 0)
(3.90688 0 0)
(3.90353 0 0)
(3.90014 0 0)
(3.89662 0 0)
(3.89289 0 0)
(3.88907 0 0)
(3.88518 0 0)
(3.88116 0 0)
(3.87706 0 0)
(3.87287 0 0)
(3.86853 0 0)
(3.86408 0 0)
(3.85955 0 0)
(3.85493 0 0)
(3.85015 0 0)
(3.84521 0 0)
(3.84013 0 0)
(3.83497 0 0)
(3.82972 0 0)
(3.82436 0 0)
(3.81891 0 0)
(3.81337 0 0)
(3.80765 0 0)
(3.80177 0 0)
(3.79574 0 0)
(3.78963 0 0)
(3.78347 0 0)
(3.77721 0 0)
(3.77086 0 0)
(3.76434 0 0)
(3.75765 0 0)
(3.75082 0 0)
(3.74388 0 0)
(3.73684 0 0)
(3.72966 0 0)
(3.72236 0 0)
(3.71499 0 0)
(3.70747 0 0)
(3.69986 0 0)
(3.69214 0 0)
(3.68422 0 0)
(3.67609 0 0)
(3.6678 0 0)
(3.6594 0 0)
(3.65099 0 0)
(3.64254 0 0)
(3.63405 0 0)
(3.62553 0 0)
(3.61679 0 0)
(3.60747 0 0)
(3.59737 0 0)
(3.58669 0 0)
(3.57637 0 0)
(3.56794 0 0)
(3.56275 0 0)
(3.55998 0 0)
(3.55476 0 0)
(3.53856 0 0)
(3.5041 0 0)
(3.45539 0 0)
(3.41662 0 0)
(3.43107 0 0)
(3.5428 0 0)
(3.75158 0 0)
(4.02186 0 0)
(4.02369 0 0)
(4.02552 0 0)
(4.02734 0 0)
(4.02916 0 0)
(4.03098 0 0)
(4.03279 0 0)
(4.03461 0 0)
(4.03642 0 0)
(4.03823 0 0)
(4.04004 0 0)
(4.04184 0 0)
(4.04364 0 0)
(4.04545 0 0)
(4.04724 0 0)
(4.04904 0 0)
(4.05084 0 0)
(4.05263 0 0)
(4.05442 0 0)
(4.05621 0 0)
(4.05799 0 0)
(4.05978 0 0)
(4.06156 0 0)
(4.06334 0 0)
(4.06512 0 0)
(4.0669 0 0)
(4.06867 0 0)
(4.07044 0 0)
(4.07221 0 0)
(4.07398 0 0)
(4.07574 0 0)
(4.07751 0 0)
(4.07927 0 0)
(4.08103 0 0)
(4.08279 0 0)
(4.08454 0 0)
(4.0863 0 0)
(4.08805 0 0)
(4.0898 0 0)
(4.09154 0 0)
(4.09329 0 0)
(4.09503 0 0)
(4.09677 0 0)
(4.09851 0 0)
(4.10025 0 0)
(4.10199 0 0)
(4.10372 0 0)
(4.10545 0 0)
(4.10718 0 0)
(4.10891 0 0)
(4.11063 0 0)
(4.11236 0 0)
(4.11408 0 0)
(4.1158 0 0)
(4.11751 0 0)
(4.11923 0 0)
(4.12094 0 0)
(4.12265 0 0)
(4.12436 0 0)
(4.12607 0 0)
(4.12778 0 0)
(4.12948 0 0)
(4.13118 0 0)
(4.13288 0 0)
(4.13458 0 0)
(4.13628 0 0)
(4.13797 0 0)
(4.13966 0 0)
(4.14135 0 0)
(4.14304 0 0)
(4.14473 0 0)
(4.14641 0 0)
(4.14809 0 0)
(4.14978 0 0)
(4.15145 0 0)
(4.15313 0 0)
(4.15481 0 0)
(4.15648 0 0)
(4.15815 0 0)
(4.15982 0 0)
(4.16149 0 0)
(4.16315 0 0)
(4.16481 0 0)
(4.16646 0 0)
(4.16813 0 0)
(4.16988 0 0)
(4.1717 0 0)
(4.17326 0 0)
(4.17386 0 0)
(4.17376 0 0)
(4.17366 0 0)
(4.17357 0 0)
(4.17347 0 0)
(4.17338 0 0)
(4.17328 0 0)
(4.17319 0 0)
(4.17309 0 0)
(4.173 0 0)
(4.1729 0 0)
(4.17281 0 0)
(4.17271 0 0)
(4.17262 0 0)
(4.17252 0 0)
(4.17243 0 0)
(4.17234 0 0)
(4.17224 0 0)
(4.17215 0 0)
(4.17205 0 0)
(4.17196 0 0)
(4.17186 0 0)
(4.17177 0 0)
(4.17167 0 0)
(4.17158 0 0)
(4.17149 0 0)
(4.17139 0 0)
(4.1713 0 0)
(4.1712 0 0)
(4.17111 0 0)
(4.17102 0 0)
(4.17092 0 0)
(4.17083 0 0)
(4.17074 0 0)
(4.17064 0 0)
(4.17055 0 0)
(4.17046 0 0)
(4.17036 0 0)
(4.17027 0 0)
(4.17018 0 0)
(4.17008 0 0)
(4.16999 0 0)
(4.1699 0 0)
(4.1698 0 0)
(4.16971 0 0)
(4.16962 0 0)
(4.16952 0 0)
(4.16943 0 0)
(4.16934 0 0)
(4.16925 0 0)
(4.16915 0 0)
(4.16906 0 0)
(4.16897 0 0)
(4.16887 0 0)
(4.16878 0 0)
(4.16869 0 0)
(4.1686 0 0)
(4.16851 0 0)
(4.16841 0 0)
(4.16832 0 0)
(4.16823 0 0)
(4.16814 0 0)
(4.16804 0 0)
(4.16795 0 0)
(4.16786 0 0)
(4.16777 0 0)
(4.16768 0 0)
(4.16758 0 0)
(4.16749 0 0)
(4.1674 0 0)
(4.16731 0 0)
(4.16722 0 0)
(4.16713 0 0)
(4.16704 0 0)
(4.16694 0 0)
(4.16685 0 0)
(4.16676 0 0)
(4.16667 0 0)
(4.16658 0 0)
(4.16649 0 0)
(4.1664 0 0)
(4.16631 0 0)
(4.16621 0 0)
(4.16612 0 0)
(4.16603 0 0)
(4.16594 0 0)
(4.16585 0 0)
(4.16576 0 0)
(4.16567 0 0)
(4.16558 0 0)
(4.16549 0 0)
(4.1654 0 0)
(4.16531 0 0)
(4.16522 0 0)
(4.16513 0 0)
(4.16504 0 0)
(4.16495 0 0)
(4.16486 0 0)
(4.16477 0 0)
(4.16468 0 0)
(4.16459 0 0)
(4.1645 0 0)
(4.16441 0 0)
(4.16432 0 0)
(4.16423 0 0)
(4.16414 0 0)
(4.16405 0 0)
(4.16396 0 0)
(4.16387 0 0)
(4.16378 0 0)
(4.16369 0 0)
(4.1636 0 0)
(4.16351 0 0)
(4.16342 0 0)
(4.16333 0 0)
(4.16324 0 0)
(4.16315 0 0)
(4.16306 0 0)
(4.16298 0 0)
(4.16289 0 0)
(4.1628 0 0)
(4.16271 0 0)
(4.16262 0 0)
(4.16253 0 0)
(4.16244 0 0)
(4.16235 0 0)
(4.16227 0 0)
(4.16218 0 0)
(4.16209 0 0)
(4.162 0 0)
(4.16191 0 0)
(4.16182 0 0)
(4.16173 0 0)
(4.16165 0 0)
(4.16156 0 0)
(4.16147 0 0)
(4.16138 0 0)
(4.16129 0 0)
(4.16121 0 0)
(4.16112 0 0)
(4.16103 0 0)
(4.16094 0 0)
(4.16085 0 0)
(4.16077 0 0)
(4.16068 0 0)
(4.16059 0 0)
(4.1605 0 0)
(4.16042 0 0)
(4.16033 0 0)
(4.16024 0 0)
(4.16015 0 0)
(4.16007 0 0)
(4.15998 0 0)
(4.15989 0 0)
(4.15981 0 0)
(4.15972 0 0)
(4.15963 0 0)
(4.15954 0 0)
(4.15946 0 0)
(4.15937 0 0)
(4.15928 0 0)
(4.1592 0 0)
(4.15911 0 0)
(4.15902 0 0)
(4.15894 0 0)
(4.15885 0 0)
(4.15876 0 0)
(4.15868 0 0)
(4.15859 0 0)
(4.1585 0 0)
(4.15842 0 0)
(4.15833 0 0)
(4.15825 0 0)
(4.15816 0 0)
(4.15807 0 0)
(4.15799 0 0)
(4.1579 0 0)
(4.15781 0 0)
(4.15773 0 0)
(4.15764 0 0)
(4.15756 0 0)
(4.15747 0 0)
(4.15739 0 0)
(4.1573 0 0)
(4.15721 0 0)
(4.15713 0 0)
(4.15704 0 0)
(4.15696 0 0)
(4.15687 0 0)
(4.15679 0 0)
(4.1567 0 0)
(4.15662 0 0)
(4.15653 0 0)
(4.15645 0 0)
(4.15636 0 0)
(4.15628 0 0)
(4.15619 0 0)
(4.15611 0 0)
(4.15602 0 0)
(4.15594 0 0)
(4.15585 0 0)
(4.15577 0 0)
(4.15568 0 0)
(4.1556 0 0)
(4.15551 0 0)
(4.15543 0 0)
(4.15534 0 0)
(4.15526 0 0)
(4.15517 0 0)
(4.15509 0 0)
(4.15501 0 0)
(4.15492 0 0)
(4.15484 0 0)
(4.15475 0 0)
(4.15467 0 0)
(4.15459 0 0)
(4.1545 0 0)
(4.15442 0 0)
(4.15433 0 0)
(4.15425 0 0)
(4.15417 0 0)
(4.15408 0 0)
(4.154 0 0)
(4.15391 0 0)
(4.15383 0 0)
(4.15375 0 0)
(4.15366 0 0)
(4.15358 0 0)
(4.1535 0 0)
(4.15341 0 0)
(4.15333 0 0)
(4.15325 0 0)
(4.15316 0 0)
(4.15308 0 0)
(4.153 0 0)
(4.15291 0 0)
(4.15283 0 0)
(4.15275 0 0)
(4.15267 0 0)
(4.15258 0 0)
(4.1525 0 0)
(4.15242 0 0)
(4.15233 0 0)
(4.15225 0 0)
(4.15217 0 0)
(4.15209 0 0)
(4.152 0 0)
(4.15192 0 0)
(4.15184 0 0)
(4.15176 0 0)
(4.15167 0 0)
(4.15159 0 0)
(4.15151 0 0)
(4.15143 0 0)
(4.15135 0 0)
(4.15126 0 0)
(4.15118 0 0)
(4.1511 0 0)
(4.15102 0 0)
(4.15094 0 0)
(4.15085 0 0)
(4.15077 0 0)
(4.15069 0 0)
(4.15061 0 0)
(4.15053 0 0)
(4.15044 0 0)
(4.15036 0 0)
(4.15029 0 0)
(4.15022 0 0)
(4.15012 0 0)
(4.14997 0 0)
(4.14977 0 0)
(4.1498 0 0)
(4.15058 0 0)
(4.15195 0 0)
(4.15081 0 0)
(4.14073 0 0)
(4.12268 0 0)
(4.13204 0 0)
(4.24985 0 0)
(4.48684 0 0)
(4.39475 0 0)
(3.19784 0 0)
(1.64319 0 0)
(0.997827 0 0)
(0.923127 0 0)
(0.921804 0 0)
(0.921327 0 0)
(0.920846 0 0)
(0.920366 0 0)
(0.919885 0 0)
(0.919405 0 0)
(0.918926 0 0)
(0.918446 0 0)
(0.917967 0 0)
(0.917488 0 0)
(0.917009 0 0)
(0.91653 0 0)
(0.916051 0 0)
(0.915574 0 0)
(0.915092 0 0)
(0.914634 0 0)
(0.91439 0 0)
(0.914331 0 0)
(0.914271 0 0)
(0.91421 0 0)
(0.914149 0 0)
(0.914087 0 0)
(0.914025 0 0)
(0.913962 0 0)
(0.913898 0 0)
(0.913835 0 0)
(0.91377 0 0)
(0.913705 0 0)
(0.913639 0 0)
(0.913573 0 0)
(0.913506 0 0)
(0.913438 0 0)
(0.91337 0 0)
(0.913301 0 0)
(0.913231 0 0)
(0.913161 0 0)
(0.91309 0 0)
(0.913018 0 0)
(0.912945 0 0)
(0.912872 0 0)
(0.912798 0 0)
(0.912723 0 0)
(0.912647 0 0)
(0.91257 0 0)
(0.912493 0 0)
(0.912415 0 0)
(0.912336 0 0)
(0.912255 0 0)
(0.912174 0 0)
(0.912093 0 0)
(0.91201 0 0)
(0.911926 0 0)
(0.911842 0 0)
(0.911756 0 0)
(0.911669 0 0)
(0.911582 0 0)
(0.911494 0 0)
(0.911404 0 0)
(0.911314 0 0)
(0.911222 0 0)
(0.91113 0 0)
(0.911037 0 0)
(0.910942 0 0)
(0.910847 0 0)
(0.910751 0 0)
(0.910654 0 0)
(0.910555 0 0)
(0.910456 0 0)
(0.910356 0 0)
(0.910255 0 0)
(0.910153 0 0)
(0.91005 0 0)
(0.909946 0 0)
(0.909841 0 0)
(0.909735 0 0)
(0.909629 0 0)
(0.909521 0 0)
(0.909412 0 0)
(0.909303 0 0)
(0.909193 0 0)
(0.909082 0 0)
(0.90897 0 0)
(0.908858 0 0)
(0.908745 0 0)
(0.908631 0 0)
(0.908516 0 0)
(0.9084 0 0)
(0.908284 0 0)
(0.908168 0 0)
(0.908051 0 0)
(0.907933 0 0)
(0.907814 0 0)
(0.907695 0 0)
(0.907576 0 0)
(0.907456 0 0)
(0.907336 0 0)
(0.907216 0 0)
(0.907095 0 0)
(0.906973 0 0)
(0.906852 0 0)
(0.90673 0 0)
(0.906608 0 0)
(0.906486 0 0)
(0.906364 0 0)
(0.906241 0 0)
(0.906119 0 0)
(0.905996 0 0)
(0.905874 0 0)
(0.905752 0 0)
(0.905629 0 0)
(0.905507 0 0)
(0.905385 0 0)
(0.905263 0 0)
(0.905141 0 0)
(0.90502 0 0)
(0.904899 0 0)
(0.904778 0 0)
(0.904657 0 0)
(0.904537 0 0)
(0.904417 0 0)
(0.904298 0 0)
(0.904179 0 0)
(0.904061 0 0)
(0.903943 0 0)
(0.903825 0 0)
(0.903709 0 0)
(0.903592 0 0)
(0.903477 0 0)
(0.903362 0 0)
(0.903248 0 0)
(0.903134 0 0)
(0.903021 0 0)
(0.902909 0 0)
(0.902797 0 0)
(0.902686 0 0)
(0.902576 0 0)
(0.902467 0 0)
(0.902359 0 0)
(0.902251 0 0)
(0.902144 0 0)
(0.902038 0 0)
(0.901933 0 0)
(0.901828 0 0)
(0.901724 0 0)
(0.901622 0 0)
(0.90152 0 0)
(0.901418 0 0)
(0.901318 0 0)
(0.901219 0 0)
(0.90112 0 0)
(0.901022 0 0)
(0.900925 0 0)
(0.900829 0 0)
(0.900734 0 0)
(0.900639 0 0)
(0.900546 0 0)
(0.900453 0 0)
(0.900361 0 0)
(0.90027 0 0)
(0.900179 0 0)
(0.90009 0 0)
(0.900001 0 0)
(0.899913 0 0)
(0.899825 0 0)
(0.899739 0 0)
(0.899653 0 0)
(0.899568 0 0)
(0.899484 0 0)
(0.8994 0 0)
(0.899317 0 0)
(0.899235 0 0)
(0.899154 0 0)
(0.899073 0 0)
(0.898993 0 0)
(0.898913 0 0)
(0.898834 0 0)
(0.898756 0 0)
(0.898678 0 0)
(0.898601 0 0)
(0.898525 0 0)
(0.898449 0 0)
(0.898374 0 0)
(0.898299 0 0)
(0.898225 0 0)
(0.898151 0 0)
(0.898078 0 0)
(0.898006 0 0)
(0.897934 0 0)
(0.897862 0 0)
(0.897791 0 0)
(0.89772 0 0)
(0.89765 0 0)
(0.89758 0 0)
(0.897511 0 0)
(0.897442 0 0)
(0.897374 0 0)
(0.897306 0 0)
(0.897238 0 0)
(0.897171 0 0)
(0.897104 0 0)
(0.897037 0 0)
(0.896971 0 0)
(0.896905 0 0)
(0.89684 0 0)
(0.896775 0 0)
(0.89671 0 0)
(0.896646 0 0)
(0.896581 0 0)
(0.896518 0 0)
(0.896454 0 0)
(0.896391 0 0)
(0.896328 0 0)
(0.896265 0 0)
(0.896203 0 0)
(0.89614 0 0)
(0.896079 0 0)
(0.896017 0 0)
(0.895955 0 0)
(0.895894 0 0)
(0.895833 0 0)
(0.895773 0 0)
(0.895712 0 0)
(0.895652 0 0)
(0.895592 0 0)
(0.895532 0 0)
(0.895472 0 0)
(0.895413 0 0)
(0.895353 0 0)
(0.895294 0 0)
(0.895235 0 0)
(0.895176 0 0)
(0.895118 0 0)
(0.895059 0 0)
(0.895001 0 0)
(0.894943 0 0)
(0.894885 0 0)
(0.894827 0 0)
(0.89477 0 0)
(0.894712 0 0)
(0.894655 0 0)
(0.894597 0 0)
(0.89454 0 0)
(0.894483 0 0)
(0.894426 0 0)
(0.89437 0 0)
(0.894313 0 0)
(0.894257 0 0)
(0.8942 0 0)
(0.894144 0 0)
(0.894088 0 0)
(0.894032 0 0)
(0.893976 0 0)
(0.89392 0 0)
(0.893864 0 0)
(0.893808 0 0)
(0.893753 0 0)
(0.893697 0 0)
(0.893642 0 0)
(0.893587 0 0)
(0.893532 0 0)
(0.893476 0 0)
(0.893422 0 0)
(0.893367 0 0)
(0.893312 0 0)
(0.893257 0 0)
(0.893202 0 0)
(0.893148 0 0)
(0.893093 0 0)
(0.893039 0 0)
(0.892985 0 0)
(0.892931 0 0)
(0.892876 0 0)
(0.892822 0 0)
(0.892769 0 0)
(0.892715 0 0)
(0.892661 0 0)
(0.892607 0 0)
(0.892554 0 0)
(0.8925 0 0)
(0.892447 0 0)
(0.892394 0 0)
(0.892341 0 0)
(0.892288 0 0)
(0.892235 0 0)
(0.892182 0 0)
(0.89213 0 0)
(0.892077 0 0)
(0.892025 0 0)
(0.891973 0 0)
(0.891921 0 0)
(0.891869 0 0)
(0.891817 0 0)
(0.891765 0 0)
(0.891714 0 0)
(0.891662 0 0)
(0.891611 0 0)
(0.89156 0 0)
(0.891509 0 0)
(0.891459 0 0)
(0.891408 0 0)
(0.891358 0 0)
(0.891308 0 0)
(0.891258 0 0)
(0.891208 0 0)
(0.891159 0 0)
(0.891109 0 0)
(0.89106 0 0)
(0.891012 0 0)
(0.890963 0 0)
(0.890915 0 0)
(0.890867 0 0)
(0.890819 0 0)
(0.890771 0 0)
(0.890724 0 0)
(0.890677 0 0)
(0.89063 0 0)
(0.890584 0 0)
(0.890537 0 0)
(0.890492 0 0)
(0.890446 0 0)
(0.890401 0 0)
(0.890356 0 0)
(0.890311 0 0)
(0.890267 0 0)
(0.890223 0 0)
(0.890179 0 0)
(0.890135 0 0)
(0.890092 0 0)
(0.89005 0 0)
(0.890007 0 0)
(0.889965 0 0)
(0.889924 0 0)
(0.889882 0 0)
(0.889842 0 0)
(0.889801 0 0)
(0.889761 0 0)
(0.889721 0 0)
(0.889682 0 0)
(0.889643 0 0)
(0.889604 0 0)
(0.889566 0 0)
(0.889528 0 0)
(0.88949 0 0)
(0.889453 0 0)
(0.889416 0 0)
(0.88938 0 0)
(0.889344 0 0)
(0.889308 0 0)
(0.889273 0 0)
(0.889239 0 0)
(0.889204 0 0)
(0.88917 0 0)
(0.889137 0 0)
(0.889104 0 0)
(0.889071 0 0)
(0.889039 0 0)
(0.889007 0 0)
(0.888975 0 0)
(0.888944 0 0)
(0.888913 0 0)
(0.888883 0 0)
(0.888853 0 0)
(0.888823 0 0)
(0.888794 0 0)
(0.888765 0 0)
(0.888737 0 0)
(0.888709 0 0)
(0.888682 0 0)
(0.888654 0 0)
(0.888628 0 0)
(0.888601 0 0)
(0.888575 0 0)
(0.888549 0 0)
(0.888524 0 0)
(0.888499 0 0)
(0.888475 0 0)
(0.888451 0 0)
(0.888427 0 0)
(0.888404 0 0)
(0.888381 0 0)
(0.888358 0 0)
(0.888336 0 0)
(0.888314 0 0)
(0.888292 0 0)
(0.888271 0 0)
(0.88825 0 0)
(0.88823 0 0)
(0.888209 0 0)
(0.88819 0 0)
(0.88817 0 0)
(0.888151 0 0)
(0.888132 0 0)
(0.888114 0 0)
(0.888096 0 0)
(0.888078 0 0)
(0.888061 0 0)
(0.888044 0 0)
(0.888027 0 0)
(0.888011 0 0)
(0.887995 0 0)
(0.887979 0 0)
(0.887964 0 0)
(0.887949 0 0)
(0.887935 0 0)
(0.88792 0 0)
(0.887906 0 0)
(0.887893 0 0)
(0.88788 0 0)
(0.887867 0 0)
(0.887854 0 0)
(0.887842 0 0)
(0.88783 0 0)
(0.887819 0 0)
(0.887807 0 0)
(0.887797 0 0)
(0.887786 0 0)
(0.887776 0 0)
(0.887766 0 0)
(0.887757 0 0)
(0.887748 0 0)
(0.887739 0 0)
(0.887731 0 0)
(0.887723 0 0)
(0.887715 0 0)
(0.887708 0 0)
(0.887701 0 0)
(0.887694 0 0)
(0.887688 0 0)
(0.887682 0 0)
(0.887677 0 0)
(0.887672 0 0)
(0.887667 0 0)
(0.887663 0 0)
(0.887659 0 0)
(0.887656 0 0)
(0.887653 0 0)
(0.88765 0 0)
(0.887648 0 0)
(0.887646 0 0)
(0.887644 0 0)
(0.887643 0 0)
(0.887643 0 0)
(0.887643 0 0)
(0.887643 0 0)
(0.887644 0 0)
(0.887645 0 0)
(0.887646 0 0)
(0.887648 0 0)
(0.887651 0 0)