/*--------------------------------*- C++ -*----------------------------------*\
| =========                 |                                                 |
| \\      /  F ield         | foam-extend: Open Source CFD                    |
|  \\    /   O peration     | Version:     3.1                                |
|   \\  /    A nd           | Web:         http://www.extend-project.de       |
|    \\/     M anipulation  |                                                 |
\*---------------------------------------------------------------------------*/
FoamFile
{
    version     2.0;
    format      ascii;
    class       volScalarField;
    location    "19.5";
    object      k;
}
// * * * * * * * * * * * * * * * * * * * * * * * * * * * * * * * * * * * * * //

dimensions      [0 2 -2 0 0 0 0];

internalField   nonuniform List<scalar> 
119952
(
0.07939052
0.07593491
0.07515315
0.07349255
0.07170086
0.07031113
0.06981901
0.06977649
0.06996986
0.07028888
0.07067648
0.07109664
0.07152601
0.07194685
0.07234772
0.07271485
0.07303968
0.07333095
0.07364602
0.07431397
0.07667584
0.0744004
0.07416271
0.07612284
0.07280381
0.07082611
0.06917474
0.0676409
0.0649909
0.02854104
0.09515998
0.09349623
0.09148245
0.09012462
0.0895085
0.08952584
0.08995638
0.09063747
0.09142329
0.09224078
0.08742379
0.0870793
0.08906549
0.09206138
0.09530495
0.09839017
0.101187
0.1036266
0.1056879
0.1145474
0.1156275
0.1162906
0.1165575
0.1166199
0.1166508
0.1167192
0.1168331
0.1169875
0.1170953
0.117625
0.1179693
0.1181627
0.1183077
0.118424
0.1185072
0.1185245
0.1184166
0.1183497
0.1205086
0.1204586
0.1196673
0.1196093
0.1196979
0.1195696
0.1190594
0.1183109
0.1174938
0.1166656
0.1158643
0.1151299
0.114482
0.1139081
0.1133763
0.1128532
0.1123115
0.1117345
0.1111134
0.1104426
0.109953
0.1096156
0.1089616
0.1087557
0.109393
0.109681
0.1096773
0.1099097
0.1101628
0.1081591
0.1062756
0.1048251
0.1035507
0.1025074
0.1015956
0.1007792
0.1000597
0.09944102
0.09891946
0.09847643
0.09808015
0.09768748
0.09726032
0.09678562
0.09627432
0.09574723
0.09522229
0.09470856
0.09420781
0.09372034
0.093249
0.09279951
0.09237797
0.09198815
0.09163086
0.09130543
0.09101052
0.09074346
0.09050023
0.09027699
0.09007089
0.08987862
0.08969466
0.08951236
0.08932517
0.08912555
0.08890296
0.08864807
0.08837037
0.08816528
0.08832527
0.08916842
0.09078595
0.0929152
0.09506044
0.096701
0.09747987
0.09729983
0.09631476
0.09487005
0.09297076
0.09084461
0.08865986
0.0865718
0.08464799
0.08287591
0.08122046
0.0796585
0.07816147
0.07673462
0.07539951
0.07417781
0.07307971
0.07210342
0.07123695
0.07046128
0.06975487
0.06909885
0.06846908
0.06784299
0.067202
0.06653023
0.06581564
0.06505008
0.06422935
0.06335372
0.06242914
0.06146785
0.06048664
0.05950405
0.05853817
0.05760474
0.05671619
0.05588152
0.05510686
0.0543966
0.05375451
0.05318477
0.05269241
0.05228343
0.05196434
0.05174237
0.05162578
0.05162585
0.05175575
0.05203186
0.0524697
0.0530796
0.05384408
0.05387571
0.05345961
0.05370841
0.05442744
0.05550577
0.05690802
0.05864234
0.06072988
0.06319394
0.0660469
0.06928698
0.07292342
0.07700011
0.08161582
0.08693313
0.09311745
0.1000975
0.1074625
0.114624
0.1209917
0.1259793
0.1288707
0.1286129
0.1244358
0.1172092
0.1086863
0.09974437
0.0911285
0.08326956
0.07629562
0.07012005
0.06475359
0.0611744
0.06058249
0.06279824
0.06450292
0.06359507
0.06097963
0.05797057
0.05529873
0.05344057
0.05263662
0.05261327
0.05292467
0.05329333
0.05366852
0.0540152
0.05423362
0.05418467
0.0537223
0.05275848
0.05132688
0.0495812
0.0477037
0.04596594
0.04456332
0.04354176
0.04280783
0.04228182
0.04190886
0.04164593
0.04145757
0.04131376
0.04119104
0.04106909
0.04093835
0.04081846
0.04077039
0.04087255
0.04113676
0.04294374
0.04336853
0.04380866
0.04412208
0.04434826
0.04447671
0.04446216
0.04424588
0.04378325
0.04305525
0.04206011
0.04084582
0.03952625
0.03819653
0.03694165
0.03582299
0.03485147
0.03401468
0.03329896
0.0326822
0.03214488
0.03167144
0.03125315
0.03088524
0.03056467
0.03028887
0.03005557
0.02986289
0.02970919
0.0295921
0.0295085
0.0294547
0.02942667
0.02942019
0.0294309
0.02945448
0.0294869
0.02952484
0.02956614
0.02960972
0.029655
0.02970124
0.02974627
0.02978685
0.02982503
0.02986581
0.02988547
0.02989735
0.02990388
0.02990343
0.0298962
0.02988192
0.02985986
0.0298591
0.02995953
0.02984854
0.02970193
0.0295255
0.02930217
0.02902951
0.02871272
0.02836237
0.02798711
0.0275966
0.02720158
0.02681074
0.02643329
0.02607553
0.02574056
0.02543066
0.02514758
0.02489244
0.02466565
0.02446723
0.02429649
0.02415206
0.02403215
0.02393468
0.02385766
0.0237995
0.0237589
0.02373473
0.02372598
0.02373186
0.02375188
0.02378569
0.02383266
0.02389135
0.02395911
0.02403239
0.02410775
0.02418307
0.02425795
0.0243331
0.0244091
0.0244854
0.02456013
0.02463033
0.02469235
0.02474404
0.02478154
0.02480292
0.02480818
0.02479811
0.02477471
0.02474162
0.0247004
0.02465157
0.02459614
0.02453537
0.02446901
0.02439696
0.02431961
0.02423773
0.0241525
0.02406543
0.02397832
0.02389314
0.02381192
0.02373655
0.02366866
0.02360948
0.02355982
0.02352007
0.02349032
0.02347053
0.02346046
0.02345971
0.02346726
0.02348161
0.02350033
0.0235211
0.02354162
0.02355953
0.02356993
0.023564
0.02351429
0.02343471
0.02386467
0.1105375
0.1029228
0.1030829
0.1062028
0.1102486
0.1142228
0.1177447
0.1207158
0.1231722
0.1231267
0.1267189
0.1330126
0.1399495
0.1466184
0.1523978
0.1571862
0.161087
0.1641848
0.1853019
0.1855154
0.18559
0.1852486
0.1847209
0.1842488
0.183892
0.1836708
0.1835511
0.1833573
0.1833724
0.1832833
0.1827791
0.1820754
0.1813099
0.1805665
0.1798813
0.1792557
0.1786359
0.1782117
0.1778816
0.1771877
0.1762989
0.1753667
0.1744482
0.1735714
0.1727405
0.1719276
0.1711051
0.1703087
0.1694466
0.1685985
0.1678137
0.1670942
0.1664317
0.1658034
0.1651696
0.164508
0.1731087
0.1721126
0.171147
0.170279
0.1695132
0.1688272
0.16818
0.1675226
0.1668279
0.1660729
0.1652794
0.1645184
0.1638168
0.1631861
0.1626218
0.1620885
0.1615574
0.161054
0.1607157
0.1603186
0.1595256
0.1587337
0.1581602
0.1576488
0.1570422
0.1563113
0.1554658
0.1544997
0.1534744
0.1524478
0.1514794
0.1506
0.1498073
0.1490685
0.148334
0.1475606
0.1467343
0.1458778
0.1450504
0.1443162
0.143649
0.1431247
0.1428722
0.1427563
0.142388
0.1417912
0.1408604
0.1394888
0.1378423
0.136411
0.135231
0.134182
0.1332042
0.1322513
0.1313105
0.1303957
0.1295212
0.1286962
0.127919
0.1271562
0.1263482
0.125451
0.1244614
0.1234062
0.1223213
0.1212343
0.1201594
0.1191022
0.1180659
0.1170559
0.1160807
0.1151493
0.1142701
0.1134513
0.1127022
0.1120307
0.111442
0.1109402
0.1105311
0.1102194
0.1100047
0.1098793
0.1098277
0.1098224
0.1098124
0.1097231
0.1094702
0.1089894
0.1082858
0.1074704
0.1067243
0.1062271
0.1061067
0.1064172
0.1071069
0.1079872
0.1089255
0.1097886
0.1104515
0.1108161
0.1108402
0.1105344
0.109938
0.1091072
0.1081025
0.1069783
0.1057768
0.1045224
0.1032282
0.1019425
0.1007071
0.09955289
0.09850057
0.09756146
0.09673817
0.09602232
0.09540367
0.09486649
0.09438836
0.09394259
0.09349977
0.0930299
0.09250419
0.09189724
0.09118942
0.09036893
0.08943285
0.08838678
0.08724351
0.08602118
0.08474172
0.08342902
0.08210724
0.08079953
0.07952745
0.07831102
0.07716906
0.07611991
0.07518158
0.07437264
0.07371155
0.07321875
0.0729157
0.07282653
0.07297972
0.07340381
0.0741372
0.07520777
0.074842
0.07541712
0.07685978
0.07903578
0.08187773
0.08537886
0.08956791
0.09448401
0.1001527
0.1065789
0.1137743
0.1218102
0.1308497
0.1411368
0.1529288
0.1662715
0.1805784
0.1949588
0.2085214
0.220011
0.2278354
0.2306053
0.2275144
0.2195031
0.2085948
0.1967357
0.1852162
0.1742846
0.163665
0.1528743
0.1414092
0.1289609
0.1158536
0.1037444
0.0941614
0.08722024
0.0822503
0.07839233
0.07499877
0.07178114
0.06872231
0.06599992
0.06378777
0.06210873
0.06088829
0.06004429
0.05950209
0.05923466
0.05925356
0.05960337
0.06030812
0.06129682
0.06238146
0.06331936
0.06393205
0.06417309
0.06409562
0.06377206
0.06324959
0.06262367
0.06196816
0.06131801
0.06068636
0.06008204
0.05949751
0.05890624
0.05827183
0.05755611
0.05672429
0.0557437
0.05637741
0.05503925
0.0536482
0.05220308
0.0507312
0.0492978
0.04798336
0.04683904
0.04588877
0.04513523
0.04455585
0.04410705
0.04373339
0.04337928
0.04299827
0.04255825
0.04204375
0.04145289
0.04080706
0.04014059
0.03948847
0.03887304
0.03830728
0.03780025
0.03735795
0.03698348
0.03667734
0.03643781
0.03626129
0.03614266
0.03607531
0.03605122
0.0360611
0.03609458
0.0361405
0.03618763
0.03622533
0.03624449
0.03623795
0.03620097
0.03613115
0.03602773
0.03589096
0.03572167
0.03552037
0.03528723
0.03502143
0.03472555
0.03440448
0.03406401
0.03371044
0.03335184
0.03299985
0.0326692
0.03236003
0.03205579
0.03175609
0.03147007
0.0312016
0.03094949
0.03071067
0.03048256
0.03026357
0.03005204
0.02984696
0.02964739
0.02945351
0.02926738
0.02909161
0.02892898
0.0287827
0.02865569
0.02854814
0.0284598
0.02839033
0.02833942
0.02830669
0.02829189
0.02829516
0.02831704
0.02835824
0.02841947
0.02850134
0.02860418
0.02872789
0.02887141
0.02903224
0.02920606
0.02938713
0.02956959
0.02974888
0.02992225
0.03008823
0.03024514
0.03038992
0.03051797
0.03062344
0.0307
0.03074184
0.03074443
0.03070511
0.03062374
0.03050319
0.03034886
0.03016762
0.02996669
0.02975263
0.0295312
0.02930753
0.02908625
0.02887168
0.02866781
0.0284784
0.0283069
0.02815636
0.02802939
0.02792798
0.0278534
0.02780607
0.02778551
0.02779043
0.02781878
0.02786806
0.02793553
0.02801849
0.02811424
0.02822009
0.02833288
0.02844942
0.02856588
0.02867966
0.02878822
0.02889248
0.02899178
0.02909067
0.02918937
0.02929978
0.02943483
0.02957898
0.06011584
0.06538983
0.07147393
0.0780401
0.08513932
0.09297471
0.1019823
0.1127979
0.1267402
0.1461504
0.2218571
0.2395862
0.2557412
0.2692246
0.282459
0.2950022
0.3067966
0.3181608
0.331303
0.4029815
0.4125287
0.4173222
0.4196943
0.4203975
0.4198948
0.4184765
0.4162697
0.4132372
0.4097543
0.4052456
0.4008471
0.3966902
0.3926922
0.388702
0.3846234
0.3804093
0.3760523
0.371805
0.366171
0.3606639
0.3552345
0.3499607
0.3448605
0.3399105
0.3350797
0.3303423
0.3256805
0.321143
0.3166417
0.3121768
0.3078007
0.3035148
0.2993131
0.2951858
0.2911293
0.2871549
0.2953052
0.2915371
0.2877678
0.2840776
0.280493
0.2770321
0.2737207
0.2705663
0.2675706
0.2646858
0.2618162
0.2589453
0.2560814
0.253225
0.2504118
0.247701
0.2451404
0.2427488
0.2405021
0.2383044
0.2360814
0.2338402
0.2315943
0.229377
0.2272432
0.225236
0.2233611
0.2215758
0.2197987
0.2179921
0.2161619
0.2143302
0.2125594
0.210916
0.2094366
0.208101
0.2068274
0.2055024
0.204052
0.2025496
0.2010592
0.1996536
0.1983885
0.1972808
0.196292
0.1953419
0.1943577
0.1933025
0.1922005
0.1911091
0.1900914
0.1892005
0.1884545
0.1878203
0.1872465
0.1866678
0.1860476
0.1853271
0.1844659
0.1835758
0.1828149
0.1821958
0.1816346
0.1810221
0.1802748
0.1793626
0.1783391
0.1773005
0.1763428
0.1755239
0.1748462
0.1742607
0.1736862
0.1730531
0.1723359
0.1715481
0.1707502
0.1700146
0.1693796
0.1688638
0.1684634
0.1680654
0.1674846
0.1665833
0.1653176
0.1637123
0.1620226
0.160463
0.1591211
0.1579454
0.1568578
0.1557878
0.1547103
0.1536437
0.1526142
0.1516369
0.1507063
0.1497763
0.1487659
0.1476102
0.1463026
0.1448848
0.1434154
0.1419417
0.1404886
0.1390636
0.1376677
0.136304
0.1349803
0.1337059
0.1324897
0.1313409
0.1302697
0.1292853
0.1283935
0.1275983
0.1269047
0.1263189
0.1258426
0.1254701
0.1251881
0.124968
0.1247544
0.124462
0.1239925
0.1232621
0.1222418
0.120982
0.119589
0.1181822
0.1168711
0.1157464
0.1148602
0.1142144
0.1137674
0.1134518
0.1131822
0.112873
0.1124612
0.1119128
0.1112219
0.1104051
0.1094913
0.1085113
0.1074944
0.1064637
0.1054375
0.1044327
0.1034652
0.1025497
0.1016991
0.1009243
0.1002337
0.09963241
0.09912059
0.09869387
0.09834481
0.09806027
0.09782188
0.0976073
0.09739087
0.09714478
0.09684103
0.09645325
0.09595908
0.09534293
0.0945976
0.09372435
0.09273266
0.09163863
0.09046388
0.08923417
0.08797715
0.08672113
0.08549429
0.08432487
0.0832414
0.08227212
0.08144717
0.08079408
0.08034953
0.0801389
0.08021634
0.0805993
0.08137458
0.08254666
0.08415817
0.08634495
0.08918134
0.09273473
0.09708562
0.1023162
0.1084958
0.1156645
0.1238322
0.1330106
0.1432681
0.1548081
0.1679191
0.1829035
0.1998897
0.2184885
0.23771
0.2558813
0.2712021
0.2820507
0.2869765
0.2852538
0.2780173
0.267184
0.2550113
0.2433821
0.2329329
0.2234543
0.2143008
0.2046814
0.1941135
0.182665
0.1709428
0.1596859
0.1493127
0.1399284
0.1314882
0.1238931
0.1170645
0.1109689
0.1056161
0.1010009
0.09706179
0.09369806
0.09079266
0.08822946
0.08589884
0.08367498
0.08149506
0.0793792
0.07738734
0.07562761
0.07421306
0.07320699
0.07259587
0.07229944
0.07219756
0.07216109
0.07207436
0.07185826
0.07147803
0.07097165
0.07040769
0.06982805
0.06925237
0.06867279
0.06806436
0.06738662
0.06661141
0.06570022
0.06461139
0.06337838
0.06199543
0.06045903
0.05879553
0.05704373
0.05526524
0.05350798
0.0518241
0.05026341
0.04886567
0.04765461
0.04663416
0.04578825
0.04508541
0.04448672
0.04395462
0.04346004
0.04298395
0.04251547
0.0420517
0.04160505
0.04119767
0.04084663
0.0405594
0.0403413
0.04019514
0.04012086
0.04011565
0.04017421
0.04028889
0.04044989
0.04064549
0.0408623
0.04108585
0.04130154
0.0414959
0.04165766
0.04177871
0.04185445
0.04188325
0.04186497
0.04179972
0.04168735
0.04152749
0.04131985
0.04106458
0.04076325
0.04041917
0.04003679
0.03962159
0.03917999
0.03871994
0.03825476
0.03778917
0.03732897
0.03688049
0.03644932
0.0360398
0.03565493
0.03529732
0.03496923
0.03467195
0.03440592
0.03417089
0.0339663
0.03379134
0.03364485
0.03352533
0.03343085
0.03335879
0.03330652
0.03327362
0.03325964
0.03326413
0.033287
0.03332931
0.03339192
0.03347493
0.03357927
0.03370647
0.03385805
0.03403507
0.03423789
0.03446568
0.03471582
0.03498337
0.03526109
0.0355407
0.03581488
0.0360789
0.0363303
0.03656761
0.036788
0.03698645
0.03715614
0.03728944
0.03737917
0.03741932
0.03740574
0.03733704
0.03721532
0.03704632
0.0368384
0.03660064
0.03634126
0.03606731
0.03578508
0.03550055
0.03521954
0.0349478
0.03469089
0.03445406
0.03424209
0.0340591
0.03390834
0.033792
0.03371101
0.03366503
0.0336525
0.03367082
0.03371672
0.03378668
0.03387728
0.0339853
0.03410761
0.03424075
0.03438072
0.0345231
0.03466376
0.03479964
0.03492999
0.03505604
0.03518168
0.03531036
0.03544414
0.03558352
0.03572073
0.03584323
0.04684142
0.05339251
0.05930433
0.09222104
0.1250885
0.1660095
0.1929938
0.2198456
0.2449693
0.2685363
0.2893914
0.3075051
0.325075
0.3427811
0.3605255
0.3778986
0.3947255
0.4113036
0.4275932
0.4434719
0.4588422
0.4733849
0.4865691
0.4983864
0.5091316
0.5189156
0.5275001
0.5345474
0.5396958
0.5427254
0.5442614
0.5589536
0.5558316
0.5516468
0.5466707
0.5410384
0.5348988
0.5284018
0.5216708
0.514836
0.5080124
0.5012128
0.494489
0.4878442
0.48129
0.4748155
0.468394
0.4619907
0.455481
0.4487554
0.4418603
0.4349117
0.427956
0.4210547
0.414252
0.4075622
0.4009739
0.3944749
0.3880474
0.3816873
0.3754325
0.369326
0.3634109
0.3577113
0.3522097
0.3468501
0.3415963
0.3363931
0.3310488
0.325901
0.320949
0.3161603
0.3115191
0.3070548
0.3028282
0.2988956
0.2952691
0.291888
0.2886386
0.2854177
0.2821516
0.2788223
0.2754836
0.2722437
0.2692193
0.266478
0.2639927
0.2616463
0.2593064
0.2568858
0.2543706
0.2518272
0.2493708
0.2471057
0.245075
0.2432183
0.241415
0.2395583
0.2376053
0.2355938
0.2336337
0.2318447
0.2303123
0.2290235
0.2278661
0.2266725
0.2253486
0.223892
0.2223783
0.2209345
0.2196884
0.2186976
0.2179094
0.2171872
0.2163964
0.2154709
0.2144297
0.2133582
0.2123773
0.211596
0.2110532
0.2106909
0.2103972
0.2100421
0.2095197
0.2088088
0.2079655
0.2071519
0.2065461
0.2061887
0.205985
0.2057651
0.2053553
0.2046947
0.2038776
0.2030454
0.2023537
0.2019254
0.201767
0.2017466
0.2016935
0.2014855
0.2010954
0.2005493
0.19992
0.1993252
0.19883
0.1984249
0.1980517
0.1975991
0.1969094
0.1958257
0.1943099
0.1925073
0.190656
0.1889722
0.1875328
0.1862734
0.1850899
0.1839027
0.1826796
0.1814423
0.1802352
0.1790882
0.1779872
0.1768394
0.1755113
0.1739316
0.1721179
0.170151
0.1681304
0.1661328
0.1641936
0.1623158
0.1604917
0.158718
0.157
0.1553473
0.1537694
0.1522756
0.150876
0.1495788
0.1483881
0.1473046
0.14633
0.1454676
0.1447161
0.1440681
0.1435152
0.1430354
0.14257
0.1420204
0.1412724
0.1402286
0.1388426
0.137142
0.1352126
0.133163
0.1310971
0.1290996
0.1272256
0.1254983
0.1239115
0.1224377
0.1210349
0.119658
0.1182716
0.1168581
0.1154201
0.1139743
0.112545
0.1111558
0.1098254
0.1085669
0.107386
0.1062846
0.1052618
0.1043157
0.1034452
0.1026505
0.1019322
0.1012916
0.1007282
0.1002396
0.09981919
0.09945812
0.09914555
0.09886639
0.09860333
0.09833733
0.09804841
0.09771605
0.09732055
0.09684481
0.09627569
0.09560561
0.09483408
0.09396683
0.09301512
0.09199583
0.09093035
0.08984342
0.08876196
0.08771486
0.08673286
0.08584826
0.08509565
0.08451053
0.08413438
0.08400915
0.08419052
0.08473317
0.08571376
0.08720663
0.08929461
0.09207092
0.09563536
0.1000904
0.1055375
0.1120687
0.1197497
0.1285943
0.1385892
0.1497724
0.1623023
0.1764776
0.1926326
0.2110457
0.2315426
0.253029
0.2736896
0.2917104
0.3057637
0.3149888
0.3187089
0.3164696
0.3086914
0.2971511
0.2842587
0.2719792
0.2612622
0.2520603
0.2435779
0.234709
0.2248972
0.2141643
0.2029804
0.191871
0.1811392
0.1709467
0.1614185
0.1526339
0.1446447
0.1374964
0.131209
0.1257508
0.1210395
0.1169625
0.1133896
0.1101861
0.1071569
0.1041095
0.1008929
0.09743982
0.09384983
0.09024721
0.08681984
0.08376252
0.08120326
0.07918217
0.07766777
0.07658492
0.0758262
0.07527536
0.07483748
0.07445021
0.07409258
0.07378159
0.07350602
0.07324446
0.07296642
0.07262899
0.07219442
0.07162968
0.07089919
0.06998127
0.06887531
0.06758572
0.06612028
0.06449211
0.06273279
0.06088354
0.0589912
0.05710831
0.05528935
0.05358401
0.05203018
0.05065041
0.04945119
0.04842521
0.04755561
0.04682088
0.04619921
0.04567197
0.04522503
0.04484896
0.04453805
0.04429847
0.04415009
0.04409813
0.04413743
0.04426199
0.04446437
0.04473521
0.04506308
0.04543447
0.04583382
0.04624395
0.04664688
0.04702537
0.04736457
0.04765321
0.04788446
0.04805608
0.04816886
0.04822417
0.04822258
0.04816373
0.04804697
0.0478721
0.04763983
0.0473522
0.04701272
0.0466262
0.04619851
0.04573637
0.04524728
0.0447413
0.04422798
0.04371414
0.0432068
0.04271272
0.0422381
0.04178856
0.04136925
0.04098453
0.04063769
0.04033092
0.04006541
0.03984142
0.03965824
0.03951432
0.03940746
0.03933491
0.0392936
0.03928039
0.03929244
0.03932731
0.03938312
0.03945851
0.03955206
0.039664
0.03979659
0.03995262
0.04013618
0.04035225
0.04060125
0.0408828
0.04119455
0.04153094
0.04188283
0.0422384
0.04258587
0.04291698
0.04322841
0.04351939
0.04378946
0.0440343
0.04424649
0.0444171
0.04453778
0.04460178
0.04460412
0.04454204
0.04441626
0.0442321
0.04399944
0.04373045
0.04343615
0.04312463
0.04280215
0.04247475
0.04214863
0.0418302
0.04152601
0.0412424
0.04098529
0.04075989
0.04057032
0.04041934
0.04030808
0.04023596
0.04020075
0.04019893
0.04022617
0.04027806
0.04035075
0.04044135
0.04054763
0.04066724
0.04079691
0.04093206
0.04106753
0.04119876
0.04132334
0.04144191
0.0415584
0.04167857
0.04180772
0.04194605
0.04209132
0.04222933
0.04234419
0.02364441
0.02643317
0.02915134
0.0391298
0.05226005
0.07454044
0.09009854
0.1065577
0.1241806
0.1420236
0.1604583
0.1806318
0.2021981
0.2242495
0.247173
0.2728458
0.3123995
0.3309821
0.3499998
0.3693493
0.3892852
0.4090033
0.427805
0.4455644
0.4622718
0.4783218
0.4937518
0.5085609
0.5226714
0.5359628
0.5482748
0.5594065
0.5690444
0.5767586
0.5819811
0.5853128
0.5865744
0.5855039
0.5823519
0.5774148
0.5714912
0.5644316
0.5547877
0.5457341
0.5369411
0.5282708
0.5197554
0.511443
0.503372
0.4955994
0.4881855
0.4811936
0.4746519
0.4685687
0.462899
0.4575618
0.4524376
0.4474297
0.4424436
0.4374504
0.4323958
0.4270799
0.4215382
0.4159334
0.4103846
0.404957
0.3996525
0.3944313
0.3892421
0.3840428
0.3788096
0.3735613
0.3683613
0.3633052
0.3584535
0.3537926
0.349232
0.3447033
0.3401644
0.3356605
0.3312664
0.3269928
0.3227849
0.3186053
0.3144953
0.3105737
0.3069757
0.3037773
0.3009195
0.2982385
0.2955531
0.2927289
0.2897215
0.2865964
0.2835152
0.2806718
0.2782039
0.2761067
0.2742206
0.2723273
0.2702657
0.2680011
0.2656337
0.2633411
0.2612987
0.2595948
0.2581565
0.2567935
0.2553224
0.2536612
0.2518633
0.2500931
0.248554
0.2473923
0.2465948
0.2459769
0.2452912
0.2443754
0.2432208
0.2419551
0.2407881
0.2399301
0.2394704
0.2392932
0.2391568
0.2388546
0.2383082
0.2375729
0.2367989
0.236184
0.2359021
0.236002
0.2363446
0.2366914
0.236837
0.2366527
0.236172
0.2356399
0.2353927
0.2356415
0.2363497
0.2372705
0.2380811
0.2384831
0.2384164
0.238154
0.2378946
0.2378769
0.2382738
0.2390769
0.2400167
0.2406889
0.2409736
0.2409724
0.2407791
0.2405246
0.2403459
0.2402762
0.2402249
0.2400411
0.2395659
0.2386707
0.2372974
0.2354993
0.23349
0.2315718
0.2299319
0.2285707
0.2273476
0.2261097
0.224794
0.2234064
0.2219868
0.2205728
0.219163
0.2176991
0.2160277
0.2139547
0.2114258
0.2085532
0.2055051
0.2024413
0.1994677
0.1966231
0.1939008
0.1912822
0.1887583
0.1863342
0.1840232
0.181839
0.179793
0.1778945
0.1761481
0.1745518
0.1730964
0.1717692
0.1705579
0.1694436
0.1683985
0.1674005
0.1664317
0.1654433
0.1643306
0.1629727
0.1612741
0.1591923
0.1567577
0.1540629
0.1512293
0.1483706
0.1455698
0.1428718
0.1402872
0.1378023
0.1353919
0.133028
0.1306868
0.1283554
0.1260373
0.1237508
0.1215241
0.1193875
0.1173681
0.1154855
0.1137512
0.1121682
0.1107312
0.1094304
0.108254
0.1071902
0.1062286
0.1053606
0.104579
0.1038764
0.1032443
0.1026723
0.102148
0.1016566
0.101185
0.1007181
0.1002406
0.09973883
0.09920086
0.09861705
0.09797957
0.09728263
0.09652361
0.09570315
0.09482775
0.0939078
0.0929565
0.09198945
0.09102535
0.09008571
0.08919466
0.08837926
0.08766972
0.08709997
0.08670804
0.08653865
0.08664372
0.08708697
0.08794327
0.08930317
0.09127119
0.09396272
0.09750132
0.1020147
0.1076261
0.1144492
0.1225767
0.1320486
0.1428654
0.1550192
0.168583
0.1837758
0.2008927
0.2201764
0.2415862
0.264321
0.2863915
0.3055114
0.3203132
0.3304897
0.3362978
0.3380066
0.3355792
0.3289738
0.3188507
0.3068149
0.2948823
0.2845823
0.2764443
0.2695983
0.2619947
0.2529731
0.2426428
0.2314845
0.2200366
0.2086827
0.1977095
0.1873472
0.1777726
0.1690719
0.1612758
0.1543763
0.1483242
0.1430349
0.1383917
0.1342559
0.1304497
0.1267354
0.1229526
0.118966
0.1146734
0.1100565
0.1053048
0.100625
0.09626074
0.09238292
0.08906849
0.08632566
0.08412426
0.08241307
0.08112152
0.08017193
0.07949053
0.07901514
0.07870804
0.07856206
0.07851814
0.07851446
0.0784895
0.07838632
0.07815032
0.07773411
0.07711079
0.07626867
0.07520417
0.07392159
0.07243855
0.07078007
0.06897497
0.06706628
0.06510559
0.06314837
0.06124807
0.05945126
0.0577943
0.05630158
0.05498543
0.05384755
0.05288135
0.05207467
0.05141281
0.05088169
0.05046986
0.05016824
0.04996882
0.04986328
0.04986328
0.04998469
0.05021491
0.05053923
0.05094148
0.05140381
0.05190659
0.05242862
0.05294783
0.05344276
0.05389467
0.05428938
0.0546181
0.0548776
0.05507021
0.05520017
0.05526994
0.05527951
0.05522746
0.05511242
0.0549341
0.05469376
0.05439426
0.05403999
0.0536366
0.05319065
0.05270928
0.05220006
0.05167174
0.05113428
0.05059491
0.05006108
0.0495403
0.04903984
0.04856645
0.04812632
0.04772467
0.04736546
0.04705127
0.04678335
0.04656173
0.04638532
0.04625211
0.04615937
0.04610381
0.04608187
0.04608997
0.046125
0.04618462
0.04626774
0.04637468
0.04650704
0.04666729
0.04685771
0.04707948
0.04733174
0.04761265
0.04792587
0.04827667
0.04866184
0.04907169
0.04949106
0.04990153
0.05028675
0.05063858
0.05095746
0.05124648
0.05150728
0.05173343
0.05191477
0.05204093
0.05210502
0.05210296
0.05203148
0.0518892
0.0516789
0.05140964
0.05109644
0.05075596
0.05040033
0.05003595
0.04966722
0.04929946
0.04893914
0.04859318
0.04826869
0.04797255
0.047711
0.04748917
0.0473105
0.04717626
0.04708533
0.04703426
0.04701772
0.04702917
0.04706198
0.04711068
0.04717199
0.04724506
0.04733039
0.04742779
0.04753457
0.04764533
0.04775365
0.04785451
0.04794638
0.04803221
0.04811919
0.04821645
0.04833087
0.04846168
0.04860131
0.04873257
0.04883586
0.01040098
0.01206244
0.01335555
0.01986543
0.02735989
0.03723068
0.0452988
0.05441062
0.06426185
0.07471475
0.08615085
0.0996047
0.1143093
0.1306902
0.1502556
0.1804052
0.196412
0.2132151
0.2302797
0.2475747
0.2650275
0.2825245
0.299896
0.3169864
0.3336871
0.3499112
0.3656534
0.3825863
0.3997954
0.4174847
0.435655
0.4537632
0.4709671
0.487048
0.5022216
0.5165197
0.5299211
0.5423051
0.5534594
0.5631828
0.5712229
0.5770455
0.580193
0.5807903
0.5784652
0.5737624
0.5668521
0.5579851
0.5475768
0.5360796
0.5239374
0.5115991
0.4993585
0.4876397
0.4766273
0.4663618
0.4568448
0.4480561
0.4399577
0.4325439
0.4258418
0.4198991
0.4147612
0.4104384
0.4068597
0.4038496
0.4011676
0.3986179
0.3960366
0.3931275
0.3899213
0.386509
0.3829917
0.379506
0.3761608
0.3729917
0.3699444
0.3669201
0.3638269
0.3606015
0.357206
0.3536526
0.3500306
0.3464841
0.343119
0.3399226
0.3367735
0.3335469
0.3302204
0.3268868
0.3236505
0.3205294
0.3174511
0.3143346
0.3112095
0.308229
0.3055917
0.3034205
0.3016453
0.3000429
0.2983821
0.2965027
0.2943441
0.2919714
0.2895859
0.2874682
0.285821
0.2846158
0.2836143
0.2825243
0.2811498
0.2794667
0.2776216
0.2758763
0.2744959
0.2735762
0.2729732
0.2724038
0.2716215
0.2705439
0.269283
0.2680931
0.2672717
0.2670196
0.2672693
0.2676733
0.267837
0.2675689
0.2669501
0.2662458
0.2657955
0.2659014
0.2666383
0.2677051
0.2686312
0.2691088
0.2691148
0.2688551
0.2686622
0.2688952
0.2698111
0.2714002
0.2732869
0.2749666
0.2761156
0.2766259
0.2767441
0.2771222
0.2784493
0.2810623
0.2847577
0.2886875
0.2919739
0.2940051
0.2948602
0.2955521
0.2966246
0.2984472
0.3011773
0.3047242
0.3083528
0.3110765
0.312525
0.3133836
0.314237
0.3154655
0.3170903
0.3188323
0.3202364
0.3208413
0.3203341
0.3186798
0.3162289
0.3135712
0.3112794
0.3096204
0.3085568
0.3077433
0.3067295
0.3053096
0.3035463
0.3016379
0.2997798
0.297931
0.2958175
0.293036
0.2892283
0.284357
0.2787391
0.2727588
0.2667403
0.2609178
0.2554096
0.2502375
0.2453748
0.2407905
0.2364692
0.2324136
0.2286382
0.2251596
0.2219877
0.2191218
0.2165506
0.214254
0.2122027
0.2103505
0.2086328
0.2069732
0.2052897
0.2034951
0.2015072
0.1992571
0.1966888
0.1937608
0.1904656
0.1868165
0.1828664
0.1787204
0.1745106
0.1703618
0.1663614
0.162546
0.1589067
0.1554068
0.152002
0.1486548
0.1453417
0.142057
0.1388146
0.1356445
0.1325856
0.1296771
0.1269523
0.124434
0.1221325
0.1200497
0.1181773
0.1165003
0.1150005
0.113659
0.1124569
0.1113777
0.1104063
0.1095281
0.1087272
0.1079862
0.1072861
0.1066077
0.1059313
0.1052404
0.1045206
0.1037595
0.1029498
0.1020882
0.1011753
0.1002156
0.09921623
0.09818557
0.09713247
0.09607008
0.09501809
0.09399469
0.0930178
0.09210649
0.09128192
0.09056811
0.08999284
0.08958881
0.08939507
0.08945968
0.08984201
0.09061608
0.09187277
0.09372269
0.09629715
0.0997454
0.1042274
0.1099016
0.1169122
0.1253741
0.135384
0.1469892
0.1601622
0.1748236
0.1909766
0.208796
0.2284727
0.249934
0.2725802
0.2946401
0.3133292
0.326919
0.335275
0.3392218
0.3401386
0.3393896
0.3378806
0.3354975
0.3309662
0.3231143
0.3141173
0.3066318
0.3001322
0.2946554
0.2883679
0.2797881
0.2689664
0.2567693
0.2441167
0.2317166
0.2199858
0.2090461
0.1990275
0.1899944
0.1819285
0.1747627
0.1684057
0.1627489
0.1576648
0.1530107
0.1485364
0.1440905
0.139556
0.1348342
0.1298499
0.1245688
0.1191121
0.1137462
0.1087466
0.1042679
0.1003414
0.09696366
0.09411993
0.09179383
0.0899624
0.08858437
0.08760504
0.08695949
0.08657564
0.08640185
0.08640534
0.08649924
0.08659964
0.08663162
0.08653135
0.08624793
0.0857472
0.08501121
0.08403478
0.08282551
0.08140532
0.07977943
0.07798137
0.07605926
0.0740668
0.07205785
0.07008485
0.06819625
0.06643253
0.06482378
0.06338875
0.06213542
0.0610627
0.06016304
0.05942536
0.05883797
0.0583903
0.05807311
0.05787811
0.05779684
0.05781867
0.05794105
0.05818538
0.05853629
0.05897214
0.05946909
0.06000117
0.06054116
0.06106214
0.06154004
0.06195666
0.06230149
0.0625712
0.06276849
0.0629025
0.06298078
0.06300416
0.06296928
0.06287227
0.06271077
0.0624847
0.06219611
0.0618489
0.0614485
0.06100159
0.06051555
0.0599979
0.05945616
0.05889849
0.0583341
0.05777065
0.0572162
0.05667888
0.05616665
0.05568691
0.05524621
0.05484984
0.05450133
0.0542025
0.05395349
0.05375314
0.05359925
0.05348888
0.05341859
0.05338457
0.05338289
0.05340987
0.05346267
0.05353996
0.05364274
0.05377456
0.05394084
0.05414709
0.05439675
0.05468994
0.05502367
0.05539372
0.05579584
0.05622445
0.05668097
0.05715935
0.05763695
0.05808634
0.05848506
0.05882463
0.05911119
0.05935601
0.05956462
0.0597274
0.059831
0.05986739
0.05983538
0.0597346
0.05956245
0.05931763
0.05900423
0.05863517
0.05823156
0.05781485
0.05739705
0.05698061
0.05656828
0.05616502
0.05577682
0.05541054
0.05507375
0.05477417
0.0545185
0.05431175
0.05415621
0.05405069
0.05399051
0.053968
0.05397342
0.05399623
0.05402703
0.05405956
0.05409238
0.05412895
0.05417507
0.05423436
0.05430474
0.05437878
0.05444755
0.05450508
0.05455102
0.05459121
0.05463648
0.05470036
0.05479204
0.054909
0.0550375
0.05515558
0.05524152
0.00261109
0.01008585
0.0149678
0.02060978
0.02686748
0.03400009
0.04210505
0.05097233
0.06087425
0.07277939
0.09073401
0.1014716
0.1130904
0.1252848
0.1381054
0.1514842
0.1653451
0.1795609
0.1939505
0.2083714
0.2228054
0.2390921
0.2555813
0.2720976
0.2885311
0.3048205
0.320885
0.3367049
0.3521732
0.3672448
0.3820606
0.3967746
0.4117809
0.4267225
0.4416845
0.4566186
0.4711105
0.4849723
0.4982584
0.5109041
0.5228114
0.5338324
0.5437046
0.5519342
0.5581498
0.5614126
0.561723
0.559005
0.5534051
0.5450115
0.534217
0.5214854
0.5072888
0.4921417
0.4765761
0.4610867
0.4461331
0.4321083
0.419319
0.4079846
0.398169
0.3897783
0.3826245
0.3764906
0.3712381
0.3668316
0.3633281
0.3608802
0.3595137
0.3590627
0.3589892
0.3589188
0.3585797
0.3578207
0.3565892
0.3550049
0.3532349
0.3514385
0.349759
0.3482909
0.3470321
0.3458655
0.3446296
0.3431908
0.3414752
0.3394644
0.3372093
0.3348519
0.3325768
0.3304939
0.3285601
0.326619
0.3245184
0.3222625
0.3199963
0.3178484
0.3158448
0.31391
0.311958
0.3100202
0.308277
0.3069652
0.3061701
0.3057002
0.3052518
0.3045985
0.3036448
0.3024136
0.3010373
0.2997624
0.2988975
0.2986319
0.2988157
0.2990197
0.2988394
0.2981187
0.2969851
0.295769
0.2948781
0.2946205
0.2950194
0.2957239