/*--------------------------------*- C++ -*----------------------------------*\
| =========                 |                                                 |
| \\      /  F ield         | foam-extend: Open Source CFD                    |
|  \\    /   O peration     | Version:     3.1                                |
|   \\  /    A nd           | Web:         http://www.extend-project.de       |
|    \\/     M anipulation  |                                                 |
\*---------------------------------------------------------------------------*/
FoamFile
{
    version     2.0;
    format      ascii;
    class       volScalarField;
    location    "19.5";
    object      nut;
}
// * * * * * * * * * * * * * * * * * * * * * * * * * * * * * * * * * * * * * //

dimensions      [0 2 -1 0 0 0 0];

internalField   nonuniform List<scalar> 
119952
(
5.359724e-05
3.650106e-05
3.792513e-05
4.225767e-05
4.518738e-05
4.307182e-05
4.169081e-05
4.066962e-05
3.986727e-05
3.916611e-05
3.85179e-05
3.78953e-05
3.727623e-05
3.664675e-05
3.599869e-05
3.533275e-05
3.464548e-05
3.393076e-05
3.31779e-05
3.233038e-05
4.05104e-05
3.856542e-05
3.76446e-05
4.828385e-05
4.683405e-05
4.574682e-05
4.506338e-05
4.482951e-05
4.475336e-05
3.281636e-05
3.154829e-05
3.490028e-05
3.963129e-05
4.424517e-05
4.896326e-05
5.386663e-05
5.900432e-05
6.427915e-05
6.964513e-05
7.900766e-05
0.0003630783
0.0004141083
0.0004716137
0.0005328047
0.0005956113
0.0006586845
0.0007213626
0.0007830568
0.0008431666
0.001176716
0.001235312
0.0012938
0.001352022
0.001410338
0.001469254
0.00152854
0.001587747
0.001646864
0.001704664
0.001766005
0.001825754
0.001884992
0.001944485
0.00200394
0.002062856
0.002120813
0.002177963
0.002237685
0.002056532
0.002305431
0.002317871
0.002339638
0.002357116
0.00236487
0.00236357
0.002353759
0.002340708
0.002326675
0.00231342
0.002301929
0.002291901
0.002282083
0.002271127
0.00225824
0.002243546
0.002228345
0.002215104
0.002207972
0.002209052
0.002209274
0.002208866
0.002217024
0.002226485
0.002214913
0.002186981
0.002138567
0.002036392
0.001869481
0.001809989
0.001769059
0.001742463
0.001723147
0.001706811
0.001692471
0.001679498
0.001667169
0.001654581
0.001640694
0.001624655
0.001606092
0.001585375
0.00156349
0.00154152
0.001520265
0.001500188
0.001481573
0.001464698
0.00144991
0.001437569
0.001427937
0.001421103
0.001416963
0.00141525
0.001415547
0.001417281
0.001419705
0.0014219
0.001422784
0.001421104
0.001415429
0.001404199
0.001385856
0.001358965
0.001322317
0.00127512
0.001217488
0.001151547
0.001083349
0.001023146
0.0009559043
0.0009025208
0.0008732011
0.0008679612
0.0008833013
0.0009147037
0.0009587413
0.00101218
0.001057361
0.001121457
0.001162528
0.001186664
0.00120806
0.00122737
0.001244351
0.001258743
0.001270054
0.00127791
0.001282656
0.001284994
0.001285818
0.001285926
0.001285937
0.001286267
0.001287142
0.001288686
0.001291049
0.001294103
0.001297665
0.00130156
0.001305582
0.001309513
0.001313114
0.001316125
0.001318296
0.00131947
0.001319642
0.001318947
0.001317597
0.00131582
0.00131381
0.001311694
0.001309523
0.001307282
0.001304925
0.001302418
0.001299774
0.001297063
0.001294403
0.001291966
0.001289939
0.001288526
0.001288039
0.001288857
0.001291477
0.001296348
0.001303947
0.00131328
0.001169633
0.0009946438
0.0009192521
0.0008844296
0.0008695665
0.0008661859
0.0008705746
0.0008808705
0.0008959639
0.0009149639
0.0009369567
0.000961379
0.0009882399
0.001018201
0.001052717
0.001093209
0.001137813
0.001180812
0.001216093
0.001239291
0.001247537
0.001236913
0.001197046
0.001098234
0.0009582371
0.0008222503
0.0006968359
0.0005926243
0.0005107589
0.0004466067
0.0003929961
0.0003433033
0.0002985851
0.000252648
0.0002496195
0.000290428
0.0003243769
0.0003524812
0.0003633703
0.0003597147
0.0003473606
0.0003382286
0.0003410259
0.0003533716
0.0003712948
0.0003885795
0.0004030428
0.0004154733
0.0004268842
0.0004383118
0.0004506638
0.0004643556
0.000479131
0.0004897405
0.0004969461
0.0005062215
0.000517815
0.0005307192
0.0005440248
0.0005572348
0.0005700124
0.0005819738
0.000592664
0.0006015208
0.0006077476
0.0006104715
0.0006090749
0.000603555
0.0005947755
0.0005832133
0.0007203285
0.0006817994
0.000662769
0.0006495547
0.0006387584
0.0006317531
0.0006281529
0.0006291267
0.0006341919
0.0006430872
0.0006520648
0.000657039
0.0006625911
0.0006690198
0.0006769786
0.0006873861
0.0006997813
0.0007133796
0.0007275833
0.0007418249
0.0007557108
0.0007691016
0.0007819614
0.0007943304
0.0008062925
0.0008179291
0.000829299
0.0008404298
0.0008513105
0.0008618776
0.0008720117
0.0008815441
0.0008902665
0.0008979447
0.0009043357
0.0009092107
0.0009123862
0.0009137531
0.0009132907
0.0009110677
0.0009072284
0.0009019504
0.0008954198
0.0008878227
0.000879331
0.0008699914
0.0008592619
0.000847885
0.0008362519
0.0008247093
0.0008136527
0.0008035184
0.0007949056
0.0007882618
0.0007838464
0.0007789437
0.0007748457
0.0007720203
0.0007702369
0.0007693549
0.000769311
0.0007701738
0.0007720946
0.0007749364
0.0007785566
0.0007828559
0.0007877711
0.0007931932
0.0007989824
0.0008050069
0.0008111635
0.0008173761
0.0008235981
0.0008298148
0.0008360328
0.000842276
0.0008485853
0.0008550185
0.0008616543
0.0008685817
0.0008758831
0.0008836219
0.0008918374
0.0009005429
0.0009097205
0.0009193064
0.0009291694
0.0009390984
0.0009488215
0.0009580628
0.0009666198
0.0009744094
0.0009814479
0.0009877684
0.000993331
0.0009979842
0.001001485
0.001003549
0.001003922
0.001002464
0.0009991184
0.0009940209
0.000987491
0.0009799622
0.0009719436
0.0009639686
0.0009564263
0.0009496111
0.0009437496
0.0009389968
0.0009354411
0.0009331494
0.0009321696
0.0009325307
0.0009342425
0.0009372908
0.0009416325
0.0009471918
0.0009538594
0.0009614957
0.0009699359
0.0009789986
0.000988495
0.0009982398
0.00100806
0.001017802
0.001027327
0.001036502
0.001045189
0.001053256
0.001060585
0.001067139
0.001072998
0.001078412
0.001083856
0.001090231
0.001098796
0.001112732
0.0008914404
4.512447e-05
4.864502e-05
5.495631e-05
6.268231e-05
7.114448e-05
7.983966e-05
8.850679e-05
9.70273e-05
0.0001063183
0.0004186818
0.0005285247
0.0006479303
0.0007685292
0.0008854948
0.0009951454
0.001096852
0.001191086
0.0012789
0.001835656
0.001920438
0.002008673
0.002096023
0.002182458
0.002268676
0.002354332
0.002439025
0.002521937
0.002601
0.002677391
0.002749852
0.00281794
0.00288472
0.002952052
0.003020792
0.003090893
0.003161635
0.003231585
0.00328679
0.003326932
0.003367483
0.003410256
0.003456418
0.003505989
0.003558356
0.003612324
0.00366637
0.003719139
0.003771579
0.003822676
0.003874231
0.003927536
0.003982566
0.004038562
0.004094182
0.004147811
0.004197718
0.004958522
0.005000381
0.005042138
0.005085682
0.005130776
0.005176341
0.005220885
0.005263158
0.005303056
0.00534117
0.005378821
0.005417894
0.005458908
0.005501496
0.005544537
0.005586145
0.005624889
0.005660728
0.005696868
0.005727131
0.005746141
0.005764904
0.005786503
0.005804628
0.00581533
0.005818278
0.005814555
0.00580374
0.005790553
0.005777666
0.005766637
0.005757203
0.005747887
0.00573685
0.005722706
0.005705307
0.005686167
0.005667343
0.005651838
0.005640635
0.005629787
0.005621105
0.005613549
0.00559502
0.00555392
0.005496223
0.005418379
0.005320835
0.00522437
0.005152735
0.005090557
0.005034411
0.004981777
0.00493008
0.004878956
0.00482826
0.004777141
0.004724226
0.004667909
0.00460657
0.004539478
0.004467666
0.004393514
0.004319608
0.004247919
0.004179612
0.00411533
0.004055596
0.004000999
0.003952149
0.003909532
0.003873381
0.003843644
0.003820018
0.003801935
0.003788498
0.003778454
0.003770235
0.003761958
0.003751338
0.003735605
0.003711569
0.003675779
0.003624627
0.003554533
0.003462556
0.003347357
0.003210497
0.003057745
0.002898465
0.002742526
0.002598457
0.002473291
0.002372049
0.002296683
0.002193241
0.002110359
0.002061444
0.002045795
0.002062735
0.002104625
0.00216206
0.002231225
0.002307463
0.002386677
0.002465822
0.002542905
0.002615129
0.002662582
0.002698954
0.00273108
0.002759443
0.00278456
0.002806966
0.002827168
0.002845402
0.002862397
0.002878837
0.002895057
0.002911355
0.002927981
0.00294513
0.002962946
0.002981549
0.003001054
0.0030216
0.003043365
0.00306656
0.003091407
0.003118118
0.003146888
0.003177887
0.003211251
0.003247096
0.003285531
0.00332669
0.003370759
0.003418012
0.003468809
0.003523633
0.003583073
0.003647884
0.003719002
0.003797492
0.003884771
0.00398209
0.004091528
0.004215646
0.004128737
0.004101608
0.004146722
0.004242143
0.004374937
0.004537789
0.004726445
0.004937762
0.005168265
0.005413756
0.005670543
0.005937422
0.006216258
0.006510797
0.006824281
0.007151335
0.007462527
0.007733008
0.007480257
0.007268166
0.007560381
0.008175225
0.007999695
0.007664609
0.007192973
0.006599785
0.005945782
0.005288017
0.004663803
0.004082081
0.003527412
0.002981229
0.002462136
0.002050287
0.001789387
0.001653479
0.001603953
0.001607387
0.001638781
0.001679948
0.00172016
0.001758302
0.001795023
0.001826912
0.001847562
0.001853346
0.001840697
0.001808274
0.001759629
0.001703987
0.001653372
0.00161873
0.001607068
0.001620821
0.001659145
0.001719208
0.001796698
0.001885816
0.001979523
0.002076596
0.00217598
0.002274004
0.002367319
0.002452946
0.002527718
0.002588242
0.002631266
0.002653982
0.002654217
0.002630042
0.002900984
0.002834724
0.002744055
0.002629548
0.002494514
0.002348428
0.002203577
0.002069043
0.00195173
0.001855651
0.001782114
0.001730449
0.001698699
0.001684191
0.0016839
0.001694801
0.001713963
0.001738644
0.001768302
0.001803353
0.001844551
0.001891183
0.001942091
0.001996399
0.002053437
0.002112683
0.002173702
0.002236081
0.002299388
0.002363121
0.002426684
0.002489356
0.002550291
0.002608531
0.00266304
0.002712779
0.002756782
0.002794236
0.002824534
0.002847299
0.00286236
0.002869684
0.002869312
0.002861319
0.00284579
0.002822878
0.002792824
0.002756255
0.002713956
0.002666824
0.002615763
0.002561711
0.002506128
0.002451497
0.002399818
0.002351501
0.002306402
0.002265674
0.002230258
0.002200576
0.002176653
0.00215824
0.002145059
0.002136758
0.002132798
0.002132375
0.002135116
0.002141074
0.002150271
0.002162726
0.002178529
0.002197735
0.002219918
0.002244652
0.002271562
0.002300343
0.002330769
0.002362699
0.002396071
0.00243088
0.002467155
0.002504929
0.002544229
0.002585041
0.002627269
0.00267066
0.002714735
0.002758787
0.002801988
0.00284359
0.002883092
0.002920257
0.002954976
0.002987045
0.003016032
0.00304127
0.003061929
0.003077147
0.003086172
0.003088468
0.003083835
0.003072514
0.003055224
0.003033049
0.003007259
0.002979096
0.002949657
0.002919899
0.002890669
0.002862727
0.00283677
0.002813434
0.002793292
0.002776841
0.002764495
0.002756564
0.002753238
0.002754573
0.002760478
0.002770726
0.002784964
0.002802745
0.002823566
0.0028469
0.00287223
0.002899036
0.002926788
0.002954893
0.002982766
0.003009777
0.003035525
0.003059722
0.003082646
0.003104489
0.003126277
0.003148233
0.003172244
0.003198337
0.003222061
3.471745e-05
4.302793e-05
5.577916e-05
7.123639e-05
9.010263e-05
0.0001134542
0.0001433314
0.0001826728
0.0002372954
0.0003409541
0.001216735
0.001408809
0.001590824
0.001721956
0.001860935
0.001999981
0.002138394
0.00227977
0.002436014
0.004415289
0.004683952
0.004816764
0.00491245
0.004990402
0.005059815
0.005123393
0.005180525
0.005230142
0.005276767
0.00534653
0.005444387
0.005547915
0.005643045
0.005723974
0.005790267
0.005843691
0.005886679
0.005926477
0.005857225
0.005833389
0.005835038
0.00585166
0.00587626
0.005904089
0.00593205
0.005958351
0.005982045
0.006003299
0.006021771
0.006038846
0.006055959
0.006073563
0.006091437
0.006109203
0.006126573
0.006142501
0.006921346
0.006938794
0.006952574
0.006965255
0.006978286
0.006992502
0.007008387
0.007025618
0.007043603
0.007061045
0.007076299
0.007089465
0.007101498
0.00711339
0.007126546
0.007142294
0.007161139
0.007182617
0.007205445
0.007227273
0.007246744
0.007264817
0.00728268
0.007301646
0.007322891
0.00734671
0.007372232
0.007397738
0.00742145
0.007443296
0.007464531
0.007486669
0.007511393
0.007539555
0.007570828
0.007603334
0.007634429
0.007663535
0.007673722
0.007684227
0.007697359
0.007714983
0.007737566
0.007763924
0.007791457
0.007817454
0.007840621
0.007861424
0.007881959
0.007904634
0.007930982
0.007961177
0.007993749
0.008025951
0.008055224
0.008079634
0.008099278
0.008114088
0.008124511
0.008134624
0.008147473
0.008160966
0.008171172
0.008174587
0.00817002
0.008158162
0.008142166
0.008126927
0.008115011
0.00810629
0.008098517
0.008088556
0.008073588
0.008052489
0.008026387
0.007997377
0.007968279
0.007941
0.007913996
0.007886367
0.007855528
0.007814861
0.007757646
0.007685914
0.007600591
0.007506655
0.007415025
0.007336362
0.007270154
0.007209426
0.007150762
0.007092279
0.007033589
0.006974859
0.006915479
0.006853969
0.006788122
0.006715376
0.006634214
0.00654546
0.006451975
0.006357223
0.00626404
0.006174188
0.006088603
0.006007904
0.005932745
0.005863867
0.005801948
0.005747435
0.005700489
0.00566099
0.005628484
0.005602106
0.005580576
0.005562232
0.005545025
0.005526415
0.005503272
0.005471944
0.005428365
0.005368094
0.00528652
0.005179568
0.005044652
0.004881756
0.004694411
0.004489453
0.004275154
0.00406
0.003852461
0.003660922
0.003492543
0.003352388
0.003242616
0.003163171
0.003111845
0.003085087
0.003079197
0.003090439
0.003115268
0.003150459
0.003193523
0.003242045
0.003294048
0.003347781
0.003401827
0.003455004
0.003506394
0.003555289
0.003601153
0.003643598
0.003682375
0.003717354
0.003748376
0.003775382
0.00379904
0.00381991
0.003838428
0.003855093
0.003870467
0.003885115
0.003899586
0.003914408
0.003930142
0.003947374
0.003966752
0.003988861
0.004014432
0.004043967
0.004077921
0.004116688
0.004160615
0.004210035
0.004265309
0.004326884
0.004395331
0.004471364
0.00455591
0.004650019
0.004755159
0.00487266
0.005004525
0.005152445
0.005319313
0.005505223
0.005701982
0.005930114
0.006188342
0.006475176
0.006788979
0.007127266
0.007486066
0.007859706
0.008240988
0.008623116
0.009001871
0.009378744
0.009756479
0.01
0.01
0.01000005
0.01000029
0.009943265
0.009599246
0.009571271
0.009934207
0.01
0.01
0.01
0.01000001
0.01000015
0.00979546
0.009222744
0.008617489
0.007980473
0.00731322
0.006630693
0.005973342
0.005395006
0.004930725
0.004587
0.004351564
0.004203429
0.00412128
0.004087034
0.004086896
0.004109421
0.00414305
0.004175785
0.004195673
0.004191674
0.004154197
0.004073255
0.003946127
0.003780792
0.003592563
0.003403453
0.003236122
0.003107249
0.003024216
0.002986157
0.002987169
0.003019414
0.003075075
0.003147455
0.003231487
0.003327031
0.003434087
0.003548598
0.003666018
0.003781348
0.003889499
0.00398521
0.004063965
0.004121738
0.004145721
0.004141415
0.004105174
0.004034016
0.003926089
0.003781372
0.003609069
0.003420901
0.0032297
0.003047742
0.002884894
0.002747637
0.002638989
0.002559105
0.002506123
0.002477056
0.002468496
0.002477083
0.002499561
0.002532619
0.0025729
0.002620348
0.002676707
0.002742586
0.002817081
0.002899372
0.002988646
0.003084049
0.003184638
0.003289337
0.00339691
0.003505938
0.003614823
0.003721816
0.003825079
0.003922801
0.00401332
0.004095247
0.004167547
0.004229569
0.004280968
0.004321565
0.004351217
0.004369784
0.004377145
0.00437326
0.004358226
0.004332389
0.004296302
0.004250656
0.004196212
0.004133738
0.004064209
0.003990713
0.003914711
0.003838417
0.003764178
0.003693853
0.003628843
0.003570287
0.00351919
0.003476268
0.003441882
0.003416136
0.003398908
0.003389893
0.003388665
0.003394704
0.003407388
0.003425955
0.003449378
0.003476623
0.003507524
0.003541898
0.003579551
0.003620348
0.003664361
0.003711592
0.003761859
0.003815101
0.003871341
0.003930614
0.003992909
0.004058121
0.00412598
0.004195935
0.004267061
0.004338085
0.004407601
0.004474442
0.004537915
0.004597752
0.004653863
0.004705925
0.004753252
0.004794836
0.004829513
0.004856168
0.004873861
0.004881944
0.004880205
0.004869026
0.004849421
0.004822886
0.004791084
0.004755537
0.004717541
0.004678238
0.004638687
0.004599904
0.00456288
0.004528569
0.00449787
0.004471596
0.004450445
0.004434966
0.004425518
0.00442225
0.004425084
0.00443373
0.00444772
0.004466465
0.004489326
0.004515674
0.004544909
0.004576437
0.004609607
0.004643672
0.004677813
0.00471124
0.004743362
0.004773937
0.004803151
0.004831533
0.004859818
0.004888491
0.004917889
0.004947195
0.004973188
4.205125e-05
6.901408e-05
0.0001528556
0.0005247567
0.0009105461
0.00165919
0.002230688
0.002926342
0.003718222
0.004372568
0.004854145
0.005242289
0.005618322
0.005977924
0.006341999
0.00667917
0.006983137
0.007271658
0.007544578
0.007805036
0.008060897
0.008300189
0.008466364
0.008565763
0.008636185
0.008682815
0.008714474
0.008646912
0.008345617
0.008149421
0.008279768
0.007521964
0.007470798
0.007424689
0.007404862
0.007420662
0.007471429
0.007554209
0.007668272
0.007804885
0.007954648
0.008126059
0.008305504
0.008498075
0.008693573
0.008893087
0.00910474
0.009334104
0.009502212
0.009533701
0.0095577
0.009574754
0.009585807
0.009592076
0.009594435
0.00959331
0.009588833
0.009581211
0.009570681
0.009557738
0.009543441
0.009528782
0.009514541
0.009500937
0.009487639
0.009473914
0.009459792
0.009446757
0.00941475
0.009387207
0.009363722
0.009343899
0.009327809
0.009315993
0.009309073
0.009307064
0.009308898
0.009312375
0.009315088
0.009315751
0.00931423
0.009311641
0.009310085
0.009311929
0.009318746
0.009330465
0.009344987
0.009359105
0.009370618
0.009379332
0.009386788
0.009395592
0.009408287
0.009426126
0.009448284
0.009471797
0.009493593
0.009512404
0.009529255
0.00954683
0.009568402
0.009596059
0.0096298
0.00966651
0.009701549
0.009731183
0.009754405
0.009773997
0.009794127
0.0098187
0.009849689
0.00988581
0.009922728
0.00995551
0.009981531
0.01
0.01
0.01
0.01
0.01
0.01
0.01
0.01
0.01
0.01
0.01
0.01
0.01
0.01
0.01
0.01
0.01
0.01
0.01
0.01
0.01
0.01
0.009994614
0.009949358
0.009897543
0.009836805
0.0097658
0.009684683
0.009595552
0.009503298
0.009410646
0.009321016
0.009236184
0.009155601
0.009076264
0.008994027
0.00890631
0.008811579
0.008715648
0.008621615
0.008534172
0.008455839
0.008385122
0.008319613
0.008257426
0.008197387
0.008139183
0.00808311
0.008029539
0.007978034
0.007926378
0.007871517
0.007811802
0.0077474
0.007679698
0.007610471
0.0075412
0.007472853
0.007406103
0.007341641
0.007280313
0.00722303
0.007170585
0.007123551
0.007082258
0.007046736
0.007016648
0.006991279
0.006969586
0.006950213
0.006931399
0.006910836
0.006885699
0.006852686
0.006807738
0.006745855
0.006661682
0.006550637
0.006410035
0.006240021
0.006043751
0.005826424
0.005594366
0.005354805
0.005116054
0.004887018
0.004676186
0.004490437
0.004334267
0.004209387
0.0041151
0.004049181
0.004008564
0.003989884
0.003989561
0.004004852
0.004032925
0.004071041
0.004117198
0.004169058
0.004224748
0.004282608
0.004341177
0.004399159
0.004455406
0.004508753
0.004558611
0.004604026
0.00464432
0.004678788
0.004707187
0.004730027
0.004747564
0.00476035
0.004769187
0.004775072
0.004779081
0.004782261
0.004785604
0.004790141
0.004796997
0.004807324
0.004822212
0.004842627
0.004869399
0.004903238
0.004944775
0.004994616
0.005053417
0.005121947
0.005201139
0.005292151
0.00539636
0.005515506
0.005651489
0.005806693
0.005983366
0.00618425
0.006411405
0.006665918
0.006949191
0.007261617
0.007601784
0.007966648
0.008351217
0.008748681
0.009149561
0.009545438
0.009931553
0.01
0.01
0.01
0.01000002
0.0100003
0.01000165
0.01000382
0.01000264
0.01000073
0.01000008
0.01
0.01
0.01000001
0.01000002
0.01000017
0.01000218
0.01000773
0.01000731
0.01000303
0.00976993
0.009191099
0.008581374
0.007972737
0.007405948
0.006914868
0.006518467
0.006220491
0.006012849
0.005881639
0.005813015
0.005792654
0.005806531
0.005840396
0.005880142
0.005911694
0.005923487
0.005899113
0.005823574
0.005685086
0.005480727
0.005226017
0.004942995
0.004660686
0.004407197
0.004201377
0.004050634
0.003953721
0.003904808
0.003896303
0.003920662
0.003971137
0.004041501
0.004128514
0.00423343
0.004351906
0.004478555
0.004607259
0.004732451
0.004848136
0.004948799
0.005028467
0.005082304
0.005106249
0.005096461
0.005049478
0.004962704
0.004836903
0.004677933
0.004494782
0.004299049
0.004103216
0.003918631
0.003754105
0.003615411
0.003505396
0.003424528
0.003371599
0.003344371
0.003340075
0.003355788
0.003388672
0.003436011
0.003494822
0.003564508
0.003647529
0.003744106
0.00385292
0.003972578
0.004101549
0.004238108
0.004380299
0.004525939
0.004672627
0.004817804
0.004958879
0.005093407
0.005219271
0.005334817
0.005438936
0.005531074
0.005611034
0.005678703
0.005733907
0.005776407
0.00580596
0.005822409
0.005825747
0.005816165
0.005794059
0.005760001
0.005714687
0.005658903
0.005593524
0.005520126
0.005441231
0.005359024
0.005275784
0.005193749
0.005114995
0.005041392
0.004974619
0.004916075
0.004866802
0.004827502
0.004798554
0.004780039
0.004771758
0.004773275
0.004783961
0.004803037
0.004829622
0.004862821
0.004901808
0.004945823
0.004994192
0.005046293
0.005101409
0.005159235
0.005219996
0.005284024
0.005351898
0.00542436
0.0055013
0.005582484
0.005667416
0.005755164
0.005844247
0.005932743
0.006018658
0.006100492
0.006177569
0.006249752
0.006317127
0.006379299
0.006435382
0.006484162
0.006524371
0.006554925
0.006574969
0.00658395
0.006581782
0.006569052
0.00654709
0.006517745
0.006482911
0.006444131
0.006402619
0.006359476
0.006315777
0.006272614
0.006231104
0.006192356
0.006157429
0.006127293
0.006102768
0.006084473
0.006072771
0.006067746
0.006069194
0.006076663
0.006089521
0.006107056
0.00612859
0.006153544
0.006181436
0.006211786
0.006243994
0.006277273
0.006310716
0.006343456
0.006374893
0.006404859
0.006433704
0.006462142
0.006490992
0.006520597
0.006550842
0.006580399
0.006606217
2.354034e-05
3.827086e-05
5.810125e-05
0.0002544438
0.0004185584
0.000717702
0.001012505
0.001283605
0.001624209
0.001956063
0.00231498
0.0027789
0.003327697
0.003946908
0.00463887
0.005513743
0.00716828
0.007822919
0.008448374
0.0090011
0.009473855
0.009864658
0.01
0.01
0.01
0.01
0.01
0.01
0.01
0.01
0.01
0.01
0.01
0.009818795
0.009299046
0.00878696
0.0083141
0.007882464
0.007523235
0.007232615
0.006934903
0.00671663
0.006691174
0.006573932
0.00650553
0.006487299
0.006503736
0.006555953
0.006647738
0.006777054
0.006941384
0.007132592
0.007351066
0.007585753
0.007834731
0.008088738
0.008360691
0.008654764
0.008987971
0.009360616
0.00978931
0.01
0.01
0.01
0.01
0.01
0.01
0.01
0.01
0.01
0.01
0.01
0.01
0.01
0.01
0.01
0.01
0.01
0.01
0.01
0.01
0.01
0.01
0.01
0.01
0.01
0.01
0.01
0.01
0.01
0.01
0.01
0.01
0.01
0.01
0.01
0.01
0.01
0.01
0.01
0.01
0.01
0.01
0.01
0.01
0.01
0.01
0.01
0.01
0.01
0.01
0.01
0.01
0.01
0.01
0.01
0.01
0.01
0.01
0.01
0.01
0.01
0.01
0.01
0.01
0.01
0.01
0.01
0.01
0.01
0.01
0.01
0.01
0.01
0.01
0.01
0.01
0.01
0.01
0.01
0.01
0.01
0.01
0.01
0.01
0.01
0.01
0.01
0.01
0.01
0.01
0.009960241
0.009767146
0.009579838
0.009394899
0.009216637
0.009041488
0.0088791
0.008738096
0.008621102
0.008525825
0.008446949
0.008377481
0.008306423
0.008235018
0.008157475
0.008076701
0.007999859
0.007932184
0.00787498
0.007826141
0.007782527
0.007742354
0.007706858
0.007679484
0.007664565
0.007663756
0.00767339
0.007687208
0.007699967
0.007708068
0.007710069
0.007706288
0.007697859
0.007685997
0.007671748
0.007656077
0.007639936
0.007624227
0.007609681
0.007596842
0.007586096
0.007577656
0.007571519
0.007567484
0.007565267
0.007564606
0.007565061
0.00756573
0.007565136
0.007560756
0.007548317
0.007522333
0.007476818
0.0074065
0.007307988
0.007180438
0.007025279
0.006845519
0.00664532
0.006430147
0.006207024
0.005984314
0.005770858
0.005574748
0.005402147
0.005256705
0.005139699
0.005050592
0.004987652
0.004948446
0.004930274
0.004930364
0.004945814
0.004974156
0.00501334
0.005060877
0.005114707
0.005172936
0.0052336
0.005295563
0.005357107
0.00541674
0.005473032
0.005524609
0.005570199
0.005608708
0.005639058
0.005661276
0.005675458
0.005682039
0.005681944
0.005676512
0.005667374
0.005656231
0.005644598
0.005633851
0.005625331
0.00562092
0.00562217
0.005630439
0.005646887
0.005672522
0.005708261
0.005755013
0.005813764
0.005885654
0.005972054
0.006074606
0.006195303
0.006336438
0.006500633
0.00669061
0.006909069
0.007158251
0.007439369
0.007752197
0.008094641
0.00846243
0.00884928
0.00924715
0.009646392
0.01000001
0.01000003
0.01000003
0.01000001
0.01000001
0.01000008
0.010001
0.01000655
0.01001087
0.01000655
0.0100016
0.01000011
0.01
0.01
0.01000001
0.01000012
0.01000066
0.01000218
0.01000604
0.01000811
0.01000477
0.01000101
0.009113535
0.008824004
0.008894093
0.008905381
0.008756347
0.008485259
0.008104996
0.007804789
0.007585986
0.007441825
0.007360971
0.007330401
0.007335973
0.007363358
0.007398503
0.007428088
0.007437674
0.007410124
0.007333954
0.007198778
0.00699642
0.006726711
0.006411269
0.006076565
0.005753967
0.005468815
0.005235005
0.005056519
0.004931186
0.004854382
0.004820828
0.004825098
0.004861539
0.004924473
0.005009498
0.005116978
0.005241147
0.005375408
0.005512849
0.005646681
0.005770312
0.005877514
0.005962986
0.00602212
0.006050684
0.006044967
0.006002278
0.005920896
0.005802433
0.005652298
0.005478807
0.005292242
0.005103482
0.0049227
0.004758408
0.004616926
0.004502251
0.004416274
0.004359167
0.004329856
0.004326481
0.004346813
0.004388506
0.00444916
0.004526284
0.004617012
0.004722004
0.004843126
0.004978519
0.00512598
0.005283063
0.005447064
0.005615036
0.005783834
0.00595024
0.006111154
0.006263856
0.006406211
0.006536752
0.006654698
0.006759965
0.006852763
0.006933171
0.007001033
0.00705605
0.007097917
0.007126441
0.007141592
0.007143536
0.00713263
0.007109398
0.007074498
0.00702868
0.006972765
0.006907834
0.006835944
0.006759068
0.006679319
0.006598898
0.006520012
0.006444768
0.006375126
0.006312816
0.006259258
0.006215521
0.006182312
0.006159984
0.006148551
0.006147732
0.006156999
0.006175632
0.006202777
0.006237518
0.006278942
0.006326205
0.006378596
0.00643559
0.006496871
0.006562352
0.006632062
0.006705948
0.00678363
0.006864535
0.006949218
0.007038514
0.007131963
0.007228242
0.007325334
0.007420707
0.007511879
0.007597238
0.007676388
0.007749544
0.007817104
0.007878665
0.007933254
0.00797959
0.008016613
0.008043585
0.008059907
0.008065192
0.008059493
0.008043587
0.008019074
0.007988055
0.007952444
0.007913543
0.007872263
0.007829522
0.007786299
0.007743655
0.007702722
0.007664649
0.00763054
0.00760139
0.007578
0.007560902
0.007550301
0.007546065
0.007547743
0.007554642
0.007565947
0.007580879
0.007598844
0.007619498
0.007642679
0.007668193
0.007695591
0.007724099
0.007752753
0.007780668
0.007807311
0.007832674
0.007857321
0.007882209
0.00790825
0.007935684
0.007963969
0.00799148
0.008015062
2.162404e-05
3.33323e-05
6.679799e-05
0.00020307
0.0003269635
0.000521373
0.0006688328
0.0008360498
0.001033476
0.001225608
0.001450603
0.001741421
0.002072583
0.002465917
0.002976141
0.003960675
0.004423201
0.004918322
0.005437459
0.005978634
0.006546417
0.007130595
0.007713433
0.00827871
0.008811737
0.009303348
0.009766316
0.01
0.01
0.01
0.01
0.01
0.01
0.01
0.01
0.01
0.01
0.01
0.01
0.01
0.01
0.009772739
0.009263917
0.008749281
0.008243289
0.007767208
0.007341519
0.006972365
0.006657614
0.006396083
0.006189399
0.006030047
0.005917858
0.00583161
0.005792062
0.005806916
0.005868952
0.005976483
0.006134621
0.00634463
0.00660783
0.006919979
0.007290153
0.00769452
0.008097723
0.008502227
0.008912032
0.009333531
0.009828004
0.01
0.01
0.01
0.01
0.01
0.01
0.01
0.01
0.01
0.01
0.01
0.01
0.01
0.01
0.01
0.01
0.01
0.01
0.01
0.01
0.01
0.01
0.01
0.01
0.01
0.01
0.01
0.01
0.01
0.01
0.01
0.01
0.01
0.01
0.01
0.01
0.01
0.01
0.01
0.01
0.01
0.01
0.01
0.01
0.01
0.01
0.01
0.01
0.01
0.01
0.01
0.01
0.01
0.01
0.01
0.01
0.01
0.01
0.01
0.01
0.01
0.01
0.01
0.01
0.01
0.01
0.01
0.01
0.01
0.01
0.01
0.01
0.01
0.01
0.01
0.01
0.01
0.01
0.01
0.01
0.01
0.01
0.01
0.01
0.01
0.01
0.01
0.009721225
0.009438921
0.009169268
0.008924299
0.008711749
0.008532597
0.008382915
0.008254199
0.008137271
0.008024565
0.007916347
0.007816995
0.00773239
0.007666123
0.007618633
0.007586779
0.007563106
0.007538571
0.00750416
0.007458833
0.007407711
0.007357895
0.007314972
0.007281082
0.007255105
0.007234431
0.007216664
0.007201746
0.007191686
0.007189095
0.007195478
0.007209288
0.007226488
0.007243443
0.007258306
0.007271825
0.007286054
0.007302524
0.007321488
0.007342334
0.00736427
0.007386793
0.007409753
0.00743312
0.007456857
0.007480977
0.007505593
0.007530844
0.007556783
0.007583442
0.007611176
0.00764073
0.007672798
0.007707597
0.007744336
0.007780604
0.007813499
0.007838058
0.007846936
0.007834138
0.007796114
0.007731321
0.00763991
0.007523176
0.00738334
0.007223819
0.007049701
0.006867851
0.006686319
0.006513148
0.006355166
0.006217249
0.006102219
0.006011118
0.005943631
0.005898515
0.00587394
0.005867736
0.005877405
0.005900677
0.005935827
0.005980488
0.006032633
0.006090421
0.006151961
0.006215537
0.006279434
0.006341893
0.0064011
0.006455233
0.006502563
0.006541561
0.006570912
0.006590067
0.006599026
0.006598203
0.006588664
0.006571967
0.006550094
0.006525352
0.006500006
0.006476088
0.006454765
0.006437689
0.006427271
0.006425271
0.006433114
0.006452074
0.006483365
0.00652824
0.006588082
0.006664497
0.006759378
0.006874968
0.007013828
0.00717876
0.007372586
0.007597837
0.007856264
0.008148163
0.008471699
0.008822452
0.009193545
0.009576037
0.009961464
0.01000003
0.01000016
0.0100002
0.01000008
0.01000004
0.01000016
0.01000173
0.01001625
0.01002115
0.01001244
0.01000199
0.0100001
0.01000001
0.01
0.01000001
0.01000003
0.01000043
0.01000693
0.01003344
0.01003944
0.0100284
0.01001149
0.01000241
0.008925674
0.008458669
0.008651667
0.008896871
0.009031444
0.009119063
0.009222227
0.00906068
0.008867248
0.008738311
0.008665467
0.008636689
0.008638489
0.008657404
0.008680724
0.008696558
0.008687563
0.008643667
0.008556523
0.008418133
0.008221432
0.007962303
0.007650683
0.007311988
0.006976341
0.00666928
0.006404688
0.006188186
0.006020128
0.005898972
0.005822917
0.00578942
0.005795051
0.00583515
0.005903647
0.005996084
0.006110794
0.006240676
0.006378153
0.006515728
0.006646335
0.006763611
0.006862112
0.006937182
0.006984747
0.007001459
0.006984977
0.006931668
0.006842446
0.006721185
0.006574152
0.006409361
0.006235842
0.006062861
0.005899109
0.005752035
0.005627364
0.00552892
0.005458721