/*--------------------------------*- C++ -*----------------------------------*\
| =========                 |                                                 |
| \\      /  F ield         | foam-extend: Open Source CFD                    |
|  \\    /   O peration     | Version:     3.1                                |
|   \\  /    A nd           | Web:         http://www.extend-project.de       |
|    \\/     M anipulation  |                                                 |
\*---------------------------------------------------------------------------*/
FoamFile
{
    version     2.0;
    format      ascii;
    class       volScalarField;
    location    "19.5";
    object      omega;
}
// * * * * * * * * * * * * * * * * * * * * * * * * * * * * * * * * * * * * * //

dimensions      [0 0 -1 0 0 0 0];

internalField   nonuniform List<scalar> 
119952
(
401.2178
513.2239
488.6302
426.3372
383.0658
386.7161
393.4184
401.6954
411.0266
421.1504
431.9449
443.3424
455.3096
467.8292
480.9045
494.5316
508.7268
523.5694
539.3267
557.3128
466.4612
464.349
468.4979
393.2849
384.6085
379.343
374.8918
370.712
362.9916
240.6521
807.5001
681.2918
577.5869
501.6017
444.3199
399.9701
364.4269
335.3111
310.8516
283.7491
240.7849
210.2815
188.8526
172.7864
160.012
149.3737
140.272
132.336
125.3464
97.34497
93.60188
89.88301
86.20977
82.68931
79.39454
76.35992
73.58422
71.03652
68.69111
66.60514
64.61404
62.68605
60.84268
59.09558
57.44811
55.88633
54.37034
52.88932
52.47575
52.2499
51.62809
51.12297
50.7815
50.56075
50.3727
50.26467
50.19585
50.14265
50.08355
50.01455
49.95067
49.91408
49.92074
49.97398
50.05979
50.14236
50.16172
50.01992
49.77385
49.61613
49.32917
49.0548
49.1326
49.51931
50.15008
51.39409
54.09707
57.85517
58.71617
59.25474
59.42779
59.48845
59.52363
59.54561
59.57712
59.64663
59.78519
60.02119
60.36982
60.82308
61.34846
61.90359
62.45414
62.98062
63.47357
63.92433
64.31893
64.63873
64.86577
64.9885
65.00441
64.91922
64.74536
64.50187
64.21486
63.91712
63.64741
63.45095
63.38091
63.4992
63.87602
64.58992
65.73029
67.40105
69.72123
72.81228
76.74059
81.38218
86.3271
91.05401
95.12798
98.12343
99.6242
99.40057
97.5123
94.28627
90.17423
86.00072
81.94371
78.14405
74.71351
71.66181
68.96699
66.6017
64.52507
62.72055
61.16354
59.82477
58.67693
57.68921
56.83041
56.07071
55.38271
54.74243
54.12866
53.52149
52.90853
52.28083
51.6319
50.95831
50.25964
49.53878
48.80187
48.05726
47.31378
46.57918
45.85979
45.16104
44.48799
43.84558
43.23888
42.67317
42.15376
41.6856
41.27284
40.91846
40.6244
40.39192
40.22112
40.11225
40.06575
40.08096
40.15633
40.28865
40.475
40.70687
40.99968
46.06206
53.74749
58.42621
61.5396
63.83154
65.69955
67.3605
68.94303
70.5318
72.18525
73.94897
75.85293
77.91641
80.15685
82.57974
85.1781
87.97364
91.00727
94.25594
97.62976
100.9824
104.1873
107.4419
113.3054
122.3175
132.1815
143.139
153.7711
163.0311
170.834
178.4243
188.6192
204.881
219.2862
216.1713
196.7166
175.2519
158.6425
147.4839
141.4154
139.4375
139.4517
138.3029
135.2995
131.5234
128.0735
125.1971
122.5974
119.8437
116.5153
112.4197
107.6662
102.5608
97.40606
92.49684
88.03125
84.08748
80.66003
77.7204
75.20862
73.06144
71.23615
69.70857
68.47816
67.57589
67.06023
67.01715
67.55041
68.7193
70.53466
59.61688
61.82546
63.85138
65.64107
67.14339
68.23414
68.7976
68.7145
67.93057
66.48435
64.50296
62.16651
59.65406
57.09328
54.56842
52.1148
49.80337
47.68103
45.76653
44.05649
42.53596
41.17979
39.96763
38.88211
37.90767
37.03117
36.24214
35.53289
34.89818
34.33446
33.83957
33.41262
33.05378
32.76392
32.54422
32.39566
32.31844
32.31161
32.3732
32.50002
32.68746
32.93002
33.22047
33.55045
33.91786
34.32886
34.7804
35.26109
35.75941
36.25936
36.74319
37.18884
37.56404
37.87967
38.22117
38.31926
38.33271
38.24446
38.04306
37.73228
37.32264
36.82594
36.24829
35.61144
34.93847
34.24736
33.55454
32.87412
32.21668
31.59061
31.00186
30.45408
29.94865
29.48517
29.06165
28.67475
28.32025
27.99318
27.68821
27.40041
27.12565
26.86073
26.60348
26.35284
26.10899
25.87351
25.64943
25.44073
25.25144
25.08435
24.94026
24.81818
24.71649
24.63442
24.57298
24.53486
24.52372
24.54322
24.59589
24.6832
24.80341
24.95211
25.12244
25.30517
25.48986
25.66642
25.82572
25.95964
26.06215
26.12935
26.15772
26.14475
26.08925
25.99135
25.8525
25.67552
25.46463
25.22524
24.96376
24.68711
24.40229
24.11595
23.83403
23.56154
23.30251
23.06001
22.83642
22.63354
22.45264
22.2943
22.15789
22.04127
21.94005
21.8465
21.74636
21.61376
21.40006
21.06053
21.0548
807.3251
659.767
572.199
512.445
467.1322
430.1829
398.7706
371.4633
346.2356
294.0818
239.7597
205.2885
182.1005
165.578
153.1412
143.3066
135.2438
128.3797
100.9459
96.60054
92.39435
88.38098
84.63894
81.21425
78.10792
75.30502
72.7818
70.49494
68.48921
66.65205
64.86265
63.11717
61.41825
59.77455
58.1972
56.69715
55.27811
54.22059
53.46715
52.61726
51.69669
50.73653
49.75722
48.77853
47.81978
46.89314
46.00666
45.15582
44.32671
43.51793
42.72746
41.95642
41.21063
40.49733
39.8209
39.18987
34.91135
34.4199
33.94333
33.48204
33.03851
32.61516
32.21294
31.82928
31.45882
31.09299
30.72782
30.36575
30.00909
29.66213
29.33009
29.01617
28.72187
28.45112
28.21125
27.99283
27.76221
27.53449
27.33261
27.15915
27.00487
26.86556
26.73736
26.62071
26.50427
26.3857
26.26823
26.15855
26.06303
25.98438
25.92025
25.86374
25.80549
25.74008
25.66429
25.58509
25.51588
25.46201
25.45132
25.51488
25.63739
25.79793
25.99679
26.21558
26.38447
26.47351
26.56507
26.65297
26.73828
26.82539
26.91364
27.00678
27.11271
27.24174
27.40392
27.60323
27.83321
28.07977
28.32843
28.56885
28.79558
29.00611
29.19799
29.36736
29.5091
29.61829
29.6917
29.72837
29.72962
29.69916
29.64338
29.57127
29.49406
29.42528
29.38126
29.38135
29.44764
29.60453
29.87877
30.29896
30.89361
31.68846
32.70347
33.94784
35.41363
37.07837
38.9146
40.88085
42.90103
44.86299
46.63547
48.09025
49.1245
49.67583
49.747
49.37172
48.61776
47.58183
46.35927
45.03502
43.67939
42.34452
41.0666
39.87037
38.76998
37.77112
36.87444
36.07717
35.37384
34.7569
34.21734
33.74649
33.32999
32.95306
32.60328
32.26765
31.93319
31.58771
31.22034
30.82197
30.3858
29.90764
29.38617
28.82278
28.2213
27.58753
26.92873
26.25299
25.56861
24.88362
24.20536
23.54022
22.89367
22.27023
21.6736
21.10681
20.57216
20.07156
19.60625
19.17753
18.78611
18.43349
18.11969
17.84015
18.12709
18.38721
18.53507
18.6311
18.71518
18.81508
18.95037
19.13499
19.37841
19.68669
20.06409
20.51567
21.04959
21.67734
22.40951
23.25042
24.19802
25.21125
26.20074
27.09058
27.78283
28.20783
28.44039
28.63853
28.9998
29.8094
31.15085
32.95841
35.09261
37.45008
40.08866
43.25765
47.05408
50.59995
52.62216
52.74951
51.27973
48.77004
45.76498
42.7282
39.95113
37.53617
35.53591
33.99657
32.95602
32.39777
32.32584
32.75757
33.67391
34.97877
36.47583
37.86723
38.81694
39.06623
38.53313
37.32714
35.67411
33.8167
31.95193
30.15688
28.47828
26.96478
25.63506
24.49383
23.53803
22.75917
22.14593
21.6867
21.37139
21.19499
19.43389
19.41608
19.5507
19.85249
20.33711
20.99183
21.77522
22.63802
23.51184
24.32312
25.00168
25.48878
25.74522
25.75674
25.53493
25.11106
24.53014
23.84208
23.07698
22.25886
21.40818
20.55488
19.72476
18.93421
18.19289
17.50546
16.87322
16.29538
15.76998
15.29446
14.86609
14.48215
14.13999
13.83713
13.57114
13.33969
13.14044
12.97116
12.82971
12.71414
12.62286
12.5546
12.50856
12.48434
12.48173
12.50045
12.53979
12.59881
12.67687
12.77325
12.88742
13.01936
13.16766
13.32623
13.48437
13.63206
13.76867
13.88994
13.99013
14.06427
14.10912
14.1238
14.1085
14.06432
13.99427
13.90346
13.79481
13.66949
13.52927
13.37616
13.21199
13.03873
12.85999
12.67894
12.49816
12.31965
12.14478
11.97439
11.80898
11.64888
11.49431
11.34542
11.20235
11.06527
10.9345
10.81059
10.69432
10.58656
10.48796
10.39868
10.31839
10.24644
10.18223
10.12544
10.07613
10.03462
10.00136
9.976775
9.961155
9.95459
9.956797
9.966997
9.983946
10.00606
10.0316
10.05899
10.08681
10.11377
10.13866
10.16033
10.17766
10.18961
10.19528
10.19392
10.18499
10.16823
10.14368
10.1117
10.07292
10.02824
9.97874
9.925548
9.869812
9.812614
9.75496
9.697789
9.642003
9.588462
9.537935
9.491029
9.448007
9.408772
9.372623
9.338663
9.30521
9.271667
9.236294
9.20317
9.180144
642.0237
569.8571
510.5704
466.7741
433.3369
407.5891
388.0051
374.0448
365.9858
357.1571
182.3381
170.063
160.7602
156.3482
151.7834
147.5025
143.4706
139.5583
136.0021
91.26957
88.07279
86.63954
85.43484
84.24122
82.98618
81.67956
80.3528
79.01071
77.65253
75.796
73.62575
71.50258
69.58871
67.90772
66.42585
65.09744
63.88192
62.73626
62.51613
61.82751
60.87956
59.80536
58.68706
57.57206
56.48633
55.4419
54.44301
53.49441
52.58282
51.69478
50.8261
49.97311
49.1367
48.31821
47.51911
46.74885
42.66586
42.01553
41.39011
40.78495
40.19512
39.61846
39.05617
38.51139
37.98775
37.48535
36.99903
36.52536
36.06019
35.59836
35.13789
34.68088
34.23204
33.79671
33.37782
32.97294
32.57758
32.18803
31.8007
31.41443
31.03189
30.65807
30.29762
29.95183
29.61668
29.28704
28.95854
28.62825
28.29827
27.97459
27.66363
27.3697
27.0914
26.81561
26.591
26.35914
26.12054
25.87868
25.63965
25.40994
25.19324
24.98792
24.78856
24.58874
24.38487
24.17685
23.96821
23.76539
23.57524
23.40163
23.24535
23.1035
22.97088
22.84017
22.70486
22.56722
22.43823
22.32527
22.22871
22.1445
22.06541
21.98566
21.90316
21.81642
21.73045
21.65281
21.5899
21.5441
21.51289
21.49064
21.47117
21.45055
21.42875
21.40972
21.40254
21.41212
21.44521
21.50587
21.58962
21.67384
21.75062
21.80895
21.85057
21.87228
21.8869
21.90817
21.93582
21.96583
21.99592
22.02821
22.06849
22.12395
22.20148
22.30349
22.42403
22.55154
22.67563
22.79059
22.89503
22.98953
23.07403
23.14677
23.20471
23.24474
23.26465
23.26357
23.24181
23.20104
23.14472
23.07798
23.00722
22.94012
22.88622
22.85729
22.86687
22.92972
23.06183
23.27978
23.59858
24.02943
24.579
25.24954
26.03985
26.94805
27.97302
29.10891
30.33673
31.61673
32.88729
34.06957
35.08506
35.86646
36.3714
36.58667
36.52291
36.2126
35.70221
35.04413
34.28542
33.47002
32.63291
31.80128
30.99438
30.22649
29.50759
28.84428
28.24071
27.69907
27.21986
26.80197
26.44361
26.14143
25.88676
25.67084
25.48488
25.31905
25.16256
25.00435
24.83367
24.64057
24.41618
24.15351
23.84762
23.49652
23.09982
22.66058
22.18383
21.6762
21.14523
20.59867
20.0441
19.48859
18.9386
18.39978
17.87726
17.375
16.89734
16.44664
16.02876
15.64292
15.29795
14.99425
14.75946
14.56042
14.41118
14.32158
14.30047
14.35561
14.49303
14.71613
15.02638
15.42488
15.91537
16.50627
17.21104
18.04379
19.00663
20.07077
21.1711
22.22269
23.13246
23.81501
24.20866
24.29357
24.1251
23.83955
23.60398
23.56751
23.77968
24.22862
24.86812
25.64778
26.54281
27.5484
28.61761
29.59884
30.28209
30.50542
30.21632
29.4743
28.40488
27.15144
25.84263
24.57789
23.42762
22.43843
21.6396
21.04874
20.6776
20.54253
20.65191
20.99539
21.54098
22.22085
22.93271
23.56007
24.00486
24.21154
24.16922
23.89904
23.43825
22.83059
22.11924
21.33183
20.50259
19.67765
18.89035
18.16093
17.49952
16.90918
16.39074
15.93993
15.58508
15.30356
15.10178
14.9873
14.9756
15.08546
15.31288
15.64149
16.0461
16.49202
16.93846
17.34385
17.67122
17.89229
17.99011
17.95951
17.80623
17.54485
17.1966
16.78716
16.34409
15.87768
15.39117
14.89347
14.39767
13.91381
13.44928
13.00915
12.59662
12.21347
11.86045
11.53754
11.24411
10.97913
10.74117
10.52858
10.33954
10.1722
10.02477
9.895679
9.783593
9.687455
9.606442
9.53991
9.487348
9.448295
9.422314
9.408953
9.407897
9.418966
9.442228
9.478103
9.527056
9.585945
9.653118
9.725096
9.797754
9.867563
9.931484
9.986575
10.02996
10.05942
10.07355
10.07159
10.05349
10.01987
9.971873
9.910981
9.83901
9.758112
9.670959
9.580134
9.486356
9.390344
9.292821
9.19442
9.095531
8.996657
8.898506
8.801672
8.706666
8.613933
8.523879
8.436883
8.353331
8.273679
8.198468
8.128263
8.063501
8.004325
7.950544
7.901752
7.857476
7.817378
7.781293
7.749198
7.72116
7.697257
7.677551
7.66206
7.650712
7.643279
7.639329
7.638247
7.639323
7.641884
7.645361
7.649263
7.653145
7.656581
7.659155
7.660453
7.660083
7.657689
7.652965
7.645684
7.635716
7.623044
7.607772
7.590109
7.570355
7.548861
7.526004
7.502154
7.477664
7.452875
7.428127
7.40378
7.38018
7.357673
7.336494
7.31681
7.29855
7.281681
7.265778
7.250529
7.235528
7.220401
7.207294
376.7155
274.9647
387.9761
175.7406
137.3774
100.0545
86.5176
75.12642
65.88345
61.41387
59.61737
58.65856
57.8598
57.34117
56.8473
56.57868
56.52552
56.56256
56.67556
56.81869
56.92198
57.03303
57.47085
58.18354
58.9533
59.76352
60.53149
61.20784
61.73539
62.03806
62.15147
60.73263
60.4271
60.04505
59.57153
59.00097
58.34057
57.60456
56.80805
55.96719
55.10108
54.21474
53.31639
52.41022
51.50293
50.59917
49.70188
48.81277
47.93421
47.07042
46.23083
45.42276
44.64475
43.8961
43.17628
42.484
41.81676
41.17171
40.54543
39.93489
39.33933
38.75899
38.19532
37.65011
37.12301
36.61107
36.11034
35.60938
35.16278
34.71756
34.27579
33.83601
33.39681
32.95997
32.53044
32.11492
31.71901
31.3441
30.98614
30.63819
30.29253
29.94342
29.5898
29.23602
28.89008
28.56
28.24966
27.95634
27.67228
27.38849
27.09879
26.8027
26.50544
26.21498
25.93857
25.67815
25.42926
25.18378
24.9343
24.6777
24.41721
24.16041
23.91662
23.69247
23.4876
23.29341
23.10224
22.9069
22.70527
22.5014
22.30409
22.12237
21.96064
21.81578
21.67968
21.54399
21.40344
21.25759
21.11131
20.97319
20.85144
20.7496
20.66594
20.59447
20.52626
20.45406
20.37628
20.30001
20.23749
20.19625
20.17557
20.16813
20.1632
20.15465
20.14753
20.14674
20.1613
20.20342
20.2794
20.3835
20.50397
20.63174
20.76427
20.90023
21.03691
21.18082
21.33136
21.48343
21.63176
21.77097
21.89336
21.98729
22.05166
22.08755
22.11373
22.143
22.1779
22.21475
22.24741
22.27119
22.2851
22.29244
22.29776
22.30367
22.30966
22.31025
22.29701
22.26523
22.21621
22.15594
22.09198
22.03003
21.97201
21.91649
21.86047
21.80099
21.73602
21.66452
21.58606
21.501
21.41076
21.3177
21.22474
21.13534
21.05403
20.98676
20.94046
20.9228
20.94291
21.01071
21.13447
21.31899
21.5662
21.87642
22.25035
22.69154
23.20678
23.80305
24.48214
25.23421
26.03339
26.83774
27.59453
28.24878
28.75357
29.07778
29.20876
29.15211
28.92819
28.56814
28.10217
27.56207
26.97723
26.36912
25.75786
25.15763
24.57889
24.02935
23.51478
23.03954
22.60764
22.21983
21.8783
21.58326
21.33441
21.12899
20.96089
20.82466
20.71346
20.61931
20.53339
20.44662
20.35032
20.23669
20.09872
19.93031
19.727
19.48625
19.20757
18.89264
18.54496
18.16937
17.77153
17.35753
16.93357
16.50567
16.0796
15.66065
15.25415
14.86496
14.49888
14.16145
13.86001
13.6018
13.3957
13.24916
13.16998
13.16669
13.24742
13.41944
13.68774
14.0547
14.51889
15.08046
15.74582
16.52911
17.44678
18.51053
19.70203
20.95696
22.16166
23.21007
24.03395
24.59931
24.88112
24.86162
24.57057
24.11938
23.66748
23.35895
23.25932
23.36826
23.64201
24.02361
24.46902
24.95688
25.45932
25.90768
26.19562
26.22499
25.94948
25.38463
24.59259
23.65319
22.65092
21.65678
20.72454
19.8911
19.18056
18.60155
18.16491
17.87725
17.74694
17.77863
17.9582
18.2576
18.62812
19.00585
19.32777
19.54809
19.64422
19.61298
19.46107
19.19965
18.84536
18.42143
17.94655
17.42832
16.89053
16.35449
15.83727
15.34702
14.89117
14.47415
14.09956
13.7696
13.48844
13.2613
13.09448
12.99536
12.96962
13.01505
13.12437
13.28394
13.47464
13.67417
13.85954
14.00958
14.10716
14.1407
14.10476
13.9999
13.83179
13.60991
13.34595
13.05262
12.74401
12.42765
12.10411
11.77801
11.45558
11.14188
10.84087
10.55547
10.28767
10.03868
9.809006
9.598553
9.406739
9.232597
9.07494
8.932493
8.804013
8.688381
8.584667
8.49211
8.410073
8.338008
8.275458
8.222042
8.177462
8.141482
8.113953
8.094825
8.084172
8.082197
8.089227
8.105123
8.128303
8.157109
8.189647
8.223871
8.257702
8.289092
8.316063
8.336841
8.349978
8.354407
8.349476
8.334957
8.311033
8.278242
8.237413
8.189592
8.135957
8.077696
8.015908
7.951619
7.885784
7.819306
7.753164
7.687962
7.623874
7.561022
7.49943
7.43908
7.380301
7.323407
7.268664
7.216292
7.166505
7.11954
7.075643
7.035004
6.997641
6.963379
6.931862
6.902687
6.875503
6.850091
6.826371
6.804316
6.783928
6.765246
6.748363
6.733407
6.720458
6.709444
6.7001
6.692079
6.6851
6.67897
6.673546
6.668704
6.66431
6.660212
6.656235
6.652185
6.647855
6.643031
6.637511
6.631121
6.623738
6.615297
6.605802
6.59533
6.584019
6.572042
6.55958
6.546787
6.533784
6.520676
6.507586
6.494686
6.482201
6.470386
6.459482
6.449652
6.440883
6.432854
6.42533
6.417442
6.409748
340.9283
229.7569
173.7643
153.7856
124.8572
103.8599
88.98579
83.01439
76.45605
72.60689
69.31303
65.00119
60.76215
56.81649
53.28301
49.48467
43.58081
42.30929
41.42807
41.03379
41.09047
41.46148
41.98194
42.60885
43.34717
44.14607
44.9931
45.8885
46.83314
47.83112
48.8867
49.99998
51.16271
52.37483
53.60158
54.76032
55.8706
56.74619
57.35388
57.71165
57.91733
57.89482
57.50648
57.01378
56.40145
55.66161
54.81201
53.87327
52.86629
51.81528
50.74369
49.67388
48.62168
47.599
46.60958
45.65295
44.72333
43.81763
42.93226
42.07309
41.24232
40.44358
39.68106
38.95596
38.26929
37.62105
37.00886
36.42816
35.87325
35.33848
34.81873
34.31115
33.81611
33.33742
32.87897
32.44112
32.01886
31.60636
31.19809
30.79661
30.40423
30.02053
29.64055
29.25912
28.876
28.49742
28.13372
27.79465
27.48346
27.19461
26.91725
26.63943
26.35219
26.0529
25.74705
25.44663
25.1653
24.91164
24.68327
24.46848
24.25297
24.02641
23.78681
23.54065
23.29965
23.07587
22.87405
22.68805
22.50559
22.31497
22.11051
21.89544
21.68099
21.48181
21.3084
21.16056
21.02763
20.89584
20.75516
20.6033
20.4468
20.29916
20.17417
20.07676
20.00068
19.93439
19.86797
19.7967
19.72228
19.65289
19.60065
19.57506
19.57566
19.59317
19.61653
19.636
19.65018
19.67909
19.75619
19.90137
20.11157
20.36371
20.62586
20.86886
21.09328
21.34279
21.63484
21.99431
22.45207
23.00785
23.60489
24.16496
24.67186
25.15412
25.6287
26.09679
26.58256
27.06088
27.49167
27.84343
28.09885
28.25525
28.32563
28.35147
28.35331
28.38768
28.46855
28.57184
28.66141
28.71242
28.72349
28.70616
28.67174
28.62033
28.53876
28.40332
28.18823
27.88268
27.50359
27.08495
26.66104
26.25675
25.88375
25.54256
25.2278
24.93333
24.6547
24.38949
24.13664
23.89574
23.66681
23.45007
23.24572
23.05373
22.8737
22.70497
22.54682
22.39817
22.25807
22.1279
22.01257
21.91791
21.8457
21.79707
21.77467
21.78333
21.83122
21.92979
22.09172
22.32708
22.63865
23.01777
23.44248
23.87899
24.28664
24.62503
24.86097
24.97333
24.95495
24.81144
24.55803
24.21518
23.80516
23.35014
22.86844
22.37395
21.87984
21.39524
20.927
20.48116
20.05992
19.66745
19.30663
18.97967
18.68807
18.43244
18.21239
18.02722
17.87318
17.74625
17.64166
17.55365
17.47567
17.40084
17.32241
17.23464
17.13279
17.01289
16.8705
16.70312
16.50964
16.29029
16.04672
15.78164
15.4986
15.20173
14.89549
14.58459
14.27385
13.96843
13.67388
13.39669
13.14428
12.9255
12.75049
12.63047
12.57725
12.60275
12.71811
12.93317
13.25562
13.68891
14.23165
14.88034
15.63503
16.50388
17.50044
18.634
19.89468
21.22445
22.49381
23.5649
24.36729
24.90483
25.21958
25.35101
25.30815
25.08205
24.6953
24.23685
23.83914
23.60865
23.59348
23.75637
23.99153
24.21478
24.40049
24.54604
24.62743
24.59356
24.39354
24.00413
23.43435
22.71914
21.90958
21.05973
20.21874
19.42522
18.70536
18.07408
17.53904
17.10301
16.76484
16.52586
16.3903
16.36112
16.42495
16.55952
16.72946
16.89268
17.01402
17.07215
17.05964
16.97705
16.8273
16.61561
16.3509
16.0454
15.71176
15.35322
14.9811
14.60623
14.23756
13.88184
13.54352
13.22568
12.93157
12.66475
12.42904
12.22862
12.06851
11.95428
11.88725
11.86531
11.88317
11.93225
12.00123
12.07696
12.14572
12.1946
12.21287
12.19298
12.13107
12.02688
11.88329
11.70552
11.50047
11.27589
11.0397
10.7999
10.55977
10.32075
10.08631
9.859426
9.642415
9.436977
9.244215
9.064683
8.898437
8.745118
8.604072
8.474491
8.355541
8.246445
8.146522
8.055169
7.971813
7.895907
7.826965
7.76459
7.708491
7.658482
7.614472
7.576447
7.544464
7.518646
7.499172
7.486278
7.480166
7.480209
7.485486
7.494937
7.507358
7.521434
7.535795
7.549077
7.559965
7.567264
7.569964
7.56729
7.558742
7.544106
7.523444
7.497056
7.46544
7.429231
7.389153
7.345983
7.300525
7.253593
7.205972
7.158375
7.111365
7.065331
7.020555
6.977346
6.936034
6.896585
6.858929
6.823064
6.788884
6.75615
6.724633
6.694297
6.665394
6.638207
6.612839
6.589049
6.566268
6.543944
6.521754
6.499631
6.47758
6.455593
6.433722
6.412178
6.391382
6.371863
6.353983
6.337715
6.322825
6.309141
6.296612
6.285289
6.275225
6.266446
6.258936
6.252637
6.247432
6.243138
6.239502
6.236219
6.232952
6.229375
6.225202
6.220237
6.214409
6.207785
6.200547
6.192906
6.185002
6.176857
6.1684
6.159574
6.150437
6.141216
6.132288
6.124121
6.117124
6.111449
6.106805
6.102649
6.098066
6.09301
177.3496
130.5227
199.9394
97.82555
83.67872
71.40892
67.72815
65.0806
62.1803
60.96137
59.38969
57.19737
55.15309
52.9986
50.48671
45.5491
44.40495
43.35119
42.35061
41.4099
40.48436
39.62145
38.87971
38.28935
37.86848
37.61132
37.44026
37.31025
37.38187
37.68806
38.21762
38.91312
39.72199
40.61233
41.5499
42.52394
43.53699
44.59174
45.68522
46.83141
48.05098
49.31544
50.57353
51.80879
52.92033
53.77689
54.40273
54.76636
54.86079
54.69557
54.29037
53.68072
52.89791
51.99279
50.98578
49.88748
48.71523
47.48922
46.2297
44.96166
43.71223
42.50759
41.37003
40.31524
39.34694
38.45651
37.63002
36.85536
36.12103
35.42342
34.76297
34.13519
33.53834
32.97524
32.44903
31.96056
31.50628
31.07952
30.67292
30.27966
29.89351
29.5105
29.13163
28.76356
28.41424
28.08604
27.77316
27.46587
27.15806
26.85155
26.55155
26.25966
25.97067
25.67575
25.37114
25.06295
24.76502
24.49295
24.25393
24.04194
23.84369
23.64413
23.4299
23.19378
22.93977
22.68432
22.44887
22.24716
22.07807
21.92806
21.77906
21.61624
21.43383
21.23838
21.04681
20.87622
20.73334
20.61129
20.49482
20.36868
20.22467
20.06574
19.90624
19.76653
19.66059
19.586
19.52743
19.46873
19.40184
19.32875
19.26096
19.21715
19.21258
19.24386
19.2915
19.33738
19.37546
19.41305
19.46844
19.56574
19.72432
19.94535
20.20443
20.46872
20.71871
20.95117
21.20317
21.61313
22.30799
23.27956
24.4514
25.68099
26.8341
27.82432
28.67309
29.54298
30.51309
31.61878
32.84639
34.14545
35.39506
36.45743
37.28118
37.96656
38.61701
39.31247
40.05513
40.78706
41.41493
41.85183
42.04614
42.00462
41.81204
41.59558
41.48092
41.51057
41.65346
41.8249
41.93174
41.9319
41.839
41.69476
41.53994
41.36927
41.13326
40.76118
40.19584
39.44314
38.57186
37.65596
36.74967
35.88065
35.05459
34.26726
33.51433
32.79481
32.11034
31.4634
30.85639
30.2914
29.76961
29.29054
28.8519
28.4502
28.08109
27.73813
27.41137
27.08815
26.75552
26.40189
26.01995
25.60946
25.17294
24.72051
24.27261
23.84647
23.4561
23.11641
22.84197
22.64492
22.53199
22.5014
22.54092
22.62815
22.73329
22.82381
22.86985
22.84885
22.74822
22.5656
22.30717
21.9847
21.61279
21.20647
20.78
20.34507
19.90915
19.48006
19.06307
18.66193
18.27985
17.91924
17.58221
17.27057
16.98571
16.72847
16.49905
16.29698
16.12124
15.96955
15.83879
15.72542
15.6253
15.53389
15.44639
15.35789
15.26402
15.16125
15.04818
14.92307
14.78358
14.62891
14.45922
14.27549
14.0794
13.87328
13.65994
13.4427
13.22534
13.01238
12.80927
12.6228
12.46141
12.33544
12.25737
12.24146
12.30301
12.45703
12.71676
13.09248
13.59078
14.21289
14.95337
15.8024
16.75419
17.81203
18.97878
20.23891
21.54159
22.76411
23.73414
24.36338
24.67543
24.75904
24.73472
24.71395
24.76344
24.85714
24.86946
24.69266
24.47004
24.37476
24.39381
24.54668
24.74788
24.84224
24.7852
24.61597
24.36414
24.03011
23.60193
23.07179
22.44524
21.7427
20.99465
20.23492
19.49481
18.79881
18.16263
17.5944
17.09759
16.67007
16.3099
16.01711
15.79407
15.64482
15.56882
15.55612
15.58792
15.63405
15.66687
15.66916
15.63421
15.56099
15.44971
15.30108
15.11722
14.9027
14.66477
14.40971
14.13979
13.86056
13.57754
13.29577
13.01941
12.75176
12.49575
12.25443
12.03118
11.82975
11.65434
11.50941
11.39671
11.31635
11.26637
11.2426
11.23904
11.2482
11.26145
11.26971
11.26438
11.23826
11.18627
11.10578
10.99661
10.86082
10.70228
10.52601
10.3376
10.14265
9.946442
9.75292
9.563597
9.380546
9.205428
9.039373
8.883012
8.736528
8.599741
8.472227
8.35345
8.242881
8.140056
8.044623
7.956329
7.874762
7.7993
7.729288
7.664181
7.603599
7.547324
7.495265
7.447434
7.403926
7.364896
7.330538
7.301056
7.276671
7.25762
7.243738
7.234532
7.229403
7.227637
7.228414
7.230832
7.233941
7.236759
7.238317
7.237711
7.234162
7.227071
7.216051
7.200935
7.181758
7.158731
7.132201
7.102622
7.070544
7.036615
7.001578
6.966241
6.93139
6.89766
6.865432
6.834834
6.805857
6.778516
6.75291
6.729199
6.707315
6.68685
6.667005
6.646911
6.626112
6.604862
6.58379
6.563384
6.543561
6.523522
6.50253
6.480387
6.457248
6.433219
6.408237
6.382297
6.355668
6.329035
6.303362
6.279407
6.257291
6.236731
6.217619
6.200039
6.18415
6.170126
6.158088
6.148116
6.140234
6.134379
6.130357
6.127827
6.126321
6.12529
6.12416
6.122402
6.119624
6.115652
6.11059
6.104777
6.098632
6.092413
6.086081
6.079369
6.072012
6.06396
6.055462
6.047047
6.039423
6.033281
6.028937
6.026026
6.023676
6.020718
6.0168
73.82533
54.54215
51.86835
49.17291
48.00581
46.58364
45.41844
44.40877
43.53205
42.21714
39.17459
38.92055
38.6869
38.46899
38.23324
37.9704
37.72196
37.51806
37.37129
37.26851
37.06159
36.63195
36.21713
35.82952
35.47749
35.17027
34.92797
34.76361
34.68764
34.69807
34.78266
34.93821
35.18738
35.55248
36.05376
36.68656
37.45214
38.3211
39.25722
40.24185
41.27306
42.35733
43.5075
44.68433
45.91273
47.2414
48.53608
49.64464
50.56267
51.23715
51.63495
51.746
51.56124
51.08595
50.34343
49.36816
48.21253
46.93444
45.58027
44.2011
42.82934
41.47901
40.1529
38.84984
37.57899
36.36018
35.2213
34.2015
33.31515
32.55522
31.89545
31.30749
30.76758
30.25841
29.76593
29.28799
28.82779
28.38942
27.97784
27.59793
27.25179
26.93549
26.64066
26.35803
26.07994
25.80036
25.51591
25.22893
24.94815
24.68429
24.4418
24.21566
23.99389
23.7684
23.54143
23.32028
23.10945
22.90576
22.69866
22.47887
22.24867
22.02365
21.82337
21.65606
21.51587
21.39053
21.26637
21.12967
20.96949
20.78491
20.59115
20.41399
20.27133
20.16148
20.0693
19.97754
19.87339
19.75223
19.62124
19.49814
19.40168
19.33618
19.28891
19.2424
19.18577
19.11844
19.05015
18.99993
18.99033
19.03044
19.10044
19.16905
19.22357
19.27912
19.3617
19.50232
19.72778
20.03762
20.3817
20.69818
20.95842
21.17586
21.39445
21.68144
22.10944
22.71532
23.47668
24.3248
25.21841
26.17747
27.23059
28.48489
30.17857
32.34822
34.93376
37.88336
40.82793
43.40349
45.41927
46.89615
48.229
49.70516
51.44546
53.42828
55.52158
57.48386
59.04358
60.05633
60.58732
61.00573
61.56554
62.31507
63.11012
63.75331
64.0832
64.01553
63.55567
62.85387
62.18751
61.80443
61.76892
61.93686
62.06568
61.96243
61.59536
61.04592
60.4389
59.87496
59.33334
58.66568
57.68402
56.30179
54.60329
52.77317
50.96785
49.27159
47.70336
46.24782
44.88446
43.60147
42.39606
41.26926
40.2218
39.25365
38.36448
37.55277
36.81448
36.14287
35.53023
34.96972
34.45371
33.96731
33.48696
32.9876
32.44172
31.81937
31.09889
30.28376
29.40157
28.50114
27.62385
26.79014
26.01594
25.31424
24.69532
24.16593
23.72746
23.37411
23.092
22.86032
22.65435
22.44946
22.22491
21.96669
21.66848
21.33085
20.95936
20.56232
20.149
19.72818
19.30837
18.8936
18.48918
18.09828
17.72309
17.36518
17.02581
16.7061
16.40707
16.12947
15.8737
15.63974
15.42717
15.23517
15.06248
14.9073
14.76737
14.64016
14.52281
14.4122
14.30519
14.19873
14.09012
13.97725
13.85871
13.73467
13.60449
13.46757
13.32429
13.17552
13.02261
12.86746
12.71251
12.56093
12.41691
12.28598
12.17547
12.095
12.05685
12.07607
12.17013
12.35752
12.65549
13.07818
13.63584
14.33304
15.16327
16.10738
17.14341
18.2566
19.43776
20.66517
21.88073
22.98339
23.81187
24.23426
24.2606
23.99681
23.60507
23.26381
23.12931
23.30524
23.82061
24.54157
25.12757
25.3079
25.39655
25.86867
26.1749
26.27585
26.13787
25.74341
25.19656
24.59084
23.96404
23.32003
22.65421
21.96544
21.25957
20.54876
19.84849
19.17471
18.5407
17.95493
17.4216
16.94085
16.51173
16.13384
15.80742
15.534
15.31735
15.16226
15.06677
15.01853
14.99392
14.97003
14.93325
14.8793
14.80821
14.7188
14.60874
14.47613
14.32037
14.143
13.94756
13.73696
13.51373
13.28162
13.04458
12.80641
12.5704
12.33958
12.11691
11.9055
11.70867
11.53001
11.37243
11.23811
11.12825
11.04252
10.97885
10.93386
10.90311
10.8809
10.86063
10.83543
10.79894
10.74604
10.67333
10.57942
10.46488
10.33194
10.18408
10.02551
9.860655
9.693704
9.528357
9.367514
9.212771
9.06523
8.925451
8.793508
8.669097
8.551681
8.440697
8.335756
8.236722
8.143525
8.056333
7.975457
7.900533
7.830585
7.76466
7.702126
7.642644
7.586092
7.532468
7.481854
7.434417
7.390387
7.350015
7.313533
7.281159
7.253133
7.229484
7.210011
7.194435
7.182385
7.173392
7.1669
7.162258
7.158724
7.155489
7.151723
7.146648
7.139607
7.130116
7.117881
7.102796
7.084907
7.064381
7.041496
7.016652
6.99042
6.963582
6.937113
6.912045
6.889206
6.868955
6.851167
6.835407
6.821251
6.808527
6.797289
6.787476
6.778656
6.769675
6.758859
6.745187
6.72889
6.710949
6.692233
6.672918
6.65204
6.628927
6.603849
6.577362
6.549612
6.520329
6.489346
6.456965
6.424175
6.392423
6.362816
6.335468
6.310009
6.286384
6.264729
6.245268
6.228238
6.21381
6.202147
6.193378
6.187505
6.1843
6.183265
6.183681
6.184694
6.18541
6.18501
6.182889
6.178808
6.173012
6.166204
6.159245
6.152676
6.146393
6.139816
6.13237
6.123891
6.114702
6.105509
6.097251
6.090906
6.086992
6.085026
6.08371
6.081457
6.077742
99.03939
41.84303
34.54887
33.03225
32.23049
31.83594
31.74475
31.83564
32.06353
32.38898
32.64413
32.69541
32.7475
32.788
32.81972
32.83824
32.85296
32.86635
32.86815
32.83889
32.75735
32.6412
32.53787
32.4603
32.41326
32.40442
32.44143
32.52292
32.64999
32.8225
33.04085
33.30965
33.63925
34.03741
34.5226
35.15377
35.93312
36.83123
37.83381
38.89371
40.01197
41.19497
42.52519
43.82168
45.11047
46.32418
47.36985
48.17307
48.68851
48.88559
48.74959
48.28279
47.50286
46.44384
45.15463
43.69494
42.13265
40.53766
38.96554
37.47584
36.10402
34.85282
33.70025
32.61358
31.57553
30.59878
29.71534
28.94948
28.31817
27.81831
27.4184
27.07562
26.75176
26.42257
26.08001
25.7283
25.3766
25.035
24.71461
24.42538
24.16967
23.94007
23.72509
23.51528
23.30447
23.08838
22.8648
22.63627
22.41252
22.20417
22.0152
21.84095
21.67078
21.49745
21.32411
21.15827
21.00498
20.86283