/*--------------------------------*- C++ -*----------------------------------*\
| =========                 |                                                 |
| \\      /  F ield         | foam-extend: Open Source CFD                    |
|  \\    /   O peration     | Version:     3.1                                |
|   \\  /    A nd           | Web:         http://www.extend-project.de       |
|    \\/     M anipulation  |                                                 |
\*---------------------------------------------------------------------------*/
FoamFile
{
    version     2.0;
    format      ascii;
    class       volScalarField;
    location    "19.5";
    object      p;
}
// * * * * * * * * * * * * * * * * * * * * * * * * * * * * * * * * * * * * * //

dimensions      [1 -1 -2 0 0 0 0];

internalField   nonuniform List<scalar> 
119952
(
4570.78
2924.754
2700.532
2936.82
3186.599
2983.963
2926.059
2880.842
2853.896
2834.89
2820.701
2811.084
2804.777
2801.823
2800.489
2800.813
2801.758
2798.544
2781.543
2691.064
3087.506
2910.777
2836.17
3364.946
3372.518
3438.842
3519.875
3673.418
4091.733
6675.925
2326.291
2282.375
2285.452
2281.737
2278.722
2276.768
2275.279
2275.709
2280.075
2253.124
2227.95
2245.777
2236.812
2230.713
2225.374
2222.382
2221.561
2220.158
2220.118
2212.131
2209.06
2186.722
2181.34
2183.48
2186.662
2192.519
2200.664
2208.875
2226.372
2229.859
2239.041
2260.345
2282.726
2306.453
2333.925
2365.251
2408.918
2513.091
2705.311
2578.011
2530.503
2631.222
2682.78
2665.391
2619.968
2590.475
2570.519
2554.438
2542.393
2534.572
2530.148
2528.376
2528.707
2530.57
2533.421
2536.178
2540.599
2557.495
2610.66
2665.698
2700.481
2849.135
3059.936
3134.357
3181.475
3229.006
3181.641
2919.947
2879.219
2973.65
3017.135
3052.159
3084.78
3110.375
3132.301
3152.672
3172.378
3192.379
3213.538
3236.647
3262.463
3291.582
3324.354
3360.851
3400.863
3443.969
3489.647
3537.385
3586.752
3637.422
3689.161
3741.812
3795.261
3849.426
3904.273
3959.826
4016.149
4073.338
4131.535
4190.941
4251.796
4314.329
4378.637
4444.516
4511.222
4577.161
4639.825
4696.941
4749.303
4801.602
4856.692
4912.653
4967.287
5019.697
5069.771
5117.936
5166.528
5216.611
5262.616
5307.909
5353.982
5400.205
5446.392
5492.32
5537.561
5582.121
5625.354
5667.204
5707.561
5746.334
5783.522
5819.12
5853.151
5885.629
5916.622
5946.079
5974.029
6000.524
6025.59
6049.254
6071.548
6092.503
6112.155
6130.548
6147.736
6163.785
6178.775
6192.804
6205.981
6218.423
6230.251
6241.582
6252.524
6263.17
6273.603
6283.889
6294.041
6304.161
6314.253
6324.367
6334.458
6344.52
6354.507
6364.418
6374.132
6383.923
6394.928
6439.31
6443.972
6452.938
6460.028
6465.967
6470.264
6472.552
6472.398
6469.378
6463.135
6452.798
6438.348
6419.221
6394.91
6364.947
6328.004
6281.698
6224.082
6152.129
6064.704
5963.37
5850.625
5732.545
5624.923
5531.154
5476.641
5461.806
5484.144
5536.032
5607.626
5689.963
5773.713
5838.24
5843.103
5843.995
5880.641
5956.757
6017.744
6065.07
6100.632
6125.746
6143.724
6161.391
6178.395
6194.618
6208.401
6219.418
6228.521
6235.9
6241.759
6246.184
6249.08
6250.493
6250.784
6250.672
6250.988
6252.446
6255.084
6259.362
6265
6271.795
6279.505
6287.982
6297.054
6306.486
6315.945
6325.098
6333.67
6341.345
6347.448
6343.391
6338.329
6322.012
6325.347
6326.733
6326.807
6324.925
6324.818
6323.933
6322.441
6320.627
6318.417
6315.994
6313.5
6311.39
6309.622
6308.143
6306.899
6305.744
6304.75
6303.805
6302.787
6301.634
6300.287
6298.723
6296.927
6294.895
6292.633
6290.146
6287.447
6284.546
6281.448
6278.162
6274.692
6271.048
6267.245
6263.303
6259.251
6255.126
6250.975
6246.859
6242.844
6238.996
6235.393
6232.078
6228.247
6222.647
6216.662
6211.016
6205.783
6200.76
6196.034
6190.915
6182.156
6171.175
6170.3
6169.966
6165.581
6161.034
6156.989
6152.844
6148.514
6144.424
6140.34
6136.266
6132.135
6127.93
6123.65
6119.275
6114.792
6110.177
6105.392
6100.451
6095.349
6090.096
6084.684
6079.112
6073.378
6067.483
6061.423
6055.196
6048.8
6042.241
6035.532
6028.692
6021.745
6014.725
6007.672
6000.634
5993.67
5986.846
5980.233
5973.913
5967.965
5962.458
5957.447
5952.966
5949.027
5945.647
5942.808
5940.476
5938.695
5937.429
5936.668
5936.409
5936.592
5937.208
5938.225
5939.593
5941.292
5943.265
5945.465
5947.842
5950.343
5952.916
5955.505
5958.055
5960.507
5962.808
5964.904
5966.746
5968.288
5969.487
5970.304
5970.7
5970.632
5970.048
5968.883
5967.052
5964.438
5960.906
5956.255
5950.167
5941.947
5930.802
5916.15
5902.163
5914.025
5996.598
3698.256
3571.31
3443.43
3317.924
3205.079
3102.586
3009.568
2927.416
2848.491
2738.594
2683.012
2626.306
2570.481
2524.03
2480.632
2443.507
2410.611
2377.172
2317.122
2315.067
2277.687
2246.334
2224.103
2204.331
2186.726
2171.344
2156.786
2144.61
2138.036
2112.654
2099.468
2088.826
2076.32
2064.276
2053.252
2043.84
2037.695
2040.654
2018.659
2003.945
1999.961
1995.806
1990.232
1985.828
1982.183
1979.229
1976.908
1967.029
1965.74
1963.363
1958.105
1952.426
1947.931
1945.137
1944.374
1951.9
1868.764
1869.042
1872.431
1874.608
1875.912
1877.928
1882.861
1890.786
1900.497
1910.494
1924.095
1939.875
1956.569
1976.282
2001.601
2033.78
2074.429
2125.543
2180.849
2229.723
2251.114
2251.75
2265.744
2281.485
2284.324
2273.623
2256.721
2241.016
2229.023
2221.433
2217.395
2215.487
2215.533
2217.817
2221.913
2228.697
2238.95
2255.885
2285.223
2329.678
2389.449
2465.216
2558.142
2659.133
2740.262
2788.085
2800.278
2780.065
2729.363
2699.226
2716.63
2747.104
2775.74
2799.266
2818.407
2835.498
2852.075
2868.575
2885.714
2904.644
2926.464
2952.263
2982.61
3017.536
3056.792
3099.832
3145.893
3194.237
3244.266
3295.51
3347.613
3400.343
3453.569
3507.201
3561.155
3615.403
3669.988
3724.986
3780.474
3836.574
3893.479
3951.46
4010.778
4071.559
4133.641
4196.483
4259.165
4320.503
4379.745
4437.504
4495.506
4554.497
4613.384
4670.723
4726.111
4779.725
4831.543
4881.836
4931.122
4979.028
5025.718
5071.845
5117.573
5162.842
5207.58
5251.579
5294.562
5336.458
5377.104
5416.358
5454.159
5490.477
5525.297
5558.623
5590.448
5620.774
5649.626
5677.048
5703.046
5727.634
5750.833
5772.668
5793.159
5812.329
5830.227
5846.91
5862.442
5876.907
5890.408
5903.06
5914.984
5926.304
5937.14
5947.604
5957.793
5967.79
5977.657
5987.45
5997.202
6006.97
6016.725
6026.54
6036.271
6046.048
6055.597
6064.97
6074.174
6084.015
6156.557
6159.744
6168.428
6174.91
6179.529
6182.28
6182.665
6180.262
6174.604
6165.216
6151.654
6133.574
6110.519
6081.894
6046.696
6003.344
5949.237
5882.967
5802.771
5707.392
5598.042
5480.158
5361.656
5260.161
5188.415
5151.333
5151.86
5188.389
5250.47
5326.989
5406.881
5481.19
5543.199
5584.842
5622.611
5669.791
5721.49
5769.715
5807.851
5837.557
5860.479
5878.711
5895.048
5910.021
5923.789
5935.7
5945.832
5954.861
5962.169
5968.558
5973.702
5977.332
5979.316
5979.901
5979.762
5979.709
5980.613
5982.912
5986.608
5991.689
5997.873
6004.64
6012.225
6020.411
6028.986
6037.612
6045.986
6053.726
6060.661
6070.804
6007.146
6014.603
6019.864
6019.35
6017.624
6016.576
6016.56
6017.194
6017.369
6016.725
6015.328
6013.586
6011.796
6009.958
6008.058
6006.097
6004.216
6002.721
6001.245
5999.876
5998.548
5997.137
5995.622
5993.925
5992.037
5989.929
5987.59
5985.036
5982.279
5979.325
5976.18
5972.847
5969.334
5965.647
5961.799
5957.811
5953.71
5949.528
5945.306
5941.089
5936.918
5932.825
5928.81
5924.804
5920.687
5916.325
5911.505
5906.347
5901.234
5896.305
5891.481
5886.668
5881.166
5874.95
5868.515
5863.279
5859.864
5857.147
5854.209
5850.678
5846.622
5842.465
5838.417
5834.38
5830.247
5826.066
5821.723
5817.319
5812.819
5808.208
5803.528
5798.516
5793.443
5788.248
5782.908
5777.421
5771.792
5766.006
5760.069
5753.963
5747.676
5741.188
5734.515
5727.671
5720.67
5713.54
5706.313
5699.039
5691.783
5684.624
5677.648
5670.911
5664.511
5658.538
5653.037
5648.06
5643.639
5639.783
5636.499
5633.798
5631.678
5630.112
5629.103
5628.63
5628.66
5629.158
5630.095
5631.403
5633.038
5634.969
5637.148
5639.525
5642.051
5644.672
5647.332
5649.972
5652.533
5654.958
5657.193
5659.188
5660.903
5662.298
5663.346
5664.016
5664.283
5664.106
5663.446
5662.24
5660.427
5657.911
5654.63
5650.428
5645.358
5639.363
5633.447
5628.985
5628.994
5634.599
5646.519
2936.546
3039.762
3167.616
3312.79
3474.928
3653.135
3846.041
4051.805
4268.134
4488.457
4700.477
4930.094
5155.398
5371.951
5575.966
5763.623
5927.176
6060.815
6158.04
6194.787
6220.401
6207.561
6157.28
6072.118
5955.393
5811.537
5645.22
5462.029
5270.984
5064.756
4861.153
4655.702
4453.974
4257.753
4068.468
3887.241
3715.604
3554.961
3392.837
3248.427
3113.488
2990.631
2878.302
2776.081
2683.27
2599.061
2523.675
2453.081
2385.969
2329.059
2277.249
2230.596
2189.396
2152.856
2121.11
2100.708
1987.83
1961.986
1943.545
1925.463
1906.262
1887.223
1869.75
1854.348
1841.028
1828.444
1815.775
1804.852
1793.13
1779.557
1765.306
1751.928
1740.469
1731.311
1724.156
1717.418
1711.58
1705.228
1697.527
1689.399
1682.19
1676.485
1672.537
1669.65
1666.548
1663.423
1659.408
1653.584
1647.353
1641.715
1636.369
1633.777
1632.358
1630.784
1628.379
1627.736
1626.795
1624.198
1622.804
1623.927
1628.7
1637.179
1647.257
1658.683
1671.344
1684.683
1700.082
1719.629
1745.116
1777.269
1814.865
1858.376
1900.722
1940.125
1966.758
1976.021
1982.926
1993.615
2000.303
1997.515
1986.426
1975.047
1967.367
1962.753
1960.164
1960.714
1963.091
1966.006
1971.206
1979.706
1992.41
2011.479
2041.127
2083.483
2139.482
2207.098
2284.473
2366.755
2441.03
2492.504
2520.459
2524.554
2511.714
2501.83
2510.362
2530.084
2550.824
2568.25
2582.456
2594.993
2607.255
2619.705
2633.131
2648.542
2666.994
2691.087
2721.763
2758.425
2800.236
2846.192
2895.166
2946.19
2998.547
3051.696
3105.257
3159.015
3212.857
3266.671
3320.331
3373.805
3427.176
3480.503
3533.778
3587.04
3640.473
3694.444
3749.453
3805.912
3863.977
3923.542
3984.276
4045.54
4106.71
4167.746
4229.276
4291.662
4354.402
4416.475
4476.931
4535.363
4591.689
4645.777
4697.779
4747.896
4796.104
4842.732
4888.275
4933.006
4976.966
5020.039
5062.071
5102.907
5142.475
5180.76
5217.697
5253.226
5287.324
5319.984
5351.214
5381.042
5409.517
5436.604
5462.265
5486.562
5509.52
5531.152
5551.468
5570.483
5588.229
5604.747
5620.096
5634.354
5647.628
5660.028
5671.678
5682.703
5693.216
5703.329
5713.145
5722.755
5732.232
5741.64
5751.027
5760.445
5769.9
5779.434
5788.972
5798.574
5808.089
5817.669
5827.457
5837.557
5846.822
5855.278
5861.972
5866.993
5870.394
5871.758
5870.472
5866.043
5857.998
5845.881
5829.283
5808.139
5782.157
5750.481
5712.348
5666.583
5610.036
5538.056
5446.617
5336.984
5213.501
5081.721
4949.634
4836.921
4758.025
4734.905
4753.68
4814.321
4900.556
4996.325
5089.591
5172.577
5244.119
5306.861
5363.205
5415.346
5462.783
5503.313
5535.536
5560.045
5578.759
5593.427
5605.642
5616.403
5625.845
5634.096
5642.202
5648.085
5653.021
5658.417
5662.997
5666.993
5670.303
5672.91
5675.213
5677.569
5680.173
5683.516
5687.533
5692.157
5697.837
5703.976
5710.689
5717.922
5725.419
5732.934
5740.18
5746.831
5752.829
5757.966
5760.595
5761.768
5762.816
5764.045
5765.393
5765.857
5767.427
5768.578
5769.473
5769.86
5769.54
5768.83
5767.937
5766.888
5765.614
5764.137
5762.587
5761.14
5759.71
5758.251
5756.633
5754.893
5753.02
5750.898
5748.659
5746.231
5743.548
5740.656
5737.579
5734.32
5730.879
5727.259
5723.462
5719.498
5715.384
5711.144
5706.813
5702.437
5698.056
5693.688
5689.361
5685.11
5680.92
5676.73
5672.491
5668.13
5663.575
5658.818
5653.996
5649.252
5644.635
5640.177
5636.101
5632.554
5629.342
5625.659
5621.363
5616.75
5612.158
5607.737
5603.448
5599.228
5595.079
5590.952
5586.77
5582.509
5578.134
5573.65
5569.04
5564.297
5559.36
5554.502
5549.429
5544.201
5538.835
5533.329
5527.711
5521.885
5515.927
5509.803
5503.489
5496.914
5490.146
5483.181
5476.012
5468.662
5461.173
5453.609
5446.051
5438.605
5431.376
5424.361
5417.71
5411.547
5405.879
5400.778
5396.268
5392.355
5389.049
5386.354
5384.278
5382.815
5381.944
5381.635
5381.859
5382.575
5383.721
5385.234
5387.072
5389.191
5391.544
5394.085
5396.762
5399.52
5402.301
5405.041
5407.677
5410.149
5412.403
5414.393
5416.082
5417.444
5418.459
5419.113
5419.388
5419.262
5418.697
5417.658
5416.088
5413.96
5411.238
5407.973
5404.261
5400.439
5396.963
5394.614
5393.709
5395.9
5401.221
2380.456
2367.778
2357.679
2336.707
2333.542
2316.297
2342.353
2386.964
2448.016
2493.183
2527.617
2584.076
2664.116
2764.965
2885.324
3023.462
3175.734
3343.183
3524.242
3717.519
3921.696
4134.944
4353.262
4572.367
4789.071
4998.841
5196.24
5376.915
5535.586
5667.714
5771.859
5785.056
5811.401
5794.955
5736.663
5643.839
5520.648
5370.938
5199.685
5012.731
4816.018
4613.912
4410.422
4208.838
4011.689
3820.785
3637.122
3461.57
3294.622
3136.571
2988.051
2850.05
2722.441
2605.567
2499.503
2403.594
2316.781
2237.951
2165.897
2099.822
2039.423
1984.449
1935.432
1892.584
1855.054
1821.566
1790.794
1762.445
1734.787
1712.046
1693.458
1674.438
1654.428
1634.853
1616.972
1601.575
1588.721
1577.838
1567.834
1557.012
1544.502
1530.698
1516.323
1502.436
1490.361
1480.252
1473.875
1469.791
1465.419
1458.767
1450.444
1441.709
1434.19
1427.622
1423.353
1421.893
1420.86
1418.182
1413.199
1406.397
1398.892
1392.61
1387.155
1384.264
1384.34
1384.433
1383.026
1380.016
1375.666
1370.859
1367.834
1369.612
1375.586
1384.525
1394.822
1405.619
1416.518
1427.777
1440.905
1458.461
1483.04
1514.414
1549.671
1589.82
1628.34
1660.558
1684.237
1696.913
1705.177
1713.982
1720.941
1720.634
1714.599
1708.18
1703.869
1702.019
1702.119
1705.38
1709.754
1713.296
1717.934
1725.718
1737.868
1755.705
1782.986
1822.346
1874.323
1937.66
2009.384
2084.633
2156.747
2214.363
2254.461
2276.693
2287.88
2296.477
2304.737
2315.142
2325.14
2335.454
2345.424
2354.121
2361.545
2367.165
2374.155
2385.004
2398.379
2419.094
2449.632
2488.641
2534.278
2584.536
2637.548
2692.154
2747.672
2803.483
2859.105
2914.342
2969.17
3023.5
3077.164
3130.085
3182.32
3233.874
3284.652
3334.656
3384.071
3433.252
3482.914
3533.981
3587.163
3642.754
3700.942
3761.53
3824.024
3888.045
3953.496
4020.191
4087.488
4154.367
4219.924
4283.65
4345.131
4403.97
4460.07
4513.498
4564.351
4612.937
4659.683
4704.918
4748.824
4791.454
4832.792
4872.82
4911.538
4948.922
4984.931
5019.544
5052.754
5084.569
5115.009
5144.098
5171.856
5198.294
5223.463
5247.3
5269.846
5291.12
5311.139
5329.912
5347.452
5363.794
5378.99
5393.088
5406.193
5418.396
5429.802
5440.559
5450.787
5460.596
5470.078
5479.326
5488.428
5497.461
5506.49
5515.581
5524.764
5534.083
5543.515
5553.097
5562.762
5572.588
5582.461
5592.324
5601.416
5608.864
5615.003
5619.901
5623.076
5623.905
5621.701
5616.173
5607.042
5593.973
5576.664
5554.94
5528.545
5496.344
5457.356
5410.79
5351.049
5270.3
5166.993
5043.629
4905.499
4759.066
4613.517
4487.295
4401.814
4374.393
4404.561
4482.833
4587.904
4705.285
4820.564
4921.552
5006.527
5078.965
5141.922
5197.83
5245.425
5283.674
5313.42
5335.814
5352.159
5364.151
5373.28
5380.682
5387.009
5392.451
5397.476
5401.426
5405.142
5408.675
5412.655
5416.957
5421.221
5425.125
5429.551
5434.547
5439.041
5444.081
5448.852
5453.678
5459.003
5464.578
5470.67
5476.818
5483.128
5489.42
5495.291
5500.531
5505.537
5509.931
5511.949
5513.407
5515.801
5518.205
5519.741
5520.39
5520.501
5521.259
5522.28
5522.998
5523.342
5523.468
5523.483
5523.361
5522.966
5522.265
5521.326
5520.219
5518.926
5517.425
5515.657
5513.668
5511.414
5509.012
5506.411
5503.636
5500.512
5497.263
5493.853
5490.267
5486.5
5482.553
5478.422
5474.115
5469.66
5465.091
5460.455
5455.814
5451.211
5446.65
5442.169
5437.781
5433.46
5429.169
5424.862
5420.489
5416.016
5411.437
5406.824
5402.288
5397.908
5393.719
5389.723
5385.739
5381.699
5377.561
5373.411
5369.378
5365.51
5361.772
5358.058
5354.287
5350.457
5346.563
5342.571
5338.45
5334.175
5329.747
5325.167
5320.435
5315.554
5310.57
5305.435
5300.158
5294.756
5289.239
5283.576
5277.85
5271.952
5265.875
5259.67
5252.929
5246.034
5238.924
5231.568
5223.978
5216.2
5208.301
5200.356
5192.555
5184.94
5177.567
5170.563
5164.205
5158.304
5153.052
5148.48
5144.524
5141.2
5138.526
5136.513
5135.15
5134.41
5134.257
5134.672
5135.634
5137.03
5138.779
5140.857
5143.202
5145.768
5148.514
5151.392
5154.342
5157.302
5160.204
5162.978
5165.559
5167.89
5169.925
5171.635
5173.003
5174.024
5174.699
5175.028
5175.002
5174.6
5173.796
5172.556
5170.875
5168.776
5166.345
5163.723
5161.132
5158.852
5157.198
5156.555
5157.275
5159.456
2583.007
2551.534
2521.885
2467.627
2422.479
2344.602
2300.767
2258.808
2218.906
2181.767
2147.215
2116.833
2091.036
2071.607
2058.678
2053.548
2000.94
2020.093
2049.376
2086.344
2128.551
2182.086
2251.136
2336.963
2441.706
2563.868
2702.557
2856.693
3025.203
3207.015
3400.693
3604.164
3814.422
4029.023
4245.375
4459.662
4669.028
4865.496
5042.621
5195.096
5318.245
5407.012
5455.444
5473.091
5454.343
5396.888
5304.091
5180.118
5029.201
4856.579
4668.123
4470.075
4267.601
4065.314
3866.754
3673.448
3486.948
3307.937
3136.596
2973.353
2818.786
2673.047
2537.235
2412.802
2300.287
2199.287
2108.531
2026.523
1951.961
1883.764
1820.94
1762.899
1710.131
1663.648
1623.846
1589.453
1558.581
1529.525
1502.524
1478.354
1457.599
1439.253
1421.008
1402.006
1383.038
1365.606
1350.495
1338.586
1329.716
1320.936
1310.446
1298.024
1283.848
1268.347
1252.324
1238.527
1229.661
1225.077
1222.89
1219.623
1213.649
1205.402
1194.797
1184.056
1178.37
1175.969
1175.894
1176.779
1174.863
1169.382
1161.071
1151.245
1142.16
1137.292
1135.781
1137.604
1138.728
1136.78
1131.667
1124.679
1117.12
1111.702
1113.212
1120.974
1131.017
1141.113
1150.584
1159.282
1167.539
1176.384
1189.568
1212.662
1245.476
1284.835
1322.649
1357.656
1385.203
1405.406
1418.736
1429.033
1438.237
1446.836
1446.073
1441.598
1438.619
1437.397
1438.498
1442.84
1449.576
1455.765
1458.477
1460.822
1465.896
1475
1487.238
1509.17
1545.056
1595.397
1658.732
1730.308
1804.629
1883.159
1948.926
2000.227
2040.518
2070.593
2089.928
2099.075
2101.731
2100.256
2101.115
2107.222
2113.031
2116.307
2116.285
2112.833
2110.962
2115.182
2132.107
2163.539
2206.593
2258.108
2314.72
2373.414
2432.738
2492.3
2551.609
2610.068
2667.39
2723.604
2778.731
2832.635
2885.277
2936.736
2986.825
3035.073
3081.19
3125.555
3168.9
3212.305
3256.759
3303.511
3353.718
3408.624
3468.2
3531.962
3599.322
3669.451
3741.388
3814.104
3886.608
3958.085
4027.869
4095.309
4159.835
4221.102
4278.984
4333.532
4384.981
4433.696
4480.061
4524.4
4566.939
4607.818
4647.131
4684.941
4721.287
4756.196
4789.689
4821.787
4852.517
4881.91
4909.994
4936.799
4962.352
4986.684
5009.829
5031.783
5052.509
5072.054
5090.434
5107.655
5123.754
5138.788
5152.698
5165.651
5177.723
5188.961
5199.522
5209.488
5218.994
5228.137
5237.005
5245.693
5254.296
5262.905
5271.608
5280.47
5289.555
5298.882
5308.479
5318.3
5328.307
5338.323
5348.118
5357.194
5365.11
5371.814
5376.991
5380.094
5380.553
5378.071
5372.345
5362.868
5349.264
5331.517
5309.573
5283.369
5251.703
5213.866
5169.061
5103.414
5010.011
4893.507
4756.614
4602.39
4436.255
4269.933
4119.828
4013.125
3980.551
4024.399
4126.452
4254.481
4396.565
4537.455
4658.908
4758.153
4841.028
4912.474
4972.237
5019.949
5057.451
5086.18
5107.14
5121.739
5131.715
5138.617
5143.679
5147.578
5150.899
5153.546
5155.703
5157.669
5159.747
5162.348
5165.914
5170.086
5174.167
5180.385
5188.932
5195.554
5203.408
5209.774
5215.588
5221.292
5226.839
5232.331
5237.761
5242.935
5248.011
5252.802
5257.187
5261.149
5264.163
5265.916
5267.687
5269.367
5270.618
5271.316
5271.778
5272.468
5273.45
5274.535
5275.605
5276.704
5277.827
5278.846
5279.689
5280.224
5280.36
5280.069
5279.368
5278.278
5276.82
5275.005
5272.849
5270.37
5267.661
5264.753
5261.977
5258.106
5254.435
5250.663
5246.713
5242.567
5238.224
5233.691
5228.989
5224.145
5219.198
5214.2
5209.253
5204.415
5199.613
5194.977
5190.516
5186.149
5181.818
5177.48
5173.102
5168.675
5164.216
5159.773
5155.417
5151.196
5147.121
5143.161
5139.241
5135.376
5131.576
5127.881
5124.277
5120.745
5117.252
5113.742
5110.166
5106.507
5102.746
5098.849
5094.79
5090.551
5086.132
5081.536
5076.772
5071.852
5066.799
5061.615
5056.305
5050.885
5045.364
5039.736
5033.994
5028.089
5021.971
5015.515
5009.058
5002.158
4994.906
4987.33
4979.462
4971.344
4963.049
4954.639
4946.409
4938.277
4930.331
4922.789
4916.15
4910.108
4904.729
4900.101
4896.115
4892.789
4890.159
4888.231
4886.987
4886.389
4886.387
4886.996
4888.288
4890.012
4892.021
4894.383
4896.988
4899.802
4902.796
4905.92
4909.114
4912.309
4915.428
4918.392
4921.127
4923.572
4925.683
4927.434
4928.82
4929.855
4930.561
4930.957
4931.055
4930.851
4930.322
4929.44
4928.205
4926.66
4924.9
4923.051
4921.265
4919.713
4918.61
4918.237
4918.385
4919.399
2795.802
2753.07
2707.424
2651.127
2608.441
2530.028
2488.62
2447.532
2406.273
2364.422
2322.698
2280.901
2237.748
2194.731
2150.009
2038.774
1995.417
1953.489
1913.342
1875.402
1840.297
1808.75
1781.608
1759.743
1743.618
1734.857
1733.731
1744.251
1764.803
1795.139
1835.85
1889.533
1958.785
2045.236
2148.872
2269.231
2405.625
2557.135
2722.774
2901.23
3090.029
3287.024
3490.706
3699.491
3911.904
4123.197
4328.25
4520.433
4693.126
4840.241
4957.038
5040.503
5087.479
5098.766
5074.296
5013.688
4918.595
4792.366
4639.11
4464.388
4274.27
4075.394
3873.537
3673.481
3479.796
3293.546
3114.881
2944.429
2781.397
2625.128
2476.333
2335.736
2205.006
2086.129
1979.933
1885.934
1802.215
1726.737
1657.958
1594.506
1535.334
1480.149
1429.965
1386.581
1350.927
1321.118
1293.984
1267.085
1241.595
1219.314
1200.752
1184.723
1168.468
1150.491
1131.305
1111.471
1096.82
1089.168
1082.467
1075.135
1065.295
1052.771
1037.413
1019.391
1000.105
983.7398
976.0257
975.4084
977.0604
976.0188
970.5535
960.53
946.8169
932.699
926.0105
926.8376
931.2199
935.2029
934.2566
927.3977
915.982
902.4662
889.9081
883.4779
885.0649
891.1989
894.3064
891.7334
884.0436
873.5451
861.2111
850.9263
851.7355
863.3936
875.9385
886.0499
893.9325
899.946
904.206
906.7943
913.0254
934.5285
971.5493
1018.424
1058.059
1091.958
1116.974
1131.808
1141.171
1155.315
1167.175
1175.289
1172.808
1166.984
1167.954
1168.881
1172.885
1180.384
1191.637
1203.519
1204.075
1200.623
1200.82
1206.671
1209.404
1222.63
1252.688
1301.412
1369.647
1447.954
1528.065
1616.348
1699.085
1760.631
1814.572
1859.091
1888.757
1899.433
1890.317
1876.228
1865.109
1866.982
1872.525
1871.151
1867.246
1848.582
1825.57
1815.171
1827.117
1860.994
1911.676
1973.12
2038.943
2104.902
2170.069
2234.538
2297.772
2359.364
2419.254
2477.422
2533.812
2588.199
2640.649
2691.476
2740.458
2786.702
2829.254
2867.877
2902.931
2937.713
2974.044
3013.334
3055.917
3105.957
3164.211
3229.673
3301.168
3377.043
3455.562
3535.143
3614.541
3692.872
3769.448
3843.531
3914.403
3981.521
4044.56
4103.436
4158.309
4209.526
4257.526
4302.741
4345.534
4386.182
4424.897
4461.841
4497.135
4530.875
4563.135
4593.978
4623.459
4651.625
4678.518
4704.18
4728.652
4751.975
4774.185
4795.288
4815.319
4834.238
4852.075
4868.848
4884.568
4899.216
4912.961
4925.757
4937.682
4948.856
4959.302
4969.094
4978.317
4987.095
4995.54
5003.764
5011.87
5019.977
5028.209
5036.679
5045.486
5054.692
5064.327
5074.359
5084.702
5095.17
5105.475
5115.227
5124.056
5131.672
5137.476
5140.74
5141.115
5138.649
5133.044
5123.393
5108.94
5090.402
5067.949
5042.457
5018.581
4987.086
4935.213
4855.516
4748.016
4618.383
4468.99
4302.14
4123.422
3941.853
3761.931
3630.091
3543.106
3579.113
3704.893
3881.443
4074.33
4249.124
4391.295
4504.596
4598.307
4677.454
4740.673
4789.728
4827.821
4856.5
4876.775
4890.223
4898.596
4903.462
4906.293
4908.061
4909.25
4910.069
4910.624
4911.106
4911.741
4912.82
4915.087
4917.846
4920.191
4929.096
4943.278
4954.788
4964.538
4971.761
4978.311
4984.427
4990.043
4995.232
4999.965
5004.418
5008.294
5011.757
5014.737
5017.258
5019.187
5020.46
5021.41
5022.291
5023.207
5023.987
5024.573
5025.187
5026.034
5027.151
5028.431
5030.1
5032.13
5034.023
5035.639
5036.979
5037.952
5038.442
5038.359
5037.66
5036.356
5034.509
5032.193
5029.456
5026.355
5022.882
5018.836
5015.507
5011.667
5007.542
5003.24
4998.738
4994.036
4989.134
4984.043
4978.797
4973.439
4968.039
4962.745
4957.73
4952.603
4947.77
4943.242
4938.872
4934.552
4930.231
4925.878
4921.508
4917.149
4912.839
4908.62
4904.526
4900.574
4896.758
4893.047
4889.433
4885.92
4882.499
4879.139
4875.811
4872.49
4869.148
4865.745
4862.249
4858.629
4854.846
4850.872
4846.69
4842.296
4837.701
4832.92
4827.974
4822.883
4817.662
4812.327
4806.894
4801.381
4795.793
4790.118
4784.314
4778.312
4772.03
4765.456
4758.473
4751.063
4743.267
4735.059
4726.565
4717.841
4708.899
4700.182
4691.388
4682.552
4674.301
4667.33
4661.458
4655.99
4651.223
4647.138
4643.819
4641.26
4639.461
4638.37
4637.906
4638.003
4638.808
4640.526
4642.712
4645.088
4647.672
4650.55
4653.634
4656.908
4660.321
4663.807
4667.291
4670.685
4673.896
4676.837
4679.44
4681.659
4683.475
4684.893
4685.947
4686.684
4687.152
4687.39
4687.414
4687.198
4686.695
4685.889
4684.826
4683.603
4682.334
4681.131
4680.09
4679.41
4679.324
4679.337
4680.033
2821.419
2766.369
2708.831
2640.81
2575.044
2517.254
2464.623
2416.63
2372.566
2328.772
2219.586
2178.867
2138.552
2098.003
2056.915
2015.284
1973.013
1929.859
1886.062
1842.502
1799.907
1756.908
1714.73
1673.723
1634.418
1597.3
1562.501
1530.785
1503.694
1482.334
1467.82
1461.915
1466.217
1481.528
1508.646
1548.371
1602.409
1672.006
1758.022
1860.496
1979.099
2113.296
2262.087
2423.773
2596.216
2777.918
2968.516
3167.281
3372.353
3580.082
3785.957
3984.398
4168.87
4332.609
4469.512
4574.749
4645.302
4679.624
4678.174
4642.937
4575.183
4475.916
4347.267
4192.287
4016.325
3826.08
3627.579
3427.531
3231.367
3043.657
2866.749
2699.787
2541.12
2389.026
2242.368
2102.298
1970.21
1847.542
1736.671
1639.342
1555.057
1480.633
1413.394
1352.276
1295.419
1241.046
1188.669
1140.404
1100.553
1071.824
1048.543
1026.344
1001.405
976.4391
955.4385
940.8019
928.9758
916.2863
898.9984
877.8272
855.4412
839.5496
836.9627
834.9416
829.4198
820.2327
807.8959
791.5393
770.4954
746.5693
726.0553
717.1294
722.7434
731.684
734.8611
730.4449
718.1595
700.2833
680.8715
668.5845
672.1576
685.2292
696.0672
697.3171
688.3388
672.3446
653.4703
635.2837
624.7196
631.2255
645.5542
652.301
649.0992
637.626
622.8528
602.5665
582.2944
583.3407
604.2072
620.7886
630.6237
635.9556
638.605
637.4553
629.7327
622.6567
647.5126
699.3517
750.3574
791.7894
826.6238
854.54
868.7085
874.5125
887.751
903.7017
907.5121
896.088
886.7262
888.0597
895.6212
910.4827
930.0015
946.0382
944.6245
946.2903
935.8179
929.4927
930.6135
920.2222
926.8295
951.6863
998.5135
1077.814
1165.841
1257.879
1349.664
1451.134
1534.117
1610.87
1671.19
1703.559
1711.295
1683.125
1650.836
1625.753
1629.022
1640.45
1633.101
1618.49
1578.13
1529.507
1498.712
1507.696
1546.941
1608.305
1683.866
1762.562
1836.875
1908.071
1978.672
2047.015
2111.735
2173.473
2233.077
2290.908
2346.293
2399.194
2450.141
2498.416
2542.196
2579.977
2612.229
2639.586
2663.79
2687.207
2714.283
2748.079
2791.921
2847.455
2915.176
2992.58
3076.241
3163.199
3251.133
3338.555
3424.594
3508.66
3589.949
3667.66
3741.143
3809.865
3873.571
3932.35
3986.534
4036.607
4083.091
4126.469
4167.144
4205.443
4241.627
4275.906
4308.454
4339.416
4368.913
4397.038
4423.859
4449.43
4473.805
4497.038
4519.188
4540.304
4560.413
4579.537
4597.685
4614.85
4631.037
4646.269
4660.595
4674.05
4686.655
4698.453
4709.49
4719.785
4729.404
4738.398
4746.848
4754.79
4762.453
4769.961
4777.453
4785.095
4793.062
4801.514
4810.563
4820.265
4830.611
4841.51
4852.771
4864.097
4875.129
4885.331
4893.949
4900.393
4904.232
4905.233
4903.242
4897.895
4887.948
4872.029
4852.856
4833.513
4817.878
4801.448
4767.853
4697.478
4601.949
4483.169
4342.412
4182.999
4008.987
3833.069
3655.107
3499.551
3412.07
3380.192
3376.046
3396.843
3506.113
3730.809
3962.398
4130.994
4255.066
4355.856
4438.414
4504.303
4556.036
4595.775
4624.758
4644.629
4657.173
4664.303
4667.639
4668.555
4668.289
4667.582
4666.814
4666.084
4665.647
4665.604
4666.19
4668.274
4671.528
4676.249
4688.248
4702.853
4716.727
4725.641
4733.832
4741.196
4747.778
4753.57
4758.526
4762.653
4766.004
4768.803
4770.99
4772.705
4774.034
4774.944
4775.378
4775.816
4776.396
4777.146
4777.833
4777.78
4778.339
4779.295
4780.578
4782.359
4784.655
4787.193
4789.591
4791.742
4793.621
4795.092
4796.038
4796.384
4796.066
4795.05
4793.329
4790.97
4788.065
4784.711
4780.994
4777.002
4773.035
4768.958
4764.409
4759.779
4754.971
4749.932
4744.659
4739.173
4733.501
4727.659
4721.8
4716.183
4710.884
4705.393
4700.404
4695.928
4691.67
4687.445
4683.199
4678.885
4674.567
4670.283
4666.068
4661.958
4657.982
4654.172
4650.532
4647.022
4643.622
4640.32
4637.093
4633.918
4630.777
4627.649
4624.506
4621.308
4618.005
4614.55
4610.897
4607.01
4602.873
4598.491
4593.879
4589.062
4584.068
4578.925
4573.658
4568.288
4562.843
4557.35
4551.826
4546.251
4540.571
4534.707
4528.541
4521.969
4514.907
4507.319
4499.21
4490.685
4481.817
4472.691
4463.254
4454.006
4444.396
4434.207
4425.373
4418.582
4412.735
4406.738
4401.631
4397.458
4394.193
4391.779
4390.143
4389.265
4389.015
4389.379
4390.743
4392.73
4395.249
4397.933
4400.74
4403.862
4407.244
4410.835
4414.579
4418.412
4422.251
4425.994
4429.527
4432.744
4435.567
4437.947
4439.859
4441.322
4442.389
4443.139
4443.654
4444.019
4444.294
4444.439
4444.349
4443.962
4443.321
4442.537
4441.719
4440.935
4440.2
4439.775
4440.101
4440.213
4440.927
2553.914
2483.113
2342.654
2286.311
2232.353
2182.901
2137.177
2094.322
2053.408
2013.981
1975.845
1937.08
1898
1858.248
1817.831
1776.499
1734.204
1690.907
1646.609
1601.887
1558.23
1515.032
1472.31
1430.005
1388.092
1347.205
1308.399
1272.631
1241.386
1216.578
1199.511
1191.156
1192.833
1205.565
1230.549
1268.975
1322.15
1390.904
1475.756
1576.655
1693.212
1824.654
1969.489
2124.623
2289.585
2464.938
2650.672
2844.513
3043.648
3244.127
3441.038
3628.655
3800.583
3950.158
4071.41
4159.752
4212.628
4229.799
4213.042
4165.215
4088.914
3985.242
3855.14
3700.644
3525.805
3338.153
3142.345
2943.325
2750.449
2571.324
2407.431
2254.959
2109.532
1969.38
1834.744
1707.178
1586.279
1472.104
1368.711
1281.168
1208.962
1146.23
1088.722
1036.03
986.5667
938.5476
890.0202
844.2583
804.9091
784.0823
773.7562
754.3151
732.7252
708.3386
686.9067
676.0999
673.9484
662.6929
647.9139
625.0273