/*--------------------------------*- C++ -*----------------------------------*\
| =========                 |                                                 |
| \\      /  F ield         | foam-extend: Open Source CFD                    |
|  \\    /   O peration     | Version:     3.1                                |
|   \\  /    A nd           | Web:         http://www.extend-project.de       |
|    \\/     M anipulation  |                                                 |
\*---------------------------------------------------------------------------*/
FoamFile
{
    version     2.0;
    format      ascii;
    class       volScalarField;
    location    "19.5";
    object      pd;
}
// * * * * * * * * * * * * * * * * * * * * * * * * * * * * * * * * * * * * * //

dimensions      [1 -1 -2 0 0 0 0];

internalField   nonuniform List<scalar> 
119952
(
4601.475
2962.168
2737.325
2970.347
3217.312
3015.315
2958.024
2913.42
2887.087
2868.694
2855.118
2846.114
2840.42
2838.08
2837.359
2838.295
2839.854
2837.253
2820.865
2730.999
3122.795
2946.327
2871.979
3395.608
3403.18
3469.504
3550.537
3704.08
4122.427
6706.62
2616.777
2569.32
2569.13
2562.148
2555.865
2550.639
2545.887
2543.049
2544.149
2515.048
2503.856
2521.684
2512.718
2506.619
2501.28
2498.288
2497.468
2496.065
2496.024
2518.694
2515.623
2493.285
2487.902
2490.043
2493.225
2499.082
2507.227
2515.438
2532.934
2536.421
2545.604
2566.908
2589.289
2613.015
2640.488
2671.813
2715.481
2819.654
3011.874
2884.573
2837.065
2937.784
2989.342
2971.953
2926.531
2897.038
2877.081
2861
2848.956
2841.135
2836.71
2834.939
2835.27
2837.132
2839.984
2842.741
2847.162
2864.058
2917.223
2972.261
3007.044
3155.698
3366.499
3440.92
3488.037
3535.568
3488.204
3226.509
3185.782
3280.212
3323.697
3358.722
3391.342
3416.937
3438.864
3459.234
3478.94
3498.942
3520.1
3543.21
3569.026
3598.144
3630.917
3667.413
3707.425
3750.531
3796.21
3843.948
3893.315
3943.984
3995.724
4048.375
4101.824
4155.989
4210.836
4266.389
4322.712
4379.901
4438.098
4497.503
4558.359
4620.891
4685.199
4751.078
4817.784
4883.723
4946.387
5003.503
5055.865
5108.165
5163.255
5219.215
5273.849
5326.26
5376.333
5424.499
5473.09
5523.173
5569.179
5614.471
5660.544
5706.767
5752.955
5798.882
5844.123
5888.684
5931.916
5973.766
6014.124
6052.896
6090.085
6125.683
6159.713
6192.192
6223.185
6252.642
6280.591
6307.087
6332.152
6355.816
6378.111
6399.066
6418.718
6437.111
6454.299
6470.347
6485.338
6499.367
6512.543
6524.985
6536.813
6548.145
6559.086
6569.733
6580.165
6590.452
6600.604
6610.723
6620.815
6630.929
6641.02
6651.083
6661.069
6670.981
6680.694
6690.486
6701.491
6715.216
6719.878
6728.844
6735.934
6741.873
6746.17
6748.458
6748.304
6745.285
6739.042
6728.704
6714.255
6695.127
6670.816
6640.854
6603.91
6557.604
6499.988
6428.035
6340.61
6239.277
6126.531
6008.452
5900.829
5807.06
5752.547
5737.713
5760.05
5811.938
5883.533
5965.869
6049.619
6114.146
6119.009
6119.901
6156.548
6232.663
6293.65
6340.976
6376.538
6401.652
6419.631
6437.298
6454.301
6470.525
6484.307
6495.323
6504.427
6511.806
6517.666
6522.087
6524.986
6526.399
6526.69
6526.578
6526.885
6528.352
6530.959
6535.268
6540.897
6547.701
6555.411
6563.888
6572.961
6582.392
6591.851
6601.004
6609.577
6617.251
6623.354
6649.954
6644.891
6628.575
6631.91
6633.296
6633.369
6631.487
6631.38
6630.495
6629.003
6627.189
6624.979
6622.556
6620.063
6617.952
6616.184
6614.705
6613.461
6612.306
6611.313
6610.368
6609.35
6608.197
6606.849
6605.285
6603.489
6601.457
6599.195
6596.708
6594.01
6591.108
6588.011
6584.724
6581.254
6577.611
6573.807
6569.865
6565.813
6561.689
6557.537
6553.422
6549.406
6545.558
6541.955
6538.64
6534.81
6529.209
6523.225
6517.578
6512.346
6507.322
6502.596
6497.477
6488.719
6477.737
6476.862
6476.529
6472.144
6467.597
6463.552
6459.407
6455.077
6450.986
6446.903
6442.829
6438.698
6434.493
6430.212
6425.838
6421.354
6416.739
6411.955
6407.013
6401.911
6396.659
6391.246
6385.674
6379.94
6374.045
6367.985
6361.758
6355.362
6348.804
6342.095
6335.254
6328.308
6321.288
6314.235
6307.197
6300.232
6293.408
6286.796
6280.475
6274.528
6269.021
6264.01
6259.529
6255.589
6252.21
6249.37
6247.039
6245.257
6243.992
6243.231
6242.972
6243.155
6243.771
6244.787
6246.156
6247.855
6249.828
6252.028
6254.404
6256.906
6259.479
6262.068
6264.617
6267.07
6269.371
6271.467
6273.309
6274.85
6276.049
6276.866
6277.263
6277.194
6276.611
6275.445
6273.614
6271.001
6267.469
6262.817
6256.729
6248.51
6237.365
6222.712
6208.725
6220.588
6303.16
4232.098
4101.871
3970.724
3841.951
3725.838
3620.078
3523.792
3438.373
3356.344
3259.75
3204.169
3147.462
3091.637
3045.186
3001.788
2964.664
2931.768
2898.328
2868.935
2866.88
2829.499
2798.147
2775.916
2756.143
2738.538
2723.157
2708.598
2696.422
2689.849
2664.467
2651.281
2640.638
2628.133
2616.089
2605.065
2595.653
2589.508
2592.466
2570.472
2555.757
2551.774
2547.618
2542.045
2537.641
2533.995
2531.042
2528.721
2518.842
2517.552
2515.176
2509.918
2504.238
2499.744
2496.95
2496.186
2503.713
2481.889
2482.167
2485.556
2487.733
2489.037
2491.053
2495.986
2503.911
2513.622
2523.619
2537.22
2553
2569.694
2589.407
2614.726
2646.905
2687.554
2738.668
2793.974
2842.848
2864.239
2864.875
2878.869
2894.61
2897.449
2886.748
2869.846
2854.141
2842.148
2834.558
2830.52
2828.612
2828.658
2830.942
2835.038
2841.822
2852.075
2869.01
2898.348
2942.803
3002.574
3078.341
3171.267
3272.258
3353.387
3401.21
3413.403
3393.19
3342.488
3312.351
3329.755
3360.229
3388.865
3412.391
3431.532
3448.623
3465.2
3481.7
3498.839
3517.769
3539.589
3565.388
3595.735
3630.661
3669.917
3712.957
3759.018
3807.362
3857.391
3908.635
3960.738
4013.468
4066.694
4120.326
4174.28
4228.527
4283.113
4338.111
4393.599
4449.699
4506.604
4564.585
4623.903
4684.684
4746.766
4809.608
4872.29
4933.628
4992.87
5050.629
5108.631
5167.622
5226.509
5283.848
5339.236
5392.85
5444.668
5494.961
5544.247
5592.153
5638.843
5684.97
5730.698
5775.967
5820.705
5864.704
5907.687
5949.583
5990.229
6029.483
6067.284
6103.602
6138.422
6171.748
6203.573
6233.899
6262.751
6290.173
6316.171
6340.759
6363.958
6385.793
6406.284
6425.454
6443.352
6460.035
6475.567
6490.032
6503.533
6516.185
6528.109
6539.429
6550.265
6560.729
6570.918
6580.915
6590.782
6600.575
6610.327
6620.095
6629.85
6639.665
6649.396
6659.173
6668.722
6678.095
6687.299
6697.14
6708.37
6711.557
6720.241
6726.723
6731.341
6734.093
6734.478
6732.075
6726.417
6717.028
6703.466
6685.386
6662.332
6633.707
6598.508
6555.156
6501.05
6434.779
6354.583
6259.191
6149.837
6031.968
5913.466
5811.961
5740.225
5703.146
5703.672
5740.201
5802.282
5878.798
5958.666
6032.999
6095.011
6136.655
6174.423
6221.603
6273.302
6321.525
6359.661
6389.37
6412.291
6430.524
6446.861
6461.833
6475.602
6487.512
6497.644
6506.674
6513.981
6520.37
6525.515
6529.144
6531.128
6531.712
6531.534
6531.509
6532.426
6534.725
6538.421
6543.502
6549.685
6556.42
6563.64
6571.879
6580.79
6589.424
6597.799
6605.538
6612.474
6622.617
6620.271
6627.728
6632.989
6632.475
6630.749
6629.701
6629.685
6630.319
6630.494
6629.85
6628.453
6626.711
6624.921
6623.083
6621.183
6619.222
6617.341
6615.846
6614.37
6613.001
6611.673
6610.262
6608.747
6607.05
6605.162
6603.054
6600.715
6598.161
6595.404
6592.45
6589.305
6585.972
6582.459
6578.772
6574.924
6570.936
6566.835
6562.653
6558.431
6554.214
6550.043
6545.95
6541.935
6537.929
6533.812
6529.45
6524.63
6519.472
6514.359
6509.43
6504.606
6499.793
6494.291
6488.075
6481.64
6476.404
6472.989
6470.272
6467.334
6463.803
6459.747
6455.59
6451.542
6447.505
6443.372
6439.191
6434.848
6430.444
6425.944
6421.333
6416.653
6411.641
6406.568
6401.373
6396.033
6390.546
6384.917
6379.131
6373.194
6367.088
6360.801
6354.313
6347.64
6340.796
6333.795
6326.665
6319.438
6312.164
6304.908
6297.749
6290.773
6284.036
6277.636
6271.663
6266.162
6261.185
6256.764
6252.908
6249.624
6246.923
6244.803
6243.237
6242.228
6241.755
6241.785
6242.283
6243.22
6244.528
6246.163
6248.094
6250.273
6252.65
6255.176
6257.797
6260.457
6263.097
6265.658
6268.083
6270.318
6272.313
6274.028
6275.423
6276.471
6277.141
6277.408
6277.231
6276.571
6275.365
6273.552
6271.036
6267.755
6263.553
6258.483
6252.488
6246.572
6242.11
6242.119
6247.724
6259.644
3717.532
3817.206
3941.793
4083.7
4242.571
4417.506
4607.149
4809.645
5022.707
5240.882
5466.883
5696.5
5921.804
6138.357
6342.372
6530.03
6693.582
6827.221
6924.446
6991.849
7017.463
7004.624
6954.343
6869.18
6752.456
6608.599
6442.282
6259.092
6068.047
5861.818
5658.216
5452.765
5251.037
5054.816
4865.531
4684.303
4512.667
4352.024
4189.9
4045.489
3910.551
3787.694
3675.364
3573.144
3480.332
3396.123
3320.738
3250.144
3183.032
3126.121
3074.311
3027.658
2986.459
2949.918
2918.172
2897.771
2846.205
2820.361
2801.92
2783.838
2764.637
2745.598
2728.125
2712.723
2699.403
2686.819
2674.15
2663.227
2651.505
2637.932
2623.681
2610.303
2598.844
2589.686
2582.531
2575.793
2569.955
2563.603
2555.902
2547.774
2540.565
2534.86
2530.912
2528.025
2524.923
2521.798
2517.783
2511.959
2505.728
2500.09
2494.744
2492.152
2490.733
2489.159
2486.754
2486.111
2485.17
2482.573
2481.179
2482.302
2487.075
2495.554
2505.632
2517.058
2529.719
2543.058
2558.457
2578.004
2603.491
2635.644
2673.24
2716.751
2759.097
2798.5
2825.133
2834.396
2841.301
2851.99
2858.678
2855.89
2844.801
2833.422
2825.742
2821.128
2818.539
2819.089
2821.466
2824.381
2829.581
2838.081
2850.785
2869.854
2899.502
2941.858
2997.857
3065.473
3142.848
3225.13
3299.405
3350.879
3378.834
3382.929
3370.089
3360.205
3368.737
3388.459
3409.199
3426.625
3440.831
3453.368
3465.63
3478.08
3491.506
3506.917
3525.369
3549.462
3580.138
3616.8
3658.611
3704.567
3753.541
3804.565
3856.922
3910.071
3963.632
4017.39
4071.232
4125.046
4178.706
4232.18
4285.551
4338.878
4392.153
4445.415
4498.848
4552.819
4607.828
4664.287
4722.352
4781.917
4842.651
4903.915
4965.085
5026.121
5087.651
5150.037
5212.777
5274.85
5335.306
5393.738
5450.064
5504.152
5556.154
5606.271
5654.479
5701.107
5746.65
5791.381
5835.341
5878.414
5920.446
5961.282
6000.85
6039.135
6076.072
6111.601
6145.699
6178.359
6209.589
6239.417
6267.892
6294.979
6320.64
6344.937
6367.895
6389.527
6409.843
6428.858
6446.604
6463.122
6478.471
6492.729
6506.003
6518.403
6530.053
6541.078
6551.591
6561.704
6571.52
6581.13
6590.607
6600.015
6609.402
6618.82
6628.275
6637.809
6647.347
6656.949
6666.464
6676.044
6685.832
6695.932
6705.197
6713.653
6720.347
6725.368
6728.769
6730.133
6728.846
6724.414
6716.364
6704.247
6687.652
6666.513
6640.532
6608.855
6570.704
6524.718
6466.889
6393.164
6302.085
6194.187
6071.694
5940.086
5808.002
5695.281
5616.324
5592.528
5603.479
5649.22
5742.246
5850.616
5947.732
6030.95
6102.493
6165.231
6221.556
6273.601
6320.698
6361.043
6393.567
6418.368
6437.133
6451.802
6464.017
6474.774
6484.209
6492.463
6500.575
6506.46
6511.396
6516.792
6521.372
6525.368
6528.678
6531.285
6533.585
6535.942
6538.546
6541.891
6545.906
6550.494
6555.867
6561.907
6568.876
6576.267
6583.793
6591.309
6598.555
6605.206
6611.204
6616.341
6618.97
6620.143
6621.191
6622.42
6623.768
6624.232
6625.802
6626.953
6627.848
6628.235
6627.915
6627.205
6626.312
6625.263
6623.989
6622.512
6620.962
6619.515
6618.085
6616.626
6615.008
6613.268
6611.395
6609.273
6607.034
6604.606
6601.923
6599.031
6595.954
6592.695
6589.254
6585.634
6581.837
6577.873
6573.759
6569.519
6565.187
6560.812
6556.431
6552.063
6547.736
6543.485
6539.295
6535.105
6530.866
6526.505
6521.95
6517.193
6512.371
6507.627
6503.01
6498.552
6494.476
6490.929
6487.717
6484.034
6479.738
6475.125
6470.533
6466.112
6461.823
6457.603
6453.454
6449.327
6445.144
6440.884
6436.509
6432.025
6427.415
6422.672
6417.735
6412.877
6407.804
6402.576
6397.21
6391.704
6386.086
6380.26
6374.301
6368.178
6361.864
6355.289
6348.521
6341.556
6334.387
6327.037
6319.548
6311.984
6304.426
6296.98
6289.751
6282.736
6276.085
6269.922
6264.254
6259.153
6254.643
6250.73
6247.424
6244.728
6242.652
6241.19
6240.319
6240.01
6240.234
6240.95
6242.096
6243.609
6245.447
6247.566
6249.919
6252.46
6255.137
6257.895
6260.676
6263.416
6266.052
6268.524
6270.778
6272.768
6274.457
6275.819
6276.834
6277.488
6277.763
6277.637
6277.072
6276.033
6274.463
6272.335
6269.613
6266.348
6262.636
6258.814
6255.338
6252.989
6252.084
6254.275
6259.596
3397.66
3373.428
3359.855
3348.363
3345.198
3358.61
3384.666
3429.276
3490.329
3535.496
3569.929
3626.389
3706.428
3807.278
3927.637
4065.775
4218.047
4385.495
4566.554
4759.832
4964.008
5177.257
5395.575
5614.679
5831.383
6041.153
6238.552
6419.227
6577.898
6710.027
6814.172
6888.681
6915.026
6898.58
6840.288
6747.464
6624.273
6474.563
6303.31
6116.356
5919.643
5717.537
5514.047
5312.463
5115.314
4924.41
4740.747
4565.195
4398.247
4240.196
4091.676
3953.675
3826.066
3709.192
3603.128
3507.219
3420.406
3341.576
3269.522
3203.447
3143.048
3088.074
3039.057
2996.209
2958.679
2925.191
2894.419
2866.07
2838.412
2815.671
2797.083
2778.063
2758.053
2738.478
2720.597
2705.2
2692.345
2681.463
2671.459
2660.637
2648.127
2634.323
2619.948
2606.061
2593.986
2583.877
2577.5
2573.416
2569.044
2562.392
2554.069
2545.334
2537.815
2531.247
2526.978
2525.518
2524.485
2521.807
2516.824
2510.022
2502.517
2496.235
2490.78
2487.889
2487.965
2488.058
2486.651
2483.641
2479.291
2474.484
2471.459
2473.237
2479.211
2488.15
2498.447
2509.244
2520.143
2531.402
2544.53
2562.086
2586.665
2618.039
2653.296
2693.445
2731.965
2764.183
2787.862
2800.538
2808.802
2817.607
2824.566
2824.259
2818.224
2811.805
2807.494
2805.644
2805.744
2809.005
2813.379
2816.921
2821.559
2829.343
2841.493
2859.33
2886.611
2925.971
2977.948
3041.285
3113.009
3188.258
3260.372
3317.988
3358.086
3380.318
3391.505
3400.102
3408.362
3418.767
3428.765
3439.079
3449.049
3457.746
3465.17
3470.79
3477.78
3488.629
3502.004
3522.719
3553.257
3592.266
3637.903
3688.161
3741.173
3795.779
3851.297
3907.108
3962.73
4017.967
4072.795
4127.125
4180.789
4233.71
4285.945
4337.499
4388.277
4438.281
4487.696
4536.877
4586.539
4637.606
4690.788
4746.379
4804.567
4865.155
4927.649
4991.67
5057.121
5123.816
5191.113
5257.992
5323.549
5387.275
5448.756
5507.595
5563.695
5617.123
5667.976
5716.562
5763.308
5808.543
5852.449
5895.079
5936.417
5976.445
6015.163
6052.547
6088.556
6123.169
6156.379
6188.194
6218.634
6247.723
6275.481
6301.919
6327.088
6350.925
6373.471
6394.745
6414.764
6433.537
6451.077
6467.419
6482.615
6496.713
6509.818
6522.021
6533.427
6544.184
6554.412
6564.221
6573.703
6582.951
6592.053
6601.086
6610.115
6619.206
6628.389
6637.708
6647.14
6656.722
6666.387
6676.213
6686.086
6695.949
6705.041
6712.489
6718.628
6723.526
6726.701
6727.53
6725.324
6719.787
6710.626
6697.547
6680.257
6658.555
6632.154
6599.813
6558.962
6503.55
6429.791
6356.639
6265.769
6146.744
6009.094
5862.677
5717.104
5590.79
5504.315
5463.692
5459.029
5539.873
5671.704
5805.856
5924.079
6025.175
6110.134
6182.325
6243.227
6294.094
6342.698
6385.419
6416.899
6439.436
6455.784
6467.775
6476.898
6484.29
6490.619
6496.07
6501.1
6505.051
6508.767
6512.3
6516.28
6520.582
6524.846
6528.75
6533.173
6538.161
6542.646
6547.688
6552.467
6557.273
6562.29
6567.615
6573.708
6580.123
6586.684
6593.041
6598.916
6604.156
6609.162
6613.556
6615.574
6617.032
6619.426
6621.83
6623.366
6624.014
6624.126
6624.884
6625.905
6626.623
6626.967
6627.093
6627.108
6626.986
6626.591
6625.889
6624.951
6623.844
6622.551
6621.05
6619.282
6617.293
6615.039
6612.637
6610.036
6607.261
6604.137
6600.888
6597.478
6593.892
6590.125
6586.178
6582.047
6577.74
6573.285
6568.716
6564.08
6559.439
6554.836
6550.275
6545.794
6541.406
6537.085
6532.794
6528.487
6524.114
6519.641
6515.062
6510.449
6505.913
6501.533
6497.344
6493.348
6489.364
6485.324
6481.186
6477.036
6473.003
6469.135
6465.397
6461.683
6457.912
6454.082
6450.188
6446.196
6442.075
6437.8
6433.372
6428.792
6424.06
6419.179
6414.195
6409.06
6403.783
6398.381
6392.864
6387.201
6381.475
6375.577
6369.5
6363.294
6356.554
6349.659
6342.549
6335.193
6327.603
6319.825
6311.926
6303.98
6296.18
6288.565
6281.192
6274.188
6267.829
6261.928
6256.675
6252.099
6248.134
6244.811
6242.146
6240.137
6238.775
6238.035
6237.882
6238.296
6239.259
6240.655
6242.404
6244.481
6246.825
6249.391
6252.139
6255.017
6257.967
6260.927
6263.829
6266.603
6269.184
6271.515
6273.55
6275.26
6276.628
6277.649
6278.324
6278.653
6278.627
6278.225
6277.421
6276.181
6274.5
6272.401
6269.97
6267.348
6264.757
6262.477
6260.823
6260.18
6260.9
6263.081
3851.353
3808.161
3767.488
3724.533
3679.385
3632.165
3588.33
3546.371
3506.469
3469.329
3434.777
3404.395
3378.598
3359.169
3346.241
3341.11
3349.815
3368.968
3398.251
3435.219
3477.426
3530.961
3600.011
3685.838
3790.581
3912.743
4051.432
4205.568
4374.078
4555.89
4749.568
4953.039
5163.297
5377.898
5594.25
5808.537
6017.903
6214.371
6391.496
6543.971
6667.12
6755.887
6804.318
6821.966
6803.218
6745.763
6652.966
6528.993
6378.076
6205.454
6016.998
5818.95
5616.476
5414.189
5215.629
5022.323
4835.823
4656.812
4485.471
4322.228
4167.661
4021.922
3886.11
3761.677
3649.162
3548.162
3457.406
3375.398
3300.836
3232.639
3169.815
3111.774
3059.006
3012.523
2972.721
2938.328
2907.456
2878.4
2851.399
2827.229
2806.474
2788.128
2769.883
2750.881
2731.913
2714.481
2699.37
2687.461
2678.591
2669.811
2659.321
2646.899
2632.723
2617.222
2601.199
2587.402
2578.536
2573.952
2571.765
2568.498
2562.524
2554.277
2543.672
2532.931
2527.245
2524.844
2524.769
2525.654
2523.738
2518.257
2509.946
2500.12
2491.035
2486.167
2484.656
2486.479
2487.603
2485.655
2480.542
2473.554
2465.995
2460.577
2462.087
2469.849
2479.892
2489.988
2499.459
2508.157
2516.414
2525.259
2538.443
2561.537
2594.351
2633.71
2671.524
2706.531
2734.078
2754.281
2767.611
2777.908
2787.112
2795.711
2794.948
2790.473
2787.494
2786.272
2787.373
2791.715
2798.451
2804.64
2807.352
2809.697
2814.771
2823.875
2836.113
2858.045
2893.931
2944.272
3007.607
3079.183
3153.504
3232.034
3297.801
3349.102
3389.393
3419.468
3438.803
3447.95
3450.606
3449.131
3449.99
3456.097
3461.906
3465.182
3465.16
3461.708
3459.837
3464.057
3480.982
3512.414
3555.468
3606.983
3663.595
3722.289
3781.613
3841.175
3900.484
3958.943
4016.265
4072.479
4127.606
4181.51
4234.152
4285.611
4335.7
4383.948
4430.065
4474.43
4517.775
4561.18
4605.634
4652.386
4702.593
4757.499
4817.075
4880.837
4948.197
5018.326
5090.263
5162.979
5235.483
5306.96
5376.744
5444.184
5508.71
5569.977
5627.859
5682.407
5733.856
5782.571
5828.936
5873.275
5915.814
5956.693
5996.006
6033.816
6070.162
6105.071
6138.564
6170.662
6201.392
6230.785
6258.869
6285.674
6311.227
6335.559
6358.704
6380.658
6401.384
6420.929
6439.309
6456.53
6472.629
6487.663
6501.573
6514.526
6526.598
6537.836
6548.397
6558.363
6567.869
6577.012
6585.88
6594.568
6603.171
6611.78
6620.483
6629.345
6638.43
6647.757
6657.354
6667.175
6677.182
6687.198
6696.993
6706.069
6713.985
6720.689
6725.866
6728.969
6729.427
6726.937
6721.149
6711.461
6697.855
6680.282
6658.341
6631.597
6592.511
6511.473
6434.976
6401.02
6346.016
6241.494
6105.453
5951.239
5785.05
5617.832
5463.335
5344.514
5281.994
5310.361
5437.598
5595.171
5744.9
5886.32
6007.771
6106.79
6184.874
6229.297
6293.623
6360.211
6405.454
6435.037
6456.015
6470.614
6480.59
6487.491
6492.547
6496.436
6499.752
6502.399
6504.561
6506.538
6508.62
6511.221
6514.784
6518.952
6523.017
6529.182
6537.51
6543.469
6551.012
6557.987
6564.374
6570.131
6575.539
6580.482
6585.893
6591.439
6596.829
6601.674
6606.062
6610.024
6613.038
6614.791
6616.561
6618.238
6619.485
6620.182
6620.645
6621.336
6622.32
6623.406
6624.476
6625.575
6626.698
6627.712
6628.542
6629.077
6629.228
6628.943
6628.243
6627.153
6625.695
6623.88
6621.724
6619.245
6616.536
6613.628
6610.852
6606.981
6603.31
6599.538
6595.587
6591.442
6587.099
6582.566
6577.864
6573.02
6568.073
6563.075
6558.128
6553.289
6548.488
6543.851
6539.391
6535.024
6530.692
6526.355
6521.977
6517.55
6513.091
6508.648
6504.292
6500.071
6495.996
6492.036
6488.116
6484.251
6480.451
6476.756
6473.152
6469.62
6466.127
6462.617
6459.041
6455.382
6451.62
6447.724
6443.665
6439.426
6435.007
6430.411
6425.647
6420.727
6415.674
6410.49
6405.18
6399.76
6394.239
6388.61
6382.869
6376.964
6370.846
6364.39
6357.933
6351.033
6343.781
6336.205
6328.337
6320.219
6311.924
6303.514
6295.284
6287.152
6279.205
6271.663
6265.017
6258.94
6253.438
6248.755
6244.881
6241.646
6239.033
6237.106
6235.862
6235.263
6235.261
6235.867
6237.148
6238.839
6240.817
6243.2
6245.849
6248.676
6251.671
6254.795
6257.989
6261.184
6264.303
6267.267
6270.002
6272.447
6274.558
6276.309
6277.694
6278.729
6279.435
6279.832
6279.93
6279.726
6279.197
6278.315
6277.08
6275.535
6273.775
6271.926
6270.139
6268.588
6267.485
6267.112
6267.26
6268.274
4303.437
4249.156
4200.062
4153.284
4110.597
4062.841
4021.433
3980.344
3939.085
3897.234
3855.511
3813.713
3770.561
3727.543
3682.821
3632.899
3589.542
3547.614
3507.467
3469.527
3434.422
3402.875
3375.733
3353.868
3337.743
3328.982
3327.856
3338.376
3358.928
3389.264
3429.975
3483.658
3552.91
3639.361
3742.997
3863.356
3999.75
4151.26
4316.899
4495.355
4684.154
4881.149
5084.831
5293.616
5506.029
5717.322
5922.375
6114.558
6287.251
6434.366
6551.163
6634.628
6681.604
6692.891
6668.421
6607.813
6512.72
6386.491
6233.235
6058.513
5868.395
5669.519
5467.662
5267.606
5073.921
4887.671
4709.006
4538.554
4375.522
4219.253
4070.458
3929.861
3799.131
3680.254
3574.058
3480.059
3396.34
3320.862
3252.083
3188.631
3129.459
3074.274
3024.09
2980.706
2945.052
2915.243
2888.109
2861.21
2835.72
2813.439
2794.877
2778.848
2762.593
2744.616
2725.43
2705.596
2690.945
2683.293
2676.592
2669.26
2659.42
2646.896
2631.538
2613.516
2594.23
2577.865
2570.151
2569.533
2571.185
2570.144
2564.678
2554.655
2540.942
2526.824
2520.135
2520.963
2525.345
2529.328
2528.382
2521.523
2510.107
2496.591
2484.033
2477.603
2479.19
2485.324
2488.431
2485.858
2478.168
2467.67
2455.336
2445.051
2445.859
2457.517
2470.062
2480.174
2488.057
2494.07
2498.33
2500.918
2507.147
2528.648
2565.669
2612.543
2652.18
2686.081
2711.097
2725.931
2735.293
2749.434
2761.292
2769.405
2766.926
2761.104
2762.077
2763.004
2767.008
2774.506
2785.757
2797.635
2798.189
2794.737
2794.936
2800.792
2803.526
2816.752
2846.809
2895.53
2963.761
3042.068
3122.179
3210.464
3293.205
3354.754
3408.696
3453.214
3482.88
3493.555
3484.439
3470.35
3459.231
3461.104
3466.649
3465.275
3461.37
3442.706
3419.694
3409.295
3421.241
3455.118
3505.8
3567.244
3633.068
3699.027
3764.194
3828.662
3891.897
3953.489
4013.379
4071.547
4127.937
4182.324
4234.774
4285.601
4334.583
4380.826
4423.379
4462.002
4497.056
4531.838
4568.169
4607.459
4650.042
4700.082
4758.336
4823.798
4895.293
4971.168
5049.687
5129.268
5208.666
5286.997
5363.573
5437.656
5508.528
5575.646
5638.685
5697.561
5752.434
5803.651
5851.651
5896.866
5939.659
5980.307
6019.022
6055.966
6091.26
6125
6157.26
6188.103
6217.584
6245.75
6272.643
6298.305
6322.777
6346.1
6368.31
6389.413
6409.444
6428.363
6446.2
6462.973
6478.693
6493.341
6507.086
6519.882
6531.807
6542.981
6553.427
6563.219
6572.442
6581.22
6589.665
6597.889
6605.995
6614.102
6622.334
6630.804
6639.611
6648.817
6658.452
6668.484
6678.827
6689.295
6699.6
6709.352
6718.181
6725.797
6731.601
6734.863
6735.216
6732.499
6725.643
6715.634
6702.306
6684.102
6660.505
6620.089
6470.423
6400.873
6418.1
6430.773
6341.224
6212.458
6063.077
5896.21
5717.236
5531.863
5292.126
4956.691
4830.925
4940.085
5195.686
5452.719
5666.556
5843.21
5985.28
6094.609
6157.205
6228.508
6304.088
6377.265
6421.634
6450.623
6470.9
6484.347
6492.72
6497.577
6500.364
6501.953
6502.917
6503.833
6504.647
6505.223
6505.864
6506.92
6508.933
6510.739
6510.235
6510
6513.502
6532.225
6554.784
6565.649
6572.431
6578.515
6583.627
6588.472
6593.395
6598.353
6602.406
6605.882
6608.862
6611.382
6613.304
6614.53
6615.279
6615.781
6616.577
6617.602
6618.578
6619.302
6620.148
6621.238
6622.42
6623.715
6625.085
6627.2
6629.497
6631.082
6632.077
6632.567
6632.484
6631.785
6630.481
6628.634
6626.318
6623.581
6620.48
6617.007
6612.961
6609.632
6605.792
6601.667
6597.365
6592.863
6588.161
6583.259
6578.168
6572.922
6567.564
6562.163
6556.868
6551.853
6546.727
6541.895
6537.367
6532.997
6528.677
6524.355
6520.002
6515.633
6511.274
6506.964
6502.745
6498.651
6494.699
6490.883
6487.172
6483.558
6480.045
6476.624
6473.264
6469.936
6466.615
6463.273
6459.87
6456.374
6452.753
6448.971
6444.997
6440.815
6436.421
6431.826
6427.045
6422.099
6417.008
6411.787
6406.452
6401.019
6395.506
6389.918
6384.243
6378.439
6372.437
6366.155
6359.581
6352.598
6345.188
6337.392
6329.184
6320.69
6311.966
6303.024
6294.306
6285.507
6276.644
6268.244
6260.559
6253.42
6248.474
6244.911
6241.23
6237.944
6235.384
6233.586
6232.49
6231.996
6231.951
6232.222
6233.054
6235.423
6238.739
6241.752
6244.674
6247.759
6251.033
6254.446
6257.932
6261.416
6264.81
6268.021
6270.962
6273.564
6275.78
6277.589
6279.011
6280.07
6280.809
6281.277
6281.515
6281.539
6281.323
6280.819
6280.014
6278.951
6277.728
6276.459
6275.256
6274.215
6273.535
6273.449
6273.462
6274.157
4569.668
4544.431
4486.894
4418.872
4353.106
4295.317
4242.685
4194.693
4150.629
4106.835
4058.961
4018.242
3977.927
3937.378
3896.29
3854.659
3812.388
3769.234
3725.437
3681.877
3639.282
3596.283
3554.105
3513.098
3473.793
3436.675
3401.876
3370.16
3343.069
3321.709
3307.195
3301.29
3305.592
3320.903
3348.021
3387.746
3441.784
3511.381
3597.397
3699.871
3818.474
3952.671
4101.462
4263.148
4435.591
4617.293
4807.891
5006.656
5211.728
5419.457
5625.332
5823.773
6008.245
6171.984
6308.887
6414.124
6484.677
6518.999
6517.549
6482.312
6414.558
6315.291
6186.642
6031.662
5855.7
5665.455
5466.954
5266.906
5070.742
4883.032
4706.124
4539.162
4380.495
4228.401
4081.743
3941.673
3809.585
3686.917
3576.046
3478.717
3394.432
3320.008
3252.769
3191.651
3134.794
3080.421
3028.044
2979.779
2939.928
2911.199
2887.917
2865.719
2840.78
2815.814
2794.813
2780.177
2768.351
2755.661
2738.373
2717.202
2694.816
2678.924
2676.337
2674.316
2668.794
2659.607
2647.269
2630.911
2609.865
2585.935
2565.415
2556.483
2562.097
2571.04
2574.225
2569.811
2557.525
2539.645
2520.224
2507.924
2511.493
2524.568
2535.416
2536.671
2527.691
2511.683
2492.771
2474.519
2463.9
2470.401
2484.766
2491.585
2488.395
2476.9
2462.032
2441.53
2420.914
2421.766
2442.693
2459.631
2469.802
2475.178
2477.787
2476.453
2468.234
2460.319
2484.751
2536.712
2588.435
2630.644
2665.617
2693.494
2707.441
2712.593
2724.806
2740.334
2744.327
2733.796
2725.457
2727.057
2734.607
2749.339
2768.426
2783.563
2781.03
2782.487
2772.555
2767.625
2769.533
2759.17
2765.685
2790.137
2835.962
2913.995
3001.555
3093.81
3187.284
3290.225
3373.383
3450.114
3510.364
3542.555
3549.9
3521.123
3488.681
3464.244
3468.239
3479.775
3472.41
3457.736
3417.208
3368.259
3337.248
3346.415
3386.141
3447.667
3523.234
3601.927
3676.227
3747.392
3817.948
3886.288
3951.06
4012.84
4072.449
4130.279
4185.661
4238.557
4289.503
4337.78
4381.564
4419.345
4451.596
4478.951
4503.154
4526.572
4553.648
4587.447
4631.291
4686.826
4754.548
4831.954
4915.615
5002.573
5090.508
5177.929
5263.969
5348.035
5429.324
5507.035
5580.518
5649.239
5712.946
5771.725
5825.909
5875.982
5922.466
5965.844
6006.519
6044.818
6081.002
6115.281
6147.829
6178.791
6208.288
6236.413
6263.234
6288.805
6313.18
6336.413
6358.563
6379.679
6399.788
6418.912
6437.06
6454.225
6470.412
6485.644
6499.97
6513.425
6526.03
6537.828
6548.865
6559.16
6568.779
6577.773
6586.223
6594.165
6601.828
6609.336
6616.827
6624.47
6632.437
6640.889
6649.938
6659.64
6669.985
6680.885
6692.146
6703.472
6714.504
6724.706
6733.323
6739.765
6743.55
6743.752
6736.567
6727.818
6722.792
6710.617
6689.932
6641.057
6427.701
6357.835
6419.699
6500.259
6439.205
6322.416
6181.71
6022.298
5848.146
5671.052
5483.982
5182.846
4071.11
3533.245
3562.749
3937.65
4967.385
5538.697
5801.137
5970.004
6088.796
6160.077
6244.323
6330.68
6393.911
6435.117
6464.132
6484
6496.518
6503.165
6500.252
6496.871
6498.214
6503.917
6505.914
6505.453
6505.02
6504.976
6505.519
6506.691
6488.994
6277.886
6258.568
6434.647
6544.211
6564.676
6573.204
6580.57
6587.13
6592.513
6596.88
6601.075
6604.9
6608.062
6610.352
6612.074
6613.394
6614.184
6613.513
6607.735
6606.242
6612.016
6616.567
6617.133
6617.704
6618.588
6618.466
6608.355
6608.963
6620.304
6628.207
6631.091
6632.996
6634.467
6635.413
6635.759
6635.441
6634.425
6632.704
6630.345
6627.44
6624.086
6620.369
6616.377
6612.41
6608.333
6603.784
6599.154
6594.346
6589.306
6584.034
6578.548
6572.876
6567.034
6561.171
6555.555
6550.257
6544.768
6539.779
6535.301
6531.035
6526.786
6522.527
6518.222
6513.93
6509.657
6505.443
6501.333
6497.357
6493.547
6489.907
6486.397
6482.996
6479.694
6476.467
6473.292
6470.152
6467.024
6463.881
6460.683
6457.38
6453.925
6450.272
6446.385
6442.248
6437.866
6433.254
6428.437
6423.443
6418.3
6413.033
6407.663
6402.218
6396.725
6391.201
6385.626
6379.946
6374.082
6367.916
6361.344
6354.282
6346.694
6338.585
6330.06
6321.192
6312.066
6302.628
6293.36
6283.511
6271.46
6253.854
6242.22
6243.801
6244.712
6240.95
6236.833
6233.568
6231.154
6229.516
6228.601
6227.841
6222.928
6215.178
6222.472
6232.411
6237.176
6240.114
6243.236
6246.618
6250.208
6253.953
6257.786
6261.626
6265.369
6268.901
6272.109
6274.902
6277.268
6279.208
6280.693
6281.764
6282.514
6283.029
6283.394
6283.669
6283.814
6283.724
6283.337
6282.696
6281.911
6281.094
6280.31
6279.574
6279.147
6279.469
6279.578
6280.263
4546.567
4506.425
4427.279
4370.936
4316.978
4267.526
4221.802
4178.947
4138.033
4098.606
4060.47
4021.705
3982.625
3942.873
3902.456
3861.124
3818.829
3775.532
3731.234
3686.512
3642.855
3599.657
3556.935
3514.63
3472.717
3431.83
3393.024
3357.256
3326.011
3301.203
3284.136
3275.781
3277.458
3290.19
3315.174
3353.6
3406.775
3475.529
3560.381
3661.28
3777.837
3909.279
4054.114
4209.248
4374.21
4549.563
4735.297
4929.138
5128.273
5328.752
5525.663
5713.28
5885.208
6034.783
6156.035
6244.377
6297.253
6314.424
6297.667
6249.84
6173.539
6069.867
5939.765
5785.269
5610.43
5422.778
5226.97
5027.95
4835.074
4655.949
4492.056
4339.584
4194.157
4054.005
3919.369
3791.803
3670.904
3556.729
3453.336
3365.793
3293.586
3230.855
3173.347
3120.655
3071.19
3023.168
2974.633
2928.858
2889.502
2868.673
2858.343
2838.899
2817.301
2792.901
2771.457
2760.643
2758.485
2747.215
2732.387