/*--------------------------------*- C++ -*----------------------------------*\
| =========                 |                                                 |
| \\      /  F ield         | foam-extend: Open Source CFD                    |
|  \\    /   O peration     | Version:     3.1                                |
|   \\  /    A nd           | Web:         http://www.extend-project.de       |
|    \\/     M anipulation  |                                                 |
\*---------------------------------------------------------------------------*/
FoamFile
{
    version     2.0;
    format      ascii;
    class       surfaceScalarField;
    location    "19.5";
    object      phi;
}
// * * * * * * * * * * * * * * * * * * * * * * * * * * * * * * * * * * * * * //

dimensions      [0 3 -1 0 0 0 0];

internalField   nonuniform List<scalar> 
275122
(
-0.0003973147
0.0004027635
-4.004249e-07
-5.048348e-06
-0.0003553708
0.000338676
1.3663e-06
1.532858e-05
-0.0003521096
0.0003610628
-3.854267e-07
-8.56786e-06
-0.0003911565
0.0004015482
-4.720725e-07
-9.919601e-06
-0.0004274634
0.0004304865
-5.483218e-07
-2.474721e-06
-0.0004302155
0.0004294771
-4.872745e-07
1.225665e-06
-0.0004255339
0.0004240234
-4.512462e-07
1.961759e-06
-0.0004189102
0.0004170445
-4.27493e-07
2.293213e-06
-0.000411141
0.000409099
-4.064721e-07
2.448478e-06
-0.0004028344
0.0004007033
-3.849616e-07
2.516118e-06
-0.0003942049
0.0003920052
-3.616361e-07
2.561337e-06
-0.0003853308
0.0003830835
-3.475991e-07
2.594907e-06
-0.0003763143
0.0003740374
-3.282904e-07
2.60519e-06
-0.0003671915
0.0003648918
-3.214003e-07
2.621041e-06
-0.0003579917
0.0003556777
-2.919955e-07
2.606038e-06
-0.0003486936
0.0003463754
-2.67688e-07
2.585872e-06
-0.0003392851
0.000336955
-2.402953e-07
2.570437e-06
-0.0003298872
0.0003276202
-2.287821e-07
2.495816e-06
-0.0003210957
0.0003191941
-2.57114e-07
2.158701e-06
-0.0003151442
0.0003153905
-6.445136e-07
3.982169e-07
-0.0003489011
0.0003623766
-1.292243e-06
-1.218332e-05
-0.0003651788
0.0003646822
-2.722649e-07
7.688398e-07
-0.0003669164
0.0003686274
-1.514046e-07
-1.559548e-06
-0.0004073658
0.0004215443
3.415366e-07
-1.452004e-05
-0.0004219419
0.0004204848
6.046113e-07
8.52419e-07
-0.0004206308
0.0004207571
-2.487192e-07
1.224929e-07
-0.0004194279
0.0004178177
-2.525454e-07
1.862781e-06
-0.0004118872
0.0004075588
-2.199004e-07
4.548309e-06
-0.0003822418
0.0003567108
-3.117101e-07
2.584264e-05
-0.0002359607
0.000242304
4.524943e-09
-6.34783e-06
-0.0002652362
0.0002788394
-6.989582e-08
-1.353331e-05
-0.0003174645
0.0003303097
7.924233e-09
-1.285314e-05
-0.0003695602
0.0003828492
8.535947e-09
-1.329746e-05
-0.0004230773
0.0004366413
9.296149e-09
-1.357327e-05
-0.0004780087
0.0004919267
9.79802e-09
-1.392783e-05
-0.0005345555
0.0005489679
1.07639e-08
-1.44231e-05
-0.0005925916
0.0006072935
9.683571e-09
-1.471164e-05
-0.0006516905
0.0006666102
9.641114e-09
-1.492926e-05
-0.0007114826
0.0007265391
6.855704e-09
-1.506332e-05
-0.0007710749
0.0007873609
2.332071e-07
-1.651926e-05
1.295601e-05
-0.0005353976
0.0005376748
1.033146e-09
-1.523424e-05
1.327483e-05
-0.0005442847
0.0005462867
-6.45919e-10
-1.527613e-05
1.349594e-05
-0.0005519283
0.0005537321
-1.568751e-09
-1.529815e-05
1.383332e-05
-0.0005587202
0.0005602613
-1.27836e-09
-1.537314e-05
1.421245e-05
-0.0005644607
0.0005657096
-1.308383e-09
-1.546004e-05
1.450722e-05
-0.0005691714
0.0005702337
-7.693459e-10
-1.556878e-05
1.476271e-05
-0.0005731639
0.0005740893
6.817785e-10
-1.568882e-05
1.49242e-05
-0.0005766787
0.0005775291
1.29561e-10
-1.577471e-05
1.53939e-05
-0.0005798492
0.0005795987
-6.336313e-10
-1.514272e-05
1.364637e-05
-0.002361965
0.002371665
2.661046e-10
-6.452739e-05
1.384527e-05
1.357722e-05
1.375762e-05
1.453022e-05
-0.002378469
0.002383977
2.221701e-10
-6.465665e-05
1.507815e-05
1.45002e-05
1.503944e-05
1.490228e-05
-0.002388286
0.002391998
1.784694e-10
-6.384666e-05
1.519644e-05
1.486844e-05
1.516674e-05
1.49567e-05
-0.00239594
0.002399776
1.529902e-10
-6.39116e-05
1.511225e-05
1.492476e-05
1.508203e-05
1.498233e-05
-0.002403364
0.002406976
1.270598e-10
-6.392012e-05
1.520242e-05
1.495098e-05
1.517266e-05
1.525063e-05
-0.002410179
0.002413323
1.001204e-10
-6.434425e-05
1.537888e-05
1.522104e-05
1.535023e-05
1.533842e-05
-0.002416532
0.002419454
8.727713e-11
-6.437655e-05
1.541584e-05
1.531051e-05
1.538946e-05
1.533856e-05
-0.002422505
0.00242532
2.604276e-12
-6.413267e-05
1.534739e-05
1.530684e-05
1.532474e-05
1.525001e-05
-0.002428731
0.002431813
-8.850115e-11
-6.40552e-05
1.526653e-05
1.521772e-05
1.523934e-05
1.479459e-05
-0.002431224
0.002434379
-3.960771e-11
-6.23947e-05
1.484742e-05
1.476493e-05
1.483362e-05
1.53791e-05
-0.002437598
0.002439406
-6.296231e-11
-6.353011e-05
1.549261e-05
1.536984e-05
1.548037e-05
1.524668e-05
-0.002440449
0.002441214
-3.940247e-11
-6.147401e-05
1.51164e-05
1.523784e-05
1.510859e-05
1.510119e-05
-0.002441994
0.002442683
-6.676247e-11
-6.087343e-05
1.499973e-05
1.509164e-05
1.499184e-05
1.504369e-05
-0.002443395
0.002444013
2.241618e-12
-6.063989e-05
1.497466e-05
1.503347e-05
1.496974e-05
1.504131e-05
-0.002444589
0.002445122
3.395671e-11
-6.05618e-05
1.49837e-05
1.50248e-05
1.497873e-05
1.510274e-05
-0.00244569
0.00244626
5.126922e-11
-6.080356e-05
1.504693e-05
1.505365e-05
1.503035e-05
1.53675e-05
-0.00244693
0.002447444
6.095213e-11
-6.152005e-05
1.532708e-05
1.51423e-05
1.516977e-05
1.665311e-05
-0.002447618
0.00244548
5.996073e-11
-6.304359e-05
1.690531e-05
1.567467e-05
1.59485e-05
2.119181e-05
-0.002438753
0.002422892
6.74884e-11
-6.421874e-05
2.251677e-05
1.851547e-05
1.785553e-05
2.638271e-05
-0.002402906
0.00242463
3.809942e-11
-4.810703e-05
1.870329e-05
-0.002444173
0.002446361
1.448357e-11
-2.089188e-05
3.933601e-05
-0.00243836
0.002433842
-3.035983e-12
-3.481855e-05
3.360778e-05
-0.002430831
0.002428319
-1.974699e-11
-3.109544e-05
1.836099e-05
-0.002425284
0.00242624
-3.211453e-11
-1.931661e-05
3.776497e-06
-0.002430238
0.002434517
-3.831321e-11
-8.055988e-06
-6.459232e-07
-0.002437767
0.00244069
-3.320745e-11
-2.277049e-06
-3.383779e-06
-0.002443611
0.002446081
-1.716559e-11
9.138981e-07
-5.258114e-06
-0.00244824
0.002449991
6.441342e-12
3.507279e-06
-6.812505e-06
-0.002451456
0.002452531
3.079894e-11
5.737514e-06
-7.858816e-06
-0.002453392
0.002453989
5.163596e-11
7.261506e-06
-8.398477e-06
-0.002454492
0.002454911
7.071402e-11
7.979812e-06
-8.603171e-06
-0.002455342
0.002455802
8.37893e-11
8.14262e-06
-8.702932e-06
-0.002456318
0.002456892
9.610256e-11
8.128999e-06
-8.852471e-06
-0.002457499
0.002458121
1.057028e-10
8.230734e-06
-9.129152e-06
-0.002458736
0.002459263
1.12272e-10
8.601698e-06
-9.503292e-06
-0.002459705
0.002460033
1.102852e-10
9.174381e-06
-9.307841e-06
-0.002460257
0.002460334
6.913655e-11
9.230936e-06
-7.728677e-06
-0.002460243
0.002459721
7.910281e-11
8.250521e-06
-2.820921e-06
-0.00245883
0.002456472
4.42019e-11
5.178352e-06
6.189398e-06
-0.0024491
0.002443078
1.195914e-11
-1.671598e-07
-5.242074e-07
-0.002443167
0.00244288
-2.659037e-11
8.108098e-07
1.104589e-05
-0.002441463
0.002436446
-4.893026e-11
-6.028412e-06
3.328796e-05
-0.002418318
0.002399271
-6.758197e-11
-1.42409e-05
4.082811e-06
-0.002388445
0.002385988
-8.074446e-11
-1.625415e-06
-1.18387e-05
-0.002383021
0.002377562
-8.88133e-11
1.729779e-05
-2.360777e-05
-0.002369836
0.002363534
-9.236103e-11
2.991e-05
-4.376103e-05
-0.002358345
0.002355953
-8.571959e-11
4.615225e-05
-9.126558e-05
-0.002354433
0.002376464
-7.157056e-11
6.923494e-05
-2.009048e-05
-0.002404388
0.002400407
-6.279237e-11
7.080192e-05
-1.355076e-05
-1.994413e-05
-1.323518e-05
-8.163721e-06
-0.00238799
0.002383017
-5.159141e-11
3.751872e-05
-8.553828e-06
-7.752364e-06
-8.075436e-06
-7.46355e-06
-0.002381133
0.002377422
-4.001234e-11
3.215531e-05
-7.106423e-06
-7.111642e-06
-6.763292e-06
-5.704866e-06
-0.002371724
0.002366135
-2.690458e-11
2.729008e-05
-5.43632e-06
-5.405952e-06
-5.153991e-06
-5.011761e-06
-0.002361103
0.002356645
-1.336079e-11
2.391957e-05
-4.967609e-06
-4.759715e-06
-4.721897e-06
-4.769325e-06
-0.002352542
0.0023485
-1.594445e-12
2.258888e-05
-4.721429e-06
-4.549574e-06
-4.50691e-06
-4.574087e-06
-0.002344406
0.002340276
6.363084e-12
2.196355e-05
-4.534726e-06
-4.379198e-06
-4.345742e-06
-4.497694e-06
-0.002336113
0.002331909
9.174322e-12
2.183295e-05
-4.487873e-06
-4.324731e-06
-4.318348e-06
-4.528369e-06
-0.00232765
0.002323278
5.771401e-12
2.219262e-05
-4.536669e-06
-4.372781e-06
-4.382435e-06
-4.650839e-06
-0.002318803
0.002314124
-2.699089e-12
2.305228e-05
-4.678053e-06
-4.50875e-06
-4.535979e-06
-4.878841e-06
-0.002309279
0.00230411
-1.301768e-11
2.451647e-05
-4.925946e-06
-4.748086e-06
-4.794623e-06
-5.211086e-06
-0.002298676
0.002292757
-2.273286e-11
2.664967e-05
-5.275257e-06
-5.090284e-06
-5.153717e-06
-5.625121e-06
-0.002286446
0.002279493
-3.03968e-11
2.937653e-05
-5.698529e-06
-5.513315e-06
-5.58629e-06
-6.059664e-06
-0.002272052
0.002263922
-3.561217e-11
3.230183e-05
-6.129056e-06
-5.956739e-06
-6.026304e-06
-6.436654e-06
-0.002255301
0.002246074
-3.752778e-11
3.489548e-05
-6.491154e-06
-6.342728e-06
-6.397947e-06
-6.706056e-06
-0.002236436
0.002226354
-3.555131e-11
3.680862e-05
-6.741207e-06
-6.62127e-06
-6.657637e-06
-6.854742e-06
-0.002215981
0.002205339
-2.975296e-11
3.794373e-05
-6.870556e-06
-6.779499e-06
-6.797013e-06
-6.89155e-06
-0.002194526
0.002183588
-2.10873e-11
3.837351e-05
-6.889846e-06
-6.826469e-06
-6.826884e-06
-6.833021e-06
-0.00217257
0.002161527
-1.065629e-11
3.823451e-05
-6.815987e-06
-6.778678e-06
-6.764077e-06
-6.693961e-06
-0.00215047
0.002139461
-3.484544e-13
3.763921e-05
-6.663441e-06
-6.650756e-06
-6.622865e-06
-6.484901e-06
-0.00212849
0.002117634
9.234136e-12
3.66503e-05
-6.442595e-06
-6.45303e-06
-6.41338e-06
-6.215893e-06
-0.002106863
0.00209627
1.576475e-11
3.53143e-05
-6.163948e-06
-6.195294e-06
-6.145989e-06
-5.90141e-06
-0.00208581
0.002075579
1.995546e-11
3.3702e-05
-5.843035e-06
-5.891413e-06
-5.835419e-06
-5.561081e-06
-0.002065519
0.002055726
2.181563e-11
3.191468e-05
-5.499975e-06
-5.56017e-06
-5.501023e-06
-5.215529e-06
-0.002046132
0.002036828
2.132773e-11
3.005951e-05
-5.155069e-06
-5.221744e-06
-5.162756e-06
-4.882845e-06
0.00201895
1.972198e-11
2.823129e-05
-4.825933e-06
-4.894124e-06
-4.838202e-06
-0.002027741
-4.579693e-06
-0.002010386
0.002002112
1.762575e-11
2.652139e-05
-4.529408e-06
-4.593969e-06
-4.544237e-06
-4.324414e-06
-0.001994062
0.001986275
1.63126e-11
2.503414e-05
-4.284056e-06
-4.339429e-06
-4.299144e-06
-4.136107e-06
-0.001978696
0.00197133
1.438743e-11
2.388207e-05
-4.108963e-06
-4.149568e-06
-4.121971e-06
-4.032856e-06
-0.00196414
0.001957094
1.150997e-11
2.317507e-05
-4.021745e-06
-4.042928e-06
-4.030942e-06
-4.031575e-06
-0.001950172
0.001943305
8.089977e-12
2.301828e-05
-4.03959e-06
-4.03669e-06
-4.043292e-06
-4.150915e-06
-0.001936494
0.001929626
5.263076e-12
2.352864e-05
-4.181911e-06
-4.149453e-06
-4.178313e-06
-4.412761e-06
-0.001922718
0.001915615
3.359956e-12
2.484873e-05
-4.471174e-06
-4.402914e-06
-4.458146e-06
-4.840142e-06
-0.001908343
0.001900709
2.648311e-12
2.712959e-05
-4.930444e-06
-4.819458e-06
-4.905002e-06
-5.453283e-06
-0.001892748
0.00188424
5.261524e-12
3.049638e-05
-5.580019e-06
-5.418014e-06
-5.53743e-06
-6.270909e-06
-0.001875226
0.001865473
8.978138e-12
3.504787e-05
-6.439758e-06
-6.213834e-06
-6.370975e-06
-7.313316e-06
-0.001855025
0.001843649
1.347692e-11
4.086119e-05
-7.531044e-06
-7.221576e-06
-7.420098e-06
-8.596947e-06
-0.001831406
0.001818085
2.155424e-11
4.792567e-05
-8.866275e-06
-8.449986e-06
-8.691481e-06
-1.009845e-05
-0.001803789
0.001788339
3.327474e-11
5.60042e-05
-1.040773e-05
-9.885218e-06
-1.016284e-05
-1.168023e-05
-0.001771884
0.001754231
4.707775e-11
6.447295e-05
-1.197525e-05
-1.144188e-05
-1.172259e-05
-1.295506e-05
-0.001735503
0.00171536
6.001949e-11
7.20345e-05
-1.311213e-05
-1.281572e-05
-1.300939e-05
-1.335514e-05
-0.001693803
0.001670412
7.317424e-11
7.686917e-05
-1.32772e-05
-1.343168e-05
-1.341497e-05
-1.274656e-05
-0.001645146
0.001617763
8.79018e-11
7.840692e-05
-1.253195e-05
-1.297602e-05
-1.276957e-05
-1.170331e-05
-0.001588482
0.001557382
9.857406e-11
7.780908e-05
-1.147167e-05
-1.189438e-05
-1.164e-05
-1.053796e-05
-0.001524834
0.00149103
9.913043e-11
7.576626e-05
-1.030828e-05
-1.067979e-05
-1.043682e-05
-9.266165e-06
-0.001456444
0.001421295
9.009164e-11
7.201978e-05
-9.036032e-06
-9.398478e-06
-9.170049e-06
-7.976017e-06
-0.001386195
0.001351476
6.997666e-11
6.648417e-05
-7.778316e-06
-8.105701e-06
-7.904689e-06
-6.821548e-06
-0.00131774
0.001285395
3.648518e-11
5.952183e-05
-6.658779e-06
-6.932833e-06
-6.763163e-06
-5.854906e-06
-0.001254728
0.001226044
-9.079915e-13
5.182591e-05
-5.654811e-06
-5.924222e-06
-5.708402e-06
-4.877428e-06
-0.001198795
0.001173359
-2.840032e-11
4.430099e-05
-4.52332e-06
-4.910562e-06
-4.553567e-06
-4.289386e-06
-0.001150673
0.001130399
-5.050435e-11
3.747513e-05
-4.294012e-06
-4.315392e-06
-4.302154e-06
-3.901079e-06
-0.001111959
0.001095513
-6.322876e-11
3.194246e-05
-3.837679e-06
-3.908465e-06
-3.849284e-06
-3.316523e-06
-0.00108058
0.001067301
-7.042771e-11
2.641828e-05
-3.240885e-06
-3.329177e-06
-3.252237e-06
-2.807733e-06
-0.00105528
0.001044698
-7.695475e-11
2.170408e-05
-2.741818e-06
-2.81938e-06
-2.752952e-06
-2.338991e-06
-0.001035064
0.001026635
-8.362411e-11
1.76622e-05
-2.271631e-06
-2.346063e-06
-2.276792e-06
-1.909038e-06
-0.001018966
0.001012324
-8.835614e-11
1.415142e-05
-1.846441e-06
-1.908916e-06
-1.844705e-06
-1.54538e-06
-0.001006315
0.001001198
-8.234069e-11
1.119169e-05
-1.495524e-06
-1.541353e-06
-1.492398e-06
-1.235339e-06
-0.0009965452
0.0009926178
-7.561131e-11
8.789625e-06
-1.201539e-06
-1.230907e-06
-1.194384e-06
-1.023654e-06
-0.0009891198
0.0009862918
-6.38159e-11
6.846132e-06
-9.918712e-07
-1.01704e-06
-9.855127e-07
-8.552376e-07
-0.0009837967
0.0009818704
-4.974678e-11
5.298347e-06
-8.340907e-07
-8.517836e-07
-8.309145e-07
-7.256442e-07
-0.0009802239
0.0009790334
-3.392392e-11
4.067084e-06
-7.133532e-07
-7.255171e-07
-7.121038e-07
-6.374305e-07
-0.0009780788
0.0009774923
-1.812055e-11
3.10967e-06
-6.255568e-07
-6.360695e-07
-6.240384e-07
-5.616634e-07
-0.0009770915
0.0009769835
-3.815435e-12
2.333013e-06
-5.523787e-07
-5.601424e-07
-5.508261e-07
-4.962154e-07
-0.0009770313
0.0009773133
7.635256e-12
1.683214e-06
-4.880258e-07
-4.945957e-07
-4.863551e-07
-4.376399e-07
-0.0009777288
0.0009783363
1.60539e-11
1.124834e-06
-4.302382e-07
-4.35951e-07
-4.285098e-07
-3.845003e-07
-0.0009790572
0.0009799358
2.07997e-11
6.430433e-07
-3.779176e-07
-3.829061e-07
-3.763356e-07
-3.374493e-07
-0.0009809166
0.0009820254
2.178891e-11
2.269878e-07
-3.318597e-07
-3.360528e-07
-3.304688e-07
-2.951779e-07
-0.000983222
0.0009845315
1.929225e-11
-1.405007e-07
-2.905098e-07
-2.939946e-07
-2.893237e-07
-2.585081e-07
-0.0009859312
0.0009874329
1.339323e-11
-4.782636e-07
-2.542351e-07
-2.57491e-07
-2.532283e-07
-2.273818e-07
-0.0009890106
0.000990678
4.862458e-12
-7.664346e-07
-2.239805e-07
-2.26469e-07
-2.230674e-07
-2.019241e-07
-0.000992414
0.0009942309
-4.690231e-12
-1.016531e-06
-1.991379e-07
-2.010472e-07
-1.982712e-07
-1.804696e-07
-0.0009961131
0.0009980693
-1.3548e-11
-1.240323e-06
-1.782867e-07
-1.796289e-07
-1.774632e-07
-1.632078e-07
-0.001000086
0.001002173
-2.143524e-11
-1.437944e-06
-1.61655e-07
-1.624369e-07
-1.608618e-07
-1.498844e-07
-0.001004317
0.001006527
-2.784811e-11
-1.614328e-06
-1.48835e-07
-1.491239e-07
-1.480413e-07
-1.402643e-07
-0.001008794
0.001011127
-3.172316e-11
-1.773801e-06
-1.398842e-07
-1.395177e-07
-1.390736e-07
-1.348573e-07
0.001015968
-3.122159e-11
-1.915474e-06
-0.001013515
-1.349661e-07
-1.341145e-07
-1.343026e-07
-1.336924e-07
-0.001018476
0.00102105
-2.689256e-11
-2.038467e-06
-1.346013e-07
-1.331019e-07
-1.340771e-07
-1.365019e-07
-0.001023675
0.00102637
-2.220236e-11
-2.147197e-06
-1.377072e-07
-1.360603e-07
-1.372098e-07
-1.412909e-07
-0.001029116
0.001031937
-1.720018e-11
-2.253981e-06
-1.426028e-07
-1.40836e-07
-1.421538e-07
-1.454183e-07
-0.001034813
0.001037772
-1.026742e-11
-2.376098e-06
-1.465136e-07
-1.449796e-07
-1.460801e-07
-1.467646e-07
-0.00104079
0.001043905
-2.248884e-12
-2.527213e-06
-1.47456e-07
-1.463464e-07
-1.470372e-07
-1.439906e-07
-0.001047086
0.001050379
4.465439e-12
-2.717897e-06
-1.441555e-07
-1.436395e-07
-1.438319e-07
-1.364329e-07
-0.001053748
0.001057247
1.073149e-11
-2.95422e-06
-1.361092e-07
-1.361351e-07
-1.357904e-07
-1.241284e-07
-0.001060832
0.001064563
1.620046e-11
-3.237269e-06
-1.233501e-07
-1.238704e-07
-1.230441e-07
-1.078974e-07
-0.001068391
0.001072382
1.925191e-11
-3.562097e-06
-1.066916e-07
-1.07678e-07
-1.064587e-07
-8.882707e-08
-0.001076478
0.00108075
2.036789e-11
-3.91951e-06
-8.737019e-08
-8.864608e-08
-8.71815e-08
-6.841773e-08
-0.001085134
0.001089701
2.054695e-11
-4.296795e-06
-6.691717e-08
-6.822916e-08
-6.674913e-08
-4.825148e-08
-0.001094384
0.001099255
2.046937e-11
-4.680749e-06
-4.693613e-08
-4.808194e-08
-4.6799e-08
-2.922195e-08
-0.001104243
0.001109418
2.039923e-11
-5.061059e-06
-2.82502e-08
-2.915228e-08
-2.812028e-08
-1.092288e-08
-0.00111471
0.001120185
2.047338e-11
-5.43308e-06
-1.044523e-08
-1.085759e-08
-1.030193e-08
2.5553e-09
-0.001125775
0.001131552
1.965132e-11
-5.78878e-06
2.932844e-09
2.632636e-09
3.143467e-09
1.38091e-08
-0.001137434
0.001143503
1.876499e-11
-6.125881e-06
1.423429e-08
1.394514e-08
1.427614e-08
2.373187e-08
-0.001149672
0.001156022
1.830617e-11
-6.445383e-06
2.375126e-08
2.378876e-08
2.371134e-08
3.162506e-08
-0.00116246
0.001169074
1.813701e-11
-6.741268e-06
3.193345e-08
3.153977e-08
3.193096e-08
3.928219e-08
-0.001175774
0.001182652
1.784587e-11
-7.038522e-06
4.071133e-08
3.929165e-08
4.071061e-08
4.727552e-08
-0.001189602
0.001196729
1.837641e-11
-7.324037e-06
5.119262e-08
4.738291e-08
5.118057e-08
6.073367e-08
-0.001203942
0.001211369
1.951584e-11
-7.690699e-06
7.093143e-08
6.100622e-08
7.081924e-08
8.035851e-08
-0.001218866
0.001226592
2.064318e-11
-8.092215e-06
1.027476e-07
8.082595e-08
1.023553e-07
1.24629e-07
-0.001234387
0.001242517
2.165916e-11
-8.782289e-06
2.013776e-07
1.255584e-07
2.004887e-07
4.617256e-07
-0.001250084
0.001257227
2.162155e-11
-9.364791e-06
6.497198e-07
4.636092e-07
6.467583e-07
1.304319e-06
-0.000314917
0.0003151166
8.892589e-11
-1.504053e-06
5.411144e-07
-0.0003171749
0.0003180792
-6.301132e-11
-1.445319e-06
5.178035e-07
-0.0003210629
0.0003222224
-2.051675e-11
-1.677206e-06
5.378706e-07
-0.0003259197
0.0003272349
1.122358e-10
-1.853164e-06
5.769921e-07
-0.0003313712
0.0003328145
1.811021e-10
-2.020464e-06
6.387162e-07
-0.0003373054
0.0003388688
2.560107e-10
-2.202375e-06
7.255063e-07
-0.0003437217
0.0003454093
3.068602e-10
-2.413338e-06
8.333499e-07
-0.0003506411
0.0003524606
3.639027e-10
-2.653232e-06
9.450459e-07
-0.000358109
0.0003600757
3.103689e-10
-2.911996e-06
1.055417e-06
-0.0003661487
0.0003682691
5.580402e-10
-3.176312e-06
1.18693e-06
-0.0003747947
0.0003770359
4.869808e-10
-3.428577e-06
1.25714e-06
-0.0003839892
0.0003863768
3.724717e-10
-3.64513e-06
1.334379e-06
-0.0003937127
0.0003962378
6.664572e-10
-3.860165e-06
1.415961e-06
-0.0004039885
0.0004066581
5.701772e-10
-4.086074e-06
1.534456e-06
-0.0004148881
0.0004177509
6.494888e-10
-4.397875e-06
1.771774e-06
-0.0004266809
0.0004298352
7.428896e-10
-4.926899e-06
2.127425e-06
-0.0004397394
0.00044324
7.607706e-10
-5.628769e-06
2.363559e-06
-0.0004542391
0.0004581203
8.420653e-10
-6.245594e-06
2.462568e-06
-0.0004701764
0.0004743494
9.208793e-10
-6.636546e-06
2.388114e-06
-0.0004871321
0.0004914739
9.979806e-10
-6.730846e-06
2.166833e-06
-0.0005045336
0.0005088857
9.358089e-10
-6.519901e-06
1.791279e-06
-0.0005218217
0.0005260102
1.211415e-09
-5.98099e-06
9.880625e-07
-0.0005378858
0.0005414305
1.10004e-09
-4.533924e-06
-1.011594e-06
-0.000550896
0.0005535418
-3.38426e-12
-1.63424e-06
-2.369302e-06
-0.0005595788
0.0005607017
4.305938e-10
1.246028e-06
-3.88064e-06
-0.0005618669
0.0005614859
4.064178e-10
4.261249e-06
-5.434664e-06
-0.0005583994
0.0005566296
5.713204e-11
7.204453e-06
-6.622238e-06
-0.0005495383
0.0005465593
-1.684451e-10
9.601396e-06
-7.382064e-06
-0.0005361921
0.0005322927
-2.631534e-10
1.128171e-05
-7.820677e-06
-0.0005194906
0.0005149082
-4.121224e-10
1.240351e-05
-8.257327e-06
-0.0005001876
0.000494973
-2.44105e-10
1.347218e-05
-9.244215e-06
-0.0004781294
0.0004720723
7.39226e-10
1.530052e-05
-1.15884e-05
-0.000452283
0.000445287
2.189436e-09
1.858222e-05
-1.076818e-05
-0.0004238389
0.0004165197
2.039613e-10
1.808712e-05
-4.715735e-06
-0.0003953203
0.0003891428
-8.949456e-10
1.089414e-05
-4.370982e-08
-0.0003742929
0.0003698681
2.285905e-10
4.468223e-06
1.412928e-06
-0.0003605796
0.0003584443
2.261213e-09
7.200844e-07
1.501987e-06
-0.0003536
0.0003524266
6.851516e-09
-3.353968e-07
1.239124e-06
-0.0003497014
0.0003489895
1.267701e-08
-5.399238e-07
7.94188e-07
-0.0003471229
0.0003465681
1.815174e-08
-2.575817e-07
3.704701e-07
-0.0003450032
0.0003444856
3.70119e-09
1.434336e-07
5.984371e-07
-0.0003429731
0.0003424671
-1.592693e-08
-7.651274e-08
1.215391e-06
-0.0003409874
0.0003405598
-4.005593e-09
-7.837983e-07
1.687872e-06
-0.0003394804
0.0003391459
-6.446028e-10
-1.352733e-06
1.749435e-06
-0.0003382437
0.0003379659
-2.501158e-09
-1.46918e-06
1.560423e-06
-0.0003371346
0.0003368414
-4.238769e-09
-1.262959e-06
1.369481e-06
-0.0003358832
0.0003355057
-4.716607e-09
-9.872759e-07
1.240776e-06
-0.0003342118
0.0003337086
-4.26402e-09
-7.332728e-07
1.136698e-06
-0.0003319787
0.0003313129
-3.300205e-09
-4.676482e-07
1.07735e-06
-0.0003290811
0.0003282542
-2.169892e-09
-2.48314e-07
1.051403e-06
-0.0003255793
0.0003246281
-1.250962e-09
-9.89103e-08
1.033197e-06
-0.0003216672
0.0003206583
-7.103558e-10
-2.363855e-08
1.019501e-06
-0.000317636
0.0003166545
-4.674925e-10
-3.753324e-08
1.041678e-06
-0.000313835
0.0003129544
-3.707893e-10
-1.607025e-07
1.128925e-06
-0.0003104953
0.0003097566
-3.303105e-10
-3.898454e-07
1.268104e-06
-0.0003077696
0.0003072063
-2.955051e-10
-7.045798e-07
1.43403e-06
-0.0003058583
0.0003055133
-2.719835e-10
-1.088736e-06
1.628457e-06
-0.00030474
0.0003045878
-2.148072e-10
-1.475965e-06
1.803174e-06
-0.000304392
0.0003044225
-1.340189e-10
-1.833521e-06
1.965171e-06
-0.0003047456
0.00030494
-4.82968e-11
-2.159524e-06
2.119689e-06
-0.0003057313
0.0003060741
1.369696e-11
-2.462506e-06
2.26023e-06
-0.0003072876
0.0003077621
6.288423e-11
-2.734756e-06
2.376742e-06
-0.0003093411
0.0003099263
1.29739e-10
-2.962106e-06
2.455543e-06
-0.0003118112
0.0003124867
2.006613e-10
-3.13128e-06
2.472362e-06
-0.0003146032
0.0003153373
3.086311e-10
-3.206766e-06
2.394987e-06
-0.0003175718
0.00031832
4.3041e-10
-3.143542e-06
2.194953e-06
-0.0003205312
0.0003212439
5.011702e-10
-2.908166e-06
1.847792e-06
-0.0003232873
0.0003239261
4.139926e-10
-2.487085e-06
1.415823e-06
-0.0003257997
0.0003263672
2.544916e-10
-1.98355e-06
1.109576e-06
-0.0003279148
0.0003281942
1.106241e-10
-1.389067e-06
5.890382e-07
-0.0003264688
0.001344404
1.162211e-11
-5.956379e-06
-5.411289e-07
5.876758e-07
-5.579884e-07
-0.0003264781
-0.0003427865
-0.0003427923
-4.506247e-07
-0.001351952
0.001355755
-1.11626e-11
-2.930484e-06
2.996562e-08
-4.648131e-07
1.27686e-08
-8.288116e-08
-0.001358038
0.001359449
-2.97794e-12
-1.250443e-06
1.729105e-08
-9.634076e-08
1.287507e-09
9.748587e-08
-0.001360448
0.001360459
1.255043e-11
-5.338033e-07
1.818139e-07
7.936222e-08
1.644019e-07
1.276975e-07
-0.001359843
0.001358062
2.392555e-11
1.224601e-06
1.663166e-07
1.119479e-07
1.511931e-07
1.660367e-07
-0.001355366
0.00135142
3.458875e-11
3.219562e-06
2.115464e-07
1.515592e-07
1.97431e-07
1.471851e-07
-0.001346532
0.001340716
4.820937e-11
5.239752e-06
1.531121e-07
1.345704e-07
1.407577e-07
1.625501e-07
-0.001334126
0.001326684
6.484519e-11
6.762589e-06
1.88187e-07
1.51372e-07
1.774221e-07
2.691329e-07
-0.001318639
0.001310074
8.237561e-11
7.461642e-06
2.923019e-07
2.591313e-07
2.826889e-07
3.874187e-07
-0.001301275
0.001292277
9.242948e-11
7.432162e-06
4.039734e-07
3.786395e-07
3.954307e-07
5.001363e-07
-0.001283307
0.001274448
8.715163e-11
6.850416e-06
5.115568e-07
4.926469e-07
5.043064e-07
5.992296e-07
-0.001265831
0.001257579
5.70594e-11
5.845626e-06
6.103305e-07
5.92382e-07
6.036694e-07
6.987073e-07
-0.001249746
0.001242497
1.802734e-11
4.426309e-06
7.186685e-07
6.921902e-07
7.122374e-07
8.924785e-07
-0.001235694
0.001229512
-2.760811e-11
2.582558e-06
9.126556e-07
8.866695e-07
9.071079e-07
1.097411e-06
-0.001223868
0.001218939
-6.465719e-11
5.047387e-07
1.119382e-06
1.092441e-06
1.114617e-06
1.293316e-06
-0.001214532
0.001210811
-8.523922e-11
-1.481805e-06
1.312529e-06
1.288864e-06
1.308264e-06
1.47186e-06
-0.001207602
0.001205077
-9.195303e-11
-3.384743e-06
1.487031e-06
1.467903e-06
1.483227e-06
1.642282e-06
-0.001202996
0.001201574
-8.905154e-11
-5.17593e-06
1.660553e-06
1.638657e-06
1.656998e-06
1.792755e-06
-0.001200551
0.001200107
-7.848982e-11
-6.753216e-06
1.808995e-06
1.78945e-06
1.805814e-06
1.924352e-06
-0.001200004
0.001200402
-6.393745e-11
-8.1182e-06
1.938513e-06
1.921419e-06
1.935713e-06
2.032258e-06
-0.001201087
0.001202188
-4.861405e-11
-9.248238e-06
2.044178e-06
2.029428e-06
2.04133e-06
2.118849e-06
-0.001203519
0.001205198
-3.355254e-11
-1.016748e-05
2.128155e-06
2.116363e-06
2.125752e-06
2.191156e-06
-0.001207064
0.001209213
-2.0999e-11
-1.092587e-05
2.199488e-06
2.188914e-06
2.197303e-06
2.253317e-06
-0.001211509
0.001214038
-1.147946e-11
-1.15528e-05
2.260882e-06
2.251204e-06
2.258886e-06
2.307661e-06
-0.001216682
0.001219518
-3.555068e-12
-1.20765e-05
2.314641e-06
2.305629e-06
2.312598e-06
2.35551e-06
-0.001222445
0.001225529
3.681204e-12
-1.251583e-05
2.362108e-06
2.353576e-06
2.360111e-06
2.398389e-06
-0.001228684
0.001231968
7.147004e-12
-1.288633e-05
2.404455e-06
2.396556e-06
2.402665e-06
2.434692e-06
-0.001235309
0.001238762
6.856733e-12
-1.319748e-05
2.43978e-06
2.432852e-06
2.437958e-06
2.462929e-06
-0.001242265
0.001245863
6.405495e-12
-1.34546e-05
2.467156e-06
2.461107e-06
2.465334e-06
2.483849e-06
-0.001249504
0.001253223
7.683864e-12
-1.365764e-05
2.487144e-06
2.482046e-06
2.485324e-06
2.496569e-06
-0.001256978
0.001260792
8.940396e-12
-1.380166e-05
2.498682e-06
2.494797e-06
2.496888e-06
2.499427e-06
-0.001264634
0.001268517
9.336184e-12
-1.387812e-05
2.500069e-06
2.497702e-06
2.498338e-06
2.490541e-06
-0.001272417
0.001276337
8.871006e-12
-1.387624e-05
2.489377e-06
2.488825e-06
2.487641e-06
2.468066e-06
-0.001280265
0.001284187
6.864646e-12
-1.378488e-05
2.464834e-06
2.46637e-06
2.463087e-06
2.430486e-06
-0.001288105
0.001291991
4.356793e-12
-1.359313e-05
2.424922e-06
2.428826e-06
2.423233e-06
2.3767e-06
-0.001295858
0.001299662
3.4487e-12
-1.329168e-05
2.368676e-06
2.375059e-06
2.366996e-06
2.306569e-06
-0.001303431
0.001307106
3.27741e-12
-1.287733e-05
2.296164e-06
2.304962e-06
2.294484e-06
2.221633e-06
-0.001310731
0.00131423
2.689046e-12
-1.235826e-05
2.209216e-06
2.220098e-06
2.20765e-06
2.123887e-06
-0.001317664
0.001320946
1.814999e-12
-1.174612e-05
2.109692e-06
2.122467e-06
2.108252e-06
2.015065e-06
-0.001324149
0.001327177
4.153865e-13
-1.105492e-05
1.999609e-06
2.013681e-06
1.99831e-06
1.899381e-06
-0.001330119
0.001332869
-1.240641e-12
-1.031325e-05
1.883677e-06
1.898044e-06
1.882262e-06
1.777224e-06
-0.001335527
0.001337982
-2.129742e-12
-9.529891e-06
1.761144e-06
1.776077e-06
1.759741e-06
1.643169e-06
-0.001340348
0.001342512
-1.983062e-12
-8.700463e-06
1.62655e-06
1.642005e-06
1.625494e-06
1.511052e-06
-0.001344567
0.001346378
-1.678424e-12
-7.832012e-06
1.500162e-06
1.51023e-06
1.499403e-06
1.347796e-06
-0.001348037
0.001349495
-1.409583e-12
-6.802441e-06
1.325353e-06
1.347019e-06
1.32449e-06
1.07926e-06
-0.001351026
0.001352528
-8.715144e-13
-5.57264e-06
9.567966e-07
1.07849e-06
9.559956e-07
7.74806e-07
-0.001353926
0.001355034
2.212589e-13
-4.165299e-06
7.543023e-07
7.743071e-07
7.537969e-07
6.408235e-07
-0.001355987
0.0013567
2.173381e-12
-3.253729e-06
6.299642e-07
6.40343e-07
6.295113e-07
5.373489e-07
-0.001357241
0.00135752
7.198968e-12
-2.416215e-06
5.312396e-07
5.36948e-07
5.308657e-07
4.483722e-07
-0.001357619
0.001357461
1.747622e-11
-1.634879e-06
4.486138e-07
4.48045e-07
4.483326e-07
3.715829e-07
-0.001357146
0.001356558
4.173216e-11
-9.229147e-07
3.842002e-07
3.713009e-07
3.839829e-07
3.060176e-07
-0.001355772
0.001354669
9.478157e-11
-1.96018e-07
3.434181e-07
3.056594e-07
3.431393e-07
2.097044e-07
-0.00135347
0.001352144
2.040584e-10
3.810472e-07
2.637564e-07
2.087798e-07
2.630168e-07
-1.20389e-07
-0.001351486
0.001351094
8.869636e-11
3.536423e-07
1.44067e-07
-1.242211e-07
1.386018e-07
3.757307e-07
-0.001350483
0.001346863
-3.298841e-10
2.078166e-06
3.914307e-07
3.785003e-07
3.961023e-07
2.826654e-07
-0.001343598
0.001341199
-1.36117e-10
1.520846e-06
1.517777e-07
2.875934e-07
1.564565e-07
2.280932e-07
-0.001338938
0.00133673
-4.046865e-11
1.366532e-06
1.885854e-07
2.320128e-07
1.922266e-07
2.540618e-07
-0.00133425
0.001331813
-2.461172e-11
1.474687e-06
2.235752e-07
2.579525e-07
2.27299e-07
2.816952e-07
-0.001329316
0.001326929
-3.250842e-11
1.290548e-06
2.630723e-07
2.855088e-07
2.668053e-07
3.417484e-07
-0.001324553
0.001322261
-3.446057e-11
9.303798e-07
3.355325e-07
3.451085e-07
3.386522e-07
4.223792e-07
-0.001319988
0.0013178
-1.969533e-11
4.874156e-07
4.249594e-07
4.251325e-07
4.275699e-07
5.017918e-07
-0.001315653
0.001313609
-3.785791e-12
2.509546e-08
5.051122e-07
5.041526e-07
5.073618e-07
5.744915e-07
-0.001311642
0.001309795
2.730003e-12
-4.659411e-07
5.799632e-07
5.766861e-07
5.821415e-07
6.441305e-07
-0.00130802
0.001306385
-3.858476e-12
-9.588511e-07
6.504897e-07
6.465041e-07
6.528943e-07
7.126214e-07
-0.001304833
0.001303423
-1.606909e-11
-1.459779e-06
7.197418e-07
7.152358e-07
7.223888e-07
7.760648e-07
-0.001302103
0.001300942
-2.434876e-11
-1.963254e-06
7.836119e-07
7.789223e-07
7.864034e-07
8.392811e-07
-0.001299868
0.001298943
-2.545748e-11
-2.454041e-06
8.476184e-07
8.421153e-07
8.503711e-07
8.956281e-07
-0.001298099
0.001297393
-2.236926e-11
-2.899307e-06
9.042884e-07
8.982927e-07
9.069707e-07
9.458691e-07
-0.001296759
0.001296252
-1.80785e-11
-3.293791e-06
9.526254e-07
9.482114e-07
9.549549e-07