/*--------------------------------*- C++ -*----------------------------------*\
| =========                 |                                                 |
| \\      /  F ield         | foam-extend: Open Source CFD                    |
|  \\    /   O peration     | Version:     3.1                                |
|   \\  /    A nd           | Web:         http://www.extend-project.de       |
|    \\/     M anipulation  |                                                 |
\*---------------------------------------------------------------------------*/
FoamFile
{
    version     2.0;
    format      ascii;
    class       volScalarField;
    location    "7.5";
    object      k;
}
// * * * * * * * * * * * * * * * * * * * * * * * * * * * * * * * * * * * * * //

dimensions      [0 2 -2 0 0 0 0];

internalField   nonuniform List<scalar> 
119952
(
0.05050935
0.04390879
0.03970815
0.03626923
0.03335786
0.03116775
0.0298414
0.02894559
0.02827553
0.02770127
0.02710654
0.02640903
0.025523
0.02434875
0.02274514
0.02055748
0.01813899
0.01743203
0.01885291
0.02048921
0.02438065
0.02242538
0.02086566
0.02158904
0.0194408
0.01845323
0.01784948
0.01730453
0.01642997
0.01743174
0.08139021
0.07647104
0.07340344
0.07184798
0.07142572
0.0718088
0.07273206
0.07399688
0.07546204
0.07714861
0.07559635
0.07807443
0.08233781
0.08731237
0.09228831
0.09694753
0.1012185
0.1051381
0.1086343
0.1225763
0.1246542
0.126287
0.1274191
0.1282289
0.1288032
0.1291568
0.1292581
0.1290497
0.1285912
0.1280453
0.1268869
0.1252667
0.1233132
0.121171
0.1190806
0.1172157
0.1155178
0.113931
0.1142415
0.1122547
0.1103187
0.109279
0.1084975
0.107278
0.105711
0.1039451
0.102052
0.1000736
0.09806343
0.09608559
0.0941944
0.09240936
0.09068541
0.08889482
0.08688524
0.0852875
0.0849072
0.08579581
0.08773186
0.09005062
0.09213793
0.09400736
0.09556268
0.09630151
0.09628874
0.09564242
0.09404025
0.09078438
0.08807176
0.08526982
0.08241252
0.07948577
0.07650298
0.07351171
0.07055947
0.0677018
0.06500806
0.06253278
0.06030974
0.05834944
0.05664237
0.05516646
0.05389363
0.05279414
0.05183936
0.05100572
0.05027391
0.04962032
0.04902108
0.04845811
0.0479163
0.04738285
0.04684753
0.04630261
0.04574272
0.04516468
0.04456705
0.04394996
0.04331487
0.04266437
0.04200242
0.04133442
0.04066544
0.04000071
0.0393454
0.03870418
0.03808113
0.03747979
0.03690336
0.03635458
0.03583548
0.03534723
0.03488874
0.0344588
0.03405631
0.03367854
0.03332969
0.03302245
0.0327661
0.03250195
0.03222332
0.03193364
0.03163897
0.03134316
0.03104839
0.03075603
0.03046654
0.03017975
0.02989516
0.02961227
0.02933067
0.0290503
0.02877082
0.02849152
0.02821208
0.02793225
0.02765204
0.02737172
0.0270917
0.02681243
0.02653447
0.02625794
0.02598309
0.02571216
0.02544482
0.0251807
0.02492101
0.02466668
0.02441834
0.02417651
0.02394165
0.02371429
0.0234944
0.02328184
0.02307715
0.02288041
0.02269184
0.02251143
0.02233912
0.02217458
0.02201755
0.02186776
0.0217254
0.0215902
0.02146216
0.0213345
0.02122284
0.02103976
0.02057868
0.02012907
0.0197319
0.01938626
0.01908293
0.01881304
0.01857022
0.01835047
0.01815078
0.01796891
0.01780326
0.01765249
0.01751547
0.01739118
0.01727897
0.01717774
0.01708632
0.017004
0.01693032
0.01686485
0.01680719
0.01675703
0.0167142
0.01667843
0.0166497
0.01662781
0.01661283
0.0166048
0.01660388
0.01661027
0.01662418
0.01664495
0.01667269
0.01670722
0.01670517
0.01688463
0.01710035
0.01730254
0.01748579
0.01764971
0.01779537
0.01792388
0.01803627
0.01813375
0.01821754
0.0182889
0.01834912
0.0183994
0.01844087
0.01847442
0.01849888
0.01851507
0.01852464
0.01852891
0.01852895
0.01852561
0.01851955
0.01851134
0.0185014
0.01849015
0.01847785
0.01846467
0.01845087
0.01843658
0.01842192
0.01840695
0.01839201
0.01837815
0.01836258
0.01885106
0.01895447
0.01898008
0.01892771
0.0188497
0.01876372
0.01868551
0.01862165
0.0185745
0.01854387
0.01852784
0.01852513
0.01853287
0.01854846
0.01856962
0.01859416
0.0186202
0.01864611
0.0186706
0.01869264
0.01871144
0.01872647
0.01873737
0.01874397
0.01874623
0.01874422
0.01873809
0.01872806
0.0187144
0.01869738
0.01867732
0.01865452
0.01862926
0.01860186
0.01857259
0.01854172
0.01850953
0.01847625
0.01844212
0.01840737
0.01837224
0.01833697
0.01830197
0.01826805
0.01823737
0.01821062
0.01817882
0.01814298
0.0181081
0.01807388
0.01804011
0.0180078
0.01797801
0.01796625
0.0180085
0.01793416
0.01786027
0.01778486
0.01770668
0.01762643
0.01754503
0.01746414
0.01738554
0.01731063
0.01724034
0.01717529
0.01711579
0.01706174
0.01701281
0.01696853
0.01692838
0.01689178
0.01685817
0.01682699
0.0167977
0.01676983
0.01674296
0.01671672
0.01669079
0.01666492
0.01663889
0.01661254
0.01658573
0.01655836
0.01653039
0.01650177
0.01647249
0.01644255
0.01641199
0.01638084
0.01634916
0.016317
0.01628443
0.01625152
0.01621836
0.01618503
0.0161516
0.01611817
0.01608481
0.01605162
0.01601866
0.01598603
0.0159538
0.01592204
0.01589082
0.01586022
0.01583029
0.0158011
0.01577269
0.01574513
0.01571844
0.01569267
0.01566786
0.01564403
0.0156212
0.01559938
0.01557858
0.0155588
0.01554001
0.01552222
0.01550538
0.01548949
0.0154745
0.01546042
0.01544717
0.01543476
0.01542306
0.01541204
0.0154015
0.01539138
0.01538121
0.01537069
0.0153588
0.01534395
0.01532104
0.01527909
0.01518763
0.0150352
0.01519559
0.06896077
0.07784669
0.09007702
0.09873057
0.105018
0.1099702
0.1140869
0.1175958
0.1208188
0.1276088
0.1442054
0.1589346
0.1706625
0.1796356
0.186344
0.1913426
0.195077
0.1978798
0.2243664
0.2244079
0.2242198
0.2237636
0.2232637
0.2227896
0.2222838
0.2216693
0.2208845
0.2197828
0.2185659
0.216883
0.2146451
0.2121096
0.2094197
0.2066667
0.2039077
0.2011906
0.198523
0.1961288
0.1937322
0.1911365
0.1886235
0.1862957
0.1841868
0.182354
0.1808316
0.1796265
0.1787517
0.1782221
0.177944
0.1779346
0.1781493
0.1785366
0.1790596
0.1796893
0.180387
0.1810994
0.1921253
0.1925365
0.1928016
0.1929128
0.192834
0.1925302
0.1919766
0.1911599
0.1900534
0.1886285
0.186933
0.1850238
0.1830097
0.1809364
0.1786509
0.1761312
0.1734283
0.1706009
0.1677726
0.1646083
0.1609358
0.1574603
0.1543216
0.1513018
0.1483045
0.1453745
0.1425392
0.1397657
0.137015
0.1342685
0.1315287
0.1287968
0.126055
0.1232737
0.120402
0.1174647
0.114651
0.112127
0.109966
0.1082436
0.1070035
0.1063181
0.1063149
0.1069308
0.1079561
0.1093038
0.1108199
0.1121788
0.1131329
0.1136994
0.1137202
0.1130483
0.1116461
0.1095724
0.1069495
0.1039241
0.1006293
0.09717713
0.09371761
0.09037708
0.08724148
0.08436049
0.08175563
0.0794287
0.07736809
0.07555389
0.07395802
0.07255311
0.0713225
0.0702392
0.06927658
0.06840956
0.06761558
0.06687466
0.06616926
0.06548429
0.06480696
0.06412684
0.06343592
0.06272859
0.06200132
0.06125252
0.06048224
0.05969215
0.05888536
0.05806619
0.05723989
0.05641208
0.05558863
0.05477546
0.05397827
0.05320215
0.05245138
0.0517295
0.05103907
0.05038173
0.04975918
0.04917448
0.04862769
0.0481145
0.04763061
0.047174
0.04674158
0.04633012
0.04593681
0.0455589
0.04519371
0.04483875
0.0444917
0.04415034
0.04381255
0.0434762
0.04313925
0.04280041
0.04245943
0.04211586
0.04176949
0.04142041
0.04106902
0.04071609
0.04036283
0.04001047
0.03965843
0.03930651
0.03895485
0.03860365
0.03825323
0.03790417
0.0375572
0.03721315
0.03687283
0.0365371
0.0362068
0.03588272
0.03556549
0.0352557
0.0349537
0.03466009
0.0343751
0.0340991
0.03383199
0.03357387
0.03332422
0.03308334
0.03285016
0.03262507
0.0324057
0.03221187
0.03158211
0.03081244
0.03025516
0.02983927
0.02951547
0.02924998
0.02902227
0.02881969
0.02863411
0.02846029
0.0282948
0.02813546
0.02798088
0.02783017
0.02768274
0.0275382
0.02739631
0.02725686
0.02711964
0.02698453
0.02685147
0.0267204
0.0265913
0.02646415
0.02633893
0.02621563
0.02609425
0.02597474
0.02585705
0.0257411
0.02562688
0.02551424
0.02540234
0.02529033
0.02517931
0.02506885
0.02497907
0.02491269
0.02485697
0.0248075
0.02476252
0.02472088
0.02468176
0.02464462
0.02460906
0.02457475
0.0245414
0.02450875
0.02447654
0.02444455
0.02441255
0.02438036
0.02434777
0.02431461
0.02428072
0.02424597
0.02421024
0.02417342
0.02413546
0.02409629
0.02405589
0.02401425
0.02397138
0.02392727
0.02388201
0.02383559
0.02378819
0.02373983
0.02369098
0.02364328
0.0246713
0.02461661
0.02458487
0.02455611
0.02452249
0.02448253
0.02443681
0.02438581
0.02432995
0.02426978
0.02420585
0.02413869
0.02406872
0.02399628
0.02392171
0.02384527
0.0237672
0.02368769
0.02360688
0.02352489
0.02344183
0.02335778
0.02327279
0.02318693
0.02310024
0.02301279
0.02292463
0.02283582
0.02274644
0.02265657
0.02256631
0.02247575
0.02238501
0.02229419
0.02220342
0.02211284
0.02202256
0.02193274
0.02184351
0.02175505
0.02166755
0.02158129
0.02149662
0.02141399
0.02133324
0.02125352
0.02117318
0.0210924
0.02101221
0.02093351
0.0208561
0.02078036
0.02070675
0.02064433
0.02058637
0.02051551
0.02043754
0.02036016
0.0202853
0.0202129
0.02014258
0.02007387
0.02000636
0.01993967
0.0198735
0.01980764
0.01974192
0.01967623
0.01961048
0.0195446
0.01947853
0.01941225
0.01934572
0.01927893
0.01921186
0.0191445
0.01907685
0.01900891
0.01894069
0.01887218
0.0188034
0.01873437
0.01866509
0.01859559
0.01852589
0.01845602
0.01838602
0.01831591
0.01824575
0.01817557
0.01810544
0.01803539
0.01796549
0.0178958
0.01782639
0.01775732
0.01768866
0.01762048
0.01755285
0.01748585
0.01741954
0.017354
0.0172893
0.0172255
0.01716267
0.01710087
0.01704016
0.0169806
0.01692224
0.01686512
0.01680929
0.01675478
0.01670163
0.01664985
0.01659947
0.0165505
0.01650296
0.0164568
0.01641207
0.01636868
0.01632668
0.01628593
0.01624656
0.01620836
0.01617153
0.01613572
0.01610123
0.01606746
0.01603492
0.01600255
0.01597111
0.01593866
0.01590601
0.01586914
0.01582819
0.0157783
0.01573289
0.01571844
0.01574126
0.05156405
0.05458427
0.05812968
0.06204302
0.06633635
0.07103577
0.07616539
0.08175077
0.08777574
0.09374753
0.1300717
0.1432616
0.1566838
0.1705421
0.1851099
0.200636
0.2175196
0.2371094
0.2650708
0.3074973
0.3185583
0.3292965
0.339397
0.3487051
0.3574059
0.3656909
0.3734013
0.3814404
0.3906427
0.3988145
0.4039197
0.4073296
0.4098045
0.4114466
0.4122923
0.4123851
0.4118119
0.4108479
0.4068882
0.4043364
0.4022108
0.400041
0.3976077
0.3947801
0.3915869
0.3880909
0.3843743
0.3805533
0.3764644
0.3722557
0.3679074
0.3634791
0.359013
0.3545366
0.3500502
0.3454867
0.3546304
0.3502574
0.3458058
0.3413704
0.3369902
0.3326732
0.3284217
0.3242221
0.3200632
0.3158998
0.3116621
0.3073505
0.30297
0.2984953
0.2939278
0.2892805
0.2845613
0.2797931
0.2750016
0.2701824
0.2653718
0.2606424
0.2560262
0.2515565
0.2472797
0.2432413
0.2394914
0.236072
0.2330119
0.2303427
0.2280805
0.2262183
0.2247418
0.223626
0.222843
0.2223494
0.2221143
0.2220772
0.222011
0.2219951
0.2219819
0.221904
0.2217065
0.2213512
0.2208115
0.2200628
0.2190792
0.2178445
0.2163776
0.214729
0.2129294
0.2108508
0.2084949
0.2058533
0.2029495
0.1997641
0.196351
0.1925781
0.1884699
0.1843101
0.1802507
0.1762989
0.1724473
0.1687157
0.1651145
0.1616271
0.1582251
0.1548847
0.1515956
0.1483488
0.1451364
0.1419483
0.138757
0.1355814
0.1324995
0.1295639
0.1267877
0.1241773
0.1217359
0.1195008
0.1175486
0.1159417
0.1147317
0.1139567
0.1136275
0.1136878
0.1140707
0.1146882
0.1153841
0.1159157
0.1160589
0.1157016
0.1147817
0.1132941
0.1112812
0.1088207
0.1060125
0.1030065
0.09994052
0.0969243
0.09403779
0.09133432
0.08884497
0.0865835
0.08455024
0.0827347
0.08111424
0.0796772
0.07841049
0.07729064
0.07629365
0.07539651
0.07457793
0.07381851
0.07310065
0.07240858
0.0717285
0.07104888
0.07036042
0.06965592
0.06893003
0.06817926
0.06740216
0.06659929
0.06577303
0.06492703
0.06406607
0.06319587
0.06232289
0.06145382
0.06059516
0.05975299
0.05893275
0.0581393
0.05737681
0.05664904
0.05595832
0.05530452
0.05468579
0.05410032
0.05354649
0.05302244
0.05252596
0.05205439
0.05160496
0.05117489
0.05076145
0.05036205
0.04997425
0.04959581
0.04922468
0.04885884
0.04849661
0.04813676
0.04777828
0.0474203
0.04706207
0.04670292
0.04634215
0.04597903
0.04561504
0.04525214
0.04489108
0.04453142
0.04417308
0.04381621
0.04346107
0.04310803
0.04275763
0.04241042
0.04206704
0.04172814
0.04139439
0.04106635
0.04074469
0.04042995
0.04012257
0.03982295
0.03953131
0.03924784
0.03897265
0.03870565
0.0384472
0.03819642
0.03795581
0.03771899
0.03751114
0.03729866
0.03708704
0.03687733
0.03667288
0.03647528
0.03628428
0.03609944
0.03592038
0.03574663
0.03557776
0.03541335
0.03525296
0.03509622
0.03494278
0.0347923
0.03464444
0.03449899
0.0343556
0.0342138
0.03407327
0.0339338
0.03379525
0.03365755
0.0335206
0.03338436
0.03324877
0.03311378
0.03297929
0.03284498
0.03270983
0.03257316
0.0324343
0.03229272
0.03214957
0.03201038
0.03188197
0.03176393
0.03165261
0.03154641
0.03144425
0.03134519
0.03124856
0.03115385
0.03106068
0.0309688
0.03087797
0.030788
0.03069872
0.03060997
0.03052159
0.03043344
0.03034537
0.03025724
0.03016893
0.03008032
0.02999129
0.02990175
0.0298116
0.02972079
0.02962922
0.02953693
0.02944379
0.02934994
0.02925521
0.02915994
0.02906379
0.02896757
0.02886901
0.02876789
0.02868376
0.02859702
0.02850085
0.02839617
0.02828833
0.02818092
0.02807475
0.02796937
0.02786417
0.02775881
0.02765311
0.02754695
0.02744019
0.02733274
0.02722448
0.02711534
0.02700528
0.02689427
0.02678227
0.02666928
0.02655531
0.02644037
0.02632447
0.02620764
0.02608993
0.02597138
0.02585205
0.02573201
0.02561135
0.02549017
0.02536856
0.02524665
0.02512458
0.02500246
0.02488044
0.02475869
0.02463735
0.0245166
0.02439661
0.02427758
0.02415974
0.02404328
0.0239285
0.02381545
0.02370417
0.0235942
0.02348519
0.02337675
0.02326948
0.02316345
0.02305934
0.02295651
0.02285551
0.02275458
0.02265479
0.02255683
0.02246233
0.02237114
0.02228199
0.02219385
0.02210642
0.02201976
0.02193399
0.02184914
0.02176516
0.02168196
0.02159943
0.02151749
0.02143603
0.02135495
0.02127416
0.02119356
0.02111307
0.02103261
0.02095209
0.02087147
0.02079069
0.0207097
0.02062847
0.02054697
0.02046518
0.0203831
0.02030072
0.02021805
0.02013512
0.02005192
0.01996851
0.01988491
0.01980116
0.01971732
0.01963344
0.01954958
0.01946581
0.01938218
0.01929879
0.0192157
0.01913299
0.01905076
0.01896908
0.01888804
0.01880772
0.01872821
0.0186496
0.01857197
0.01849539
0.01841995
0.01834572
0.01827278
0.01820119
0.01813101
0.01806229
0.0179951
0.01792947
0.01786544
0.01780304
0.0177423
0.01768323
0.01762585
0.01757011
0.01751606
0.0174636
0.01741278
0.01736348
0.01731582
0.01726961
0.01722501
0.01718169
0.01713987
0.017099
0.0170594
0.01702018
0.01698169
0.01694248
0.01690309
0.01686199
0.01682145
0.01678294
0.01675355
0.01673806
0.04002856
0.04397785
0.04741895
0.06957598
0.09241441
0.120108
0.138959
0.1577137
0.1753787
0.1915107
0.205221
0.2169261
0.2283603
0.2399828
0.2515779
0.2632034
0.2749385
0.2868297
0.2988808
0.3110585
0.3232772
0.3355395
0.3477452
0.35974
0.3715608
0.3832499
0.3947242
0.4060834
0.4173673
0.4287597
0.44189
0.4736978
0.4815814
0.4888541
0.4953266
0.5009111
0.5056333
0.509553
0.5124228
0.5149212
0.5165284
0.5169357
0.5163582
0.5149683
0.512852
0.5101081
0.5068366
0.503127
0.4990572
0.4947066
0.4901274
0.4854428
0.4806416
0.4757698
0.4708516
0.4658986
0.4609072
0.4558666
0.450767
0.4455939
0.4402808
0.4346028
0.4286368
0.4224538
0.4161509
0.4098037
0.4035413
0.3973672
0.3907965
0.3845821
0.3787338
0.3732158
0.3680087
0.3631015
0.358476
0.3540982
0.3499095
0.345831
0.3417741
0.3376741
0.3334797
0.3291542
0.3246827
0.3200638
0.3152937
0.3103773
0.305323
0.3001432
0.2948648
0.2895241
0.2841706
0.2788664
0.2736794
0.268681
0.2639435
0.2595351
0.2555167
0.2519393
0.2488396
0.2462355
0.2441284
0.242503
0.2413358
0.2405921
0.2402281
0.2401761
0.2403419
0.2406553
0.2410426
0.2414064
0.2416629
0.2417544
0.2416406
0.2412856
0.2406583
0.2397419
0.2385535
0.2371797
0.235541
0.23364
0.2314654
0.2289914
0.2261905
0.2230203
0.2194786
0.2155584
0.2112837
0.2067914
0.2022521
0.1977653
0.1933665
0.1890709
0.1848892
0.1808206
0.1768518
0.1729677
0.1691624
0.1654372
0.1617977
0.1582504
0.1547919
0.1514294
0.1481912
0.1450937
0.142119
0.1392354
0.1364144
0.1336456
0.1309497
0.1283665
0.1259474
0.1237552
0.1218565
0.1203016
0.1191211
0.1183203
0.1178681
0.1176719
0.11759
0.1174643
0.1171455
0.1165122
0.115483
0.1140255
0.1121602
0.1099507
0.1074875
0.10487
0.1021927
0.09953778
0.09697059
0.09453925
0.0922754
0.0901967
0.0883079
0.08660194
0.08506544
0.08369424
0.08247427
0.08138495
0.08040526
0.07951515
0.0786957
0.07792928
0.07719967
0.07649241
0.07579513
0.07509756
0.07439098
0.07366816
0.07292371
0.07215437
0.0713588
0.07053732
0.06969181
0.06882568
0.06794362
0.06705121
0.06615468
0.06526066
0.06437585
0.06350675
0.06265927
0.06183869
0.06104925
0.06029343
0.05957213
0.05888546
0.05823311
0.05761418
0.05702714
0.05646992
0.05594005
0.05543495
0.05495185
0.05448802
0.0540408
0.05360763
0.05318614
0.05277419
0.05236994
0.05197191
0.05157879
0.05118953
0.05080328
0.05041937
0.05003741
0.04965731
0.04927916
0.04890273
0.04852856
0.04815857
0.04779321
0.04743259
0.04707679
0.0467259
0.04638006
0.04603943
0.04570422
0.04537466
0.04505104
0.0447336
0.04442265
0.04411839
0.04382114
0.04353102
0.04324836
0.04297312
0.04270558
0.04244542
0.04219326
0.0419487
0.04171323
0.04148639
0.04127283
0.04106796
0.04086624
0.04066782
0.04047402
0.04028558
0.04010215
0.03992329
0.03974881
0.03957856
0.03941231
0.03924984
0.03909091
0.03893531
0.03878278
0.03863277
0.0384847
0.03833809
0.03819271
0.03804848
0.03790521
0.03776271
0.03762081
0.03747931
0.03733807
0.03719691
0.03705565
0.03691409
0.03677199
0.03662904
0.03648485
0.03633896
0.03619086
0.03604059
0.03588937
0.03573997
0.03559592
0.03545877
0.03532762
0.03520117
0.0350784
0.0349586
0.03484124
0.03472593
0.03461232
0.03450015
0.0343892
0.03427925
0.03417014
0.03406168
0.03395369
0.03384601
0.03373846
0.03363087
0.03352309
0.03341495
0.03330632
0.03319704
0.033087
0.03297609
0.03286425
0.03275137
0.03263749
0.03252246
0.03240653
0.03228937
0.03217162
0.0320524
0.03193335
0.03181193
0.03169038
0.03156643
0.03144147
0.0313169
0.0311929
0.03106896
0.0309446
0.03081953
0.03069362
0.03056691
0.03043948
0.03031141
0.03018275
0.0300535
0.02992366
0.0297932
0.02966209
0.0295303
0.0293978
0.02926454
0.02913051
0.02899568
0.02886002
0.02872353
0.0285862
0.02844805
0.0283091
0.02816938
0.02802897
0.02788793
0.02774634
0.02760431
0.02746196
0.02731941
0.02717682
0.02703434
0.02689213
0.02675038
0.02660928
0.02646904
0.02632987
0.02619196
0.02605549
0.02592056
0.02578724
0.02565543
0.02552499
0.02539571
0.02526776
0.0251413
0.02501664
0.02489374
0.02477276
0.02465398
0.02453806
0.02442433
0.02431187
0.02420053
0.02409063
0.02398245
0.02387611
0.02377164
0.02366898
0.02356803
0.02346865
0.02337069
0.02327397
0.02317836
0.0230837
0.02298986
0.02289671
0.02280412
0.02271198
0.02262017
0.0225286
0.02243717
0.02234581
0.02225444
0.02216301
0.02207146
0.02197976
0.02188788
0.02179579
0.02170349
0.02161098
0.02151825
0.02142534
0.02133225
0.02123903
0.02114571
0.02105234
0.02095897
0.02086567
0.0207725
0.02067953
0.02058685
0.02049453
0.02040267
0.02031135
0.02022066
0.02013071
0.02004157
0.01995336
0.01986615
0.01978005
0.01969515
0.01961154
0.0195293
0.01944852
0.01936927
0.01929163
0.01921566
0.01914142
0.01906898
0.01899836
0.01892962
0.01886277
0.01879786
0.01873486
0.01867378
0.01861459
0.01855727
0.01850178
0.01844816
0.01839632
0.01834632
0.01829798
0.01825134
0.01820608
0.01816228
0.01811948
0.0180778
0.01803669
0.01799647
0.01795689
0.0179188
0.01788313
0.01785171
0.01782867
0.02061822
0.022703
0.02463332
0.0318958
0.04183885
0.05833432
0.07008365
0.08259671
0.09607552
0.1097586
0.1239113
0.1394721
0.1560412
0.1729702
0.1906829
0.2107557
0.2413714
0.2551895
0.2691745
0.2831763
0.297271
0.3108749
0.3236805
0.3358549
0.3476235
0.3591345
0.3704666
0.3817354
0.393066
0.4043702
0.4154553
0.4263737
0.4372044
0.4479176
0.4584714
0.4688464
0.4789954
0.4888518
0.4982639
0.5071057
0.5151928
0.5217335
0.5261601
0.5310444
0.5351747
0.5382315
0.5399669
0.5403929
0.5396093
0.5379497
0.5355824
0.5324292
0.5283305
0.523485
0.5181365
0.5124689
0.5066242
0.5007162
0.4948301
0.4890473
0.4833972
0.4779245
0.4726571
0.4675821
0.4626794
0.4579186
0.4532601
0.4486668
0.4440916
0.4395107
0.4348909
0.4302205
0.4253362
0.4200802
0.4145989
0.4090003
0.4033738
0.3978038
0.3923361
0.3869704
0.3818327
0.3770153
0.3725323
0.3683802
0.3645562
0.361052
0.3578402
0.3548559
0.3519995
0.349153
0.3462088
0.3430901
0.3397526
0.3361753
0.3323506
0.3282773
0.3239513
0.3193708
0.3145399
0.3094726
0.3042026
0.2987868
0.2933002
0.2878304
0.2824762
0.2773426
0.2725319
0.2681373
0.2642382
0.2608955
0.2581482
0.2560109
0.2544799
0.253541
0.2531678
0.2533142
0.2539129
0.2548602
0.2560304
0.2572861
0.2584867
0.25951
0.260263
0.2606754
0.2606889
0.2602631
0.2593944
0.2581635
0.256656
0.2548466
0.2527821
0.2504968
0.2479744
0.245155
0.2419634
0.2383492
0.2343021
0.2298505
0.2251013
0.2202276
0.2153589
0.2105602
0.2058514
0.2012465
0.1967484
0.1923496
0.1880415
0.1838241
0.1797091
0.1757152
0.1718639
0.1681684
0.1646385
0.1612864
0.1581093
0.1550774
0.1521454
0.1492656
0.1463987
0.1435242
0.1406435
0.1377794
0.1349731
0.1322819
0.1297688
0.127495
0.1255142
0.1238587
0.1225207
0.1214517
0.1205714
0.1197804
0.1189741
0.1180533
0.1169346
0.1155623
0.1139157
0.1120088
0.1098832
0.107598
0.1052202
0.1028164
0.1004463
0.09815922
0.09599221
0.09396971
0.09210471
0.09039948
0.08884517
0.08743712
0.08617006
0.08502721
0.08399007
0.08304042
0.08216063
0.08133385
0.0805448
0.07978003
0.07902815
0.07827964
0.07752616
0.0767607
0.07597816
0.07517547
0.07435102
0.07350461
0.07263741
0.07175186
0.07085151
0.06994091
0.06902551
0.06811135
0.06720472
0.06631191
0.06543879
0.0645904
0.06377067
0.06298227
0.06222684
0.06150516
0.06081724
0.06016228
0.05953879
0.05894474
0.05837768
0.05783505
0.057314
0.05681173
0.05632546
0.05585251
0.0553905
0.05493725
0.05449094
0.05405012
0.05361361
0.05318056
0.0527504
0.0523229
0.0518981
0.05147629
0.0510581
0.05064437
0.05023586
0.04983455
0.04944151
0.04905739
0.04868264
0.04831767
0.04796273
0.04761802
0.04728361
0.04695955
0.04664575
0.04634214
0.04604854
0.04576483
0.04549075
0.04522617
0.04497075
0.04472432
0.0444865
0.04425735
0.04403647
0.04382409
0.04361967
0.04342315
0.04323432
0.04305301
0.04287862
0.04271009
0.04254684
0.04238844
0.04223436
0.0420842
0.04193756
0.04179409
0.04165339
0.04151512
0.04137894
0.04124446
0.04111137
0.04097945
0.04084845
0.04071809
0.04058817
0.04045848
0.04032877
0.04019884
0.04006846
0.03993744
0.03980555
0.03967259
0.03953833
0.03940253
0.03926494
0.03912529
0.0389833
0.03883889
0.03869234
0.03854452
0.03839709
0.0382522
0.03811145
0.03797501
0.03784219
0.03771227
0.03758478
0.03745938
0.03733581
0.03721383
0.03709324
0.03697384
0.03685548
0.03673799
0.0366212
0.03650494
0.03638903
0.03627328
0.03615749
0.03604148
0.03592505
0.03580802
0.0356902
0.03557142
0.03545152
0.0353304
0.03520792
0.03508406
0.03495871
0.03483195
0.03470366
0.03457407
0.03444298
0.03431073
0.03417667
0.03404097
0.03390402
0.03376612
0.0336272
0.03348722
0.03334638
0.03320498
0.0330632
0.0329211
0.03277871
0.03263602
0.03249306
0.03234983
0.0322063
0.03206245
0.03191824
0.03177363
0.03162858
0.03148302
0.03133691
0.0311902
0.03104282
0.03089475
0.03074593
0.03059633
0.03044593
0.03029473
0.03014272
0.02998993
0.0298364
0.02968219
0.02952739
0.02937208
0.02921638
0.02906043
0.02890436
0.02874835
0.02859256
0.0284372
0.02828247
0.02812856
0.02797567
0.02782395
0.02767355
0.02752458
0.02737707
0.02723098
0.02708627
0.02694303
0.02680142
0.02666169
0.02652399
0.02638851
0.02625543
0.02612472
0.02599595
0.02586893
0.02574385
0.02562091
0.02550018
0.0253816
0.02526506
0.02515047
0.02503777
0.02492685
0.0248176
0.02470989
0.02460361
0.02449861
0.02439474
0.02429189
0.0241899
0.02408866
0.02398803
0.02388789
0.02378815
0.02368871
0.02358947
0.02349035
0.0233913
0.02329226
0.02319317
0.02309401
0.02299474
0.02289535
0.02279583
0.02269618
0.02259641
0.02249655
0.02239661
0.02229665
0.02219669
0.02209681
0.02199704
0.02189748
0.02179818
0.02169923
0.02160072
0.02150274
0.02140539
0.02130875
0.02121294
0.02111805
0.02102418
0.02093144
0.02083994
0.02074976
0.02066102
0.02057381
0.02048822
0.02040434
0.02032224
0.02024201
0.02016372
0.02008742
0.02001318
0.01994103
0.01987102
0.01980315
0.01973744
0.01967386
0.0196124
0.01955301
0.01949572
0.01944051
0.01938737
0.01933622
0.01928699
0.01923952
0.01919378
0.01914955
0.01910691
0.01906566
0.01902606
0.0189881
0.01895221
0.018919
0.01888895
0.0188658
0.008610009
0.01018531
0.01131714
0.01677992
0.02298288
0.03100205
0.03757108
0.04500551
0.0530327
0.06159438
0.07105203
0.0821818
0.09443385
0.1081613
0.1246455
0.149992
0.1627367
0.1760642
0.1895029
0.202996
0.2164605
0.2297938
0.2428988
0.2556974
0.2680869
0.2800352
0.2918653
0.3048769
0.3181122
0.3315721
0.345182
0.3585538
0.3713691
0.383605
0.3953479
0.4067032
0.4177648
0.4285693
0.4388978
0.4488284
0.4585067
0.4679522
0.4771797
0.48617
0.4948698
0.5032196
0.5111349
0.5185126
0.5252577
0.5312159
0.5361532
0.5396912
0.5417878
0.5435985
0.5435433
0.5417926
0.5385858
0.534114
0.5284999
0.5219041
0.5145992
0.506755
0.4984975
0.4900189
0.4815369
0.4732331
0.465258
0.4577104
0.4506627
0.4441568
0.438198
0.4327789
0.4278633
0.4234028
0.4193324
0.4155793
0.4120841
0.4087895
0.4056771
0.4026807
0.3996874
0.3964017
0.3929398
0.3893176
0.3855949
0.3818275
0.3780633
0.3743515
0.3707434
0.3672806
0.3640257
0.3610416
0.358355
0.3559641
0.353858
0.352026
0.3504426
0.3490346
0.3476738
0.346211
0.3445212
0.3425282
0.3402004
0.3375358
0.3345456
0.3312429
0.3276343
0.3237219
0.3194953
0.3149571
0.3101324
0.3050725
0.2998602
0.2946049
0.2894293
0.2844666
0.2798491
0.2757017
0.2721346
0.2692354
0.2670643
0.2656518
0.2650128
0.2651473
0.2660286
0.2675938
0.2697334
0.2722831
0.275032
0.2777529
0.2802359
0.2823053
0.2838241
0.2846879
0.2848178
0.2841751
0.2827948
0.2808937
0.2785479
0.2758455
0.2729013
0.2698124
0.2666035
0.2632118
0.2595226
0.2554338
0.2509061
0.2459815
0.2407797
0.2354539
0.2301371
0.2249132
0.2198046
0.214822
0.2099608
0.2052073
0.2005502
0.1959876
0.1915391
0.1872349
0.1831089
0.1791881
0.1754908
0.1720252
0.1687817
0.1657275
0.1628132
0.1599813
0.1571762
0.1543532
0.1514849
0.1485646
0.145605
0.1426386
0.1397123
0.1368824
0.1342075
0.1317386
0.1295082
0.1275242
0.1257692
0.1242047
0.1227768
0.1214206
0.120065
0.1186426
0.1170994
0.1154027
0.1135437
0.1115358
0.1094103
0.10721
0.1049831
0.1027767
0.1006327
0.0985846
0.09665638
0.0948623
0.09320706
0.09168595
0.09029056
0.08901958
0.08785893
0.08679191
0.08580176
0.08487196
0.08398714
0.08313287
0.08229671
0.08146958
0.08064375
0.07981183
0.07896823
0.0781098
0.07723496
0.0763433
0.07543554
0.07451343
0.0735796
0.07263749
0.07169135
0.07074599
0.06980669
0.06887907
0.06796864
0.06708041
0.0662186
0.06538644
0.06458617
0.06381915
0.06308585
0.06238588
0.06171809
0.06108067
0.0604713
0.05988727
0.0593258
0.05878379
0.05825819
0.05774596
0.05724422
0.05675037
0.05626219
0.05577783
0.05529585
0.05481511
0.05433486
0.05385478
0.05337499
0.05289604
0.0524189
0.05194484
0.05147536
0.05101213
0.0505576
0.05011354
0.04968137
0.0492623
0.04885734
0.04846728
0.04809269
0.04773392
0.04739113
0.04706431
0.04675326
0.04645767
0.04617711
0.04591109
0.04565898
0.04542018
0.04519401
0.0449799
0.04477713
0.04458514
0.04440326
0.04423093
0.04406789
0.04391363
0.04376713
0.04362733
0.04349358
0.04336544
0.04324234
0.04312373
0.04300904
0.04289772
0.04278922
0.04268298
0.04257846
0.04247514
0.04237274
0.042271
0.04216956
0.04206809
0.04196629
0.04186387
0.04176055
0.04165606
0.04155013
0.04144252
0.04133299
0.04122131
0.04110724
0.04099055
0.04087105
0.04074855
0.04062295
0.04049435
0.04036307
0.04022982
0.04009572
0.03996221
0.03983049
0.03970103
0.03957369
0.03944814
0.03932415
0.03920157
0.03908027
0.03896015
0.03884107
0.03872294
0.03860566
0.03848911
0.03837318
0.03825771
0.03814254
0.0380275
0.03791239
0.037797
0.03768111
0.03756452
0.03744698
0.03732831
0.03720829
0.03708675
0.03696355
0.03683858
0.03671172
0.03658298
0.03645228
0.03631968
0.03618516
0.03604874
0.03591041
0.03577039
0.03562879
0.03548541
0.03534019
0.03519339
0.03504542
0.03489664
0.03474725
0.03459736
0.03444705
0.03429639
0.03414543
0.03399422
0.03384281
0.03369118
0.03353933
0.03338724
0.03323487
0.03308217
0.03292908
0.03277553
0.03262146
0.0324668
0.03231149
0.03215545
0.03199864
0.03184101
0.03168254
0.03152322
0.03136306
0.03120208
0.03104033
0.03087788
0.03071483
0.03055128
0.03038736
0.03022323
0.03005904
0.02989499
0.02973125
0.02956804
0.02940553
0.02924389
0.0290833
0.02892388
0.02876574
0.02860894
0.02845353
0.02829962
0.0281474
0.02799706
0.02784879
0.02770274
0.02755897
0.02741744
0.02727812
0.02714106
0.02700633
0.02687398
0.026744
0.02661635
0.02649096
0.02636777
0.02624671
0.02612768
0.02601059
0.02589532
0.02578172
0.02566967
0.02555902
0.02544962
0.02534134
0.02523404
0.02512757
0.02502182
0.02491666
0.02481198
0.02470768
0.02460368
0.02449988
0.02439623
0.02429265
0.02418911
0.02408555
0.02398196
0.02387831
0.02377458
0.02367079
0.02356693
0.02346303
0.02335911
0.0232552
0.02315136
0.02304764
0.02294409
0.02284079
0.02273781
0.02263524
0.02253318
0.02243171
0.02233093
0.02223096
0.02213189
0.02203384
0.02193691
0.02184121
0.02174686
0.02165398
0.02156266
0.02147301
0.02138513
0.02129912
0.02121507
0.02113306
0.02105318
0.02097548
0.02090004
0.0208269
0.0207561
0.02068766
0.02062157
0.02055781
0.02049635
0.0204372
0.02038037
0.02032586
0.0202736
0.02022352
0.02017551
0.02012952
0.02008547
0.02004342
0.02000336
0.01996548
0.01992988
0.01989681
0.01986675
0.01983976
0.01981906
0.001930132
0.008286346
0.01245589
0.01742446
0.02302466
0.02946356
0.0368123
0.04493892
0.05403034
0.06502842
0.08184388
0.09132256
0.1014882
0.1120764
0.1230711
0.1343826
0.1459448
0.1576555
0.1693551
0.1809555
0.1925094
0.2055591
0.2186517
0.2316231
0.2444226
0.2570079
0.2693407
0.2814012
0.293283
0.3049931
0.3165479
0.3281982
0.3403021
0.3526545
0.3652819
0.3779947
0.3903975
0.4022155
0.41335
0.4237875
0.4335509
0.4426575
0.4510592
0.4590121
0.4666533
0.474082
0.4813465
0.4884562
0.4953861
0.5020735
0.5084342
0.5143562
0.5197207
0.5243943
0.5281305
0.5306499
0.5316927
0.5304459
0.527913
0.5237152
0.5178886
0.5105341
0.5018991
0.492262
0.4818957