/*--------------------------------*- C++ -*----------------------------------*\
| =========                 |                                                 |
| \\      /  F ield         | foam-extend: Open Source CFD                    |
|  \\    /   O peration     | Version:     3.1                                |
|   \\  /    A nd           | Web:         http://www.extend-project.de       |
|    \\/     M anipulation  |                                                 |
\*---------------------------------------------------------------------------*/
FoamFile
{
    version     2.0;
    format      ascii;
    class       volScalarField;
    location    "7.5";
    object      omega;
}
// * * * * * * * * * * * * * * * * * * * * * * * * * * * * * * * * * * * * * //

dimensions      [0 0 -1 0 0 0 0];

internalField   nonuniform List<scalar> 
119952
(
319.571
389.7795
354.8206
299.3006
261.1867
257.4413
257.2149
258.7629
261.3464
264.452
267.5596
270.2459
271.998
272.1276
269.5391
262.7463
253.4331
255.7218
273.5391
293.2109
263.2571
255.0165
248.5376
209.4202
198.8002
193.722
190.5469
187.6265
182.6365
188.1462
746.661
616.045
517.3096
447.8317
396.9084
358.2387
327.7342
303.0397
282.5013
259.5961
214.9969
183.9783
162.6385
147.109
135.1661
125.5495
117.5769
110.8757
105.1415
81.82097
78.41314
75.18465
72.18052
69.48813
67.14174
65.13899
63.46829
62.10825
61.07566
60.38689
59.90934
59.63065
59.56588
59.71849
60.00271
60.29113
60.59078
60.85104
63.06953
66.03403
67.13787
67.86252
68.27513
68.33034
67.73437
66.64146
65.24894
63.7419
62.29651
61.06866
60.20871
59.88073
60.26497
61.50132
63.47892
65.67638
67.80793
69.84172
71.60151
73.10383
73.79221
73.53159
72.64856
70.71744
67.88574
64.6105
61.32577
58.30547
55.2051
52.28219
49.64336
47.29236
45.21508
43.38706
41.78426
40.38654
39.17243
38.11963
37.20475
36.40635
35.70557
35.0864
34.53507
34.04012
33.59208
33.18135
32.79929
32.44235
32.10904
31.79689
31.50338
31.2266
30.96507
30.71768
30.48358
30.26224
30.05332
29.8568
29.67298
29.50271
29.34653
29.20302
29.07179
28.95266
28.84544
28.75001
28.66634
28.59425
28.53335
28.48313
28.44311
28.41299
28.39328
28.38367
28.3829
28.38553
28.37909
28.46767
28.64101
28.81985
28.98457
29.12999
29.25741
29.37003
29.47152
29.56536
29.65436
29.74063
29.8256
29.91021
29.99506
30.08064
30.16701
30.25377
30.34104
30.42891
30.51732
30.60619
30.69542
30.78493
30.87468
30.96435
31.05229
31.14311
31.23708
31.33234
31.42951
31.52927
31.63232
31.73938
31.85134
31.96881
32.092
32.2219
32.35986
32.50636
32.66307
32.83018
33.00819
33.1985
33.40074
33.61778
33.84935
34.09618
34.35257
34.61686
34.82821
37.11822
41.19148
44.03968
46.00131
47.39818
48.44024
49.26278
49.95212
50.56272
51.13
51.67738
52.21997
52.76824
53.32933
53.90863
54.51028
55.13496
55.7842
56.46102
57.16671
57.90256
58.66989
59.46903
60.30155
61.16857
62.07069
63.00942
63.98558
64.99967
66.0522
67.14302
68.26993
69.41
70.57346
71.64768
71.62625
70.57715
69.64561
68.76155
67.91208
67.08736
66.28279
65.49525
64.72222
63.9622
63.21474
62.47989
61.75763
61.04809
60.35141
59.66764
58.99361
58.32902
57.67497
57.03222
56.40129
55.78256
55.17622
54.58231
54.00078
53.43151
52.87445
52.32949
51.7963
51.27467
50.76433
50.26494
49.7769
49.30188
48.83654
39.18512
38.7269
38.17957
37.53447
36.89528
36.29087
35.72458
35.20508
34.73675
34.31877
33.94707
33.61666
33.32181
33.05647
32.81513
32.59279
32.38512
32.18841
31.99961
31.81626
31.63642
31.45863
31.28181
31.10521
30.9283
30.75081
30.57255
30.39345
30.21354
30.0329
29.85165
29.66993
29.48792
29.3058
29.12376
28.942
28.76071
28.58012
28.40046
28.22198
28.04501
27.87003
27.69781
27.53007
27.37067
27.22281
27.08488
26.95082
26.82079
26.69476
26.57239
26.45478
26.34368
26.24064
26.21017
26.09085
25.96303
25.82737
25.68125
25.52607
25.36416
25.19887
25.03359
24.87116
24.71369
24.56266
24.41894
24.28292
24.15457
24.0336
23.9195
23.81163
23.7093
23.61177
23.51836
23.42838
23.34125
23.2564
23.17335
23.0917
23.0111
22.93127
22.85196
22.773
22.69424
22.61557
22.53692
22.45823
22.3795
22.30069
22.22184
22.14295
22.06406
21.98521
21.90643
21.82778
21.74932
21.67108
21.59313
21.51553
21.43833
21.36158
21.28534
21.20966
21.13461
21.06022
20.98655
20.91366
20.84157
20.77036
20.70005
20.6307
20.56233
20.495
20.42872
20.36351
20.29937
20.2363
20.17425
20.11314
20.0529
19.99342
19.93458
19.87624
19.81826
19.76045
19.70255
19.64425
19.58506
19.52437
19.46119
19.39413
19.32085
19.23707
19.13327
18.9888
18.75793
18.39308
18.31879
637.8344
573.8492
534.8994
494.0918
455.9187
422.1041
392.5369
366.6438
342.9268
276.3366
209.2657
174.868
155.6212
143.7353
135.4906
129.1164
123.763
118.995
94.34246
89.6052
85.10953
81.02751
77.44543
74.35677
71.70451
69.42063
67.4417
65.70062
64.21541
62.82064
61.43022
60.06029
58.72714
57.44244
56.21
55.02744
53.88361
53.07522
52.47336
51.67085
50.72733
49.68256
48.56213
47.3963
46.20728
45.01445
43.83877
42.69649
41.5915
40.53422
39.52801
38.57472
37.67767
36.84074
36.067
35.36122
31.95474
31.50994
31.12141
30.78462
30.49642
30.25527
30.0621
29.91932
29.82906
29.79246
29.81469
29.89748
30.02454
30.19234
30.44964
30.79554
31.22258
31.72633
32.29571
32.94151
33.59166
34.17441
34.72002
35.1941
35.54297
35.73465
35.76658
35.6505
35.40992
35.0809
34.7093
34.34653
34.04415
33.85052
33.79975
33.899
34.15671
34.59757
35.23637
36.07991
37.12087
38.29988
39.55715
40.82928
41.98775
42.93576
43.5911
43.87439
43.66668
43.05674
42.108
40.86761
39.40822
37.81225
36.16218
34.52872
32.96602
31.50821
30.1726
28.9655
27.88609
26.92861
26.08429
25.34277
24.69311
24.12459
23.62852
23.19545
22.81325
22.47433
22.17186
21.89969
21.65241
21.42523
21.21393
21.01474
20.82436
20.63988
20.45886
20.27933
20.0998
19.91924
19.73705
19.55301
19.36733
19.18057
18.99356
18.80734
18.62307
18.44195
18.26519
18.09393
17.92913
17.77165
17.62218
17.48126
17.34943
17.22755
17.11648
17.01643
16.92712
16.84843
16.77991
16.721
16.67108
16.62949
16.59549
16.5683
16.54709
16.53103
16.51928
16.51105
16.50578
16.50297
16.50138
16.49977
16.49691
16.49168
16.48293
16.46956
16.45042
16.42451
16.39187
16.3527
16.30728
16.25576
16.19834
16.13527
16.06693
15.99376
15.91622
15.83486
15.75023
15.66293
15.57351
15.48255
15.39055
15.29809
15.20564
15.11369
15.02258
14.93271
14.84429
14.75762
14.6726
14.58903
14.50526
14.41211
14.65195
14.90912
15.07628
15.1802
15.24063
15.271
15.28105
15.27773
15.26576
15.2484
15.22787
15.20569
15.1829
15.16022
15.13817
15.11712
15.09735
15.07907
15.06246
15.04762
15.03463
15.02355
15.01439
15.00717
15.00185
14.9984
14.99671
14.99663
14.99792
15.00024
15.00305
15.00536
15.00499
14.99703
14.97101
14.93018
14.8827
14.83507
14.78673
14.73762
14.68823
14.6389
14.58987
14.54135
14.49346
14.4463
14.39993
14.35437
14.30961
14.26563
14.22238
14.17981
14.13786
14.09645
14.05551
14.01495
13.9747
13.93471
13.89489
13.85521
13.81561
13.77607
13.73654
13.69703
13.65753
13.61806
13.57869
13.53949
13.50098
13.46636
11.9983
11.93371
11.88211
11.83687
11.79451
11.75374
11.71411
11.67528
11.63693
11.59886
11.56098
11.52325
11.48568
11.44828
11.41109
11.37415
11.33747
11.30109
11.26501
11.22925
11.19379
11.15863
11.12374
11.08908
11.05463
11.02034
10.98616
10.95206
10.91798
10.88387
10.84971
10.81545
10.78107
10.74653
10.71182
10.67695
10.64189
10.60668
10.57133
10.5359
10.50047
10.46517
10.43019
10.39575
10.36199
10.32886
10.296
10.2632
10.23052
10.19815
10.1661
10.13447
10.10324
10.07444
10.048
10.01854
9.986772
9.954763
9.923173
9.891993
9.861066
9.830256
9.79946
9.768603
9.737627
9.706487
9.675156
9.643628
9.611906
9.579995
9.547904
9.515647
9.483237
9.45069
9.418019
9.385239
9.352362
9.319399
9.286363
9.253264
9.220111
9.186914
9.153682
9.120424
9.08715
9.053868
9.020588
8.987319
8.954071
8.920855
8.887683
8.854566
8.821518
8.788551
8.75568
8.722919
8.690283
8.657789
8.625451
8.593288
8.561315
8.529551
8.498013
8.466718
8.435684
8.40493
8.374474
8.344335
8.314532
8.285085
8.256013
8.227336
8.199074
8.171244
8.143867
8.116952
8.090518
8.064562
8.039089
8.014076
7.989512
7.96535
7.941573
7.918115
7.894957
7.871996
7.849194
7.826373
7.803438
7.780063
7.756015
7.73063
7.703283
7.672563
7.637138
7.595605
7.548909
7.504236
7.464211
594.7271
520.7354
460.5111
416.2396
382.5406
356.2981
335.3388
318.4526
304.591
286.0616
185.4516
172.9156
162.7843
154.2969
146.978
140.4108
133.9353
125.6592
108.8283
77.41061
75.60914
74.46514
73.52161
72.86131
72.35553
71.83365
71.31647
70.55429
67.11936
64.55787
64.11197
63.76641
63.39154
62.97367
62.51125
62.00454
61.45512
60.85815
60.8266
59.70319
58.47267
57.36689
56.39402
55.52188
54.7163
53.95316
53.21857
52.51
51.78061
51.01506
50.21463
49.39739
48.58181
47.78132
47.00286
46.25128
43.00714
42.37685
41.78273
41.2146
40.66832
40.14285
39.63904
39.15805
38.70119
38.26737
37.8529
37.4566
37.07595
36.70562
36.34111
35.97848
35.61398
35.24363
34.86319
34.4677
34.05508
33.62448
33.17362
32.70157
32.20959
31.70057
31.17924
30.65135
30.12297
29.60112
29.09238
28.60209
28.13492
27.69456
27.28394
26.90482
26.55893
26.24201
25.99956
25.78054
25.58667
25.41711
25.27101
25.14846
25.05061
24.97895
24.93502
24.92033
24.93661
24.98162
25.06207
25.20068
25.39666
25.64803
25.94975
26.29425
26.6687
27.0631
27.46842
27.85554
28.2134
28.53402
28.79687
28.97968
29.0689
29.06087
28.95988
28.77824
28.53616
28.25962
27.97738
27.71851
27.50786
27.36366
27.30421
27.35029
27.51781
27.81699
28.25306
28.81763
29.48719
30.2426
31.03842
31.81447
32.51552
33.09852
33.51158
33.72557
33.7378
33.54538
33.14773
32.55336
31.78423
30.87445
29.86485
28.79741
27.71092
26.6378
25.60386
24.62773
23.72137
22.89116
22.13919
21.46439
20.86368
20.33285
19.86923
19.4654
19.11316
18.80681
18.54066
18.30923
18.10731
17.92997
17.77252
17.63047
17.49962
17.37608
17.25635
17.13737
17.01653
16.89168
16.76123
16.62419
16.48015
16.32923
16.17199
16.00943
15.84285
15.67379
15.50391
15.33485
15.16826
15.00569
14.84864
14.69852
14.55655
14.4236
14.30017
14.18663
14.08329
13.99035
13.90782
13.83561
13.77348
13.72107
13.67797
13.64365
13.61752
13.59894
13.58717
13.58137
13.58061
13.58391
13.59025
13.59858
13.60786
13.61704
13.62528
13.63165
13.63439
13.63169
13.62249
13.60662
13.58386
13.55416
13.51746
13.47382
13.4234
13.36647
13.30336
13.23451
13.16039
13.08154
12.99853
12.91193
12.82234
12.7303
12.63635
12.54102
12.44479
12.34801
12.25116
12.15431
12.05818
11.96165
11.8899
11.80662
11.71686
11.62395
11.53062
11.4384
11.34812
11.26023
11.17498
11.09249
11.01278
10.93581
10.86152
10.78982
10.72062
10.65384
10.58935
10.52703
10.46682
10.40869
10.35257
10.29839
10.24607
10.19549
10.14658
10.09922
10.05328
10.00861
9.965035
9.92228
9.880237
9.838756
9.797322
9.755394
9.712713
9.669772
9.627683
9.586749
9.546706
9.507455
9.468942
9.431117
9.393938
9.35737
9.321387
9.28597
9.251095
9.216737
9.18287
9.149468
9.116499
9.083934
9.051738
9.019878
8.988319
8.957028
8.92597
8.895116
8.864431
8.833893
8.803471
8.773154
8.742914
8.712763
8.682669
8.652689
8.62277
8.593054
8.563165
8.530542
8.521197
8.50947
8.494571
8.476722
8.456985
8.436201
8.414764
8.392802
8.370376
8.34755
8.324399
8.300988
8.277375
8.253604
8.22971
8.205724
8.181673
8.157578
8.133456
8.109316
8.085167
8.061011
8.036845
8.012664
7.988458
7.964216
7.93992
7.915556
7.891105
7.866549
7.841873
7.81706
7.792097
7.766973
7.741683
7.716222
7.690596
7.664811
7.63889
7.612855
7.586757
7.560642
7.534584
7.508627
7.482821
7.457126
7.4315
7.405829
7.380173
7.35451
7.328975
7.303436
7.278015
7.252411
7.226992
7.201733
7.176883
7.152455
7.12825
7.10409
7.079909
7.055712
7.031522
7.007353
6.983207
6.959076
6.934952
6.910827
6.886693
6.862538
6.83835
6.814118
6.789829
6.765471
6.741032
6.716504
6.691875
6.66714
6.642291
6.617323
6.592234
6.567022
6.541688
6.516232
6.490658
6.464971
6.439177
6.413282
6.387296
6.361229
6.33509
6.308892
6.282647
6.25637
6.230073
6.203773
6.177484
6.151223
6.125005
6.098848
6.072768
6.046783
6.020909
5.995162
5.96956
5.944121
5.91886
5.893796
5.868944
5.844324
5.81995
5.795842
5.772014
5.748485
5.725267
5.702379
5.679828
5.657631
5.635782
5.614291
5.593135
5.572317
5.551793
5.531571
5.511589
5.491862
5.472282
5.45286
5.433409
5.413926
5.394083
5.373838
5.352649
5.330473
5.306649
5.281521
5.254774
5.228037
5.203165
348.2997
249.576
361.9724
161.0011
125.6122
92.83206
80.04933
69.64663
61.09684
57.11747
55.52884
54.72301
53.86613
52.98044
52.12598
51.34196
50.60365
49.89425
49.21092
48.56119
47.96578
47.47197
47.22474
47.14961
47.14722
47.19099
47.2753
47.37037
47.44585
47.47268
47.35822
46.10662
46.61671
47.11739
47.6216
48.13066
48.63723
49.13528
49.60671
50.06045
50.32307
50.51095
50.65271
50.71953
50.70118
50.59568
50.40647
50.13901
49.79969
49.39921
48.95356
48.46168
47.92296
47.34726
46.74438
46.1203
45.48079
44.82972
44.17017
43.50434
42.83056
42.15472
41.48279
40.81692
40.16044
39.51596
38.8889
38.27359
37.71218
37.16649
36.64298
36.14322
35.6687
35.22124
34.80222
34.41209
34.04941
33.71114
33.39269
33.08945
32.79665
32.50973
32.22472
31.93819
31.64666
31.34645
31.03375
30.70504
30.3576
29.98944
29.59999
29.19032
28.76287
28.32138
27.87087
27.41721
26.96677
26.52614
26.1016
25.6987
25.32201
24.97496
24.66002
24.37876
24.1318
23.91824
23.73713
23.58565
23.46074
23.35765
23.27211
23.20134
23.14403
23.09953
23.06777
23.04926
23.04534
23.05989
23.107
23.18899
23.30667
23.45886
23.64138
23.84745
24.06936
24.30026
24.53361
24.76137
24.97748
25.17541
25.34342
25.46681
25.53292
25.53352
25.46549
25.33142
25.14006
24.90549
24.64534
24.37905
24.12533
23.90072
23.72149
23.60352
23.55921
23.59738
23.72364
23.93899
24.23832
24.61316
25.04762
25.51891
25.99963
26.46381
26.88198
27.22865
27.48743
27.64357
27.68268
27.59355
27.36952
27.01088
26.5256
25.92879
25.24138
24.48848
23.69626
22.88945
22.08961
21.31431
20.57686
19.88659
19.24931
18.66808
18.14381
17.67637
17.26484
16.90383
16.58886
16.31596
16.08088
15.87933
15.70703
15.55966
15.43295
15.32268
15.22478
15.1354
15.05088
14.9678
14.88309
14.79415
14.69893
14.59592
14.48422
14.36352
14.23409
14.09665
13.95235
13.80263
13.64914
13.49366
13.338
13.18395
13.03319
12.88719
12.74718
12.61419
12.48913
12.37271
12.2655
12.16787
12.08007
12.00216
11.93414
11.87589
11.8272
11.78775
11.75715
11.73494
11.72054
11.71337
11.71273
11.71788
11.72797
11.74211
11.75932
11.7786
11.79888
11.8191
11.83777
11.85287
11.86359
11.86937
11.8697
11.86414
11.85233
11.83406
11.8092
11.77776
11.73984
11.69566
11.6455
11.58974
11.52879
11.46311
11.39321
11.31957
11.24271
11.16307
11.08121
10.99755
10.91272
10.82722
10.7427
10.6585
10.57396
10.48935
10.40494
10.32106
10.23794
10.15569
10.07451
9.994553
9.915925
9.838717
9.762989
9.688767
9.616064
9.544931
9.475505
9.407863
9.34199
9.277799
9.215253
9.15428
9.094848
9.036907
8.980413
8.925283
8.87146
8.818862
8.767387
8.716914
8.66733
8.61846
8.570128
8.522189
8.474649
8.427736
8.381872
8.337322
8.294068
8.251974
8.210943
8.170893
8.131757
8.093479
8.056019
8.019321
7.983348
7.948053
7.913399
7.879332
7.845813
7.812797
7.780236
7.748083
7.716292
7.684818
7.65362
7.622654
7.591882
7.561265
7.530776
7.500378
7.470066
7.439801
7.409607
7.379426
7.349357
7.319264
7.289397
7.259318
7.230063
7.201227
7.172854
7.145008
7.11764
7.090645
7.063927
7.037431
7.011129
6.985018
6.959104
6.933399
6.907916
6.882662
6.857642
6.832857
6.808308
6.783991
6.7599
6.736027
6.712357
6.688878
6.665571
6.642417
6.619394
6.596479
6.573648
6.550875
6.528136
6.505407
6.482663
6.459885
6.437052
6.414147
6.391157
6.368072
6.344888
6.321602
6.298223
6.274761
6.251235
6.227666
6.20408
6.180494
6.156928
6.133376
6.109826
6.086239
6.062623
6.038991
6.015385
5.991804
5.968286
5.944888
5.92172
5.898691
5.87568
5.85266
5.829677
5.80678
5.783997
5.761341
5.738817
5.716423
5.694151
5.671989
5.649924
5.627944
5.606033
5.584178
5.562364
5.540575
5.518797
5.497015
5.475213
5.453378
5.431496
5.409555
5.387546
5.365457
5.343281
5.321011
5.298643
5.276172
5.253597
5.230917
5.208132
5.185245
5.16226
5.139181
5.116015
5.092768
5.06945
5.04607
5.022639
4.999167
4.975667
4.952151
4.928634
4.905129
4.881651
4.858215
4.834834
4.811525
4.788302
4.765181
4.742178
4.719307
4.696586
4.674029
4.651652
4.629472
4.607502
4.585759
4.564257
4.54301
4.52203
4.50133
4.480914
4.460788
4.440947
4.421387
4.402091
4.383056
4.364257
4.345691
4.327312
4.309106
4.290988
4.272931
4.254795
4.236542
4.217975
4.19909
4.179676
4.15988
4.139557
4.11929
4.099907
318.4775
212.9725
159.7563
143.8852
116.5027
97.96123
83.99154
78.34929
72.09284
68.32082
65.00616
60.7269
56.48417
52.51372
48.89816
44.99716
39.32025
37.94713
36.92161
36.311
36.05133
36.00856
36.05242
36.13511
36.25075
36.39803
36.57705
36.78889
37.03637
37.32853
37.67757
38.07772
38.51629
38.98461
39.47638
39.99005
40.52406
41.07849
41.65753
42.26415
42.90089
43.53127
44.09081
44.75306
45.44691
46.14452
46.82123
47.47872
48.11245
48.61242
49.02598
49.3237
49.47771
49.49867
49.40208
49.19935
48.90046
48.51572
48.05502
47.5316
46.9534
46.33342
45.68251
45.00676
44.31217
43.60375
42.88497
42.15972
41.43017
40.70114
39.97648
39.26555
38.56826
37.88946
37.23097
36.59376
35.9788
35.3874
34.81965
34.27702
33.76369
33.28359
32.83721
32.4244
32.04536
31.70042
31.38911
31.10891
30.85495
30.62053
30.39853
30.18282
29.96858
29.75196
29.52958
29.29789
29.05335
28.79234
28.51154
28.2082
27.88086
27.52972
27.15648
26.76437
26.35833
25.94479
25.53103
25.12478
24.73381
24.36542
24.02605
23.72076
23.45328
23.22624
23.04101
22.8972
22.79238
22.72191
22.67933
22.65695
22.64647
22.64052
22.63356
22.62179
22.60263
22.57496
22.54007
22.50414
22.48
22.47336
22.48815
22.52703
22.58952
22.67163
22.76687
22.86843
22.97071
23.07023
23.16581
23.25705
23.34106
23.4111
23.45787
23.47102
23.44149
23.36319
23.23419
23.05742
22.84059
22.5951
22.33463
22.07334
21.82481
21.6021
21.41704
21.27894
21.19461
21.16862
21.20317
21.29778
21.44956
21.65268
21.89822
22.17411
22.46694
22.76122
23.04142
23.29343
23.50354
23.65781
23.74239
23.74477
23.65552
23.46939
23.18583
22.80938
22.3496
21.82028
21.23806
20.62078
19.98605
19.35002
18.72658
18.12698
17.55973
17.03078
16.54391
16.10113
15.70409
15.35132
15.03946
14.76614
14.52848
14.32337
14.14751
13.99742
13.86958
13.76039
13.66634
13.58395
13.50978
13.44042
13.3727
13.30377
13.23112
13.15271
13.06698
12.97293
12.8701
12.75855
12.63884
12.51191
12.37901
12.24161
12.1013
11.95973
11.81849
11.67907
11.54286
11.4111
11.28487
11.1651
11.05252
10.94772
10.85119
10.76316
10.68388
10.61342
10.55177
10.49883
10.45443
10.41836
10.39033
10.36999
10.35694
10.35071
10.35075
10.35643
10.36709
10.38197
10.40029
10.42121
10.44373
10.46592
10.48676
10.50552
10.52148
10.534
10.54249
10.54644
10.54546
10.53924
10.52758
10.51039
10.48764
10.45943
10.42592
10.38734
10.34396
10.29611
10.24413
10.18846
10.12946
10.06761
10.00328
9.936873
9.868842
9.799619
9.729501
9.658677
9.587383
9.515861
9.444319
9.372952
9.301932
9.231412
9.161517
9.09235
9.023993
8.956489
8.889889
8.824254
8.759636
8.696068
8.633574
8.572169
8.511858
8.452637
8.394493
8.337405
8.281356
8.226307
8.172216
8.119031
8.066691
8.015126
7.964259
7.914023
7.864388
7.815391
7.767161
7.719914
7.673836
7.628968
7.585255
7.542622
7.501014
7.460387
7.420703
7.381922
7.344006
7.306914
7.270606
7.235039
7.200172
7.165965
7.132358
7.099307
7.066757
7.034654
7.002944
6.971575
6.940496
6.909658
6.879012
6.848517
6.81814
6.787844
6.757597
6.727387
6.697183
6.667
6.636808
6.606646
6.576434
6.54623
6.516105
6.486106
6.456232
6.426483
6.396895
6.367517
6.338389
6.309534
6.280973
6.252722
6.224797
6.197213
6.169979
6.143103
6.116588
6.090437
6.064646
6.03921
6.014119
5.989361
5.96492
5.940778
5.916912
5.8933
5.869915
5.84673
5.823718
5.80085
5.778098
5.755435
5.732835
5.710273
5.687728
5.665179
5.642611
5.620012
5.597373
5.574691
5.551965
5.529201
5.506404
5.483583
5.460746
5.437902
5.415051
5.392186
5.369297
5.346389
5.323476
5.300586
5.277741
5.254972
5.232308
5.209756
5.187277
5.164857
5.14252
5.120299
5.098212
5.076259
5.05444
5.032754
5.011201
4.98978
4.968485
4.947311
4.926249
4.905288
4.884417
4.863624
4.842893
4.822211
4.801563
4.780935
4.760312
4.73968
4.719027
4.698341
4.677609
4.656822
4.635972
4.615049
4.594049
4.572966
4.551795
4.530535
4.509185
4.487744
4.466215
4.444599
4.422901
4.401126
4.37928
4.35737
4.335405
4.313394
4.291347
4.269274
4.247189
4.225102
4.203027
4.180976
4.158964
4.137003
4.115107
4.093292
4.071572
4.049961
4.028475
4.007128
3.985935
3.96491
3.944069
3.923424
3.902991
3.88278
3.862805
3.843074
3.823593
3.804362
3.785381
3.76664
3.748137
3.729862
3.711809
3.693959
3.676295
3.658777
3.641378
3.624038
3.606733
3.589386
3.572002
3.5545
3.536958
3.519311
3.501832
3.485287
161.4603
119.9748
183.5162
91.47195
78.39294
67.46889
64.09832
61.66684
59.01809
57.9006
56.46626
54.38168
52.3692
50.21091
47.66448
42.91452
41.66667
40.48305
39.34072
38.25082
37.17614
36.16402
35.27133
34.52653
33.94472
33.52264
33.17616
32.82038
32.62841
32.61413
32.75335
32.99302
33.28124
33.59536
33.92819
34.27762
34.64352
35.02799
35.44396
35.88987
36.35835
36.84655
37.35377
37.87948
38.42234
38.98194
39.55774
40.15056
40.76366
41.39566
42.04038
42.6904
43.37342
44.12732
44.895
45.66521
46.28921
46.80398
47.20543
47.4699
47.60646
47.60999
47.47248
47.20014
46.80953
46.31676
45.73951
45.09259
44.39116
43.65034
42.88154
42.09697
41.30593
40.51582
39.73219
38.95897
38.20149
37.46564
36.76226
36.09295
35.45625
34.85463
34.28489
33.74082
33.22084
32.724
32.24956
31.79742
31.36831
30.96308
30.58407
30.23421
29.91497
29.62637
29.36798
29.13953
28.94017
28.76646
28.61148
28.46651
28.32346
28.17655
28.0223
27.85872
27.68448
27.4981
27.29734
27.07731
26.83657
26.57408
26.28964
25.98377
25.65657
25.31046
24.9522
24.59003
24.23312
23.89111
23.57363
23.28958
23.04652
22.85024
22.70514
22.61407
22.57736
22.59216
22.65195
22.74626
22.86127
22.9818
23.09375
23.18547
23.24829
23.27613
23.26499
23.21375
23.12644
23.02098
22.91105
22.80411
22.70905
22.63353
22.58053
22.5469
22.52513
22.50701
22.48679
22.46229
22.43482
22.40722
22.38023
22.35093
22.31319
22.25868
22.17859
22.06571
21.91597
21.72953
21.51044
21.26629
21.00706
20.74374
20.48722
20.24775
20.03426
19.85382
19.71135
19.6101
19.55175
19.5365
19.56325
19.62958
19.73175
19.86433
20.02107
20.1939
20.37394
20.55189
20.71792
20.86152
20.97151
21.03672
21.04702
20.99401
20.8717
20.67697
20.41023
20.07558
19.68055
19.23548
18.75252
18.24469
17.72485
17.20492
16.69527
16.20444
15.73898
15.30363
14.90151
14.53482
14.20439
13.90809
13.6446
13.41211
13.20848
13.03129
12.87792
12.74559
12.63144
12.5327
12.44657
12.37007
12.30026
12.23434
12.16968
12.10387
12.03479
11.96072
11.88034
11.79284
11.69789
11.59558
11.4864
11.37114
11.25082
11.12663
10.99986
10.87182
10.74384
10.61718
10.49302
10.37243
10.25631
10.14545
10.04049
9.941979
9.850265
9.765659
9.688338
9.618397
9.55586
9.500698
9.452835
9.412153
9.378484
9.351609
9.33126
9.31712
9.308831
9.305994
9.308171
9.314879
9.325595
9.339631
9.355443
9.372211
9.389257
9.405906
9.421504
9.435438
9.44714
9.456105
9.461893
9.464139
9.462553
9.456923
9.447111
9.433054
9.414753
9.392274
9.36573
9.335299
9.30118
9.26362
9.222879
9.179247
9.133069
9.084664
9.034275
8.982127
8.928481
8.87361
8.817764
8.761169
8.704038
8.646562
8.588916
8.531251
8.473704
8.416399
8.359313
8.302437
8.245863
8.189672
8.133929
8.078688
8.023989
7.969862
7.916325
7.863391
7.811062
7.759335
7.708198
7.657634
7.60762
7.55813
7.509144
7.460651
7.412665
7.365238
7.318465
7.272482
7.227414
7.183319
7.140193
7.098012
7.056754
7.016402
6.976938
6.938344
6.900598
6.863676
6.827551
6.792194
6.757571
6.723644
6.690374
6.657712
6.625609
6.594012
6.562866
6.532115
6.501702
6.471571
6.441666
6.411942
6.382343
6.352831
6.323366
6.293913
6.264446
6.234948
6.205404
6.175806
6.146148
6.116452
6.086732
6.056973
6.027173
5.997367
5.967609
5.937953
5.90844
5.879106
5.84998
5.821093
5.792475
5.764153
5.73615
5.708487
5.681179
5.654239
5.627673
5.601485
5.575674
5.550234
5.525155
5.500424
5.476024
5.451935
5.428134
5.404596
5.381296
5.358204
5.335294
5.312537
5.289906
5.267374
5.244918
5.222515
5.200145
5.177791
5.15544
5.133081
5.110707
5.088316
5.065906
5.043477
5.021032
4.998573
4.976102
4.953617
4.931117
4.908608
4.886105
4.863628
4.841197
4.818833
4.796548
4.774346
4.752233
4.730222
4.708328
4.686565
4.664942
4.643463
4.622132
4.600952
4.579923
4.559045
4.538316
4.51773
4.497279
4.476954
4.456745
4.436639
4.416622
4.396682
4.376804
4.356973
4.337175
4.317396
4.297623
4.277842
4.258041
4.238208
4.218334
4.198408
4.178423
4.158371
4.138247
4.118044
4.097761
4.077393
4.056941
4.036404
4.015783
3.995081
3.974301
3.953448
3.932528
3.911548
3.890515
3.869438
3.848327
3.827193
3.806046
3.784898
3.763761
3.742648
3.721571
3.700545
3.679582
3.658698
3.637906
3.617221
3.596657
3.576229
3.555949
3.535833
3.515894
3.496145
3.476597
3.457261
3.438145
3.419254
3.400586
3.382139
3.363912
3.345901
3.328105
3.310513
3.293115
3.275889
3.258816
3.24187
3.225037
3.20829
3.191634
3.175043
3.158561
3.142169
3.126023
3.11096
63.62216
49.54959
50.03329
47.3988
46.14174
44.72681
43.62848
42.7029
41.92471
40.72764
37.92778
37.66585
37.40359
37.142
36.84264
36.49647
36.14391
35.82122
35.54235
35.29413
34.93981
34.34133
33.75865
33.1948
32.66515
32.17597
31.74943
31.40321
31.14029
30.95873
30.84942
30.80036
30.82237
30.94126
31.15907
31.45885
31.81011
32.18366
32.56415
32.94429
33.32133
33.69719
34.08944
34.49521
34.91632
35.35608
35.8173
36.30189
36.81097
37.34433
37.90093
38.47819
39.07994
39.71263
40.37232
41.04293
41.72701
42.48876
43.20968
43.85497
44.39566
44.79088
45.03636
45.13179
45.07508
44.87228
44.53054
44.05769
43.46775
42.7797
42.0147
41.19603
40.34185
39.47206
38.6014
37.74216
36.9058
36.10115
35.33608
34.61769
33.95595
33.35037
32.79788
32.29658
31.84253
31.4292
31.04588
30.68821
30.35179
30.03386
29.7327
29.44725
29.17808
28.92627
28.69294
28.4803
28.2909
28.12595
27.98491
27.86643
27.76915
27.69032
27.62258
27.55388
27.47169
27.36782
27.2395
27.08792
26.91634
26.72875
26.52921
26.31947
26.09985
25.86671
25.61716
25.34984
25.06543
24.76801
24.46364
24.15974
23.86542
23.59108
23.34796
23.14734
22.99938
22.91228
22.89305
22.94725
23.07588
23.2749
23.5347
23.8397
24.16935
24.49867
24.80116
25.05497
25.24501
25.36152
25.39814
25.35154
25.22331
25.02258
24.78041
24.50847
24.22059
23.93441
23.66659
23.42734
23.21738
23.02938
22.85314
22.68072
22.50907
22.34002
22.17818
22.02719
21.88697
21.75303
21.61771
21.47207
21.30796
21.11986
20.90586
20.66785
20.41103
20.14293
19.87226
19.60781
19.35767
19.12873
18.92637
18.75393
18.61342
18.50561
18.43029
18.3865
18.3727
18.38694
18.42641
18.4882
18.5679
18.66061
18.76077
18.86209
18.95745
19.03889
19.09801
19.12643
19.11625
19.06056
18.95391
18.79292
18.57666
18.30698
17.98835
17.62757
17.23319
16.8148
16.38232
15.9453
15.5124
15.09101
14.68709
14.30512
13.94829
13.61876
13.31809
13.04506
12.79885
12.57836
12.38213
12.2084
12.05513
11.92026
11.80175
11.69738
11.60482
11.52169
11.44568
11.3745
11.30595
11.23796
11.16865
11.09642
11.01999
10.93846
10.85138
10.75869
10.66065
10.55764
10.45024
10.33926
10.22563
10.11035
9.994459
9.878988
9.764919
9.653149
9.544473
9.439574
9.339087
9.243422
9.153
9.068099
8.988913
8.915565
8.848127
8.78663
8.731075
8.681426
8.637606
8.599497
8.566954
8.539811
8.517883
8.50097
8.488851
8.481285
8.478005
8.478534
8.48178
8.487213
8.494308
8.502536
8.511371
8.520298
8.528824
8.536484
8.542849
8.547535
8.550201
8.550558
8.548369
8.543451
8.535669
8.524941
8.511232
8.494552
8.474952
8.452525
8.427395
8.39971
8.369627
8.337298
8.302889
8.266589
8.228602
8.189128
8.148359
8.106483
8.06368
8.020121
7.975965
7.931361
7.886441
7.841337
7.796033
7.750431
7.704622
7.658692
7.612719
7.566766
7.520883
7.475113
7.429486
7.384025
7.338749
7.293667
7.248787
7.204113
7.159649
7.115405
7.0714
7.02767
6.984273
6.941289
6.898817
6.856951
6.815758
6.775268
6.735495
6.696445
6.658128
6.62055
6.583714
6.54762
6.512265
6.47764
6.443734
6.41053
6.378005
6.346128
6.314866
6.284177
6.254016
6.224333
6.195075
6.166184
6.137604
6.109274
6.081146
6.053156
6.025257
5.997402
5.969546
5.941654
5.913698
5.885656
5.857514
5.829265
5.800909
5.772443
5.743861
5.715176
5.686419
5.657632
5.628853
5.60012
5.571466
5.542927
5.514539
5.486336
5.458354
5.430623
5.403171
5.376024
5.349201
5.322718
5.296588
5.270816
5.245405
5.220353
5.195652
5.171292
5.147257
5.12353
5.100091
5.076915
5.053977
5.031253
5.008714
4.986335
4.964089
4.94195
4.919896
4.897904
4.875956
4.854033
4.832122
4.810213
4.788296
4.766366
4.744419
4.722455
4.700472
4.678471
4.656451
4.634418
4.612378
4.590342
4.568327
4.546351
4.52443
4.502576
4.480805
4.45913
4.437564
4.416118
4.394805
4.373634
4.352613
4.331751
4.311052
4.290519
4.270152
4.249951
4.229911
4.210026
4.190287
4.170684
4.151208
4.131844
4.112581
4.093403
4.074298
4.055249
4.036243
4.017266
3.998304
3.979343
3.960372
3.941378
3.92235
3.90328
3.884156
3.864973
3.845722
3.826398
3.806996
3.787513
3.767946
3.748293
3.728555
3.708733
3.688829
3.668847
3.648791
3.628666
3.60848
3.588241
3.567957
3.547637
3.527292
3.506932
3.486569
3.466215
3.445883
3.425585
3.405336
3.385148
3.365037
3.345016
3.325099
3.3053
3.285633
3.266111
3.246747
3.227555
3.208544
3.189725
3.171104
3.152683
3.134463
3.116443
3.098625
3.08101
3.063593
3.046369
3.029324
3.012447
2.995727
2.979158
2.962735
2.946466
2.930348
2.914408
2.898652
2.883185
2.868926
97.77752
39.65784
34.0924
32.72634
31.92794
31.53356
31.44121
31.51553
31.70357
31.96943
32.16977
32.17042
32.15333
32.1077
32.03563
31.93371
31.8143
31.68249
31.53079
31.3419
31.093
30.79692
30.50978
30.24159
30.00467
29.80467
29.65389
29.55805
29.51409
29.52059
29.57469
29.67538
29.82869
30.03839
30.30191
30.60568
30.92948
31.25484
31.57175
31.87557
32.17258
32.48909
32.82142
33.17411
33.55352
33.96527
34.41164
34.89435
35.41499
35.97432
36.57015
37.18519
37.82792
38.5178
39.2546
39.98377
40.70037
41.36896
41.93852
42.37526
42.66015
42.7755
42.71695
42.48803
42.09556
41.55295
40.87842
40.09418
39.22774
38.30594
37.35783
36.4091
35.48133
34.5943
33.76111
32.99394
32.30057
31.69343
31.17054
30.72615
30.35419
30.04703
29.79311
29.57892
29.39615
29.23719
29.09486
28.96413
28.84114
28.72441
28.61324
28.50854
28.4123
28.32673
28.25496
28.20239
28.17283