/*--------------------------------*- C++ -*----------------------------------*\
| =========                 |                                                 |
| \\      /  F ield         | foam-extend: Open Source CFD                    |
|  \\    /   O peration     | Version:     3.1                                |
|   \\  /    A nd           | Web:         http://www.extend-project.de       |
|    \\/     M anipulation  |                                                 |
\*---------------------------------------------------------------------------*/
FoamFile
{
    version     2.0;
    format      ascii;
    class       volScalarField;
    location    "7.5";
    object      p;
}
// * * * * * * * * * * * * * * * * * * * * * * * * * * * * * * * * * * * * * //

dimensions      [1 -1 -2 0 0 0 0];

internalField   nonuniform List<scalar> 
119952
(
7185.297
6462.16
6368.52
6521.064
6684.532
6684.625
6731.043
6787.379
6850.214
6915.708
6982.583
7049.991
7117.288
7183.405
7246.592
7302.38
7340.63
7368.774
7416.553
7466.492
7569.306
7604.941
7649.629
7743.888
7779.769
7818.267
7853.992
7894.027
7948.18
9435.178
5094.518
5088.002
5111.344
5139.976
5168.921
5196.241
5220.608
5243.246
5263.344
5267.139
5253.466
5265.223
5260.241
5251.157
5236.406
5217.534
5195.649
5170.747
5147.244
5084.383
5065.531
5027.409
5002.319
4989.609
4984.704
4989.494
5005.669
5033.698
5077.707
5118.196
5179.694
5256.333
5341.708
5433.931
5533.924
5638.631
5752.311
5899.983
6090.109
6098.033
6133.797
6256.093
6351.52
6412.769
6464.208
6524.585
6589.342
6655.163
6721.965
6788.896
6854.988
6919.179
6979.652
7033.467
7080.076
7122.919
7173.68
7231.12
7291.045
7349.055
7399.687
7455.553
7511.645
7549.456
7583.562
7615.376
7636.825
7644.47
7675.171
7712.393
7748.878
7785.172
7820.424
7854.262
7886.751
7917.785
7947.484
7975.897
8003.08
8029.124
8054.133
8078.205
8101.417
8123.839
8145.53
8166.536
8186.892
8206.649
8225.842
8244.483
8262.589
8280.172
8297.235
8313.778
8329.792
8345.268
8360.195
8374.557
8388.341
8401.529
8414.132
8426.123
8437.502
8448.272
8458.439
8468.015
8477.017
8485.466
8493.387
8500.81
8507.766
8514.293
8520.405
8526.143
8531.527
8536.645
8541.94
8547.415
8552.503
8556.807
8561.034
8565.206
8569.27
8573.258
8577.176
8581.028
8584.814
8588.532
8592.179
8595.75
8599.238
8602.635
8605.935
8609.125
8612.199
8615.148
8617.964
8620.641
8623.173
8625.555
8627.782
8629.853
8631.774
8633.568
8635.194
8636.669
8638.007
8639.212
8640.293
8641.258
8642.115
8642.872
8643.538
8644.138
8644.667
8645.132
8645.536
8645.901
8646.229
8646.519
8646.794
8647.03
8647.237
8647.398
8647.418
8647.449
8647.498
8681.483
8681.263
8681.629
8682.041
8682.462
8682.881
8683.312
8683.758
8684.227
8684.715
8685.224
8685.752
8686.301
8686.87
8687.452
8688.025
8688.606
8689.229
8689.862
8690.497
8691.13
8691.755
8692.37
8692.969
8693.542
8694.081
8694.574
8695.003
8695.347
8695.573
8695.627
8695.421
8694.859
8693.639
8690.781
8686.932
8694.419
8699.771
8704.219
8708.082
8711.645
8715.007
8718.214
8721.321
8724.355
8727.331
8730.263
8733.159
8736.027
8738.872
8741.699
8744.509
8747.306
8750.091
8752.867
8755.635
8758.395
8761.15
8763.9
8766.647
8769.391
8772.133
8774.875
8777.617
8780.364
8783.119
8785.892
8788.72
8791.496
8794.099
8778.99
8775.955
8771.227
8774.205
8776.912
8778.962
8781.349
8783.951
8786.564
8789.182
8791.822
8794.509
8797.216
8799.934
8802.668
8805.41
8808.158
8810.909
8813.661
8816.415
8819.167
8821.919
8824.669
8827.417
8830.162
8832.904
8835.643
8838.377
8841.108
8843.836
8846.56
8849.282
8852.001
8854.719
8857.438
8860.158
8862.884
8865.617
8868.362
8871.128
8873.925
8876.769
8879.69
8882.725
8885.83
8888.624
8890.644
8892.278
8894.108
8896.104
8898.167
8900.302
8902.353
8903.273
8900.361
8905.617
8908.601
8910.377
8912.365
8914.325
8916.214
8918.098
8919.985
8921.871
8923.749
8925.612
8927.452
8929.269
8931.059
8932.819
8934.545
8936.233
8937.88
8939.485
8941.045
8942.56
8944.026
8945.444
8946.812
8948.129
8949.394
8950.606
8951.764
8952.868
8953.916
8954.908
8955.843
8956.721
8957.54
8958.301
8959.002
8959.643
8960.224
8960.744
8961.202
8961.597
8961.931
8962.201
8962.407
8962.549
8962.627
8962.64
8962.587
8962.467
8962.281
8962.027
8961.704
8961.313
8960.85
8960.316
8959.71
8959.029
8958.271
8957.435
8956.518
8955.516
8954.426
8953.244
8951.964
8950.581
8949.086
8947.47
8945.723
8943.83
8941.777
8939.541
8937.096
8934.407
8931.429
8928.095
8924.321
8919.988
8914.93
8908.825
8901.163
8891.583
8882.483
8888.524
8936.439
7589.22
7502.963
7395.448
7278.882
7155.22
7026.78
6895.709
6763.675
6631.491
6475.041
6349.125
6226.191
6106.488
5993.641
5886.578
5785.415
5689.651
5597.846
5466.542
5397.428
5317.407
5240.69
5170.744
5105.105
5044.163
4988.302
4937.686
4893.297
4858.094
4815.801
4790.47
4773.139
4762.027
4758.366
4761.445
4770.92
4786.963
4811.976
4816.77
4840.65
4868.838
4894.638
4918.411
4942.424
4961.796
4977.443
4988.669
4991.07
4991.214
4986.146
4974.25
4956.573
4934.653
4909.248
4882.159
4856.974
4739.51
4707.478
4686.684
4668.817
4655.24
4649.827
4655.288
4672.886
4702.205
4743.481
4798.768
4864.818
4940.062
5024.419
5118.947
5221.086
5331.508
5448.041
5566.296
5677.234
5767.59
5845.29
5928.265
6012.283
6089.195
6158.808
6225.582
6292.25
6359.31
6426.13
6491.888
6555.835
6617.243
6675.597
6730.213
6781.405
6832.146
6886.004
6942.729
6999.918
7055.538
7108.444
7158.747
7205.587
7246.997
7282.605
7313.55
7340.45
7365.66
7394.653
7428.166
7463.556
7498.399
7531.636
7563.438
7594.032
7623.656
7652.303
7679.884
7706.338
7731.743
7756.198
7779.783
7802.562
7824.59
7845.92
7866.589
7886.627
7906.087
7924.987
7943.353
7961.206
7978.55
7995.387
8011.714
8027.523
8042.804
8057.543
8071.723
8085.328
8098.345
8110.767
8122.583
8133.791
8144.389
8154.385
8163.792
8172.626
8180.911
8188.671
8195.94
8202.749
8209.137
8215.143
8220.811
8226.189
8231.346
8236.381
8241.326
8246.097
8250.599
8254.864
8258.984
8263.022
8266.998
8270.909
8274.752
8278.528
8282.237
8285.878
8289.444
8292.929
8296.323
8299.636
8302.838
8305.918
8308.872
8311.693
8314.373
8316.906
8319.291
8321.514
8323.584
8325.492
8327.26
8328.876
8330.34
8331.662
8332.85
8333.914
8334.86
8335.7
8336.442
8337.097
8337.671
8338.177
8338.622
8339.018
8339.371
8339.686
8339.971
8340.23
8340.475
8340.703
8340.927
8341.198
8341.583
8342.234
8406.099
8405.527
8405.522
8405.88
8406.253
8406.659
8407.09
8407.526
8407.983
8408.463
8408.966
8409.49
8410.033
8410.594
8411.168
8411.759
8412.368
8412.989
8413.613
8414.239
8414.865
8415.486
8416.097
8416.693
8417.265
8417.805
8418.301
8418.738
8419.096
8419.345
8419.444
8419.35
8419.013
8418.445
8417.885
8418.337
8421.292
8425.526
8429.295
8432.852
8436.259
8439.513
8442.66
8445.726
8448.73
8451.684
8454.598
8457.48
8460.336
8463.172
8465.991
8468.795
8471.588
8474.371
8477.145
8479.912
8482.672
8485.428
8488.179
8490.927
8493.672
8496.416
8499.159
8501.902
8504.65
8507.404
8510.173
8512.963
8515.863
8519.877
8462.456
8466.406
8468.163
8469.072
8470.539
8472.737
8475.296
8477.925
8480.539
8483.156
8485.8
8488.479
8491.188
8493.912
8496.646
8499.387
8502.133
8504.883
8507.635
8510.389
8513.142
8515.895
8518.646
8521.395
8524.142
8526.886
8529.627
8532.363
8535.096
8537.825
8540.551
8543.274
8545.994
8548.713
8551.431
8554.151
8556.873
8559.601
8562.339
8565.091
8567.861
8570.652
8573.455
8576.237
8578.927
8581.435
8583.677
8585.703
8587.679
8589.702
8591.749
8593.783
8595.707
8597.288
8598.308
8599.548
8601.64
8604.079
8606.369
8608.405
8610.293
8612.147
8614.011
8615.879
8617.737
8619.572
8621.383
8623.171
8624.933
8626.666
8628.366
8630.03
8631.655
8633.239
8634.779
8636.275
8637.724
8639.125
8640.476
8641.777
8643.026
8644.223
8645.366
8646.454
8647.488
8648.465
8649.385
8650.248
8651.052
8651.798
8652.484
8653.11
8653.675
8654.179
8654.622
8655.002
8655.32
8655.574
8655.765
8655.891
8655.953
8655.95
8655.88
8655.745
8655.543
8655.272
8654.934
8654.526
8654.047
8653.497
8652.875
8652.178
8651.404
8650.553
8649.62
8648.603
8647.5
8646.304
8645.012
8643.616
8642.112
8640.488
8638.737
8636.843
8634.797
8632.573
8630.157
8627.507
8624.605
8621.382
8617.815
8613.812
8609.395
8604.603
8599.94
8596.34
8595.473
8598.169
8605.002
3510.342
3521.66
3551.973
3593.814
3648.315
3713.553
3791.305
3880.75
3981.323
4093.903
4199.523
4331.758
4472.545
4622.759
4781.713
4948.236
5121.444
5300.408
5483.101
5664.154
5856.08
6048.187
6239.089
6425.049
6604.113
6773.711
6930.642
7070.936
7197.439
7298.462
7378.288
7436.351
7471.895
7484.663
7475.02
7443.897
7392.83
7323.503
7230.901
7134.852
7024.29
6904.825
6778.846
6648.707
6516.525
6384.379
6254.354
6127.29
6002.721
5884.447
5769.379
5659.788
5555.938
5457.89
5366.306
5284.947
5101.803
5024.889
4956.326
4887.516
4819.988
4756.256
4697.319
4643.325
4594.5
4550.961
4513.288
4483.238
4460.262
4444.269
4435.898
4435.408
4442.283
4455.602
4474.087
4496.359
4521.934
4548.865
4576.297
4603.783
4630.128
4653.921
4673.799
4688.807
4698.186
4701.731
4698.68
4688.852
4672.747
4650.906
4623.881
4592.433
4557.498
4519.819
4478.926
4442.705
4414.581
4391.091
4373.478
4365.084
4368.265
4384.014
4412.672
4454.099
4507.356
4571.94
4647.405
4733.391
4828.862
4932.229
5041.109
5153.02
5264.461
5374.682
5476.404
5564.334
5648.672
5735.091
5818.628
5895.305
5966.773
6036.217
6104.926
6172.577
6238.519
6302.37
6363.902
6422.939
6479.529
6533.89
6587.244
6641.905
6698.167
6754.365
6809.303
6861.926
6911.648
6958.531
7001.31
7039.437
7073.668
7105.4
7135.113
7164.887
7197.109
7231.094
7264.993
7297.689
7328.95
7358.9
7387.63
7415.249
7441.881
7467.545
7492.271
7516.127
7539.178
7561.474
7583.062
7603.984
7624.282
7644.021
7663.213
7681.883
7699.981
7717.614
7734.778
7751.465
7767.666
7783.369
7798.564
7813.236
7827.364
7840.931
7853.921
7866.322
7878.123
7889.317
7899.9
7909.876
7919.256
7928.057
7936.302
7944.018
7951.236
7957.991
7964.325
7970.285
7975.93
7981.282
7986.355
7991.246
7996.012
8000.622
8005.029
8009.249
8013.342
8017.353
8021.297
8025.181
8029.006
8032.77
8036.474
8040.116
8043.689
8047.189
8050.604
8053.926
8057.141
8060.244
8063.226
8066.08
8068.796
8071.368
8073.787
8076.057
8078.166
8080.1
8081.925
8083.578
8085.073
8086.422
8087.635
8088.718
8089.681
8090.534
8091.285
8091.945
8092.524
8093.033
8093.48
8093.873
8094.222
8094.533
8094.817
8095.08
8095.329
8095.586
8095.858
8096.186
8096.611
8097.205
8098.086
8098.84
8099.135
8099.316
8099.598
8099.982
8100.424
8100.868
8101.326
8101.81
8102.317
8102.843
8103.388
8103.95
8104.525
8105.116
8105.721
8106.343
8106.958
8107.58
8108.204
8108.824
8109.436
8110.034
8110.613
8111.165
8111.681
8112.15
8112.56
8112.903
8113.176
8113.401
8113.603
8113.913
8114.594
8115.99
8118.307
8121.33
8124.582
8127.802
8130.932
8133.99
8136.999
8139.969
8142.901
8145.801
8148.672
8151.521
8154.351
8157.167
8159.969
8162.761
8165.545
8168.32
8171.089
8173.852
8176.611
8179.365
8182.116
8184.863
8187.608
8190.351
8193.091
8195.834
8198.572
8201.318
8204.052
8206.798
8209.508
8212.361
8214.886
8216.631
8218.549
8220.982
8223.738
8226.581
8229.4
8232.169
8234.897
8237.605
8240.314
8243.033
8245.765
8248.504
8251.247
8253.994
8256.744
8259.496
8262.25
8265.005
8267.76
8270.514
8273.267
8276.019
8278.767
8281.513
8284.256
8286.995
8289.73
8292.461
8295.189
8297.913
8300.634
8303.352
8306.068
8308.783
8311.499
8314.217
8316.938
8319.664
8322.393
8325.118
8327.824
8330.485
8333.072
8335.548
8337.87
8340.031
8342.094
8344.139
8346.189
8348.219
8350.213
8352.27
8354.587
8356.806
8358.675
8360.336
8361.976
8363.662
8365.392
8367.157
8368.95
8370.761
8372.574
8374.379
8376.167
8377.934
8379.678
8381.395
8383.082
8384.734
8386.349
8387.924
8389.458
8390.948
8392.392
8393.79
8395.138
8396.437
8397.684
8398.879
8400.021
8401.109
8402.142
8403.118
8404.038
8404.901
8405.705
8406.451
8407.137
8407.763
8408.328
8408.832
8409.275
8409.655
8409.973
8410.227
8410.418
8410.544
8410.606
8410.603
8410.534
8410.398
8410.196
8409.927
8409.589
8409.182
8408.705
8408.157
8407.537
8406.843
8406.074
8405.227
8404.301
8403.292
8402.198
8401.015
8399.738
8398.362
8396.881
8395.287
8393.572
8391.726
8389.737
8387.592
8385.273
8382.762
8380.036
8377.077
8373.872
8370.443
8366.867
8363.332
8360.158
8357.744
8356.511
8357.058
8359.781
3522.79
3482.636
3445.282
3394.798
3358.424
3301.652
3287.521
3290.978
3307.599
3299.081
3267.834
3246.472
3243.777
3256.148
3281.99
3320.25
3370.058
3431.212
3503.66
3587.701
3682.811
3788.777
3905.1
4032.445
4169.413
4316.302
4471.721
4634.59
4804.343
4978.877
5160.349
5326.45
5518.252
5709.296
5896.79
6079.373
6254.597
6420.496
6574.527
6715.142
6837.754
6937.477
7014.474
7068.912
7100.387
7108.709
7094.424
7058.735
7003.318
6930.474
6842.555
6741.808
6629.925
6509.244
6382.344
6251.701
6119.703
5988.329
5859.137
5733.674
5612.626
5496.525
5385.614
5280.218
5180.61
5086.625
4997.661
4912.453
4828.291
4751.547
4682.276
4614.433
4547.792
4484.3
4425.075
4370.488
4320.779
4276.732
4239.285
4208.683
4185.505
4170.58
4164.154
4166.029
4175.65
4192.138
4214.531
4241.682
4271.803
4303.343
4335.754
4368.006
4398.502
4425.67
4448.108
4464.837
4475.072
4478.108
4473.563
4461.511
4442.131
4415.845
4383.275
4345.399
4303.156
4258.306
4213.11
4170.92
4134.256
4103.963
4081.521
4069.202
4068.972
4081.844
4108.016
4147.084
4198.503
4262.138
4337.602
4423.45
4518.458
4621.21
4729.504
4841.215
4953.716
5064.874
5170.35
5267.308
5359.333
5449.701
5536.838
5618.557
5695.28
5768.822
5840.342
5909.947
5977.385
6042.53
6105.361
6165.951
6224.518
6281.286
6337.068
6393.135
6449.641
6505.69
6560.405
6613.065
6663.155
6710.42
6754.366
6794.806
6832.008
6866.768
6899.698
6932.096
6965.233
6998.933
7032.331
7064.677
7095.56
7124.994
7153.138
7180.097
7205.991
7230.938
7254.996
7278.222
7300.678
7322.416
7343.482
7363.919
7383.772
7403.078
7421.856
7440.129
7457.967
7475.314
7492.191
7508.624
7524.617
7540.149
7555.201
7569.754
7583.785
7597.275
7610.203
7622.556
7634.32
7645.484
7656.04
7665.984
7675.328
7684.088
7692.285
7699.945
7707.1
7713.786
7720.043
7725.921
7731.448
7736.692
7741.698
7746.49
7751.122
7755.598
7759.908
7764.066
7768.107
7772.061
7775.949
7779.78
7783.557
7787.281
7790.951
7794.565
7798.117
7801.6
7805.006
7808.324
7811.547
7814.662
7817.662
7820.537
7823.279
7825.879
7828.332
7830.637
7832.789
7834.806
7836.618
7838.294
7839.819
7841.198
7842.438
7843.548
7844.534
7845.406
7846.174
7846.848
7847.439
7847.957
7848.411
7848.81
7849.164
7849.481
7849.772
7850.046
7850.311
7850.583
7850.874
7851.205
7851.569
7851.993
7852.37
7852.721
7853.132
7853.648
7854.162
7854.622
7855.075
7855.534
7856.003
7856.487
7856.989
7857.508
7858.043
7858.595
7859.156
7859.743
7860.342
7860.944
7861.569
7862.196
7862.823
7863.449
7864.07
7864.682
7865.281
7865.861
7866.419
7866.949
7867.451
7867.927
7868.388
7868.86
7869.398
7870.104
7871.115
7872.588
7874.652
7877.261
7880.171
7883.143
7886.088
7889.006
7891.907
7894.795
7897.664
7900.515
7903.348
7906.166
7908.972
7911.768
7914.556
7917.336
7920.11
7922.88
7925.644
7928.404
7931.161
7933.915
7936.665
7939.412
7942.157
7944.9
7947.64
7950.378
7953.112
7955.844
7958.568
7961.286
7963.988
7966.603
7969.124
7971.712
7974.359
7976.953
7979.475
7981.998
7984.568
7987.183
7989.822
7992.474
7995.142
7997.827
8000.53
8003.246
8005.972
8008.705
8011.444
8014.187
8016.935
8019.685
8022.436
8025.187
8027.939
8030.689
8033.437
8036.183
8038.926
8041.666
8044.402
8047.134
8049.861
8052.585
8055.305
8058.021
8060.733
8063.443
8066.15
8068.854
8071.556
8074.253
8076.942
8079.613
8082.256
8084.855
8087.393
8089.843
8092.183
8094.405
8096.54
8098.636
8100.721
8102.8
8104.882
8106.977
8109.031
8110.893
8112.624
8114.372
8116.196
8118.066
8119.939
8121.798
8123.648
8125.489
8127.321
8129.136
8130.933
8132.707
8134.457
8136.177
8137.865
8139.518
8141.134
8142.709
8144.242
8145.732
8147.176
8148.573
8149.922
8151.221
8152.469
8153.664
8154.807
8155.895
8156.929
8157.906
8158.827
8159.69
8160.496
8161.242
8161.929
8162.556
8163.122
8163.627
8164.07
8164.451
8164.769
8165.024
8165.216
8165.343
8165.406
8165.403
8165.335
8165.201
8165.001
8164.733
8164.397
8163.992
8163.518
8162.974
8162.358
8161.67
8160.907
8160.068
8159.151
8158.155
8157.075
8155.909
8154.653
8153.304
8151.855
8150.301
8148.635
8146.849
8144.937
8142.89
8140.697
8138.35
8135.842
8133.175
8130.369
8127.464
8124.564
8121.783
8119.352
8117.396
8116.274
8116.074
8117.244
3917.251
3874.228
3831.341
3763.376
3703.831
3609.178
3548.624
3488.044
3428.015
3369.012
3311.642
3258.705
3207.417
3159.753
3117.851
3080.613
2984.729
2964.055
2951.479
2941.703
2928.863
2917.115
2912.459
2918.062
2934.942
2963.285
3003.109
3054.287
3116.291
3188.843
3272.944
3368.824
3475.769
3593.607
3721.927
3860.075
4007.382
4163.415
4327.363
4497.898
4674.127
4856.138
5033.944
5220.588
5407.731
5592.35
5772.657
5946.637
6112.308
6265.79
6405.873
6528.415
6629.167
6706.641
6760.642
6791.181
6798.409
6783.024
6746.284
6689.954
6616.045
6526.901
6425.235
6313.214
6192.868
6066.598
5936.844
5806.014
5675.955
5548.133
5424.442
5305.268
5190.554
5081.548
4979.102
4883.059
4792.783
4707.18
4625.817
4548.29
4475.475
4406.787
4339.941
4274.283
4210.741
4150.374
4093.922
4042.056
3995.77
3956.105
3923.969
3900.369
3886.033
3881.143
3885.411
3898.288
3919.051
3946.815
3979.894
4016.673
4055.739
4095.739
4135.071
4171.944
4204.596
4231.475
4251.407
4263.453
4266.94
4261.485
4247.012
4223.615
4191.784
4152.383
4106.536
4055.631
4001.724
3947.194
3894.732
3847.377
3807.715
3777.624
3758.954
3753.445
3761.985
3784.505
3820.509
3869.709
3931.763
4006.083
4091.301
4186.198
4289.612
4399.746
4514.332
4630.535
4745.412
4856.21
4961.263
5061.078
5156.842
5248.546
5335.466
5417.489
5495.468
5570.339
5642.528
5712.159
5779.267
5843.986
5906.542
5967.232
6026.37
6084.459
6142.116
6199.453
6255.99
6311.096
6364.25
6415.04
6463.221
6508.583
6551.045
6590.738
6628.15
6663.861
6698.566
6732.872
6766.874
6800.234
6832.442
6863.163
6892.375
6920.209
6946.799
6972.263
6996.693
7020.168
7042.774
7064.592
7085.693
7106.133
7125.965
7145.235
7163.982
7182.238
7200.036
7217.409
7234.359
7250.903
7266.973
7282.651
7297.916
7312.738
7327.09
7340.951
7354.294
7367.096
7379.341
7391.019
7402.117
7412.614
7422.502
7431.793
7440.5
7448.642
7456.243
7463.332
7469.945
7476.121
7481.899
7487.307
7492.439
7497.369
7502.075
7506.583
7510.93
7515.13
7519.197
7523.155
7527.031
7530.843
7534.602
7538.313
7541.977
7545.594
7549.16
7552.67
7556.119
7559.496
7562.792
7565.998
7569.103
7572.098
7574.973
7577.721
7580.334
7582.804
7585.128
7587.301
7589.323
7591.184
7592.896
7594.459
7595.874
7597.147
7598.287
7599.303
7600.204
7600.998
7601.697
7602.31
7602.848
7603.32
7603.736
7604.106
7604.439
7604.745
7605.033
7605.314
7605.598
7605.894
7606.211
7606.545
7606.909
7607.287
7607.727
7608.209
7608.68
7609.112
7609.522
7609.946
7610.39
7610.848
7611.323
7611.817
7612.33
7612.861
7613.409
7613.982
7614.559
7615.153
7615.758
7616.376
7617.002
7617.633
7618.267
7618.9
7619.531
7620.157
7620.775
7621.384
7621.984
7622.578
7623.176
7623.793
7624.461
7625.231
7626.171
7627.368
7628.913
7630.876
7633.235
7635.862
7638.604
7641.38
7644.168
7646.965
7649.767
7652.569
7655.365
7658.154
7660.937
7663.714
7666.486
7669.254
7672.019
7674.781
7677.539
7680.296
7683.05
7685.801
7688.551
7691.297
7694.042
7696.784
7699.523
7702.259
7704.991
7707.718
7710.44
7713.152
7715.85
7718.524
7721.158
7723.807
7726.465
7729.042
7731.532
7734.018
7736.56
7739.166
7741.812
7744.476
7747.149
7749.83
7752.524
7755.23
7757.947
7760.672
7763.404
7766.142
7768.884
7771.63
7774.379
7777.129
7779.88
7782.631
7785.381
7788.13
7790.876
7793.62
7796.36
7799.096
7801.828
7804.556
7807.279
7809.997
7812.71
7815.418
7818.121
7820.817
7823.508
7826.19
7828.862
7831.518
7834.152
7836.755
7839.315
7841.819
7844.25
7846.597
7848.858
7851.047
7853.191
7855.313
7857.42
7859.507
7861.554
7863.531
7865.44
7867.327
7869.217
7871.11
7872.997
7874.868
7876.724
7878.568
7880.403
7882.229
7884.04
7885.832
7887.603
7889.348
7891.063
7892.747
7894.397
7896.009
7897.582
7899.114
7900.602
7902.045
7903.442
7904.79
7906.089
7907.338
7908.534
7909.678
7910.767
7911.802
7912.781
7913.703
7914.568
7915.375
7916.122
7916.811
7917.439
7918.006
7918.513
7918.957
7919.339
7919.659
7919.915
7920.108
7920.236
7920.3
7920.299
7920.233
7920.1
7919.902
7919.636
7919.303
7918.902
7918.432
7917.893
7917.283
7916.601
7915.846
7915.018
7914.113
7913.131
7912.069
7910.925
7909.695
7908.377
7906.967
7905.46
7903.851
7902.136
7900.311
7898.374
7896.319
7894.147
7891.861
7889.476
7887.022
7884.544
7882.125
7879.854
7877.876
7876.291
7875.319
7874.972
7875.552
4198.807
4153.937
4104.802
4041.666
3993.102
3908.981
3860.768
3811.405
3760.249
3708.313
3655.81
3602.231
3547.146
3490.759
3430.897
3300.117
3239.28
3179.135
3119.121
3059.847
3001.974
2946.614
2893.979
2844.563
2799.585
2760.374
2727.157
2700.242
2679.093
2661.888
2647.892
2639.233
2637.977
2645.649
2663.15
2690.873
2729.142
2778.309
2838.801
2910.638
2993.56
3087.65
3192.87
3309.025
3435.676
3572.223
3717.936
3872.106
4034.046
4202.867
4377.732
4557.034
4737.321
4920.903
5104.672
5287.432
5465.548
5638.075
5802.132
5954.018
6091.196
6210.42
6308.417
6383.162
6434.067
6461.223
6465.072
6446.521
6406.915
6348.113
6272.224
6181.624
6078.88
5966.386
5846.45
5721.23
5593.085
5464.696
5337.739
5213.533
5093.113
4977.089
4866.255
4761.777
4664.618
4574.34
4489.994
4410.534
4335.328
4263.53
4194.339
4127.062
4060.737
3994.899
3930.062
3867.222
3807.361
3751.577
3701.239
3657.986
3623.455
3598.943
3585.159
3582.266
3590.005
3607.795
3634.574
3670.103
3711.713
3758.003
3807.266
3857.529
3906.693
3952.621
3993.187
4026.475
4051.021
4065.672
4069.752
4062.85
4044.937
4016.203
3977.194
3928.943
3872.705
3810.25
3743.701
3675.559
3609.096
3548.17
3496.458
3456.336
3429.679
3418.128
3422.043
3440.802
3473.648
3520.077
3580.163
3653.382
3738.511
3834.406
3939.908
4053.376
4172.475
4294.207
4415.453
4533.601
4647.004
4755.028
4857.768
4955.401
5047.859
5135.153
5217.773
5296.451
5371.797
5444.17
5513.734
5580.769
5645.619
5708.64
5770.142
5830.448
5889.891
5948.544
6006.105
6062.13
6116.237
6168.119
6217.575
6264.473
6308.789
6350.631
6390.301
6428.192
6464.709
6500.213
6534.846
6568.472
6600.812
6631.65
6660.943
6688.769
6715.236
6740.446
6764.496
6787.491
6809.536
6830.733
6851.172
6870.931
6890.078
6908.673
6926.766
6944.4
6961.61
6978.421
6994.847
7010.885
7026.579
7041.86
7056.755
7071.252
7085.316
7098.923
7112.044
7124.654
7136.726
7148.251
7159.234
7169.623
7179.403
7188.606
7197.236
7205.305
7212.833
7219.85
7226.389
7232.488
7238.187
7243.533
7248.589
7253.38
7257.954
7262.34
7266.565
7270.652
7274.617
7278.483
7282.271
7285.999
7289.678
7293.313
7296.905
7300.455
7303.959
7307.413
7310.809
7314.138
7317.393
7320.561
7323.635
7326.604
7329.46
7332.194
7334.798
7337.265
7339.59
7341.769
7343.8
7345.679
7347.41
7348.995
7350.44
7351.744
7352.916
7353.964
7354.897
7355.723
7356.453
7357.097
7357.664
7358.164
7358.607
7359.002
7359.36
7359.689
7359.999
7360.299
7360.598
7360.903
7361.221
7361.557
7361.919
7362.312
7362.736
7363.166
7363.585
7363.995
7364.408
7364.835
7365.28
7365.739
7366.213
7366.705
7367.214
7367.742
7368.287
7368.851
7369.43
7370.023
7370.631
7371.253
7371.885
7372.525
7373.171
7373.822
7374.476
7375.133
7375.792
7376.454
7377.122
7377.804
7378.51
7379.26
7380.083
7381.019
7382.117
7383.434
7385.026
7386.925
7389.12
7391.541
7394.1
7396.73
7399.401
7402.099
7404.818
7407.55
7410.288
7413.029
7415.772
7418.516
7421.261
7424.006
7426.751
7429.497
7432.242
7434.988
7437.733
7440.477
7443.22
7445.961
7448.701
7451.438
7454.173
7456.904
7459.63
7462.351
7465.064
7467.767
7470.456
7473.13
7475.789
7478.439
7481.054
7483.614
7486.145
7488.695
7491.286
7493.914
7496.565
7499.228
7501.899
7504.58
7507.271
7509.974
7512.687
7515.408
7518.137
7520.871
7523.61
7526.353
7529.1
7531.848
7534.598
7537.347
7540.097
7542.845
7545.591
7548.335
7551.075
7553.811
7556.543
7559.27
7561.992
7564.708
7567.417
7570.12
7572.816
7575.503
7578.18
7580.846
7583.497
7586.129
7588.736
7591.31
7593.844
7596.326
7598.747
7601.102
7603.39
7605.616
7607.796
7609.946
7612.067
7614.157
7616.206
7618.216
7620.196
7622.152
7624.082
7625.991
7627.884
7629.763
7631.631
7633.487
7635.332
7637.163
7638.978
7640.773
7642.545
7644.29
7646.006
7647.689
7649.339
7650.951
7652.524
7654.056
7655.545
7656.99
7658.388
7659.738
7661.038
7662.289
7663.487
7664.633
7665.724
7666.761
7667.742
7668.667
7669.534
7670.343
7671.092
7671.783
7672.413
7672.983
7673.491
7673.937
7674.321
7674.643
7674.901
7675.095
7675.225
7675.291
7675.293
7675.228
7675.099
7674.903
7674.64
7674.311
7673.914
7673.45
7672.916
7672.314
7671.64
7670.896
7670.08
7669.19
7668.225
7667.184
7666.064
7664.865
7663.583
7662.216
7660.762
7659.217
7657.578
7655.847
7654.024
7652.11
7650.111
7648.036
7645.904
7643.748
7641.611
7639.558
7637.663
7636.027
7634.731
7633.9
7633.546
7633.878
4157.701
4121.672
4088.702
4035.579
3976.493
3919.572
3864.631
3813.029
3764.122
3714.817
3597.006
3548.51
3500.02
3450.304
3399.052
3346.356
3292.219
3236.379
3178.964
3120.746
3063.019
3003.022
2942.569
2881.915
2821.726
2762.416
2704.849
2649.215
2595.988
2546.297
2501.395
2462.992
2430.792
2404.288
2383.299
2368.335
2360.554
2360.784
2369.853
2388.354
2416.686
2454.994
2503.754
2563.233
2633.675
2715.156
2807.715
2911.322
3025.779
3150.657
3285.373
3429.219
3581.416
3741.289
3907.759
4079.441
4254.306
4431.823
4610.81
4791.086
4971.09
5147.156
5316.732
5476.984
5624.625
5756.643
5870.162
5962.524
6031.773
6077.162
6098.767
6097.307
6073.915
6030.128
5967.905
5889.411
5797.202
5693.587
5581.076
5462.417
5339.658
5214.859
5089.9
4966.556
4846.944
4731.612
4621.22
4517.538
4421.283
4332.574
4250.807
4174.941
4103.777
4036.057
3970.483
3905.902
3841.239
3775.642
3708.921
3641.642
3575.008
3510.147
3448.375
3391.876
3343.35
3305.143
3279.085
3265.974
3265.88
3278.482
3303.198
3339.16
3383.752
3436.468
3495.207
3557.675
3621.336
3683.555
3741.596
3792.856
3834.912
3865.757
3883.82
3888.289
3878.848
3855.67
3819.638
3771.813
3712.706
3643.521
3566.395
3483.501
3397.841
3313.865
3236.519
3169.968
3117.446
3081.778
3064.117
3063.383
3077.975
3107.013
3150.655
3209.149
3281.551
3366.729
3463.992
3572.386
3690.508
3816.084
3945.835
4076.065
4203.613
4326.359
4443.06
4553.433
4657.665
4755.998
4848.696
4936.213
5019.144
5098.113
5173.646
5246.1
5315.855
5383.332
5448.909
5512.885
5575.51
5636.987
5697.336
5756.341
5813.693
5869.107
5922.344
5973.239
6021.71
6067.766
6111.5
6153.08
6192.766
6230.841
6267.553
6303.01
6337.163
6369.879
6401.034
6430.581
6458.563
6485.067
6510.187
6534.02
6556.675
6578.268
6598.914
6618.725
6637.8
6656.229
6674.093
6691.458
6708.38
6724.903
6741.059
6756.867
6772.341
6787.498
6802.307
6816.744
6830.811
6844.498
6857.767
6870.578
6882.918
6894.764
6906.063
6916.885
6927.109
6936.706
6945.774
6954.289
6962.255
6969.691
6976.621
6983.077
6989.097
6994.715
6999.988
7004.992
7009.639
7014.098
7018.367
7022.475
7026.449
7030.311
7034.082
7037.779
7041.418
7045.01
7048.561
7052.072
7055.545
7058.975
7062.357
7065.686
7068.954
7072.149
7075.264
7078.289
7081.213
7084.031
7086.732
7089.308
7091.753
7094.062
7096.23
7098.255
7100.135
7101.871
7103.467
7104.924
7106.254
7107.452
7108.528
7109.492
7110.352
7111.116
7111.794
7112.396
7112.931
7113.408
7113.837
7114.227
7114.587
7114.926
7115.251
7115.572
7115.894
7116.225
7116.571
7116.935
7117.319
7117.715
7118.118
7118.526
7118.939
7119.359
7119.789
7120.233
7120.691
7121.164
7121.653
7122.16
7122.685
7123.229
7123.791
7124.369
7124.964
7125.573
7126.199
7126.839
7127.489
7128.149
7128.818
7129.497
7130.185
7130.885
7131.599
7132.332
7133.093
7133.894
7134.752
7135.694
7136.749
7137.955
7139.349
7140.964
7142.817
7144.901
7147.178
7149.594
7152.099
7154.663
7157.269
7159.907
7162.569
7165.248
7167.94
7170.64
7173.348
7176.062
7178.782
7181.505
7184.232
7186.962
7189.694
7192.428
7195.162
7197.898
7200.632
7203.366
7206.098
7208.828
7211.554
7214.275
7216.99
7219.698
7222.396
7225.083
7227.757
7230.417
7233.056
7235.67
7238.262
7240.847
7243.442
7246.054
7248.686
7251.333
7253.992
7256.661
7259.341
7262.03
7264.731
7267.44
7270.159
7272.884
7275.616
7278.352
7281.093
7283.838
7286.584
7289.333
7292.082
7294.831
7297.578
7300.324
7303.068
7305.808
7308.544
7311.275
7314.001
7316.721
7319.435
7322.141
7324.839
7327.528
7330.207
7332.873
7335.526
7338.16
7340.774
7343.361
7345.916
7348.432
7350.902
7353.319
7355.681
7357.987
7360.241
7362.45
7364.623
7366.764
7368.871
7370.946
7372.991
7375.006
7376.989
7378.942
7380.872
7382.786
7384.687
7386.575
7388.448
7390.306
7392.147
7393.969
7395.769
7397.545
7399.293
7401.011
7402.697
7404.348
7405.962
7407.538
7409.072
7410.563
7412.01
7413.41
7414.763
7416.066
7417.319
7418.521
7419.669
7420.764
7421.804
7422.788
7423.715
7424.585
7425.397
7426.15
7426.843
7427.476
7428.048
7428.559
7429.008
7429.394
7429.718
7429.979
7430.176
7430.309
7430.377
7430.381
7430.32
7430.193
7430.001
7429.743
7429.418
7429.027
7428.568
7428.042
7427.448
7426.785
7426.053
7425.25
7424.377
7423.432
7422.414
7421.322
7420.156
7418.913
7417.593
7416.195
7414.717
7413.159
7411.523
7409.814
7408.038
7406.2
7404.316
7402.407
7400.501
7398.64
7396.877
7395.273
7393.898
7392.814
7392.099
7391.762
7391.97
3912.827
3857.654
3735.998
3685.354
3633.799
3583.806
3535.606
3488.927
3443.184
3398.062
3353.622
3307.568
3260.289
3211.496
3161.128
3108.92
3054.853
2998.844
2940.884
2881.67
2822.702
2762.726
2701.762
2640.204
2578.289
2516.166
2454.935
2395.571
2338.889
2285.712
2237.392
2195.353
2159.964
2131.068
2108.828
2093.685
2086.289
2087.157
2096.798
2115.582
2143.781
2181.879
2230.026
2288.53
2357.689
2437.727
2528.757
2630.744
2743.481
2866.533
2999.32
3141.14
3291.102
3448.425
3611.402
3778.253
3948.081
4120.863
4296.605
4473.645
4649.645
4821.426
4985.915
5140.085
5280.833
5405.102
5510.25
5594.035
5654.871
5692.147
5706.041
5697.545
5667.958
5619.219
5553.228
5472.239
5379.111
5276.049
5165.283
5048.814
4928.761
4807.753
4687.035
4568.351
4454.364
4346.269
4244.731
4150.762
4064.742
3986.456
3915.21
3849.893
3788.977
3730.453
3672.423
3613.448
3551.958