/*--------------------------------*- C++ -*----------------------------------*\
| =========                 |                                                 |
| \\      /  F ield         | foam-extend: Open Source CFD                    |
|  \\    /   O peration     | Version:     3.1                                |
|   \\  /    A nd           | Web:         http://www.extend-project.de       |
|    \\/     M anipulation  |                                                 |
\*---------------------------------------------------------------------------*/
FoamFile
{
    version     2.0;
    format      ascii;
    class       volScalarField;
    location    "7.5";
    object      pd;
}
// * * * * * * * * * * * * * * * * * * * * * * * * * * * * * * * * * * * * * //

dimensions      [1 -1 -2 0 0 0 0];

internalField   nonuniform List<scalar> 
119952
(
7215.992
6499.575
6405.313
6554.591
6715.244
6715.977
6763.008
6819.957
6883.405
6949.512
7017
7085.022
7152.931
7219.662
7283.461
7339.862
7378.726
7407.483
7455.875
7506.427
7604.594
7640.491
7685.437
7774.55
7810.431
7848.929
7884.654
7924.689
7978.875
9465.873
5385.004
5374.946
5395.021
5420.386
5446.064
5470.113
5491.216
5510.587
5527.417
5529.063
5529.372
5541.129
5536.147
5527.063
5512.312
5493.44
5471.555
5446.653
5423.15
5390.946
5372.093
5333.971
5308.881
5296.171
5291.267
5296.056
5312.231
5340.26
5384.269
5424.758
5486.256
5562.896
5648.27
5740.493
5840.486
5945.194
6058.873
6206.545
6396.671
6404.595
6440.359
6562.655
6658.083
6719.331
6770.77
6831.148
6895.905
6961.726
7028.528
7095.458
7161.55
7225.742
7286.215
7340.029
7386.638
7429.482
7480.243
7537.683
7597.607
7655.618
7706.249
7762.116
7818.207
7856.019
7890.125
7921.939
7943.387
7951.033
7981.734
8018.956
8055.441
8091.735
8126.987
8160.825
8193.313
8224.347
8254.046
8282.459
8309.643
8335.687
8360.695
8384.768
8407.979
8430.402
8452.092
8473.098
8493.455
8513.211
8532.404
8551.045
8569.151
8586.734
8603.798
8620.34
8636.355
8651.831
8666.757
8681.119
8694.903
8708.091
8720.695
8732.685
8744.065
8754.835
8765.002
8774.578
8783.579
8792.029
8799.95
8807.372
8814.329
8820.855
8826.967
8832.706
8838.089
8843.207
8848.503
8853.978
8859.066
8863.369
8867.596
8871.768
8875.833
8879.821
8883.738
8887.591
8891.377
8895.095
8898.741
8902.312
8905.8
8909.198
8912.498
8915.688
8918.761
8921.71
8924.526
8927.203
8929.735
8932.118
8934.345
8936.415
8938.336
8940.13
8941.756
8943.231
8944.569
8945.775
8946.856
8947.82
8948.677
8949.435
8950.1
8950.7
8951.229
8951.695
8952.099
8952.463
8952.791
8953.081
8953.356
8953.592
8953.799
8953.96
8953.981
8954.011
8954.06
8957.389
8957.169
8957.536
8957.947
8958.368
8958.787
8959.218
8959.665
8960.133
8960.62
8961.129
8961.658
8962.207
8962.776
8963.358
8963.931
8964.512
8965.135
8965.768
8966.403
8967.036
8967.661
8968.276
8968.875
8969.448
8969.987
8970.48
8970.909
8971.253
8971.479
8971.533
8971.327
8970.765
8969.545
8966.687
8962.838
8970.326
8975.677
8980.125
8983.988
8987.551
8990.914
8994.12
8997.227
9000.261
9003.238
9006.17
9009.065
9011.933
9014.778
9017.606
9020.416
9023.212
9025.997
9028.773
9031.541
9034.302
9037.056
9039.807
9042.553
9045.297
9048.039
9050.781
9053.523
9056.27
9059.025
9061.798
9064.626
9067.402
9070.005
9085.552
9082.518
9077.789
9080.767
9083.474
9085.524
9087.911
9090.513
9093.126
9095.745
9098.385
9101.072
9103.778
9106.496
9109.23
9111.972
9114.72
9117.471
9120.224
9122.977
9125.73
9128.481
9131.231
9133.979
9136.725
9139.467
9142.205
9144.94
9147.671
9150.398
9153.122
9155.844
9158.563
9161.282
9164
9166.721
9169.446
9172.179
9174.925
9177.691
9180.488
9183.332
9186.252
9189.288
9192.393
9195.186
9197.207
9198.84
9200.67
9202.667
9204.73
9206.864
9208.915
9209.836
9206.923
9212.179
9215.163
9216.939
9218.927
9220.888
9222.777
9224.66
9226.547
9228.434
9230.311
9232.175
9234.015
9235.831
9237.621
9239.381
9241.107
9242.795
9244.442
9246.047
9247.608
9249.122
9250.589
9252.007
9253.375
9254.692
9255.957
9257.168
9258.327
9259.43
9260.479
9261.471
9262.406
9263.283
9264.103
9264.863
9265.565
9266.206
9266.787
9267.306
9267.764
9268.16
9268.493
9268.763
9268.969
9269.112
9269.189
9269.202
9269.149
9269.03
9268.843
9268.589
9268.267
9267.875
9267.413
9266.879
9266.272
9265.591
9264.833
9263.997
9263.08
9262.078
9260.989
9259.807
9258.527
9257.143
9255.648
9254.032
9252.285
9250.393
9248.34
9246.103
9243.658
9240.969
9237.991
9234.657
9230.884
9226.551
9221.492
9215.388
9207.725
9198.146
9189.045
9195.087
9243.002
8123.063
8033.524
7922.742
7802.908
7675.979
7544.271
7409.933
7274.632
7139.344
6996.197
6870.281
6747.347
6627.644
6514.798
6407.734
6306.571
6210.808
6119.002
6018.354
5949.241
5869.219
5792.502
5722.556
5656.918
5595.976
5540.115
5489.499
5445.109
5409.907
5367.613
5342.282
5324.951
5313.839
5310.178
5313.257
5322.732
5338.775
5363.788
5368.582
5392.462
5420.65
5446.45
5470.223
5494.236
5513.609
5529.256
5540.481
5542.881
5543.025
5537.959
5526.062
5508.383
5486.464
5461.06
5433.971
5408.787
5352.634
5320.6
5299.801
5281.933
5268.358
5262.946
5268.409
5286.007
5315.323
5356.595
5411.883
5477.934
5553.179
5637.537
5732.065
5834.204
5944.627
6061.161
6179.416
6290.356
6380.712
6458.413
6541.388
6625.406
6702.318
6771.932
6838.706
6905.375
6972.434
7039.255
7105.013
7168.96
7230.367
7288.721
7343.337
7394.53
7445.271
7499.129
7555.854
7613.042
7668.663
7721.569
7771.872
7818.712
7860.122
7895.73
7926.674
7953.575
7978.785
8007.778
8041.291
8076.681
8111.524
8144.761
8176.563
8207.157
8236.781
8265.428
8293.009
8319.463
8344.867
8369.323
8392.908
8415.687
8437.715
8459.045
8479.714
8499.752
8519.212
8538.112
8556.478
8574.331
8591.675
8608.512
8624.839
8640.648
8655.929
8670.668
8684.848
8698.453
8711.47
8723.892
8735.708
8746.916
8757.514
8767.511
8776.917
8785.751
8794.036
8801.796
8809.065
8815.874
8822.262
8828.268
8833.936
8839.314
8844.471
8849.506
8854.451
8859.222
8863.724
8867.989
8872.109
8876.147
8880.123
8884.034
8887.877
8891.653
8895.362
8899.003
8902.569
8906.054
8909.448
8912.761
8915.963
8919.043
8921.997
8924.818
8927.498
8930.031
8932.416
8934.639
8936.709
8938.617
8940.385
8942.001
8943.465
8944.787
8945.975
8947.038
8947.985
8948.825
8949.567
8950.222
8950.796
8951.302
8951.747
8952.143
8952.496
8952.811
8953.096
8953.355
8953.6
8953.828
8954.052
8954.323
8954.708
8955.359
8957.911
8957.339
8957.334
8957.692
8958.065
8958.472
8958.902
8959.338
8959.795
8960.276
8960.778
8961.302
8961.846
8962.407
8962.981
8963.571
8964.18
8964.801
8965.426
8966.052
8966.677
8967.298
8967.91
8968.505
8969.078
8969.617
8970.113
8970.55
8970.909
8971.158
8971.257
8971.162
8970.826
8970.257
8969.697
8970.15
8973.104
8977.339
8981.107
8984.665
8988.071
8991.325
8994.472
8997.539
9000.542
9003.496
9006.41
9009.292
9012.149
9014.984
9017.803
9020.608
9023.401
9026.183
9028.957
9031.724
9034.485
9037.24
9039.991
9042.739
9045.485
9048.228
9050.971
9053.715
9056.462
9059.217
9061.985
9064.775
9067.676
9071.689
9075.581
9079.531
9081.288
9082.197
9083.664
9085.862
9088.421
9091.05
9093.664
9096.281
9098.925
9101.604
9104.312
9107.037
9109.771
9112.512
9115.258
9118.008
9120.76
9123.513
9126.267
9129.02
9131.771
9134.52
9137.267
9140.011
9142.751
9145.488
9148.221
9150.95
9153.676
9156.399
9159.119
9161.838
9164.556
9167.275
9169.998
9172.726
9175.464
9178.216
9180.986
9183.777
9186.58
9189.362
9192.052
9194.56
9196.802
9198.828
9200.804
9202.827
9204.874
9206.908
9208.832
9210.413
9211.433
9212.673
9214.765
9217.204
9219.494
9221.529
9223.418
9225.272
9227.136
9229.004
9230.862
9232.697
9234.508
9236.296
9238.058
9239.791
9241.491
9243.155
9244.78
9246.364
9247.904
9249.4
9250.849
9252.249
9253.601
9254.902
9256.151
9257.348
9258.491
9259.579
9260.613
9261.59
9262.51
9263.373
9264.177
9264.923
9265.609
9266.235
9266.8
9267.304
9267.747
9268.127
9268.445
9268.699
9268.89
9269.016
9269.078
9269.075
9269.005
9268.87
9268.668
9268.397
9268.059
9267.651
9267.172
9266.622
9266
9265.303
9264.529
9263.678
9262.745
9261.728
9260.625
9259.429
9258.137
9256.741
9255.237
9253.612
9251.862
9249.968
9247.922
9245.697
9243.282
9240.632
9237.73
9234.507
9230.94
9226.937
9222.52
9217.728
9213.065
9209.465
9208.598
9211.294
9218.127
4291.327
4299.105
4326.151
4364.724
4415.958
4477.924
4552.414
4638.591
4735.896
4846.327
4965.929
5098.165
5238.951
5389.165
5548.12
5714.642
5887.85
6066.814
6249.507
6461.217
6653.143
6845.249
7036.151
7222.112
7401.175
7570.773
7727.705
7867.999
7994.502
8095.525
8175.351
8233.413
8268.958
8281.726
8272.083
8240.959
8189.893
8120.566
8027.963
7931.914
7821.352
7701.887
7575.909
7445.77
7313.588
7181.441
7051.416
6924.352
6799.783
6681.51
6566.441
6456.85
6353
6254.952
6163.368
6082.009
5960.177
5883.263
5814.699
5745.889
5678.361
5614.628
5555.691
5501.697
5452.872
5409.333
5371.66
5341.609
5318.632
5302.64
5294.269
5293.779
5300.653
5313.972
5332.458
5354.731
5380.306
5407.236
5434.667
5462.153
5488.498
5512.292
5532.172
5547.18
5556.56
5560.104
5557.049
5547.216
5531.109
5509.268
5482.243
5450.796
5415.864
5378.187
5337.298
5301.076
5272.943
5249.431
5231.803
5223.413
5226.604
5242.367
5271.033
5312.445
5365.68
5430.264
5505.737
5591.73
5687.205
5790.574
5899.458
6011.374
6122.82
6233.043
6334.767
6422.698
6507.038
6593.459
6676.999
6753.678
6825.146
6894.591
6963.301
7030.951
7096.893
7160.742
7222.275
7281.313
7337.904
7392.265
7445.618
7500.279
7556.54
7612.739
7667.678
7720.301
7770.022
7816.906
7859.685
7897.812
7932.043
7963.774
7993.488
8023.261
8055.484
8089.469
8123.368
8156.064
8187.325
8217.275
8246.005
8273.624
8300.256
8325.92
8350.646
8374.502
8397.553
8419.849
8441.437
8462.358
8482.657
8502.396
8521.588
8540.258
8558.356
8575.988
8593.153
8609.84
8626.041
8641.744
8656.939
8671.611
8685.739
8699.306
8712.296
8724.697
8736.498
8747.692
8758.275
8768.251
8777.631
8786.432
8794.677
8802.393
8809.611
8816.366
8822.7
8828.66
8834.305
8839.658
8844.73
8849.621
8854.387
8858.997
8863.404
8867.624
8871.717
8875.728
8879.672
8883.556
8887.381
8891.145
8894.849
8898.491
8902.064
8905.564
8908.979
8912.301
8915.516
8918.619
8921.601
8924.455
8927.171
8929.743
8932.162
8934.431
8936.541
8938.475
8940.3
8941.952
8943.447
8944.797
8946.01
8947.093
8948.056
8948.909
8949.66
8950.32
8950.899
8951.408
8951.855
8952.248
8952.597
8952.908
8953.191
8953.455
8953.704
8953.96
8954.232
8954.561
8954.986
8955.58
8956.461
8957.215
8957.509
8957.69
8957.972
8958.357
8958.799
8959.243
8959.701
8960.185
8960.692
8961.218
8961.763
8962.325
8962.9
8963.491
8964.096
8964.718
8965.333
8965.955
8966.579
8967.199
8967.811
8968.409
8968.988
8969.54
8970.056
8970.525
8970.935
8971.278
8971.551
8971.776
8971.978
8972.288
8972.969
8974.365
8976.682
8979.705
8982.957
8986.176
8989.306
8992.365
8995.374
8998.344
9001.276
9004.176
9007.047
9009.896
9012.726
9015.542
9018.344
9021.136
9023.919
9026.695
9029.464
9032.227
9034.986
9037.74
9040.491
9043.238
9045.983
9048.726
9051.466
9054.209
9056.947
9059.693
9062.427
9065.173
9067.883
9070.735
9073.261
9075.005
9076.924
9079.356
9082.113
9084.956
9087.775
9090.544
9093.271
9095.98
9098.689
9101.408
9104.139
9106.879
9109.622
9112.369
9115.119
9117.871
9120.625
9123.38
9126.135
9128.889
9131.642
9134.394
9137.142
9139.888
9142.631
9145.37
9148.105
9150.836
9153.564
9156.288
9159.009
9161.727
9164.443
9167.158
9169.874
9172.592
9175.313
9178.039
9180.768
9183.493
9186.199
9188.86
9191.447
9193.923
9196.245
9198.406
9200.469
9202.514
9204.564
9206.594
9208.588
9210.645
9212.962
9215.181
9217.05
9218.711
9220.351
9222.037
9223.767
9225.532
9227.325
9229.136
9230.949
9232.754
9234.542
9236.309
9238.053
9239.77
9241.457
9243.109
9244.724
9246.299
9247.833
9249.323
9250.767
9252.165
9253.513
9254.812
9256.059
9257.254
9258.396
9259.484
9260.517
9261.493
9262.413
9263.276
9264.08
9264.826
9265.512
9266.138
9266.703
9267.207
9267.65
9268.03
9268.348
9268.602
9268.793
9268.919
9268.981
9268.978
9268.909
9268.773
9268.571
9268.302
9267.964
9267.557
9267.08
9266.532
9265.912
9265.218
9264.449
9263.602
9262.676
9261.667
9260.573
9259.39
9258.113
9256.737
9255.254
9253.659
9251.944
9250.099
9248.111
9245.966
9243.648
9241.137
9238.411
9235.452
9232.247
9228.818
9225.242
9221.707
9218.533
9216.119
9214.886
9215.433
9218.156
4539.994
4488.287
4447.459
4406.454
4370.081
4343.964
4329.834
4333.29
4349.911
4341.393
4310.146
4288.785
4286.089
4298.46
4324.302
4362.562
4412.37
4473.525
4545.973
4630.014
4725.124
4831.089
4947.413
5074.758
5211.726
5358.614
5514.034
5676.903
5846.655
6021.189
6202.661
6430.075
6621.877
6812.921
7000.415
7182.998
7358.222
7524.121
7678.152
7818.767
7941.379
8041.102
8118.099
8172.537
8204.012
8212.334
8198.049
8162.36
8106.943
8034.099
7946.179
7845.433
7733.549
7612.868
7485.968
7355.325
7223.327
7091.952
6962.76
6837.296
6716.248
6600.147
6489.235
6383.839
6284.231
6190.245
6101.28
6016.071
5931.909
5855.164
5785.892
5718.049
5651.407
5587.914
5528.688
5474.098
5424.388
5380.342
5342.895
5312.292
5289.112
5274.187
5267.761
5269.637
5279.257
5295.745
5318.137
5345.292
5375.416
5406.958
5439.363
5471.61
5502.105
5529.275
5551.716
5568.448
5578.687
5581.726
5577.182
5565.13
5545.736
5519.413
5486.825
5448.951
5406.717
5361.883
5316.705
5274.528
5237.856
5207.519
5184.987
5172.6
5172.381
5185.312
5211.552
5250.659
5302.019
5365.567
5441.043
5526.929
5621.96
5724.722
5833.032
5944.77
6057.292
6168.455
6273.931
6370.894
6462.931
6553.31
6640.452
6722.175
6798.899
6872.444
6943.965
7013.569
7081.003
7146.147
7208.983
7269.575
7328.142
7384.91
7440.691
7496.754
7553.262
7609.313
7664.029
7716.688
7766.777
7814.043
7857.989
7898.43
7935.632
7970.392
8003.321
8035.72
8068.857
8102.558
8135.956
8168.301
8199.185
8228.618
8256.762
8283.722
8309.616
8334.563
8358.621
8381.847
8404.303
8426.041
8447.107
8467.544
8487.397
8506.703
8525.481
8543.754
8561.592
8578.939
8595.816
8612.249
8628.242
8643.774
8658.826
8673.379
8687.41
8700.9
8713.828
8726.181
8737.945
8749.109
8759.665
8769.609
8778.953
8787.713
8795.91
8803.57
8810.725
8817.411
8823.668
8829.546
8835.073
8840.317
8845.323
8850.115
8854.747
8859.223
8863.533
8867.691
8871.731
8875.686
8879.574
8883.405
8887.182
8890.906
8894.576
8898.19
8901.742
8905.225
8908.63
8911.949
8915.171
8918.287
8921.287
8924.162
8926.904
8929.504
8931.957
8934.262
8936.414
8938.431
8940.243
8941.919
8943.444
8944.823
8946.063
8947.173
8948.159
8949.031
8949.799
8950.473
8951.064
8951.582
8952.036
8952.435
8952.789
8953.106
8953.397
8953.671
8953.936
8954.208
8954.498
8954.83
8955.194
8955.617
8955.995
8956.345
8956.756
8957.273
8957.787
8958.247
8958.7
8959.159
8959.628
8960.112
8960.614
8961.133
8961.668
8962.22
8962.781
8963.368
8963.967
8964.569
8965.194
8965.821
8966.448
8967.074
8967.695
8968.307
8968.906
8969.486
8970.043
8970.574
8971.075
8971.551
8972.013
8972.485
8973.023
8973.729
8974.74
8976.213
8978.277
8980.886
8983.796
8986.768
8989.713
8992.631
8995.532
8998.42
9001.289
9004.14
9006.973
9009.791
9012.597
9015.393
9018.18
9020.961
9023.735
9026.504
9029.269
9032.029
9034.786
9037.54
9040.29
9043.037
9045.782
9048.525
9051.264
9054.003
9056.737
9059.469
9062.193
9064.911
9067.613
9070.228
9072.749
9075.337
9077.984
9080.578
9083.1
9085.623
9088.193
9090.808
9093.447
9096.099
9098.767
9101.452
9104.155
9106.871
9109.597
9112.33
9115.069
9117.812
9120.56
9123.309
9126.061
9128.812
9131.564
9134.314
9137.062
9139.808
9142.551
9145.291
9148.027
9150.759
9153.486
9156.21
9158.93
9161.646
9164.358
9167.068
9169.774
9172.479
9175.181
9177.878
9180.567
9183.238
9185.881
9188.48
9191.018
9193.468
9195.808
9198.03
9200.165
9202.261
9204.346
9206.425
9208.507
9210.602
9212.656
9214.518
9216.249
9217.997
9219.821
9221.691
9223.564
9225.423
9227.273
9229.114
9230.946
9232.761
9234.558
9236.332
9238.082
9239.802
9241.49
9243.143
9244.758
9246.334
9247.867
9249.357
9250.801
9252.198
9253.547
9254.846
9256.094
9257.289
9258.432
9259.52
9260.554
9261.531
9262.452
9263.315
9264.121
9264.867
9265.554
9266.181
9266.747
9267.252
9267.695
9268.076
9268.394
9268.649
9268.841
9268.968
9269.031
9269.028
9268.96
9268.826
9268.625
9268.357
9268.022
9267.617
9267.143
9266.599
9265.983
9265.295
9264.532
9263.693
9262.776
9261.78
9260.7
9259.534
9258.278
9256.929
9255.479
9253.922
9252.251
9250.467
9248.558
9246.513
9244.321
9241.974
9239.467
9236.8
9233.994
9231.089
9228.189
9225.408
9222.977
9221.021
9219.899
9219.699
9220.869
5185.596
5130.855
5076.944
5020.282
4960.737
4896.74
4836.186
4775.607
4715.577
4656.575
4599.204
4546.268
4494.98
4447.315
4405.413
4368.176
4333.604
4312.93
4300.354
4290.578
4277.737
4265.99
4261.334
4266.937
4283.817
4312.16
4351.984
4403.162
4465.166
4537.718
4621.819
4717.699
4824.644
4942.482
5070.802
5208.95
5356.257
5512.29
5676.238
5846.773
6023.002
6205.013
6382.819
6569.463
6756.605
6941.225
7121.532
7295.512
7461.183
7614.665
7754.748
7877.29
7978.042
8055.516
8109.517
8140.055
8147.284
8131.899
8095.158
8038.828
7964.919
7875.775
7774.108
7662.087
7541.741
7415.47
7285.715
7154.884
7024.824
6897.001
6773.309
6654.134
6539.418
6430.41
6327.963
6231.917
6141.639
6056.034
5974.669
5897.139
5824.32
5755.627
5688.779
5623.12
5559.576
5499.203
5442.74
5390.867
5344.581
5304.922
5272.787
5249.177
5234.832
5229.943
5234.22
5247.103
5267.861
5295.617
5328.699
5365.491
5404.574
5444.584
5483.901
5520.741
5553.382
5580.268
5600.21
5612.267
5615.766
5610.326
5595.867
5572.468
5540.594
5501.07
5455.099
5404.181
5350.347
5295.912
5243.515
5196.147
5156.371
5126.005
5106.977
5101.32
5110.031
5132.865
5169.149
5218.442
5280.278
5354.343
5439.577
5534.551
5638.073
5748.35
5863.042
5979.273
6094.129
6204.934
6310.042
6409.898
6505.678
6597.389
6684.315
6766.344
6844.332
6919.209
6991.397
7061.016
7128.129
7192.855
7255.415
7316.105
7375.239
7433.324
7490.983
7548.325
7604.864
7659.969
7713.119
7763.905
7812.089
7857.454
7899.918
7939.611
7977.022
8012.732
8047.438
8081.745
8115.748
8149.108
8181.316
8212.037
8241.249
8269.084
8295.674
8321.138
8345.568
8369.043
8391.649
8413.467
8434.567
8455.008
8474.84
8494.11
8512.857
8531.113
8548.91
8566.284
8583.234
8599.778
8615.848
8631.526
8646.791
8661.612
8675.964
8689.825
8703.169
8715.971
8728.216
8739.894
8750.992
8761.489
8771.377
8780.667
8789.375
8797.517
8805.118
8812.207
8818.82
8824.996
8830.774
8836.182
8841.313
8846.244
8850.95
8855.458
8859.805
8864.005
8868.072
8872.03
8875.905
8879.717
8883.477
8887.188
8890.852
8894.469
8898.035
8901.545
8904.993
8908.369
8911.666
8914.872
8917.977
8920.972
8923.848
8926.596
8929.209
8931.679
8934.003
8936.176
8938.198
8940.059
8941.771
8943.334
8944.748
8946.022
8947.162
8948.178
8949.079
8949.873
8950.571
8951.184
8951.722
8952.194
8952.611
8952.981
8953.314
8953.62
8953.908
8954.189
8954.473
8954.768
8955.085
8955.42
8955.784
8956.162
8956.602
8957.084
8957.555
8957.987
8958.397
8958.821
8959.264
8959.723
8960.198
8960.692
8961.205
8961.736
8962.284
8962.857
8963.434
8964.028
8964.633
8965.251
8965.877
8966.508
8967.142
8967.775
8968.406
8969.032
8969.65
8970.259
8970.859
8971.453
8972.05
8972.668
8973.336
8974.106
8975.046
8976.243
8977.788
8979.751
8982.11
8984.737
8987.479
8990.255
8993.043
8995.84
8998.642
9001.444
9004.24
9007.029
9009.812
9012.589
9015.361
9018.129
9020.894
9023.656
9026.414
9029.171
9031.924
9034.676
9037.426
9040.172
9042.917
9045.659
9048.398
9051.134
9053.866
9056.593
9059.315
9062.027
9064.725
9067.399
9070.033
9072.682
9075.34
9077.917
9080.406
9082.893
9085.435
9088.041
9090.686
9093.351
9096.023
9098.705
9101.399
9104.105
9106.822
9109.547
9112.279
9115.017
9117.759
9120.505
9123.254
9126.004
9128.755
9131.506
9134.256
9137.005
9139.751
9142.495
9145.235
9147.971
9150.703
9153.431
9156.154
9158.872
9161.585
9164.293
9166.995
9169.692
9172.383
9175.065
9177.737
9180.393
9183.027
9185.63
9188.19
9190.694
9193.125
9195.472
9197.733
9199.922
9202.066
9204.188
9206.294
9208.382
9210.429
9212.406
9214.315
9216.202
9218.092
9219.985
9221.872
9223.743
9225.599
9227.443
9229.278
9231.104
9232.915
9234.707
9236.478
9238.223
9239.938
9241.622
9243.272
9244.884
9246.457
9247.988
9249.477
9250.92
9252.317
9253.665
9254.964
9256.213
9257.409
9258.553
9259.642
9260.677
9261.656
9262.578
9263.443
9264.25
9264.997
9265.686
9266.314
9266.881
9267.388
9267.832
9268.214
9268.534
9268.79
9268.983
9269.111
9269.175
9269.174
9269.108
9268.975
9268.776
9268.511
9268.178
9267.777
9267.307
9266.768
9266.158
9265.476
9264.721
9263.893
9262.988
9262.006
9260.944
9259.8
9258.57
9257.252
9255.841
9254.332
9252.712
9250.992
9249.174
9247.242
9245.19
9243.02
9240.735
9238.351
9235.897
9233.419
9231
9228.728
9226.751
9225.166
9224.194
9223.847
9224.427
5706.442
5650.023
5597.44
5543.822
5495.258
5441.793
5393.581
5344.217
5293.062
5241.125
5188.622
5135.043
5079.958
5023.571
4963.71
4894.242
4833.405
4773.26
4713.246
4653.972
4596.099
4540.739
4488.104
4438.688
4393.71
4354.499
4321.281
4294.367
4273.218
4256.013
4242.017
4233.358
4232.102
4239.774
4257.275
4284.997
4323.267
4372.434
4432.926
4504.763
4587.685
4681.775
4786.995
4903.15
5029.801
5166.348
5312.061
5466.231
5628.171
5796.992
5971.857
6151.159
6331.446
6515.028
6698.797
6881.557
7059.673
7232.2
7396.257
7548.143
7685.321
7804.545
7902.542
7977.287
8028.192
8055.347
8059.196
8040.645
8001.038
7942.236
7866.346
7775.745
7672.999
7560.504
7440.566
7315.344
7187.196
7058.804
6931.843
6807.633
6687.209
6571.18
6460.34
6355.856
6258.69
6168.405
6084.052
6004.584
5929.369
5857.561
5788.357
5721.065
5654.725
5588.881
5524.043
5461.188
5401.291
5345.464
5295.11
5251.88
5217.377
5192.854
5179.023
5176.101
5183.861
5201.698
5228.502
5264.003
5305.582
5351.886
5401.198
5451.518
5500.713
5546.615
5587.085
5620.292
5644.849
5659.519
5663.626
5656.78
5638.941
5610.245
5571.168
5522.65
5465.915
5403.185
5336.897
5269.15
5202.872
5141.827
5089.67
5048.562
5020.481
5008.087
5012.776
5032.996
5066.875
5113.847
5173.823
5246.32
5330.736
5426.857
5532.894
5646.794
5766.073
5887.691
6009.08
6127.449
6240.966
6349.025
6451.773
6549.409
6641.877
6729.197
6811.851
6890.554
6965.914
7038.275
7107.838
7174.882
7239.74
7302.759
7364.251
7424.549
7484.001
7542.662
7600.228
7656.252
7710.35
7762.22
7811.679
7858.587
7902.909
7944.753
7984.418
8022.307
8058.827
8094.334
8128.969
8162.596
8194.934
8225.772
8255.066
8282.893
8309.36
8334.57
8358.621
8381.615
8403.661
8424.858
8445.297
8465.056
8484.203
8502.798
8520.891
8538.525
8555.734
8572.546
8588.972
8605.01
8620.704
8635.985
8650.88
8665.376
8679.44
8693.047
8706.168
8718.778
8730.851
8742.376
8753.359
8763.748
8773.528
8782.731
8791.361
8799.429
8806.958
8813.975
8820.514
8826.613
8832.312
8837.657
8842.714
8847.504
8852.079
8856.465
8860.69
8864.777
8868.742
8872.608
8876.395
8880.123
8883.802
8887.438
8891.03
8894.58
8898.084
8901.538
8904.933
8908.262
8911.515
8914.684
8917.759
8920.728
8923.584
8926.319
8928.923
8931.39
8933.715
8935.894
8937.925
8939.804
8941.535
8943.12
8944.564
8945.869
8947.041
8948.088
8949.021
8949.848
8950.578
8951.222
8951.788
8952.289
8952.732
8953.127
8953.484
8953.814
8954.124
8954.424
8954.723
8955.028
8955.346
8955.682
8956.044
8956.437
8956.861
8957.29
8957.71
8958.12
8958.533
8958.96
8959.405
8959.864
8960.337
8960.829
8961.339
8961.866
8962.412
8962.976
8963.555
8964.148
8964.756
8965.378
8966.01
8966.65
8967.296
8967.947
8968.601
8969.257
8969.916
8970.578
8971.247
8971.929
8972.635
8973.385
8974.208
8975.144
8976.241
8977.559
8979.151
8981.05
8983.245
8985.666
8988.225
8990.855
8993.526
8996.224
8998.943
9001.675
9004.413
9007.154
9009.897
9012.641
9015.386
9018.131
9020.876
9023.622
9026.367
9029.113
9031.857
9034.602
9037.345
9040.086
9042.826
9045.563
9048.298
9051.029
9053.755
9056.476
9059.189
9061.892
9064.581
9067.255
9069.914
9072.564
9075.179
9077.739
9080.27
9082.82
9085.411
9088.039
9090.69
9093.353
9096.024
9098.705
9101.396
9104.099
9106.812
9109.533
9112.261
9114.996
9117.735
9120.478
9123.225
9125.973
9128.722
9131.472
9134.222
9136.97
9139.716
9142.46
9145.2
9147.936
9150.668
9153.395
9156.117
9158.833
9161.542
9164.245
9166.941
9169.628
9172.305
9174.971
9177.622
9180.254
9182.861
9185.435
9187.969
9190.451
9192.872
9195.227
9197.515
9199.741
9201.921
9204.07
9206.192
9208.282
9210.331
9212.341
9214.321
9216.277
9218.207
9220.116
9222.009
9223.888
9225.756
9227.612
9229.457
9231.288
9233.103
9234.898
9236.67
9238.415
9240.131
9241.814
9243.464
9245.076
9246.649
9248.181
9249.67
9251.115
9252.513
9253.863
9255.163
9256.414
9257.612
9258.758
9259.849
9260.886
9261.867
9262.792
9263.659
9264.467
9265.217
9265.908
9266.538
9267.108
9267.616
9268.062
9268.446
9268.768
9269.026
9269.22
9269.35
9269.416
9269.418
9269.353
9269.223
9269.027
9268.764
9268.435
9268.039
9267.574
9267.041
9266.438
9265.765
9265.021
9264.205
9263.315
9262.35
9261.309
9260.189
9258.99
9257.708
9256.34
9254.883
9253.325
9251.665
9249.939
9248.129
9246.225
9244.23
9242.158
9240.028
9237.872
9235.735
9233.682
9231.788
9230.151
9228.855
9228.025
9227.671
9228.003
5905.951
5899.735
5866.764
5813.641
5754.556
5697.635
5642.693
5591.092
5542.184
5492.88
5436.381
5387.885
5339.395
5289.679
5238.427
5185.731
5131.594
5075.754
5018.339
4960.121
4902.394
4842.397
4781.944
4721.29
4661.101
4601.791
4544.224
4488.59
4435.363
4385.672
4340.77
4302.367
4270.167
4243.663
4222.674
4207.71
4199.929
4200.159
4209.228
4227.729
4256.061
4294.369
4343.129
4402.608
4473.05
4554.531
4647.09
4750.697
4865.154
4990.031
5124.748
5268.594
5420.791
5580.664
5747.134
5918.816
6093.681
6271.198
6450.185
6630.461
6810.465
6986.53
7156.107
7316.359
7464
7596.018
7709.537
7801.898
7871.147
7916.535
7938.14
7936.679
7913.286
7869.498
7807.273
7728.776
7636.564
7532.944
7420.428
7301.762
7178.996
7054.188
6929.218
6805.86
6686.234
6570.887
6460.479
6356.778
6260.5
6171.767
6089.979
6014.091
5942.899
5875.143
5809.532
5744.914
5680.206
5614.557
5547.798
5480.504
5413.838
5348.876
5286.941
5230.335
5181.861
5143.785
5117.763
5104.519
5104.256
5116.852
5141.733
5177.876
5222.476
5275.053
5333.736
5396.336
5460.171
5522.464
5580.53
5631.846
5673.804
5704.312
5722.126
5726.581
5717.352
5694.509
5658.645
5610.595
5550.694
5480
5402.217
5320.505
5235.91
5152.026
5073.931
5005.394
4948.781
4907.358
4889.496
4894.502
4913.24
4944.309
4988.812
5047.166
5118.367
5201.761
5298.419
5407.672
5527.096
5653.757
5784.253
5914.932
6042.591
6165.304
6281.975
6392.296
6496.49
6594.928
6687.816
6775.468
6858.468
6937.469
7013.005
7085.441
7155.199
7222.69
7288.275
7352.238
7414.839
7476.326
7536.692
7595.709
7653.062
7708.462
7761.668
7812.567
7861.059
7907.13
7950.868
7992.439
8032.118
8070.2
8106.92
8142.381
8176.535
8209.248
8240.401
8269.95
8297.935
8324.44
8349.561
8373.395
8396.05
8417.642
8438.289
8458.1
8477.175
8495.604
8513.468
8530.833
8547.755
8564.278
8580.434
8596.242
8611.716
8626.873
8641.682
8656.119
8670.184
8683.869
8697.138
8709.95
8722.292
8734.139
8745.437
8756.259
8766.484
8776.081
8785.148
8793.664
8801.63
8809.066
8815.995
8822.452
8828.472
8834.09
8839.362
8844.366
8849.013
8853.473
8857.741
8861.85
8865.824
8869.686
8873.456
8877.153
8880.792
8884.384
8887.935
8891.447
8894.92
8898.35
8901.732
8905.061
8908.328
8911.522
8914.637
8917.661
8920.587
8923.405
8926.107
8928.683
8931.128
8933.437
8935.605
8937.63
8939.509
8941.245
8942.842
8944.299
8945.628
8946.827
8947.903
8948.867
8949.726
8950.49
8951.169
8951.771
8952.306
8952.783
8953.212
8953.602
8953.961
8954.3
8954.625
8954.946
8955.269
8955.6
8955.946
8956.31
8956.693
8957.089
8957.492
8957.901
8958.314
8958.734
8959.164
8959.608
8960.066
8960.538
8961.028
8961.534
8962.059
8962.603
8963.165
8963.744
8964.339
8964.948
8965.574
8966.214
8966.864
8967.523
8968.192
8968.871
8969.56
8970.26
8970.974
8971.707
8972.468
8973.268
8974.127
8975.069
8976.124
8977.33
8978.724
8980.338
8982.192
8984.276
8986.553
8988.969
8991.474
8994.038
8996.644
8999.282
9001.944
9004.623
9007.315
9010.015
9012.723
9015.437
9018.156
9020.88
9023.607
9026.337
9029.069
9031.803
9034.537
9037.273
9040.007
9042.741
9045.473
9048.203
9050.928
9053.65
9056.365
9059.073
9061.771
9064.458
9067.132
9069.792
9072.431
9075.045
9077.637
9080.222
9082.817
9085.429
9088.061
9090.708
9093.367
9096.036
9098.716
9101.405
9104.106
9106.815
9109.533
9112.259
9114.99
9117.727
9120.468
9123.213
9125.959
9128.708
9131.457
9134.206
9136.953
9139.699
9142.443
9145.183
9147.919
9150.65
9153.376
9156.096
9158.81
9161.516
9164.214
9166.903
9169.582
9172.248
9174.9
9177.535
9180.149
9182.736
9185.291
9187.807
9190.277
9192.694
9195.056
9197.362
9199.616
9201.825
9203.998
9206.138
9208.246
9210.321
9212.366
9214.381
9216.364
9218.317
9220.247
9222.161
9224.062
9225.95
9227.823
9229.681
9231.522
9233.344
9235.144
9236.92
9238.668
9240.386
9242.072
9243.723
9245.337
9246.913
9248.447
9249.938
9251.385
9252.785
9254.138
9255.441
9256.694
9257.896
9259.044
9260.139
9261.179
9262.163
9263.09
9263.96
9264.772
9265.525
9266.218
9266.851
9267.423
9267.934
9268.383
9268.769
9269.093
9269.354
9269.551
9269.684
9269.752
9269.756
9269.695
9269.568
9269.375
9269.115
9268.791
9268.401
9267.943
9267.417
9266.823
9266.16
9265.428
9264.625
9263.752
9262.807
9261.789
9260.697
9259.531
9258.288
9256.967
9255.566
9254.069
9252.456
9250.814
9249.137
9247.385
9245.563
9243.686
9241.779
9239.874
9238.013
9236.25
9234.645
9233.27
9232.186
9231.472
9231.136
9231.345
5905.481
5880.966
5820.624
5769.979
5718.424
5668.432
5620.232
5573.552
5527.809
5482.687
5438.247
5392.193
5344.914
5296.121
5245.753
5193.545
5139.478
5083.469
5025.509
4966.295
4907.327
4847.351
4786.387
4724.829
4662.914
4600.791
4539.56
4480.196
4423.514
4370.337
4322.017
4279.978
4244.589
4215.693
4193.453
4178.31
4170.914
4171.782
4181.423
4200.207
4228.406
4266.504
4314.651
4373.155
4442.314
4522.352
4613.382
4715.369
4828.106
4951.158
5083.945
5225.765
5375.727
5533.05
5696.027
5862.878
6032.706
6205.488
6381.23
6558.27
6734.27
6906.051
7070.54
7224.71
7365.457
7489.726
7594.874
7678.658
7739.494
7776.768
7790.661
7782.162
7752.571
7703.827
7637.83
7556.833
7463.694
7360.618
7249.835
7133.345
7013.266
6892.229
6771.475
6652.747
6538.709
6430.563
6328.973
6234.942
6148.842
6070.47
5999.156
5933.786
5872.79
5814.13
5755.945
5696.849
5635.271