/*--------------------------------*- C++ -*----------------------------------*\
| =========                 |                                                 |
| \\      /  F ield         | foam-extend: Open Source CFD                    |
|  \\    /   O peration     | Version:     3.1                                |
|   \\  /    A nd           | Web:         http://www.extend-project.de       |
|    \\/     M anipulation  |                                                 |
\*---------------------------------------------------------------------------*/
FoamFile
{
    version     2.0;
    format      ascii;
    class       volScalarField;
    location    "17";
    object      k;
}
// * * * * * * * * * * * * * * * * * * * * * * * * * * * * * * * * * * * * * //

dimensions      [0 2 -2 0 0 0 0];

internalField   nonuniform List<scalar> 
119952
(
0.08308738
0.07952395
0.07880128
0.07716439
0.07537577
0.07399017
0.07353027
0.07353266
0.07377604
0.07414453
0.07457544
0.07502691
0.07547285
0.07589861
0.07629779
0.07666552
0.07701081
0.07735723
0.07777058
0.07859283
0.08109373
0.07890966
0.0789311
0.08103437
0.07789083
0.07621593
0.07483424
0.07355376
0.07105792
0.01869467
0.09940261
0.09709025
0.09486
0.09348698
0.09295948
0.09310368
0.09367579
0.09449291
0.09542379
0.09640582
0.09163841
0.09159977
0.09395426
0.09730854
0.1008618
0.1042209
0.1072587
0.1099592
0.1123031
0.1227363
0.1239604
0.1247323
0.125051
0.1251253
0.1251489
0.1252181
0.1253694
0.1256077
0.1258219
0.1264864
0.1269003
0.1270801
0.1271414
0.1271339
0.1270876
0.1270134
0.1268603
0.1268224
0.12917
0.1291777
0.1283334
0.1282066
0.1282056
0.1279213
0.127229
0.1263274
0.1254117
0.1245253
0.1236631
0.1228151
0.1219734
0.1211368
0.1203133
0.1195124
0.1187401
0.1179954
0.1172417
0.1164537
0.115842
0.1153586
0.1145382
0.1141728
0.1147462
0.1149527
0.1149541
0.1152966
0.1157525
0.1137486
0.1117709
0.1102464
0.1088703
0.1077076
0.1066817
0.1057765
0.1049845
0.1042854
0.1036598
0.1030894
0.1025592
0.1020578
0.1015783
0.1011174
0.1006727
0.1002413
0.09981813
0.09939782
0.09897622
0.09855156
0.09812464
0.0976973
0.09727032
0.09684292
0.09641418
0.09598417
0.09555298
0.09511916
0.09467878
0.09422614
0.09375603
0.09326649
0.0927603
0.0922442
0.09172655
0.09121495
0.09071507
0.09023142
0.08976969
0.08933983
0.08895708
0.08863975
0.08840397
0.08825682
0.08819039
0.08817871
0.08817927
0.08813499
0.088005
0.08780101
0.08755193
0.08719613
0.08673822
0.08618752
0.08556196
0.08489945
0.08425505
0.08363641
0.08304658
0.08247651
0.08192373
0.08136017
0.080749
0.0800939
0.07944359
0.07889048
0.07855541
0.07855215
0.07902594
0.08008676
0.08157403
0.08313108
0.08443951
0.08523475
0.08537213
0.0848123
0.08360239
0.08197225
0.08016303
0.07834064
0.07660229
0.07500502
0.07356213
0.07228022
0.07117573
0.07023915
0.06944257
0.06876275
0.06818064
0.06767143
0.06722935
0.06685828
0.06655636
0.06630009
0.06610293
0.06602951
0.06596766
0.06638832
0.06839586
0.07085882
0.073617
0.07487627
0.07500398
0.07404831
0.07211886
0.06972631
0.06750925
0.06571498
0.06437393
0.06344842
0.06279289
0.06217691
0.06150405
0.06064025
0.05952339
0.05822051
0.05685643
0.05555426
0.05440886
0.053461
0.05270277
0.05210464
0.05163682
0.05127129
0.05098287
0.05075298
0.05056886
0.05041622
0.05028034
0.05015121
0.0500273
0.04990023
0.04969576
0.04931948
0.04871364
0.04861379
0.04870816
0.04943662
0.05309874
0.05770936
0.06091113
0.06274939
0.06358811
0.06365584
0.06311881
0.06211165
0.06075355
0.05915593
0.05743336
0.05569295
0.05399702
0.05242355
0.05111883
0.05010809
0.04935319
0.04879967
0.0483695
0.04797519
0.04755995
0.04711274
0.04662711
0.04610697
0.04556065
0.04500078
0.04444407
0.04390416
0.04338569
0.04288509
0.04240201
0.04496546
0.04460255
0.04398912
0.04305327
0.04174338
0.04121983
0.04321772
0.04670199
0.04984499
0.05211952
0.05362836
0.05448438
0.05467708
0.05409238
0.05270102
0.05067093
0.0483393
0.04603188
0.04387624
0.04193794
0.04024103
0.0388095
0.03765014
0.03674134
0.03604517
0.03552139
0.03512236
0.03480382
0.03457201
0.03444818
0.03445733
0.03461587
0.03493856
0.03543381
0.03609465
0.03690562
0.03783021
0.03884277
0.03992503
0.04106546
0.0422614
0.04350571
0.04479114
0.04611195
0.04747299
0.04889077
0.05035815
0.05187664
0.05340496
0.05491263
0.05637679
0.0577752
0.05908319
0.06030325
0.06135879
0.06212679
0.06273752
0.06320093
0.06351909
0.0636939
0.06373391
0.06365588
0.06348022
0.06322198
0.06288445
0.06246014
0.06193715
0.06130731
0.06057147
0.05973782
0.05881692
0.05781839
0.05674998
0.05561789
0.05442795
0.0531868
0.0519029
0.05058684
0.04925075
0.04790732
0.04656886
0.04524697
0.04395312
0.04269785
0.04149044
0.04034007
0.03925537
0.03824213
0.03730289
0.03643771
0.03564489
0.03492156
0.03426406
0.0336682
0.03312956
0.03264407
0.0322082
0.03181964
0.03147757
0.03118066
0.03092754
0.03071669
0.03054701
0.03041764
0.03032667
0.0302707
0.03024473
0.03024283
0.03025774
0.03028046
0.03030091
0.03030848
0.03029271
0.03024401
0.03015419
0.03001827
0.02983428
0.02960309
0.02932825
0.02901551
0.0286721
0.02830595
0.02792407
0.0275339
0.02714414
0.02676229
0.02639545
0.02604702
0.02572407
0.02543403
0.02518194
0.02497284
0.02481294
0.02470428
0.02464521
0.02462508
0.02462414
0.02468091
0.02539541
0.1027106
0.09635563
0.1001399
0.1066324
0.1130164
0.1185008
0.1230174
0.1267078
0.1298505
0.1317745
0.1392302
0.148547
0.1576838
0.1656906
0.172353
0.1777188
0.1819715
0.1852928
0.2094689
0.2095201
0.2093721
0.2087974
0.2080533
0.2073285
0.2066999
0.2061896
0.2057662
0.205269
0.2049919
0.2045691
0.2037354
0.2026917
0.2015738
0.200459
0.1993871
0.1983777
0.1974055
0.1966636
0.1960134
0.1950432
0.1938955
0.192693
0.1914766
0.190279
0.189131
0.1880457
0.1870287
0.186116
0.1851738
0.1842261
0.1832691
0.1822866
0.1812943
0.1803182
0.1793844
0.178525
0.1875084
0.1865016
0.1854981
0.1845157
0.1835339
0.1825431
0.1815541
0.1805815
0.1796481
0.1787391
0.1778439
0.1769823
0.17613
0.175253
0.1743433
0.1734099
0.1724889
0.1716816
0.1711506
0.1706912
0.1698881
0.1690655
0.1684053
0.1676882
0.1667663
0.1656925
0.1645688
0.1634402
0.1623146
0.1611933
0.1600653
0.1589129
0.1577277
0.1565125
0.1552795
0.1540537
0.1528526
0.1516898
0.1506018
0.1495992
0.1486274
0.1477411
0.1471362
0.146739
0.1462276
0.1456399
0.1449316
0.1438526
0.1423611
0.1410174
0.1398716
0.138773
0.1377015
0.1366597
0.1356451
0.1346612
0.1337105
0.1327908
0.1318956
0.1310167
0.130148
0.1292878
0.1284384
0.1276027
0.1267799
0.125965
0.1251506
0.1243311
0.1235054
0.1226782
0.1218561
0.1210445
0.1202465
0.1194644
0.1187006
0.1179566
0.1172306
0.1165165
0.1158049
0.1150868
0.1143582
0.1136219
0.1128848
0.1121544
0.1114349
0.1107254
0.1100204
0.1093143
0.1086034
0.1078883
0.1071716
0.1064553
0.1057396
0.1050221
0.1043005
0.1035761
0.1028548
0.1021512
0.1014744
0.1008134
0.1001674
0.09956232
0.09901502
0.09854063
0.09815759
0.09788041
0.09771093
0.09764223
0.0976677
0.09775683
0.09784992
0.09787736
0.09777182
0.09747629
0.09695667
0.09621915
0.09532319
0.09437662
0.09350251
0.09279612
0.09230169
0.09201277
0.09188071
0.09182546
0.09175251
0.09157597
0.09123493
0.09070249
0.08998621
0.08912524
0.08817613
0.08719921
0.08624587
0.08536599
0.08460672
0.08398575
0.08350336
0.08314366
0.08287443
0.08267076
0.08249914
0.08229959
0.08206431
0.08176271
0.08132271
0.08072033
0.08001714
0.07938926
0.07873029
0.0780555
0.07798313
0.07852818
0.07967232
0.08133273
0.08335814
0.08554419
0.08776967
0.08991622
0.09185163
0.09344906
0.09458325
0.09515217
0.09511631
0.09450299
0.09337414
0.09186811
0.09016549
0.08841733
0.08674512
0.08521697
0.08385998
0.08268827
0.08171034
0.08092701
0.08032699
0.0798888
0.07958352
0.07937768
0.07923481
0.07911173
0.07896092
0.07871997
0.07830414
0.0776412
0.0767034
0.07536358
0.0734972
0.07151179
0.06989751
0.06877222
0.06810085
0.06783543
0.06792797
0.06832183
0.06897124
0.0698542
0.07095976
0.07225953
0.07368437
0.07511648
0.07642877
0.07754946
0.07842018
0.0790027
0.079261
0.07918679
0.07879591
0.07811968
0.07723219
0.07618147
0.07499079
0.07370437
0.07236113
0.07100105
0.06965893
0.06835721
0.06711634
0.06594469
0.06783524
0.06679868
0.06583377
0.06469161
0.06311069
0.06127756
0.05966889
0.05854135
0.05792676
0.05771322
0.05778292
0.05811084
0.05872185
0.05957969
0.06065827
0.06193106
0.06335229
0.06479546
0.06602946
0.06682492
0.06709336
0.06689312
0.06632969
0.06547962
0.06438493
0.06307844
0.06163824
0.06024878
0.0590619
0.05815257
0.05754333
0.05725515
0.05729355
0.05763972
0.05827244
0.05916557
0.06028442
0.06158868
0.06303508
0.06458012
0.06618377
0.06781277
0.06944269
0.07105807
0.07265059
0.07421519
0.07575432
0.07728743
0.07882801
0.08034672
0.08181849
0.08321952
0.08452535
0.08571292
0.08675477
0.08762131
0.08828969
0.08874095
0.08896107
0.08894214
0.08869148
0.08823641
0.08761826
0.08687582
0.08603195
0.08509377
0.08406181
0.08294022
0.08173812
0.08046621
0.07913341
0.07774527
0.07630424
0.07481062
0.07326393
0.0716642
0.07001316
0.06831499
0.06657662
0.06480759
0.06301969
0.06122656
0.05944293
0.05768359
0.0559626
0.05429264
0.05268451
0.05114682
0.0496858
0.04830533
0.04700701
0.04579048
0.04465371
0.04359355
0.04260554
0.04168365
0.04082226
0.04001582
0.03925921
0.03854794
0.03787833
0.03724772
0.03665449
0.03609807
0.03557891
0.03509827
0.03465813
0.03426095
0.03390935
0.03360568
0.03335148
0.0331469
0.03299011
0.03287692
0.03280067
0.03275253
0.03272221
0.03269886
0.03267217
0.03263346
0.03257645
0.03249814
0.03239815
0.03227926
0.03214546
0.03200408
0.0318608
0.03172526
0.03160186
0.0315026
0.03142969
0.03139853
0.03140496
0.03146335
0.0315632
0.03173029
0.03198373
0.0324405
0.03297142
0.05878856
0.06349103
0.06897571
0.07493833
0.08143904
0.08861367
0.09671112
0.1061919
0.1178738
0.1320721
0.1949337
0.2122187
0.2296661
0.2464626
0.2620565
0.2754161
0.2887926
0.3041758
0.3296367
0.3976737
0.4086121
0.4169953
0.4238179
0.4289749
0.4328079
0.4353929
0.4367546
0.4369781
0.4363403
0.4349129
0.4339535
0.4328388
0.4310842
0.4285559
0.4253212
0.4215047
0.4172377
0.4129548
0.4065472
0.4005118
0.3948459
0.3894911
0.3844179
0.3795379
0.3747743
0.3700616
0.3653704
0.3607234
0.3559554
0.3510909
0.3462063
0.3413282
0.3365147
0.3318124
0.3272325
0.3227562
0.3308155
0.3265836
0.3222673
0.3179555
0.313693
0.3094968
0.3053901
0.3013916
0.2975293
0.2937966
0.2901415
0.2865716
0.2830935
0.2796734
0.2763019
0.2729979
0.2697866
0.2666977
0.2637546
0.2609242
0.2581789
0.255529
0.2529385
0.2503699
0.2478194
0.2453101
0.2428803
0.2405617
0.2383537
0.2362588
0.2342534
0.2322742
0.230282
0.2282709
0.2262623
0.2242967
0.2224144
0.2206118
0.2188548
0.2172086
0.215641
0.2140993
0.2125434
0.210965
0.2093856
0.207842
0.2063706
0.2049919
0.2037127
0.2025149
0.2013493
0.2001684
0.1989489
0.1977035
0.1964822
0.195351
0.1943627
0.1935018
0.1926609
0.1917921
0.1909213
0.1899973
0.1889615
0.1878065
0.1865874
0.1853734
0.1842079
0.1830856
0.1819613
0.1808024
0.1795885
0.1783131
0.1769938
0.1756672
0.1743704
0.1731364
0.1719918
0.1709347
0.1699599
0.1690598
0.1682535
0.1674791
0.1666796
0.1657667
0.1647721
0.1635845
0.1622666
0.1609425
0.1596982
0.1585095
0.1573521
0.1562149
0.1550971
0.1540091
0.15296
0.1519498
0.1509689
0.1500029
0.1490391
0.1480728
0.1471079
0.1461513
0.145204
0.1442588
0.1433034
0.1423267
0.1413252
0.1403051
0.139278
0.1382536
0.1372373
0.1362327
0.1352442
0.134276
0.1333287
0.1323967
0.1314683
0.1305309
0.1295781
0.1286136
0.1276486
0.1266962
0.1257655
0.1248577
0.1239667
0.1230838
0.122202
0.1213177
0.1204284
0.1195294
0.1186125
0.1176673
0.1166857
0.1156669
0.1146186
0.1135581
0.1125053
0.1114796
0.1105076
0.1096177
0.1088345
0.1081818
0.1076869
0.1073788
0.107269
0.1073524
0.107611
0.1080014
0.1084418
0.1088356
0.1090886
0.1091171
0.1088617
0.1083013
0.107463
0.1064177
0.1052546
0.1040511
0.1028593
0.1017094
0.1006158
0.09958035
0.09859232
0.09763095
0.09667242
0.09569816
0.09470295
0.09369997
0.09271793
0.09179548
0.09097331
0.09028714
0.08976965
0.08945071
0.08931981
0.08935258
0.0895106
0.08974848
0.0900166
0.0902566
0.09040943
0.09043478
0.0903072
0.08996253
0.08946858
0.08886722
0.08826324
0.08758265
0.08686528
0.08616108
0.08552548
0.08501407
0.0846834
0.0845877
0.08477398
0.08527214
0.08608442
0.08717563
0.08847269
0.08987058
0.09124185
0.09245828
0.09341506
0.09404914
0.09434716
0.09434034
0.09408511
0.09366309
0.09317469
0.0927149
0.09235946
0.09216147
0.09214723
0.09231599
0.09264651
0.09310421
0.09364656
0.09422428
0.09478045
0.09525472
0.09558505
0.09570424
0.09553235
0.09499037
0.09410269
0.09296803
0.09166244
0.09022836
0.08870114
0.08712387
0.08554747
0.08402934
0.08263242
0.08142521
0.08048059
0.07987153
0.07966137
0.07988718
0.08054207
0.08156828
0.08286224
0.08428508
0.08567794
0.08688731
0.08781167
0.08839699
0.08861672
0.08846958
0.08798621
0.08721839
0.0862369
0.08511257
0.08389907
0.08265085
0.08139258
0.08012945
0.07893789
0.07774552
0.07649588
0.07514416
0.07358223
0.07179972
0.07003254
0.06846775
0.06714189
0.06601702
0.06501631
0.06411225
0.06332691
0.06271771
0.06237536
0.06242108
0.06297395
0.06405369
0.0654942
0.06718238
0.06902611
0.0709402
0.07282674
0.0745368
0.07588253
0.07669448
0.07689123
0.07650518
0.07567175
0.07457563
0.07339298
0.0723584
0.07164412
0.07132578
0.07140922
0.07187026
0.07267722
0.07378216
0.07512587
0.07664409
0.07827414
0.07996097
0.08165964
0.08333723
0.08497159
0.08654872
0.08806248
0.0895104
0.09091338
0.09226306
0.0935439
0.09473853
0.09582755
0.09679022
0.09760362
0.09824489
0.09869731
0.09895315
0.09899689
0.09880802
0.09837538
0.09771346
0.0968659
0.09588497
0.0948073
0.09364984
0.09241867
0.09112427
0.08978276
0.08840712
0.0870045
0.08557658
0.08412053
0.0826307
0.08110035
0.07952333
0.07789533
0.07621524
0.07448518
0.07271056
0.07089995
0.06906425
0.06721668
0.06537135
0.06354263
0.06174449
0.05998984
0.05829006
0.05665466
0.05509064
0.05360311
0.05219485
0.05086654
0.04961689
0.0484431
0.04734143
0.04630652
0.04533249
0.0444132
0.04354268
0.04271512
0.04192558
0.04116987
0.04044474
0.03974797
0.03907821
0.03843529
0.03782003
0.03723424
0.0366807
0.03616303
0.03568537
0.03525202
0.03486678
0.03453258
0.03425079
0.03402085
0.03384017
0.03370426
0.03360728
0.0335427
0.03350417
0.03348619
0.03348478
0.03349762
0.03352457
0.0335665
0.0336267
0.0337072
0.03381405
0.03394878
0.03412141
0.03433064
0.03459022
0.03489541
0.0352752
0.035723
0.03630194
0.03690273
0.0446505
0.05055883
0.05584096
0.08580588
0.1161485
0.1537953
0.1790313
0.2042735
0.2280681
0.2502175
0.2695517
0.2862311
0.3024643
0.3190442
0.3357814
0.3526829
0.3697281
0.3865175
0.4027432
0.4185453
0.4337838
0.4482677
0.462207
0.4756446
0.4884892
0.5006558
0.5120087
0.5225493
0.5320767
0.5408685
0.5491854
0.5805217
0.5825003
0.5828231
0.5818017
0.5795841
0.5763016
0.5720696
0.5670003
0.5612359
0.5550275
0.5484208
0.5415439
0.5345088
0.5273972
0.5202554
0.51311
0.5059776
0.4988703
0.4917798
0.4846785
0.4776249
0.4706005
0.4636164
0.4565713
0.449524
0.4425294
0.4355934
0.4287052
0.421839
0.414984
0.4081658
0.4014266
0.3948155
0.3883996
0.3822015
0.3762697
0.3705135
0.3645448
0.3588188
0.3532964
0.3479206
0.3426673
0.3375464
0.3325897
0.327836
0.3233107
0.3190102
0.3149029
0.3109517
0.3071039
0.3033074
0.2995392
0.2958142
0.2921756
0.2886762
0.2853569
0.2822321
0.2792835
0.2764579
0.2736812
0.2708976
0.2680929
0.2652963
0.2625685
0.2599762
0.2575696
0.255352
0.2532717
0.2512411
0.2491874
0.2470727
0.2449125
0.2427533
0.2406774
0.2387358
0.2369696
0.2353706
0.2338733
0.2323889
0.2308514
0.2292394
0.2275798
0.2259342
0.2243737
0.2229521
0.2216869
0.2205476
0.2194635
0.2183546
0.2171712
0.215916
0.2146399
0.2134185
0.2123283
0.2114168
0.2106498
0.2099263
0.2091656
0.208309
0.2073161
0.2061885
0.2049917
0.203824
0.2027531
0.2017778
0.2008391
0.1998506
0.1987682
0.1975812
0.1963092
0.1950018
0.1937205
0.1925223
0.1914349
0.190453
0.1895538
0.1886986
0.1878621
0.1869977
0.1860663
0.1850373
0.1839346
0.1827683
0.1815516
0.1803155
0.1791036
0.1779169
0.1767331
0.1755398
0.1743479
0.1731819
0.1720637
0.1709983
0.1699718
0.1689598
0.1679399
0.1669027
0.1658567
0.1648154
0.1637825
0.1627493
0.1616965
0.1606044
0.1594637
0.1582834
0.1570828
0.155878
0.154676
0.1534809
0.1522996
0.1511399
0.1500055
0.14889
0.1477763
0.1466438
0.1454818
0.144296
0.1431049
0.1419312
0.140792
0.1396926
0.1386266
0.1375825
0.1365513
0.1355284
0.1345101
0.1334891
0.1324512
0.1313781
0.1302538
0.1290718
0.1278381
0.1265704
0.1252963
0.1240479
0.1228608
0.1217727
0.1208219
0.1200489
0.1194951
0.1191974
0.1191738
0.119414
0.1198856
0.1205312
0.1212465
0.1219062
0.1223958
0.1226157
0.1224978
0.1220203
0.1212092
0.1201253
0.1188401
0.1174148
0.1158939
0.1143092
0.1126877
0.1110541
0.1094309
0.1078353
0.106279
0.10477
0.1033193
0.1019465
0.1006806
0.09955916
0.09862254
0.09790652
0.09743518
0.09724586
0.09733457
0.09765692
0.09815184
0.09874805
0.09937572
0.09995679
0.100426
0.1007327
0.1008519
0.1007779
0.100526
0.1001116
0.09956063
0.09887507
0.09805391
0.09710878
0.0960655
0.09496015
0.09383821
0.09275314
0.09176231
0.09092037
0.09027147
0.08984257
0.08963857
0.08964005
0.08980556
0.09007768
0.09039288
0.09069437
0.09094262
0.09112203
0.09124695
0.09135809
0.09150997
0.09175821
0.09215818
0.09275592
0.09357845
0.094624
0.09586431
0.09725329
0.09873228
0.1002357
0.1016951
0.1030448
0.104222
0.1051624
0.1057983
0.1060688
0.1059572
0.1055013
0.1047385
0.1036928
0.1023887
0.1008596
0.09914754
0.0973006
0.09537051
0.09341241
0.09148625
0.08965802
0.08799817
0.08657582
0.08545057
0.0846631
0.08422662
0.08412128
0.08429385
0.0846659
0.08514929
0.08565636
0.08610844
0.08644311
0.08662454
0.08663738
0.08648395
0.08617261
0.08572349
0.08515598
0.08449917
0.08376556
0.08297244
0.08211754
0.08121491
0.08021812
0.07902333
0.07763745
0.07621385
0.07487064
0.07363339
0.07246974
0.07133391
0.07020227
0.06907568
0.06796914
0.06691557
0.06598205
0.06526467
0.06485454
0.06481647
0.06520579
0.06607562
0.06744425
0.06921078
0.07128009
0.07357433
0.07596964
0.07830183
0.08036776
0.08197482
0.08300365
0.08346022
0.08346903
0.08323132
0.08295828
0.08280586
0.08288655
0.08329262
0.08404133
0.08509978
0.08640697
0.08789151
0.08948316
0.0911193
0.09274958
0.09433672
0.09585295
0.09727878
0.09859866
0.09980782
0.1009104
0.1018984
0.102762
0.1034928
0.1040794
0.1045085
0.1047648
0.104831
0.1047167
0.1044199
0.1039244
0.1032128
0.1022904
0.1012004
0.1000024
0.09874008
0.09743821
0.09610455
0.09474795
0.09338692
0.09203309
0.09068967
0.08935271
0.08801331
0.08665949
0.08527809
0.08385671
0.08238537
0.08085757
0.07927065
0.07762576
0.07592778
0.07418487
0.07240786
0.07060953
0.06880386
0.0670053
0.06522814
0.06348577
0.06179023
0.06015166
0.05857815
0.05707553
0.05564743
0.05429524
0.05301807
0.05181405
0.05067953
0.04960941
0.04859791
0.04763886
0.04672607
0.04585362
0.04501608
0.04420864
0.04342722
0.0426685
0.04192992
0.0412098
0.04050743
0.03982322
0.03915882
0.03851714
0.03790232
0.03731949
0.03677442
0.03627303
0.03582083
0.03542239
0.03508088
0.03479787
0.03457337
0.03440607
0.03429381
0.03423401
0.03422431
0.03426305
0.03434925
0.03448288
0.03466374
0.03489344
0.03517232
0.0355043
0.03588895
0.03633123
0.03683003
0.03739933
0.0380389
0.03878202
0.03953331
0.02200337
0.02457313
0.0270623
0.03614716
0.04823052
0.06869346
0.08315627
0.09857491
0.1152248
0.1321801
0.1497839
0.1691826
0.189972
0.211334
0.2336669
0.2588421
0.2975266
0.3156441
0.334042
0.3527484
0.3719325
0.3907707
0.4087004
0.4258288
0.4426181
0.458932
0.4746699
0.4900887
0.5051356
0.5197542
0.5338322
0.5472169
0.5597662
0.5712534
0.5816071
0.5907283
0.5986217
0.6051026
0.6103561
0.6137855
0.6160239
0.61595
0.6110596
0.605664
0.5994508
0.5922977
0.5843369
0.5757588
0.5667493
0.5574727
0.5480854
0.5387342
0.5295206
0.5205141
0.5117776
0.5033685
0.4953212
0.487648
0.4803331
0.4733303
0.4665775
0.4599987
0.4535515
0.447231
0.4410449
0.4350601
0.4292715
0.4234771
0.4177517
0.4120868
0.4064346
0.4007536
0.3950394
0.3893326
0.3837015
0.3782333
0.3729894
0.3680166
0.3632778
0.3586908
0.3542253
0.3498351
0.3454573
0.3410663
0.3366875
0.3323831
0.3282328
0.324304
0.3206232
0.3171679
0.3138763
0.3106639
0.3074501
0.304187
0.3008788
0.2975807
0.294381
0.2913714
0.2886146
0.2861041
0.2837466
0.2814219
0.2790335
0.2765425
0.273981
0.2714437
0.2690505
0.2668992
0.2650116
0.2633121
0.2616727
0.2599752
0.2581512
0.2562055
0.2542126
0.2522908
0.2505484
0.2490484
0.2477765
0.2466367
0.2455005
0.2442659
0.2428938
0.2414169
0.2399237
0.2385249
0.2373137
0.2363282
0.2355249
0.2347948
0.2340102
0.2330852
0.2320156
0.2308752
0.2297821
0.2288545
0.2281685
0.227714
0.2273806
0.2269978
0.2264391
0.2256766
0.2247512
0.2237677
0.2228593
0.2221167
0.2215296
0.2209922
0.2203649
0.2195535
0.2185703
0.2174473
0.2162574
0.2150929
0.2140331
0.2131167
0.2123255
0.2116072
0.2108918
0.2101137
0.2092278
0.2082173
0.2071005
0.2059271
0.2047539
0.2035873
0.2024335
0.2012716
0.2000856
0.1988563
0.1975756
0.1962712
0.1949886
0.1937647
0.1926104
0.1915057
0.1904125
0.1892927
0.1881303
0.186942
0.1857592
0.1845953
0.1834375
0.1822557
0.1810169
0.179703
0.1783258
0.1769148
0.175496
0.1740782
0.1726632
0.1712587
0.1698782
0.168531
0.1672113
0.1658946
0.1645489
0.1631567
0.161727
0.1602893
0.1588789
0.1575225
0.1562299
0.1549933
0.1537971
0.1526276
0.1514773
0.1503408
0.1492087
0.1480636
0.1468834
0.1456484
0.1443512
0.1429999
0.1416172
0.1402372
0.1389016
0.1376573
0.1365552
0.1356483
0.1349892
0.1346304
0.1346111
0.1349418
0.1355895
0.1364769
0.1374923
0.1384925
0.1393308
0.1398816
0.1400489
0.1397836
0.1390907
0.1380204
0.1366468
0.1350452
0.1332758
0.1313811
0.1293924
0.1273382
0.12525
0.1231626
0.1211105
0.1191244
0.1172305
0.1154533
0.1138213
0.1123689
0.1111357
0.1101634
0.1094898
0.1091432
0.1091522
0.1095248
0.1101928
0.1110659
0.112041
0.1130149
0.1138912
0.1145964
0.1150889
0.115353
0.1154159
0.1152861
0.1149669
0.1144593
0.1137561
0.1128496
0.1117407
0.1104419
0.1089766
0.1073801
0.1056976
0.1039809
0.1022834
0.1006559
0.09914193
0.09777349
0.09656878
0.09553247
0.09465779
0.09393036
0.09333437
0.09285828
0.09249985
0.09227087
0.09219799
0.09232011
0.09268424
0.09334395
0.09435342
0.09572538
0.09743527
0.09943215
0.1016459
0.1039917
0.1063783
0.1087178
0.110931
0.1129472
0.1146981
0.1161184
0.1171575
0.1177813
0.1179842
0.1177815
0.1171904
0.1162345
0.1149467
0.1133664
0.1115367
0.1095017
0.107306
0.1049955
0.1026203
0.1002352
0.09790045
0.09567862
0.09363009
0.09180617
0.09024168
0.08894966
0.0879205
0.08712633
0.08652769
0.08608063
0.0857417
0.08547218
0.08523888
0.08501719
0.0847889
0.08454144
0.08426751
0.08396377
0.08362302
0.08323872
0.08280139
0.08229891
0.08170281
0.08097614
0.08012414
0.07920657
0.07828766
0.07739623
0.07651962
0.07562535
0.07468613
0.07368376
0.07260582
0.07145354
0.07025312
0.06905594
0.06792637
0.0669314
0.06614146
0.06563508
0.06549345
0.06578676
0.0665796
0.06791929
0.06979722
0.07206778
0.07461875
0.0773441
0.08010422
0.08272898
0.08503931
0.08691443
0.08833596
0.08938886
0.09022224
0.09099587
0.09184013
0.09283119
0.09399176
0.09530524
0.09673127
0.09821703
0.09971022
0.1011658
0.1025417
0.1038009
0.104908
0.1058322
0.106573
0.1071309
0.1074993
0.1076861
0.1076981
0.10754
0.1072194
0.1067524
0.106158
0.105449
0.1046195
0.1036463
0.1025155
0.1012585
0.09993924
0.09860962
0.0972955
0.09600202
0.09472972
0.09349417
0.09230116
0.09114776
0.09002436
0.08891671
0.08780764
0.08667882
0.08551273
0.08429457
0.08301346
0.08166288
0.08024051
0.07874818
0.07719142
0.07557895
0.07392204
0.07223393
0.07052907
0.06882244
0.06712881
0.06546206
0.06383463
0.06225713
0.06073807
0.05928367
0.05789783
0.05658222
0.05533631
0.05415809
0.05304412
0.05198956
0.05098885
0.05003607
0.04912527
0.04825069
0.04740694
0.04658903
0.04579245
0.04501318
0.04424778
0.04349354
0.04274873
0.04201277
0.04128642
0.04057194
0.03987305
0.03919487
0.03854362
0.03792628
0.03735008
0.03682203
0.03634846
0.03593474
0.03558508
0.03530262
0.03508947
0.03494722
0.03487709
0.03488026
0.03495789
0.03511096
0.03534095
0.03564878
0.03603621
0.03650267
0.03704871
0.03767241
0.0383787
0.03916393
0.04004057
0.0409146
0.00945686
0.01100448
0.01219618
0.01813804
0.02498472
0.03400745
0.04143554
0.04986613
0.05902416
0.06881369
0.07958967
0.0923343
0.1063646
0.1221093
0.1410496
0.1703252
0.185938
0.2024211
0.2192189
0.2362782
0.2535121
0.270783
0.287924
0.3047822
0.3211753
0.3370982
0.3526735
0.369644
0.3868294
0.4045341
0.4227158
0.4408218
0.4583401
0.4751824
0.4909926
0.5059457
0.5202876
0.5340665
0.5472502
0.5597413
0.5713825
0.5819621
0.5913132
0.5992785
0.6057715
0.6105667
0.6135973
0.6138596
0.611993
0.6080817
0.602262
0.5944791
0.5846107
0.5735456
0.561528
0.5488651
0.5358996
0.5229326
0.5102036
0.4978929
0.4861252
0.4749751
0.4644907
0.4546957
0.4456129
0.4372609
0.4296531
0.4227795
0.4165853
0.4109717
0.4057971
0.4009267
0.396334
0.3919666
0.3878121
0.3836721
0.3796886
0.3759248
0.3724049
0.3690468
0.3657166
0.362299
0.358741
0.355067
0.3513631
0.3477441
0.3443134
0.3411378
0.3382215
0.3354943
0.3328535
0.3301982
0.327446
0.3245588
0.3215589
0.3185275
0.3155761
0.3128136
0.3103022
0.3080385
0.3059447
0.3039006
0.3017868
0.2995241
0.2971069
0.2946112
0.2921707
0.2899252
0.2879736
0.2863195
0.2848415
0.2833637
0.2817473
0.2799373
0.2779756
0.275992
0.2741642
0.2726383
0.2714435
0.2704684
0.2695318
0.2684743
0.2672093
0.2657466
0.2641911
0.2627099
0.2614689
0.260552
0.2599165
0.2594185
0.2588767
0.2581526
0.2572023
0.2560862
0.2549411
0.2539304
0.253188
0.2527627
0.2525796
0.2524568
0.2521947
0.2516812
0.2509451
0.2501274
0.2494222
0.2490181
0.2490221
0.2493793
0.2498991
0.2502997
0.2503702
0.2501111
0.2496533
0.249199
0.2489486
0.2490084
0.2493012
0.2495888
0.2496094
0.2492205
0.2484899
0.2475546
0.2465387
0.2455763
0.2447737
0.2441603
0.2436732
0.2431949
0.2426215
0.2418652
0.2408854
0.2397047
0.238387
0.2370301
0.2357101
0.234448
0.2332064
0.2319299
0.2305768
0.2291265
0.2275854
0.2260051
0.2244568
0.2229928
0.2216201
0.2203013
0.2189805
0.2176051
0.2161522
0.2146546
0.2131715
0.2117272
0.2103017
0.2088504
0.2073245
0.2056944
0.2039785
0.2022271
0.20048
0.1987429
0.197009
0.1952803
0.193571
0.1918966
0.1902561
0.1886218
0.1869523
0.1852263
0.1834587
0.1816923
0.1799762
0.1783476
0.1768207
0.1753862
0.1740225
0.1727077
0.1714253
0.1701611
0.1688982
0.1676164
0.1662953
0.1649217
0.1634969
0.1620402
0.1605863
0.1591809
0.1578787
0.1567423
0.1558419
0.1552521
0.1550475
0.1552924
0.1560211
0.1572079
0.1587426
0.1604336
0.1620462
0.1633616
0.1642167
0.1645103
0.1642011
0.1633075
0.1618998
0.1600808
0.1579609
0.1556363
0.1531778
0.1506323
0.1480325
0.1454086
0.1427947
0.1402309
0.1377605
0.1354256
0.1332633
0.1313084
0.1295959
0.1281627
0.127048
0.1262927
0.1259354
0.1260039
0.1265196
0.1274805
0.1287783
0.1302793
0.1318315
0.1332818
0.1345049
0.13543
0.1360462
0.1363838
0.1364882
0.1363695
0.1360171
0.1354165
0.1345422
0.133381
0.1319346
0.1302161
0.1282544
0.1260918
0.1237787
0.1213689
0.1189167
0.1164741
0.1140887
0.111803
0.109652
0.1076626
0.1058547
0.1042428
0.1028379
0.1016502
0.1006936
0.09998863
0.09956493
0.09946122
0.0997203
0.1003857
0.1014975
0.1030938
0.1051483
0.1075884
0.1103274
0.1132644
0.1162949
0.1193196
0.1222362
0.1249533
0.1273863
0.1294559
0.1310917
0.1322528
0.1329256
0.133112
0.1328273
0.1320987
0.1309626
0.1294608
0.1276371
0.125535
0.1231969
0.120665
0.1179828
0.1151971
0.112358
0.1095197
0.1067392
0.1040716
0.1015629
0.09924518
0.09713531
0.09523642
0.09354024
0.09203289
0.0906987
0.08952144
0.08848549
0.08757637
0.08678033
0.08608411
0.08547557
0.08494128
0.08446449
0.08402783
0.08361279
0.08319829
0.08275984
0.08227439
0.08173493
0.08115827
0.08057078
0.07998509
0.07938963
0.07875829
0.07806414
0.07728347
0.07639659
0.07539164
0.07426877
0.0730414
0.0717342
0.07038129
0.0690305
0.06775273
0.06664315
0.06580765
0.06534537
0.06533576
0.06583034
0.06684634
0.06839276
0.07046442
0.07297882
0.07580105
0.07883901
0.08196041
0.08502434
0.08788398
0.09043687
0.09265351
0.09457544
0.09628311
0.09785839
0.09936224
0.1008259
0.1022524
0.1036235
0.1049071
0.1060629
0.1070466
0.1078093
0.1083015
0.1085189
0.1084831
0.1082194
0.1077554
0.1071181
0.1063337
0.1054314
0.1044483
0.1034266
0.1023995
0.1013736
0.1003201
0.0991998
0.09801247
0.09680944
0.09563076
0.0944828
0.09337917
0.0923338
0.09135444
0.09043889
0.08957781
0.08875674
0.08795739
0.08715897
0.08633963
0.08547848
0.0845576
0.08356346
0.08248733
0.08132512
0.08007708
0.07874727
0.07734306
0.07587473
0.07435491
0.07279791
0.07121898
0.06963356
0.06805654
0.06650173
0.06498138
0.06350578
0.06208305
0.06071894
0.05941694
0.0581783
0.05700241
0.05588692
0.05482824
0.05382171
0.05286218
0.05194416
0.05106205
0.05021038
0.04938389
0.04857752
0.04778648
0.0470063
0.04623306
0.04546359
0.04469578
0.04392876
0.04316307
0.04240086
0.0416458
0.04090306
0.04017904
0.03948109
0.03881707
0.03819497
0.03762258
0.03710711
0.03665518
0.0362726
0.03596464
0.035736
0.03559109
0.03553397
0.03556855
0.03569861
0.03592751
0.03625826
0.03669236
0.03723025
0.0378709
0.03861423
0.03945491
0.04039185
0.04133386
0.002337634
0.009046949
0.01347529
0.01861754
0.02435641
0.03093027
0.03844639
0.04671686
0.05600161
0.06721925
0.08420232
0.09441476
0.1055161
0.1172294
0.1296026
0.1425726
0.156076
0.1699921
0.1841372
0.1983732
0.2126789
0.2288939
0.2453927
0.2619658
0.2784823
0.2948693
0.3110169
0.3269152
0.3425365
0.3577675
0.3728066
0.3878891
0.4034541
0.4192316
0.4351953
0.4512325
0.4669295
0.4818645
0.4957569
0.5088119
0.5212633
0.5332266
0.5446902
0.5555795
0.5657757
0.575083
0.5831238
0.5897288
0.594675
0.5975012
0.5972138
0.5944876
0.5890885
0.5811782
0.5709446
0.5587044
0.5447847
0.5295804
0.5136086
0.4973142
0.481092
0.465291
0.450207
0.4360676
0.4230196
0.4111261
0.4003812
0.3907375
0.3821337
0.3745346
0.3679285
0.3623278
0.3577246
0.3540589
0.3511181
0.3486557
0.3463733
0.3439183
0.341371
0.3388777
0.3365386
0.3345268
0.3329376
0.3317214
0.3306944
0.329628
0.3283436
0.3267642
0.3249244
0.3229492
0.3210033
0.3192324
0.3177266
0.316489
0.3154282
0.3143975
0.3132591
0.3119233
0.3103585
0.3085997
0.3067463
0.3049489
0.3033555
0.3020434
0.3009969
0.3001089
0.2992108
0.2981537
0.2968629
0.295361
0.2937585
0.2922249
0.2909477