/*--------------------------------*- C++ -*----------------------------------*\
| =========                 |                                                 |
| \\      /  F ield         | foam-extend: Open Source CFD                    |
|  \\    /   O peration     | Version:     3.1                                |
|   \\  /    A nd           | Web:         http://www.extend-project.de       |
|    \\/     M anipulation  |                                                 |
\*---------------------------------------------------------------------------*/
FoamFile
{
    version     2.0;
    format      ascii;
    class       volScalarField;
    location    "17";
    object      p;
}
// * * * * * * * * * * * * * * * * * * * * * * * * * * * * * * * * * * * * * //

dimensions      [1 -1 -2 0 0 0 0];

internalField   nonuniform List<scalar> 
119952
(
4822.162
3074.67
2824.059
3058.443
3309.011
3079.043
3003.999
2941.966
2899.364
2865.557
2837.022
2813.144
2792.971
2773.927
2756.44
2739.321
2721.336
2698.235
2659.476
2539.708
2937.624
2712.951
2600.223
3137.197
3100.112
3136.348
3190.578
3328.511
3778.887
7389.353
2719.922
2665.669
2665.115
2657.423
2650.619
2646.265
2638.745
2634.382
2633.186
2602.409
2573.307
2587.254
2576.947
2569.325
2562.594
2557.341
2553.066
2548.843
2546.064
2534.366
2530.171
2506.968
2500.496
2500.457
2500.019
2500.519
2501.866
2502.807
2512.177
2509.003
2508.521
2520.093
2531.831
2543.463
2556.686
2571.37
2597.317
2686.704
2873.728
2721.321
2656.917
2748.542
2787.535
2755.624
2693.329
2648.304
2613.134
2582.346
2556.097
2534.246
2515.484
2498.708
2483.101
2468.095
2452.595
2435.692
2419.626
2412.414
2440.757
2472.011
2472.103
2593.723
2780.235
2822.837
2840.482
2859.058
2775.499
2460.237
2388.161
2474.417
2508.959
2540.167
2573.667
2602.487
2629.702
2657.063
2684.839
2713.307
2742.619
2772.811
2803.931
2836.067
2869.306
2903.721
2939.363
2976.284
3014.559
3054.306
3095.69
3138.9
3184.136
3231.575
3281.371
3333.647
3388.476
3445.866
3505.744
3567.963
3632.308
3698.499
3766.194
3834.979
3904.364
3973.78
4042.587
4110.091
4175.583
4238.37
4297.849
4353.538
4405.101
4452.33
4495.052
4533.102
4566.312
4594.891
4621.633
4649.073
4671.94
4684.605
4694.514
4704.327
4713.626
4723.223
4733.812
4746.201
4761.017
4778.693
4800.175
4825.625
4854.674
4887.162
4922.595
4960.066
4998.089
5034.883
5070.897
5108.788
5151.444
5199.406
5251.045
5304.327
5357.766
5410.562
5462.252
5512.695
5562.364
5611.226
5658.958
5705.323
5749.946
5792.291
5832.32
5869.424
5903.684
5935.207
5964.028
5990.427
6014.687
6037.175
6057.614
6076.275
6092.959
6106.111
6111.849
6104.331
6110.774
6169.582
6179.73
6182.185
6185.734
6187.727
6187.591
6184.585
6179.742
6174.059
6168.467
6163.702
6160.534
6159.348
6159.725
6161.198
6163.371
6166.018
6169.012
6172.386
6176.129
6180.438
6185.346
6190.797
6196.711
6202.956
6209.469
6216.198
6223.059
6230.046
6237.133
6244.245
6251.23
6257.721
6262.991
6264.19
6263.166
6295.354
6323.218
6332.245
6323.539
6338.016
6358.752
6377.608
6392.679
6405.675
6417.141
6427.179
6436.129
6444.219
6451.483
6457.817
6463.255
6468.116
6472.711
6477.651
6483.256
6490.03
6498.506
6508.233
6519.186
6531.099
6543.713
6556.808
6570.225
6583.886
6597.783
6611.981
6626.598
6641.729
6657.156
6668.129
6672.421
6680.848
6698.117
6713.452
6715.715
6698.929
6703.612
6723.919
6747.122
6768.193
6785.778
6799.984
6811.293
6819.854
6825.525
6829.576
6833.719
6837.724
6840.023
6839.394
6836.353
6832.214
6828.273
6825.739
6824.975
6825.98
6828.134
6830.848
6833.699
6836.197
6837.95
6838.626
6838
6835.996
6832.626
6827.829
6821.711
6814.482
6806.273
6797.473
6788.427
6779.538
6771.283
6763.983
6757.892
6752.711
6749.623
6749.147
6751.174
6755.763
6762.852
6772.348
6784.538
6796.447
6810.18
6825.414
6840.465
6855.347
6869.548
6882.763
6894.809
6905.651
6915.337
6923.918
6931.409
6937.801
6943.082
6947.276
6950.452
6952.708
6954.152
6954.895
6955.044
6954.696
6953.943
6952.867
6951.549
6950.062
6948.484
6946.881
6945.306
6943.808
6942.45
6941.269
6940.287
6939.54
6939.029
6938.753
6938.709
6938.888
6939.279
6939.867
6940.633
6941.557
6942.617
6943.795
6945.062
6946.386
6947.737
6949.08
6950.384
6951.613
6952.736
6953.726
6954.561
6955.219
6955.692
6955.96
6956.007
6955.822
6955.392
6954.712
6953.777
6952.589
6951.163
6949.496
6947.597
6945.472
6943.122
6940.543
6937.721
6934.642
6931.287
6927.635
6923.66
6919.324
6914.567
6909.356
6903.692
6897.413
6890.432
6882.461
6873.215
6862.097
6848.621
6834.947
6836.618
6882.593
5102.203
4951.107
4771.77
4604.033
4443.798
4291.619
4147.975
4012.503
3886.163
3740.625
3626.431
3523.138
3424.653
3333.626
3250.648
3174.871
3106.417
3040.799
2939.277
2912.107
2855.202
2801.283
2757.96
2719.753
2684.872
2653.424
2624.255
2599.388
2581.249
2546.416
2525.553
2508.399
2490.381
2473.767
2458.251
2443.453
2431.754
2428.763
2401.198
2382.313
2374.378
2366.531
2357.398
2348.659
2340.265
2332.165
2324.818
2311.157
2306.717
2302.584
2296.193
2289.224
2282.811
2277.083
2272.893
2277.223
2190.098
2188.546
2192.247
2194.292
2193.635
2192.055
2191.226
2191.611
2193.095
2194.831
2200.085
2208.706
2217.747
2227.259
2238.835
2254.459
2276.828
2309.526
2348.756
2382.365
2387.548
2374.761
2374.442
2376.017
2365.414
2340.03
2308.06
2277.534
2251.735
2230.564
2212.696
2197.045
2182.992
2170.06
2158.178
2147.826
2139.462
2137.267
2144.454
2163.163
2195.522
2240.781
2299.419
2365.198
2410.702
2421.229
2396.887
2341.136
2260.829
2204.495
2202.73
2226.27
2255.353
2282.98
2307.969
2332.578
2358.311
2385.394
2413.684
2443.006
2473.253
2504.432
2536.656
2570.058
2604.688
2640.549
2677.685
2716.179
2756.15
2797.785
2841.306
2886.894
2934.715
2984.945
3037.741
3093.201
3151.345
3212.116
3275.372
3340.87
3408.287
3477.216
3547.166
3617.589
3687.883
3757.409
3825.484
3891.428
3954.583
4014.373
4070.339
4122.139
4169.52
4212.274
4250.288
4283.615
4312.503
4337.278
4357.939
4374.171
4386.364
4395.828
4403.516
4410.415
4417.631
4426.265
4437.171
4450.593
4467.383
4487.867
4512.343
4540.531
4572.384
4607.443
4645.008
4684.419
4725.085
4767.108
4811.457
4859.194
4910.434
4964.052
5018.681
5073.176
5126.771
5179.208
5230.256
5279.916
5328.176
5374.877
5419.772
5462.646
5503.243
5541.638
5576.086
5608.271
5637.755
5664.596
5688.863
5710.996
5731.162
5750.125
5766.915
5782.479
5793.385
5802.284
5807.919
5815.397
5887.971
5903.536
5910.832
5913.509
5915.467
5915.318
5912.96
5908.734
5903.662
5898.555
5894.067
5890.889
5889.246
5888.583
5888.992
5890.054
5891.628
5893.7
5896.137
5899.515
5903.372
5907.622
5912.447
5917.759
5923.449
5929.446
5935.748
5942.335
5949.175
5956.31
5963.705
5971.193
5978.587
5985.836
5993.388
6003.779
6021.109
6040.607
6052.343
6059.779
6073.693
6090.17
6106.277
6120.562
6133.325
6144.737
6155.013
6164.342
6172.826
6180.429
6187.009
6192.593
6197.528
6202.256
6206.999
6212.287
6218.665
6226.537
6235.787
6246.475
6258.063
6270.376
6283.165
6296.199
6309.503
6323.061
6336.942
6351.253
6366.187
6383.229
6346.114
6364.657
6375.772
6384.363
6391.854
6399.728
6405.165
6408.783
6424.223
6446.574
6464.515
6479.996
6493.554
6504.831
6513.913
6521.263
6528.147
6535.449
6541.445
6542.872
6539.202
6532.736
6526.015
6520.942
6518.219
6518.076
6519.872
6522.611
6525.799
6529.111
6532.04
6533.958
6534.62
6534.077
6532.032
6528.491
6523.46
6517.05
6509.448
6500.886
6491.673
6482.169
6472.769
6463.887
6455.9
6449.177
6444.165
6440.648
6439.678
6441.321
6445.561
6452.321
6461.412
6472.534
6485.269
6498.909
6513.235
6527.852
6542.293
6556.079
6568.851
6580.434
6590.844
6600.2
6608.559
6615.901
6622.164
6627.29
6631.354
6634.47
6636.746
6638.289
6639.203
6639.588
6639.537
6639.134
6638.462
6637.595
6636.605
6635.556
6634.507
6633.509
6632.602
6631.825
6631.208
6630.764
6630.508
6630.442
6630.56
6630.856
6631.322
6631.948
6632.721
6633.626
6634.663
6635.805
6637.03
6638.316
6639.645
6640.992
6642.327
6643.622
6644.848
6645.978
6646.988
6647.856
6648.564
6649.094
6649.433
6649.567
6649.483
6649.17
6648.618
6647.819
6646.767
6645.463
6643.908
6642.1
6640.042
6637.732
6635.164
6632.338
6629.239
6625.859
6622.171
6618.171
6613.809
6609.083
6603.919
6598.329
6592.174
6585.446
6578.035
6570.112
6562.051
6554.67
6549.311
6545.711
6542.104
2884.573
2951.719
3041.111
3149.759
3275.638
3417.662
3575.4
3748.109
3933.971
4128.017
4315.713
4527.336
4742.683
4961.518
5181.463
5396.938
5606.51
5804.16
5986.712
6137.98
6279.299
6396.237
6486.893
6549.114
6581.321
6582.854
6553.945
6496.049
6414.488
6305.164
6175.451
6027.051
5865.1
5692.934
5513.731
5330.362
5145.807
4963.066
4770.709
4593.344
4419.628
4252
4092.315
3940.205
3796.523
3661.875
3537.057
3420.501
3307.765
3206.083
3111.805
3023.609
2942.747
2868.796
2802.177
2751.336
2596.168
2545.899
2506.279
2467.382
2428.644
2391.827
2357.997
2327.386
2299.893
2274.492
2251.005
2231.164
2212.649
2194.054
2175.867
2158.797
2142.988
2128.427
2114.865
2101.795
2090.439
2079.932
2069.264
2058.655
2048.461
2038.638
2029.128
2019.838
2010.813
2003.645
1997.691
1991.463
1985.027
1978.643
1972.184
1965.674
1958.983
1952.783
1947.614
1946.178
1946.665
1945.648
1943.602
1941.669
1940.465
1940.261
1941.214
1944.219
1949.274
1955.957
1964.381
1974.624
1986.903
2001.928
2020.135
2040.896
2063.379
2086.204
2097.813
2093.405
2086.799
2084.669
2078.096
2060.589
2035.473
2009.869
1987.853
1970.191
1955.57
1942.719
1931.248
1920.983
1912.297
1904.888
1900.675
1902.671
1910.946
1927.681
1953.954
1987.723
2028.793
2071.61
2102.928
2112.049
2099.328
2070.002
2028.438
1989.086
1978.865
1995.232
2020.095
2044.176
2066.569
2089.327
2113.686
2139.841
2167.55
2196.514
2226.507
2257.422
2289.378
2322.577
2357.044
2392.713
2429.632
2467.875
2507.512
2548.764
2591.914
2637.136
2684.585
2734.499
2787.113
2842.568
2900.898
2962.084
3026.023
3092.481
3161.12
3231.485
3303.002
3375.044
3446.976
3518.142
3587.847
3655.383
3720.075
3781.334
3838.71
3891.864
3940.526
3984.456
4023.43
4057.232
4085.738
4108.991
4127.379
4141.579
4151.719
4158.199
4162.551
4166.335
4170.532
4176.241
4184.341
4194.99
4208.749
4226.81
4249.83
4276.236
4306.933
4341.696
4379.914
4420.992
4464.497
4510.425
4559.128
4610.877
4665.401
4721.821
4779.044
4836.048
4892.018
4946.454
4999.088
5049.812
5098.531
5145.111
5189.382
5231.128
5270.12
5305.762
5339.927
5370.491
5398.016
5422.86
5445.22
5465.437
5483.755
5500.859
5516.301
5529.834
5542.519
5552.947
5562.171
5572.153
5584.27
5594.188
5600.481
5604.077
5606.082
5606.444
5605.123
5602.567
5599.388
5596.211
5593.483
5591.48
5590.297
5589.958
5590.342
5591.289
5592.622
5594.316
5596.301
5598.712
5601.854
5605.228
5609.314
5613.788
5618.596
5623.739
5629.336
5635.308
5641.689
5648.7
5656.305
5664.565
5673.476
5683.196
5694.118
5706.735
5720.828
5734.838
5748.259
5760.121
5772.716
5786.481
5800.128
5812.83
5824.551
5835.382
5845.427
5854.802
5863.577
5871.775
5879.364
5886.353
5892.86
5899.064
5905.404
5912.232
5919.861
5928.525
5938.16
5948.575
5959.616
5971.115
5983.263
5995.358
6007.852
6020.686
6033.759
6047.13
6061.018
6075.141
6088.319
6100.391
6113.027
6127.68
6139.589
6147.681
6155.196
6164.365
6179.254
6197.183
6213.942
6228.785
6242.231
6254.397
6265.256
6274.34
6281.583
6287.236
6290.927
6291.889
6290.083
6286.765
6283.855
6281.505
6279.642
6278.773
6279.301
6281.15
6283.83
6287.041
6290.062
6292.092
6292.883
6292.415
6290.616
6287.238
6282.149
6275.556
6267.683
6258.766
6249.103
6239.045
6228.985
6219.334
6210.504
6202.909
6196.926
6192.796
6191.131
6192.055
6195.634
6201.785
6210.297
6220.859
6233.079
6246.587
6260.969
6275.65
6290.114
6303.837
6316.389
6327.604
6337.605
6346.702
6354.955
6362.271
6368.601
6373.775
6377.822
6380.935
6383.251
6384.88
6385.927
6386.491
6386.663
6386.526
6386.159
6385.637
6385.029
6384.394
6383.784
6383.244
6382.808
6382.503
6382.348
6382.351
6382.516
6382.838
6383.31
6383.922
6384.663
6385.522
6386.488
6387.552
6388.696
6389.915
6391.191
6392.509
6393.851
6395.197
6396.525
6397.809
6399.028
6400.157
6401.176
6402.066
6402.813
6403.402
6403.819
6404.05
6404.083
6403.905
6403.503
6402.867
6401.989
6400.862
6399.481
6397.845
6395.952
6393.801
6391.386
6388.705
6385.748
6382.513
6378.974
6375.132
6370.954
6366.44
6361.538
6356.241
6350.501
6344.344
6337.84
6331.187
6324.491
6318.096
6312.152
6306.723
6300.168
2606.456
2582.168
2557.083
2520.041
2499.052
2459.327
2464.72
2487.976
2526.038
2545.38
2548.507
2570.549
2615.61
2680.454
2765.104
2867.182
2985.704
3120.599
3269.139
3431.712
3607.698
3794.849
3990.571
4193.856
4402.615
4614.506
4826.852
5037.095
5241.566
5436
5617.238
5760.015
5902.167
6016.196
6101.762
6158.116
6184.101
6179.376
6144.776
6082.112
5993.931
5882.007
5748.761
5598.06
5434.094
5260.726
5081.324
4898.698
4715.166
4532.584
4352.605
4177.021
4006.595
3842.85
3686.764
3539.344
3400.998
3271.657
3151.291
3039.308
2934.814
2837.358
2746.846
2663.023
2585.73
2514.827
2450.118
2390.809
2333.644
2285.582
2245.532
2206.878
2168.583
2132.311
2099.014
2068.892
2041.751
2017.645
1996.599
1977.443
1959.214
1941.69
1924.659
1908.1
1892.186
1877.09
1863.242
1851.44
1841.121
1830.766
1820.495
1810.517
1800.574
1790.446
1780.519
1771.07
1761.761
1754.47
1748.65
1743.356
1737.908
1731.861
1725.001
1717.636
1710.467
1704.388
1699.464
1696.996
1696.157
1695.407
1694.301
1692.868
1691.336
1690.208
1689.761
1691.742
1696.472
1702.699
1711.336
1721.706
1732.939
1744.868
1757.478
1770.852
1784.918
1798.543
1807.551
1809.394
1806.056
1801.503
1794.382
1780.717
1761.402
1740.738
1722.649
1708.763
1697.391
1687.148
1678.338
1670.65
1664.191
1659.208
1657.254
1660.076
1668.249
1683.108
1704.643
1731.832
1761.86
1790.391
1811.691
1820.094
1814.94
1799.046
1776.977
1756.75
1751.319
1762.391
1781.54
1802.008
1822.167
1843.445
1866.651
1891.919
1918.999
1947.6
1977.387
2008.007
2039.638
2072.64
2106.92
2142.241
2178.727
2216.505
2255.556
2296.18
2338.767
2383.417
2430.235
2479.563
2531.764
2587.06
2645.517
2707.163
2771.948
2839.656
2909.989
2982.465
3056.371
3130.925
3205.394
3279.084
3351.293
3421.275
3488.278
3551.64
3610.89
3665.719
3715.875
3761.059
3800.892
3834.983
3863.04
3885.024
3901.277
3912.346
3918.77
3921.559
3922.251
3922.371
3922.985
3924.813
3928.882
3935.834
3946.292
3961.362
3981.504
4005.811
4035.141
4069.482
4108.427
4151.501
4198.213
4248.177
4301.155
4356.922
4415.032
4474.736
4535.124
4595.3
4654.488
4712.084
4767.632
4820.789
4871.289
4918.929
4963.554
5005.003
5043.149
5077.877
5109.535
5137.728
5162.719
5184.841
5204.41
5221.916
5237.895
5252.872
5267.025
5281.016
5293.038
5304.635
5315.466
5325.959
5336.238
5344.885
5351.288
5355.563
5358.169
5359.3
5359.09
5357.938
5356.324
5354.693
5353.398
5352.634
5352.417
5352.723
5353.47
5354.48
5355.623
5356.934
5358.495
5360.391
5362.792
5365.567
5368.592
5371.9
5375.373
5379.23
5383.565
5388.537
5394.279
5400.986
5408.745
5417.622
5427.653
5438.782
5450.904
5463.909
5477.569
5491.232
5504.045
5516.102
5528.299
5540.789
5552.955
5564.449
5575.273
5585.498
5595.222
5604.57
5613.636
5622.456
5631.028
5639.365
5647.514
5655.522
5663.485
5671.556
5679.934
5688.839
5698.414
5708.594
5719.17
5730.087
5741.434
5753.023
5764.844
5776.915
5789.266
5801.996
5814.816
5828.101
5841.772
5854.914
5867.526
5879.05
5889.359
5898.649
5908.016
5918.91
5932.309
5947.322
5962.525
5976.66
5989.764
6001.691
6012.143
6021.015
6028.549
6034.873
6039.884
6043.169
6044.03
6042.34
6039.09
6035.852
6034.173
6035.046
6038.398
6042.601
6046.19
6049.002
6050.981
6052.22
6052.612
6051.925
6049.803
6046.018
6040.566
6033.597
6025.295
6015.881
6005.646
5994.954
5984.222
5973.862
5964.3
5955.987
5949.337
5944.729
5942.582
5943.059
5946.343
5952.348
5960.765
5971.245
5983.433
5996.953
6011.41
6026.362
6041.248
6055.378
6068.134
6079.199
6088.743
6097.468
6105.481
6112.464
6118.377
6123.183
6126.943
6129.854
6132.035
6133.586
6134.61
6135.198
6135.438
6135.409
6135.188
6134.849
6134.458
6134.073
6133.741
6133.501
6133.384
6133.408
6133.588
6133.926
6134.421
6135.065
6135.846
6136.748
6137.758
6138.861
6140.041
6141.286
6142.583
6143.922
6145.291
6146.676
6148.062
6149.434
6150.773
6152.06
6153.275
6154.398
6155.409
6156.292
6157.031
6157.614
6158.03
6158.269
6158.321
6158.18
6157.836
6157.283
6156.514
6155.522
6154.301
6152.846
6151.149
6149.205
6147.005
6144.546
6141.814
6138.809
6135.51
6131.923
6128.02
6123.812
6119.259
6114.384
6109.165
6103.675
6097.933
6092.101
6086.141
6080.352
6074.471
6067.974
6058.41
2868.257
2836.552
2804.917
2749.019
2699.889
2618.204
2569.956
2521.976
2475.032
2429.287
2385.208
2344.536
2306.307
2272.489
2244.423
2221.855
2146.12
2143.767
2150.717
2163.16
2177.764
2200.049
2236.213
2288.815
2357.794
2443.459
2547.105
2667.361
2803.482
2954.423
3118.847
3295.324
3482.643
3679.111
3882.71
4091.224
4302.579
4513.675
4721.439
4923.029
5117.058
5292.884
5444.407
5583.443
5696.976
5781.883
5837.14
5861.881
5855.961
5820.172
5756.103
5666.058
5552.572
5418.405
5267.138
5102.905
4929.799
4751.321
4570.306
4389.174
4209.444
4032.193
3858.843
3690.59
3528.615
3374.291
3228.464
3091.834
2965.258
2848.57
2740.775
2640.596
2547.2
2460.154
2379.2
2304.1
2235.056
2171.83
2115.038
2064.446
2019.789
1980.094
1942.861
1906.877
1872.496
1840.287
1810.715
1784.304
1761.352
1741.437
1723.71
1707.276
1691.246
1675.026
1658.537
1642.189
1626.805
1613.108
1601.1
1591.192
1582.52
1573.846
1564.587
1554.456
1543.267
1531.89
1521.766
1512.422
1505.418
1501.031
1496.866
1492.066
1486.025
1478.542
1470.13
1460.855
1453.762
1449.48
1446.839
1446.826
1447.372
1447.065
1445.354
1442.506
1439.406
1437.094
1437.339
1441.247
1448.402
1457.562
1467.157
1476.503
1484.623
1492.01
1499.304
1506.84
1514.167
1522.048
1527.215
1526.528
1521.272
1514.186
1502.701
1487.069
1469.693
1454.493
1445.594
1437.19
1429.727
1423.819
1418.548
1413.882
1410.295
1408.818
1411.138
1418.749
1431.791
1448.86
1471.249
1495.566
1515.488
1530.534
1538.016
1537.276
1530.319
1520.218
1512.97
1513.17
1522.657
1539.023
1556.856
1574.826
1594.581
1616.835
1641.589
1668.209
1696.516
1726.263
1756.518
1787.689
1820.558
1854.735
1889.556
1925.358
1962.445
2000.532
2040.183
2082.057
2125.964
2171.879
2220.39
2272.011
2326.967
2385.305
2447.26
2512.983
2582.235
2654.847
2730.306
2807.608
2885.707
2963.717
3040.859
3116.432
3189.69
3259.777
3325.907
3387.553
3444.436
3496.364
3543.045
3584.006
3618.639
3646.364
3666.9
3680.439
3687.632
3689.526
3687.554
3683.394
3678.593
3674.372
3671.569
3670.789
3673.297
3680.077
3690.531
3705.544
3727.476
3755.413
3789.379
3829.414
3875.011
3925.396
3979.758
4037.412
4097.799
4160.34
4224.332
4288.97
4353.422
4416.881
4478.609
4537.963
4594.408
4647.523
4697.001
4742.612
4784.143
4821.557
4854.923
4884.338
4909.773
4931.48
4949.952
4965.788
4979.725
4992.551
5005.007
5017.531
5030.395
5043.225
5055.933
5068.014
5079.279
5089.462
5097.917
5104.279
5108.675
5111.38
5112.699
5112.987
5112.638
5112.018
5111.449
5111.182
5111.339
5111.941
5113.019
5114.492
5116.162
5117.979
5119.913
5121.943
5124.039
5126.146
5128.176
5130.103
5131.925
5133.821
5135.941
5138.605
5142.056
5146.647
5152.781
5160.622
5170.168
5181.353
5193.921
5207.429
5221.378
5235.282
5248.777
5261.399
5273.262
5284.65
5295.693
5306.319
5316.462
5326.172
5335.542
5344.686
5353.722
5362.746
5371.818
5380.967
5390.195
5399.479
5408.792
5418.154
5427.642
5437.355
5447.347
5457.664
5468.217
5478.796
5489.469
5500.249
5511.089
5522.026
5533.15
5544.496
5556.121
5568.043
5580.273
5592.635
5604.739
5616.451
5627.748
5638.613
5649.085
5659.464
5670.657
5683.377
5697.212
5711.127
5724.319
5736.607
5747.874
5758.061
5767.224
5775.42
5782.546
5788.286
5792.14
5793.783
5793.507
5792.493
5792.24
5793.243
5794.996
5797.122
5799.663
5802.88
5806.91
5811.009
5813.574
5814.19
5813.021
5810
5805.379
5799.352
5791.907
5783.104
5773.129
5762.284
5750.948
5739.546
5728.53
5718.357
5709.49
5702.36
5697.374
5694.944
5695.167
5698.224
5704.044
5712.415
5722.99
5735.321
5748.879
5763.309
5778.358
5793.484
5807.968
5821.09
5832.269
5841.583
5850.085
5857.806
5864.335
5869.481
5873.5
5876.75
5879.313
5881.234
5882.597
5883.493
5884.008
5884.224
5884.22
5884.071
5883.848
5883.619
5883.438
5883.35
5883.388
5883.575
5883.923
5884.44
5885.123
5885.966
5886.957
5888.077
5889.307
5890.625
5892.012
5893.449
5894.919
5896.41
5897.908
5899.403
5900.887
5902.347
5903.771
5905.143
5906.448
5907.667
5908.784
5909.781
5910.644
5911.359
5911.916
5912.307
5912.527
5912.572
5912.438
5912.124
5911.626
5910.939
5910.058
5908.977
5907.689
5906.183
5904.451
5902.481
5900.266
5897.791
5895.057
5892.045
5888.764
5885.189
5881.341
5877.194
5872.785
5868.094
5863.206
5858.087
5852.916
5847.545
5842.237
5836.402
5829.452
5818.853
3067.079
3027.689
2984.422
2930.607
2889.692
2812.944
2772.797
2732.526
2691.754
2649.98
2607.898
2565.492
2520.944
2475.899
2428.129
2312.421
2264.199
2216.546
2169.496
2123.45
2078.947
2036.708
1997.21
1961.476
1930.1
1904.256
1884.896
1874.306
1871.795
1876.682
1889.504
1912.994
1949.361
2000.78
2069.169
2154.441
2256.375
2374.751
2508.921
2657.877
2820.32
2994.756
3179.798
3373.617
3574.301
3779.023
3985.161
4192.28
4395.629
4593.832
4784.626
4962.087
5118.914
5254.28
5363.487
5443.702
5493.637
5512.946
5502.006
5461.839
5394.027
5300.689
5184.435
5048.231
4895.755
4731.08
4558.431
4381.705
4203.409
4026.091
3851.159
3679.465
3511.883
3349.161
3191.783
3040.768
2897.789
2764.58
2642.61
2531.4
2429.49
2335.249
2247.317
2164.814
2087.464
2015.287
1948.748
1888.461
1835.574
1789.607
1748.58
1711.195
1676.435
1643.019
1610.432
1579.007
1549.727
1524.312
1502.795
1484.059
1468.586
1454.827
1440.453
1424.769
1408.061
1391.134
1373.651
1359.119
1349.597
1341.58
1334.808
1327.935
1319.191
1308.583
1296.384
1283.338
1270.854
1262.198
1256.84
1253.818
1250.741
1246.491
1240.344
1231.911
1221.566
1210.222
1201.593
1197.391
1196.01
1197.841
1200.022
1200.165
1197.466
1192.489
1186.76
1182.047
1180.299
1183.181
1191.535
1202.215
1211.759
1218.934
1223.178
1225.69
1227.265
1228.636
1229.475
1238.9
1247.569
1246.275
1241.909
1236.343
1226.167
1212.375
1196.773
1183.234
1177.732
1176.584
1171.858
1167.069
1164.573
1161.396
1158.251
1155.989
1156.861
1163.666
1176.36
1191.309
1209.664
1229.698
1244.706
1255.626
1261.881
1263.654
1263.027
1261.989
1262.633
1266.799
1277.81
1293.954
1309.518
1324.932
1342.649
1363.695
1388.333
1414.92
1443.317
1473.447
1502.917
1533.274
1566.259
1600.647
1634.805
1669.695
1706.065
1742.758
1781.024
1822.04
1864.862
1909.235
1956.441
2007.309
2062.048
2120.235
2182.202
2248.724
2319.547
2394.939
2474.415
2556.338
2639.153
2721.82
2803.488
2883.414
2960.843
3034.781
3104.275
3168.795
3228.187
3282.346
3330.992
3373.55
3409.111
3436.622
3455.414
3465.598
3468.04
3464.16
3455.85
3445.271
3434.346
3424.373
3416.15
3410.12
3407.498
3409.082
3413.386
3423.137
3441.682
3467.335
3500.472
3541.739
3590.482
3645.407
3705.059
3768.22
3834.026
3901.837
3971.005
4040.777
4110.334
4178.822
4245.399
4309.274
4369.74
4426.214
4478.268
4525.621
4567.989
4605.159
4637.123
4664.123
4686.423
4704.32
4718.38
4729.499
4738.816
4747.557
4756.836
4767.369
4779.514
4793.107
4807.457
4821.435
4834.137
4845.116
4853.554
4859.312
4863.171
4865.427
4866.467
4866.792
4866.816
4866.858
4867.16
4867.875
4869.068
4870.722
4872.797
4875.253
4877.99
4880.851
4883.689
4886.383
4888.788
4890.747
4892.15
4892.983
4893.327
4893.229
4893.03
4893.299
4894.577
4897.472
4902.61
4910.33
4920.626
4933.251
4947.695
4963.099
4978.555
4993.334
5006.964
5019.422
5030.687
5041.083
5050.851
5060.097
5068.911
5077.45
5085.863
5094.291
5102.873
5111.738
5120.975
5130.624
5140.678
5151.107
5161.856
5172.848
5184.002
5195.214
5206.337
5217.276
5228.021
5238.553
5248.895
5259.06
5269.102
5279.118
5289.276
5299.545
5310.045
5320.839
5331.916
5343.192
5354.514
5365.785
5376.952
5387.951
5398.762
5409.631
5421.097
5433.463
5446.404
5459.299
5471.693
5483.409
5494.354
5504.452
5513.645
5521.85
5528.931
5534.75
5539.232
5542.431
5544.651
5546.435
5548.224
5550.124
5552.133
5554.679
5558.19
5562.122
5565.588
5568.278
5570.073
5571.083
5571.11
5569.284
5565.215
5559.077
5551.197
5541.801
5531.2
5519.754
5507.841
5495.882
5484.359
5473.75
5464.503
5457.06
5451.831
5449.116
5449.14
5451.95
5457.515
5465.736
5476.287
5488.678
5502.395
5516.967
5531.996
5547.033
5561.486
5574.694
5585.878
5595.127
5603.384
5610.43
5616.044
5620.376
5623.768
5626.551
5628.726
5630.325
5631.429
5632.124
5632.497
5632.629
5632.597
5632.478
5632.344
5632.263
5632.286
5632.451
5632.788
5633.306
5634.009
5634.895
5635.956
5637.187
5638.565
5640.065
5641.662
5643.328
5645.039
5646.771
5648.504
5650.22
5651.909
5653.562
5655.168
5656.724
5658.221
5659.646
5660.987
5662.229
5663.354
5664.347
5665.194
5665.884
5666.408
5666.762
5666.945
5666.958
5666.805
5666.489
5666.011
5665.372
5664.57
5663.6
5662.455
5661.125
5659.599
5657.862
5655.903
5653.705
5651.266
5648.568
5645.623
5642.406
5638.947
5635.222
5631.281
5627.094
5622.755
5618.198
5613.599
5608.742
5603.849
5598.243
5591.383
5580.721
3063.585
3014.015
2964.456
2903.266
2842.786
2788.812
2739.347
2693.935
2651.932
2609.991
2502.512
2462.958
2423.527
2383.482
2342.504
2300.559
2257.495
2212.982
2167.146
2120.769
2074.744
2027.177
1979.527
1932.073
1885.222
1839.352
1794.671
1751.416
1710.784
1673.959
1642.179
1617.434
1600.315
1591.883
1593.156
1604.678
1628.229
1665.208
1717.033
1784.734
1868.753
1969.149
2085.739
2217.91
2364.738
2524.954
2697.04
2879.511
3069.858
3265.722
3465.138
3666.547
3868.822
4069.375
4264.303
4449.791
4620.908
4771.897
4899.01
4999.429
5070.657
5111.403
5121.829
5102.955
5056.225
4983.34
4886.144
4767.166
4629.135
4475.736
4311.295
4139.64
3965.438
3791.573
3620.073
3452.815
3289.544
3129.635
2973.953
2822.813
2677.018
2539.531
2412.894
2298.304
2195.099
2101.26
2014.829
1934.017
1857.547
1784.988
1716.525
1653.028
1595.871
1546.967
1506.074
1470.401
1437.342
1406.167
1375.475
1344.49
1313.481
1283.655
1257.23
1238.726
1224.05
1211.401
1201.367
1189.005
1173.685
1156.265
1137.853
1118.917
1103.457
1095.332
1091.43
1088.104
1082.828
1074.334
1062.936
1049.084
1033.506
1018.083
1008.534
1006.419
1006.569
1005.286
1001.834
995.6013
985.8705
972.9774
958.7006
947.0653
941.533
942.9865
948.9972
954.0139
954.593
950.1306
941.8662
932.3002
923.9609
919.344
921.6395
932.6474
947.2261
957.9435
962.4573
961.7074
958.6366
954.1578
948.6023
945.4919
956.2744
970.0463
969.614
966.1106
960.788
951.0049
937.7083
921.4766
908.4077
906.9396
913.0142
912.8757
910.7471
909.7509
907.4479
904.298
900.102
898.1751
903.513
916.1565
933.2826
949.1092
962.9036
975.5264
984.256
988.7665
991.3468
995.3157
1001.476
1008.679
1016.481
1029.336
1047.045
1060.408
1072.519
1087.696
1107.561
1132.65
1158.228
1186.693
1219.775
1247.453
1276.071
1310.295
1345.719
1378.261
1411.688
1447.975
1482.044
1518.368
1559.281
1601.136
1642.923
1687.912
1737.286
1791.311
1849.039
1911.055
1978.558
2050.552
2129.441
2214.541
2302.752
2391.589
2479.841
2566.87
2652.235
2735.059
2813.921
2887.526
2955.295
3017.409
3074.199
3125.539
3170.624
3207.954
3235.661
3252.473
3258.425
3254.66
3243.102
3226.451
3207.794
3189.55
3172.988
3158.583
3146.529
3137.386
3131.921
3130.011
3134.359
3147.758
3170.074
3201.886
3244.326
3296.947
3357.691
3423.947
3493.69
3565.773
3639.594
3714.638
3790.25
3865.628
3939.87
4012.027
4081.159
4146.381
4206.946
4262.275
4311.977
4355.702
4393.153
4424.179
4448.903
4467.698
4481.052
4489.761
4495.099
4498.714
4502.407
4507.801
4515.992
4527.65
4542.586
4559.517
4576.346
4591.18
4603.591
4611.947
4616.491
4619.513
4620.928
4621.267
4621.231
4621.262
4621.64
4622.546
4624.083
4626.284
4629.119
4632.438
4636.116
4640.078
4644.117
4648.008
4651.577
4654.535
4656.57
4657.441
4657.037
4655.461
4652.91
4649.778
4646.827
4644.986
4645.534
4649.325
4656.666
4667.691
4682.389
4699.646
4717.926
4735.73
4751.968
4766.158
4778.363
4788.861
4798.075
4806.383
4814.082
4821.422
4828.658
4835.998
4843.614
4851.685
4860.375
4869.809
4880.033
4890.999
4902.61
4914.753
4927.267
4939.971
4952.657
4965.098
4977.039
4988.281
4998.828
5008.804
5018.324
5027.489
5036.4
5045.262
5054.238
5063.479
5073.048
5082.969
5093.294
5103.925
5114.731
5125.646
5136.619
5147.666
5158.907
5170.531
5182.607
5194.941
5207.187
5219.042
5230.34
5240.957
5250.789
5259.774
5267.889
5275.129
5281.513
5287.059
5291.742
5295.596
5298.826
5301.788
5304.82
5308.161
5311.976
5316.05
5319.816
5322.903
5325.638
5327.892
5328.912
5328.395
5326.262
5322.4
5316.979
5309.975
5301.114
5290.674
5279.17
5267.096
5254.948
5243.229
5232.416
5222.968
5215.34
5209.922
5206.914
5206.781
5209.447
5214.917
5223.041
5233.478
5245.733
5259.281
5273.596
5288.184
5302.634
5316.501
5329.392
5340.926
5349.662
5356.832
5362.684
5367.3
5371.005
5373.982
5376.318
5378.057
5379.266
5380.032
5380.445
5380.594
5380.576
5380.461
5380.329
5380.254
5380.309
5380.544
5380.978
5381.641
5382.521
5383.613
5384.91
5386.387
5388.05
5389.869
5391.806
5393.825
5395.89
5397.971
5400.04
5402.07
5404.044
5405.95
5407.779
5409.531
5411.203
5412.791
5414.289
5415.684
5416.964
5418.113
5419.114
5419.954
5420.622
5421.109
5421.415
5421.545
5421.508
5421.313
5420.97
5420.488
5419.872
5419.126
5418.248
5417.232
5416.067
5414.741
5413.236
5411.538
5409.627
5407.498
5405.134
5402.539
5399.695
5396.63
5393.325
5389.834
5386.127
5382.293
5378.254
5374.167
5369.804
5365.352
5360.164
5353.748
5343.748
2801.965
2736.393
2604.053
2552.179
2502.055
2455.778
2412.742
2372.173
2333.214
2295.448
2258.727
2221.146
2182.957
2143.785
2103.598
2062.096
2019.169
1974.69
1928.546
1881.22
1834.14
1786.529
1738.562
1690.488
1641.946
1592.894
1544.326
1497.125
1452.321
1411.723
1377.031
1349.294
1329.453
1318.509
1317.655
1327.908
1350.619
1387.012
1438.133
1504.75
1587.345
1686.078
1800.789
1930.854
2075.447
2233.174
2402.101
2579.728
2763.846
2953.251
3147.294
3344.736
3542.61
3737.656
3925.853
4102.928
4264.197
4404.645
4520.098
4607.872
4666.153
4694.236
4692.94
4663.99
4609.24
4530.792
4430.135
4309.342
4171.117
4018.242
3855.319
3686.297
3514.87
3345.822
3182.488
3025.317
2872.194
2721.307
2573.496
2429.965
2291.937
2161.714
2042.21
1936.012
1842.93
1759.403
1682.704
1610.372
1540.86
1473.807
1409.362
1348.504
1293.997
1250.844
1216.403
1186.094