/*--------------------------------*- C++ -*----------------------------------*\
| =========                 |                                                 |
| \\      /  F ield         | foam-extend: Open Source CFD                    |
|  \\    /   O peration     | Version:     3.1                                |
|   \\  /    A nd           | Web:         http://www.extend-project.de       |
|    \\/     M anipulation  |                                                 |
\*---------------------------------------------------------------------------*/
FoamFile
{
    version     2.0;
    format      ascii;
    class       volScalarField;
    location    "16";
    object      omega;
}
// * * * * * * * * * * * * * * * * * * * * * * * * * * * * * * * * * * * * * //

dimensions      [0 0 -1 0 0 0 0];

internalField   nonuniform List<scalar> 
119952
(
303.8167
391.0968
375.0565
329.5569
297.8995
301.9873
307.5482
313.4164
319.1668
324.6978
330.0278
335.3024
340.6297
346.0618
351.6008
357.3081
363.4015
370.2784
378.4676
389.0898
325.9313
324.3086
328.1043
276.4124
271.5979
269.3845
267.4517
265.4873
260.5723
145.9916
691.7446
577.421
487.0339
421.4234
371.8655
333.1952
301.9903
276.3972
254.8886
231.4692
195.0688
169.6292
152.1845
139.672
130.2646
122.7917
116.4347
110.6095
104.9869
82.23884
78.26056
73.96233
69.55438
65.22278
61.10048
57.27489
53.79666
50.68151
47.92571
45.52706
43.35167
41.37075
39.57131
37.93842
36.46028
35.12157
33.89791
32.76882
32.49086
32.43136
32.18542
31.99135
31.92204
31.97963
32.22278
32.63584
33.17546
33.77725
34.37313
34.9081
35.35963
35.73809
36.07035
36.37223
36.6287
36.7919
36.78901
36.53984
36.02326
35.44941
34.74755
33.96369
33.26873
32.67396
32.2859
32.32646
33.49907
35.83724
36.35178
36.61111
36.70947
36.77551
36.84218
36.90444
36.95097
36.96785
36.94769
36.89491
36.82306
36.75019
36.69295
36.6602
36.64944
36.64716
36.63121
36.57358
36.44436
36.21731
35.8746
35.40874
34.82275
34.13679
33.37903
32.57798
31.76322
30.96374
30.20573
29.51099
28.89678
28.38879
28.0151
27.79219
27.7203
27.79972
28.0406
28.44946
29.01184
29.70181
30.50335
31.43564
32.57624
34.06326
36.00748
38.23893
40.31323
42.00638
43.30835
44.33205
45.19798
45.57062
45.49776
44.99695
44.15842
43.0785
41.84798
40.55783
39.28372
38.0548
36.88689
35.79056
34.77283
33.84037
32.99924
32.25376
31.60691
31.06181
30.61931
30.27711
30.03246
29.88152
29.81811
29.83681
29.93371
30.10387
30.34355
30.64158
31.02102
31.48447
32.0318
32.66104
33.36641
34.13756
34.95865
35.80931
36.66731
37.51134
38.32244
39.08505
39.78774
40.42527
40.99703
41.50815
41.96772
42.3878
42.77907
43.13568
43.36974
45.44928
49.72231
52.98145
55.41672
57.19416
58.48862
59.44267
60.15357
60.6937
61.11345
61.45258
61.74092
62.00249
62.25821
62.52375
62.81212
63.1349
63.50283
63.92162
64.39297
64.91661
65.49194
66.12263
66.81612
67.58078
68.42357
69.34787
70.35157
71.42748
72.5632
73.74137
74.94576
76.17001
77.40713
78.5342
78.46191
77.20987
76.12458
75.13935
74.23231
73.37165
72.52324
71.65816
70.75458
69.7998
68.79058
67.73246
66.63747
65.5223
64.4077
63.31383
62.26399
61.28078
60.38326
59.59387
58.9448
58.47516
58.22951
58.17931
58.35494
59.81279
64.69661
73.05823
77.76959
77.98713
75.91774
72.80912
69.55562
66.56439
63.70293
53.1071
50.21117
46.98589
43.66931
40.4311
37.42159
34.72759
32.38223
30.36248
28.63329
27.1598
25.90191
24.82339
23.9096
23.13781
22.48261
21.92346
21.44671
21.03866
20.68395
20.3674
20.07685
19.80288
19.53753
19.27469
19.01179
18.75009
18.49182
18.23945
17.99505
17.75952
17.53319
17.31752
17.11394
16.92332
16.74616
16.58282
16.43345
16.29798
16.17618
16.06768
15.97208
15.88905
15.81866
15.76225
15.72177
15.69455
15.67664
15.66691
15.66413
15.66693
15.6743
15.68621
15.70454
15.75187
15.74396
15.71511
15.66657
15.60175
15.52618
15.44489
15.36178
15.27999
15.20183
15.12861
15.0602
14.99667
14.93862
14.88606
14.8385
14.79398
14.74971
14.70473
14.65936
14.61387
14.56777
14.52035
14.47141
14.42046
14.36734
14.31289
14.25826
14.204
14.15017
14.09668
14.04345
13.99045
13.93776
13.88543
13.83326
13.78093
13.72867
13.67687
13.6254
13.57365
13.5219
13.47059
13.41993
13.36975
13.31961
13.26976
13.2203
13.17013
13.11866
13.06697
13.01422
12.96118
12.91006
12.86216
12.81363
12.76178
12.71275
12.66841
12.6312
12.5998
12.56337
12.51269
12.45064
12.38566
12.3234
12.26459
12.20816
12.15307
12.09863
12.04444
11.99028
11.93608
11.88184
11.82761
11.7735
11.71957
11.66576
11.61171
11.55635
11.4967
11.4242
11.31698
11.14477
11.2266
794.2758
646.6175
555.808
493.0793
445.0826
405.7997
372.4114
343.4577
317.0058
269.573
221.6375
190.6049
169.2394
153.5809
141.4328
131.5542
123.2219
115.9882
91.55592
86.54665
81.71395
77.14137
72.93968
69.16012
65.82945
62.93273
60.43085
58.26579
56.42856
54.77605
53.21937
51.7482
50.35211
49.01899
47.74513
46.53909
45.41326
44.65242
44.15056
43.57142
42.95019
42.30399
41.63401
40.93852
40.22174
39.49898
38.7931
38.12531
37.51855
36.98781
36.53672
36.16061
35.84068
35.54635
35.24243
34.89213
31.35144
30.80189
30.18015
29.48169
28.7203
27.91833
27.10098
26.29128
25.5093
24.77002
24.08359
23.45516
22.88627
22.37637
21.92333
21.52447
21.17617
20.87526
20.62174
20.4212
20.26105
20.13204
20.03559
19.97147
19.94033
19.95703
20.02631
20.14333
20.29399
20.45848
20.61859
20.76365
20.89155
21.00497
21.10568
21.19026
21.249
21.2683
21.23474
21.14089
20.99594
20.81277
20.59501
20.35317
20.11796
19.90619
19.73834
19.6368
19.56539
19.4817
19.41248
19.35764
19.317
19.28897
19.26806
19.2474
19.22049
19.18294
19.13335
19.0731
19.00543
18.93383
18.86061
18.78615
18.70898
18.62592
18.53251
18.42352
18.29384
18.13948
17.95839
17.75124
17.52128
17.2738
17.01555
16.7542
16.49757
16.25309
16.02777
15.82703
15.6533
15.50991
15.40017
15.32897
15.30243
15.32404
15.39568
15.51466
15.67528
15.8723
16.10396
16.37355
16.68709
17.04432
17.4322
17.83321
18.23409
18.62228
18.98
19.29004
19.51862
19.64575
19.65934
19.5584
19.35173
19.05589
18.69141
18.27791
17.83214
17.36804
16.89698
16.42838
15.97027
15.52962
15.11263
14.72364
14.36289
14.03172
13.73157
13.46348
13.22823
13.0263
12.85876
12.72587
12.62586
12.5572
12.51919
12.51136
12.53276
12.58206
12.65751
12.75683
12.87685
13.01339
13.16141
13.3154
13.4699
13.61991
13.76104
13.88982
14.00369
14.10117
14.18168
14.24561
14.29355
14.32659
14.34451
14.3295
14.73147
15.20338
15.51634
15.71718
15.83783
15.89993
15.91888
15.90541
15.86724
15.80994
15.73772
15.65389
15.5613
15.46249
15.35973
15.25524
15.15125
15.04989
14.95292
14.86152
14.77626
14.69747
14.62569
14.56186
14.5069
14.46191
14.42754
14.40384
14.38997
14.38409
14.3835
14.38515
14.38597
14.38215
14.36736
14.33164
14.2728
14.21731
14.16752
14.12239
14.08152
14.04379
14.00747
13.97062
13.9313
13.88769
13.83833
13.7823
13.71933
13.64989
13.57532
13.4977
13.41943
13.3423
13.26849
13.20744
13.17742
13.19258
13.27541
13.47063
13.85082
14.4972
15.22346
15.78548
16.23274
16.78493
17.58475
18.69126
20.08383
21.65253
20.33193
21.40764
22.32465
23.03109
23.48017
23.63285
23.45853
22.95081
22.14303
21.09718
19.89424
18.61937
17.34938
16.14422
15.04264
14.06277
13.20852
12.47438
11.84945
11.32099
10.87574
10.50063
10.18331
9.912772
9.679653
9.475659
9.292743
9.125166
8.969379
8.823579
8.687373
8.56144
8.445135
8.337012
8.235593
8.141286
8.054787
7.976275
7.905528
7.842053
7.785204
7.734281
7.68862
7.647649
7.610887
7.577806
7.547749
7.520319
7.4954
7.472901
7.452753
7.43493
7.419411
7.406842
7.396542
7.386241
7.376484
7.367513
7.359029
7.35057
7.341718
7.332143
7.321594
7.309874
7.29684
7.282462
7.266852
7.250145
7.232491
7.214027
7.194843
7.175078
7.154943
7.1346
7.114125
7.093538
7.072819
7.051853
7.03052
7.008833
6.986904
6.964829
6.942646
6.920356
6.897948
6.875409
6.852721
6.82986
6.806788
6.783466
6.759889
6.736065
6.711971
6.687565
6.66286
6.637903
6.612723
6.587322
6.561688
6.535829
6.509732
6.483304
6.456464
6.429214
6.40154
6.373518
6.345344
6.317099
6.288654
6.259949
6.231442
6.203547
6.176429
6.149884
6.122926
6.094314
6.06371
6.031748
5.999138
5.966256
5.933198
5.89999
5.866645
5.833173
5.799584
5.765895
5.732133
5.698339
5.664564
5.630865
5.597288
5.563837
5.530435
5.496819
5.462521
5.426917
5.390076
5.356531
5.334719
637.6894
573.4625
520.9606
481.9558
451.5453
428.961
410.5463
394.8791
383.9578
379.5962
184.8401
180.1594
175.8504
171.587
167.4062
163.2846
159.2134
154.8483
150.181
114.0401
104.8371
98.47829
94.11736
90.91775
88.34515
86.11454
84.08365
82.17683
80.37196
78.42377
76.20219
73.87037
71.58741
69.46295
67.54801
65.84284
64.31751
62.90684
62.49411
61.69309
60.67733
59.57339
58.45819
57.36911
56.31856
55.30635
54.32794
53.38131
52.44897
51.52157
50.58377
49.61769
48.60994
47.55533
46.45808
45.33204
40.90586
39.85188
38.82486
37.83352
36.88955
36.00537
35.18916
34.44326
33.76451
33.14681
32.58422
32.0707
31.59895
31.15962
30.7441
30.34687
29.96629
29.60233
29.25502
28.92606
28.6167
28.3254
28.04824
27.77974
27.51426
27.24759
26.97781
26.70618
26.43707
26.17693
25.93021
25.69464
25.47136
25.26254
25.07111
24.89013
24.70564
24.49745
24.30151
24.05043
23.75242
23.41784
23.04568
22.63608
22.20187
21.75809
21.31927
20.89806
20.50445
20.14578
19.82704
19.55123
19.31954
19.13125
18.98315
18.87014
18.78664
18.72822
18.68615
18.6523
18.62038
18.58754
18.55841
18.55281
18.57929
18.63936
18.72532
18.82274
18.91729
19.00018
19.06922
19.12631
19.17363
19.21039
19.23169
19.22961
19.19548
19.12229
19.00873
18.85614
18.66863
18.45752
18.23552
18.01421
17.80286
17.61323
17.44208
17.28096
17.13179
16.99616
16.87438
16.76531
16.66609
16.57299
16.48232
16.39127
16.29842
16.20405
16.10957
16.01668
15.92633
15.8384
15.75191
15.66543
15.57714
15.48493
15.38658
15.28016
15.16455
15.03974
14.90692
14.7684
14.62733
14.48741
14.3526
14.2265
14.11193
14.01117
13.92442
13.8515
13.79263
13.74897
13.72482
13.72679
13.75875
13.81948
13.90354
14.00492
14.11967
14.2466
14.38675
14.54184
14.71173
14.89389
15.08385
15.27472
15.45623
15.61618
15.73905
15.81011
15.81908
15.76122
15.63809
15.45599
15.22442
14.954
14.65517
14.33745
14.00913
13.67728
13.34793
13.02625
12.71673
12.42323
12.14879
11.89424
11.65982
11.4461
11.25303
11.08113
10.93054
10.80121
10.69336
10.60691
10.54144
10.49649
10.47162
10.46602
10.47879
10.50861
10.55372
10.61168
10.67943
10.75355
10.83059
10.90733
10.98083
11.04864
11.10868
11.15959
11.20033
11.23075
11.25051
11.26053
11.26061
11.25231
11.24342
11.21436
11.17212
11.12082
11.06316
11.00074
10.93451
10.86501
10.79264
10.71777
10.64079
10.56213
10.4822
10.40145
10.32039
10.23961
10.15984
10.08187
10.00637
9.933769
9.864222
9.797817
9.734775
9.675316
9.619903
9.568963
9.522867
9.4818
9.445599
9.413657
9.384996
9.358486
9.333096
9.307932
9.282148
9.254878
9.226302
9.19782
9.170426
9.144503
9.12008
9.09682
9.074066
9.050988
9.026692
9.000321
8.971212
8.938928
8.903273
8.86435
8.822615
8.778803
8.733888
8.689177
8.646452
8.608094
8.577114
8.557061
8.552867
8.571161
8.617991
8.690877
8.779552
8.881905
9.009877
9.184931
9.430947
9.766277
10.20007
10.72869
11.50638
12.37212
13.26537
14.14159
14.96585
15.71295
16.3501
16.84095
17.1612
17.301
17.25501
17.02043
16.60302
16.02084
15.30867
14.51648
13.69748
12.89591
12.14138
11.45119
10.83359
10.28939
9.814502
9.402151
9.044327
8.732846
8.459999
8.219016
8.004361
7.811763
7.638143
7.481476
7.340537
7.214744
7.104015
7.006318
6.919627
6.84259
6.773913
6.712321
6.656578
6.605527
6.558132
6.513509
6.470933
6.429818
6.389697
6.350313
6.311638
6.273764
6.236843
6.201066
6.166622
6.133656
6.102403
6.072832
6.045101
6.019177
5.994872
5.972
5.950394
5.929884
5.910272
5.891342
5.872889
5.854754
5.836833
5.819039
5.801282
5.783488
5.765612
5.747664
5.729678
5.711679
5.693668
5.675632
5.657542
5.639335
5.620966
5.602452
5.583841
5.565154
5.546378
5.527495
5.508485
5.489331
5.470013
5.450507
5.430785
5.410825
5.390615
5.370146
5.349398
5.328351
5.307012
5.285395
5.263507
5.241343
5.218897
5.196172
5.173154
5.149809
5.12612
5.102084
5.077706
5.053029
5.028114
5.002981
4.977603
4.95204
4.926477
4.901051
4.87576
4.850386
4.824459
4.797533
4.769621
4.741091
4.712257
4.683226
4.653992
4.624548
4.594906
4.565091
4.535134
4.505074
4.474956
4.444832
4.414759
4.384799
4.355005
4.325426
4.296067
4.266933
4.237969
4.209264
4.181071
4.155028
4.134097
368.8322
271.2218
373.9821
169.5367
132.0842
94.53581
81.75014
70.9985
62.48468
58.42457
56.90932
56.20573
56.081
56.57775
57.19758
58.00573
58.96401
60.0651
61.24023
62.44471
63.5887
64.38579
64.58912
65.29183
65.91327
66.32603
66.49541
66.41732
66.09648
65.52642
64.69972
61.30694
60.28037
59.2002
58.08673
56.96782
55.87558
54.83326
53.84586
52.90575
51.99768
51.10402
50.21612
49.34213
48.50173
47.70656
46.95324
46.23219
45.53746
44.86825
44.22871
43.62016
43.04092
42.48752
41.95444
41.43482
40.92284
40.41483
39.90883
39.40408
38.89307
38.37172
37.83662
37.284
36.71122
36.11768
35.50334
34.86592
34.25722
33.62657
32.99054
32.3667
31.77216
31.2196
30.71399
30.25317
29.83224
29.44644
29.09028
28.75796
28.44491
28.1498
27.87363
27.61605
27.37248
27.13589
26.90024
26.66178
26.42071
26.18039
25.9437
25.71135
25.48192
25.25264
25.0203
24.78249
24.54003
24.29726
24.05974
23.8339
23.61917
23.41321
23.21352
23.01607
22.81463
22.60215
22.37219
22.11789
21.83662
21.52972
21.20439
20.87258
20.5386
20.21053
19.89723
19.60707
19.34746
19.12467
18.94353
18.80739
18.71789
18.67334
18.66697
18.68851
18.7277
18.77573
18.82337
18.85916
18.8719
18.85731
18.82819
18.80671
18.81092
18.8513
18.92183
19.00435
19.08038
19.13867
19.17676
19.19817
19.2073
19.20534
19.18909
19.15231
19.08799
18.99
18.85528
18.68367
18.47643
18.24095
17.98677
17.72358
17.46108
17.20778
16.96987
16.74656
16.53673
16.34032
16.15772
15.9886
15.83127
15.68342
15.5428
15.40759
15.27677
15.15046
15.02977
14.9161
14.80997
14.71065
14.61694
14.52793
14.44305
14.36184
14.28376
14.20821
14.13474
14.06316
13.99367
13.92687
13.86364
13.80494
13.752
13.70592
13.6666
13.63232
13.60104
13.57091
13.54074
13.51052
13.48389
13.46951
13.47513
13.50073
13.53911
13.58256
13.62715
13.67185
13.71765
13.76771
13.82571
13.8933
13.96921
14.04954
14.12791
14.19608
14.24457
14.26378
14.24579
14.18589
14.08302
13.93956
13.76041
13.55165
13.32008
13.07225
12.81417
12.55125
12.28822
12.02926
11.77822
11.53776
11.31075
11.09893
10.90324
10.72397
10.56093
10.41386
10.28248
10.16656
10.06572
9.979475
9.907572
9.850025
9.80681
9.77765
9.76206
9.759409
9.768734
9.788495
9.816548
9.850432
9.887691
9.926019
9.963244
9.99744
10.02692
10.05042
10.06699
10.07626
10.07807
10.07268
10.06032
10.04168
10.0177
9.988151
9.953467
9.914025
9.8702
9.82223
9.770278
9.714437
9.655008
9.592404
9.527136
9.459739
9.390709
9.320482
9.249511
9.178165
9.107097
9.03704
8.968701
8.902508
8.838581
8.776792
8.717272
8.660307
8.606331
8.555777
8.509181
8.466915
8.429017
8.395021
8.364004
8.334853
8.306606
8.278609
8.250432
8.221718
8.192486
8.163325
8.134894
8.107641
8.081815
8.057377
8.0339
8.010734
7.987129
7.962363
7.935741
7.906771
7.875118
7.84069
7.803619
7.764284
7.723221
7.681166
7.639196
7.598754
7.561509
7.529179
7.503789
7.487697
7.483086
7.489965
7.506918
7.534643
7.5789
7.648133
7.752871
7.901565
8.103313
8.362855
8.690134
9.088385
9.549685
10.05732
10.59328
11.14139
11.68292
12.19654
12.6636
13.07192
13.41002
13.6658
13.82673
13.87893
13.80993
13.61539
13.3022
12.88704
12.39456
11.85554
11.30082
10.75548
10.23638
9.753841
9.313183
8.915767
8.560408
8.244331
7.963945
7.715457
7.495321
7.300471
7.128344
6.976806
6.844034
6.728493
6.628213
6.540617
6.463305
6.39417
6.331344
6.273195
6.218329
6.165593
6.114074
6.063083
6.01215
5.961033
5.909714
5.85832
5.807047
5.756163
5.70597
5.656831
5.609128
5.563079
5.518872
5.476664
5.436565
5.398622
5.36283
5.329128
5.297404
5.267505
5.239265
5.212524
5.187134
5.162945
5.139804
5.117569
5.096114
5.075346
5.055196
5.035594
5.016461
4.997713
4.979262
4.961018
4.942924
4.924964
4.90713
4.889393
4.871705
4.854017
4.836283
4.818464
4.800522
4.782421
4.764127
4.745613
4.726856
4.707838
4.688538
4.668939
4.64904
4.62884
4.608339
4.58753
4.56641
4.544973
4.523209
4.501106
4.478656
4.455861
4.432731
4.409296
4.385585
4.361615
4.337393
4.312965
4.288406
4.263761
4.238983
4.213908
4.188286
4.161945
4.134959
4.107554
4.079912
4.052096
4.024104
3.995929
3.967576
3.939064
3.910422
3.881688
3.852908
3.824138
3.795436
3.766868
3.738496
3.710391
3.682607
3.655231
3.628326
3.602092
3.576715
3.553078
3.532937
346.8433
233.5271
176.6001
153.2026
123.4116
100.6412
85.28228
78.87158
72.09635
68.13074
64.84442
60.74136
56.80417
53.25406
50.20691
47.00801
41.80901
40.89495
40.37
40.33205
40.79975
41.74451
42.90756
44.20358
45.6189
47.13973
48.74422
50.39647
52.02719
53.60033
55.23261
56.58108
57.72942
58.6165
59.2358
59.59459
59.68293
59.51597
59.12404
58.57134
57.96752
57.31275
56.60258
55.8508
55.03758
54.15221
53.20862
52.25157
51.32677
50.45162
49.61659
48.80432
47.99272
47.17111
46.36049
45.59394
44.88724
44.22923
43.60195
42.99457
42.40484
41.83156
41.27123
40.72025
40.17556
39.63366
39.09151
38.54794
38.0048
37.46643
36.937
36.42266
35.92087
35.42199
34.91539
34.39422
33.85619
33.30242
32.73924
32.18201
31.64401
31.13595
30.6707
30.2576
29.89744
29.58287
29.30517
29.05748
28.83293
28.62
28.40703
28.19127
27.98637
27.81209
27.67157
27.54385
27.40171
27.22973
27.02111
26.78224
26.53
26.27735
26.03031
25.78925
25.54968
25.30344
25.04176
24.76611
24.48326
24.20305
23.92897
23.65739
23.38512
23.112
22.83893
22.5658
22.29158
22.01376
21.72943
21.43696
21.13724
20.8341
20.53381
20.24532
19.97818
19.73877
19.53351
19.36878
19.25068
19.1844
19.17389
19.22091
19.32061
19.45819
19.61311
19.76805
19.91343
20.04
20.13168
20.1722
20.15795
20.11375
20.06729
20.0566
20.1039
20.19679
20.29767
20.37189
20.40747
20.4089
20.3859
20.34653
20.29329
20.2226
20.1279
20.00326
19.84427
19.6484
19.41532
19.14629
18.84652
18.52439
18.19036
17.85567
17.53061
17.22294
16.93459
16.66391
16.40947
16.17164
15.95039
15.74426
15.55111
15.36898
15.19648
15.03289
14.87842
14.73445
14.6028
14.48411
14.37695
14.27942
14.1909
14.11211
14.04415
13.98786
13.94349
13.91075
13.88887
13.87671
13.87299
13.87619
13.88442
13.89632
13.91144
13.92795
13.94099
13.94513
13.93791
13.91805
13.88487
13.84212
13.80152
13.77686
13.7698
13.76851
13.7608
13.74332
13.71862
13.69036
13.66325
13.64229
13.63023
13.62659
13.62863
13.63209
13.63159
13.62101
13.59385
13.54415
13.46766
13.36259
13.22962
13.07136
12.89163
12.69445
12.48437
12.26575
12.04283
11.8197
11.59942
11.38539
11.18056
10.98751
10.8079
10.64236
10.49073
10.35251
10.22694
10.11332
10.01106
9.9195
9.837911
9.766015
9.704149
9.652728
9.611782
9.581116
9.560532
9.549559
9.547098
9.551451
9.560711
9.573069
9.586808
9.60022
9.611678
9.619721
9.623184
9.621262
9.613626
9.600285
9.581509
9.557695
9.529449
9.497516
9.462533
9.425201
9.386002
9.344992
9.301827
9.255982
9.207011
9.154752
9.099398
9.041406
8.981312
8.919584
8.856557
8.79245
8.7275
8.662114
8.597018
8.53309
8.470904
8.410465
8.351542
8.294131
8.238535
8.185248
8.134882
8.088095
8.045464
8.007185
7.972757
7.941013
7.910549
7.880228
7.849457
7.818008
7.785704
7.752638
7.719407
7.686741
7.65519
7.625238
7.597121
7.570567
7.544956
7.51957
7.49363
7.466385
7.437235
7.405722
7.371534
7.334602
7.295114
7.253409
7.209985
7.165661
7.121614
7.079172
7.039493
7.003503
6.972075
6.94615
6.926129
6.911888
6.904015
6.905414
6.920802
6.955715
7.015249
7.104228
7.226554
7.385563
7.584436
7.824696
8.104176
8.417815
8.758645
9.11796
9.485867
9.85236
10.20822
10.54481
10.85416
11.12784
11.35708
11.53286
11.64633
11.6903
11.65826
11.54564
11.35355
11.08987
10.76796
10.40461
10.01854
9.627368
9.245015
8.881062
8.541678
8.23019
7.947746
7.693999
7.467689
7.267031
7.089968
6.934302
6.797771
6.678172
6.573447
6.480835
6.397735
6.32189
6.251369
6.184557
6.120135
6.057067
5.994572
5.932115
5.869414
5.806419
5.743216
5.679934
5.616777
5.554051
5.492127
5.431384
5.372116
5.314594
5.259097
5.205862
5.155057
5.106782
5.061077
5.017931
4.977283
4.939039
4.903086
4.869297
4.837529
4.807622
4.779413
4.752745
4.727476
4.703477
4.680618
4.658764
4.63778
4.617532
4.597895
4.578776
4.560107
4.54183
4.523875
4.506165
4.488619
4.471167
4.453741
4.436281
4.418733
4.401049
4.383188
4.365112
4.346793
4.328204
4.309323
4.290138
4.270639
4.25082
4.230672
4.210189
4.189364
4.16819
4.146659
4.124768
4.102519
4.079923
4.057
4.033774
4.01026
3.986474
3.962441
3.938189
3.913721
3.888985
3.863876
3.838265
3.812091
3.785416
3.758378
3.73109
3.703609
3.675947
3.64811
3.620106
3.591954
3.563681
3.535325
3.506931
3.478553
3.450253
3.422097
3.394158
3.366517
3.339256
3.312486
3.286307
3.260922
3.236459
3.213557
3.193802
187.3469
137.5457
209.5575
101.5974
86.13834
72.44452
68.02941
64.67496
61.1642
59.43362
57.39433
54.75336
52.35235
49.94382
47.27865
42.26565
41.10592
40.08199
39.16607
38.3575
37.61241
36.96768
36.46489
36.1244
35.95748
35.9425
35.99294
36.16162
36.53519
37.19672
38.18276
39.41202
40.81538
42.35007
43.98581
45.68063
47.31897
48.95366
50.42786
51.64696
52.73296
53.65314
54.41894
55.00095
55.38191
55.56565
55.57157
55.44734
55.24828
55.02638
54.81054
54.58281
54.31022
53.96323
53.50504
52.89549
52.14443
51.32486
50.52071
49.77382
49.08653
48.43081
47.7675
47.08792
46.43349
45.84544
45.31884
44.82371
44.33533
43.84416
43.34513
42.83111
42.29725
41.74338
41.16447
40.55316
39.90825
39.23806
38.56702
37.92184
37.29642
36.69078
36.10653
35.54099
34.98672
34.43841
33.89489
33.35731
32.83244
32.33373
31.87772
31.48662
31.19156
30.985
30.8399
30.7248
30.62847
30.55471
30.49802
30.42796
30.31616
30.16613
30.02826
29.96297
29.97269
29.98592
29.92495
29.7676
29.51855
29.20876
28.8834
28.56626
28.26258
27.9689
27.67546
27.36583
27.0251
26.63927
26.22359
25.80639
25.39927
24.99383
24.58273
24.16787
23.75597
23.35411
22.96772
22.59903
22.24736
21.91136
21.5916
21.29086
21.0125
20.75994
20.541
20.36618
20.24098
20.17149
20.16456
20.22688
20.36326
20.57379
20.84376
21.13862
21.41961
21.66512
21.87605
22.05174
22.17019
22.20897
22.17305
22.09695
22.02743
22.04215
22.16672
22.33603
22.46312
22.51547
22.50407
22.44662
22.35782
22.24615
22.11329
21.95473
21.76379
21.53722
21.27518
20.97825
20.6466
20.28149
19.8845
19.46326
19.03021
18.60337
18.19676
17.81825
17.46776
17.14111
16.8355
16.55089
16.28689
16.04133
15.81164
15.59606
15.39362
15.20384
15.02704
14.86513
14.72098
14.59565
14.48678
14.39172
14.31103
14.24738
14.20317
14.17994
14.17788
14.19576
14.23109
14.28036
14.33974
14.40507
14.47076
14.53222
14.58887
14.63961
14.67746
14.69392
14.68549
14.6535
14.59826
14.52205
14.44009
14.37372
14.3251
14.27406
14.20495
14.11925
14.02467
13.92719
13.83303
13.74747
13.67176
13.60478
13.54441
13.48789
13.43168
13.37166
13.30315
13.22149
13.1232
13.00675
12.87254
12.72229
12.55829
12.38307
12.1989
12.00871
11.81556
11.62257
11.43267
11.24856
11.07299
10.9085
10.75701
10.61872
10.4926
10.37739
10.27166
10.17422
10.08455
10.00213
9.926144
9.8562
9.792901
9.73709
9.6891
9.649063
9.617191
9.593293
9.576336
9.564803
9.557215
9.552292
9.548785
9.545289
9.540252
9.532164
9.519825
9.502533
9.480168
9.453034
9.421617
9.386519
9.348559
9.308754
9.268148
9.227689
9.187874
9.148443
9.108426
9.066537
9.021671
8.973285
8.921516
8.866996
8.81047
8.75249
8.693318
8.632947
8.571285
8.508487
8.445265
8.382785
8.321908
8.262566
8.204295
8.147025
8.091137
8.037218
7.986003
7.938344
7.895004
7.856234
7.821271
7.788437
7.755893
7.722303
7.687188
7.650611
7.612546
7.573146
7.533258
7.493948
7.456176
7.420737
7.388053
7.357873
7.3294
7.301701
7.273822
7.244828
7.213961
7.180672
7.144597
7.105619
7.063862
7.019599
6.973284
6.925718
6.878127
6.831859
6.787929
6.746754
6.708327
6.672592
6.639422
6.608747
6.581201
6.558834
6.54492
6.543089
6.556515
6.587869
6.639578
6.713913
6.813045
6.938771
7.091662
7.270713
7.473514
7.69659
7.935793
8.186395
8.442836
8.699098
8.949716
9.190121
9.415718
9.621188
9.801265
9.950658
10.06373
10.13526
10.16014
10.13431
10.05495
9.921745
9.73884
9.514677
9.260653
8.989344
8.7124
8.439138
8.176587
7.929666
7.701351
7.493009
7.304747
7.135737
6.98448
6.849041
6.727422
6.617902
6.518244
6.426387
6.340523
6.259122
6.180921
6.104908
6.030294
5.956506
5.88319
5.810225
5.737622
5.665375
5.593514
5.522209
5.451716
5.382312
5.314261
5.24783
5.183288
5.120888
5.060838
5.003307
4.948419
4.896252
4.846836
4.800164
4.756193
4.714855
4.676048
4.639644
4.605499
4.573462
4.543379
4.5151
4.488465
4.463314
4.439481
4.416806
4.395136
4.374342
4.354314
4.33495
4.316147
4.297799
4.279804
4.262063
4.244488
4.226995
4.209511
4.191972
4.174319
4.156502
4.13848
4.120214
4.101676
4.082843
4.063698
4.044227
4.024417
4.004259
3.983745
3.962867
3.941621
3.920003
3.898018
3.875673
3.852984
3.829969
3.806641
3.783013
3.759097
3.734901
3.710413
3.685592
3.660372
3.634689
3.608523
3.581922
3.554969
3.527744
3.500292
3.472637
3.444796
3.416781
3.388617
3.360329
3.331957
3.303544
3.275147
3.246827
3.218655
3.190709
3.163076
3.13585
3.109145
3.083074
3.05781
3.033467
3.01056
2.99081
80.3884
58.00876
54.36637
51.26505
49.73663
47.88478
46.27038
44.80921
43.4726
41.67333
38.03277
37.44035
36.88457
36.37313
35.87424
35.38468
34.94858
34.59092
34.32205
34.12371
33.85392
33.43316
33.05574
32.74147
32.497
32.32793
32.2475
32.26146
32.37691
32.59257
32.89355
33.28338
33.81159
34.52879
35.46068
36.61085
37.9799
39.54383
41.16416
42.82911
44.53067
45.93829
47.14362
48.1434
48.93584
49.61002
50.16634
50.64658
51.0513
51.41767
51.79197
52.22054
52.69315
53.18461
53.63793
54.03225
54.37082
54.60902
54.70508
54.6181
54.28807
53.74374
53.10985
52.512
52.01427
51.61366
51.24062
50.8189
50.3691
50.00247
49.75711
49.54619
49.30837
49.02163
48.6814
48.28572
47.81674
47.27547
46.69466
46.06214
45.35346
44.55203
43.65735
42.75222
41.85439
40.95895
40.06847
39.20605
38.39246
37.63298
36.9243
36.26604
35.65962
35.11423
34.65353
34.30395
34.07207
33.97942
34.02216
34.11185
34.1754
34.22408
34.29967
34.41027
34.47279
34.41671
34.28293
34.20204
34.27636
34.46859
34.60549
34.53659
34.2678
33.85427
33.37753
32.90831
32.46982
32.05648
31.65064
31.23684
30.78928
30.27456
29.67034
29.01148
28.36261
27.75212
27.16301
26.57559
25.98689
25.40721
24.85109
24.33104
23.85403
23.42027
23.02672
22.67352
22.36458
22.10284
21.88786
21.7182
21.60685
21.56349
21.59492
21.70876
21.91429
22.2183
22.61393
23.06105
23.48977
23.84426
24.11606
24.33561
24.51785
24.62804
24.63772
24.57908
24.48056
24.44405
24.58231
24.85004
25.08945
25.20712
25.20999
25.13079
24.98355
24.77982
24.5342
24.25515
23.94213
23.59273
23.21072
22.80398
22.3769
21.92736
21.44497
20.93355
20.40603
19.87936
19.37234
18.90517
18.48318
18.09904
17.74237
17.40911
17.10063
16.81619
16.5514
16.30229
16.06757
15.84765
15.64311
15.45462
15.28462
15.13727
15.01437
14.91346
14.83242
14.7739
14.74232
14.73995
14.76712
14.82269
14.90338
15.00368
15.11542
15.23044
15.34292
15.44502
15.52799
15.59143
15.63742
15.65977
15.65003
15.60734
15.53551
15.43565
15.3096
15.17305
15.05094
14.94628
14.83549
14.70054
14.54881
14.39272
14.2375
14.08775
13.94803
13.81927
13.70009
13.58948
13.48589
13.38636
13.28738
13.18518
13.07613
12.95788
12.82988
12.69318
12.54944
12.3999
12.24517
12.08538
11.92158
11.75552
11.58963
11.4267
11.26931
11.11978
10.98064
10.85431
10.74052
10.63722
10.54252
10.45431
10.37069
10.29121
10.21598
10.14452
10.07644
10.01245
9.953573
9.900374
9.85341
9.813414
9.780335
9.752831
9.729336
9.708979
9.69126
9.675406
9.660046
9.643253
9.623006
9.597851
9.567191
9.531276
9.490968
9.447153
9.400696
9.352821
9.305078
9.259077
9.216177
9.176885
9.140326
9.104404
9.066584
9.024833
8.978262
8.927249
8.873019
8.816872
8.75962
8.70149
8.642195
8.581197
8.518262
8.45403
8.390057
8.327682
8.266894
8.207039
8.148
8.090185
8.034202
7.98089
7.93134
7.886534
7.846649
7.810353
7.775255
7.739159
7.700623
7.659248
7.615378
7.569289
7.521414
7.473061
7.425792
7.381031
7.339984
7.303159
7.270056
7.239378
7.20966
7.17961
7.148167
7.114555
7.078265
7.039012
6.996753
6.951693
6.904124
6.854414
6.803376
6.752495
6.703423
6.657203
6.613822
6.572377
6.531822
6.491477
6.451147
6.411557
6.374675
6.343423
6.320732
6.308671
6.308467
6.321259
6.348587
6.392315
6.454201
6.535344
6.635827
6.754678
6.890203
7.040287
7.202481
7.373908
7.551331
7.73155
7.911427
8.087606
8.256796
8.416491
8.564726
8.699085
8.816466
8.913338
8.985373
9.027464
9.035405
9.006107
8.93863
8.83485
8.69934
8.538627
8.360277
8.171911
7.980424
7.791506
7.609419
7.436983
7.275701
7.125969
6.987291
6.858507
6.738438
6.626204
6.520776
6.421109
6.326235
6.235298
6.147564
6.062408
5.97931
5.897898
5.818008
5.73953
5.662305
5.586195
5.511167
5.437269
5.364587
5.293236
5.223359
5.155122
5.08871
5.024308
4.962094
4.902228
4.844844
4.790047
4.737907
4.688466
4.641729
4.597667
4.556214
4.517279
4.48075
4.446498
4.414384
4.384258
4.355959
4.32932
4.304171
4.28035
4.257704
4.236098
4.215399
4.195482
4.17622
4.157491
4.139178
4.121171
4.103372
4.085688
4.06804
4.050356
4.032571
4.014632
3.99649
3.978107
3.959452
3.940498
3.921225
3.901616
3.881658
3.861339
3.840652
3.819592
3.798156
3.776349
3.754176
3.73165
3.708782
3.685583
3.66206
3.638217
3.614054
3.589558
3.564696
3.53943
3.513725
3.487578
3.461024
3.434116
3.40691
3.379446
3.351749
3.323841
3.295742
3.267477
3.239076
3.210578
3.182028
3.153482
3.125006
3.096671
3.068558
3.040758
3.01337
2.986505
2.960276
2.934829
2.910277
2.887075
2.867124
105.5209
44.15848
35.8849
33.98151
32.82999
32.09035
31.64695
31.39589
31.29219
31.30099
31.2646
31.02226
30.79221
30.57342
30.36891
30.17913
30.01356
29.87423
29.75377
29.63514
29.50277
29.37107
29.27609
29.23546
29.24929
29.32487
29.46733
29.67556
29.95148
30.29613
30.71751
31.27242
32.0284
32.9609
34.10413
35.44177
36.98037
38.75193
40.38088
41.88018
43.20349
44.26338
45.06198
45.62128
46.01419
46.3437
46.6681
47.10128
47.71479
48.61705
49.80828
51.24251
52.78204
54.24908
55.54857
56.64134
57.61955
58.52442
59.33623
59.92829
60.14186
59.98368
59.66223
59.39188
59.29065
59.33109
59.33281
59.15957
58.94799
58.9793
59.19369
59.28426
59.21039
59.05893
58.85706
58.54062
58.02092
57.3491
56.7506
56.18332
55.51188
54.62309
53.43655
52.05385
50.62008
49.16301
47.66866
46.17195
44.7541
43.48677
42.38066
41.41869
40.57618
39.86152
39.33832
39.07163
39.04101
39.17067
39.45935