/*--------------------------------*- C++ -*----------------------------------*\
| =========                 |                                                 |
| \\      /  F ield         | foam-extend: Open Source CFD                    |
|  \\    /   O peration     | Version:     3.1                                |
|   \\  /    A nd           | Web:         http://www.extend-project.de       |
|    \\/     M anipulation  |                                                 |
\*---------------------------------------------------------------------------*/
FoamFile
{
    version     2.0;
    format      ascii;
    class       volScalarField;
    location    "16";
    object      p;
}
// * * * * * * * * * * * * * * * * * * * * * * * * * * * * * * * * * * * * * //

dimensions      [1 -1 -2 0 0 0 0];

internalField   nonuniform List<scalar> 
119952
(
5775.002
4920.147
4788.014
4907.928
5053.417
4956.62
4948.493
4957.869
4980.867
5009.795
5043.041
5077.399
5111.288
5142.881
5170.982
5194.661
5213.141
5225.317
5224.839
5188.707
5366.007
5269.297
5232.296
5455.082
5423.232
5447.302
5461.259
5521.879
5723.542
6057.029
4164.23
4135.419
4141.718
4145.527
4150.031
4156.804
4169.799
4182.883
4201.333
4204.843
4222.367
4254.523
4287.319
4323.283
4360.754
4398.706
4435.777
4471.241
4504.052
4536.925
4547.753
4561.422
4583.265
4600.432
4615.775
4628.536
4638.243
4643.97
4648.981
4643.208
4636.084
4629.22
4618.641
4605.807
4591.635
4577.325
4568.514
4590.207
4672.383
4579.165
4561.262
4609.886
4642.865
4652.057
4657.302
4676.967
4705.893
4739.871
4776.903
4814.13
4849.61
4881.978
4910.4
4934.338
4953.386
4967.331
4976.872
4984.989
5003.772
5018.184
5019.55
5065.862
5134.391
5145.948
5155.678
5166.234
5138.685
5013.339
4997.068
5031.88
5049.978
5069.6
5088.824
5107.482
5126.736
5146.455
5166.489
5186.837
5207.421
5228.141
5248.861
5269.413
5289.613
5309.278
5328.244
5346.38
5363.59
5379.81
5394.988
5409.081
5422.093
5434.03
5444.836
5454.465
5462.969
5470.421
5476.914
5482.546
5487.4
5491.612
5495.299
5498.658
5501.825
5505.109
5508.819
5513.23
5518.552
5524.906
5532.285
5540.578
5549.543
5558.681
5567.085
5573.902
5580.028
5587.884
5598.813
5613.937
5626.48
5633.649
5642.181
5650.345
5658.185
5665.612
5672.665
5679.358
5685.586
5691.189
5696.181
5700.559
5704.323
5707.51
5710.164
5712.341
5714.132
5715.635
5716.859
5717.86
5718.664
5719.291
5719.754
5720.074
5720.262
5720.337
5720.292
5720.159
5720.113
5719.896
5719.673
5719.458
5719.272
5719.128
5719.031
5718.984
5718.979
5719.005
5719.048
5719.105
5719.158
5719.215
5719.271
5719.33
5719.385
5719.428
5719.38
5719.114
5719.017
5754.474
5755.143
5755.479
5755.975
5756.187
5756.518
5756.716
5756.738
5756.577
5756.212
5755.652
5754.89
5753.945
5752.823
5751.536
5750.098
5748.53
5746.856
5745.088
5743.252
5741.371
5739.461
5737.536
5735.605
5733.669
5731.727
5729.772
5727.793
5725.772
5723.677
5721.445
5718.974
5716.073
5712.288
5706.625
5700.321
5706.342
5710.6
5713.342
5715.493
5717.368
5719.101
5720.77
5722.435
5724.121
5725.835
5727.579
5729.353
5731.155
5732.987
5734.856
5736.767
5738.73
5740.768
5742.902
5745.161
5747.572
5750.146
5752.905
5756.062
5759.993
5763.941
5759.823
5750.134
5752.214
5758.515
5763.676
5767.52
5770.305
5770.929
5750.789
5747.197
5740.837
5740.734
5739.736
5738.036
5737.04
5735.852
5734.393
5732.902
5731.535
5730.384
5729.477
5728.756
5728.156
5727.573
5726.985
5726.366
5725.671
5724.847
5723.855
5722.681
5721.306
5719.695
5717.857
5715.789
5713.53
5711.126
5708.618
5706.051
5703.474
5700.933
5698.486
5696.184
5694.071
5692.18
5690.535
5689.152
5688.035
5687.177
5686.565
5686.177
5685.992
5685.99
5686.13
5686.225
5686.014
5685.665
5685.359
5685.022
5684.621
5684.164
5683.611
5682.631
5680.2
5679.94
5679.369
5678.183
5676.982
5675.708
5674.387
5673.041
5671.672
5670.284
5668.887
5667.493
5666.109
5664.746
5663.405
5662.089
5660.803
5659.547
5658.334
5657.17
5656.058
5654.997
5653.997
5653.056
5652.177
5651.365
5650.629
5649.967
5649.373
5648.845
5648.381
5647.98
5647.642
5647.365
5647.147
5646.986
5646.879
5646.826
5646.825
5646.872
5646.963
5647.098
5647.273
5647.485
5647.727
5648
5648.299
5648.621
5648.965
5649.311
5649.69
5650.094
5650.471
5650.879
5651.292
5651.723
5652.066
5652.429
5652.814
5653.126
5653.422
5653.645
5653.799
5653.985
5654.236
5654.495
5654.689
5654.818
5654.881
5654.877
5654.801
5654.646
5654.403
5654.058
5653.591
5652.974
5652.166
5651.108
5649.707
5647.8
5645.117
5641.363
5637.436
5640.456
5667.095
3405.595
3374.182
3347.952
3327.716
3311.484
3301.239
3298.878
3302.604
3312.729
3290.226
3333.666
3367.366
3407.964
3453.681
3503.48
3555.66
3608.113
3659.545
3700.545
3745.415
3768.617
3796.341
3818.769
3836.767
3849.604
3857.878
3863.001
3866.69
3870.743
3864.449
3864.776
3866.871
3868.969
3871.304
3873.246
3874.342
3875.86
3880.364
3869.309
3864.853
3867.007
3870.744
3875.942
3883.243
3894.861
3910.603
3929.49
3952.886
3983.969
4018.106
4054.597
4092.955
4132.004
4170.199
4206.642
4241.149
4224.339
4256.351
4277.225
4294.024
4311.129
4325.649
4336.78
4344.083
4347.571
4347.08
4343.436
4336.113
4324.777
4310.373
4294.313
4278.06
4264.196
4255.657
4254.285
4254.489
4247.192
4242.166
4253.358
4274.692
4298.426
4324.105
4355.447
4394.042
4437.489
4481.849
4524.004
4562.228
4595.797
4624.503
4648.42
4667.89
4683.533
4696.446
4708.185
4720.253
4733.49
4748.592
4768.152
4789.851
4803.483
4805.472
4796.373
4776.565
4749.355
4732.526
4738.408
4755.319
4772.15
4788.916
4806.924
4826.271
4846.337
4866.732
4887.384
4908.25
4929.259
4950.293
4971.193
4991.77
5011.82
5031.143
5049.577
5066.99
5083.281
5098.373
5112.212
5124.756
5136.008
5145.97
5154.672
5162.201
5168.672
5174.195
5178.924
5182.769
5186.054
5188.892
5191.457
5194.067
5197.009
5200.591
5205.06
5210.879
5217.984
5226.049
5234.715
5243.664
5252.599
5261.311
5269.784
5278.499
5288.313
5299.256
5310.772
5321.972
5331.773
5340.947
5349.642
5357.774
5365.289
5372.18
5378.498
5384.226
5389.332
5393.775
5397.569
5400.747
5403.36
5405.487
5407.242
5408.513
5409.581
5410.478
5411.278
5411.903
5412.318
5412.66
5412.901
5413.043
5413.072
5413.018
5412.877
5412.72
5412.556
5412.397
5412.283
5412.238
5412.272
5412.389
5412.575
5412.811
5413.071
5413.319
5413.533
5413.707
5413.842
5413.951
5414.033
5414.128
5414.246
5414.518
5415.156
5416.79
5478.493
5480.417
5480.729
5481.142
5481.631
5481.974
5482.18
5482.195
5481.994
5481.568
5480.922
5480.067
5479.02
5477.795
5476.403
5474.861
5473.184
5471.397
5469.527
5467.604
5465.651
5463.68
5461.7
5459.717
5457.733
5455.75
5453.769
5451.784
5449.783
5447.737
5445.593
5443.272
5440.672
5437.772
5434.938
5433.181
5434.095
5436.623
5438.66
5440.48
5442.216
5443.893
5445.56
5447.244
5448.952
5450.681
5452.43
5454.193
5455.972
5457.763
5459.573
5461.412
5463.291
5465.226
5467.237
5469.35
5471.595
5473.963
5476.428
5478.939
5481.131
5482.651
5481.194
5479.062
5480.852
5484.376
5488.043
5491.313
5493.851
5495.485
5434.972
5438.416
5437.754
5435.419
5433.394
5432.656
5432.315
5431.259
5429.373
5427.293
5425.515
5424.161
5423.164
5422.419
5421.765
5421.159
5420.546
5419.962
5419.307
5418.484
5417.493
5416.323
5414.941
5413.323
5411.463
5409.407
5407.118
5404.668
5402.103
5399.469
5396.82
5394.221
5391.69
5389.304
5387.113
5385.145
5383.428
5381.976
5380.794
5379.876
5379.206
5378.759
5378.503
5378.389
5378.352
5378.309
5378.184
5377.978
5377.728
5377.435
5377.076
5376.63
5376.075
5375.371
5374.338
5373.153
5372.118
5371.104
5369.974
5368.73
5367.424
5366.089
5364.732
5363.359
5361.976
5360.595
5359.213
5357.85
5356.51
5355.194
5353.91
5352.661
5351.448
5350.284
5349.175
5348.127
5347.129
5346.191
5345.318
5344.511
5343.768
5343.095
5342.494
5341.961
5341.494
5341.091
5340.75
5340.471
5340.251
5340.091
5339.983
5339.926
5339.922
5339.969
5340.058
5340.185
5340.356
5340.565
5340.811
5341.082
5341.376
5341.699
5342.046
5342.392
5342.754
5343.136
5343.522
5343.919
5344.319
5344.742
5345.092
5345.444
5345.812
5346.159
5346.502
5346.874
5347.129
5347.26
5347.361
5347.485
5347.618
5347.707
5347.741
5347.712
5347.616
5347.443
5347.185
5346.83
5346.362
5345.762
5345.004
5344.058
5342.899
5341.537
5340.111
5339.097
5339.461
5342.53
5348.421
3518.813
3687.816
3874.695
4075.9
4289.677
4506.713
4724.059
4937.45
5134.812
5304.055
5419.694
5523.703
5586.814
5607.76
5585.363
5521.628
5421.311
5289.57
5139.274
4896.683
4719.504
4539.03
4366.73
4206.167
4060.883
3932.471
3820.927
3725.841
3647.557
3571.799
3507.241
3449.74
3396.732
3346.798
3298.937
3252.995
3209.667
3171.367
3129.528
3088.46
3058.582
3036.569
3020.325
3009.587
3005.176
3007.879
3019.256
3037.496
3065.131
3102.387
3144.877
3192.019
3243.324
3297.876
3351.721
3404.253
3405.258
3445.129
3478.74
3507.631
3529.094
3542.701
3550.033
3553.093
3553.884
3553.57
3552.609
3552.517
3553.174
3554.927
3558.245
3562.425
3565.629
3566.436
3565.136
3562.823
3560.596
3558.815
3558.434
3560.155
3564.315
3571.371
3581.951
3596.832
3616.87
3642.725
3674.185
3710.878
3751.376
3793.559
3836.102
3876.828
3915.791
3953.106
3988.367
4016.927
4039.593
4060.939
4080.293
4094.04
4104.901
4111.882
4114.781
4113.674
4108.395
4098.681
4084.907
4067.859
4048.434
4027.783
4007.424
3989.093
3974.818
3966.473
3960.038
3956.05
3963.582
3983.955
4012.043
4045.839
4086.892
4135.416
4188.102
4240.111
4287.855
4329.825
4365.798
4396.027
4420.984
4441.313
4457.684
4470.842
4481.671
4491.34
4500.769
4509.679
4519.347
4529.522
4536.022
4535.148
4528.304
4517.713
4504.026
4494.582
4498.163
4512.369
4528.128
4544.422
4562.225
4581.491
4601.672
4622.319
4643.295
4664.57
4686.057
4707.635
4729.144
4750.384
4771.115
4791.082
4810.091
4827.982
4844.624
4859.92
4873.789
4886.188
4897.117
4906.592
4914.663
4921.46
4927.149
4931.871
4935.748
4938.846
4941.39
4943.545
4945.355
4947.225
4949.503
4952.961
4957.348
4963.309
4970.879
4979.465
4988.483
4997.599
5006.762
5015.978
5025.178
5034.56
5044.607
5055.474
5066.86
5078.331
5089.171
5099.203
5108.527
5117.119
5124.921
5131.902
5138.091
5143.524
5148.246
5152.249
5155.563
5158.237
5160.342
5161.969
5163.224
5164.183
5164.957
5165.625
5166.242
5166.677
5167.026
5167.294
5167.467
5167.543
5167.518
5167.438
5167.294
5167.116
5166.941
5166.815
5166.777
5166.845
5167.025
5167.31
5167.676
5168.098
5168.535
5168.945
5169.301
5169.584
5169.783
5169.923
5170.022
5170.151
5170.352
5170.741
5171.326
5172.01
5172.386
5173.395
5174.497
5175.43
5176.156
5176.684
5177
5177.065
5176.857
5176.377
5175.647
5174.69
5173.528
5172.181
5170.661
5168.978
5167.154
5165.22
5163.214
5161.174
5159.129
5157.089
5155.05
5153.013
5150.982
5148.968
5146.98
5145.027
5143.111
5141.216
5139.309
5137.365
5135.405
5133.548
5132.054
5131.305
5131.552
5132.567
5133.892
5135.304
5136.755
5138.264
5139.862
5141.539
5143.255
5144.996
5146.751
5148.5
5150.242
5151.977
5153.707
5155.434
5157.181
5158.962
5160.786
5162.675
5164.635
5166.661
5168.672
5170.618
5172.023
5173.197
5173.823
5173.955
5175.254
5177.636
5179.903
5182.068
5183.86
5185.737
5187.932
5189.959
5190.162
5188.791
5187.317
5186.642
5186.285
5185.482
5184.168
5182.782
5181.709
5180.931
5180.261
5179.444
5178.432
5177.436
5176.539
5175.726
5174.896
5173.992
5173.004
5171.889
5170.546
5168.925
5167.048
5164.952
5162.643
5160.158
5157.539
5154.838
5152.109
5149.411
5146.793
5144.311
5142
5139.92
5138.076
5136.507
5135.212
5134.186
5133.414
5132.871
5132.52
5132.314
5132.202
5132.123
5132.021
5131.865
5131.66
5131.405
5131.082
5130.665
5130.134
5129.47
5128.765
5127.925
5126.928
5125.815
5124.622
5123.37
5122.078
5120.758
5119.417
5118.057
5116.686
5115.311
5113.937
5112.574
5111.231
5109.911
5108.62
5107.365
5106.145
5104.973
5103.853
5102.791
5101.786
5100.845
5099.964
5099.138
5098.373
5097.676
5097.052
5096.499
5096.012
5095.591
5095.233
5094.937
5094.701
5094.523
5094.401
5094.33
5094.312
5094.344
5094.42
5094.537
5094.696
5094.894
5095.128
5095.391
5095.683
5096.004
5096.342
5096.691
5097.053
5097.422
5097.798
5098.183
5098.574
5098.965
5099.332
5099.695
5100.061
5100.423
5100.791
5101.167
5101.418
5101.546
5101.646
5101.759
5101.866
5101.938
5101.961
5101.929
5101.835
5101.67
5101.429
5101.102
5100.68
5100.155
5099.519
5098.775
5097.947
5097.113
5096.429
5096.167
5096.677
5098.38
5101.563
2471.204
2490.894
2514.966
2528.835
2563.89
2585.76
2648.002
2725.416
2819.461
2905.772
2992.921
3103.601
3237.765
3390.755
3562.726
3748.849
3944.342
4144.243
4345.307
4539.099
4719.821
4883.24
5015.783
5110.333
5166.012
5179.541
5150.095
5079.994
4974.254
4841.936
4698.231
4390.977
4234.979
4078.733
3918.828
3768.679
3635.404
3520.295
3422.207
3339.578
3269.286
3207.377
3151.291
3100.221
3052.662
3006.391
2960.703
2915.839
2872.094
2830.085
2790.975
2756.765
2728.882
2707.508
2691.76
2680.941
2675.58
2677.613
2689.603
2712.84
2746.635
2789.46
2839.582
2895.697
2954.567
3012.051
3069.73
3126.093
3179.712
3223.676
3258.535
3285.484
3303.519
3312.663
3314.725
3312.388
3308.391
3305.121
3302.921
3301.274
3301.236
3303.845
3309.263
3315.258
3320.666
3322.519
3319.488
3315.982
3312.905
3308.997
3306.892
3307.18
3309.614
3314.574
3323.089
3336.437
3355.684
3381.804
3415.236
3455.276
3499.932
3546.345
3592.353
3636.617
3678.763
3717.7
3752.674
3783.355
3809.663
3832.001
3849.667
3865.647
3876.899
3883.824
3886.376
3884.408
3877.659
3866.008
3849.604
3828.731
3804.108
3776.785
3748.133
3720.204
3695.825
3678.119
3666.694
3662.21
3668.732
3688.163
3719.207
3760.622
3812.057
3871.889
3935.384
3996.561
4051.209
4097.859
4136.818
4168.86
4194.765
4215.37
4231.512
4243.847
4253.059
4259.971
4265.346
4269.468
4272.183
4274.651
4274.684
4270.783
4264.991
4258.569
4252.219
4249.64
4254.436
4266.244
4281.376
4297.876
4315.757
4334.948
4355.101
4375.884
4397.124
4418.777
4440.783
4463.02
4485.306
4507.413
4529.075
4549.925
4569.701
4588.206
4605.319
4620.955
4634.997
4647.338
4657.993
4667.031
4674.538
4680.682
4685.671
4689.67
4692.862
4695.41
4697.448
4699.01
4700.055
4700.982
4702.489
4705.35
4709.377
4715.124
4723.056
4732.302
4741.867
4751.343
4761.091
4770.907
4780.472
4790.223
4800.601
4811.618
4823.045
4834.526
4845.563
4855.971
4865.729
4874.741
4882.91
4890.223
4896.71
4902.292
4906.985
4910.794
4913.769
4916.01
4917.631
4918.76
4919.537
4920.08
4920.492
4920.86
4921.194
4921.611
4921.912
4922.127
4922.264
4922.299
4922.263
4922.172
4922.026
4921.824
4921.619
4921.493
4921.498
4921.636
4921.902
4922.285
4922.765
4923.334
4923.914
4924.43
4924.854
4925.169
4925.359
4925.45
4925.487
4925.545
4925.678
4925.952
4926.38
4926.969
4927.767
4929.005
4930.354
4931.496
4932.401
4933.085
4933.512
4933.633
4933.424
4932.901
4932.098
4931.052
4929.796
4928.348
4926.716
4924.91
4922.951
4920.879
4918.738
4916.575
4914.432
4912.321
4910.226
4908.138
4906.066
4904.029
4902.05
4900.152
4898.338
4896.597
4894.917
4893.276
4891.7
4890.256
4889.082
4888.363
4888.281
4888.799
4889.706
4890.832
4892.109
4893.51
4895.058
4896.73
4898.444
4900.198
4901.979
4903.756
4905.466
4907.116
4908.739
4910.352
4911.971
4913.6
4915.253
4916.949
4918.712
4920.513
4922.299
4924.02
4925.57
4926.854
4927.692
4928.378
4929.603
4931.403
4933.329
4935.191
4937.173
4938.92
4940.169
4941.259
4941.805
4941.579
4941.041
4940.732
4940.616
4940.29
4939.571
4938.666
4937.692
4936.746
4935.878
4935.117
4934.389
4933.644
4932.928
4932.108
4931.123
4930.065
4928.919
4927.66
4926.212
4924.534
4922.636
4920.52
4918.173
4915.634
4912.95
4910.173
4907.361
4904.57
4901.857
4899.276
4896.874
4894.688
4892.767
4891.113
4889.746
4888.656
4887.828
4887.235
4886.839
4886.596
4886.456
4886.366
4886.277
4886.154
4885.983
4885.758
4885.459
4885.064
4884.565
4883.959
4883.258
4882.413
4881.412
4880.316
4879.163
4877.961
4876.71
4875.42
4874.097
4872.751
4871.388
4870.017
4868.645
4867.281
4865.934
4864.61
4863.312
4862.048
4860.821
4859.641
4858.513
4857.44
4856.426
4855.473
4854.582
4853.747
4852.971
4852.264
4851.629
4851.064
4850.566
4850.133
4849.765
4849.459
4849.214
4849.027
4848.896
4848.819
4848.793
4848.817
4848.887
4849
4849.155
4849.348
4849.577
4849.837
4850.127
4850.443
4850.78
4851.133
4851.502
4851.875
4852.254
4852.635
4853.02
4853.406
4853.783
4854.155
4854.524
4854.884
4855.233
4855.559
4855.813
4855.992
4856.135
4856.263
4856.369
4856.441
4856.47
4856.447
4856.367
4856.225
4856.016
4855.735
4855.38
4854.951
4854.454
4853.906
4853.348
4852.846
4852.524
4852.492
4853.033
4853.997
4856.134
2440.678
2418.845
2400.757
2361.343
2332.121
2274.499
2252.509
2233.77
2219.446
2209.303
2204.572
2203.672
2210.746
2225.073
2246.673
2278.164
2267.846
2324.867
2391.36
2466.779
2550.472
2649.804
2768.067
2904.293
3058.038
3228.45
3412.387
3606.474
3806.687
4006.873
4201.876
4379.83
4533.855
4655.666
4738.737
4780.002
4777.69
4732.17
4647.668
4529.511
4382.331
4211.481
4026.955
3861.167
3708.483
3560.598
3421.748
3298.501
3193.577
3106.469
3035.456
2976.047
2923.104
2874.358
2831.515
2790.127
2744.873
2698.032
2652.522
2608.101
2564.586
2522.892
2486.431
2458.726
2438.85
2422.888
2408.996
2398.956
2396.841
2407.398
2431.676
2468.351
2515.305
2570.578
2632.328
2698.319
2765.751
2832.732
2896.229
2953.675
3003.187
3043.003
3071.806
3088.057
3092.515
3087.646
3077.677
3067.152
3059.894
3055.119
3050.877
3049.916
3053.028
3061.464
3072.093
3080.685
3083.083
3077.732
3070.766
3065.166
3058.96
3054.371
3051.995
3051.218
3052.526
3057.462
3067.739
3084.961
3110.763
3146.189
3190.598
3241.31
3293.786
3344.791
3393.006
3437.991
3479.196
3516.414
3549.527
3578.093
3602.118
3621.952
3638.386
3650.646
3658.336
3661.221
3659.047
3651.471
3638.128
3618.838
3593.682
3563.031
3527.89
3489.745
3451.128
3415.518
3387.09
3368.007
3359.621
3364.132
3383.383
3417.924
3467.419
3530.402
3604.185
3681.815
3754.258
3816.583
3868.894
3911.162
3944.148
3970.027
3990.276
4005.649
4016.643
4023.774
4027.718
4029.22
4028.608
4026.114
4022.83
4017.249
4010.241
4004.104
3999.502
3997.226
3998.818
4005.462
4017.008
4031.968
4048.933
4067.335
4086.9
4107.341
4128.416
4150.019
4172.162
4194.819
4217.858
4241.09
4264.26
4287.072
4308.949
4329.715
4349.133
4366.867
4382.755
4396.818
4409.014
4419.344
4427.879
4434.723
4440.147
4444.447
4447.718
4450.192
4452.274
4453.962
4455.11
4455.534
4455.315
4455.64
4457.271
4460.441
4465.783
4474.459
4484.713
4495.295
4506.158
4516.865
4526.676
4536.022
4545.866
4556.524
4567.745
4579.338
4591.055
4602.497
4613.324
4623.436
4632.76
4641.216
4648.76
4655.376
4661.011
4665.637
4669.251
4671.9
4673.699
4674.802
4675.388
4675.66
4675.772
4675.831
4675.942
4676.172
4676.503
4676.775
4676.974
4677.115
4677.128
4677.102
4677.07
4676.977
4676.753
4676.475
4676.327
4676.372
4676.577
4676.912
4677.391
4678.025
4678.733
4679.415
4680.013
4680.497
4680.828
4680.971
4680.961
4680.873
4680.79
4680.784
4680.952
4681.358
4682.051
4683.038
4684.291
4685.647
4686.933
4688.063
4688.963
4689.547
4689.75
4689.553
4688.988
4688.111
4686.982
4685.644
4684.116
4682.401
4680.5
4678.427
4676.224
4673.944
4671.644
4669.405
4667.255
4665.143
4663.045
4660.971
4658.937
4656.975
4655.128
4653.411
4651.813
4650.332
4648.928
4647.633
4646.453
4645.419
4644.69
4644.426
4644.612
4645.17
4646.049
4647.18
4648.464
4650.012
4651.779
4653.651
4655.467
4657.212
4658.919
4660.561
4662.13
4663.646
4665.143
4666.633
4668.129
4669.632
4671.157
4672.752
4674.411
4676.099
4677.759
4679.296
4680.615
4681.693
4682.657
4683.786
4685.181
4686.733
4688.296
4689.885
4691.253
4692.375
4693.408
4694.279
4694.777
4694.894
4694.8
4694.653
4694.394
4693.916
4693.327
4692.728
4692.169
4691.633
4691.066
4690.424
4689.646
4688.799
4687.962
4687.096
4686.129
4685.039
4683.754
4682.218
4680.438
4678.42
4676.184
4673.757
4671.166
4668.428
4665.579
4662.683
4659.803
4656.998
4654.326
4651.838
4649.575
4647.572
4645.851
4644.42
4643.278
4642.405
4641.774
4641.347
4641.08
4640.923
4640.826
4640.743
4640.637
4640.487
4640.281
4640
4639.617
4639.129
4638.528
4637.809
4636.964
4636.002
4634.951
4633.832
4632.65
4631.412
4630.127
4628.806
4627.459
4626.094
4624.72
4623.344
4621.975
4620.621
4619.288
4617.983
4616.71
4615.477
4614.29
4613.152
4612.07
4611.045
4610.081
4609.177
4608.334
4607.555
4606.842
4606.199
4605.625
4605.118
4604.678
4604.302
4603.989
4603.737
4603.544
4603.407
4603.326
4603.296
4603.316
4603.383
4603.494
4603.647
4603.839
4604.067
4604.327
4604.617
4604.933
4605.271
4605.626
4605.997
4606.376
4606.761
4607.149
4607.539
4607.93
4608.315
4608.695
4609.066
4609.425
4609.765
4610.077
4610.338
4610.548
4610.721
4610.869
4610.987
4611.07
4611.111
4611.106
4611.048
4610.936
4610.766
4610.538
4610.253
4609.917
4609.542
4609.151
4608.783
4608.488
4608.36
4608.447
4608.952
4609.648
4611.285
2638.766
2592.875
2545.235
2485.465
2442.451
2364.241
2324.145
2285.947
2249.252
2213.624
2179.746
2147.098
2115.853
2086.318
2058.08
1968.481
1946.596
1927.984
1912.935
1902.171
1896.234
1895.593
1901.003
1913.362
1932.894
1960.897
1994.777
2042.692
2100.804
2170.046
2251.946
2349.075
2462.518
2592.563
2739.792
2903.612
3082.555
3273.949
3471.227
3666.787
3853.77
4023.279
4167.37
4278.9
4351.321
4381.487
4368.239
4313.499
4219.232
4089.032
3932.062
3762.34
3592.974
3436.07
3293.665
3160.424
3037.568
2930.692
2841.327
2769.657
2715.842
2672.327
2631.872
2592.456
2558.408
2528.288
2488.646
2438.546
2388.355
2340.833
2295.773
2250.231
2208.716
2180.145
2163.089
2148.549
2130.337
2110.612
2098.248
2105.327
2131.952
2173.909
2226.956
2288.417
2358.05
2434.913
2515.107
2593.815
2666.753
2732.205
2789.866
2837.385
2870.383
2884.638
2881.854
2865.789
2842.685
2823.599
2813.163
2807.359
2798.37
2794.816
2797.624
2811.371
2831.548
2846.688
2851.426
2843.542
2829.357
2816.699
2808.759
2802.585
2797.223
2791.716
2787.124
2786.427
2792.071
2806.089
2830.771
2868.137
2918.37
2978.651
3039.99
3096.899
3149.135
3197.198
3241.088
3280.663
3315.727
3346.04
3371.725
3393.25
3411.061
3424.863
3434.086
3438.209
3436.731
3429.094
3414.631
3392.88
3363.481
3326.293
3282.767
3233.815
3181.745
3131.569
3089.543
3060.96
3047.042
3048.685
3068.193
3107.005
3166.195
3243.769
3335.246
3429.274
3519.404
3593.26
3648.025
3689.763
3722.358
3747.728
3767.176
3781.362
3790.521
3794.934
3795.538
3793.395
3788.58
3780.947
3771.286
3760.582
3750.457
3743.132
3739.148
3739.208
3743.625
3752.292
3764.77
3780.277
3797.986
3817.176
3837.343
3858.163
3879.483
3901.346
3923.93
3947.253
3971.111
3995.279
4019.595
4044.34
4068.177
4090.036
4110.034
4128.255
4144.489
4158.672
4170.78
4180.844
4188.973
4195.147
4199.734
4203.224
4205.66
4207.38
4209.255
4210.932
4211.669
4211.425
4210.368
4209.162
4208.769
4209.865
4213.059
4224.023
4239.546
4254.032
4264.485
4272.999
4281.857
4291.229
4301.221
4312.424
4324.344
4336.397
4348.266
4359.851
4370.887
4381.211
4390.726
4399.385
4407.137
4413.938
4419.699
4424.317
4427.736
4430.014
4431.309
4431.834
4431.817
4431.548
4431.213
4430.898
4430.795
4430.989
4431.356
4431.635
4431.852
4432.133
4432.33
4432.36
4432.319
4432.224
4431.919
4431.439
4431.258
4431.403
4431.703
4432.092
4432.713
4433.5
4434.273
4434.973
4435.641
4436.205
4436.568
4436.656
4436.503
4436.198
4435.868
4435.637
4435.653
4435.999
4436.683
4437.687
4438.99
4440.492
4442.042
4443.488
4444.673
4445.458
4445.758
4445.563
4444.929
4443.949
4442.713
4441.289
4439.693
4437.915
4435.938
4433.76
4431.417
4428.965
4426.473
4424.132
4422.032
4419.987
4417.891
4415.791
4413.742
4411.785
4409.971
4408.324
4406.833
4405.579
4404.46
4403.395
4402.334
4401.313
4400.529
4400.107
4399.964
4400.211
4401.014
4402.246
4403.72
4405.333
4407.055
4408.894
4410.698
4412.4
4414.011
4415.58
4417.089
4418.533
4419.914
4421.268
4422.661
4424.058
4425.431
4426.881
4428.434
4430.065
4431.712
4433.285
4434.693
4435.871
4436.871
4437.891
4439.03
4440.288
4441.61
4442.967
4444.267
4445.435
4446.47
4447.344
4447.913
4448.178
4448.357
4448.509
4448.597
4448.536
4448.239
4447.799
4447.313
4446.839
4446.389
4445.903
4445.343
4444.637
4443.856
4443.001
4442.009
4440.864
4439.566
4438.076
4436.327
4434.291
4431.997
4429.496
4426.822
4424.005
4421.085
4418.117
4415.162
4412.28
4409.53
4406.965
4404.63
4402.56
4400.779
4399.29
4398.097
4397.181
4396.513
4396.055
4395.762
4395.585
4395.476
4395.387
4395.281
4395.131
4394.939
4394.668
4394.28
4393.787
4393.182
4392.462
4391.629
4390.689
4389.656
4388.544
4387.364
4386.125
4384.839
4383.515
4382.163
4380.793
4379.411
4378.028
4376.652
4375.289
4373.948
4372.634
4371.354
4370.113
4368.917
4367.771
4366.68
4365.646
4364.672
4363.76
4362.91
4362.125
4361.408
4360.759
4360.178
4359.666
4359.22
4358.839
4358.521
4358.265
4358.068
4357.929
4357.845
4357.814
4357.833
4357.9
4358.012
4358.166
4358.359
4358.589
4358.853
4359.146
4359.465
4359.807
4360.168
4360.543
4360.93
4361.324
4361.722
4362.122
4362.522
4362.917
4363.305
4363.683
4364.045
4364.386
4364.698
4364.972
4365.205
4365.404
4365.572
4365.708
4365.809
4365.869
4365.886
4365.856
4365.778
4365.651
4365.476
4365.257
4365.004
4364.729
4364.456
4364.219
4364.057
4364.039
4364.189
4364.651
4365.233
4366.566
2702.806
2638.811
2570.628
2494.42
2422.555
2360.556
2304.419
2253.563
2207.574
2162.823
2053.476
2014.082
1976.423
1940.101
1904.968
1871.145
1838.627
1807.36
1777.438
1750.144
1725.105
1702.603
1682.862
1666.312
1653.536
1645.086
1641.221
1642.672
1650.614
1665.962
1689.319
1721.192
1763.614
1816.782
1882.278
1960.647
2052.781
2159.902
2283.82
2426.198
2586.24
2760.074
2944.762
3134.498
3320.731
3495.291
3649.4
3775.159
3867.044
3919.774
3932.277
3904.106
3834.869
3726.439
3586.02
3426.528
3261.339
3100.427
2951.306
2822.937
2709.752
2609.114
2527.081
2464.197
2416.373
2381.805
2354.976
2329.734
2306.459
2284.519
2267.586
2237.132
2183.483
2126.355
2071.289
2018.773
1968.493
1924.947
1900.623
1887.031
1872.042
1845.355
1813.004
1785.169
1786.711
1816.801
1865.239
1926.335
1996.032
2075.214
2164.416
2259.596
2354.1
2440.554
2516.346
2584.431
2643.483
2683.075
2694.093
2680.399
2648.163
2606.798
2575.314
2563.146
2557.413
2541.878
2534.206
2538.314
2555.199
2595.337
2630.249
2633.73
2614.884
2592.016
2568.605
2558.789
2552.218
2545.276
2534.651
2521.585
2512.11
2510.634
2519.891
2542.989
2585.758
2646.096
2718.372
2788.795
2852.168
2908.734
2959.72
3005.913
3047.363
3083.935
3115.457
3142.142
3164.733
3183.946
3199.657
3210.841
3216.731
3216.805
3210.021
3195.004
3171.379
3139.201
3097.176
3044.039
2980.108
2909.487
2841.208
2783.445
2745.798
2728.217
2726.19
2742.475
2787.087
2857.944
2951.84
3073.601
3202.285
3305.844
3376.374
3428.796
3470.535
3502.916
3527.299
3545.291
3557.834
3565.158
3567.119
3564.436
3558.193
3548.748
3535.878
3520.301
3504.137
3490.305
3480.677
3476.82
3478.738
3485.868
3497.017
3511.235
3527.906
3546.719
3566.874
3587.533
3608.488
3629.802
3651.68
3674.611
3698.574
3723.186
3748.879
3775.811
3802.446
3827.252
3849.786
3870.398
3889.162
3905.864
3920.444
3932.657
3942.429
3950.095
3955.626
3959.574
3962.367
3963.348
3963.275
3965.47
3968.149
3968.722
3967.581
3966.054
3964.286
3962.856
3963.579
3972.214
3988.13
4002.574
4014.037
4022.002
4028.217
4035.915
4045.778
4056.652
4068.73
4081.086
4093.378
4105.471
4117.152
4128.326
4138.837
4148.512
4157.328
4165.287
4172.305
4178.233
4182.892
4186.134
4188.005
4188.735
4188.635
4187.996
4187.227
4186.412
4185.564
4185.115
4185.454
4186.216
4186.9
4187.305
4187.7
4187.836
4187.763
4187.823
4188.002
4187.862
4187.499
4187.176
4186.963
4186.966
4187.241
4187.927
4188.788
4189.707
4190.613
4191.447
4192.011
4192.274
4192.233
4191.877
4191.279
4190.611
4190.062
4189.854
4190.087
4190.733
4191.781
4193.233
4194.99
4196.884
4198.718
4200.256
4201.287
4201.698
4201.485
4200.744
4199.609
4198.229
4196.718
4195.077
4193.265
4191.247
4188.996
4186.518
4183.858
4181.139
4178.835
4176.806
4174.76
4172.633
4170.502
4168.437
4166.484
4164.704
4163.146
4161.9
4160.997
4160.071
4159.037
4157.954
4156.759
4155.916
4155.56
4155.62
4155.907
4156.526
4157.491
4158.884
4160.482
4162.162
4163.887
4165.664
4167.391
4169.019
4170.567
4172.04
4173.443
4174.759
4176.043
4177.289
4178.516
4179.767
4181.099
4182.556
4184.157
4185.852
4187.532
4189.047
4190.272
4191.225
4192.134
4193.065
4194.075
4195.201
4196.465
4197.776
4198.975
4200.002
4200.862
4201.543
4202.061
4202.439
4202.676
4202.776
4202.764
4202.742
4202.69
4202.565
4202.25
4201.767
4201.18
4200.578
4200.008
4199.388
4198.617
4197.707
4196.59
4195.261
4193.755
4192.018
4190.014
4187.754
4185.252
4182.537
4179.672
4176.712
4173.703
4170.703
4167.771
4164.968
4162.346
4159.953
4157.825
4155.981
4154.44
4153.193
4152.225
4151.508
4151.005
4150.67
4150.457
4150.317
4150.206
4150.078
4149.892
4149.701
4149.446
4149.018
4148.504
4147.888
4147.162
4146.328
4145.39
4144.36
4143.247
4142.065
4140.825
4139.535
4138.207
4136.85
4135.473
4134.084
4132.693
4131.309
4129.938
4128.589
4127.267
4125.979
4124.73
4123.527
4122.373
4121.274
4120.233
4119.251
4118.332
4117.477
4116.687
4115.966
4115.312
4114.728
4114.212
4113.762
4113.378
4113.058
4112.8
4112.602
4112.462
4112.378
4112.347
4112.368
4112.437
4112.552
4112.709
4112.907
4113.142
4113.411
4113.711
4114.037
4114.387
4114.756
4115.141
4115.538
4115.944
4116.354
4116.767
4117.179
4117.586
4117.985
4118.372
4118.743
4119.092
4119.413
4119.702
4119.957
4120.18
4120.371
4120.529
4120.651
4120.735
4120.778
4120.779
4120.737
4120.652
4120.528
4120.37
4120.188
4119.993
4119.807
4119.658
4119.578
4119.615
4119.787
4120.194
4120.691
4121.787
2426.437
2348.746
2198.983
2137.52
2078.994
2025.554
1976.446
1930.833
1887.885
1847.299
1808.961
1771.131
1734.324
1698.365
1663.398
1629.373
1596.381
1564.53
1533.973
1505.408
1479.666
1456.394
1435.555
1417.256
1401.754
1390.068
1383.039
1381.426
1386.055
1398.272
1419.078
1448.836
1488.782
1539.118
1600.521
1673.311
1759.128
1861.511
1980.538
2117.277
2270.263
2436.685
2612
2790.329
2962.077
3118.322
3249.519
3348.433
3412.136
3437.869
3425.251
3374.602
3287.167
3165.928
3020.048
2858.493
2697.055
2547.735
2414.941
2304.016
2212.461
2139.828
2087.056
2052.458
2037.318
2042.003
2041.672
2024.307
2011.711
2019.19
2033.413
1998.808
1921.496
1865.84
1821.576
1749.803
1670.398
1624.598
1627.591
1641.377
1621.184
1562.666
1486.216
1436.656
1442.316
1491.07
1550.783
1616.004
1689.973
1781.645
1888.724
2001.34
2112.031
2213.929
2302.968
2384.08
2457.51