/*--------------------------------*- C++ -*----------------------------------*\
| =========                 |                                                 |
| \\      /  F ield         | foam-extend: Open Source CFD                    |
|  \\    /   O peration     | Version:     3.1                                |
|   \\  /    A nd           | Web:         http://www.extend-project.de       |
|    \\/     M anipulation  |                                                 |
\*---------------------------------------------------------------------------*/
FoamFile
{
    version     2.0;
    format      ascii;
    class       volScalarField;
    location    "16";
    object      pd;
}
// * * * * * * * * * * * * * * * * * * * * * * * * * * * * * * * * * * * * * //

dimensions      [1 -1 -2 0 0 0 0];

internalField   nonuniform List<scalar> 
119952
(
5805.697
4957.562
4824.808
4941.455
5084.129
4987.971
4980.457
4990.447
5014.058
5043.599
5077.458
5112.43
5146.932
5179.138
5207.852
5232.143
5251.237
5264.025
5264.161
5228.642
5401.295
5304.847
5268.105
5485.744
5453.894
5477.964
5491.921
5552.541
5754.236
6087.724
4454.716
4422.364
4425.396
4425.938
4427.174
4430.675
4440.407
4450.224
4465.406
4466.767
4498.273
4530.429
4563.225
4599.189
4636.66
4674.612
4711.683
4747.148
4779.958
4843.488
4854.315
4867.984
4889.828
4906.994
4922.337
4935.099
4944.805
4950.533
4955.543
4949.77
4942.647
4935.783
4925.203
4912.369
4898.197
4883.888
4875.076
4896.769
4978.945
4885.728
4867.825
4916.449
4949.427
4958.62
4963.864
4983.529
5012.455
5046.433
5083.466
5120.692
5156.173
5188.541
5216.963
5240.901
5259.949
5273.893
5283.435
5291.552
5310.335
5324.747
5326.112
5372.425
5440.954
5452.511
5462.241
5472.796
5445.248
5319.901
5303.63
5338.442
5356.541
5376.163
5395.386
5414.045
5433.299
5453.017
5473.052
5493.4
5513.983
5534.704
5555.423
5575.975
5596.175
5615.84
5634.806
5652.942
5670.152
5686.372
5701.551
5715.643
5728.656
5740.592
5751.399
5761.028
5769.531
5776.983
5783.476
5789.109
5793.962
5798.175
5801.861
5805.221
5808.387
5811.671
5815.382
5819.792
5825.115
5831.469
5838.848
5847.14
5856.105
5865.243
5873.648
5880.464
5886.59
5894.447
5905.376
5920.5
5933.042
5940.212
5948.743
5956.907
5964.748
5972.175
5979.228
5985.921
5992.149
5997.752
6002.743
6007.122
6010.886
6014.072
6016.727
6018.904
6020.695
6022.198
6023.421
6024.422
6025.227
6025.853
6026.316
6026.637
6026.824
6026.899
6026.854
6026.722
6026.676
6026.458
6026.235
6026.021
6025.834
6025.691
6025.593
6025.547
6025.542
6025.568
6025.611
6025.667
6025.721
6025.778
6025.834
6025.892
6025.948
6025.99
6025.942
6025.677
6025.58
6030.38
6031.049
6031.385
6031.881
6032.093
6032.424
6032.622
6032.644
6032.483
6032.119
6031.559
6030.796
6029.851
6028.729
6027.443
6026.004
6024.436
6022.762
6020.995
6019.159
6017.277
6015.367
6013.442
6011.511
6009.576
6007.633
6005.679
6003.699
6001.678
5999.583
5997.351
5994.88
5991.979
5988.194
5982.531
5976.227
5982.249
5986.507
5989.249
5991.399
5993.274
5995.007
5996.677
5998.342
6000.028
6001.741
6003.486
6005.259
6007.061
6008.893
6010.762
6012.673
6014.637
6016.674
6018.809
6021.067
6023.478
6026.052
6028.812
6031.969
6035.9
6039.847
6035.729
6026.04
6028.121
6034.422
6039.582
6043.426
6046.212
6046.836
6057.352
6053.76
6047.398
6047.296
6046.294
6044.591
6043.602
6042.414
6040.955
6039.464
6038.076
6036.938
6036.039
6035.316
6034.715
6034.135
6033.548
6032.929
6032.234
6031.406
6030.4
6029.239
6027.868
6026.257
6024.418
6022.351
6020.092
6017.688
6015.18
6012.614
6010.037
6007.495
6005.048
6002.746
6000.633
5998.742
5997.098
5995.715
5994.597
5993.74
5993.128
5992.74
5992.555
5992.552
5992.693
5992.787
5992.577
5992.228
5991.922
5991.584
5991.183
5990.726
5990.174
5989.193
5986.762
5986.503
5985.932
5984.745
5983.544
5982.27
5980.949
5979.604
5978.235
5976.846
5975.446
5974.021
5972.668
5971.308
5969.967
5968.651
5967.362
5966.082
5964.895
5963.733
5962.62
5961.55
5960.546
5959.618
5958.739
5957.927
5957.192
5956.529
5955.935
5955.407
5954.943
5954.543
5954.205
5953.927
5953.709
5953.539
5953.423
5953.387
5953.388
5953.424
5953.509
5953.66
5953.836
5954.047
5954.285
5954.548
5954.86
5955.183
5955.525
5955.872
5956.253
5956.656
5957.033
5957.441
5957.85
5957.842
5958.51
5958.992
5959.377
5959.688
5959.967
5959.655
5959.808
5960.374
5960.794
5961.057
5961.252
5961.381
5961.444
5961.439
5961.363
5961.209
5960.966
5960.62
5960.153
5959.536
5958.728
5957.67
5956.27
5954.362
5951.68
5947.925
5943.998
5947.018
5973.658
3939.438
3904.743
3875.245
3851.742
3832.243
3818.731
3813.102
3813.561
3820.581
3811.383
3854.823
3888.522
3929.121
3974.837
4024.636
4076.816
4129.269
4180.701
4252.358
4297.227
4320.43
4348.153
4370.581
4388.579
4401.417
4409.691
4414.813
4418.503
4422.556
4416.261
4416.589
4418.684
4420.782
4423.116
4425.059
4426.155
4427.672
4432.176
4421.121
4416.666
4418.819
4422.557
4427.754
4435.056
4446.674
4462.415
4481.303
4504.698
4535.781
4569.918
4606.41
4644.768
4683.817
4722.012
4758.455
4792.961
4837.464
4869.476
4890.35
4907.149
4924.254
4938.774
4949.905
4957.208
4960.696
4960.205
4956.561
4949.238
4937.902
4923.498
4907.438
4891.185
4877.321
4868.782
4867.41
4867.613
4860.313
4855.269
4866.415
4887.691
4911.459
4937.203
4968.569
5007.167
5050.614
5094.974
5137.129
5175.353
5208.922
5237.628
5261.545
5281.015
5296.657
5309.564
5321.284
5333.351
5346.603
5361.716
5381.277
5402.976
5416.608
5418.597
5409.498
5389.69
5362.48
5345.65
5351.532
5368.442
5385.273
5402.04
5420.048
5439.396
5459.462
5479.857
5500.509
5521.375
5542.384
5563.418
5584.318
5604.895
5624.945
5644.268
5662.702
5680.115
5696.406
5711.498
5725.337
5737.881
5749.132
5759.094
5767.794
5775.317
5781.786
5787.315
5792.048
5795.894
5799.179
5802.017
5804.582
5807.192
5810.134
5813.716
5818.185
5824.004
5831.109
5839.174
5847.84
5856.789
5865.724
5874.436
5882.909
5891.624
5901.438
5912.381
5923.897
5935.097
5944.898
5954.072
5962.767
5970.899
5978.413
5985.298
5991.607
5997.338
6002.453
6006.9
6010.694
6013.872
6016.485
6018.611
6020.366
6021.637
6022.702
6023.597
6024.399
6025.027
6025.443
6025.785
6026.026
6026.168
6026.197
6026.143
6026.002
6025.845
6025.681
6025.522
6025.408
6025.363
6025.397
6025.514
6025.7
6025.936
6026.196
6026.444
6026.658
6026.832
6026.967
6027.076
6027.158
6027.253
6027.371
6027.643
6028.28
6029.914
6030.305
6032.229
6032.541
6032.954
6033.444
6033.786
6033.992
6034.007
6033.807
6033.38
6032.724
6031.868
6030.831
6029.607
6028.216
6026.673
6024.997
6023.209
6021.34
6019.417
6017.463
6015.493
6013.513
6011.529
6009.545
6007.563
6005.582
6003.597
6001.596
5999.549
5997.406
5995.085
5992.485
5989.584
5986.751
5984.993
5985.908
5988.436
5990.473
5992.292
5994.027
5995.706
5997.373
5999.057
6000.764
6002.493
6004.242
6006.006
6007.785
6009.575
6011.386
6013.225
6015.103
6017.038
6019.05
6021.162
6023.407
6025.776
6028.24
6030.752
6032.944
6034.444
6032.993
6030.875
6032.665
6036.189
6039.856
6043.126
6045.664
6047.298
6048.097
6051.541
6050.879
6048.544
6046.519
6045.781
6045.44
6044.384
6042.498
6040.417
6038.628
6037.271
6036.281
6035.543
6034.89
6034.284
6033.671
6033.087
6032.431
6031.604
6030.609
6029.44
6028.062
6026.444
6024.578
6022.474
6020.167
6017.724
6015.202
6012.592
6009.944
6007.346
6004.815
6002.429
6000.238
5998.27
5996.553
5995.101
5993.919
5993
5992.33
5991.884
5991.628
5991.514
5991.477
5991.434
5991.309
5991.103
5990.853
5990.56
5990.201
5989.755
5989.2
5988.496
5987.463
5986.278
5985.243
5984.229
5983.099
5981.855
5980.549
5979.214
5977.857
5976.483
5975.1
5973.715
5972.331
5970.972
5969.634
5968.319
5967.035
5965.786
5964.573
5963.409
5962.3
5961.252
5960.247
5959.238
5958.317
5957.51
5956.81
5956.204
5955.618
5955.086
5954.619
5954.216
5953.875
5953.596
5953.376
5953.216
5953.108
5953.051
5953.047
5953.094
5953.183
5953.31
5953.481
5953.69
5953.936
5954.205
5954.474
5954.725
5955.07
5955.416
5955.781
5956.211
5956.636
5957.043
5957.444
5957.867
5958.217
5958.569
5958.936
5959.277
5959.51
5959.1
5959.301
5959.953
5960.419
5960.608
5960.743
5960.832
5960.866
5960.837
5960.741
5960.568
5960.31
5959.955
5959.487
5958.887
5958.129
5957.183
5956.024
5954.662
5953.236
5952.222
5952.586
5955.655
5961.506
4299.799
4465.26
4648.872
4846.81
5057.319
5271.084
5485.167
5695.291
5889.385
6056.479
6186.1
6290.11
6353.221
6374.166
6351.77
6288.034
6187.717
6055.976
5905.68
5693.746
5516.567
5336.093
5163.793
5003.229
4857.946
4729.533
4617.99
4522.904
4444.619
4368.862
4304.303
4246.802
4193.795
4143.86
4096
4050.058
4006.73
3968.429
3926.591
3885.523
3855.644
3833.632
3817.388
3806.65
3802.238
3804.941
3816.318
3834.558
3862.193
3899.449
3941.939
3989.082
4040.387
4094.938
4148.784
4201.316
4263.633
4303.504
4337.115
4366.006
4387.469
4401.076
4408.408
4411.468
4412.259
4411.945
4410.984
4410.892
4411.549
4413.302
4416.62
4420.8
4424.004
4424.811
4423.511
4421.198
4418.97
4417.186
4416.802
4418.524
4422.686
4429.745
4440.326
4455.207
4475.245
4501.1
4532.56
4569.253
4609.751
4651.934
4694.477
4735.203
4774.166
4811.481
4846.742
4875.302
4897.968
4919.314
4938.668
4952.415
4963.276
4970.257
4973.156
4972.049
4966.77
4957.056
4943.282
4926.234
4906.809
4886.158
4865.799
4847.467
4833.18
4824.762
4818.076
4813.327
4820.94
4841.961
4870.368
4904.212
4945.267
4993.791
5046.477
5098.486
5146.23
5188.2
5224.173
5254.401
5279.353
5299.641
5315.897
5329.053
5339.972
5349.704
5359.143
5368.054
5377.722
5387.897
5394.397
5393.523
5386.679
5376.087
5362.394
5352.928
5356.51
5370.733
5386.502
5402.797
5420.6
5439.866
5460.047
5480.694
5501.67
5522.945
5544.431
5566.006
5587.514
5608.756
5629.489
5649.457
5668.466
5686.357
5702.999
5718.295
5732.162
5744.55
5755.427
5764.883
5772.98
5779.822
5785.523
5790.246
5794.123
5797.221
5799.765
5801.92
5803.73
5805.6
5807.878
5811.336
5815.723
5821.684
5829.254
5837.839
5846.857
5855.971
5865.127
5874.304
5883.347
5892.685
5902.834
5913.824
5925.234
5936.706
5947.546
5957.577
5966.899
5975.475
5983.201
5990.178
5996.426
6001.894
6006.621
6010.624
6013.938
6016.612
6018.716
6020.339
6021.574
6022.528
6023.311
6023.995
6024.617
6025.052
6025.401
6025.669
6025.842
6025.918
6025.893
6025.813
6025.669
6025.491
6025.316
6025.19
6025.152
6025.22
6025.4
6025.685
6026.051
6026.471
6026.902
6027.298
6027.658
6027.954
6028.158
6028.298
6028.397
6028.526
6028.727
6029.116
6029.7
6030.384
6030.759
6031.765
6032.841
6033.758
6034.494
6035.048
6035.374
6035.44
6035.231
6034.744
6034.008
6033.056
6031.902
6030.556
6029.036
6027.353
6025.529
6023.595
6021.589
6019.549
6017.504
6015.464
6013.425
6011.388
6009.357
6007.343
6005.355
6003.402
6001.486
5999.59
5997.679
5995.726
5993.766
5991.917
5990.428
5989.68
5989.927
5990.942
5992.267
5993.679
5995.13
5996.636
5998.234
5999.912
6001.63
6003.371
6005.126
6006.875
6008.617
6010.351
6012.081
6013.792
6015.46
6017.232
6019.095
6021.038
6023.009
6025.036
6027.047
6028.99
6030.369
6031.498
6032.123
6032.296
6033.622
6036.01
6038.278
6040.443
6042.234
6044.111
6046.306
6048.334
6048.537
6047.166
6045.692
6045.017
6044.66
6043.857
6042.543
6041.157
6040.083
6039.3
6038.628
6037.815
6036.807
6035.811
6034.914
6034.101
6033.271
6032.367
6031.379
6030.263
6028.92
6027.299
6025.422
6023.324
6021.002
6018.498
6015.888
6013.206
6010.483
6007.786
6005.168
6002.686
6000.375
5998.295
5996.451
5994.882
5993.587
5992.561
5991.789
5991.246
5990.895
5990.689
5990.577
5990.498
5990.396
5990.24
5990.035
5989.78
5989.457
5989.04
5988.509
5987.845
5987.14
5986.3
5985.303
5984.19
5982.997
5981.745
5980.453
5979.133
5977.792
5976.432
5975.061
5973.686
5972.312
5970.949
5969.606
5968.286
5966.995
5965.74
5964.52
5963.348
5962.228
5961.166
5960.158
5959.183
5958.221
5957.419
5956.715
5956.047
5955.427
5954.874
5954.387
5953.966
5953.608
5953.312
5953.076
5952.898
5952.776
5952.705
5952.687
5952.719
5952.795
5952.912
5953.071
5953.269
5953.503
5953.766
5954.058
5954.378
5954.712
5955.018
5955.283
5955.649
5956.028
5956.502
5956.943
5957.34
5957.707
5958.07
5958.436
5958.798
5959.165
5959.537
5959.779
5959.89
5959.986
5960.117
5960.238
5960.312
5960.336
5960.304
5960.209
5960.044
5959.802
5959.475
5959.055
5958.53
5957.894
5957.15
5956.322
5955.488
5954.804
5954.542
5955.052
5956.755
5959.924
3488.408
3496.545
3517.142
3540.491
3575.546
3628.073
3690.315
3767.728
3861.774
3948.085
4035.233
4145.914
4280.078
4433.067
4605.038
4791.162
4986.655
5186.555
5387.62
5581.412
5762.133
5925.553
6058.096
6152.645
6208.325
6221.854
6192.407
6122.307
6016.566
5884.248
5740.543
5494.602
5338.604
5182.358
5022.453
4872.304
4739.029
4623.92
4525.832
4443.203
4372.911
4311.002
4254.916
4203.846
4156.287
4110.016
4064.328
4019.464
3975.719
3933.71
3894.6
3860.39
3832.507
3811.133
3795.385
3784.566
3779.205
3781.238
3793.228
3816.465
3850.26
3893.085
3943.207
3999.322
4058.192
4115.676
4173.355
4229.718
4283.337
4327.301
4362.16
4389.109
4407.144
4416.288
4418.35
4416.013
4412.016
4408.746
4406.546
4404.899
4404.86
4407.47
4412.888
4418.883
4424.291
4426.142
4423.097
4419.499
4416.229
4412.291
4410.295
4410.749
4413.235
4418.199
4426.714
4440.062
4459.309
4485.429
4518.861
4558.901
4603.557
4649.97
4695.978
4740.242
4782.388
4821.325
4856.299
4886.98
4913.288
4935.626
4953.292
4969.272
4980.524
4987.449
4990.001
4988.033
4981.284
4969.633
4953.229
4932.356
4907.733
4880.408
4851.737
4823.628
4798.489
4777.963
4765.67
4762.413
4771.491
4791.718
4822.83
4864.246
4915.682
4975.514
5039.008
5100.185
5154.832
5201.477
5240.398
5272.21
5297.668
5318.349
5334.886
5347.433
5356.681
5363.596
5368.971
5373.093
5375.808
5378.276
5378.307
5374.401
5368.578
5362.025
5355.635
5353.13
5358.034
5369.868
5385.001
5401.501
5419.382
5438.573
5458.726
5479.509
5500.744
5522.371
5544.369
5566.619
5588.926
5611.038
5632.7
5653.549
5673.325
5691.829
5708.928
5724.446
5738.09
5750.391
5761.312
5770.603
5778.16
5784.307
5789.296
5793.295
5796.487
5799.035
5801.072
5802.635
5803.679
5804.607
5806.113
5808.975
5813.001
5818.749
5826.68
5835.913
5845.398
5854.367
5861.808
5870.498
5882.146
5893.545
5904.212
5915.241
5926.668
5938.148
5949.18
5959.544
5969.017
5977.874
5986.165
5993.748
6000.327
6005.916
6010.61
6014.419
6017.394
6019.628
6021.205
6022.307
6023.096
6023.682
6024.114
6024.485
6024.819
6025.236
6025.537
6025.752
6025.889
6025.924
6025.888
6025.797
6025.651
6025.449
6025.244
6025.118
6025.123
6025.261
6025.526
6025.903
6026.351
6026.799
6027.34
6027.964
6028.466
6028.793
6028.984
6029.075
6029.112
6029.17
6029.303
6029.576
6030
6030.548
6031.227
6032.461
6033.9
6035.105
6036.024
6036.709
6037.137
6037.258
6037.049
6036.524
6035.72
6034.675
6033.42
6031.973
6030.341
6028.535
6026.576
6024.504
6022.363
6020.2
6018.057
6015.946
6013.851
6011.763
6009.69
6007.651
6005.654
6003.685
6001.863
6000.164
5998.531
5996.899
5995.323
5993.88
5992.704
5991.979
5991.867
5992.376
5993.295
5994.447
5995.733
5997.134
5998.682
6000.354
6002.066
6003.808
6005.481
6006.69
6008.262
6010.139
6012.223
6013.968
6015.593
6017.221
6018.871
6020.569
6022.335
6024.138
6025.923
6027.632
6029.11
6030.382
6031.251
6031.987
6033.227
6035.028
6036.953
6038.814
6040.797
6042.544
6043.794
6044.884
6045.43
6045.204
6044.666
6044.357
6044.241
6043.915
6043.196
6042.291
6041.317
6040.37
6039.501
6038.739
6038.013
6037.269
6036.553
6035.732
6034.745
6033.687
6032.543
6031.285
6029.837
6028.159
6026.261
6024.145
6021.798
6019.257
6016.572
6013.795
6010.984
6008.195
6005.482
6002.901
6000.499
5998.313
5996.392
5994.738
5993.371
5992.281
5991.453
5990.86
5990.464
5990.221
5990.08
5989.991
5989.902
5989.779
5989.608
5989.383
5989.084
5988.689
5988.19
5987.584
5986.883
5986.038
5985.037
5983.941
5982.788
5981.586
5980.335
5979.045
5977.723
5976.376
5975.013
5973.642
5972.27
5970.906
5969.559
5968.235
5966.937
5965.673
5964.446
5963.266
5962.138
5961.065
5960.051
5959.098
5958.206
5957.369
5956.591
5955.885
5955.253
5954.689
5954.191
5953.758
5953.39
5953.084
5952.839
5952.652
5952.521
5952.444
5952.418
5952.442
5952.512
5952.625
5952.78
5952.973
5953.202
5953.462
5953.752
5954.068
5954.404
5954.753
5955.106
5955.462
5955.842
5956.239
5956.641
5957.031
5957.408
5957.78
5958.149
5958.509
5958.858
5959.184
5959.438
5959.617
5959.76
5959.888
5959.994
5960.066
5960.095
5960.072
5959.992
5959.845
5959.632
5959.353
5959.003
5958.576
5958.079
5957.531
5956.973
5956.471
5956.149
5956.117
5956.658
5957.622
5959.756
3709.024
3675.472
3646.36
3618.249
3589.027
3562.062
3540.071
3521.332
3507.008
3496.866
3492.134
3491.235
3498.308
3512.635
3534.235
3565.726
3616.721
3673.742
3740.235
3815.654
3899.347
3998.679
4116.942
4253.168
4406.913
4577.325
4761.262
4955.349
5155.562
5355.748
5550.751
5728.705
5882.73
6004.541
6087.611
6128.877
6126.565
6081.045
5996.543
5878.386
5731.206
5560.356
5375.83
5210.042
5057.358
4909.473
4770.623
4647.376
4542.452
4455.344
4384.331
4324.922
4271.979
4223.233
4180.39
4139.002
4093.748
4046.907
4001.397
3956.976
3913.461
3871.767
3835.306
3807.601
3787.725
3771.763
3757.871
3747.831
3745.716
3756.273
3780.551
3817.226
3864.18
3919.453
3981.203
4047.194
4114.626
4181.607
4245.104
4302.55
4352.062
4391.878
4420.681
4436.932
4441.39
4436.521
4426.552
4416.027
4408.769
4403.994
4399.752
4398.791
4401.903
4410.338
4420.964
4429.505
4431.455
4424.398
4413.97
4408.874
4405.988
4403.021
4400.863
4400.093
4401.401
4406.337
4416.613
4433.835
4459.638
4495.063
4539.472
4590.183
4642.659
4693.664
4741.879
4786.864
4828.069
4865.289
4898.402
4926.968
4950.993
4970.827
4987.261
4999.521
5007.211
5010.096
5007.922
5000.346
4987.003
4967.712
4942.552
4911.857
4876.419
4837.302
4794.3
4747.963
4722.883
4712.056
4707.789
4712.967
4732.233
4766.781
4816.283
4879.269
4953.051
5030.664
5102.995
5164.437
5211.206
5248.727
5285.74
5317.209
5339.035
5354.518
5365.518
5372.648
5376.593
5378.095
5377.48
5374.972
5371.604
5365.064
5356.285
5350.191
5347.089
5345.879
5347.681
5354.336
5365.883
5380.843
5397.807
5416.209
5435.772
5456.191
5477.152
5498.73
5520.939
5543.675
5566.731
5589.964
5613.133
5635.944
5657.801
5678.374
5695.831
5711.924
5728.626
5744.797
5757.79
5768.209
5776.753
5783.597
5789.022
5793.322
5796.593
5799.067
5801.147
5802.817
5803.94
5804.383
5804.185
5804.514
5806.144
5809.313
5814.645
5823.256
5833.099
5840.639
5837.468
5846.767
5868.15
5884.046
5894.706
5905.38
5916.592
5928.148
5939.543
5949.493
5960.081
5971.062
5981.372
5990.059
5997.633
6004.251
6009.885
6014.51
6018.107
6020.642
6022.396
6023.539
6024.223
6024.531
6024.647
6024.706
6024.817
6025.047
6025.378
6025.65
6025.849
6025.987
6025.99
6025.911
6025.626
6025.372
6025.223
6025.22
6025.19
6025.247
6025.45
6025.762
6025.951
6025.526
6026.441
6027.931
6028.856
6029.371
6029.703
6029.846
6029.836
6029.747
6029.663
6029.634
6029.509
6029.729
6030.512
6031.786
6033.146
6034.516
6035.807
6036.938
6037.838
6038.422
6038.625
6038.428
6037.863
6036.986
6035.857
6034.519
6032.991
6031.276
6029.375
6027.302
6025.099
6022.819
6020.519
6018.28
6016.128
6014.011
6011.873
6009.612
6007.519
6005.634
6003.948
6002.278
6000.681
5999.199
5997.789
5996.448
5995.026
5993.882
5993.234
5993.206
5993.479
5994.042
5994.921
5996.051
5997.331
5998.85
6000.262
5999.948
6001.172
6003.799
6007.25
6009.388
6010.999
6012.52
6014.017
6015.507
6017.004
6018.506
6020.03
6021.616
6023.246
6024.933
6026.595
6028.148
6029.479
6030.565
6031.531
6032.658
6034.046
6035.597
6037.165
6038.759
6040.128
6041.25
6042.283
6043.154
6043.652
6043.769
6043.675
6043.528
6043.269
6042.791
6042.202
6041.603
6041.044
6040.508
6039.941
6039.298
6038.521
6037.673
6036.837
6035.969
6035.001
6033.911
6032.627
6031.092
6029.313
6027.295
6025.059
6022.632
6020.041
6017.303
6014.453
6011.558
6008.678
6005.873
6003.201
6000.713
5998.45
5996.447
5994.726
5993.295
5992.153
5991.28
5990.649
5990.222
5989.954
5989.794
5989.698
5989.616
5989.512
5989.362
5989.156
5988.875
5988.492
5988.004
5987.403
5986.684
5985.839
5984.877
5983.826
5982.707
5981.525
5980.287
5979.002
5977.681
5976.334
5974.969
5973.595
5972.219
5970.85
5969.496
5968.163
5966.858
5965.585
5964.352
5963.165
5962.027
5960.945
5959.92
5958.956
5958.052
5957.209
5956.43
5955.717
5955.074
5954.5
5953.993
5953.553
5953.177
5952.864
5952.612
5952.419
5952.282
5952.201
5952.171
5952.191
5952.258
5952.369
5952.522
5952.714
5952.942
5953.202
5953.492
5953.808
5954.146
5954.501
5954.872
5955.251
5955.635
5956.023
5956.413
5956.804
5957.19
5957.57
5957.941
5958.3
5958.64
5958.952
5959.213
5959.423
5959.596
5959.744
5959.862
5959.945
5959.986
5959.981
5959.923
5959.806
5959.63
5959.402
5959.12
5958.79
5958.417
5958.026
5957.658
5957.363
5957.235
5957.322
5957.827
5958.523
5960.159
4146.401
4088.961
4037.873
3987.621
3944.607
3897.053
3856.957
3818.76
3782.064
3746.436
3712.558
3679.91
3648.665
3619.13
3590.892
3562.606
3540.721
3522.109
3507.06
3496.296
3490.359
3489.718
3495.128
3507.487
3527.019
3555.022
3588.902
3636.817
3694.929
3764.171
3846.071
3943.2
4056.643
4186.688
4333.917
4497.737
4676.68
4868.074
5065.352
5260.912
5447.895
5617.404
5761.495
5873.025
5945.446
5975.612
5962.364
5907.624
5813.357
5683.157
5526.187
5356.465
5187.099
5030.195
4887.79
4754.549
4631.693
4524.817
4435.452
4363.782
4309.967
4266.452
4225.997
4186.581
4152.533
4122.413
4082.77
4032.671
3982.479
3934.957
3889.897
3844.353
3802.832
3774.254
3757.194
3742.656
3724.45
3704.732
3692.372
3699.451
3726.077
3768.034
3821.08
3882.541
3952.175
4029.038
4109.232
4187.94
4260.878
4326.33
4383.991
4431.51
4464.508
4478.763
4475.979
4459.912
4436.808
4417.722
4407.285
4401.478
4392.487
4388.931
4391.73
4405.403
4424.795
4434.756
4417.772
4402.9
4398.742
4405.14
4402.509
4396.701
4391.342
4385.833
4381.238
4380.534
4386.166
4400.156
4424.784
4462.059
4512.109
4571.796
4631.794
4688.807
4742.495
4791.248
4835.211
4874.788
4909.852
4940.164
4965.85
4987.374
5005.186
5018.988
5028.211
5032.334
5030.856
5023.218
5008.75
4986.962
4957.132
4917.506
4865.486
4803.966
4751.765
4703.772
4675.583
4653.346
4638.917
4639.889
4659.609
4699.782
4760.084
4837.69
4928.856
5019.41
5077.415
5102.925
5182.038
5267.63
5315.091
5341.799
5361.295
5375.482
5384.64
5389.049
5389.621
5387.134
5377.1
5363.166
5354.378
5350.278
5343.976
5337.19
5333.245
5333.325
5337.749
5346.417
5358.894
5374.4
5392.1
5411.257
5431.291
5451.954
5473.355
5495.401
5518.044
5541.369
5565.225
5589.369
5613.456
5635.62
5649.636
5670.975
5698.131
5721.114
5738.337
5752.736
5764.899
5774.969
5783.098
5789.272
5793.859
5797.349
5799.785
5801.503
5803.356
5804.979
5805.724
5805.525
5804.48
5803.245
5802.76
5803.7
5806.425
5813.929
5795.645
5770.627
5791.959
5843.257
5873.299
5885.196
5895.165
5905.821
5913.446
5922.651
5936.339
5952.155
5964.669
5975.238
5984.834
5993.506
6001.258
6008.051
6013.675
6018.052
6021.506
6023.986
6025.405
6025.956
6025.942
6025.673
6025.337
6025.023
6024.92
6025.113
6025.479
6025.751
6025.899
6025.045
6021.616
6021.473
6023.882
6025.933
6025.986
6025.514
6025.341
6025.504
6025.804
6025.942
6024.57
6024.879
6026.635
6028.72
6029.731
6030.317
6030.661
6030.308
6029.673
6029.509
6029.715
6029.721
6029.645
6029.787
6030.551
6031.735
6033.109
6034.617
6036.167
6037.613
6038.798
6039.583
6039.883
6039.687
6039.054
6038.073
6036.838
6035.414
6033.818
6032.04
6030.063
6027.885
6025.542
6023.087
6020.585
6018.167
6015.516
6012.871
6010.907
6009.492
6007.809
6005.903
6004.089
6002.435
6000.893
5999.189
5996.396
5995.323
5995.614
5995.322
5994.643
5994.221
5994.077
5994.315
5995.049
5995.148
5990.771
5991.49
5995.677
6001.778
6004.661
6006.468
6008.114
6009.7
6011.214
6012.658
6014.039
6015.393
6016.779
6018.118
6019.429
6020.935
6022.545
6024.188
6025.836
6027.41
6028.818
6029.996
6030.995
6032.009
6033.143
6034.401
6035.73
6037.091
6038.392
6039.56
6040.595
6041.469
6042.037
6042.301
6042.475
6042.626
6042.718
6042.661
6042.364
6041.924
6041.438
6040.964
6040.514
6040.027
6039.467
6038.758
6037.977
6037.124
6036.133
6034.988
6033.689
6032.199
6030.45
6028.415
6026.122
6023.621
6020.947
6018.13
6015.21
6012.241
6009.283
6006.401
6003.652
6001.089
5998.755
5996.685
5994.904
5993.414
5992.22
5991.305
5990.638
5990.18
5989.887
5989.708
5989.596
5989.508
5989.404
5989.255
5989.064
5988.793
5988.405
5987.912
5987.307
5986.587
5985.754
5984.814
5983.781
5982.669
5981.489
5980.25
5978.964
5977.64
5976.288
5974.918
5973.536
5972.153
5970.777
5969.414
5968.073
5966.759
5965.479
5964.238
5963.042
5961.896
5960.805
5959.771
5958.797
5957.885
5957.035
5956.25
5955.533
5954.884
5954.303
5953.791
5953.345
5952.964
5952.646
5952.39
5952.193
5952.054
5951.97
5951.939
5951.958
5952.025
5952.137
5952.291
5952.484
5952.714
5952.978
5953.271
5953.59
5953.932
5954.293
5954.668
5955.055
5955.449
5955.847
5956.247
5956.647
5957.042
5957.43
5957.808
5958.17
5958.511
5958.823
5959.097
5959.33
5959.529
5959.697
5959.833
5959.934
5959.994
5960.011
5959.981
5959.902
5959.772
5959.595
5959.378
5959.128
5958.854
5958.581
5958.344
5958.182
5958.164
5958.314
5958.776
5959.358
5960.691
4451.055
4416.873
4348.69
4272.482
4200.617
4138.619
4082.481
4031.626
3985.637
3940.885
3892.851
3853.457
3815.798
3779.475
3744.342
3710.52
3678.002
3646.735
3616.813
3589.519
3564.48
3541.978
3522.237
3505.687
3492.911
3484.461
3480.596
3482.047
3489.989
3505.337
3528.694
3560.567
3602.989
3656.157
3721.653
3800.022
3892.156
3999.277
4123.195
4265.573
4425.615
4599.449
4784.137
4973.873
5160.106
5334.666
5488.775
5614.534
5706.419
5759.149
5771.652
5743.481
5674.244
5565.814
5425.395
5265.903
5100.714
4939.802
4790.681
4662.311
4549.127
4448.489
4366.455
4303.566
4255.729
4221.152
4194.322
4169.086
4145.817
4123.873
4106.885
4076.233
4022.505
3965.417
3910.354
3857.562
3805.877
3759.973
3734.951
3721.753
3708.058
3682.95
3651.577
3624.048
3625.662
3655.788
3704.261
3765.406
3835.177
3914.456
4003.731
4098.939
4193.446
4279.901
4355.693
4423.781
4482.833
4522.423
4533.437
4519.719
4487.336
4445.753
4414.246
4402.072
4396.288
4380.634
4372.661
4375.241
4383.742
4368.895
4289.22
4343.333
4417.151
4427.813
4407.657
4397.84
4391.233
4384.22
4373.499
4360.285
4350.456
4348.214
4356.249
4374.037
4377.633
4375.484
4476.232
4607.078
4690.081
4748.066
4799.085
4845.278
4886.722
4923.283
4954.81
4981.509
5004.107
5023.32
5039.032
5050.215
5056.105
5056.172
5049.254
5032.881
5006.958
4969.723
4894.27
4832.234
4785.02
4741.491
4677.254
4616.155
4561.775
4518.143
4529.485
4571.746
4625.489
4696.699
4788.755
4865.996
4746.59
4841.416
5105.349
5252.255
5308.928
5342.234
5366.625
5384.606
5397.106
5403.95
5396.967
5382.053
5377.727
5380.229
5374.129
5359.542
5343.438
5329.625
5320.004
5316.149
5318.073
5325.216
5336.379
5350.602
5367.25
5385.644
5404.58
5424.973
5446.426
5468.644
5490.99
5513.968
5537.89
5561.906
5579.49
5573.575
5604.752
5654.167
5686.769
5709.166
5728.36
5745.189
5759.806
5772.029
5781.804
5789.469
5795
5798.948
5801.738
5802.709
5802.603
5804.712
5807.291
5807.858
5806.81
5805.384
5803.534
5800.688
5774.851
5592.958
5555.168
5669.693
5818.707
5856.029
5865.182
5872.953
5880.177
5876.277
5884.363
5905.123
5929.096
5944.24
5956.445
5967.682
5978.193
5987.869
5996.56
6003.912
6010.867
6017.149
6022.166
6025.483
6027.372
6028.109
6028.01
6027.371
6026.601
6025.785
6024.928
6024.444
6024.641
6024.526
6020.683
6019.745
6022.014
6025.389
6026.603
6026.886
6027.062
6024.249
6012.294
6011.103
6017.909
6024.963
6026.267
6026.948
6027.651
6028.048
6026.18
6025.956
6027.722
6030.678
6031.464
6031.044
6030.312
6029.751
6029.377
6029.207
6029.429
6030.075
6031.134
6032.603
6034.363
6036.258
6038.091
6039.625
6040.653
6041.067
6040.858
6040.116
6038.979
6037.58
6035.947
6034.155
6032.44
6030.571
6028.366
6025.871
6023.003
6018.535
6012.795
6012.448
6013.22
6011.924
6009.871
6007.809
6005.856
6004.055
6002.008
5996.12
5993.033
5993.8
5996.885
5997.187
5996.054
5995.203
5994.606
5989.311
5979.844
5980.653
5989.893
5996.882
5999.33
6001.082
6002.965
6004.958
6006.76
6008.394
6009.941
6011.414
6012.817
6014.132
6015.409
6016.557
6017.677
6018.94
6020.392
6021.921
6023.531
6025.227
6026.907
6028.422
6029.647
6030.599
6031.507
6032.436
6033.447
6034.574
6035.84
6037.15
6038.348
6039.364
6040.164
6040.785
6041.335
6041.784
6042.048
6042.15
6042.139
6042.117
6042.065
6041.939
6041.624
6041.136
6040.529
6039.923
6039.368
6038.76
6037.992
6037.082
6035.965
6034.636
6033.13
6031.393
6029.387
6027.128
6024.626
6021.912
6019.047
6016.087
6013.078
6010.077
6007.145
6004.342
6001.721
5999.328
5997.196
5995.35
5993.808
5992.561
5991.593
5990.877
5990.378
5990.045
5989.831
5989.689
5989.576
5989.449
5989.266
5989.076
5988.821
5988.393
5987.879
5987.263
5986.536
5985.702
5984.765
5983.734
5982.622
5981.44
5980.2
5978.91
5977.582
5976.225
5974.848
5973.459
5972.069
5970.684
5969.313
5967.964
5966.642
5965.354
5964.105
5962.902
5961.748
5960.649
5959.608
5958.626
5957.707
5956.852
5956.062
5955.341
5954.687
5954.103
5953.587
5953.137
5952.753
5952.433
5952.175
5951.977
5951.837
5951.753
5951.722
5951.743
5951.812
5951.927
5952.084
5952.282
5952.517
5952.786
5953.086
5953.412
5953.762
5954.131
5954.516
5954.913
5955.319
5955.729
5956.142
5956.554
5956.961
5957.36
5957.747
5958.118
5958.467
5958.788
5959.077
5959.332
5959.555
5959.746
5959.904
5960.026
5960.11
5960.153
5960.154
5960.112
5960.027
5959.903
5959.745
5959.562
5959.368
5959.182
5959.033
5958.953
5958.99
5959.162
5959.569
5960.066
5961.162
4419.091
4372.058
4283.608
4222.145
4163.619
4110.179
4061.071
4015.458
3972.51
3931.924
3893.586
3855.756
3818.949
3782.99
3748.023
3713.998
3681.006
3649.155
3618.598
3590.033
3564.291
3541.019
3520.18
3501.881
3486.379
3474.693
3467.664
3466.051
3470.68
3482.897
3503.703
3533.461
3573.407
3623.743
3685.146
3757.936
3843.753
3946.136
4065.163
4201.902
4354.888
4521.31
4696.625
4874.954
5046.702
5202.947
5334.144
5433.058
5496.761
5522.494
5509.876
5459.227
5371.792
5250.553
5104.673
4943.117
4781.676
4632.339
4499.475
4388.452
4296.9
4224.282
4171.398
4135.96
4118.235
4121.101
4121.064
4105.543
4093.875
4100.234
4108.109
4059.673
3981.236
3928.879
3885.606
3796.423
3624.798
3515.361
3532.559
3606.469
3655.023
3605.845
3523.924
3471.597
3471.985
3516.774
3587.888
3679.236
3768.68
3863.495
3970.594
4083.1
4193.779
4296.122
4386.101
4467.455
4540.607
4591.402