/*--------------------------------*- C++ -*----------------------------------*\
| =========                 |                                                 |
| \\      /  F ield         | foam-extend: Open Source CFD                    |
|  \\    /   O peration     | Version:     3.1                                |
|   \\  /    A nd           | Web:         http://www.extend-project.de       |
|    \\/     M anipulation  |                                                 |
\*---------------------------------------------------------------------------*/
FoamFile
{
    version     2.0;
    format      ascii;
    class       volScalarField;
    location    "13.5";
    object      p;
}
// * * * * * * * * * * * * * * * * * * * * * * * * * * * * * * * * * * * * * //

dimensions      [1 -1 -2 0 0 0 0];

internalField   nonuniform List<scalar> 
119952
(
6014.222
4667.162
4463.707
4649.985
4863.075
4678.109
4623.021
4573.051
4536.597
4506.791
4481.736
4462.293
4447.332
4438.999
4436.185
4439.433
4448.297
4460.749
4465.648
4419.038
4758.5
4636.304
4630.831
5042.255
5070.024
5162.006
5246.731
5380.753
5666.309
7736.624
3340.796
3302.041
3316.155
3325.528
3338.5
3351.032
3367.974
3385.611
3407.059
3400.301
3398.119
3430.841
3447.087
3467.38
3488.052
3511.321
3536.563
3562.469
3590.69
3626.749
3641.139
3654.222
3685.028
3718.934
3752.468
3787.818
3824.248
3860.123
3899.617
3923.48
3956.578
3994.373
4029.214
4062.849
4096.201
4129.704
4170.69
4256.451
4430.495
4307.69
4275.994
4354.461
4387.325
4365.375
4316.462
4279.121
4248.805
4221.574
4198.325
4181.024
4168.766
4162.214
4161.876
4167.81
4179.784
4197.301
4221.52
4258.585
4322.378
4400.87
4461.266
4602.738
4780.797
4869.808
4935.599
5001.319
5002.465
4867.062
4917.196
5016.317
5093.508
5167.381
5236.077
5298.229
5354.337
5404.216
5446.836
5480.939
5505.564
5520.663
5525.864
5521.039
5506.55
5483.605
5454.17
5421.04
5388.512
5361.293
5343.108
5338.265
5352.349
5390.428
5457.899
5556.937
5688.782
5847.735
5991.196
6033.339
5964.844
5974.77
6020.292
6094.645
6141.317
6173.518
6207.257
6243.065
6285.163
6333.259
6385.12
6438.632
6492.512
6546.268
6599.567
6652.41
6704.755
6756.472
6807.683
6858.519
6907.56
6955.223
7001.849
7047.37
7091.818
7135.071
7177.099
7217.873
7257.392
7295.587
7332.456
7367.995
7402.213
7435.125
7466.743
7497.099
7526.243
7554.212
7581.055
7606.816
7631.553
7655.317
7678.155
7700.11
7721.219
7741.51
7761.006
7779.72
7797.659
7814.82
7831.195
7846.77
7861.527
7875.448
7888.512
7900.703
7912.005
7922.411
7931.918
7940.532
7948.266
7955.146
7961.204
7966.498
7971.058
7974.907
7978.101
7980.753
7984.172
8020.08
8020.717
8022.919
8024.955
8027.08
8029.394
8032.007
8035.013
8038.51
8042.583
8047.313
8052.742
8058.9
8065.768
8073.297
8081.404
8089.979
8098.883
8107.966
8117.099
8126.208
8135.322
8144.366
8154.715
8167.353
8182.408
8168.112
8137.092
8141.152
8152.203
8158.107
8159.558
8157.04
8150.295
8139.484
8127.901
8130.896
8133.782
8136.815
8139.834
8142.17
8142.872
8141.182
8136.637
8128.896
8117.765
8103.256
8085.794
8065.883
8044.292
8022.35
8001.405
7982.923
7968.191
7958.615
7955.114
7957.95
7967.86
7984.651
8007.672
8035.805
8067.508
8100.853
8133.624
8163.627
8189.504
8210.695
8226.825
8237.572
8242.665
8214.19
8207.82
8197.596
8184.074
8169.843
8154.499
8139.126
8124.323
8110.094
8096.564
8083.767
8071.523
8059.984
8049.118
8038.892
8029.336
8020.401
8012.053
8004.206
7996.822
7989.844
7983.224
7976.92
7970.896
7965.12
7959.565
7954.211
7949.037
7944.039
7939.037
7934.181
7929.456
7924.767
7920.105
7915.484
7910.896
7906.335
7901.81
7897.312
7892.843
7888.418
7884.059
7879.806
7875.722
7871.754
7867.286
7861.596
7855.341
7849.382
7843.634
7837.967
7832.415
7826.714
7820.61
7808.782
7804.662
7801.431
7795.559
7789.594
7783.739
7777.829
7771.912
7766.001
7760.096
7754.2
7748.317
7742.447
7736.598
7730.778
7724.997
7719.265
7713.589
7707.981
7702.444
7696.998
7691.642
7686.377
7681.204
7676.054
7670.88
7665.748
7660.271
7654.33
7649.226
7645.221
7641.002
7636.507
7631.792
7626.959
7622.067
7617.108
7612.045
7606.808
7601.376
7595.702
7589.738
7583.452
7576.988
7570.55
7564.368
7558.544
7553.05
7547.716
7542.308
7536.771
7531.06
7525.273
7519.522
7513.873
7508.36
7503.032
7497.901
7492.939
7488.115
7483.39
7478.717
7474.049
7469.339
7464.566
7459.614
7454.515
7449.216
7443.688
7437.92
7431.892
7425.595
7419.026
7412.188
7405.085
7397.723
7390.104
7382.222
7374.05
7365.527
7356.514
7346.82
7337.089
7335.046
7358.074
6094.05
5956.111
5792.125
5630.53
5469.122
5309.755
5153.542
5000.932
4852.242
4680.973
4541.731
4411.559
4282.717
4163.585
4051.886
3948.03
3852.653
3763.36
3635.065
3581.474
3503.827
3431.208
3372.935
3320.3
3273.127
3231.58
3194.636
3164.586
3140.848
3106.077
3086.704
3071.903
3058.945
3049.755
3043.079
3038.902
3039.503
3048.434
3035.675
3035.323
3045.725
3056.961
3068.475
3081.738
3095.828
3110.918
3126.156
3137.992
3157.679
3178.237
3197.509
3218.14
3240.795
3264.903
3291.314
3322.948
3287.665
3320.022
3353.48
3387.053
3420.812
3455.168
3490.31
3525.933
3561.753
3597.382
3633.013
3668.187
3701.931
3734.667
3767.786
3802.814
3841.699
3886.845
3937.376
3979.077
3990.356
3989.039
3995.004
3999.624
3991.123
3968.564
3939.84
3911.295
3886.044
3864.985
3848.825
3837.938
3833.17
3835.36
3845.177
3863.128
3890.024
3927.185
3976.524
4039.561
4115.877
4204.235
4304.817
4409.882
4500.643
4568.536
4615.065
4641.657
4660.865
4698.493
4761.452
4834.891
4908.342
4976.612
5038.209
5093.016
5140.668
5180.54
5209.502
5228.519
5236.163
5232.027
5216.263
5189.61
5154.058
5112.629
5068.743
5027.412
4994.003
4972.384
4966.372
4980.402
5017.184
5078.699
5163.412
5265.562
5377.183
5473.013
5534.025
5566.482
5621.234
5686.739
5748.435
5816.395
5868.073
5914.362
5964.335
6012.825
6059.833
6108.001
6157.921
6209.148
6261.053
6313.206
6365.258
6417.076
6468.517
6519.253
6568.971
6617.465
6664.763
6710.928
6755.964
6799.809
6842.515
6884.002
6924.242
6963.198
7000.825
7037.129
7072.097
7105.738
7138.068
7169.111
7198.902
7227.48
7254.892
7281.186
7306.415
7330.634
7353.896
7376.247
7397.731
7418.385
7438.239
7457.314
7475.622
7493.171
7509.956
7525.969
7541.195
7555.618
7569.216
7581.971
7593.865
7604.884
7615.021
7624.274
7632.649
7640.16
7646.834
7652.699
7657.806
7662.195
7665.959
7669.143
7671.819
7673.733
7740.85
7739.722
7742.318
7744.426
7746.41
7748.568
7750.974
7753.747
7756.984
7760.77
7765.176
7770.252
7776.024
7782.488
7789.606
7797.31
7805.505
7814.075
7822.891
7831.842
7840.863
7849.943
7859.153
7868.436
7877.085
7883.621
7880.554
7872.012
7874.488
7881.269
7885.852
7887.897
7886.123
7880.616
7872.282
7864.433
7861.246
7861.766
7863.674
7866.456
7868.957
7870.123
7869.075
7865.148
7857.859
7846.961
7832.487
7814.759
7794.382
7772.255
7749.595
7727.751
7708.108
7692.011
7680.668
7675.061
7675.457
7682.658
7696.434
7716.213
7740.99
7769.442
7800.02
7830.75
7858.926
7883.526
7904.111
7920.303
7932.216
7941.29
7870.502
7869.833
7866.415
7856.308
7843.382
7830.027
7816.925
7804.148
7791.752
7779.794
7768.381
7757.519
7747.129
7737.36
7728.094
7719.333
7711.07
7703.283
7695.921
7688.945
7682.313
7675.985
7669.926
7664.104
7658.488
7653.053
7647.777
7642.649
7637.635
7632.69
7627.829
7623.034
7618.346
7613.617
7608.936
7604.277
7599.627
7595.017
7590.405
7585.81
7581.263
7576.741
7572.224
7567.666
7562.953
7557.942
7552.567
7546.773
7540.889
7535.135
7529.408
7523.701
7517.975
7512.207
7505.709
7498.796
7492.439
7486.619
7480.915
7475.089
7469.138
7463.138
7457.141
7451.159
7445.194
7439.246
7433.32
7427.421
7421.557
7415.735
7409.966
7404.257
7398.616
7393.049
7387.564
7382.16
7376.831
7371.532
7366.368
7361.159
7355.837
7350.663
7345.541
7340.626
7336.129
7331.696
7327.165
7322.521
7317.777
7312.957
7308.064
7303.093
7298.016
7292.78
7287.33
7281.601
7275.658
7269.698
7263.896
7258.376
7253.143
7247.967
7242.52
7236.692
7230.59
7224.465
7218.398
7212.468
7206.7
7201.134
7195.843
7190.75
7185.78
7180.965
7176.278
7171.661
7167.069
7162.446
7157.743
7152.911
7147.91
7142.704
7137.264
7131.57
7125.607
7119.368
7112.853
7106.066
7099.015
7091.716
7084.184
7076.451
7068.546
7060.597
7052.753
7045.752
7040.158
7037.843
7035.439
3063.588
3092.411
3139.257
3201.068
3279.041
3372.416
3481.128
3604.932
3743.177
3894.529
4039.738
4212.955
4393.459
4580.857
4773.444
4968.71
5163.999
5355.184
5545.421
5717.473
5889.146
6049.738
6197.664
6329.244
6441.453
6532.415
6600.212
6643.222
6668.334
6663.355
6633.642
6582.222
6510.109
6418.97
6310.788
6187.701
6052.346
5907.555
5744.091
5587.937
5425.79
5262.628
5100.092
4939.756
4782.983
4630.743
4484.24
4343.133
4205.368
4077.075
3953.584
3837.19
3728.522
3627.628
3535.464
3456.82
3277.373
3204.226
3143.526
3085.938
3031.199
2980.854
2935.945
2896.498
2862.168
2831.991
2805.917
2784.92
2767.414
2752.498
2740.544
2731.83
2726.105
2723.074
2722.293
2723.429
2727.255
2733.113
2740.808
2750.58
2762.205
2775.133
2788.902
2803.205
2818.179
2834.664
2852.095
2870.39
2890.163
2911.73
2934.632
2958.816
2983.895
3011.449
3042.773
3074.91
3106.139
3138.259
3172.299
3207.887
3244.369
3281.286
3318.014
3354.375
3389.812
3424.02
3457.395
3490.41
3523.666
3558.129
3593.935
3630.981
3667.203
3698.239
3716.33
3719.052
3718.248
3718.076
3711.253
3693.25
3667.387
3639.875
3614.552
3592.899
3575.801
3564.333
3559.517
3562.52
3574.288
3595.517
3626.714
3668.29
3720.523
3783.848
3858.45
3940.82
4028.07
4119.251
4205.233
4277.345
4335.816
4386.701
4431.929
4480.24
4543.434
4618.589
4695.244
4767.022
4831.828
4889.101
4937.988
4976.798
5006.047
5022.166
5024.212
5011.661
4984.819
4944.866
4894.32
4836.798
4777.829
4724.486
4681.046
4650.144
4635.656
4641.048
4667.992
4716.382
4783.366
4865.881
4959.805
5055.321
5136.225
5197.459
5267.084
5353.238
5443.712
5530.876
5608.049
5673.197
5727.778
5777.34
5827.546
5879.043
5930.442
5981.29
6031.847
6082.395
6133.038
6183.725
6234.048
6283.613
6332.387
6380.216
6426.976
6472.668
6517.299
6560.857
6603.3
6644.591
6684.639
6723.381
6760.699
6796.715
6831.391
6864.741
6896.78
6927.534
6957.031
6985.313
7012.421
7038.407
7063.325
7087.23
7110.178
7132.219
7153.4
7173.759
7193.328
7212.13
7230.181
7247.487
7264.046
7279.849
7294.883
7309.13
7322.57
7335.183
7346.952
7357.862
7367.902
7377.07
7385.371
7392.817
7399.433
7405.249
7410.314
7414.667
7418.404
7421.547
7424.329
7426.896
7430.174
7432.415
7433.898
7435.271
7436.856
7438.697
7440.822
7443.316
7446.282
7449.811
7453.973
7458.821
7464.382
7470.654
7477.6
7485.147
7493.199
7501.62
7510.23
7518.89
7527.466
7535.778
7543.553
7550.536
7555.375
7558.902
7560.124
7559.31
7560.576
7564.623
7568.41
7570.855
7571.644
7570.82
7568.786
7566.615
7565.308
7565.099
7565.521
7566.969
7568.797
7569.654
7568.165
7563.608
7555.444
7543.343
7527.344
7507.823
7485.465
7461.357
7436.899
7413.498
7392.499
7375.199
7362.751
7355.94
7355.907
7362.741
7376.263
7395.888
7420.591
7449.189
7480.303
7511.545
7540.232
7565.884
7587.527
7603.866
7614.22
7617.681
7613.381
7609.751
7604.266
7594.537
7582.703
7570.711
7559.154
7547.943
7537.015
7526.435
7516.275
7506.532
7497.152
7488.134
7479.722
7471.682
7464.043
7456.79
7449.891
7443.313
7437.022
7430.984
7425.168
7419.546
7414.092
7408.781
7403.592
7398.514
7393.539
7388.644
7383.808
7379.017
7374.284
7369.572
7364.879
7360.203
7355.547
7350.869
7346.2
7341.491
7336.817
7332.091
7327.343
7322.519
7317.566
7312.414
7307.036
7301.388
7295.559
7289.722
7283.915
7278.079
7272.199
7266.116
7260.026
7254.119
7248.146
7242.054
7235.891
7229.701
7223.511
7217.343
7211.211
7205.117
7199.056
7193.024
7187.022
7181.054
7175.125
7169.241
7163.412
7157.646
7151.947
7146.32
7140.773
7135.313
7129.929
7124.591
7119.322
7114.111
7108.929
7103.746
7098.616
7093.743
7089.14
7084.594
7079.996
7075.329
7070.593
7065.786
7060.901
7055.931
7050.883
7045.755
7040.527
7035.156
7029.611
7023.98
7018.392
7012.873
7007.419
7002.068
6996.805
6991.582
6986.357
6980.847
6974.89
6968.777
6962.79
6956.981
6951.423
6946.152
6941.145
6936.386
6931.745
6927.133
6922.561
6917.98
6913.347
6908.61
6903.719
6898.633
6893.319
6887.753
6881.92
6875.812
6869.428
6862.775
6855.864
6848.718
6841.367
6833.864
6826.28
6818.782
6811.517
6804.946
6799.028
6794.865
6789.863
2997.251
2970.983
2940.531
2896.701
2867.968
2814.013
2802.467
2805.756
2822.261
2818.217
2797.359
2788.495
2799.277
2825.934
2868.534
2925.633
2997.463
3084.339
3185.665
3301.578
3431.428
3574.483
3729.883
3895.902
4071.138
4253.646
4441.352
4632.016
4823.222
5012.431
5199.925
5358.545
5534.363
5693.146
5836.541
5962.538
6069.145
6154.529
6217.625
6258.471
6277.007
6270.024
6237.71
6182.432
6106.459
6011.807
5900.523
5774.775
5636.89
5489.417
5334.711
5175.701
5014.076
4851.908
4691.214
4533.526
4379.79
4230.792
4087.151
3949.346
3817.641
3692.036
3572.557
3459.975
3354.874
3257.408
3167.251
3083.674
3003.787
2933.052
2872.336
2815.525
2761.79
2712.634
2668.828
2630.346
2596.745
2567.943
2543.962
2523.756
2506.817
2493.215
2482.698
2474.974
2469.768
2466.832
2466.231
2468.43
2472.877
2478.965
2487.419
2498.434
2511.021
2524.393
2538.247
2552.575
2567.555
2583.294
2600.175
2618.681
2638.811
2660.442
2683.305
2707.304
2733.055
2760.915
2790.68
2821.873
2854.215
2888.319
2924.425
2961.984
3000.207
3038.459
3076.178
3113.015
3148.525
3182.676
3215.797
3248.186
3280.214
3312.326
3344.318
3375.586
3404.74
3429.654
3446.067
3451.519
3450.6
3446.661
3437.105
3419.245
3394.495
3366.778
3339.43
3314.749
3294.662
3281.062
3275.109
3278.048
3290.877
3314.185
3348.096
3392.404
3446.647
3510.25
3582.265
3660.698
3743.332
3828.469
3911.545
3988.131
4057.507
4122.373
4184.509
4248.962
4321.593
4401.684
4483.182
4560.789
4631.818
4694.891
4748.66
4791.3
4820.807
4834.714
4831.375
4809.333
4768.819
4711.346
4640.028
4560.421
4480.88
4409.655
4350.692
4306.675
4281.025
4275.079
4289.596
4324.677
4378.977
4449.36
4533.237
4624.396
4711.528
4795.115
4891.244
5000.836
5111.6
5216.946
5311.849
5392.924
5463.77
5529.264
5590.843
5648.534
5702.925
5755.015
5805.727
5855.663
5905.15
5954.324
6003.136
6051.469
6099.232
6146.26
6192.404
6237.599
6281.805
6324.971
6367.032
6407.92
6447.563
6485.929
6523.087
6558.867
6593.228
6626.263
6657.969
6688.387
6717.545
6745.486
6772.255
6797.905
6822.487
6846.058
6868.674
6890.388
6911.248
6931.298
6950.57
6969.09
6986.874
7003.93
7020.255
7035.842
7050.676
7064.738
7078.006
7090.46
7102.08
7112.85
7122.76
7131.804
7139.986
7147.318
7153.822
7159.531
7164.487
7168.744
7172.38
7175.48
7178.203
7180.676
7182.911
7184.29
7185.359
7186.551
7187.928
7189.474
7191.242
7193.339
7195.883
7198.976
7202.705
7207.133
7212.303
7218.226
7224.866
7232.133
7239.954
7248.211
7256.661
7265.08
7273.29
7281.065
7288.123
7294.174
7298.654
7301.082
7301.401
7301.685
7303.956
7307.612
7311.349
7315.033
7318.533
7321.252
7322.523
7322.455
7322.356
7323.466
7325.691
7327.912
7329.431
7330.112
7328.832
7324.553
7316.418
7303.995
7287.328
7266.704
7242.823
7216.976
7190.689
7165.354
7142.22
7122.611
7107.757
7098.639
7096.345
7101.077
7112.848
7131.04
7154.665
7182.611
7213.467
7244.863
7274.119
7300.705
7323.552
7341.186
7352.625
7358.104
7358.27
7355.252
7348.343
7338.099
7326.432
7314.899
7303.965
7293.505
7283.407
7273.648
7264.257
7255.245
7246.582
7238.351
7230.363
7222.821
7215.657
7208.851
7202.377
7196.202
7190.291
7184.609
7179.125
7173.808
7168.63
7163.571
7158.61
7153.732
7148.92
7144.158
7139.434
7134.739
7130.066
7125.397
7120.727
7116.055
7111.373
7106.66
7101.938
7097.218
7092.419
7087.591
7082.68
7077.697
7072.6
7067.347
7061.914
7056.277
7050.489
7044.638
7038.766
7032.851
7026.885
7020.857
7014.847
7008.835
7002.705
6996.444
6990.151
6983.896
6977.686
6971.51
6965.359
6959.23
6953.124
6947.038
6940.974
6934.937
6928.933
6922.971
6917.059
6911.206
6905.419
6899.705
6894.07
6888.516
6883.033
6877.614
6872.274
6866.992
6861.747
6856.558
6851.481
6846.57
6841.807
6837.103
6832.393
6827.646
6822.843
6817.969
6813.014
6807.98
6802.869
6797.677
6792.382
6786.975
6781.491
6776.019
6770.648
6765.417
6760.293
6755.235
6750.221
6745.088
6739.738
6734.292
6728.856
6723.528
6718.199
6712.661
6707.061
6701.639
6696.448
6691.5
6686.771
6682.217
6677.732
6673.19
6668.595
6663.91
6659.086
6654.073
6648.836
6643.352
6637.605
6631.589
6625.302
6618.755
6611.962
6604.952
6597.762
6590.455
6583.105
6575.854
6568.787
6562.246
6556.013
6551.11
6544.373
3209.311
3184.766
3159.523
3109.343
3068.081
2991.685
2948.807
2905.091
2861.635
2818.245
2775.52
2735.009
2695.208
2657.564
2623.565
2592.661
2503.308
2485.223
2474.57
2467.309
2459.131
2454.386
2458.59
2474.953
2504.993
2549.125
2607.391
2679.123
2766.142
2868.383
2985.33
3116.341
3260.54
3417.165
3585.026
3762.127
3946.335
4135.481
4327.247
4519.01
4707.907
4891.828
5060.204
5230.664
5386.66
5528.489
5654.247
5761.066
5846.498
5909.418
5949.235
5965.682
5957.545
5924.682
5868.771
5792.143
5697.025
5585.529
5459.769
5321.949
5174.384
5019.272
4859.747
4698.326
4536.905
4377.402
4221.163
4068.952
3921.749
3779.999
3644.335
3514.608
3390.523
3272.829
3162.289
3059.275
2964.009
2876.032
2795.217
2721.265
2654.767
2595.077
2540.024
2488.747
2441.694
2399.346
2361.886
2329.332
2301.752
2278.894
2260.067
2244.855
2232.934
2223.747
2216.816
2211.927
2209.132
2208.706
2210.928
2215.738
2223.179
2233.326
2246.13
2259.658
2273.204
2286.939
2300.862
2315.14
2330.263
2346.958
2365.38
2385.252
2406.612
2429.117
2452.656
2477.793
2504.827
2534.171
2566.152
2600.599
2637.234
2675.75
2715.572
2755.926
2796.088
2835.396
2873.292
2909.4
2943.665
2976.13
3007.047
3037.06
3066.69
3095.789
3123.626
3148.93
3169.878
3184.078
3189.906
3188.326
3181.367
3168.82
3149.289
3123.119
3092.313
3059.832
3029.109
3003.485
2986.028
2977.558
2979.441
2992.651
3017.558
3053.852
3100.745
3157.011
3221.197
3292.187
3368.791
3449.38
3532.36
3615.535
3696.796
3775.3
3852.145
3929.205
4008.968
4093.568
4182.539
4272.509
4359.459
4440.356
4512.991
4575.178
4624.253
4657.121
4670.361
4661.461
4628.459
4570.892
4490.098
4390.149
4279.926
4171.469
4075.05
3995.464
3933.319
3893.231
3875.712
3878.844
3902.673
3946.144
4006.837
4082.656
4171.35
4268.538
4373.979
4492.303
4621.032
4751.168
4876.328
4991.98
5095.676
5188.663
5272.123
5346.465
5412.964
5473.386
5529.235
5581.819
5632.237
5681.276
5729.399
5776.988
5824.172
5870.828
5916.828
5962.066
6006.459
6049.941
6092.443
6133.895
6174.227
6213.379
6251.302
6287.955
6323.286
6357.347
6390.061
6421.397
6451.438
6480.208
6507.763
6534.148
6559.414
6583.614
6606.804
6629.041
6650.379
6670.871
6690.561
6709.485
6727.67
6745.133
6761.882
6777.917
6793.229
6807.801
6821.615
6834.648
6846.878
6858.285
6868.852
6878.566
6887.422
6895.422
6902.578
6908.912
6914.455
6919.249
6923.348
6926.822
6929.747
6932.213
6934.255
6935.88
6937.082
6938.084
6939.067
6940.104
6941.252
6942.601
6944.269
6946.381
6949.05
6952.376
6956.442
6961.296
6966.965
6973.454
6980.655
6988.458
6996.721
7005.212
7013.687
7021.898
7029.582
7036.434
7042.084
7046.026
7047.637
7047.227
7046.841
7048.032
7050.511
7053.369
7056.529
7059.847
7063.016
7065.959
7068.929
7072.064
7075.489
7079.304
7083.309
7086.558
7088.043
7086.932
7082.641
7074.31
7061.345
7043.652
7021.619
6996.063
6968.349
6940.248
6913.193
6888.232
6866.746
6850.064
6839.309
6835.39
6838.814
6849.665
6867.254
6890.578
6918.52
6949.484
6981.074
7011.087
7038.959
7063.315
7082.67
7096.067
7103.536
7105.522
7102.463
7094.325
7082.913
7070.738
7059.422
7049.148
7039.473
7030.118
7020.989
7012.113
7003.537
6995.317
6987.509
6980.099
6973.089
6966.421
6960.093
6954.083
6948.352
6942.871
6937.606
6932.518
6927.571
6922.737
6917.989
6913.307
6908.674
6904.073
6899.494
6894.924
6890.356
6885.781
6881.191
6876.58
6871.944
6867.277
6862.574
6857.838
6853.063
6848.212
6843.291
6838.288
6833.191
6827.974
6822.629
6817.131
6811.473
6805.684
6799.808
6793.877
6787.895
6781.867
6775.797
6769.686
6763.519
6757.278
6750.982
6744.685
6738.416
6732.176
6725.952
6719.741
6713.543
6707.358
6701.189
6695.036
6688.904
6682.801
6676.736
6670.718
6664.759
6658.866
6653.046
6647.305
6641.646
6636.065
6630.56
6625.131
6619.772
6614.483
6609.274
6604.162
6599.17
6594.293
6589.482
6584.686
6579.866
6574.996
6570.053
6565.02
6559.891
6554.668
6549.355
6543.962
6538.515
6533.057
6527.643
6522.318
6517.11
6512.022
6507.051
6502.164
6497.241
6492.211
6487.174
6482.092
6476.888
6471.701
6466.634
6461.739
6456.912
6451.927
6446.91
6442.019
6437.264
6432.632
6428.117
6423.618
6419.005
6414.242
6409.289
6404.115
6398.7
6393.03
6387.098
6380.905
6374.461
6367.784
6360.903
6353.859
6346.711
6339.527
6332.426
6325.457
6318.895
6312.425
6307.036
6299.421
3325.636
3296.894
3263.437
3217.403
3184.824
3117.236
3084.488
3051.655
3017.934
2983.358
2948.252
2912.751
2875.191
2836.615
2795.077
2686.039
2642.855
2599.647
2556.283
2513.011
2470.017
2428.054
2387.35
2348.142
2311.299
2278.612
2250.181
2226.119
2207.005
2192.182
2181.752
2178.152
2183.547
2199.624
2227.749
2269.126
2324.677
2395.212
2480.415
2580.476
2695.331
2824.478
2967.068
3122.016
3287.958
3463.127
3645.461
3832.882
4023.027
4213.462
4401.438
4583.337
4756.134
4923.533
5078.502
5218.628
5342.679
5447.724
5531.002
5590.917
5626.672
5638.057
5625.08
5588.216
5528.987
5449.694
5352.659
5240.031
5113.761
4975.779
4828.376
4673.649
4514.611
4354.068
4193.868
4036.249
3883.063
3734.862
3592.056
3455.06
3323.407
3196.216
3074.27
2959.108
2851.342
2751.284
2659.283
2575.268
2499.038
2429.928
2367.095
2309.838
2257.26
2208.596
2163.705
2122.87
2086.526
2055.109
2028.89
2007.776
1991.167
1978.286
1968.439
1960.809
1954.796
1950.297
1947.65
1947.346
1949.851
1955.613
1964.874
1977.042
1991.839
2007.07
2020.511
2034.042
2047.508
2060.986
2075.284
2091.435
2109.385
2128.745
2150.086
2171.936
2194.279
2218.411
2244.92
2274.579
2307.95
2344.696
2384.063
2425.489
2468.377
2511.868
2554.933
2596.582
2636.09
2673.12
2707.538
2738.922
2767.555
2795.06
2822.481
2849.576
2875.309
2898.215
2916.591
2928.918
2934.225
2931.748
2922.199
2905.871
2882.285
2852.025
2815.035
2774.146
2734.288
2701.083
2677.293
2665.032
2665.227
2678.622
2705.276
2744.293
2794.217
2852.988
2918.049
2988.792
3064.731
3144.834
3228.072
3313.421
3399.903
3487.008
3575.294
3665.942
3759.999
3858.032
3959.405
4061.789
4161.891
4256.474
4342.602
4417.205
4476.715
4516.951
4532.593
4519.302
4474.078
4395.386
4283.174
4142.401
3987.948
3839.865
3712.007
3608.974
3529.914
3474.937
3444.426
3437.409
3452.629
3487.558
3539.635
3608.427
3698.199
3808.423
3934.31
4073.553
4222.665
4375.141
4524.355
4664.478
4792.296
4906.431
5006.878
5094.79
5172.155
5240.827
5302.478
5358.744
5411.146
5460.926
5508.986
5555.938
5602.06
5647.468
5692.195
5736.215
5779.477
5821.919
5863.474
5904.067
5943.625
5982.077
6019.361
6055.426
6090.231
6123.755
6155.965
6186.915
6216.571
6244.925
6272.059
6298.015
6322.856
6346.636
6369.411
6391.236
6412.165
6432.25
6451.536
6470.063
6487.86
6504.946
6521.329
6537.009
6551.978
6566.219
6579.712
6592.434
6604.364
6615.479
6625.763
6635.204
6643.795
6651.54
6658.451
6664.548
6669.863
6674.437
6678.32
6681.572
6684.254
6686.432
6688.155
6689.496
6690.517
6691.292
6691.929
6692.547
6693.25
6694.138
6695.33
6696.957
6699.147
6702.02
6705.677
6710.215
6715.641
6721.947
6729.12
6737.062
6745.545
6754.304
6763.033
6771.412
6779.224
6786.153
6791.795
6795.71
6797.756
6797.36
6795.789
6794.438
6793.968
6794.139
6795.553
6798.186
6801.699
6805.954
6810.782
6816.016
6822.095
6828.455
6834.144
6838.557
6841.547
6841.893
6838.09
6829.585
6816.084
6797.483
6774.263
6747.393
6718.209
6688.533
6659.862
6633.257
6610.108
6591.821
6579.596
6574.373
6576.674
6586.628
6603.733
6626.919
6654.72
6685.391
6716.699
6746.843
6775.279
6800.612
6821.416
6836.737
6846.096
6849.468
6846.652
6837.595
6824.621
6811.653
6801.099
6792.556
6784.552
6776.417
6768.159
6759.901
6751.772
6743.947
6736.52
6729.472
6722.814
6716.554
6710.685
6705.157
6699.898
6694.877
6690.064
6685.409
6680.876
6676.43
6672.042
6667.687
6663.347
6659.006
6654.654
6650.281
6645.878
6641.442
6636.965
6632.443
6627.873
6623.251
6618.572
6613.833
6609.025
6604.14
6599.177
6594.116
6588.93
6583.632
6578.202
6572.641
6566.943
6561.121
6555.201
6549.208
6543.154
6537.045
6530.883
6524.666
6518.4
6512.095
6505.765
6499.429
6493.102
6486.788
6480.486
6474.196
6467.916
6461.646
6455.384
6449.131
6442.893
6436.678
6430.496
6424.36
6418.282
6412.272
6406.337
6400.483
6394.717
6389.037
6383.441
6377.928
6372.5
6367.153
6361.89
6356.725
6351.67
6346.718
6341.835
6336.977
6332.106
6327.184
6322.18
6317.068
6311.837
6306.498
6301.065
6295.556
6290.001
6284.438
6278.912
6273.465
6268.146
6262.979
6257.969
6253.092
6248.297
6243.553
6238.859
6234.145
6229.355
6224.64
6219.993
6215.311
6210.681
6206.139
6201.676
6197.168
6192.44
6187.65
6182.957
6178.355
6173.791
6169.121
6164.231
6159.117
6153.769
6148.175
6142.329
6136.233
6129.896
6123.337
6116.584
6109.675
6102.667
6095.617
6088.627
6081.724
6075.14
6068.525
6062.865
6054.877
3252.91
3213.116
3180.707
3136.569
3090.784
3048.7
3009.524
2973.443
2939.773
2905.975
2807.241
2774.993
2742.788
2709.878
2675.984
2641.064
2604.967
2567.34
2528.193
2488.089
2447.854
2405.496
2362.426
2318.877
2275.255
2231.696
2188.458
2145.916
2104.013
2063.011
2024.5
1990.484
1960.974
1936.131
1916.97
1904.721
1900.757
1906.336
1922.682
1950.837
1991.696
2046.104
2114.78
2198.056
2296.142
2408.986
2536.172
2676.915
2830.123
2994.258
3167.648
3348.028
3533.399
3720.622
3907.259
4091.267
4269.623
4440.184
4603.402
4755.534
4892.512
5011.991
5111.598
5189.01
5242.546
5271.389
5275.438
5255.248
5212.033
5147.631
5064.499
4964.923
4850.981
4724.575
4587.111
4440.958
4287.919
4130.414
3971.845
3814.336
3659.861
3510.593
3367.705
3231.408
3101.134
2975.394
2853.477
2736.757
2626.385
2522.894
2426.923
2339.268
2260.25
2189.353
2125.398
2067.282
2014.197
1965.277
1919.771
1877.369
1838.283
1803.208
1773.097
1748.695
1730.218
1716.688
1706.652
1699.359
1693.694
1688.835
1684.752
1682.146
1681.869
1684.748
1691.706
1703.414
1719.778
1736.639
1752.227
1766.042
1779.589
1792.591
1805.075
1818.379
1834.227
1851.39
1868.997
1890.3
1912.179
1932.194
1954.734
1980.768
2011.158
2046.44
2085.803
2128.242
2173.391
2220.643
2268.805
2316.283
2361.404
2403.041
2440.886
2475.117
2504.836
2530.24
2554.829
2580.525
2606.545
2631.22
2652.883
2669.523
2679.586
2683.5
2680.43
2671.304
2652.885
2622.454
2584.273
2536.007
2480.373
2426.722
2382.934
2352.018
2335.309
2333.638
2347.569
2376.853
2419.689
2473.564
2535.921
2601.882
2672.725
2748.716
2829.378
2914.298
3002.998
3095.014
3190.247
3289.224
3392.591
3500.662
3613.398
3729.972
3848.298
3965.331
4077.661
4181.803
4273.821
4349.046
4401.817
4425.077
4410.331
4351.587
4246.059
4090.977
3892.671
3677.444
3478.897
3316.299
3189.818
3094.64
3028.235
2988.131
2973.044
2981.032
3008.48
3057.61
3127.844
3219.698
3335.939
3477.242
3639.118
3813.101
3991.212
4166.412
4332.112
4483.486
4618.174
4736.384
4839.404
4928.984
5007.088
5075.816
5137.168
5192.922
5244.565
5293.27
5339.916
5385.112
5429.242
5472.525
5515.063
5556.883
5597.966
5638.264
5677.71
5716.229
5753.744
5790.183
5825.486
5859.601
5892.49
5924.132
5954.525
5983.656
6011.581
6038.298
6063.818
6088.221
6111.56
6133.897
6155.289
6175.789
6195.444
6214.298
6232.393
6249.758
6266.415
6282.372
6297.631
6312.184
6326.014
6339.101
6351.424
6362.959
6373.688
6383.594
6392.666
6400.899
6408.299
6414.88
6420.664
6425.683
6429.975
6433.589
6436.576
6438.994
6440.902
6442.357
6443.426
6444.166
6444.623
6444.877
6445.062
6445.291
6445.662
6446.299
6447.344
6448.939
6451.258
6454.394
6458.423
6463.447
6469.522
6476.696
6484.889
6493.804
6503.081
6512.256
6520.871
6528.836
6535.885
6541.646
6545.54
6547.78
6547.729
6545.224
6541.383
6537.696
6535.284
6534.702
6536.124
6539.518
6544.311
6549.949
6556.43
6564.527
6573.497
6582.074
6588.253
6591.969
6593.231
6590.814
6583.129
6569.604
6550.538
6526.524
6498.622
6468.366
6437.421
6407.209
6379.061
6354.402
6334.675
6321.133
6314.743
6316.039
6325.142
6341.649
6364.544
6392.195
6422.608
6453.611
6483.521
6511.672
6536.917
6558.115
6574.381
6585.076
6589.864
6588.034
6578.688
6563.451
6548.885
6539.521
6533.818
6528.273
6521.695
6514.435
6506.947
6499.481
6492.203
6485.214
6478.53
6472.213
6466.33
6460.845
6455.718
6450.912
6446.387
6442.077
6437.907
6433.831
6429.82
6425.838
6421.855
6417.85
6413.81
6409.723
6405.581
6401.377
6397.108
6392.77
6388.362
6383.88
6379.322
6374.685
6369.965
6365.158
6360.257
6355.256
6350.147
6344.915
6339.55
6334.055
6328.428
6322.673
6316.797
6310.816
6304.749
6298.61
6292.405
6286.141
6279.825
6273.467
6267.079
6260.672
6254.255
6247.843
6241.444
6235.059
6228.689
6222.329
6215.971
6209.615
6203.257
6196.901
6190.557
6184.243
6177.973
6171.764
6165.627
6159.572
6153.604
6147.728
6141.947
6136.26
6130.665
6125.166
6119.754
6114.435
6109.221
6104.118
6099.116
6094.192
6089.309
6084.42
6079.477
6074.438
6069.272
6063.957
6058.492
6052.898
6047.205
6041.457
6035.696
6029.976
6024.354
6018.869
6013.541
6008.396
6003.44
5998.648
5994.004
5989.46
5985.007
5980.664
5976.47
5972.322
5968.106
5963.919
5959.74
5955.497
5951.214
5946.844
5942.4
5937.806
5933.086
5928.408
5923.715
5918.856
5913.789
5908.506
5902.994
5897.244
5891.256
5885.038
5878.607
5871.989
5865.22
5858.35
5851.43
5844.549
5837.724
5831.163
5824.52
5818.772
5810.73
3000.63
2946.7
2834.267
2795.065
2756.481
2720.293
2686.3
2654.022
2622.847
2592.468
2562.832
2532.361
2501.206
2469.085
2435.954
2401.539
2365.705
2328.272
2289.059
2248.363
2207.265
2164.919
2121.561
2077.661
2033.496
1988.927
1943.586
1897.703
1852.212
1807.788
1765.597
1727.581
1694.842
1667.631
1646.897
1633.727
1629.219
1634.392
1650.227
1677.662
1717.65
1770.87
1838.004
1919.564
2015.826
2126.75
2251.951
2390.631
2541.827
2703.69
2874.583
3051.775
3232.363
3414.214
3595.551
3774.888
3949.922
4117.27
4275.044
4420.669
4550.707
4662.319
4753.289
4821.672
4865.925
4885.343
4880.013
4850.84
4799.695
4728.777
4640.925
4538.693
4423.679
4297.941
4162.651
4019.395
3870.227
3716.541
3560.536
3405.831
3255.594
3111.771
2975.543
2846.931
2724.532
2606.793
2492.856
2383.243
2278.788
2180.246
2088.771
2005.811
1932.269
1867.492
1809.644
1757.486
1710.107