/*--------------------------------*- C++ -*----------------------------------*\
| =========                 |                                                 |
| \\      /  F ield         | foam-extend: Open Source CFD                    |
|  \\    /   O peration     | Version:     3.1                                |
|   \\  /    A nd           | Web:         http://www.extend-project.de       |
|    \\/     M anipulation  |                                                 |
\*---------------------------------------------------------------------------*/
FoamFile
{
    version     2.0;
    format      ascii;
    class       volScalarField;
    location    "12";
    object      alpha;
}
// * * * * * * * * * * * * * * * * * * * * * * * * * * * * * * * * * * * * * //

dimensions      [0 0 -1 0 0 0 0];

internalField   nonuniform List<scalar> 
2539
(
0.00544076
0.00544979
0.00546384
0.00547771
0.00549166
0.00550565
0.0055197
0.0055338
0.00554796
0.00556217
0.00557643
0.00559075
0.00560513
0.00561956
0.00563405
0.0056486
0.0056632
0.00567786
0.00569258
0.00570735
0.00572219
0.00573708
0.00575203
0.00576704
0.0057821
0.00579723
0.00581242
0.00582767
0.00584298
0.00585835
0.00587378
0.00588927
0.00590483
0.00592045
0.00593613
0.00595187
0.00596768
0.00598355
0.00599949
0.00601549
0.00603155
0.00604768
0.00606388
0.00608014
0.00609647
0.00611287
0.00612933
0.00614586
0.00616246
0.00617913
0.00619586
0.00621267
0.00622954
0.00624649
0.00626351
0.00628059
0.00629775
0.00631498
0.00633228
0.00634965
0.0063671
0.00638462
0.00640222
0.00641989
0.00643763
0.00645545
0.00647334
0.00649131
0.00650936
0.00652748
0.00654569
0.00656397
0.00658232
0.00660076
0.00661928
0.00663787
0.00665655
0.00667531
0.00669415
0.00671307
0.00673207
0.00675116
0.00677033
0.00678959
0.00680892
0.00682835
0.00684786
0.00686745
0.00688713
0.0069069
0.00692676
0.00694671
0.00696674
0.00698686
0.00700708
0.00702738
0.00704778
0.00706826
0.00708884
0.00710952
0.00713028
0.00715114
0.0071721
0.00719315
0.0072143
0.00723554
0.00725688
0.00727832
0.00729986
0.00732149
0.00734323
0.00736507
0.00738701
0.00740905
0.00743119
0.00745344
0.00747579
0.00749824
0.0075208
0.00754347
0.00756624
0.00758912
0.00761211
0.00763521
0.00765842
0.00768174
0.00770517
0.00772871
0.00775237
0.00777614
0.00780002
0.00782402
0.00784814
0.00787237
0.00789672
0.00792119
0.00794578
0.00797049
0.00799532
0.00802027
0.00804534
0.00807054
0.00809586
0.00812131
0.00814689
0.00817259
0.00819842
0.00822438
0.00825048
0.0082767
0.00830305
0.00832954
0.00835616
0.00838292
0.00840981
0.00843684
0.00846401
0.00849132
0.00851877
0.00854636
0.00857409
0.00860197
0.00862999
0.00865815
0.00868647
0.00871493
0.00874354
0.0087723
0.00880121
0.00883028
0.0088595
0.00888887
0.0089184
0.00894809
0.00897794
0.00900795
0.00903811
0.00906845
0.00909894
0.0091296
0.00916043
0.00919143
0.00922259
0.00925392
0.00928958
0.0041485
0.00416275
0.00416752
0.0041718
0.00417607
0.00418033
0.00418461
0.00418889
0.00419318
0.00419747
0.00420177
0.00420608
0.00421039
0.00421472
0.00421904
0.00422338
0.00422772
0.00423207
0.00423643
0.00424079
0.00424516
0.00424954
0.00425393
0.00425832
0.00426272
0.00426712
0.00427153
0.00427596
0.00428038
0.00428482
0.00428926
0.00429371
0.00429816
0.00430263
0.0043071
0.00431158
0.00431606
0.00432055
0.00432505
0.00432956
0.00433408
0.0043386
0.00434313
0.00434767
0.00435221
0.00435676
0.00436132
0.00436589
0.00437046
0.00437505
0.00437963
0.00438423
0.00438884
0.00439345
0.00439807
0.0044027
0.00440733
0.00441198
0.00441663
0.00442129
0.00442595
0.00443063
0.00443531
0.00444
0.0044447
0.00444941
0.00445412
0.00445884
0.00446357
0.00446831
0.00447306
0.00447781
0.00448257
0.00448734
0.00449212
0.00449691
0.0045017
0.0045065
0.00451131
0.00451613
0.00452096
0.00452579
0.00453064
0.00453549
0.00454035
0.00454522
0.00455009
0.00455498
0.00455987
0.00456478
0.00456969
0.00457461
0.00457953
0.00458447
0.00458941
0.00459437
0.00459933
0.0046043
0.00460928
0.00461426
0.00461926
0.00462427
0.00462928
0.0046343
0.00463933
0.00464437
0.00464942
0.00465448
0.00465955
0.00466462
0.00466971
0.0046748
0.0046799
0.00468502
0.00469014
0.00469527
0.0047004
0.00470555
0.00471071
0.00471587
0.00472105
0.00472623
0.00473143
0.00473663
0.00474184
0.00474707
0.0047523
0.00475754
0.00476279
0.00476805
0.00477331
0.00477859
0.00478388
0.00478918
0.00479448
0.0047998
0.00480513
0.00481046
0.00481581
0.00482116
0.00482653
0.0048319
0.00483729
0.00484268
0.00484809
0.0048535
0.00485892
0.00486436
0.0048698
0.00487525
0.00488072
0.00488619
0.00489168
0.00489717
0.00490268
0.00490819
0.00491372
0.00491925
0.0049248
0.00493035
0.00493592
0.00494149
0.00494708
0.00495268
0.00495829
0.0049639
0.00496953
0.00497517
0.00498082
0.00498648
0.00499216
0.00499784
0.00500353
0.00500923
0.00501495
0.00502067
0.00502641
0.00503216
0.00503791
0.00504368
0.00504946
0.00505525
0.00506106
0.00506687
0.00507269
0.00507853
0.00508438
0.00509023
0.0050961
0.00510199
0.00510788
0.00511378
0.0051197
0.00512562
0.00513156
0.00513751
0.00514347
0.00514939
0.0051565
0.00513898
0.00268555
0.00300969
0.00343355
0.00371811
0.00391091
0.00405432
0.0041703
0.00427029
0.00436042
0.00444407
0.00452323
0.00459909
0.00467243
0.00474377
0.00481348
0.00488184
0.00494905
0.00501529
0.00508068
0.00514535
0.00520939
0.00527288
0.00533588
0.00539847
0.0054607
0.00552262
0.00558426
0.00564567
0.00570688
0.00576794
0.00582885
0.00588966
0.00595039
0.00601106
0.0060717
0.00613232
0.00619295
0.00625359
0.00631428
0.00637502
0.00643584
0.00649674
0.00655775
0.00661887
0.00668012
0.00674152
0.00680307
0.0068648
0.00692671
0.00698881
0.00705112
0.00711366
0.00717642
0.00723944
0.00730272
0.00736626
0.0074301
0.00749424
0.00755869
0.00762348
0.00768861
0.0077541
0.00781998
0.00788625
0.00795294
0.00802006
0.00808765
0.00815572
0.00822429
0.0082934
0.00836307
0.00843334
0.00850425
0.00857582
0.00864812
0.00872118
0.00879507
0.00886984
0.00894557
0.00902234
0.00910026
0.00917943
0.00926
0.00934213
0.00942601
0.00951189
0.00960007
0.00969094
0.00978498
0.00988281
0.00998521
0.0100932
0.0102081
0.0103315
0.0104655
0.0106127
0.0107758
0.0109581
0.0111624
0.0113906
0.0120189
0.0123095
0.0125852
0.0128482
0.0131002
0.0133426
0.0135765
0.013803
0.0140228
0.0142365
0.0144449
0.0146483
0.0148471
0.0150419
0.0152328
0.0154202
0.0156044
0.0157855
0.0159638
0.0161394
0.0163126
0.0164834
0.016652
0.0168186
0.0169832
0.0171459
0.0173069
0.0174663
0.017624
0.0177802
0.017935
0.0180884
0.0182405
0.0183913
0.0185409
0.0186893
0.0188366
0.0189829
0.0191281
0.0192723
0.0194156
0.0195579
0.0196993
0.0198399
0.0199797
0.0201186
0.0202568
0.0203942
0.0205308
0.0206668
0.020802
0.0209366
0.0210706
0.0212039
0.0213366
0.0214687
0.0216002
0.0217311
0.0218615
0.0219914
0.0221207
0.0222495
0.0223778
0.0225057
0.022633
0.0227599
0.0228863
0.0230123
0.0231379
0.023263
0.0233877
0.023512
0.0236359
0.0237594
0.0238826
0.0240053
0.0241277
0.0242497
0.0243714
0.0244927
0.0246137
0.0247343
0.0248547
0.0249747
0.0250944
0.0252137
0.0253328
0.0254516
0.0255701
0.0256882
0.0258061
0.0259237
0.026041
0.026158
0.026275
0.0263924
0.0265104
0.0266277
0.0267399
0.0268393
0.0269222
0.0269972
0.027072
0.0271468
0.0272214
0.0272959
0.0273702
0.0274445
0.0275187
0.0275927
0.0276667
0.0277405
0.0278142
0.0278878
0.0279614
0.0280348
0.0281081
0.0281813
0.0282544
0.0283274
0.0284003
0.0284731
0.0285458
0.0286184
0.0286909
0.0287633
0.0288356
0.0289079
0.02898
0.029052
0.029124
0.0291958
0.0292676
0.0293392
0.0294108
0.0294823
0.0295537
0.029625
0.0296962
0.0297673
0.0298384
0.0299093
0.0299802
0.030051
0.0301217
0.0301923
0.0302628
0.0303333
0.0304037
0.0304739
0.0305441
0.0306143
0.0306843
0.0307543
0.0308242
0.030894
0.0309637
0.0310333
0.0311029
0.0311724
0.0312418
0.0313111
0.0313804
0.0314496
0.0315187
0.0315877
0.0316567
0.0317256
0.0317944
0.0318631
0.0319318
0.0320004
0.0320689
0.0321374
0.0322058
0.0322741
0.0323423
0.0324105
0.0324786
0.0325466
0.0326146
0.0326825
0.0327503
0.032818
0.0328857
0.0329533
0.0330209
0.0330884
0.0331558
0.0332231
0.0332904
0.0333577
0.0334248
0.0334919
0.0335589
0.0336259
0.0336928
0.0337596
0.0338264
0.0338931
0.0339597
0.0340263
0.0340928
0.0341593
0.0342257
0.034292
0.0343583
0.0344245
0.0344906
0.0345567
0.0346227
0.0346887
0.0347546
0.0348205
0.0348862
0.034952
0.0350176
0.0350832
0.0351488
0.0352143
0.0352797
0.0353451
0.0354104
0.0354757
0.0355409
0.035606
0.0356711
0.0357361
0.0358011
0.035866
0.0359309
0.0359957
0.0360604
0.0361251
0.0361898
0.0362544
0.0363189
0.0363834
0.0364478
0.0365121
0.0365764
0.0366407
0.0367049
0.0367691
0.0368331
0.0368972
0.0369612
0.0370251
0.037089
0.0371528
0.0372166
0.0372803
0.037344
0.0374076
0.0374712
0.0375347
0.0375982
0.0376616
0.0377249
0.0377882
0.0378515
0.0379147
0.0379779
0.038041
0.038104
0.038167
0.03823
0.0382929
0.0383557
0.0384186
0.0384813
0.038544
0.0386067
0.0386693
0.0387318
0.0387943
0.0388568
0.0389192
0.0389816
0.0390439
0.0391062
0.0391684
0.0392305
0.0392927
0.0393547
0.0394168
0.0394787
0.0395407
0.0396026
0.0396644
0.0397262
0.0397879
0.0398496
0.0399113
0.0399729
0.0400344
0.0400959
0.0401574
0.0402188
0.0402802
0.0403415
0.0404028
0.040464
0.0405252
0.0405863
0.0406474
0.0407085
0.0407695
0.0408304
0.0408914
0.0409522
0.0410131
0.0410738
0.0411346
0.0411953
0.0412559
0.0413165
0.041377
0.0414376
0.041498
0.0415584
0.0416188
0.0416792
0.0417394
0.0417997
0.0418599
0.0419201
0.0419802
0.0420402
0.0421003
0.0421603
0.0422202
0.0422801
0.04234
0.0423998
0.0424595
0.0425193
0.042579
0.0426386
0.0426982
0.0427577
0.0428173
0.0428767
0.0429362
0.0429956
0.0430549
0.0431142
0.0431735
0.0432327
0.0432919
0.043351
0.0434101
0.0434691
0.0435282
0.0435871
0.0436461
0.0437049
0.0437638
0.0438226
0.0438814
0.0439401
0.0439988
0.0440574
0.044116
0.0441746
0.0442331
0.0442916
0.04435
0.0444084
0.0444667
0.0445251
0.0445833
0.0446416
0.0446998
0.0447579
0.044816
0.0448741
0.0449321
0.0449901
0.0450481
0.045106
0.0451639
0.0452217
0.0452795
0.0453373
0.045395
0.0454527
0.0455103
0.0455679
0.0456255
0.045683
0.0457405
0.0457979
0.0458553
0.0459127
0.04597
0.0460273
0.0460845
0.0461417
0.0461989
0.046256
0.0463131
0.0463702
0.0464272
0.0464842
0.0465411
0.046598
0.0466549
0.0467117
0.0467685
0.0468252
0.0468819
0.0469386
0.0469952
0.0470518
0.0471084
0.0471649
0.0472214
0.0472778
0.0473342
0.0473906
0.0474469
0.0475032
0.0475595
0.0476157
0.0476719
0.047728
0.0477841
0.0478402
0.0478962
0.0479522
0.0480082
0.0480641
0.04812
0.0481758
0.0482316
0.0482874
0.0483431
0.0483988
0.0484545
0.0485101
0.0485657
0.0486212
0.0486768
0.0487324
0.0487879
0.0488429
0.0488967
0.0489504
0.0490087
0.049077
0.049151
0.0492249
0.0492988
0.0493727
0.0494465
0.0495202
0.0495939
0.0496676
0.0497412
0.0498148
0.0498883
0.0499617
0.0500351
0.0501085
0.0501818
0.0502551
0.0503283
0.0504014
0.0504746
0.0505476
0.0506207
0.0506936
0.0507666
0.0508394
0.0509123
0.050985
0.0510578
0.0511305
0.0512031
0.0512757
0.0513482
0.0514207
0.0514932
0.0515656
0.0516379
0.0517102
0.0517825
0.0518547
0.0519269
0.051999
0.052071
0.0521431
0.052215
0.052287
0.0523588
0.0524307
0.0525025
0.0525742
0.0526459
0.0527175
0.0527891
0.0528607
0.0529322
0.0530037
0.0530751
0.0531464
0.0532178
0.053289
0.0533603
0.0534314
0.0535026
0.0535737
0.0536447
0.0537157
0.0537867
0.0538576
0.0539284
0.0539993
0.05407
0.0541407
0.0542114
0.0542821
0.0543526
0.0544232
0.0544937
0.0545641
0.0546345
0.0547049
0.0547752
0.0548455
0.0549157
0.0549859
0.055056
0.0551261
0.0551961
0.0552661
0.0553361
0.055406
0.0554759
0.0555457
0.0556154
0.0556852
0.0557548
0.0558245
0.0558941
0.0559636
0.0560331
0.0561026
0.056172
0.0562414
0.0563107
0.05638
0.0564492
0.0565184
0.0565876
0.0566567
0.0567257
0.0567947
0.0568637
0.0569326
0.0570015
0.0570703
0.0571391
0.0572079
0.0572766
0.0573452
0.0574139
0.0574824
0.057551
0.0576194
0.0576879
0.0577563
0.0578246
0.0578929
0.0579612
0.0580294
0.0580976
0.0581657
0.0582338
0.0583019
0.0583699
0.0584378
0.0585057
0.0585736
0.0586414
0.0587092
0.058777
0.0588447
0.0589123
0.0589799
0.0590475
0.059115
0.0591825
0.0592499
0.0593173
0.0593847
0.059452
0.0595193
0.0595865
0.0596537
0.0597208
0.0597879
0.0598549
0.0599219
0.0599889
0.0600558
0.0601227
0.0601895
0.0602563
0.0603231
0.0603898
0.0604564
0.060523
0.0605896
0.0606561
0.0607226
0.0607891
0.0608555
0.0609219
0.0609883
0.0610546
0.0611205
0.0611857
0.0612509
0.0613198
0.061397
0.0614762
0.0615188
0.0906339
0.0905309
0.090497
0.0905272
0.0905503
0.0905717
0.0905908
0.0906024
0.0906031
0.0905963
0.0905878
0.0905773
0.0905604
0.0905343
0.0905015
0.0904645
0.0904212
0.0903723
0.0903166
0.090254
0.0901871
0.0901147
0.0900382
0.0899567
0.0898677
0.0897719
0.0896706
0.0895648
0.0894539
0.0893338
0.0891995
0.0890537
0.0889057
0.0887702
0.0886572
0.0885603
0.0884493
0.0882688
0.0879676
0.0875576
0.0871572
0.0869844
0.0872664
0.0880344
0.0888714
0.0888374
0.0868885
0.0828675
0.0783659
0.0765478
0.081355
0.0967996
0.122641
0.139149
0.1109
0.0551916
0.0215125
0.0102068
0.00691094
0.00592109
0.00563295
0.00557381
0.00559324
0.00564135
0.00570106
0.00576631
0.00583534
0.00590744
0.00598301
0.00606236
0.0061457
0.00623302
0.00632422
0.00641994
0.00652034
0.00662552
0.00673621
0.00685277
0.00697544
0.00710526
0.00724314
0.00738985
0.00754586
0.00771136
0.00788752
0.00807629
0.00827934
0.00849852
0.00873705
0.00899861
0.00928764
0.00961042
0.00997761
0.010406
0.0109251
0.0115905
0.0125078
0.0138785
0.0160713
0.0196917
0.0254036
0.0220692
0.0277216
0.0278097
0.0278975
0.0279852
0.0280726
0.0281598
0.0282469
0.0283337
0.0284204
0.0285069
0.0285932
0.0286794
0.0287653
0.0288511
0.0289368
0.0290222
0.0291075
0.0291927
0.0292777
0.0293625
0.0294472
0.0295318
0.0296162
0.0297004
0.0297845
0.0298685
0.0299523
0.030036
0.0301196
0.030203
0.0302862
0.0303694
0.0304524
0.0305353
0.030618
0.0307006
0.0307831
0.0308654
0.0309476
0.0310297
0.0311117
0.0311936
0.0312753
0.0313569
0.0314384
0.0315197
0.031601
0.0316821
0.0317631
0.031844
0.0319248
0.0320055
0.032086
0.0321665
0.0322468
0.0323271
0.0324072
0.0324873
0.0325672
0.032647
0.0327268
0.0328064
0.0328859
0.0329654
0.0330447
0.033124
0.0332031
0.0332822
0.0333612
0.03344
0.0335188
0.0335975
0.0336761
0.0337546
0.033833
0.0339113
0.0339896
0.0340677
0.0341458
0.0342237
0.0343015
0.034379
0.0344564
0.0345347
0.0346149
0.0346966
0.034774
0.0348332
0.034865
0.0348823
0.0348996
0.0349168
0.034934
0.0349512
0.0349682
0.0349852
0.0350022
0.0350191
0.0350359
0.0350527
0.0350694
0.0350861
0.0351027
0.0351193
0.0351358
0.0351523
0.0351687
0.035185
0.0352013
0.0352176
0.0352337
0.0352499
0.035266
0.035282
0.035298
0.0353139
0.0353298
0.0353456
0.0353613
0.0353771
0.0353927
0.0354084
0.0354239
0.0354395
0.0354549
0.0354704
0.0354857
0.0355011
0.0355164
0.0355316
0.0355468
0.0355619
0.035577
0.0355921
0.0356071
0.0356221
0.035637
0.0356519
0.0356667
0.0356816
0.0356963
0.035711
0.0357257
0.0357404
0.035755
0.0357695
0.035784
0.0357985
0.035813
0.0358274
0.0358418
0.0358561
0.0358704
0.0358847
0.0358989
0.0359131
0.0359272
0.0359413
0.0359554
0.0359694
0.0359834
0.0359974
0.0360113
0.0360251
0.036039
0.0360527
0.0360664
0.0360801
0.0360937
0.0361073
0.0361208
0.0361342
0.0361476
0.0361609
0.0361741
0.0361873
0.0362004
0.0362135
0.0362264
0.0362393
0.0362521
0.0362649
0.0362776
0.0362902
0.0363027
0.0363153
0.0363277
0.0363402
0.0363526
0.036365
0.0363773
0.0363897
0.0364021
0.0364146
0.0364271
0.0364396
0.0364522
0.0364649
0.0364776
0.0364904
0.0365033
0.0365163
0.0365293
0.0365425
0.0365556
0.0365688
0.0365821
0.0365953
0.0366085
0.0366216
0.0366347
0.0366476
0.0366604
0.036673
0.0366854
0.0366975
0.0367094
0.036721
0.0367323
0.0367432
0.0367538
0.036764
0.0367739
0.0367834
0.0367925
0.0368013
0.0368098
0.036818
0.0368258
0.0368335
0.0368409
0.0368481
0.0368552
0.0368622
0.0368692
0.0368761
0.0368831
0.0368902
0.0368974
0.0369048
0.0369123
0.0369198
0.0369271
0.0369347
0.0369447
0.0369603
0.0369805
0.0369885
0.036945
0.0368236
0.0367301
0.0370592
0.0383954
0.0404567
0.0396136
0.0300908
0.015653
0.00670936
0.0037224
0.00302613
0.00289534
0.00287187
0.00286664
0.00286443
0.00286273
0.00286112
0.00285953
0.00285796
0.0028564
0.00285485
0.00285331
0.00285178
0.00285027
0.00284876
0.00284727
0.00284579
0.00284432
0.00284285
0.0028414
0.00283996
0.00283853
0.00283711
0.0028357
0.0028343
0.00283291
0.00283153
0.00283015
0.00282879
0.00282744
0.00282609
0.00282476
0.00282343
0.00282211
0.0028208
0.0028195
0.00281821
0.00281693
0.00281565
0.00281438
0.00281312
0.00281187
0.00281063
0.00280939
0.00280816
0.00280693
0.00280572
0.00280451
0.00280331
0.00280211
0.00280092
0.00279974
0.00279856
0.0027974
0.00279623
0.00279507
0.00279392
0.00279278
0.00279164
0.0027905
0.00278938
0.00278825
0.00278714
0.00278602
0.00278492
0.00278382
0.00278272
0.00278163
0.00278054
0.00277946
0.00277838
0.00277731
0.00277625
0.00277518
0.00277412
0.00277307
0.00277202
0.00277098
0.00276994
0.0027689
0.00276786
0.00276684
0.00276581
0.00276479
0.00276377
0.00276275
0.00276174
0.00276073
0.00275973
0.00275873
0.00275773
0.00275673
0.00275574
0.00275475
0.00275376
0.00275277
0.00275179
0.00275081
0.00274983
0.00274886
0.00274788
0.00274691
0.00274594
0.00274497
0.00274401
0.00274304
0.00274208
0.00274112
0.00274016
0.0027392
0.00273824
0.00273729
0.00273634
0.00273538
0.00273443
0.00273348
0.00273253
0.00273159
0.00273064
0.0027297
0.00272875
0.00272781
0.00272687
0.00272592
0.00272498
0.00272404
0.0027231
0.00272216
0.00272122
0.00272034
0.00272005
0.00272119
0.00272335
0.00272566
0.00272799
0.00273033
0.00273267
0.00273503
0.00273738
0.00273974
0.0027421
0.00274447
0.00274685
0.00274923
0.00275161
0.00275399
0.00275639
0.00275878
0.00276118
0.00276359
0.002766
0.00276841
0.00277083
0.00277325
0.00277568
0.00277811
0.00278054
0.00278298
0.00278542
0.00278787
0.00279032
0.00279278
0.00279524
0.0027977
0.00280017
0.00280264
0.00280512
0.00280759
0.00281008
0.00281257
0.00281506
0.00281755
0.00282005
0.00282255
0.00282506
0.00282757
0.00283008
0.00283259
0.00283511
0.00283764
0.00284016
0.00284269
0.00284522
0.00284776
0.0028503
0.00285284
0.00285538
0.00285793
0.00286048
0.00286304
0.00286559
0.00286815
0.00287071
0.00287328
0.00287584
0.00287841
0.00288098
0.00288356
0.00288613
0.00288871
0.00289129
0.00289388
0.00289646
0.00289905
0.00290164
0.00290423
0.00290683
0.00290943
0.00291202
0.00291463
0.00291723
0.00291983
0.00292244
0.00292505
0.00292766
0.00293028
0.00293289
0.00293551
0.00293813
0.00294076
0.00294338
0.00294601
0.00294864
0.00295127
0.00295391
0.00295655
0.00295919
0.00296184
0.00296448
0.00296713
0.00296979
0.00297244
0.0029751
0.00297776
0.00298043
0.0029831
0.00298577
0.00298845
0.00299113
0.00299382
0.00299651
0.0029992
0.0030019
0.0030046
0.0030073
0.00301001
0.00301272
0.00301544
0.00301816
0.00302089
0.00302362
0.00302635
0.00302909
0.00303184
0.00303458
0.00303734
0.00304009
0.00304285
0.00304561
0.00304838
0.00305115
0.00305393
0.00305671
0.00305949
0.00306227
0.00306506
0.00306785
0.00307065
0.00307344
0.00307624
0.00307904
0.00308184
0.00308464
0.00308745
0.00309025
0.00309306
0.00309586
0.00309867
0.00310147
0.00310428
0.00310708
0.00310988
0.00311268
0.00311548
0.00311828
0.00312107
0.00312386
0.00312665
0.00312943
0.00313221
0.00313499
0.00313776
0.00314052
0.00314329
0.00314604
0.00314879
0.00315153
0.00315427
0.003157
0.00315972
0.00316244
0.00316515
0.00316785
0.00317054
0.00317322
0.0031759
0.00317857
0.00318123
0.00318388
0.00318652
0.00318915
0.00319178
0.00319439
0.003197
0.00319959
0.00320218
0.00320475
0.00320732
0.00320988
0.00321243
0.00321497
0.00321749
0.00322001
0.00322252
0.00322502
0.00322752
0.00323
0.00323247
0.00323493
0.00323738
0.00323983
0.00324226
0.00324469
0.0032471
0.00324951
0.00325191
0.0032543
0.00325668
0.00325905
0.00326141
0.00326376
0.0032661
0.00326844
0.00327076
0.00327308
0.00327539
0.00327768
0.00327997
0.00328225
0.00328452
0.00328678
0.00328903
0.00329127
0.0032935
0.00329572
0.00329793
0.00330013
0.00330232
0.00330449
0.00330666
0.00330882
0.00331096
0.00331309
0.00331521
0.00331732
0.00331942
0.0033215
0.00332357
0.00332562
0.00332766
0.00332969
0.00333171
0.0033337
0.00333569
0.00333766
0.00333961
0.00334155
0.00334347
0.00334537
0.00334726
0.00334912
0.00335097
0.00335281
0.00335462
0.00335642
0.00335819
0.00335995
0.00336169
0.0033634
0.0033651
0.00336677
0.00336843
0.00337006
0.00337167
0.00337326
0.00337483
0.00337637
0.00337789
0.00337939
0.00338087
0.00338232
0.00338375
0.00338516
0.00338654
0.0033879
0.00338924
0.00339055
0.00339183
0.0033931
0.00339434
0.00339555
0.00339674
0.00339791
0.00339905
0.00340017
0.00340127
0.00340235
0.0034034
0.00340442
0.00340543
0.00340641
0.00340737
0.00340831
0.00340923
0.00341013
0.003411
0.00341186
0.0034127
0.00341351
0.00341431
0.00341509
0.00341586
0.0034166
0.00341733
0.00341805
0.00341874
0.00341943
0.0034201
0.00342076
0.0034214
0.00342204
0.00342266
0.00342327
0.00342387
0.00342446
0.00342505
0.00342563
0.0034262
0.00342676
0.00342732
0.00342788
0.00342843
0.00342898
0.00342952
0.00343007
0.00343061
0.00343116
0.0034317
0.00343224
0.00343279
0.00343334
0.00343389
0.00343444
0.003435
0.00343556
0.00343612
0.00343669
0.00343727
0.00343785
0.00343844
0.00343903
0.00343963
0.00344023
0.00344085
0.00344146
0.00344209
0.00344272
0.00344336
0.00344401
0.00344466
0.00344532
0.00344599
0.00344666
0.00344734
0.00344802
0.00344871
0.0034494
0.0034501
0.0034508
0.00345151
0.00345222
0.00345293
0.00345364
0.00345435
0.00345507
0.00345578
0.00345649
0.0034572
0.0034579
0.0034586
0.0034593
0.00345999
0.00346067
0.00346135
0.00346201
0.00346266
0.00346331
0.00346393
0.00346455
0.00346515
0.00346573
0.00346629
0.00346683
0.00346735
0.00346785
0.00346832
0.00346876
0.00346918
0.00346956
0.00346992
0.00347024
0.00347052
0.00347077
0.00347098
0.00347115
0.00347127
0.00347135
0.00347138
0.00347136
0.00347129
0.00347117
0.00347099
0.00347076
0.00347046
0.0034701
0.00346968
0.00346919
0.00346863
0.003468
0.0034673
0.00346652
0.00346567
0.00346473
0.00346371
0.00346261
0.00346142
0.00346015
0.00345878
0.00345733
0.00345578
0.00345413
0.00345239
0.00345055
0.00344861
0.00344656
0.00344442
0.00344217
0.00343982
0.00343737
0.00343481
0.00343214
0.00342937
0.00342649
0.00342351
0.00342042
0.00341723
0.00341394
0.00341054
0.00340704
0.00340345
0.00339975
0.00339596
0.00339208
0.00338811
0.00338405
0.00337991
0.00337568
0.00337138
0.003367
0.00336255
0.00335804
0.00335346
0.00334882
0.00334413
0.00333939
0.0033346
0.00332977
0.0033249
0.00332001
0.00331508
0.00331013
0.00330516
0.00330018
0.00329519
0.00329019
0.0032852
0.0032802
0.00327521
0.00327023
0.00326527
0.00326032
0.0032554
0.00325049
0.00324562
0.00324077
0.00323595
0.00323117
0.00322643
0.00322172
0.00321706
0.00321243
0.00320785
0.00320331
0.00319882
0.00319437
0.00318998
0.00318562
0.00318132
0.00317706
0.00317285
0.0031687
0.00316458
0.00316052
0.00315651
0.00315254
0.00314862
0.00314474
0.00314092
0.00313714
0.0031334
0.00312971
0.00312606
0.00312245
0.00311889
0.00311537
0.00311189
0.00310845
0.00310504
0.00310168
0.00309836
0.00309507
0.00309181
0.00308859
0.00308541
0.00308226
0.00307914
0.00307605
0.003073
0.00306998
0.00306698
0.00306402
0.00306108
0.00305817
0.00305529
0.00305244
0.00304961
0.0030468
0.00304403
0.00304127
0.00303854
0.00303583
0.00303315
0.00303049
0.00302785
0.00302523
0.00302263
0.00302006
0.0030175
0.00301496
0.00301245
0.00300995
0.00300747
0.00300501
0.00300257
0.00300015
0.00299774
0.00299535
0.00299298
0.00299062
0.00298829
0.00298596
0.00298366
0.00298137
0.0029791
0.00297684
0.00297459
0.00297237
0.00297015
0.00296795
0.00296577
0.0029636
0.00296145
0.00295931
0.00295718
0.00295507
0.00295297
0.00295088
0.00294881
0.00294675
0.0029447
0.00294266
0.00294064
0.00293863
0.00293664
0.00293465
0.00293268
0.00293072
0.00292876
0.00292683
0.0029249
0.00292298
0.00292108
0.00291918
0.0029173
0.00291542
0.00291356
0.0029117
0.00290986
0.00290802
0.0029062
0.00290438
0.00290258
0.00290078
0.00289899
0.00289721
0.00289543
0.00289367
0.00289191
0.00289016
0.00288842
0.00288668
0.00288495
0.00288323
0.00288151
0.0028798
0.0028781
0.00287641
0.00287471
0.00287303
0.00287135
0.00286967
0.002868
0.00286634
0.00286468
0.00286302
0.00286137
0.00285973
0.00285808
0.00285644
0.00285481
0.00285318
0.00285155
0.00284992
0.0028483
0.00284668
0.00284507
0.00284346
0.00284185
0.00284024
0.00283864
0.00283703
0.00283543
0.00283384
0.00283224
0.00283065
0.00282906
0.00282747
0.00282589
0.0028243
0.00282272
0.00282114
0.00281957
0.00281799
0.00281642
0.00281485
0.00281328
0.00281171
0.00281015
0.00280859
0.00280703
0.00280547
0.00280391
0.00280236
0.00280081
0.00279926
0.00279772
0.00279617
0.00279463
0.00279309
0.00279155
0.00279002
0.00278849
0.00278696
0.00278544
0.00278391
0.00278239
0.00278087
0.00277936
0.00277785
0.00277634
0.00277484
0.00277333
0.00277183
0.00277034
0.00276885
0.00276736
0.00276587
0.00276439
0.00276291
0.00276144
0.00275996
0.0027585
0.00275703
0.00275557
0.00275411
0.00275266
0.00275121
0.00274976
0.00274832
0.00274688
0.00274545
0.00274402
0.00274259
0.00274117
0.00273975
0.00273833
0.00273692
0.00273552
0.00273411
0.00273271
0.00273132
0.00272992
0.00272854
0.00272715
0.00272577
0.0027244
0.00272302
0.00272166
0.00272029
0.00271893
0.00271758
0.00271622
0.00271487
0.00271353
0.00271219
0.00271085
0.00270952
0.00270819
0.00270686
0.00270554
0.00270422
0.0027029
0.00270159
0.00270028
0.00269898
0.00269768
0.00269638
0.00269509
0.0026938
0.00269251
0.00269122
0.00268994
0.00268866
0.00268739
0.00268612
0.00268485
0.00268358
0.00268231
0.00268105
0.00267979
0.00267853
0.00267728
0.00267603
0.00267477
0.00267352
0.00267227
0.00267102
0.00266978
0.00266853
0.00266728
0.00266604
0.00266479
0.00266354
0.00266229
0.00266104
0.00265979
0.00265853
0.00265727
0.00265601
0.00265475
0.00265348
0.00265221
0.00265093
0.00264964
0.00264835
0.00264705
0.00264575
0.00264443
0.00264311
0.00264178
0.00264043
0.00263908
0.00263771
0.00263634
0.00263494
0.00263354
0.00263212
0.00263069
0.00262924
0.00262777
0.00262629
0.00262479
0.00262327
0.00262174
0.00262018
0.00261861
0.00261702
0.00261541
0.00261379
0.00261214
0.00261048
0.00260879
0.00260709
0.00260538
0.00260364
0.00260189
0.00260013
0.00259834
0.00259655
0.00259474
0.00259292
0.00259109
0.00258925
0.00258741
0.00258555
0.0025837
0.00258184
0.00257997
0.00257811
0.00257625
0.0025744
0.00257255
0.00257071
0.00256887
0.00256705
0.00256524
0.00256345
0.00256167
0.00255991
0.00255817
0.00255645
0.00255475
0.00255308
0.00255143
0.00254981
0.00254821
0.00254665
0.00254511
0.0025436
0.00254213
0.00254068
0.00253927
0.00253789
0.00253654
0.00253522
0.00253393
0.00253268
0.00253146
0.00253027
0.00252911
0.00252798
0.00252688
0.00252581
0.00252477
0.00252375
0.00252277
0.00252181
0.00252087
0.00251996
0.00251907
0.00251821
0.00251737
0.00251654
0.00251574
0.00251496
0.00251419
0.00251344
0.00251271
0.00251199
0.00251129
0.0025106
0.00250992
0.00250926
0.0025086
0.00250796
0.00250733
0.0025067
0.00250609
0.00250548
0.00250488
0.00250429
0.0025037
0.00250313
0.00250255
0.00250199
0.00250142
0.00250087
0.00250032
0.00249977
0.00249923
0.00249869
0.00249816
0.00249763
0.0024971
0.00249658
0.00249606
0.00249554
0.00249503
0.00249452
0.00249402
0.00249351
0.00249302
0.00249252
0.00249203
0.00249154
0.00249105
0.00249057
0.00249009
0.00248961
0.00248913
0.00248866
0.00248819
0.00248773
0.00248726
0.0024868
0.00248634
0.00248589
0.00248544
0.00248499
0.00248454
0.0024841
0.00248366
0.00248322
0.00248279
0.00248235
0.00248192
0.0024815
0.00248107
0.00248065
0.00248023
0.00247981
0.0024794
0.00247899
0.00247858
0.00247817
0.00247776
0.00247736
0.00247696
0.00247656
0.00247616
0.00247577
0.00247538
0.00247499
0.00247457
)
;

boundaryField
{
    inlet
    {
        type            calculated;
        value           uniform 0.00544215;
    }
    outlet
    {
        type            calculated;
        value           uniform 0.00247457;
    }
    right
    {
        type            empty;
    }
    left
    {
        type            empty;
    }
    atmosphere
    {
        type            empty;
    }
    bottomWall
    {
        type            empty;
    }
}


// ************************************************************************* //
