/*--------------------------------*- C++ -*----------------------------------*\
| =========                 |                                                 |
| \\      /  F ield         | foam-extend: Open Source CFD                    |
|  \\    /   O peration     | Version:     3.1                                |
|   \\  /    A nd           | Web:         http://www.extend-project.de       |
|    \\/     M anipulation  |                                                 |
\*---------------------------------------------------------------------------*/
FoamFile
{
    version     2.0;
    format      ascii;
    class       volScalarField;
    location    "12";
    object      H;
}
// * * * * * * * * * * * * * * * * * * * * * * * * * * * * * * * * * * * * * //

dimensions      [0 1 0 0 0 0 0];

internalField   nonuniform List<scalar> 
2539
(
0.86042
0.859714
0.85878
0.857856
0.85693
0.856005
0.85508
0.854154
0.853228
0.852302
0.851376
0.850449
0.849522
0.848595
0.847668
0.846741
0.845813
0.844885
0.843957
0.843028
0.8421
0.841171
0.840242
0.839313
0.838383
0.837453
0.836523
0.835593
0.834663
0.833732
0.832801
0.83187
0.830938
0.830006
0.829074
0.828142
0.82721
0.826277
0.825344
0.824411
0.823477
0.822543
0.821609
0.820675
0.81974
0.818806
0.81787
0.816935
0.816
0.815064
0.814127
0.813191
0.812254
0.811317
0.81038
0.809442
0.808505
0.807566
0.806628
0.805689
0.80475
0.803811
0.802872
0.801932
0.800992
0.800051
0.79911
0.798169
0.797228
0.796286
0.795344
0.794402
0.793459
0.792517
0.791573
0.79063
0.789686
0.788742
0.787797
0.786853
0.785908
0.784962
0.784016
0.78307
0.782124
0.781177
0.78023
0.779283
0.778335
0.777387
0.776438
0.775489
0.77454
0.773591
0.772641
0.771691
0.77074
0.769789
0.768838
0.767886
0.766934
0.765982
0.765029
0.764076
0.763123
0.762169
0.761214
0.76026
0.759305
0.758349
0.757394
0.756437
0.755481
0.754524
0.753566
0.752609
0.751651
0.750692
0.749733
0.748774
0.747814
0.746853
0.745893
0.744932
0.74397
0.743008
0.742046
0.741083
0.74012
0.739156
0.738192
0.737227
0.736262
0.735297
0.734331
0.733365
0.732398
0.731431
0.730463
0.729494
0.728526
0.727557
0.726587
0.725617
0.724646
0.723675
0.722703
0.721731
0.720759
0.719785
0.718812
0.717838
0.716863
0.715888
0.714912
0.713936
0.712959
0.711982
0.711004
0.710025
0.709046
0.708067
0.707087
0.706106
0.705125
0.704143
0.703161
0.702178
0.701195
0.700211
0.699226
0.698241
0.697255
0.696269
0.695282
0.694294
0.693306
0.692317
0.691328
0.690337
0.689347
0.688355
0.687363
0.686371
0.685148
0.683791
0.68299
0.682671
0.682377
0.682085
0.681792
0.6815
0.681208
0.680915
0.680623
0.68033
0.680037
0.679745
0.679452
0.679159
0.678866
0.678573
0.67828
0.677987
0.677694
0.677401
0.677108
0.676815
0.676521
0.676228
0.675935
0.675641
0.675348
0.675054
0.674761
0.674467
0.674173
0.67388
0.673586
0.673292
0.672998
0.672704
0.67241
0.672116
0.671822
0.671527
0.671233
0.670939
0.670645
0.67035
0.670056
0.669761
0.669467
0.669172
0.668877
0.668582
0.668288
0.667993
0.667698
0.667403
0.667108
0.666813
0.666517
0.666222
0.665927
0.665632
0.665336
0.665041
0.664745
0.66445
0.664154
0.663858
0.663562
0.663267
0.662971
0.662675
0.662379
0.662083
0.661786
0.66149
0.661194
0.660898
0.660601
0.660305
0.660008
0.659712
0.659415
0.659118
0.658822
0.658525
0.658228
0.657931
0.657634
0.657337
0.657039
0.656742
0.656445
0.656148
0.65585
0.655553
0.655255
0.654957
0.65466
0.654362
0.654064
0.653766
0.653468
0.65317
0.652872
0.652574
0.652276
0.651977
0.651679
0.65138
0.651082
0.650783
0.650485
0.650186
0.649887
0.649588
0.649289
0.64899
0.648691
0.648392
0.648093
0.647793
0.647494
0.647194
0.646895
0.646595
0.646296
0.645996
0.645696
0.645396
0.645096
0.644796
0.644496
0.644196
0.643895
0.643595
0.643295
0.642994
0.642693
0.642393
0.642092
0.641791
0.64149
0.641189
0.640888
0.640587
0.640286
0.639984
0.639683
0.639382
0.63908
0.638778
0.638477
0.638175
0.637873
0.637571
0.637269
0.636967
0.636665
0.636362
0.63606
0.635757
0.635455
0.635152
0.63485
0.634547
0.634244
0.633941
0.633638
0.633335
0.633031
0.632728
0.632425
0.632121
0.631818
0.631514
0.63121
0.630906
0.630602
0.630298
0.629994
0.62969
0.629386
0.629081
0.628777
0.628472
0.628168
0.627863
0.627558
0.627253
0.626948
0.626643
0.626338
0.626032
0.625727
0.625421
0.625116
0.62481
0.624509
0.624093
0.626101
0.600834
0.575236
0.546723
0.530066
0.519517
0.511983
0.50607
0.501102
0.496732
0.492769
0.489105
0.48567
0.48242
0.479324
0.47636
0.47351
0.470761
0.468103
0.465525
0.463022
0.460586
0.458212
0.455895
0.453632
0.451418
0.44925
0.447125
0.445042
0.442996
0.440987
0.439012
0.437069
0.435157
0.433275
0.43142
0.429591
0.427789
0.42601
0.424254
0.422521
0.420809
0.419117
0.417445
0.415792
0.414157
0.412539
0.410938
0.409353
0.407784
0.40623
0.40469
0.403164
0.401651
0.400151
0.398664
0.397188
0.395724
0.394271
0.392828
0.391395
0.389973
0.388559
0.387154
0.385758
0.38437
0.382989
0.381615
0.380248
0.378886
0.377531
0.37618
0.374834
0.373492
0.372153
0.370816
0.369482
0.368148
0.366814
0.365479
0.364142
0.362801
0.361455
0.360102
0.358739
0.357364
0.355973
0.354562
0.353127
0.35166
0.350154
0.348598
0.346978
0.345279
0.34348
0.341556
0.339481
0.337224
0.334758
0.332064
0.329145
0.321571
0.318351
0.31539
0.312646
0.310089
0.307692
0.305434
0.3033
0.301274
0.299346
0.297505
0.295743
0.294053
0.292429
0.290865
0.289356
0.287898
0.286488
0.285122
0.283797
0.28251
0.28126
0.280043
0.278858
0.277704
0.276578
0.275478
0.274405
0.273355
0.272329
0.271325
0.270342
0.269378
0.268434
0.267509
0.266601
0.26571
0.264835
0.263976
0.263131
0.262302
0.261486
0.260683
0.259894
0.259117
0.258352
0.257599
0.256857
0.256126
0.255406
0.254696
0.253997
0.253307
0.252626
0.251955
0.251292
0.250638
0.249993
0.249355
0.248726
0.248105
0.247491
0.246884
0.246285
0.245693
0.245108
0.244529
0.243957
0.243391
0.242832
0.242278
0.241731
0.24119
0.240654
0.240124
0.239599
0.23908
0.238566
0.238057
0.237553
0.237054
0.23656
0.236071
0.235586
0.235106
0.234631
0.23416
0.233693
0.23323
0.232772
0.232318
0.231868
0.231422
0.230979
0.230539
0.230101
0.229663
0.229233
0.22883
0.228483
0.228191
0.227921
0.227652
0.227385
0.22712
0.226855
0.226592
0.226331
0.226071
0.225813
0.225555
0.225299
0.225045
0.224792
0.22454
0.224289
0.22404
0.223792
0.223545
0.2233
0.223055
0.222812
0.222571
0.22233
0.222091
0.221852
0.221615
0.221379
0.221145
0.220911
0.220679
0.220447
0.220217
0.219988
0.21976
0.219533
0.219307
0.219082
0.218859
0.218636
0.218414
0.218193
0.217974
0.217755
0.217537
0.217321
0.217105
0.21689
0.216677
0.216464
0.216252
0.216041
0.215831
0.215622
0.215414
0.215207
0.215001
0.214795
0.214591
0.214387
0.214184
0.213982
0.213781
0.213581
0.213382
0.213184
0.212986
0.212789
0.212593
0.212398
0.212204
0.21201
0.211817
0.211625
0.211434
0.211244
0.211054
0.210865
0.210677
0.21049
0.210303
0.210118
0.209932
0.209748
0.209565
0.209382
0.209199
0.209018
0.208837
0.208657
0.208478
0.208299
0.208121
0.207944
0.207767
0.207592
0.207416
0.207242
0.207068
0.206895
0.206722
0.20655
0.206379
0.206208
0.206038
0.205869
0.2057
0.205532
0.205364
0.205197
0.205031
0.204865
0.2047
0.204536
0.204372
0.204209
0.204046
0.203884
0.203722
0.203561
0.203401
0.203241
0.203082
0.202923
0.202765
0.202607
0.20245
0.202294
0.202138
0.201983
0.201828
0.201673
0.20152
0.201366
0.201214
0.201062
0.20091
0.200759
0.200608
0.200458
0.200308
0.200159
0.200011
0.199862
0.199715
0.199568
0.199421
0.199275
0.199129
0.198984
0.198839
0.198695
0.198551
0.198408
0.198265
0.198123
0.197981
0.19784
0.197699
0.197558
0.197418
0.197278
0.197139
0.197001
0.196862
0.196724
0.196587
0.19645
0.196314
0.196177
0.196042
0.195907
0.195772
0.195637
0.195503
0.19537
0.195237
0.195104
0.194972
0.19484
0.194708
0.194577
0.194446
0.194316
0.194186
0.194057
0.193928
0.193799
0.193671
0.193543
0.193415
0.193288
0.193161
0.193035
0.192909
0.192783
0.192658
0.192533
0.192408
0.192284
0.19216
0.192037
0.191914
0.191791
0.191669
0.191547
0.191425
0.191304
0.191183
0.191062
0.190942
0.190822
0.190702
0.190583
0.190464
0.190346
0.190228
0.19011
0.189992
0.189875
0.189758
0.189642
0.189526
0.18941
0.189294
0.189179
0.189064
0.18895
0.188835
0.188722
0.188608
0.188495
0.188382
0.188269
0.188157
0.188045
0.187933
0.187821
0.18771
0.1876
0.187489
0.187379
0.187269
0.187159
0.18705
0.186941
0.186832
0.186724
0.186616
0.186508
0.1864
0.186293
0.186186
0.186079
0.185973
0.185867
0.185761
0.185656
0.18555
0.185445
0.185341
0.185236
0.185132
0.185028
0.184924
0.184821
0.184718
0.184615
0.184513
0.18441
0.184308
0.184207
0.184105
0.184004
0.183903
0.183802
0.183702
0.183602
0.183502
0.183402
0.183303
0.183204
0.183105
0.183006
0.182908
0.182809
0.182711
0.182614
0.182516
0.182419
0.182322
0.182226
0.182129
0.182033
0.181937
0.181841
0.181746
0.181651
0.181556
0.181461
0.181366
0.181272
0.181178
0.181084
0.180991
0.180897
0.180804
0.180711
0.180618
0.180526
0.180434
0.180342
0.18025
0.180158
0.180067
0.179976
0.179885
0.179794
0.179704
0.179614
0.179524
0.179434
0.179344
0.179255
0.179166
0.179077
0.178988
0.178899
0.178811
0.178723
0.178635
0.178547
0.17846
0.178373
0.178285
0.178199
0.178112
0.178025
0.177939
0.177853
0.177767
0.177682
0.177596
0.177511
0.177426
0.177341
0.177257
0.177175
0.177093
0.177
0.176894
0.176781
0.176669
0.176557
0.176445
0.176334
0.176223
0.176112
0.176002
0.175892
0.175782
0.175673
0.175564
0.175455
0.175346
0.175238
0.17513
0.175022
0.174915
0.174808
0.174701
0.174595
0.174489
0.174383
0.174277
0.174172
0.174067
0.173962
0.173858
0.173753
0.17365
0.173546
0.173443
0.17334
0.173237
0.173134
0.173032
0.17293
0.172829
0.172727
0.172626
0.172525
0.172425
0.172324
0.172224
0.172125
0.172025
0.171926
0.171827
0.171728
0.17163
0.171531
0.171433
0.171336
0.171238
0.171141
0.171044
0.170947
0.170851
0.170755
0.170659
0.170563
0.170468
0.170373
0.170278
0.170183
0.170088
0.169994
0.1699
0.169806
0.169713
0.16962
0.169527
0.169434
0.169341
0.169249
0.169157
0.169065
0.168973
0.168882
0.168791
0.1687
0.168609
0.168519
0.168428
0.168338
0.168248
0.168159
0.168069
0.16798
0.167891
0.167803
0.167714
0.167626
0.167538
0.16745
0.167362
0.167275
0.167188
0.167101
0.167014
0.166927
0.166841
0.166755
0.166669
0.166583
0.166498
0.166412
0.166327
0.166242
0.166158
0.166073
0.165989
0.165905
0.165821
0.165737
0.165654
0.165571
0.165487
0.165405
0.165322
0.165239
0.165157
0.165075
0.164993
0.164911
0.16483
0.164749
0.164667
0.164586
0.164506
0.164425
0.164345
0.164265
0.164185
0.164105
0.164025
0.163946
0.163866
0.163787
0.163708
0.16363
0.163551
0.163473
0.163395
0.163317
0.163239
0.163161
0.163084
0.163006
0.162929
0.162852
0.162776
0.162699
0.162623
0.162547
0.16247
0.162395
0.162319
0.162243
0.162168
0.162093
0.162018
0.161943
0.161868
0.161794
0.161719
0.161645
0.161571
0.161497
0.161424
0.16135
0.161277
0.161205
0.161133
0.161055
0.160967
0.160884
0.160859
0.160944
0.161002
0.161013
0.160993
0.160976
0.160961
0.160948
0.160942
0.160943
0.16095
0.160957
0.160967
0.160982
0.161004
0.16103
0.16106
0.161095
0.161134
0.161179
0.161228
0.161281
0.161338
0.161398
0.161463
0.161533
0.161609
0.161688
0.161772
0.16186
0.161956
0.162064
0.16218
0.162295
0.162398
0.162482
0.162558
0.162654
0.162818
0.163085
0.163427
0.163727
0.163791
0.163452
0.162763
0.162174
0.162502
0.164539
0.168317
0.172244
0.172845
0.166328
0.152441
0.137802
0.134238
0.155409
0.218451
0.330911
0.450029
0.524349
0.555963
0.566191
0.56807
0.566937
0.564713
0.562077
0.559262
0.556346
0.553352
0.55027
0.547096
0.543828
0.540479
0.53705
0.533529
0.52992
0.526223
0.522422
0.51852
0.514513
0.510381
0.506109
0.501693
0.49714
0.492456
0.487623
0.48261
0.477405
0.471983
0.466302
0.460318
0.453985
0.447222
0.43989
0.43177
0.422473
0.411321
0.397201
0.378515
0.3536
0.322196
0.288055
0.26131
0.241006
0.240649
0.240294
0.239942
0.239592
0.239245
0.2389
0.238558
0.238218
0.23788
0.237545
0.237212
0.236881
0.236553
0.236226
0.235902
0.23558
0.23526
0.234942
0.234626
0.234312
0.234
0.233689
0.233381
0.233075
0.23277
0.232468
0.232167
0.231868
0.231571
0.231275
0.230982
0.23069
0.230399
0.230111
0.229824
0.229539
0.229255
0.228973
0.228693
0.228414
0.228137
0.227862
0.227588
0.227315
0.227044
0.226775
0.226507
0.22624
0.225975
0.225711
0.225449
0.225188
0.224928
0.22467
0.224413
0.224158
0.223903
0.223651
0.223399
0.223149
0.2229
0.222652
0.222405
0.22216
0.221916
0.221673
0.221431
0.22119
0.220951
0.220713
0.220476
0.22024
0.220005
0.219771
0.219539
0.219307
0.219077
0.218848
0.21862
0.218393
0.218168
0.217944
0.217717
0.217485
0.217253
0.217039
0.216885
0.216798
0.216739
0.21668
0.216621
0.216562
0.216504
0.216445
0.216388
0.21633
0.216273
0.216216
0.216159
0.216103
0.216047
0.215991
0.215935
0.21588
0.215825
0.21577
0.215716
0.215662
0.215608
0.215554
0.215501
0.215448
0.215395
0.215342
0.21529
0.215238
0.215186
0.215135
0.215083
0.215032
0.214981
0.214931
0.214881
0.21483
0.214781
0.214731
0.214682
0.214632
0.214584
0.214535
0.214486
0.214438
0.21439
0.214342
0.214295
0.214248
0.2142
0.214154
0.214107
0.21406
0.214014
0.213968
0.213922
0.213876
0.213831
0.213786
0.213741
0.213696
0.213651
0.213607
0.213562
0.213518
0.213474
0.21343
0.213387
0.213343
0.2133
0.213257
0.213214
0.213172
0.213129
0.213087
0.213045
0.213004
0.212962
0.212921
0.21288
0.212839
0.212798
0.212758
0.212718
0.212678
0.212638
0.212599
0.21256
0.212521
0.212483
0.212445
0.212407
0.212369
0.212332
0.212295
0.212258
0.212222
0.212185
0.212149
0.212113
0.212078
0.212042
0.212006
0.21197
0.211935
0.211899
0.211863
0.211827
0.211791
0.211755
0.211718
0.211681
0.211644
0.211607
0.21157
0.211532
0.211495
0.211457
0.211419
0.211382
0.211344
0.211307
0.21127
0.211234
0.211198
0.211163
0.211129
0.211095
0.211063
0.211031
0.211
0.210971
0.210943
0.210916
0.21089
0.210866
0.210843
0.21082
0.210799
0.210779
0.21076
0.210742
0.210724
0.210707
0.210691
0.210674
0.210658
0.210642
0.210626
0.210609
0.210592
0.210575
0.210557
0.210539
0.210522
0.210502
0.210475
0.210433
0.210385
0.210384
0.210532
0.210855
0.210956
0.209699
0.205941
0.201835
0.207396
0.241249
0.325955
0.459487
0.568891
0.609974
0.618927
0.620641
0.621083
0.621312
0.621507
0.621696
0.621883
0.62207
0.622256
0.622442
0.622627
0.622812
0.622997
0.623182
0.623366
0.623549
0.623733
0.623916
0.624098
0.624281
0.624463
0.624645
0.624826
0.625008
0.625189
0.625369
0.62555
0.62573
0.62591
0.62609
0.62627
0.626449
0.626628
0.626807
0.626986
0.627165
0.627343
0.627522
0.6277
0.627878
0.628056
0.628233
0.628411
0.628588
0.628766
0.628943
0.62912
0.629297
0.629474
0.629651
0.629827
0.630004
0.63018
0.630357
0.630533
0.630709
0.630885
0.631062
0.631238
0.631414
0.63159
0.631765
0.631941
0.632117
0.632293
0.632468
0.632644
0.632819
0.632995
0.63317
0.633346
0.633521
0.633697
0.633872
0.634047
0.634223
0.634398
0.634573
0.634748
0.634923
0.635099
0.635274
0.635449
0.635624
0.6358
0.635975
0.63615
0.636325
0.636501
0.636676
0.636851
0.637027
0.637202
0.637378
0.637553
0.637729
0.637905
0.63808
0.638256
0.638432
0.638608
0.638784
0.638961
0.639137
0.639313
0.63949
0.639666
0.639843
0.64002
0.640197
0.640374
0.640551
0.640729
0.640906
0.641084
0.641262
0.64144
0.641618
0.641796
0.641975
0.642153
0.642332
0.642511
0.64269
0.64287
0.643049
0.643229
0.64341
0.64358
0.643663
0.643603
0.643466
0.643318
0.643168
0.643018
0.642868
0.642718
0.642568
0.642419
0.642269
0.642119
0.641969
0.641819
0.64167
0.64152
0.641371
0.641221
0.641072
0.640923
0.640773
0.640624
0.640475
0.640326
0.640177
0.640028
0.63988
0.639731
0.639582
0.639434
0.639286
0.639137
0.638989
0.638841
0.638693
0.638545
0.638398
0.63825
0.638102
0.637955
0.637807
0.63766
0.637513
0.637365
0.637218
0.637071
0.636924
0.636777
0.63663
0.636484
0.636337
0.63619
0.636043
0.635896
0.63575
0.635603
0.635456
0.63531
0.635163
0.635016
0.63487
0.634723
0.634576
0.634429
0.634282
0.634136
0.633989
0.633842
0.633695
0.633548
0.633401
0.633254
0.633106
0.632959
0.632812
0.632665
0.632518
0.63237
0.632223
0.632076
0.631929
0.631781
0.631634
0.631487
0.63134
0.631193
0.631046
0.6309
0.630753
0.630607
0.630461
0.630315
0.630169
0.630024
0.629879
0.629734
0.62959
0.629446
0.629302
0.629159
0.629017
0.628875
0.628733
0.628593
0.628453
0.628313
0.628174
0.628037
0.627899
0.627763
0.627628
0.627493
0.62736
0.627227
0.627095
0.626965
0.626835
0.626706
0.626579
0.626452
0.626327
0.626203
0.62608
0.625958
0.625837
0.625717
0.625598
0.625481
0.625365
0.625249
0.625135
0.625022
0.62491
0.624799
0.624688
0.624579
0.624471
0.624363
0.624256
0.62415
0.624045
0.62394
0.623836
0.623733
0.62363
0.623527
0.623425
0.623323
0.623221
0.623119
0.623017
0.622916
0.622814
0.622712
0.62261
0.622507
0.622404
0.622301
0.622197
0.622092
0.621987
0.621881
0.621775
0.621667
0.621559
0.621449
0.621339
0.621227
0.621115
0.621001
0.620886
0.62077
0.620653
0.620534
0.620414
0.620293
0.62017
0.620046
0.619921
0.619795
0.619667
0.619538
0.619407
0.619276
0.619143
0.619009
0.618874
0.618737
0.6186
0.618462
0.618322
0.618182
0.618041
0.617899
0.617756
0.617613
0.617469
0.617325
0.61718
0.617035
0.616889
0.616744
0.616598
0.616452
0.616306
0.61616
0.616015
0.615869
0.615724
0.61558
0.615435
0.615292
0.615149
0.615007
0.614865
0.614724
0.614584
0.614446
0.614308
0.614171
0.614035
0.613901
0.613767
0.613635
0.613505
0.613375
0.613247
0.613121
0.612996
0.612872
0.61275
0.61263
0.612511
0.612394
0.612278
0.612164
0.612052
0.611941
0.611832
0.611725
0.61162
0.611516
0.611414
0.611314
0.611215
0.611119
0.611024
0.61093
0.610839
0.610749
0.610662
0.610575
0.610491
0.610409
0.610328
0.610249
0.610172
0.610096
0.610022
0.60995
0.60988
0.609812
0.609745
0.60968
0.609616
0.609555
0.609495
0.609437
0.60938
0.609325
0.609272
0.609221
0.609171
0.609123
0.609077
0.609032
0.608989
0.608947
0.608907
0.608869
0.608832
0.608797
0.608763
0.608731
0.6087
0.608671
0.608643
0.608617
0.608592
0.608569
0.608547
0.608526
0.608507
0.608489
0.608472
0.608457
0.608443
0.60843
0.608418
0.608407
0.608397
0.608389
0.608381
0.608375
0.608369
0.608364
0.60836
0.608357
0.608355
0.608354
0.608353
0.608353
0.608354
0.608355
0.608356
0.608359
0.608361
0.608364
0.608368
0.608372
0.608376
0.60838
0.608385
0.608389
0.608394
0.608399
0.608404
0.608409
0.608414
0.60842
0.608424
0.608429
0.608434
0.608439
0.608443
0.608447
0.608451
0.608455
0.608458
0.608461
0.608464
0.608466
0.608468
0.60847
0.608472
0.608473
0.608473
0.608474
0.608474
0.608474
0.608473
0.608472
0.608471
0.608469
0.608467
0.608465
0.608463
0.60846
0.608457
0.608454
0.608451
0.608448
0.608445
0.608442
0.608438
0.608435
0.608432
0.608429
0.608426
0.608424
0.608421
0.60842
0.608418
0.608417
0.608417
0.608417
0.608418
0.608419
0.608421
0.608425
0.608429
0.608434
0.608441
0.608448
0.608457
0.608467
0.608479
0.608492
0.608508
0.608524
0.608543
0.608563
0.608586
0.608611
0.608638
0.608668
0.6087
0.608734
0.608772
0.608812
0.608855
0.608901
0.608951
0.609003
0.60906
0.609119
0.609183
0.60925
0.609321
0.609397
0.609476
0.60956
0.609648
0.609741
0.609839
0.609941
0.610048
0.61016
0.610278
0.6104
0.610528
0.610662
0.610801
0.610946
0.611096
0.611252
0.611414
0.611582
0.611756
0.611935
0.612121
0.612313
0.612511
0.612715
0.612925
0.613141
0.613363
0.613591
0.613825
0.614065
0.61431
0.614561
0.614818
0.61508
0.615347
0.61562
0.615897
0.616179
0.616466
0.616757
0.617053
0.617352
0.617655
0.617962
0.618272
0.618585
0.618901
0.619219
0.61954
0.619863
0.620188
0.620514
0.620841
0.62117
0.621499
0.621829
0.622159
0.62249
0.62282
0.62315
0.62348
0.623808
0.624136
0.624463
0.624788
0.625112
0.625435
0.625755
0.626074
0.626392
0.626707
0.62702
0.62733
0.627639
0.627945
0.628249
0.62855
0.628849
0.629145
0.629439
0.62973
0.630019
0.630305
0.630589
0.63087
0.631149
0.631425
0.631698
0.63197
0.632238
0.632505
0.632769
0.633031
0.63329
0.633547
0.633802
0.634055
0.634306
0.634554
0.634801
0.635045
0.635288
0.635529
0.635768
0.636005
0.63624
0.636474
0.636705
0.636936
0.637164
0.637391
0.637617
0.63784
0.638063
0.638284
0.638503
0.638722
0.638939
0.639154
0.639368
0.639581
0.639793
0.640004
0.640213
0.640422
0.640629
0.640835
0.64104
0.641244
0.641446
0.641648
0.641849
0.642049
0.642248
0.642446
0.642642
0.642839
0.643034
0.643228
0.643421
0.643614
0.643805
0.643996
0.644186
0.644375
0.644563
0.644751
0.644938
0.645124
0.645309
0.645493
0.645677
0.64586
0.646042
0.646223
0.646404
0.646584
0.646764
0.646942
0.64712
0.647298
0.647474
0.64765
0.647826
0.648001
0.648175
0.648348
0.648521
0.648694
0.648865
0.649037
0.649207
0.649377
0.649547
0.649716
0.649884
0.650052
0.65022
0.650387
0.650554
0.65072
0.650885
0.65105
0.651215
0.65138
0.651544
0.651707
0.65187
0.652033
0.652196
0.652358
0.65252
0.652681
0.652843
0.653004
0.653164
0.653325
0.653485
0.653645
0.653804
0.653964
0.654123
0.654282
0.654441
0.6546
0.654758
0.654917
0.655075
0.655233
0.655391
0.655549
0.655707
0.655865
0.656022
0.65618
0.656337
0.656495
0.656652
0.656809
0.656966
0.657124
0.657281
0.657438
0.657595
0.657752
0.657909
0.658066
0.658223
0.65838
0.658537
0.658694
0.658851
0.659008
0.659165
0.659321
0.659478
0.659635
0.659792
0.659949
0.660106
0.660262
0.660419
0.660576
0.660732
0.660889
0.661046
0.661202
0.661359
0.661515
0.661672
0.661828
0.661984
0.66214
0.662297
0.662453
0.662609
0.662765
0.662921
0.663077
0.663232
0.663388
0.663543
0.663699
0.663854
0.664009
0.664165
0.66432
0.664474
0.664629
0.664784
0.664938
0.665093
0.665247
0.665401
0.665555
0.665709
0.665863
0.666016
0.66617
0.666323
0.666476
0.666629
0.666782
0.666935
0.667087
0.66724
0.667392
0.667544
0.667696
0.667848
0.667999
0.668151
0.668302
0.668453
0.668604
0.668755
0.668905
0.669056
0.669206
0.669356
0.669506
0.669656
0.669805
0.669955
0.670104
0.670253
0.670402
0.670551
0.670699
0.670848
0.670996
0.671145
0.671293
0.67144
0.671588
0.671736
0.671883
0.672031
0.672178
0.672325
0.672472
0.672619
0.672766
0.672912
0.673059
0.673206
0.673352
0.673498
0.673645
0.673791
0.673937
0.674083
0.674229
0.674376
0.674522
0.674668
0.674814
0.67496
0.675107
0.675253
0.6754
0.675547
0.675694
0.675841
0.675988
0.676136
0.676284
0.676432
0.676581
0.67673
0.676879
0.677029
0.67718
0.677331
0.677483
0.677635
0.677788
0.677942
0.678096
0.678252
0.678408
0.678565
0.678724
0.678883
0.679044
0.679205
0.679368
0.679532
0.679697
0.679864
0.680032
0.680202
0.680373
0.680545
0.680719
0.680894
0.681071
0.68125
0.68143
0.681612
0.681795
0.68198
0.682166
0.682354
0.682543
0.682734
0.682926
0.683119
0.683314
0.683509
0.683706
0.683904
0.684102
0.684302
0.684502
0.684703
0.684904
0.685105
0.685307
0.685509
0.68571
0.685912
0.686113
0.686314
0.686514
0.686713
0.686911
0.687109
0.687305
0.6875
0.687694
0.687886
0.688076
0.688265
0.688452
0.688637
0.68882
0.689001
0.68918
0.689357
0.689531
0.689703
0.689873
0.690041
0.690206
0.690369
0.69053
0.690688
0.690845
0.690998
0.69115
0.691299
0.691446
0.691591
0.691734
0.691875
0.692014
0.692151
0.692286
0.69242
0.692552
0.692682
0.69281
0.692937
0.693063
0.693187
0.69331
0.693432
0.693552
0.693672
0.69379
0.693907
0.694024
0.694139
0.694254
0.694368
0.694481
0.694594
0.694705
0.694817
0.694927
0.695037
0.695147
0.695256
0.695364
0.695472
0.69558
0.695687
0.695794
0.695901
0.696007
0.696113
0.696218
0.696323
0.696428
0.696533
0.696637
0.696741
0.696844
0.696948
0.697051
0.697154
0.697256
0.697359
0.697461
0.697563
0.697664
0.697766
0.697867
0.697968
0.698068
0.698169
0.698269
0.698369
0.698469
0.698568
0.698668
0.698767
0.698866
0.698964
0.699063
0.699161
0.699259
0.699357
0.699455
0.699552
0.69965
0.699747
0.699844
0.69994
0.700037
0.700134
0.70023
0.700326
0.700422
0.700518
0.700614
0.700709
0.700805
0.7009
0.700996
0.701091
0.701185
0.701288
)
;

boundaryField
{
    inlet
    {
        type            criticalFlowDepthInlet;
        criticalH       0.38;
        value           uniform 0.86042;
    }
    outlet
    {
        type            zeroGradient;
    }
    right
    {
        type            empty;
    }
    left
    {
        type            empty;
    }
    atmosphere
    {
        type            empty;
    }
    bottomWall
    {
        type            empty;
    }
}


// ************************************************************************* //
