/*--------------------------------*- C++ -*----------------------------------*\
| =========                 |                                                 |
| \\      /  F ield         | foam-extend: Open Source CFD                    |
|  \\    /   O peration     | Version:     3.1                                |
|   \\  /    A nd           | Web:         http://www.extend-project.de       |
|    \\/     M anipulation  |                                                 |
\*---------------------------------------------------------------------------*/
FoamFile
{
    version     2.0;
    format      ascii;
    class       volVectorField;
    location    "12";
    object      HU;
}
// * * * * * * * * * * * * * * * * * * * * * * * * * * * * * * * * * * * * * //

dimensions      [0 2 -1 0 0 0 0];

internalField   nonuniform List<vector> 
2539
(
(0.624839 0 0)
(0.62468 0 0)
(0.624703 0 0)
(0.624718 0 0)
(0.624733 0 0)
(0.624748 0 0)
(0.624763 0 0)
(0.624778 0 0)
(0.624793 0 0)
(0.624808 0 0)
(0.624824 0 0)
(0.624839 0 0)
(0.624854 0 0)
(0.624869 0 0)
(0.624884 0 0)
(0.624899 0 0)
(0.624914 0 0)
(0.624929 0 0)
(0.624944 0 0)
(0.624959 0 0)
(0.624974 0 0)
(0.624988 0 0)
(0.625003 0 0)
(0.625018 0 0)
(0.625033 0 0)
(0.625048 0 0)
(0.625063 0 0)
(0.625078 0 0)
(0.625093 0 0)
(0.625107 0 0)
(0.625122 0 0)
(0.625137 0 0)
(0.625152 0 0)
(0.625167 0 0)
(0.625181 0 0)
(0.625196 0 0)
(0.625211 0 0)
(0.625226 0 0)
(0.62524 0 0)
(0.625255 0 0)
(0.62527 0 0)
(0.625284 0 0)
(0.625299 0 0)
(0.625314 0 0)
(0.625328 0 0)
(0.625343 0 0)
(0.625357 0 0)
(0.625372 0 0)
(0.625387 0 0)
(0.625401 0 0)
(0.625416 0 0)
(0.62543 0 0)
(0.625445 0 0)
(0.625459 0 0)
(0.625474 0 0)
(0.625488 0 0)
(0.625503 0 0)
(0.625517 0 0)
(0.625531 0 0)
(0.625546 0 0)
(0.62556 0 0)
(0.625575 0 0)
(0.625589 0 0)
(0.625603 0 0)
(0.625618 0 0)
(0.625632 0 0)
(0.625646 0 0)
(0.625661 0 0)
(0.625675 0 0)
(0.625689 0 0)
(0.625703 0 0)
(0.625718 0 0)
(0.625732 0 0)
(0.625746 0 0)
(0.62576 0 0)
(0.625774 0 0)
(0.625789 0 0)
(0.625803 0 0)
(0.625817 0 0)
(0.625831 0 0)
(0.625845 0 0)
(0.625859 0 0)
(0.625873 0 0)
(0.625887 0 0)
(0.625901 0 0)
(0.625915 0 0)
(0.625929 0 0)
(0.625943 0 0)
(0.625957 0 0)
(0.625971 0 0)
(0.625985 0 0)
(0.625999 0 0)
(0.626013 0 0)
(0.626027 0 0)
(0.626041 0 0)
(0.626055 0 0)
(0.626069 0 0)
(0.626082 0 0)
(0.626096 0 0)
(0.62611 0 0)
(0.626124 0 0)
(0.626138 0 0)
(0.626151 0 0)
(0.626165 0 0)
(0.626179 0 0)
(0.626193 0 0)
(0.626206 0 0)
(0.62622 0 0)
(0.626234 0 0)
(0.626247 0 0)
(0.626261 0 0)
(0.626275 0 0)
(0.626288 0 0)
(0.626302 0 0)
(0.626315 0 0)
(0.626329 0 0)
(0.626342 0 0)
(0.626356 0 0)
(0.626369 0 0)
(0.626383 0 0)
(0.626396 0 0)
(0.62641 0 0)
(0.626423 0 0)
(0.626437 0 0)
(0.62645 0 0)
(0.626464 0 0)
(0.626477 0 0)
(0.62649 0 0)
(0.626504 0 0)
(0.626517 0 0)
(0.62653 0 0)
(0.626544 0 0)
(0.626557 0 0)
(0.62657 0 0)
(0.626583 0 0)
(0.626597 0 0)
(0.62661 0 0)
(0.626623 0 0)
(0.626636 0 0)
(0.626649 0 0)
(0.626662 0 0)
(0.626676 0 0)
(0.626689 0 0)
(0.626702 0 0)
(0.626715 0 0)
(0.626728 0 0)
(0.626741 0 0)
(0.626754 0 0)
(0.626767 0 0)
(0.62678 0 0)
(0.626793 0 0)
(0.626806 0 0)
(0.626819 0 0)
(0.626832 0 0)
(0.626845 0 0)
(0.626858 0 0)
(0.626871 0 0)
(0.626883 0 0)
(0.626896 0 0)
(0.626909 0 0)
(0.626922 0 0)
(0.626935 0 0)
(0.626947 0 0)
(0.62696 0 0)
(0.626973 0 0)
(0.626986 0 0)
(0.626998 0 0)
(0.627011 0 0)
(0.627024 0 0)
(0.627036 0 0)
(0.627049 0 0)
(0.627061 0 0)
(0.627074 0 0)
(0.627087 0 0)
(0.627099 0 0)
(0.627112 0 0)
(0.627124 0 0)
(0.627137 0 0)
(0.627149 0 0)
(0.627162 0 0)
(0.627174 0 0)
(0.627187 0 0)
(0.627199 0 0)
(0.627211 0 0)
(0.627013 0 0)
(0.627113 0 0)
(0.627548 0 0)
(0.627583 0 0)
(0.627597 0 0)
(0.627611 0 0)
(0.627624 0 0)
(0.627637 0 0)
(0.62765 0 0)
(0.627663 0 0)
(0.627676 0 0)
(0.627689 0 0)
(0.627702 0 0)
(0.627715 0 0)
(0.627729 0 0)
(0.627742 0 0)
(0.627755 0 0)
(0.627768 0 0)
(0.627781 0 0)
(0.627794 0 0)
(0.627807 0 0)
(0.627819 0 0)
(0.627832 0 0)
(0.627845 0 0)
(0.627858 0 0)
(0.627871 0 0)
(0.627884 0 0)
(0.627897 0 0)
(0.62791 0 0)
(0.627923 0 0)
(0.627935 0 0)
(0.627948 0 0)
(0.627961 0 0)
(0.627974 0 0)
(0.627987 0 0)
(0.627999 0 0)
(0.628012 0 0)
(0.628025 0 0)
(0.628038 0 0)
(0.62805 0 0)
(0.628063 0 0)
(0.628076 0 0)
(0.628089 0 0)
(0.628101 0 0)
(0.628114 0 0)
(0.628127 0 0)
(0.628139 0 0)
(0.628152 0 0)
(0.628164 0 0)
(0.628177 0 0)
(0.62819 0 0)
(0.628202 0 0)
(0.628215 0 0)
(0.628227 0 0)
(0.62824 0 0)
(0.628252 0 0)
(0.628265 0 0)
(0.628277 0 0)
(0.62829 0 0)
(0.628302 0 0)
(0.628315 0 0)
(0.628327 0 0)
(0.62834 0 0)
(0.628352 0 0)
(0.628365 0 0)
(0.628377 0 0)
(0.62839 0 0)
(0.628402 0 0)
(0.628414 0 0)
(0.628427 0 0)
(0.628439 0 0)
(0.628451 0 0)
(0.628464 0 0)
(0.628476 0 0)
(0.628488 0 0)
(0.628501 0 0)
(0.628513 0 0)
(0.628525 0 0)
(0.628538 0 0)
(0.62855 0 0)
(0.628562 0 0)
(0.628575 0 0)
(0.628587 0 0)
(0.628599 0 0)
(0.628611 0 0)
(0.628623 0 0)
(0.628636 0 0)
(0.628648 0 0)
(0.62866 0 0)
(0.628672 0 0)
(0.628684 0 0)
(0.628697 0 0)
(0.628709 0 0)
(0.628721 0 0)
(0.628733 0 0)
(0.628745 0 0)
(0.628757 0 0)
(0.628769 0 0)
(0.628781 0 0)
(0.628794 0 0)
(0.628806 0 0)
(0.628818 0 0)
(0.62883 0 0)
(0.628842 0 0)
(0.628854 0 0)
(0.628866 0 0)
(0.628878 0 0)
(0.62889 0 0)
(0.628902 0 0)
(0.628914 0 0)
(0.628926 0 0)
(0.628938 0 0)
(0.62895 0 0)
(0.628962 0 0)
(0.628974 0 0)
(0.628986 0 0)
(0.628998 0 0)
(0.62901 0 0)
(0.629021 0 0)
(0.629033 0 0)
(0.629045 0 0)
(0.629057 0 0)
(0.629069 0 0)
(0.629081 0 0)
(0.629093 0 0)
(0.629105 0 0)
(0.629117 0 0)
(0.629128 0 0)
(0.62914 0 0)
(0.629152 0 0)
(0.629164 0 0)
(0.629176 0 0)
(0.629188 0 0)
(0.629199 0 0)
(0.629211 0 0)
(0.629223 0 0)
(0.629235 0 0)
(0.629246 0 0)
(0.629258 0 0)
(0.62927 0 0)
(0.629282 0 0)
(0.629293 0 0)
(0.629305 0 0)
(0.629317 0 0)
(0.629329 0 0)
(0.62934 0 0)
(0.629352 0 0)
(0.629364 0 0)
(0.629376 0 0)
(0.629387 0 0)
(0.629399 0 0)
(0.629411 0 0)
(0.629422 0 0)
(0.629434 0 0)
(0.629446 0 0)
(0.629457 0 0)
(0.629469 0 0)
(0.629481 0 0)
(0.629492 0 0)
(0.629504 0 0)
(0.629516 0 0)
(0.629527 0 0)
(0.629539 0 0)
(0.62955 0 0)
(0.629562 0 0)
(0.629574 0 0)
(0.629585 0 0)
(0.629597 0 0)
(0.629608 0 0)
(0.62962 0 0)
(0.629632 0 0)
(0.629643 0 0)
(0.629655 0 0)
(0.629666 0 0)
(0.629678 0 0)
(0.629689 0 0)
(0.629701 0 0)
(0.629713 0 0)
(0.629724 0 0)
(0.629736 0 0)
(0.629747 0 0)
(0.629759 0 0)
(0.62977 0 0)
(0.629782 0 0)
(0.629793 0 0)
(0.629805 0 0)
(0.629816 0 0)
(0.629828 0 0)
(0.629839 0 0)
(0.629851 0 0)
(0.629863 0 0)
(0.629874 0 0)
(0.629886 0 0)
(0.629897 0 0)
(0.629909 0 0)
(0.62992 0 0)
(0.629932 0 0)
(0.629943 0 0)
(0.62996 0 0)
(0.629849 0 0)
(0.632431 0 0)
(0.602508 0 0)
(0.610002 0 0)
(0.618068 0 0)
(0.622675 0 0)
(0.624951 0 0)
(0.626157 0 0)
(0.626845 0 0)
(0.627269 0 0)
(0.627549 0 0)
(0.627748 0 0)
(0.627898 0 0)
(0.628016 0 0)
(0.628113 0 0)
(0.628196 0 0)
(0.628267 0 0)
(0.628329 0 0)
(0.628384 0 0)
(0.628434 0 0)
(0.62848 0 0)
(0.628521 0 0)
(0.628559 0 0)
(0.628594 0 0)
(0.628627 0 0)
(0.628657 0 0)
(0.628686 0 0)
(0.628712 0 0)
(0.628737 0 0)
(0.628761 0 0)
(0.628783 0 0)
(0.628804 0 0)
(0.628825 0 0)
(0.628844 0 0)
(0.628862 0 0)
(0.628879 0 0)
(0.628896 0 0)
(0.628912 0 0)
(0.628927 0 0)
(0.628942 0 0)
(0.628956 0 0)
(0.628969 0 0)
(0.628982 0 0)
(0.628995 0 0)
(0.629007 0 0)
(0.629019 0 0)
(0.62903 0 0)
(0.629041 0 0)
(0.629051 0 0)
(0.629061 0 0)
(0.629071 0 0)
(0.62908 0 0)
(0.629089 0 0)
(0.629098 0 0)
(0.629106 0 0)
(0.629114 0 0)
(0.629122 0 0)
(0.629129 0 0)
(0.629137 0 0)
(0.629143 0 0)
(0.62915 0 0)
(0.629156 0 0)
(0.629162 0 0)
(0.629168 0 0)
(0.629173 0 0)
(0.629178 0 0)
(0.629183 0 0)
(0.629188 0 0)
(0.629192 0 0)
(0.629195 0 0)
(0.629199 0 0)
(0.629201 0 0)
(0.629204 0 0)
(0.629206 0 0)
(0.629207 0 0)
(0.629208 0 0)
(0.629208 0 0)
(0.629208 0 0)
(0.629207 0 0)
(0.629205 0 0)
(0.629201 0 0)
(0.629197 0 0)
(0.629191 0 0)
(0.629184 0 0)
(0.629175 0 0)
(0.629163 0 0)
(0.629149 0 0)
(0.629131 0 0)
(0.629109 0 0)
(0.629082 0 0)
(0.629047 0 0)
(0.629004 0 0)
(0.62895 0 0)
(0.628882 0 0)
(0.628796 0 0)
(0.628688 0 0)
(0.628554 0 0)
(0.628391 0 0)
(0.628196 0 0)
(0.627973 0 0)
(0.627734 0 0)
(0.627506 0 0)
(0.627113 0 0)
(0.627368 0 0)
(0.627585 0 0)
(0.627771 0 0)
(0.627933 0 0)
(0.628075 0 0)
(0.628201 0 0)
(0.628314 0 0)
(0.628416 0 0)
(0.628508 0 0)
(0.628593 0 0)
(0.628671 0 0)
(0.628743 0 0)
(0.628809 0 0)
(0.628871 0 0)
(0.62893 0 0)
(0.628984 0 0)
(0.629036 0 0)
(0.629084 0 0)
(0.62913 0 0)
(0.629174 0 0)
(0.629216 0 0)
(0.629256 0 0)
(0.629294 0 0)
(0.62933 0 0)
(0.629366 0 0)
(0.629399 0 0)
(0.629432 0 0)
(0.629464 0 0)
(0.629494 0 0)
(0.629523 0 0)
(0.629552 0 0)
(0.62958 0 0)
(0.629607 0 0)
(0.629633 0 0)
(0.629658 0 0)
(0.629683 0 0)
(0.629708 0 0)
(0.629731 0 0)
(0.629755 0 0)
(0.629777 0 0)
(0.6298 0 0)
(0.629821 0 0)
(0.629843 0 0)
(0.629864 0 0)
(0.629884 0 0)
(0.629905 0 0)
(0.629924 0 0)
(0.629944 0 0)
(0.629963 0 0)
(0.629982 0 0)
(0.630001 0 0)
(0.630019 0 0)
(0.630037 0 0)
(0.630055 0 0)
(0.630073 0 0)
(0.63009 0 0)
(0.630107 0 0)
(0.630124 0 0)
(0.630141 0 0)
(0.630158 0 0)
(0.630174 0 0)
(0.630191 0 0)
(0.630207 0 0)
(0.630223 0 0)
(0.630238 0 0)
(0.630254 0 0)
(0.630269 0 0)
(0.630285 0 0)
(0.6303 0 0)
(0.630315 0 0)
(0.63033 0 0)
(0.630345 0 0)
(0.630359 0 0)
(0.630374 0 0)
(0.630388 0 0)
(0.630403 0 0)
(0.630417 0 0)
(0.630431 0 0)
(0.630445 0 0)
(0.630459 0 0)
(0.630473 0 0)
(0.630487 0 0)
(0.630501 0 0)
(0.630514 0 0)
(0.630528 0 0)
(0.630541 0 0)
(0.630555 0 0)
(0.630568 0 0)
(0.630581 0 0)
(0.630595 0 0)
(0.630608 0 0)
(0.630621 0 0)
(0.630633 0 0)
(0.630643 0 0)
(0.630652 0 0)
(0.630662 0 0)
(0.630689 0 0)
(0.630752 0 0)
(0.630857 0 0)
(0.630923 0 0)
(0.630934 0 0)
(0.630944 0 0)
(0.630955 0 0)
(0.630965 0 0)
(0.630976 0 0)
(0.630987 0 0)
(0.630997 0 0)
(0.631008 0 0)
(0.631018 0 0)
(0.631029 0 0)
(0.631039 0 0)
(0.63105 0 0)
(0.63106 0 0)
(0.631071 0 0)
(0.631081 0 0)
(0.631092 0 0)
(0.631102 0 0)
(0.631113 0 0)
(0.631123 0 0)
(0.631134 0 0)
(0.631144 0 0)
(0.631154 0 0)
(0.631165 0 0)
(0.631175 0 0)
(0.631186 0 0)
(0.631196 0 0)
(0.631207 0 0)
(0.631217 0 0)
(0.631228 0 0)
(0.631238 0 0)
(0.631249 0 0)
(0.631259 0 0)
(0.63127 0 0)
(0.63128 0 0)
(0.631291 0 0)
(0.631301 0 0)
(0.631311 0 0)
(0.631322 0 0)
(0.631332 0 0)
(0.631343 0 0)
(0.631353 0 0)
(0.631364 0 0)
(0.631374 0 0)
(0.631385 0 0)
(0.631395 0 0)
(0.631406 0 0)
(0.631416 0 0)
(0.631427 0 0)
(0.631437 0 0)
(0.631448 0 0)
(0.631458 0 0)
(0.631469 0 0)
(0.631479 0 0)
(0.63149 0 0)
(0.6315 0 0)
(0.631511 0 0)
(0.631521 0 0)
(0.631532 0 0)
(0.631542 0 0)
(0.631553 0 0)
(0.631563 0 0)
(0.631574 0 0)
(0.631584 0 0)
(0.631595 0 0)
(0.631605 0 0)
(0.631616 0 0)
(0.631626 0 0)
(0.631637 0 0)
(0.631648 0 0)
(0.631658 0 0)
(0.631669 0 0)
(0.631679 0 0)
(0.63169 0 0)
(0.6317 0 0)
(0.631711 0 0)
(0.631722 0 0)
(0.631732 0 0)
(0.631743 0 0)
(0.631753 0 0)
(0.631764 0 0)
(0.631775 0 0)
(0.631785 0 0)
(0.631796 0 0)
(0.631807 0 0)
(0.631817 0 0)
(0.631828 0 0)
(0.631839 0 0)
(0.631849 0 0)
(0.63186 0 0)
(0.631871 0 0)
(0.631881 0 0)
(0.631892 0 0)
(0.631903 0 0)
(0.631913 0 0)
(0.631924 0 0)
(0.631935 0 0)
(0.631945 0 0)
(0.631956 0 0)
(0.631967 0 0)
(0.631978 0 0)
(0.631988 0 0)
(0.631999 0 0)
(0.63201 0 0)
(0.632021 0 0)
(0.632031 0 0)
(0.632042 0 0)
(0.632053 0 0)
(0.632064 0 0)
(0.632075 0 0)
(0.632086 0 0)
(0.632096 0 0)
(0.632107 0 0)
(0.632118 0 0)
(0.632129 0 0)
(0.63214 0 0)
(0.632151 0 0)
(0.632161 0 0)
(0.632172 0 0)
(0.632183 0 0)
(0.632194 0 0)
(0.632205 0 0)
(0.632216 0 0)
(0.632227 0 0)
(0.632238 0 0)
(0.632249 0 0)
(0.63226 0 0)
(0.632271 0 0)
(0.632282 0 0)
(0.632293 0 0)
(0.632304 0 0)
(0.632314 0 0)
(0.632325 0 0)
(0.632336 0 0)
(0.632348 0 0)
(0.632359 0 0)
(0.63237 0 0)
(0.632381 0 0)
(0.632392 0 0)
(0.632403 0 0)
(0.632414 0 0)
(0.632425 0 0)
(0.632436 0 0)
(0.632447 0 0)
(0.632458 0 0)
(0.632469 0 0)
(0.63248 0 0)
(0.632491 0 0)
(0.632503 0 0)
(0.632514 0 0)
(0.632525 0 0)
(0.632536 0 0)
(0.632547 0 0)
(0.632558 0 0)
(0.63257 0 0)
(0.632581 0 0)
(0.632592 0 0)
(0.632603 0 0)
(0.632615 0 0)
(0.632626 0 0)
(0.632637 0 0)
(0.632648 0 0)
(0.63266 0 0)
(0.632671 0 0)
(0.632682 0 0)
(0.632693 0 0)
(0.632705 0 0)
(0.632716 0 0)
(0.632727 0 0)
(0.632739 0 0)
(0.63275 0 0)
(0.632761 0 0)
(0.632773 0 0)
(0.632784 0 0)
(0.632796 0 0)
(0.632807 0 0)
(0.632818 0 0)
(0.63283 0 0)
(0.632841 0 0)
(0.632853 0 0)
(0.632864 0 0)
(0.632876 0 0)
(0.632887 0 0)
(0.632898 0 0)
(0.63291 0 0)
(0.632921 0 0)
(0.632933 0 0)
(0.632944 0 0)
(0.632956 0 0)
(0.632967 0 0)
(0.632979 0 0)
(0.632991 0 0)
(0.633002 0 0)
(0.633014 0 0)
(0.633025 0 0)
(0.633037 0 0)
(0.633049 0 0)
(0.63306 0 0)
(0.633072 0 0)
(0.633083 0 0)
(0.633095 0 0)
(0.633107 0 0)
(0.633118 0 0)
(0.63313 0 0)
(0.633142 0 0)
(0.633153 0 0)
(0.633165 0 0)
(0.633177 0 0)
(0.633189 0 0)
(0.6332 0 0)
(0.633212 0 0)
(0.633224 0 0)
(0.633236 0 0)
(0.633247 0 0)
(0.633259 0 0)
(0.633271 0 0)
(0.633283 0 0)
(0.633295 0 0)
(0.633306 0 0)
(0.633318 0 0)
(0.63333 0 0)
(0.633342 0 0)
(0.633354 0 0)
(0.633366 0 0)
(0.633378 0 0)
(0.633389 0 0)
(0.633401 0 0)
(0.633413 0 0)
(0.633425 0 0)
(0.633437 0 0)
(0.633449 0 0)
(0.633461 0 0)
(0.633473 0 0)
(0.633485 0 0)
(0.633497 0 0)
(0.633509 0 0)
(0.633521 0 0)
(0.633533 0 0)
(0.633545 0 0)
(0.633557 0 0)
(0.633569 0 0)
(0.633581 0 0)
(0.633593 0 0)
(0.633605 0 0)
(0.633618 0 0)
(0.63363 0 0)
(0.633642 0 0)
(0.633654 0 0)
(0.633666 0 0)
(0.633678 0 0)
(0.63369 0 0)
(0.633703 0 0)
(0.633715 0 0)
(0.633727 0 0)
(0.633739 0 0)
(0.633751 0 0)
(0.633764 0 0)
(0.633776 0 0)
(0.633788 0 0)
(0.6338 0 0)
(0.633813 0 0)
(0.633825 0 0)
(0.633837 0 0)
(0.633849 0 0)
(0.633862 0 0)
(0.633874 0 0)
(0.633886 0 0)
(0.633899 0 0)
(0.633911 0 0)
(0.633923 0 0)
(0.633936 0 0)
(0.633948 0 0)
(0.63396 0 0)
(0.633973 0 0)
(0.633985 0 0)
(0.633998 0 0)
(0.63401 0 0)
(0.634023 0 0)
(0.634035 0 0)
(0.634047 0 0)
(0.63406 0 0)
(0.634072 0 0)
(0.634085 0 0)
(0.634097 0 0)
(0.63411 0 0)
(0.634122 0 0)
(0.634135 0 0)
(0.634148 0 0)
(0.63416 0 0)
(0.634173 0 0)
(0.634185 0 0)
(0.634198 0 0)
(0.63421 0 0)
(0.634223 0 0)
(0.634236 0 0)
(0.634248 0 0)
(0.634261 0 0)
(0.634273 0 0)
(0.634286 0 0)
(0.634299 0 0)
(0.634311 0 0)
(0.634324 0 0)
(0.634337 0 0)
(0.63435 0 0)
(0.634362 0 0)
(0.634375 0 0)
(0.634388 0 0)
(0.6344 0 0)
(0.634413 0 0)
(0.634426 0 0)
(0.634439 0 0)
(0.634452 0 0)
(0.634464 0 0)
(0.634477 0 0)
(0.63449 0 0)
(0.634503 0 0)
(0.634516 0 0)
(0.634528 0 0)
(0.634541 0 0)
(0.634554 0 0)
(0.634567 0 0)
(0.63458 0 0)
(0.634593 0 0)
(0.634606 0 0)
(0.634619 0 0)
(0.634632 0 0)
(0.634645 0 0)
(0.634658 0 0)
(0.63467 0 0)
(0.634683 0 0)
(0.634696 0 0)
(0.634709 0 0)
(0.634722 0 0)
(0.634735 0 0)
(0.634748 0 0)
(0.634761 0 0)
(0.634774 0 0)
(0.634788 0 0)
(0.634801 0 0)
(0.634814 0 0)
(0.634827 0 0)
(0.63484 0 0)
(0.634853 0 0)
(0.634866 0 0)
(0.634879 0 0)
(0.634893 0 0)
(0.634909 0 0)
(0.634925 0 0)
(0.634932 0 0)
(0.634915 0 0)
(0.634906 0 0)
(0.634919 0 0)
(0.634933 0 0)
(0.634946 0 0)
(0.63496 0 0)
(0.634973 0 0)
(0.634986 0 0)
(0.635 0 0)
(0.635013 0 0)
(0.635027 0 0)
(0.63504 0 0)
(0.635053 0 0)
(0.635067 0 0)
(0.63508 0 0)
(0.635094 0 0)
(0.635107 0 0)
(0.635121 0 0)
(0.635134 0 0)
(0.635148 0 0)
(0.635161 0 0)
(0.635175 0 0)
(0.635188 0 0)
(0.635202 0 0)
(0.635215 0 0)
(0.635229 0 0)
(0.635242 0 0)
(0.635256 0 0)
(0.635269 0 0)
(0.635283 0 0)
(0.635296 0 0)
(0.63531 0 0)
(0.635324 0 0)
(0.635337 0 0)
(0.635351 0 0)
(0.635364 0 0)
(0.635378 0 0)
(0.635392 0 0)
(0.635405 0 0)
(0.635419 0 0)
(0.635433 0 0)
(0.635446 0 0)
(0.63546 0 0)
(0.635474 0 0)
(0.635487 0 0)
(0.635501 0 0)
(0.635515 0 0)
(0.635528 0 0)
(0.635542 0 0)
(0.635556 0 0)
(0.635569 0 0)
(0.635583 0 0)
(0.635597 0 0)
(0.635611 0 0)
(0.635624 0 0)
(0.635638 0 0)
(0.635652 0 0)
(0.635666 0 0)
(0.635679 0 0)
(0.635693 0 0)
(0.635707 0 0)
(0.635721 0 0)
(0.635735 0 0)
(0.635748 0 0)
(0.635762 0 0)
(0.635776 0 0)
(0.63579 0 0)
(0.635804 0 0)
(0.635818 0 0)
(0.635831 0 0)
(0.635845 0 0)
(0.635859 0 0)
(0.635873 0 0)
(0.635887 0 0)
(0.635901 0 0)
(0.635915 0 0)
(0.635929 0 0)
(0.635943 0 0)
(0.635957 0 0)
(0.635971 0 0)
(0.635985 0 0)
(0.635998 0 0)
(0.636012 0 0)
(0.636026 0 0)
(0.63604 0 0)
(0.636054 0 0)
(0.636068 0 0)
(0.636082 0 0)
(0.636096 0 0)
(0.63611 0 0)
(0.636124 0 0)
(0.636139 0 0)
(0.636153 0 0)
(0.636167 0 0)
(0.636181 0 0)
(0.636195 0 0)
(0.636209 0 0)
(0.636223 0 0)
(0.636237 0 0)
(0.636251 0 0)
(0.636265 0 0)
(0.636279 0 0)
(0.636294 0 0)
(0.636308 0 0)
(0.636322 0 0)
(0.636336 0 0)
(0.63635 0 0)
(0.636364 0 0)
(0.636379 0 0)
(0.636393 0 0)
(0.636407 0 0)
(0.636421 0 0)
(0.636435 0 0)
(0.63645 0 0)
(0.636464 0 0)
(0.636478 0 0)
(0.636492 0 0)
(0.636507 0 0)
(0.636521 0 0)
(0.636535 0 0)
(0.63655 0 0)
(0.636564 0 0)
(0.636578 0 0)
(0.636592 0 0)
(0.636607 0 0)
(0.636621 0 0)
(0.636636 0 0)
(0.63665 0 0)
(0.636664 0 0)
(0.636679 0 0)
(0.636693 0 0)
(0.636707 0 0)
(0.636722 0 0)
(0.636736 0 0)
(0.636751 0 0)
(0.636765 0 0)
(0.63678 0 0)
(0.636794 0 0)
(0.636808 0 0)
(0.636823 0 0)
(0.636837 0 0)
(0.636852 0 0)
(0.636866 0 0)
(0.636881 0 0)
(0.636895 0 0)
(0.63691 0 0)
(0.636924 0 0)
(0.636939 0 0)
(0.636954 0 0)
(0.636968 0 0)
(0.636983 0 0)
(0.636997 0 0)
(0.637012 0 0)
(0.637026 0 0)
(0.637041 0 0)
(0.637056 0 0)
(0.63707 0 0)
(0.637085 0 0)
(0.6371 0 0)
(0.637114 0 0)
(0.637129 0 0)
(0.637144 0 0)
(0.637158 0 0)
(0.637173 0 0)
(0.637188 0 0)
(0.637202 0 0)
(0.637217 0 0)
(0.637232 0 0)
(0.637247 0 0)
(0.637261 0 0)
(0.637276 0 0)
(0.637291 0 0)
(0.637306 0 0)
(0.637322 0 0)
(0.637339 0 0)
(0.637349 0 0)
(0.637346 0 0)
(0.63734 0 0)
(0.637392 0 0)
(0.637598 0 0)
(0.637859 0 0)
(0.637671 0 0)
(0.637537 0 0)
(0.637558 0 0)
(0.637568 0 0)
(0.637576 0 0)
(0.637592 0 0)
(0.637616 0 0)
(0.637637 0 0)
(0.637647 0 0)
(0.637655 0 0)
(0.63767 0 0)
(0.637692 0 0)
(0.637711 0 0)
(0.637723 0 0)
(0.637739 0 0)
(0.637755 0 0)
(0.637771 0 0)
(0.63779 0 0)
(0.637803 0 0)
(0.637819 0 0)
(0.637832 0 0)
(0.637846 0 0)
(0.637865 0 0)
(0.637883 0 0)
(0.637898 0 0)
(0.637912 0 0)
(0.637925 0 0)
(0.637943 0 0)
(0.637974 0 0)
(0.638005 0 0)
(0.638025 0 0)
(0.63802 0 0)
(0.637987 0 0)
(0.637948 0 0)
(0.63794 0 0)
(0.638022 0 0)
(0.638227 0 0)
(0.638492 0 0)
(0.638641 0 0)
(0.638444 0 0)
(0.637739 0 0)
(0.636677 0 0)
(0.635935 0 0)
(0.636578 0 0)
(0.639424 0 0)
(0.644023 0 0)
(0.647821 0 0)
(0.646547 0 0)
(0.636425 0 0)
(0.617713 0 0)
(0.598849 0 0)
(0.599019 0 0)
(0.640356 0 0)
(0.721797 0 0)
(0.799714 0 0)
(0.822673 0 0)
(0.797043 0 0)
(0.767975 0 0)
(0.752709 0 0)
(0.74656 0 0)
(0.744225 0 0)
(0.743268 0 0)
(0.74279 0 0)
(0.742493 0 0)
(0.742241 0 0)
(0.742019 0 0)
(0.741786 0 0)
(0.741548 0 0)
(0.741307 0 0)
(0.741066 0 0)
(0.74084 0 0)
(0.7406 0 0)
(0.740355 0 0)
(0.740121 0 0)
(0.739872 0 0)
(0.739616 0 0)
(0.739369 0 0)
(0.739102 0 0)
(0.738823 0 0)
(0.738534 0 0)
(0.738241 0 0)
(0.737959 0 0)
(0.737671 0 0)
(0.737354 0 0)
(0.737016 0 0)
(0.736668 0 0)
(0.736282 0 0)
(0.735856 0 0)
(0.735386 0 0)
(0.734865 0 0)
(0.734236 0 0)
(0.733447 0 0)
(0.732395 0 0)
(0.730848 0 0)
(0.728444 0 0)
(0.724565 0 0)
(0.718465 0 0)
(0.70977 0 0)
(0.700004 0 0)
(0.695355 0 0)
(0.70957 0 0)
(0.738003 0 0)
(0.737788 0 0)
(0.737575 0 0)
(0.737364 0 0)
(0.737155 0 0)
(0.736949 0 0)
(0.736744 0 0)
(0.736541 0 0)
(0.73634 0 0)
(0.736142 0 0)
(0.735945 0 0)
(0.735749 0 0)
(0.735556 0 0)
(0.735364 0 0)
(0.735175 0 0)
(0.734986 0 0)
(0.7348 0 0)
(0.734615 0 0)
(0.734432 0 0)
(0.73425 0 0)
(0.73407 0 0)
(0.733892 0 0)
(0.733715 0 0)
(0.733539 0 0)
(0.733365 0 0)
(0.733193 0 0)
(0.733022 0 0)
(0.732853 0 0)
(0.732685 0 0)
(0.732518 0 0)
(0.732353 0 0)
(0.732189 0 0)
(0.732027 0 0)
(0.731866 0 0)
(0.731707 0 0)
(0.731549 0 0)
(0.731392 0 0)
(0.731236 0 0)
(0.731082 0 0)
(0.730929 0 0)
(0.730778 0 0)
(0.730628 0 0)
(0.730479 0 0)
(0.730331 0 0)
(0.730184 0 0)
(0.730039 0 0)
(0.729895 0 0)
(0.729752 0 0)
(0.729611 0 0)
(0.72947 0 0)
(0.729331 0 0)
(0.729192 0 0)
(0.729055 0 0)
(0.728919 0 0)
(0.728784 0 0)
(0.72865 0 0)
(0.728517 0 0)
(0.728386 0 0)
(0.728255 0 0)
(0.728125 0 0)
(0.727996 0 0)
(0.727869 0 0)
(0.727742 0 0)
(0.727616 0 0)
(0.727491 0 0)
(0.727367 0 0)
(0.727244 0 0)
(0.727122 0 0)
(0.727001 0 0)
(0.726881 0 0)
(0.726762 0 0)
(0.726644 0 0)
(0.726527 0 0)
(0.72641 0 0)
(0.726295 0 0)
(0.72618 0 0)
(0.726066 0 0)
(0.725953 0 0)
(0.725842 0 0)
(0.725731 0 0)
(0.725622 0 0)
(0.725513 0 0)
(0.725402 0 0)
(0.725286 0 0)
(0.725168 0 0)
(0.725066 0 0)
(0.725019 0 0)
(0.725051 0 0)
(0.725035 0 0)
(0.724931 0 0)
(0.724828 0 0)
(0.724725 0 0)
(0.724624 0 0)
(0.724523 0 0)
(0.724423 0 0)
(0.724324 0 0)
(0.724225 0 0)
(0.724128 0 0)
(0.724031 0 0)
(0.723935 0 0)
(0.72384 0 0)
(0.723745 0 0)
(0.723651 0 0)
(0.723559 0 0)
(0.723466 0 0)
(0.723375 0 0)
(0.723284 0 0)
(0.723195 0 0)
(0.723106 0 0)
(0.723017 0 0)
(0.72293 0 0)
(0.722843 0 0)
(0.722757 0 0)
(0.722672 0 0)
(0.722587 0 0)
(0.722503 0 0)
(0.72242 0 0)
(0.722338 0 0)
(0.722256 0 0)
(0.722175 0 0)
(0.722095 0 0)
(0.722015 0 0)
(0.721937 0 0)
(0.721858 0 0)
(0.721781 0 0)
(0.721704 0 0)
(0.721628 0 0)
(0.721553 0 0)
(0.721478 0 0)
(0.721404 0 0)
(0.72133 0 0)
(0.721258 0 0)
(0.721186 0 0)
(0.721114 0 0)
(0.721043 0 0)
(0.720973 0 0)
(0.720904 0 0)
(0.720835 0 0)
(0.720766 0 0)
(0.720699 0 0)
(0.720631 0 0)
(0.720565 0 0)
(0.720499 0 0)
(0.720434 0 0)
(0.720369 0 0)
(0.720305 0 0)
(0.720241 0 0)
(0.720178 0 0)
(0.720116 0 0)
(0.720054 0 0)
(0.719993 0 0)
(0.719932 0 0)
(0.719872 0 0)
(0.719812 0 0)
(0.719753 0 0)
(0.719695 0 0)
(0.719637 0 0)
(0.71958 0 0)
(0.719523 0 0)
(0.719467 0 0)
(0.719411 0 0)
(0.719356 0 0)
(0.719302 0 0)
(0.719248 0 0)
(0.719194 0 0)
(0.719142 0 0)
(0.71909 0 0)
(0.719038 0 0)
(0.718988 0 0)
(0.718938 0 0)
(0.718888 0 0)
(0.718839 0 0)
(0.718791 0 0)
(0.718744 0 0)
(0.718697 0 0)
(0.718651 0 0)
(0.718606 0 0)
(0.718562 0 0)
(0.718518 0 0)
(0.718475 0 0)
(0.718433 0 0)
(0.718391 0 0)
(0.71835 0 0)
(0.71831 0 0)
(0.71827 0 0)
(0.71823 0 0)
(0.718192 0 0)
(0.718153 0 0)
(0.718115 0 0)
(0.718077 0 0)
(0.71804 0 0)
(0.718002 0 0)
(0.717965 0 0)
(0.717927 0 0)
(0.71789 0 0)
(0.717852 0 0)
(0.717814 0 0)
(0.717776 0 0)
(0.717738 0 0)
(0.717699 0 0)
(0.71766 0 0)
(0.717621 0 0)
(0.717582 0 0)
(0.717542 0 0)
(0.717503 0 0)
(0.717464 0 0)
(0.717425 0 0)
(0.717387 0 0)
(0.717349 0 0)
(0.717312 0 0)
(0.717276 0 0)
(0.717241 0 0)
(0.717208 0 0)
(0.717176 0 0)
(0.717146 0 0)
(0.717117 0 0)
(0.717091 0 0)
(0.717068 0 0)
(0.717046 0 0)
(0.717027 0 0)
(0.717011 0 0)
(0.716997 0 0)
(0.716986 0 0)
(0.716977 0 0)
(0.71697 0 0)
(0.716966 0 0)
(0.716964 0 0)
(0.716963 0 0)
(0.716965 0 0)
(0.716968 0 0)
(0.716973 0 0)
(0.716978 0 0)
(0.716985 0 0)
(0.716992 0 0)
(0.716999 0 0)
(0.717006 0 0)
(0.717013 0 0)
(0.717019 0 0)
(0.717024 0 0)
(0.717029 0 0)
(0.717033 0 0)
(0.717037 0 0)
(0.717039 0 0)
(0.717033 0 0)
(0.717012 0 0)
(0.71698 0 0)
(0.716986 0 0)
(0.717132 0 0)
(0.71747 0 0)
(0.717668 0 0)
(0.716649 0 0)
(0.713069 0 0)
(0.708283 0 0)
(0.71207 0 0)
(0.742798 0 0)
(0.802616 0 0)
(0.842146 0 0)
(0.804206 0 0)
(0.734807 0 0)
(0.703196 0 0)
(0.696148 0 0)
(0.694989 0 0)
(0.694878 0 0)
(0.694943 0 0)
(0.695037 0 0)
(0.695138 0 0)
(0.695241 0 0)
(0.695345 0 0)
(0.695451 0 0)
(0.695558 0 0)
(0.695667 0 0)
(0.695777 0 0)
(0.695889 0 0)
(0.696002 0 0)
(0.696117 0 0)
(0.696233 0 0)
(0.69635 0 0)
(0.696469 0 0)
(0.69659 0 0)
(0.696711 0 0)
(0.696834 0 0)
(0.696959 0 0)
(0.697085 0 0)
(0.697212 0 0)
(0.697341 0 0)
(0.697471 0 0)
(0.697603 0 0)
(0.697736 0 0)
(0.69787 0 0)
(0.698006 0 0)
(0.698144 0 0)
(0.698282 0 0)
(0.698422 0 0)
(0.698564 0 0)
(0.698706 0 0)
(0.69885 0 0)
(0.698996 0 0)
(0.699143 0 0)
(0.699291 0 0)
(0.69944 0 0)
(0.699591 0 0)
(0.699743 0 0)
(0.699896 0 0)
(0.70005 0 0)
(0.700206 0 0)
(0.700363 0 0)
(0.700521 0 0)
(0.700681 0 0)
(0.700841 0 0)
(0.701003 0 0)
(0.701166 0 0)
(0.70133 0 0)
(0.701495 0 0)
(0.701662 0 0)
(0.701829 0 0)
(0.701998 0 0)
(0.702167 0 0)
(0.702338 0 0)
(0.70251 0 0)
(0.702683 0 0)
(0.702856 0 0)
(0.703031 0 0)
(0.703207 0 0)
(0.703384 0 0)
(0.703562 0 0)
(0.703741 0 0)
(0.703921 0 0)
(0.704101 0 0)
(0.704283 0 0)
(0.704466 0 0)
(0.704649 0 0)
(0.704834 0 0)
(0.705019 0 0)
(0.705205 0 0)
(0.705392 0 0)
(0.70558 0 0)
(0.705769 0 0)
(0.705958 0 0)
(0.706149 0 0)
(0.70634 0 0)
(0.706532 0 0)
(0.706725 0 0)
(0.706918 0 0)
(0.707112 0 0)
(0.707307 0 0)
(0.707503 0 0)
(0.7077 0 0)
(0.707897 0 0)
(0.708095 0 0)
(0.708293 0 0)
(0.708493 0 0)
(0.708693 0 0)
(0.708893 0 0)
(0.709094 0 0)
(0.709296 0 0)
(0.709499 0 0)
(0.709702 0 0)
(0.709906 0 0)
(0.71011 0 0)
(0.710315 0 0)
(0.710521 0 0)
(0.710727 0 0)
(0.710933 0 0)
(0.711141 0 0)
(0.711349 0 0)
(0.711557 0 0)
(0.711766 0 0)
(0.711976 0 0)
(0.712186 0 0)
(0.712397 0 0)
(0.712608 0 0)
(0.71282 0 0)
(0.713032 0 0)
(0.713245 0 0)
(0.713459 0 0)
(0.713673 0 0)
(0.713888 0 0)
(0.714103 0 0)
(0.714318 0 0)
(0.714535 0 0)
(0.714751 0 0)
(0.714969 0 0)
(0.715187 0 0)
(0.715405 0 0)
(0.715624 0 0)
(0.715844 0 0)
(0.716064 0 0)
(0.716286 0 0)
(0.716493 0 0)
(0.716632 0 0)
(0.716778 0 0)
(0.71699 0 0)
(0.717212 0 0)
(0.717436 0 0)
(0.717661 0 0)
(0.717887 0 0)
(0.718113 0 0)
(0.718341 0 0)
(0.718569 0 0)
(0.718797 0 0)
(0.719027 0 0)
(0.719257 0 0)
(0.719488 0 0)
(0.719719 0 0)
(0.719952 0 0)
(0.720185 0 0)
(0.720419 0 0)
(0.720654 0 0)
(0.72089 0 0)
(0.721126 0 0)
(0.721363 0 0)
(0.721601 0 0)
(0.72184 0 0)
(0.722079 0 0)
(0.722319 0 0)
(0.722561 0 0)
(0.722802 0 0)
(0.723045 0 0)
(0.723288 0 0)
(0.723532 0 0)
(0.723777 0 0)
(0.724023 0 0)
(0.724269 0 0)
(0.724516 0 0)
(0.724764 0 0)
(0.725012 0 0)
(0.725261 0 0)
(0.725511 0 0)
(0.725761 0 0)
(0.726012 0 0)
(0.726264 0 0)
(0.726516 0 0)
(0.726769 0 0)
(0.727022 0 0)
(0.727276 0 0)
(0.72753 0 0)
(0.727785 0 0)
(0.72804 0 0)
(0.728296 0 0)
(0.728552 0 0)
(0.728808 0 0)
(0.729065 0 0)
(0.729322 0 0)
(0.729579 0 0)
(0.729836 0 0)
(0.730094 0 0)
(0.730352 0 0)
(0.73061 0 0)
(0.730868 0 0)
(0.731126 0 0)
(0.731384 0 0)
(0.731642 0 0)
(0.731901 0 0)
(0.732159 0 0)
(0.732417 0 0)
(0.732675 0 0)
(0.732933 0 0)
(0.733191 0 0)
(0.733449 0 0)
(0.733707 0 0)
(0.733965 0 0)
(0.734222 0 0)
(0.73448 0 0)
(0.734737 0 0)
(0.734994 0 0)
(0.735252 0 0)
(0.735509 0 0)
(0.735766 0 0)
(0.736023 0 0)
(0.73628 0 0)
(0.736537 0 0)
(0.736794 0 0)
(0.737051 0 0)
(0.737308 0 0)
(0.737566 0 0)
(0.737824 0 0)
(0.738082 0 0)
(0.738341 0 0)
(0.7386 0 0)
(0.738859 0 0)
(0.73912 0 0)
(0.739381 0 0)
(0.739643 0 0)
(0.739905 0 0)
(0.740169 0 0)
(0.740434 0 0)
(0.7407 0 0)
(0.740968 0 0)
(0.741237 0 0)
(0.741508 0 0)
(0.74178 0 0)
(0.742054 0 0)
(0.74233 0 0)
(0.742608 0 0)
(0.742888 0 0)
(0.743171 0 0)
(0.743456 0 0)
(0.743744 0 0)
(0.744034 0 0)
(0.744327 0 0)
(0.744623 0 0)
(0.744921 0 0)
(0.745223 0 0)
(0.745528 0 0)
(0.745837 0 0)
(0.746148 0 0)
(0.746464 0 0)
(0.746782 0 0)
(0.747104 0 0)
(0.74743 0 0)
(0.747759 0 0)
(0.748092 0 0)
(0.748429 0 0)
(0.748769 0 0)
(0.749113 0 0)
(0.749461 0 0)
(0.749812 0 0)
(0.750167 0 0)
(0.750525 0 0)
(0.750886 0 0)
(0.751251 0 0)
(0.75162 0 0)
(0.751991 0 0)
(0.752365 0 0)
(0.752742 0 0)
(0.753122 0 0)
(0.753505 0 0)
(0.75389 0 0)
(0.754277 0 0)
(0.754666 0 0)
(0.755056 0 0)
(0.755449 0 0)
(0.755842 0 0)
(0.756237 0 0)
(0.756633 0 0)
(0.757029 0 0)
(0.757425 0 0)
(0.757822 0 0)
(0.758218 0 0)
(0.758614 0 0)
(0.759009 0 0)
(0.759403 0 0)
(0.759795 0 0)
(0.760186 0 0)
(0.760575 0 0)
(0.760961 0 0)
(0.761345 0 0)
(0.761727 0 0)
(0.762105 0 0)
(0.762479 0 0)
(0.762851 0 0)
(0.763218 0 0)
(0.763581 0 0)
(0.763939 0 0)
(0.764293 0 0)
(0.764643 0 0)
(0.764987 0 0)
(0.765325 0 0)
(0.765659 0 0)
(0.765987 0 0)
(0.766309 0 0)
(0.766625 0 0)
(0.766935 0 0)
(0.767239 0 0)
(0.767536 0 0)
(0.767827 0 0)
(0.768112 0 0)
(0.768391 0 0)
(0.768663 0 0)
(0.768929 0 0)
(0.769188 0 0)
(0.769441 0 0)
(0.769687 0 0)
(0.769927 0 0)
(0.770161 0 0)
(0.770388 0 0)
(0.77061 0 0)
(0.770826 0 0)
(0.771036 0 0)
(0.77124 0 0)
(0.771439 0 0)
(0.771632 0 0)
(0.77182 0 0)
(0.772004 0 0)
(0.772182 0 0)
(0.772356 0 0)
(0.772526 0 0)
(0.772692 0 0)
(0.772854 0 0)
(0.773012 0 0)
(0.773167 0 0)
(0.773318 0 0)
(0.773467 0 0)
(0.773613 0 0)
(0.773757 0 0)
(0.773899 0 0)
(0.774038 0 0)
(0.774176 0 0)
(0.774312 0 0)
(0.774447 0 0)
(0.774581 0 0)
(0.774715 0 0)
(0.774847 0 0)
(0.774979 0 0)
(0.775111 0 0)
(0.775243 0 0)
(0.775375 0 0)
(0.775507 0 0)
(0.77564 0 0)
(0.775773 0 0)
(0.775907 0 0)
(0.776042 0 0)
(0.776178 0 0)
(0.776315 0 0)
(0.776453 0 0)
(0.776592 0 0)
(0.776732 0 0)
(0.776874 0 0)
(0.777018 0 0)
(0.777163 0 0)
(0.777309 0 0)
(0.777457 0 0)
(0.777607 0 0)
(0.777758 0 0)
(0.777911 0 0)
(0.778065 0 0)
(0.778221 0 0)
(0.778379 0 0)
(0.778538 0 0)
(0.778699 0 0)
(0.778861 0 0)
(0.779024 0 0)
(0.779189 0 0)
(0.779356 0 0)
(0.779523 0 0)
(0.779692 0 0)
(0.779862 0 0)
(0.780033 0 0)
(0.780205 0 0)
(0.780378 0 0)
(0.780552 0 0)
(0.780727 0 0)
(0.780902 0 0)
(0.781079 0 0)
(0.781255 0 0)
(0.781433 0 0)
(0.78161 0 0)
(0.781788 0 0)
(0.781967 0 0)
(0.782146 0 0)
(0.782324 0 0)
(0.782503 0 0)
(0.782682 0 0)
(0.782861 0 0)
(0.783039 0 0)
(0.783218 0 0)
(0.783396 0 0)
(0.783574 0 0)
(0.783752 0 0)
(0.783929 0 0)
(0.784105 0 0)
(0.784281 0 0)
(0.784457 0 0)
(0.784632 0 0)
(0.784806 0 0)
(0.784979 0 0)
(0.785152 0 0)
(0.785324 0 0)
(0.785495 0 0)
(0.785665 0 0)
(0.785834 0 0)
(0.786002 0 0)
(0.78617 0 0)
(0.786336 0 0)
(0.786502 0 0)
(0.786666 0 0)
(0.78683 0 0)
(0.786992 0 0)
(0.787154 0 0)
(0.787314 0 0)
(0.787474 0 0)
(0.787632 0 0)
(0.78779 0 0)
(0.787946 0 0)
(0.788102 0 0)
(0.788256 0 0)
(0.78841 0 0)
(0.788563 0 0)
(0.788715 0 0)
(0.788866 0 0)
(0.789016 0 0)
(0.789165 0 0)
(0.789314 0 0)
(0.789462 0 0)
(0.789609 0 0)
(0.789755 0 0)
(0.789901 0 0)
(0.790046 0 0)
(0.79019 0 0)
(0.790334 0 0)
(0.790477 0 0)
(0.79062 0 0)
(0.790763 0 0)
(0.790905 0 0)
(0.791047 0 0)
(0.791188 0 0)
(0.791329 0 0)
(0.79147 0 0)
(0.791611 0 0)
(0.791752 0 0)
(0.791893 0 0)
(0.792033 0 0)
(0.792174 0 0)
(0.792314 0 0)
(0.792455 0 0)
(0.792596 0 0)
(0.792737 0 0)
(0.792878 0 0)
(0.793019 0 0)
(0.79316 0 0)
(0.793302 0 0)
(0.793444 0 0)
(0.793587 0 0)
(0.79373 0 0)
(0.793873 0 0)
(0.794017 0 0)
(0.794161 0 0)
(0.794305 0 0)
(0.79445 0 0)
(0.794596 0 0)
(0.794742 0 0)
(0.794888 0 0)
(0.795035 0 0)
(0.795183 0 0)
(0.795331 0 0)
(0.795479 0 0)
(0.795628 0 0)
(0.795778 0 0)
(0.795928 0 0)
(0.796078 0 0)