/*--------------------------------*- C++ -*----------------------------------*\
| =========                 |                                                 |
| \\      /  F ield         | foam-extend: Open Source CFD                    |
|  \\    /   O peration     | Version:     3.1                                |
|   \\  /    A nd           | Web:         http://www.extend-project.de       |
|    \\/     M anipulation  |                                                 |
\*---------------------------------------------------------------------------*/
FoamFile
{
    version     2.0;
    format      ascii;
    class       volScalarField;
    location    "12";
    object      nut;
}
// * * * * * * * * * * * * * * * * * * * * * * * * * * * * * * * * * * * * * //

dimensions      [0 2 -1 0 0 0 0];

internalField   nonuniform List<scalar> 
2539
(
0.0351174
0.0351132
0.0351209
0.035128
0.0351352
0.0351424
0.0351496
0.0351568
0.035164
0.0351712
0.0351784
0.0351856
0.0351929
0.0352001
0.0352074
0.0352147
0.035222
0.0352292
0.0352365
0.0352438
0.0352512
0.0352585
0.0352658
0.0352732
0.0352805
0.0352879
0.0352953
0.0353027
0.0353101
0.0353175
0.0353249
0.0353323
0.0353397
0.0353472
0.0353546
0.0353621
0.0353696
0.035377
0.0353845
0.035392
0.0353996
0.0354071
0.0354146
0.0354222
0.0354297
0.0354373
0.0354449
0.0354525
0.0354601
0.0354677
0.0354753
0.0354829
0.0354905
0.0354982
0.0355059
0.0355135
0.0355212
0.0355289
0.0355366
0.0355443
0.0355521
0.0355598
0.0355675
0.0355753
0.0355831
0.0355909
0.0355987
0.0356065
0.0356143
0.0356221
0.0356299
0.0356378
0.0356457
0.0356535
0.0356614
0.0356693
0.0356772
0.0356851
0.0356931
0.035701
0.035709
0.035717
0.0357249
0.0357329
0.0357409
0.0357489
0.035757
0.035765
0.0357731
0.0357811
0.0357892
0.0357973
0.0358054
0.0358135
0.0358217
0.0358298
0.035838
0.0358461
0.0358543
0.0358625
0.0358707
0.0358789
0.0358872
0.0358954
0.0359037
0.0359119
0.0359202
0.0359285
0.0359368
0.0359451
0.0359535
0.0359618
0.0359702
0.0359786
0.035987
0.0359954
0.0360038
0.0360122
0.0360207
0.0360292
0.0360376
0.0360461
0.0360546
0.0360632
0.0360717
0.0360803
0.0360888
0.0360974
0.036106
0.0361146
0.0361232
0.0361319
0.0361405
0.0361492
0.0361579
0.0361666
0.0361753
0.036184
0.0361928
0.0362015
0.0362103
0.0362191
0.0362279
0.0362367
0.0362456
0.0362544
0.0362633
0.0362722
0.0362811
0.03629
0.036299
0.0363079
0.0363169
0.0363259
0.0363349
0.0363439
0.036353
0.036362
0.0363711
0.0363802
0.0363893
0.0363984
0.0364076
0.0364167
0.0364259
0.0364351
0.0364443
0.0364536
0.0364628
0.0364721
0.0364814
0.0364907
0.0365
0.0365094
0.0365187
0.0365281
0.0365375
0.0365469
0.0365564
0.0365658
0.0365753
0.0365848
0.0365943
0.0366039
0.0366032
0.0244141
0.0244358
0.024439
0.0244414
0.0244436
0.0244459
0.0244481
0.0244504
0.0244527
0.0244549
0.0244572
0.0244594
0.0244617
0.024464
0.0244662
0.0244685
0.0244708
0.024473
0.0244753
0.0244776
0.0244799
0.0244821
0.0244844
0.0244867
0.0244889
0.0244912
0.0244935
0.0244958
0.024498
0.0245003
0.0245026
0.0245049
0.0245072
0.0245094
0.0245117
0.024514
0.0245163
0.0245186
0.0245208
0.0245231
0.0245254
0.0245277
0.02453
0.0245323
0.0245346
0.0245369
0.0245392
0.0245414
0.0245437
0.024546
0.0245483
0.0245506
0.0245529
0.0245552
0.0245575
0.0245598
0.0245621
0.0245644
0.0245667
0.024569
0.0245713
0.0245736
0.0245759
0.0245783
0.0245806
0.0245829
0.0245852
0.0245875
0.0245898
0.0245921
0.0245944
0.0245967
0.0245991
0.0246014
0.0246037
0.024606
0.0246083
0.0246107
0.024613
0.0246153
0.0246176
0.02462
0.0246223
0.0246246
0.0246269
0.0246293
0.0246316
0.0246339
0.0246363
0.0246386
0.0246409
0.0246433
0.0246456
0.0246479
0.0246503
0.0246526
0.024655
0.0246573
0.0246596
0.024662
0.0246643
0.0246667
0.024669
0.0246714
0.0246737
0.0246761
0.0246784
0.0246808
0.0246831
0.0246855
0.0246879
0.0246902
0.0246926
0.0246949
0.0246973
0.0246997
0.024702
0.0247044
0.0247068
0.0247091
0.0247115
0.0247139
0.0247162
0.0247186
0.024721
0.0247234
0.0247258
0.0247281
0.0247305
0.0247329
0.0247353
0.0247377
0.02474
0.0247424
0.0247448
0.0247472
0.0247496
0.024752
0.0247544
0.0247568
0.0247592
0.0247616
0.024764
0.0247664
0.0247688
0.0247712
0.0247736
0.024776
0.0247784
0.0247808
0.0247832
0.0247856
0.024788
0.0247904
0.0247929
0.0247953
0.0247977
0.0248001
0.0248025
0.024805
0.0248074
0.0248098
0.0248122
0.0248147
0.0248171
0.0248195
0.024822
0.0248244
0.0248268
0.0248293
0.0248317
0.0248342
0.0248366
0.0248391
0.0248415
0.0248439
0.0248464
0.0248489
0.0248513
0.0248538
0.0248562
0.0248587
0.0248611
0.0248636
0.0248661
0.0248685
0.024871
0.0248735
0.0248759
0.0248784
0.0248809
0.0248833
0.0248858
0.0248883
0.0248908
0.0248933
0.0248957
0.0248984
0.0248968
0.0249855
0.0169181
0.0172533
0.0176302
0.0178534
0.0179788
0.0180574
0.0181123
0.0181543
0.018189
0.018219
0.0182461
0.018271
0.0182943
0.0183163
0.0183373
0.0183575
0.0183769
0.0183957
0.018414
0.0184318
0.0184491
0.018466
0.0184826
0.0184988
0.0185148
0.0185304
0.0185458
0.0185609
0.0185758
0.0185905
0.0186051
0.0186194
0.0186335
0.0186475
0.0186614
0.018675
0.0186886
0.018702
0.0187153
0.0187285
0.0187415
0.0187545
0.0187674
0.0187801
0.0187928
0.0188054
0.0188179
0.0188303
0.0188426
0.0188549
0.0188671
0.0188793
0.0188914
0.0189034
0.0189154
0.0189273
0.0189391
0.018951
0.0189627
0.0189745
0.0189862
0.0189979
0.0190095
0.0190211
0.0190327
0.0190442
0.0190558
0.0190673
0.0190788
0.0190903
0.0191017
0.0191132
0.0191247
0.0191362
0.0191477
0.0191591
0.0191707
0.0191822
0.0191938
0.0192054
0.019217
0.0192287
0.0192404
0.0192522
0.0192641
0.0192761
0.0192882
0.0193004
0.0193127
0.0193252
0.0193379
0.0193508
0.019364
0.0193776
0.0193916
0.0194062
0.0194218
0.0194387
0.0194575
0.0194791
0.0195425
0.0195833
0.0196206
0.019655
0.019687
0.0197169
0.0197451
0.0197718
0.0197971
0.0198212
0.0198442
0.0198664
0.0198876
0.0199081
0.0199279
0.019947
0.0199655
0.0199835
0.020001
0.020018
0.0200345
0.0200507
0.0200665
0.0200819
0.0200969
0.0201116
0.0201261
0.0201402
0.0201541
0.0201677
0.0201811
0.0201942
0.0202071
0.0202198
0.0202323
0.0202446
0.0202567
0.0202686
0.0202804
0.0202919
0.0203034
0.0203146
0.0203257
0.0203367
0.0203475
0.0203582
0.0203688
0.0203792
0.0203895
0.0203997
0.0204098
0.0204198
0.0204296
0.0204394
0.020449
0.0204586
0.020468
0.0204774
0.0204866
0.0204958
0.0205049
0.0205139
0.0205228
0.0205317
0.0205404
0.0205491
0.0205577
0.0205662
0.0205747
0.0205831
0.0205914
0.0205997
0.0206078
0.020616
0.020624
0.020632
0.0206399
0.0206478
0.0206556
0.0206634
0.0206711
0.0206787
0.0206863
0.0206939
0.0207013
0.0207088
0.0207161
0.0207235
0.0207308
0.020738
0.0207452
0.0207523
0.0207594
0.0207664
0.0207734
0.0207802
0.0207872
0.0207946
0.0208028
0.0208115
0.0208181
0.0208226
0.020827
0.0208314
0.0208358
0.0208402
0.0208446
0.0208489
0.0208533
0.0208576
0.0208619
0.0208662
0.0208705
0.0208748
0.020879
0.0208832
0.0208875
0.0208917
0.0208959
0.0209
0.0209042
0.0209083
0.0209125
0.0209166
0.0209207
0.0209248
0.0209289
0.0209329
0.020937
0.020941
0.020945
0.020949
0.020953
0.020957
0.020961
0.0209649
0.0209689
0.0209728
0.0209767
0.0209806
0.0209845
0.0209884
0.0209923
0.0209962
0.021
0.0210038
0.0210077
0.0210115
0.0210153
0.0210191
0.0210228
0.0210266
0.0210304
0.0210341
0.0210379
0.0210416
0.0210453
0.021049
0.0210527
0.0210564
0.02106
0.0210637
0.0210674
0.021071
0.0210746
0.0210782
0.0210819
0.0210855
0.021089
0.0210926
0.0210962
0.0210998
0.0211033
0.0211069
0.0211104
0.0211139
0.0211174
0.0211209
0.0211244
0.0211279
0.0211314
0.0211349
0.0211383
0.0211418
0.0211452
0.0211486
0.0211521
0.0211555
0.0211589
0.0211623
0.0211657
0.0211691
0.0211724
0.0211758
0.0211792
0.0211825
0.0211859
0.0211892
0.0211925
0.0211958
0.0211991
0.0212024
0.0212057
0.021209
0.0212123
0.0212156
0.0212188
0.0212221
0.0212253
0.0212286
0.0212318
0.021235
0.0212382
0.0212415
0.0212447
0.0212479
0.021251
0.0212542
0.0212574
0.0212606
0.0212637
0.0212669
0.02127
0.0212732
0.0212763
0.0212794
0.0212825
0.0212856
0.0212887
0.0212918
0.0212949
0.021298
0.0213011
0.0213042
0.0213072
0.0213103
0.0213133
0.0213164
0.0213194
0.0213225
0.0213255
0.0213285
0.0213315
0.0213345
0.0213375
0.0213405
0.0213435
0.0213465
0.0213495
0.0213525
0.0213554
0.0213584
0.0213613
0.0213643
0.0213672
0.0213702
0.0213731
0.021376
0.0213789
0.0213819
0.0213848
0.0213877
0.0213906
0.0213935
0.0213963
0.0213992
0.0214021
0.021405
0.0214078
0.0214107
0.0214135
0.0214164
0.0214192
0.0214221
0.0214249
0.0214277
0.0214305
0.0214334
0.0214362
0.021439
0.0214418
0.0214446
0.0214474
0.0214501
0.0214529
0.0214557
0.0214585
0.0214612
0.021464
0.0214668
0.0214695
0.0214722
0.021475
0.0214777
0.0214805
0.0214832
0.0214859
0.0214886
0.0214913
0.021494
0.0214967
0.0214994
0.0215021
0.0215048
0.0215075
0.0215102
0.0215129
0.0215155
0.0215182
0.0215209
0.0215235
0.0215262
0.0215288
0.0215315
0.0215341
0.0215367
0.0215394
0.021542
0.0215446
0.0215472
0.0215499
0.0215525
0.0215551
0.0215577
0.0215603
0.0215629
0.0215654
0.021568
0.0215706
0.0215732
0.0215758
0.0215783
0.0215809
0.0215835
0.021586
0.0215886
0.0215911
0.0215937
0.0215962
0.0215987
0.0216013
0.0216038
0.0216063
0.0216088
0.0216114
0.0216139
0.0216164
0.0216189
0.0216214
0.0216239
0.0216264
0.0216289
0.0216314
0.0216338
0.0216363
0.0216388
0.0216413
0.0216437
0.0216462
0.0216487
0.0216511
0.0216536
0.021656
0.0216585
0.0216609
0.0216633
0.0216658
0.0216682
0.0216706
0.0216731
0.0216755
0.0216779
0.0216803
0.0216827
0.0216851
0.0216875
0.0216899
0.0216923
0.0216947
0.0216971
0.0216995
0.0217019
0.0217043
0.0217067
0.021709
0.0217114
0.0217138
0.0217161
0.0217185
0.0217209
0.0217232
0.0217256
0.0217279
0.0217303
0.0217326
0.0217349
0.0217373
0.0217396
0.0217419
0.0217443
0.0217466
0.0217489
0.0217512
0.0217535
0.0217558
0.0217581
0.0217605
0.0217628
0.0217651
0.0217673
0.0217696
0.0217719
0.0217742
0.0217765
0.0217788
0.0217811
0.0217833
0.0217856
0.0217879
0.0217901
0.0217924
0.0217947
0.0217969
0.0217992
0.0218014
0.0218037
0.0218059
0.0218082
0.0218104
0.0218126
0.0218149
0.0218171
0.0218193
0.0218216
0.0218238
0.021826
0.0218282
0.0218304
0.0218327
0.0218349
0.0218371
0.0218393
0.0218415
0.0218437
0.0218459
0.0218481
0.0218504
0.0218526
0.0218545
0.0218559
0.0218577
0.0218605
0.0218633
0.0218661
0.0218688
0.0218716
0.0218744
0.0218771
0.0218799
0.0218826
0.0218853
0.0218881
0.0218908
0.0218935
0.0218962
0.021899
0.0219017
0.0219044
0.0219071
0.0219098
0.0219125
0.0219152
0.0219179
0.0219206
0.0219232
0.0219259
0.0219286
0.0219313
0.0219339
0.0219366
0.0219392
0.0219419
0.0219445
0.0219472
0.0219498
0.0219524
0.0219551
0.0219577
0.0219603
0.0219629
0.0219656
0.0219682
0.0219708
0.0219734
0.021976
0.0219786
0.0219812
0.0219838
0.0219863
0.0219889
0.0219915
0.0219941
0.0219966
0.0219992
0.0220018
0.0220043
0.0220069
0.0220094
0.022012
0.0220145
0.0220171
0.0220196
0.0220221
0.0220247
0.0220272
0.0220297
0.0220322
0.0220348
0.0220373
0.0220398
0.0220423
0.0220448
0.0220473
0.0220498
0.0220523
0.0220547
0.0220572
0.0220597
0.0220622
0.0220647
0.0220671
0.0220696
0.0220721
0.0220745
0.022077
0.0220794
0.0220819
0.0220843
0.0220868
0.0220892
0.0220917
0.0220941
0.0220965
0.022099
0.0221014
0.0221038
0.0221062
0.0221086
0.022111
0.0221135
0.0221159
0.0221183
0.0221207
0.0221231
0.0221254
0.0221278
0.0221302
0.0221326
0.022135
0.0221374
0.0221397
0.0221421
0.0221445
0.0221468
0.0221492
0.0221516
0.0221539
0.0221563
0.0221586
0.022161
0.0221633
0.0221657
0.022168
0.0221703
0.0221727
0.022175
0.0221773
0.0221797
0.022182
0.0221843
0.0221866
0.0221889
0.0221912
0.0221936
0.0221959
0.0221982
0.0222005
0.0222028
0.0222051
0.0222073
0.0222096
0.0222119
0.0222142
0.0222165
0.0222188
0.022221
0.0222233
0.0222256
0.0222278
0.0222301
0.0222324
0.0222346
0.0222369
0.0222391
0.0222414
0.0222436
0.0222459
0.0222481
0.0222504
0.0222526
0.0222548
0.0222571
0.0222593
0.0222615
0.0222638
0.022266
0.0222682
0.0222704
0.0222726
0.0222748
0.0222771
0.0222793
0.0222815
0.0222838
0.0222858
0.0222875
0.0222893
0.022293
0.0223008
0.0270883
0.0270787
0.0270726
0.0270741
0.027075
0.0270758
0.0270768
0.027078
0.0270789
0.0270791
0.0270793
0.0270796
0.0270801
0.0270803
0.0270801
0.0270799
0.0270796
0.0270792
0.0270788
0.0270779
0.0270771
0.0270761
0.027075
0.027074
0.0270728
0.0270713
0.0270697
0.0270679
0.0270662
0.0270648
0.0270632
0.0270608
0.0270574
0.0270531
0.0270492
0.0270468
0.0270477
0.0270517
0.0270554
0.0270519
0.0270351
0.0270037
0.0269689
0.0269578
0.0270025
0.0271135
0.0272485
0.0273
0.0271367
0.0266967
0.0260886
0.0256845
0.0261565
0.0280887
0.0308306
0.032156
0.0308106
0.0283967
0.0267288
0.0259759
0.0256992
0.0256096
0.025587
0.0255879
0.0255978
0.0256106
0.0256253
0.0256404
0.025656
0.0256724
0.0256897
0.0257083
0.0257273
0.025747
0.025768
0.0257894
0.0258117
0.0258353
0.0258594
0.0258844
0.0259106
0.0259382
0.0259677
0.0259985
0.0260301
0.0260631
0.0260979
0.0261339
0.0261716
0.0262112
0.0262532
0.0262965
0.0263407
0.0263847
0.0264247
0.0264555
0.0264683
0.0264571
0.0264352
0.0264787
0.0267985
0.0228893
0.0241297
0.0241286
0.0241276
0.0241266
0.0241257
0.0241247
0.0241238
0.024123
0.0241221
0.0241213
0.0241205
0.0241198
0.0241191
0.0241184
0.0241177
0.024117
0.0241164
0.0241158
0.0241152
0.0241147
0.0241142
0.0241137
0.0241132
0.0241127
0.0241123
0.0241119
0.0241115
0.0241111
0.0241108
0.0241105
0.0241102
0.0241099
0.0241096
0.0241094
0.0241092
0.024109
0.0241088
0.0241086
0.0241085
0.0241084
0.0241083
0.0241082
0.0241082
0.0241081
0.0241081
0.0241081
0.0241081
0.0241082
0.0241082
0.0241083
0.0241084
0.0241085
0.0241086
0.0241088
0.0241089
0.0241091
0.0241093
0.0241095
0.0241097
0.0241099
0.0241102
0.0241104
0.0241107
0.024111
0.0241113
0.0241116
0.0241119
0.0241123
0.0241126
0.024113
0.0241134
0.0241138
0.0241142
0.0241146
0.0241151
0.0241155
0.024116
0.0241165
0.0241169
0.0241175
0.024118
0.0241185
0.024119
0.0241193
0.0241197
0.0241206
0.024123
0.0241269
0.024128
0.0241256
0.0241233
0.024121
0.0241187
0.0241164
0.0241142
0.024112
0.0241097
0.0241076
0.0241054
0.0241033
0.0241011
0.024099
0.024097
0.0240949
0.0240929
0.0240909
0.0240889
0.0240869
0.0240849
0.024083
0.0240811
0.0240792
0.0240773
0.0240755
0.0240736
0.0240718
0.02407
0.0240682
0.0240665
0.0240647
0.024063
0.0240613
0.0240596
0.024058
0.0240563
0.0240547
0.0240531
0.0240515
0.0240499
0.0240484
0.0240468
0.0240453
0.0240438
0.0240423
0.0240409
0.0240394
0.024038
0.0240366
0.0240352
0.0240338
0.0240324
0.0240311
0.0240298
0.0240284
0.0240271
0.0240259
0.0240246
0.0240233
0.0240221
0.0240209
0.0240197
0.0240185
0.0240173
0.0240161
0.024015
0.0240138
0.0240127
0.0240116
0.0240105
0.0240095
0.0240084
0.0240074
0.0240064
0.0240054
0.0240044
0.0240034
0.0240024
0.0240015
0.0240006
0.0239997
0.0239988
0.0239979
0.023997
0.0239962
0.0239954
0.0239946
0.0239938
0.0239931
0.0239923
0.0239916
0.0239909
0.0239902
0.0239895
0.0239889
0.0239882
0.0239876
0.023987
0.0239864
0.0239858
0.0239852
0.0239846
0.023984
0.0239835
0.0239829
0.0239823
0.0239817
0.0239812
0.0239806
0.02398
0.0239794
0.0239788
0.0239782
0.0239776
0.023977
0.0239764
0.0239758
0.0239752
0.0239746
0.0239741
0.0239735
0.023973
0.0239726
0.0239721
0.0239717
0.0239714
0.0239711
0.0239708
0.0239706
0.0239705
0.0239704
0.0239704
0.0239704
0.0239705
0.0239707
0.0239709
0.0239712
0.0239715
0.0239719
0.0239723
0.0239728
0.0239733
0.0239738
0.0239743
0.0239749
0.0239754
0.023976
0.0239765
0.023977
0.0239775
0.023978
0.0239785
0.023979
0.0239794
0.0239795
0.0239793
0.0239791
0.0239802
0.0239851
0.0239936
0.0239941
0.0239582
0.0238622
0.0237731
0.0239794
0.0249009
0.0262413
0.0261964
0.0236289
0.0208287
0.0196968
0.0194506
0.019409
0.0194035
0.0194041
0.0194058
0.0194076
0.0194095
0.0194114
0.0194134
0.0194155
0.0194175
0.0194197
0.0194218
0.019424
0.0194263
0.0194285
0.0194309
0.0194332
0.0194356
0.0194381
0.0194406
0.0194431
0.0194457
0.0194483
0.019451
0.0194537
0.0194564
0.0194592
0.019462
0.0194649
0.0194678
0.0194707
0.0194737
0.0194767
0.0194797
0.0194828
0.019486
0.0194891
0.0194923
0.0194956
0.0194989
0.0195022
0.0195055
0.0195089
0.0195124
0.0195158
0.0195193
0.0195228
0.0195264
0.01953
0.0195336
0.0195373
0.019541
0.0195447
0.0195485
0.0195522
0.0195561
0.0195599
0.0195638
0.0195677
0.0195716
0.0195756
0.0195796
0.0195836
0.0195876
0.0195917
0.0195958
0.0195999
0.0196041
0.0196083
0.0196125
0.0196167
0.019621
0.0196252
0.0196295
0.0196339
0.0196382
0.0196426
0.019647
0.0196514
0.0196558
0.0196603
0.0196648
0.0196693
0.0196738
0.0196784
0.0196829
0.0196875
0.0196921
0.0196967
0.0197014
0.019706
0.0197107
0.0197154
0.0197201
0.0197248
0.0197296
0.0197343
0.0197391
0.0197439
0.0197487
0.0197535
0.0197584
0.0197632
0.0197681
0.019773
0.0197779
0.0197828
0.0197877
0.0197927
0.0197976
0.0198026
0.0198076
0.0198126
0.0198176
0.0198226
0.0198277
0.0198328
0.0198378
0.0198429
0.019848
0.0198531
0.0198583
0.0198634
0.0198686
0.0198737
0.0198789
0.0198842
0.019889
0.0198925
0.0198968
0.0199034
0.0199104
0.0199174
0.0199244
0.0199314
0.0199385
0.0199456
0.0199527
0.0199598
0.019967
0.0199741
0.0199813
0.0199885
0.0199958
0.020003
0.0200103
0.0200176
0.020025
0.0200323
0.0200397
0.0200471
0.0200545
0.0200619
0.0200694
0.0200768
0.0200843
0.0200919
0.0200994
0.020107
0.0201146
0.0201222
0.0201298
0.0201374
0.0201451
0.0201528
0.0201605
0.0201682
0.020176
0.0201837
0.0201915
0.0201993
0.0202071
0.0202149
0.0202227
0.0202306
0.0202385
0.0202463
0.0202542
0.0202621
0.02027
0.020278
0.0202859
0.0202938
0.0203018
0.0203097
0.0203177
0.0203256
0.0203336
0.0203416
0.0203495
0.0203575
0.0203655
0.0203734
0.0203814
0.0203894
0.0203974
0.0204053
0.0204133
0.0204213
0.0204292
0.0204372
0.0204451
0.0204531
0.0204611
0.020469
0.020477
0.0204849
0.0204929
0.0205008
0.0205088
0.0205167
0.0205247
0.0205327
0.0205406
0.0205486
0.0205566
0.0205646
0.0205726
0.0205807
0.0205887
0.0205968
0.0206049
0.020613
0.0206211
0.0206293
0.0206375
0.0206458
0.020654
0.0206624
0.0206707
0.0206792
0.0206876
0.0206962
0.0207048
0.0207134
0.0207221
0.0207309
0.0207398
0.0207487
0.0207577
0.0207668
0.0207759
0.0207852
0.0207945
0.0208039
0.0208135
0.0208231
0.0208328
0.0208426
0.0208524
0.0208624
0.0208725
0.0208827
0.020893
0.0209033
0.0209138
0.0209244
0.020935
0.0209458
0.0209566
0.0209675
0.0209785
0.0209896
0.0210007
0.0210119
0.0210232
0.0210346
0.021046
0.0210574
0.0210689
0.0210805
0.0210921
0.0211037
0.0211153
0.0211269
0.0211386
0.0211502
0.0211619
0.0211735
0.0211851
0.0211966
0.0212082
0.0212197
0.0212311
0.0212425
0.0212538
0.021265
0.0212761
0.0212872
0.0212981
0.021309
0.0213197
0.0213303
0.0213408
0.0213512
0.0213614
0.0213715
0.0213814
0.0213912
0.0214009
0.0214104
0.0214197
0.0214288
0.0214378
0.0214466
0.0214553
0.0214638
0.0214721
0.0214802
0.0214882
0.021496
0.0215036
0.021511
0.0215183
0.0215254
0.0215324
0.0215392
0.0215459
0.0215523
0.0215587
0.0215649
0.021571
0.0215769
0.0215827
0.0215884
0.021594
0.0215995
0.0216048
0.0216101
0.0216152
0.0216203
0.0216253
0.0216303
0.0216351
0.0216399
0.0216447
0.0216494
0.021654
0.0216587
0.0216633
0.0216678
0.0216724
0.0216769
0.0216814
0.0216859
0.0216905
0.021695
0.0216995
0.021704
0.0217086
0.0217132
0.0217177
0.0217224
0.021727
0.0217317
0.0217364
0.0217411
0.0217458
0.0217506
0.0217555
0.0217603
0.0217652
0.0217702
0.0217751
0.0217801
0.0217852
0.0217902
0.0217953
0.0218005
0.0218056
0.0218108
0.0218161
0.0218213
0.0218266
0.0218319
0.0218372
0.0218426
0.021848
0.0218533
0.0218587
0.0218642
0.0218696
0.021875
0.0218804
0.0218859
0.0218913
0.0218968
0.0219022
0.0219076
0.0219131
0.0219185
0.0219239
0.0219293
0.0219347
0.0219401
0.0219454
0.0219507
0.0219561
0.0219613
0.0219666
0.0219718
0.0219771
0.0219822
0.0219874
0.0219925
0.0219976
0.0220027
0.0220077
0.0220127
0.0220177
0.0220226
0.0220275
0.0220323
0.0220372
0.0220419
0.0220467
0.0220514
0.0220561
0.0220607
0.0220653
0.0220699
0.0220744
0.0220789
0.0220834
0.0220878
0.0220922
0.0220965
0.0221008
0.0221051
0.0221094
0.0221136
0.0221178
0.022122
0.0221262
0.0221303
0.0221344
0.0221385
0.0221425
0.0221466
0.0221506
0.0221546
0.0221586
0.0221626
0.0221665
0.0221705
0.0221744
0.0221784
0.0221823
0.0221862
0.0221901
0.022194
0.0221979
0.0222018
0.0222058
0.0222097
0.0222136
0.0222175
0.0222214
0.0222254
0.0222293
0.0222333
0.0222372
0.0222412
0.0222452
0.0222492
0.0222532
0.0222572
0.0222613
0.0222653
0.0222694
0.0222735
0.0222776
0.0222817
0.0222859
0.02229
0.0222942
0.0222984
0.0223026
0.0223068
0.0223111
0.0223153
0.0223196
0.0223239
0.0223281
0.0223325
0.0223368
0.0223411
0.0223454
0.0223498
0.0223541
0.0223584
0.0223628
0.0223672
0.0223715
0.0223759
0.0223802
0.0223846
0.0223889
0.0223932
0.0223975
0.0224018
0.0224061
0.0224104
0.0224146
0.0224188
0.022423
0.0224272
0.0224313
0.0224354
0.0224395
0.0224435
0.0224474
0.0224514
0.0224552
0.0224591
0.0224628
0.0224665
0.0224702
0.0224737
0.0224772
0.0224806
0.022484
0.0224872
0.0224904
0.0224934
0.0224964
0.0224993
0.0225021
0.0225047
0.0225073
0.0225097
0.022512
0.0225142
0.0225162
0.0225181
0.0225199
0.0225215
0.0225229
0.0225242
0.0225254
0.0225264
0.0225272
0.0225278
0.0225283
0.0225286
0.0225286
0.0225285
0.0225282
0.0225277
0.022527
0.0225261
0.022525
0.0225236
0.0225221
0.0225203
0.0225183
0.0225161
0.0225136
0.022511
0.0225081
0.0225049
0.0225016
0.022498
0.0224941
0.0224901
0.0224858
0.0224813
0.0224766
0.0224716
0.0224665
0.0224611
0.0224555
0.0224497
0.0224437
0.0224376
0.0224312
0.0224247
0.022418
0.0224111
0.0224041
0.0223969
0.0223896
0.0223821
0.0223746
0.0223669
0.0223591
0.0223512
0.0223433
0.0223352
0.0223271
0.022319
0.0223108
0.0223026
0.0222943
0.022286
0.0222777
0.0222695
0.0222612
0.0222529
0.0222447
0.0222365
0.0222283
0.0222202
0.0222121
0.0222041
0.0221962
0.0221883
0.0221805
0.0221727
0.0221651
0.0221575
0.02215
0.0221426
0.0221353
0.0221281
0.0221209
0.0221139
0.022107
0.0221001
0.0220934
0.0220868
0.0220802
0.0220738
0.0220674
0.0220612
0.022055
0.022049
0.022043
0.0220371
0.0220314
0.0220257
0.0220201
0.0220146
0.0220092
0.0220038
0.0219986
0.0219934
0.0219884
0.0219834
0.0219784
0.0219736
0.0219688
0.0219641
0.0219595
0.0219549
0.0219504
0.021946
0.0219417
0.0219374
0.0219332
0.021929
0.0219249
0.0219208
0.0219169
0.0219129
0.0219091
0.0219052
0.0219015
0.0218978
0.0218941
0.0218905
0.021887
0.0218834
0.02188
0.0218766
0.0218732
0.0218699
0.0218666
0.0218634
0.0218602
0.021857
0.0218539
0.0218509
0.0218479
0.0218449
0.0218419
0.021839
0.0218362
0.0218334
0.0218306
0.0218278
0.0218251
0.0218225
0.0218198
0.0218172
0.0218147
0.0218122
0.0218097
0.0218072
0.0218048
0.0218024
0.0218001
0.0217977
0.0217955
0.0217932
0.021791
0.0217888
0.0217866
0.0217845
0.0217824
0.0217804
0.0217783
0.0217763
0.0217744
0.0217724
0.0217705
0.0217686
0.0217668
0.021765
0.0217632
0.0217614
0.0217597
0.0217579
0.0217562
0.0217546
0.0217529
0.0217513
0.0217497
0.0217482
0.0217466
0.0217451
0.0217436
0.0217421
0.0217407
0.0217392
0.0217378
0.0217364
0.0217351
0.0217337
0.0217324
0.021731
0.0217297
0.0217285
0.0217272
0.0217259
0.0217247
0.0217235
0.0217223
0.0217211
0.0217199
0.0217187
0.0217176
0.0217164
0.0217153
0.0217142
0.0217131
0.021712
0.0217109
0.0217098
0.0217087
0.0217077
0.0217066
0.0217056
0.0217045
0.0217035
0.0217025
0.0217015
0.0217005
0.0216995
0.0216985
0.0216975
0.0216965
0.0216955
0.0216946
0.0216936
0.0216926
0.0216917
0.0216907
0.0216898
0.0216889
0.0216879
0.021687
0.0216861
0.0216852
0.0216843
0.0216834
0.0216825
0.0216816
0.0216807
0.0216798
0.021679
0.0216781
0.0216773
0.0216764
0.0216756
0.0216747
0.0216739
0.0216731
0.0216723
0.0216715
0.0216707
0.0216699
0.0216691
0.0216683
0.0216675
0.0216668
0.021666
0.0216653
0.0216645
0.0216638
0.0216631
0.0216624
0.0216617
0.021661
0.0216603
0.0216597
0.021659
0.0216583
0.0216577
0.0216571
0.0216565
0.0216559
0.0216553
0.0216547
0.0216541
0.0216535
0.021653
0.0216524
0.0216519
0.0216514
0.0216509
0.0216504
0.0216499
0.0216494
0.021649
0.0216485
0.0216481
0.0216477
0.0216472
0.0216468
0.0216464
0.0216461
0.0216457
0.0216453
0.021645
0.0216447
0.0216443
0.021644
0.0216437
0.0216434
0.0216432
0.0216429
0.0216427
0.0216424
0.0216422
0.021642
0.0216418
0.0216416
0.0216414
0.0216412
0.021641
0.0216409
0.0216408
0.0216406
0.0216405
0.0216404
0.0216403
0.0216402
0.0216401
0.0216401
0.02164
0.02164
0.0216399
0.0216399
0.0216399
0.0216399
0.0216399
0.0216399
0.0216399
0.0216399
0.02164
0.02164
0.02164
0.0216401
0.0216401
0.0216402
0.0216402
0.0216403
0.0216404
0.0216404
0.0216405
0.0216405
0.0216406
0.0216406
0.0216407
0.0216407
0.0216408
0.0216408
0.0216408
0.0216408
0.0216408
0.0216408
0.0216407
0.0216406
0.0216405
0.0216404
0.0216403
0.0216401
0.0216399
0.0216397
0.0216394
0.0216391
0.0216388
0.0216384
0.0216379
0.0216375
0.0216369
0.0216364
0.0216357
0.0216351
0.0216343
0.0216336
0.0216327
0.0216318
0.0216309
0.0216299
0.0216288
0.0216277
0.0216265
0.0216252
0.0216239
0.0216226
0.0216211
0.0216197
0.0216182
0.0216166
0.021615
0.0216134
0.0216117
0.02161
0.0216082
0.0216065
0.0216047
0.0216029
0.0216011
0.0215992
0.0215974
0.0215956
0.0215938
0.021592
0.0215903
0.0215886
0.0215869
0.0215852
0.0215837
0.0215821
0.0215806
0.0215792
0.0215779
0.0215766
0.0215754
0.0215743
0.0215733
0.0215723
0.0215715
0.0215708
0.0215701
0.0215696
0.0215692
0.0215688
0.0215686
0.0215685
0.0215685
0.0215686
0.0215688
0.0215691
0.0215695
0.02157
0.0215706
0.0215714
0.0215722
0.0215731
0.0215741
0.0215752
0.0215763
0.0215776
0.0215789
0.0215804
0.0215818
0.0215834
0.021585
0.0215867
0.0215885
0.0215903
0.0215921
0.0215941
0.021596
0.021598
0.0216001
0.0216022
0.0216043
0.0216065
0.0216087
0.0216109
0.0216131
0.0216154
0.0216177
0.02162
0.0216224
0.0216248
0.0216271
0.0216295
0.021632
0.0216344
0.0216368
0.0216393
0.0216418
0.0216442
0.0216467
0.0216492
0.0216518
0.0216543
0.0216568
0.0216593
0.0216619
0.0216645
0.021667
0.0216696
0.0216722
0.0216748
0.0216774
0.02168
0.0216826
0.0216852
0.0216879
0.0216905
0.0216931
0.0216958
0.0216985
0.0217011
0.0217038
0.0217065
0.0217092
0.0217119
0.0217146
0.0217174
0.0217201
0.0217228
0.0217256
0.0217284
0.0217311
0.0217339
0.0217367
0.0217395
0.0217423
0.0217451
0.021748
0.0217508
0.0217537
0.0217565
0.0217594
0.0217623
0.0217651
0.021768
0.021771
0.0217739
0.0217768
0.0217797
0.0217827
0.0217856
0.0217886
0.0217918
)
;

boundaryField
{
    inlet
    {
        type            zeroGradient;
    }
    outlet
    {
        type            zeroGradient;
    }
    right
    {
        type            empty;
    }
    left
    {
        type            empty;
    }
    atmosphere
    {
        type            empty;
    }
    bottomWall
    {
        type            empty;
    }
}


// ************************************************************************* //
