/*--------------------------------*- C++ -*----------------------------------*\
| =========                 |                                                 |
| \\      /  F ield         | foam-extend: Open Source CFD                    |
|  \\    /   O peration     | Version:     3.1                                |
|   \\  /    A nd           | Web:         http://www.extend-project.de       |
|    \\/     M anipulation  |                                                 |
\*---------------------------------------------------------------------------*/
FoamFile
{
    version     2.0;
    format      ascii;
    class       surfaceScalarField;
    location    "12";
    object      phi;
}
// * * * * * * * * * * * * * * * * * * * * * * * * * * * * * * * * * * * * * //

dimensions      [0 3 -1 0 0 0 0];

internalField   nonuniform List<scalar> 
2538
(
0.0726408
0.0727022
0.0727831
0.0728634
0.0729439
0.0730245
0.0731054
0.0731864
0.0732677
0.0733491
0.0734307
0.0735126
0.0735946
0.0736768
0.0737592
0.0738418
0.0739247
0.0740077
0.0740909
0.0741743
0.0742579
0.0743418
0.0744258
0.07451
0.0745945
0.0746791
0.074764
0.0748491
0.0749344
0.0750198
0.0751055
0.0751915
0.0752776
0.0753639
0.0754505
0.0755373
0.0756243
0.0757115
0.0757989
0.0758865
0.0759744
0.0760625
0.0761508
0.0762394
0.0763281
0.0764171
0.0765063
0.0765958
0.0766854
0.0767754
0.0768655
0.0769559
0.0770465
0.0771373
0.0772284
0.0773197
0.0774112
0.077503
0.077595
0.0776873
0.0777798
0.0778725
0.0779655
0.0780587
0.0781522
0.0782459
0.0783399
0.0784341
0.0785286
0.0786233
0.0787183
0.0788135
0.078909
0.0790048
0.0791008
0.079197
0.0792936
0.0793903
0.0794874
0.0795847
0.0796823
0.0797801
0.0798782
0.0799766
0.0800752
0.0801742
0.0802734
0.0803728
0.0804726
0.0805726
0.0806729
0.0807735
0.0808743
0.0809755
0.0810769
0.0811786
0.0812806
0.0813829
0.0814855
0.0815883
0.0816915
0.0817949
0.0818987
0.0820027
0.0821071
0.0822117
0.0823167
0.0824219
0.0825275
0.0826333
0.0827395
0.082846
0.0829528
0.0830599
0.0831673
0.083275
0.083383
0.0834914
0.0836001
0.0837091
0.0838184
0.0839281
0.0840381
0.0841484
0.0842591
0.0843701
0.0844814
0.084593
0.084705
0.0848174
0.08493
0.0850431
0.0851564
0.0852701
0.0853842
0.0854986
0.0856134
0.0857285
0.085844
0.0859599
0.0860761
0.0861927
0.0863096
0.0864269
0.0865446
0.0866626
0.0867811
0.0868999
0.0870191
0.0871386
0.0872586
0.0873789
0.0874996
0.0876207
0.0877422
0.0878641
0.0879864
0.0881091
0.0882322
0.0883557
0.0884796
0.088604
0.0887287
0.0888538
0.0889794
0.0891054
0.0892318
0.0893586
0.0894859
0.0896136
0.0897417
0.0898703
0.0899993
0.0901287
0.0902586
0.0903889
0.0905197
0.0906509
0.0907826
0.0909147
0.0910474
0.0911804
0.091314
0.091448
0.0916132
0.0917969
0.0919065
0.0919514
0.0919929
0.0920343
0.0920757
0.0921171
0.0921586
0.0922001
0.0922417
0.0922833
0.092325
0.0923666
0.0924084
0.0924501
0.092492
0.0925338
0.0925757
0.0926176
0.0926596
0.0927016
0.0927437
0.0927858
0.0928279
0.0928701
0.0929124
0.0929546
0.0929969
0.0930393
0.0930817
0.0931241
0.0931666
0.0932091
0.0932517
0.0932943
0.093337
0.0933797
0.0934224
0.0934652
0.093508
0.0935509
0.0935938
0.0936367
0.0936797
0.0937228
0.0937659
0.093809
0.0938522
0.0938954
0.0939387
0.093982
0.0940253
0.0940687
0.0941122
0.0941557
0.0941992
0.0942428
0.0942864
0.0943301
0.0943738
0.0944176
0.0944614
0.0945052
0.0945491
0.0945931
0.0946371
0.0946811
0.0947252
0.0947693
0.0948135
0.0948577
0.094902
0.0949463
0.0949907
0.0950351
0.0950795
0.095124
0.0951686
0.0952132
0.0952579
0.0953026
0.0953473
0.0953921
0.0954369
0.0954818
0.0955268
0.0955717
0.0956168
0.0956619
0.095707
0.0957522
0.0957974
0.0958427
0.095888
0.0959334
0.0959788
0.0960243
0.0960698
0.0961154
0.0961611
0.0962067
0.0962525
0.0962982
0.0963441
0.09639
0.0964359
0.0964819
0.0965279
0.096574
0.0966201
0.0966663
0.0967126
0.0967589
0.0968052
0.0968516
0.096898
0.0969445
0.0969911
0.0970377
0.0970844
0.0971311
0.0971778
0.0972247
0.0972715
0.0973184
0.0973654
0.0974125
0.0974595
0.0975067
0.0975539
0.0976011
0.0976484
0.0976958
0.0977432
0.0977907
0.0978382
0.0978858
0.0979334
0.0979811
0.0980288
0.0980766
0.0981245
0.0981724
0.0982203
0.0982684
0.0983164
0.0983646
0.0984128
0.098461
0.0985093
0.0985577
0.0986061
0.0986546
0.0987031
0.0987517
0.0988004
0.0988491
0.0988978
0.0989467
0.0989956
0.0990445
0.0990935
0.0991426
0.0991917
0.0992409
0.0992901
0.0993394
0.0993888
0.0994382
0.0994877
0.0995372
0.0995868
0.0996365
0.0996862
0.099736
0.0997858
0.0998358
0.0998857
0.0999358
0.0999859
0.100036
0.100086
0.100137
0.100187
0.100237
0.100288
0.100338
0.100389
0.10044
0.10049
0.100541
0.100592
0.100643
0.100694
0.100745
0.100796
0.100847
0.100898
0.100967
0.100645
0.104879
0.109547
0.11526
0.118883
0.121297
0.123083
0.124522
0.125757
0.126864
0.127884
0.128843
0.129755
0.130629
0.131474
0.132292
0.133089
0.133867
0.134628
0.135374
0.136106
0.136827
0.137536
0.138236
0.138926
0.139608
0.140282
0.140949
0.14161
0.142265
0.142913
0.143557
0.144196
0.14483
0.14546
0.146086
0.146708
0.147327
0.147943
0.148555
0.149165
0.149773
0.150378
0.150981
0.151582
0.152181
0.152778
0.153374
0.153969
0.154562
0.155154
0.155745
0.156335
0.156925
0.157513
0.158102
0.15869
0.159278
0.159865
0.160453
0.161041
0.161629
0.162218
0.162807
0.163397
0.163988
0.16458
0.165173
0.165768
0.166364
0.166962
0.167562
0.168164
0.168769
0.169377
0.169988
0.170603
0.171222
0.171845
0.172473
0.173107
0.173748
0.174396
0.175052
0.175718
0.176394
0.177084
0.177789
0.178513
0.179258
0.18003
0.180834
0.181679
0.182574
0.183531
0.184565
0.185694
0.186937
0.188315
0.189844
0.191528
0.196042
0.198028
0.19989
0.201647
0.203313
0.2049
0.206417
0.207873
0.209273
0.210624
0.211931
0.213196
0.214424
0.215619
0.216781
0.217915
0.219021
0.220102
0.22116
0.222196
0.223211
0.224207
0.225184
0.226144
0.227087
0.228015
0.228928
0.229827
0.230712
0.231585
0.232446
0.233294
0.234132
0.234958
0.235775
0.236581
0.237378
0.238165
0.238944
0.239714
0.240476
0.241229
0.241975
0.242714
0.243445
0.244169
0.244886
0.245597
0.246301
0.246999
0.247691
0.248377
0.249057
0.249731
0.2504
0.251064
0.251722
0.252376
0.253024
0.253668
0.254307
0.254941
0.255571
0.256197
0.256818
0.257435
0.258047
0.258656
0.259261
0.259862
0.260459
0.261052
0.261642
0.262228
0.262811
0.26339
0.263966
0.264538
0.265107
0.265673
0.266236
0.266796
0.267353
0.267906
0.268457
0.269005
0.26955
0.270092
0.270632
0.271169
0.271703
0.272234
0.272762
0.273289
0.273814
0.27434
0.274867
0.275386
0.275875
0.276298
0.276655
0.276987
0.277318
0.277647
0.277976
0.278304
0.278631
0.278956
0.279281
0.279605
0.279928
0.28025
0.280571
0.280891
0.28121
0.281528
0.281846
0.282162
0.282477
0.282792
0.283106
0.283419
0.283731
0.284042
0.284352
0.284662
0.28497
0.285278
0.285585
0.285891
0.286197
0.286501
0.286805
0.287108
0.28741
0.287711
0.288012
0.288312
0.288611
0.288909
0.289206
0.289503
0.289799
0.290094
0.290389
0.290683
0.290976
0.291268
0.29156
0.291851
0.292141
0.292431
0.292719
0.293008
0.293295
0.293582
0.293868
0.294153
0.294438
0.294722
0.295006
0.295288
0.29557
0.295852
0.296133
0.296413
0.296693
0.296971
0.29725
0.297527
0.297804
0.298081
0.298357
0.298632
0.298906
0.29918
0.299454
0.299727
0.299999
0.30027
0.300541
0.300812
0.301082
0.301351
0.30162
0.301888
0.302155
0.302422
0.302689
0.302955
0.30322
0.303485
0.303749
0.304013
0.304276
0.304539
0.304801
0.305062
0.305323
0.305584
0.305844
0.306103
0.306362
0.30662
0.306878
0.307136
0.307393
0.307649
0.307905
0.30816
0.308415
0.308669
0.308923
0.309177
0.30943
0.309682
0.309934
0.310185
0.310436
0.310687
0.310937
0.311186
0.311435
0.311684
0.311932
0.31218
0.312427
0.312674
0.31292
0.313166
0.313411
0.313656
0.313901
0.314145
0.314388
0.314631
0.314874
0.315116
0.315358
0.3156
0.315841
0.316081
0.316321
0.316561
0.3168
0.317039
0.317277
0.317515
0.317753
0.31799
0.318227
0.318463
0.318699
0.318934
0.31917
0.319404
0.319639
0.319872
0.320106
0.320339
0.320572
0.320804
0.321036
0.321267
0.321499
0.321729
0.32196
0.32219
0.322419
0.322648
0.322877
0.323106
0.323334
0.323561
0.323789
0.324015
0.324242
0.324468
0.324694
0.324919
0.325145
0.325369
0.325594
0.325818
0.326041
0.326264
0.326487
0.32671
0.326932
0.327154
0.327375
0.327596
0.327817
0.328038
0.328258
0.328478
0.328697
0.328916
0.329135
0.329353
0.329571
0.329789
0.330006
0.330223
0.33044
0.330656
0.330872
0.331088
0.331303
0.331518
0.331733
0.331947
0.332161
0.332375
0.332588
0.332801
0.333014
0.333226
0.333439
0.33365
0.333862
0.334073
0.334284
0.334494
0.334704
0.334914
0.335124
0.335333
0.335542
0.335751
0.335959
0.336167
0.336375
0.336582
0.336789
0.336996
0.337203
0.337409
0.337615
0.337821
0.338026
0.338231
0.338436
0.33864
0.338844
0.339048
0.339252
0.339455
0.339658
0.339861
0.340063
0.340265
0.340467
0.340669
0.34087
0.341071
0.341272
0.341472
0.341672
0.341872
0.342071
0.342271
0.34247
0.342669
0.342867
0.343065
0.343263
0.343461
0.343658
0.343855
0.344052
0.344249
0.344445
0.344641
0.344837
0.345032
0.345227
0.345422
0.345617
0.345812
0.346006
0.3462
0.346393
0.346587
0.34678
0.346973
0.347165
0.347358
0.34755
0.347742
0.347933
0.348124
0.348315
0.348506
0.348697
0.348887
0.349077
0.349267
0.349457
0.349646
0.349835
0.350024
0.350212
0.350401
0.350589
0.350777
0.350964
0.351151
0.351339
0.351525
0.351712
0.351898
0.352085
0.35227
0.352456
0.352641
0.352827
0.353012
0.353196
0.353381
0.353565
0.353749
0.353933
0.354116
0.3543
0.354483
0.354665
0.354848
0.35503
0.355212
0.355394
0.355576
0.355758
0.355939
0.35612
0.3563
0.356481
0.356661
0.356841
0.357021
0.357201
0.35738
0.357559
0.357739
0.357918
0.358096
0.358273
0.358445
0.358619
0.358814
0.359037
0.359273
0.359509
0.359744
0.359979
0.360214
0.360448
0.360682
0.360916
0.361149
0.361382
0.361614
0.361847
0.362078
0.36231
0.362541
0.362772
0.363003
0.363233
0.363463
0.363692
0.363922
0.364151
0.364379
0.364608
0.364836
0.365063
0.365291
0.365518
0.365744
0.365971
0.366197
0.366422
0.366648
0.366873
0.367098
0.367322
0.367546
0.36777
0.367994
0.368217
0.36844
0.368663
0.368885
0.369107
0.369329
0.36955
0.369771
0.369992
0.370212
0.370433
0.370652
0.370872
0.371091
0.37131
0.371529
0.371747
0.371966
0.372183
0.372401
0.372618
0.372835
0.373052
0.373268
0.373484
0.3737
0.373916
0.374131
0.374346
0.37456
0.374775
0.374989
0.375203
0.375416
0.375629
0.375842
0.376055
0.376267
0.376479
0.376691
0.376903
0.377114
0.377325
0.377536
0.377746
0.377956
0.378166
0.378376
0.378585
0.378794
0.379003
0.379212
0.37942
0.379628
0.379836
0.380043
0.380251
0.380457
0.380664
0.380871
0.381077
0.381283
0.381488
0.381694
0.381899
0.382104
0.382308
0.382513
0.382717
0.38292
0.383124
0.383327
0.38353
0.383733
0.383936
0.384138
0.38434
0.384542
0.384743
0.384945
0.385146
0.385346
0.385547
0.385747
0.385947
0.386147
0.386346
0.386546
0.386745
0.386943
0.387142
0.38734
0.387538
0.387736
0.387934
0.388131
0.388328
0.388525
0.388722
0.388918
0.389114
0.38931
0.389506
0.389701
0.389896
0.390091
0.390286
0.39048
0.390674
0.390868
0.391062
0.391256
0.391449
0.391642
0.391835
0.392027
0.39222
0.392412
0.392604
0.392795
0.392987
0.393178
0.393369
0.39356
0.39375
0.39394
0.39413
0.39432
0.39451
0.394699
0.394889
0.395078
0.395265
0.395451
0.395637
0.395838
0.396062
0.396276
0.396348
0.396147
0.396008
0.395985
0.39604
0.396085
0.396127
0.396163
0.396183
0.396183
0.396172
0.396158
0.396139
0.396106
0.396056
0.395995
0.395926
0.395845
0.395753
0.395648
0.395531
0.395405
0.39527
0.395127
0.394973
0.394805
0.394625
0.394434
0.394235
0.394026
0.393796
0.393541
0.393265
0.39299
0.392741
0.392533
0.392348
0.392123
0.391749
0.391145
0.390363
0.389653
0.38944
0.390116
0.391621
0.393007
0.392448
0.388146
0.380125
0.371786
0.369793
0.382111
0.413766
0.455861
0.47074
0.415268
0.307346
0.212859
0.161786
0.140925
0.133622
0.131433
0.131056
0.131318
0.131816
0.132408
0.133046
0.133713
0.134407
0.13513
0.135884
0.13667
0.137486
0.138334
0.139216
0.140134
0.141088
0.142083
0.143121
0.144205
0.145342
0.146537
0.147795
0.149118
0.150504
0.151964
0.153511
0.155152
0.156902
0.158782
0.160813
0.163023
0.165455
0.16818
0.171309
0.175046
0.179758
0.186115
0.195269
0.208993
0.229328
0.25647
0.282677
0.3064
0.306765
0.307128
0.30749
0.307851
0.30821
0.308569
0.308925
0.309281
0.309636
0.309989
0.310341
0.310692
0.311041
0.31139
0.311737
0.312084
0.312429
0.312773
0.313116
0.313459
0.3138
0.31414
0.314479
0.314817
0.315154
0.31549
0.315825
0.316159
0.316492
0.316824
0.317156
0.317486
0.317816
0.318144
0.318472
0.318798
0.319124
0.319449
0.319773
0.320096
0.320419
0.32074
0.321061
0.321381
0.3217
0.322018
0.322336
0.322652
0.322968
0.323283
0.323597
0.323911
0.324224
0.324536
0.324847
0.325157
0.325467
0.325776
0.326084
0.326392
0.326699
0.327005
0.32731
0.327615
0.327919
0.328223
0.328526
0.328828
0.329129
0.32943
0.32973
0.330029
0.330328
0.330626
0.330924
0.331221
0.331517
0.331813
0.332107
0.332401
0.332693
0.332986
0.333283
0.333588
0.333897
0.334176
0.334365
0.33445
0.334494
0.334538
0.334582
0.334625
0.334669
0.334713
0.334756
0.3348
0.334843
0.334886
0.33493
0.334973
0.335016
0.33506
0.335103
0.335146
0.335189
0.335232
0.335275
0.335318
0.335361
0.335403
0.335446
0.335489
0.335531
0.335574
0.335617
0.335659
0.335702
0.335744
0.335787
0.335829
0.335871
0.335914
0.335956
0.335998
0.33604
0.336083
0.336125
0.336167
0.336209
0.336251
0.336293
0.336335
0.336377
0.336419
0.336461
0.336502
0.336544
0.336586
0.336628
0.33667
0.336711
0.336753
0.336795
0.336836
0.336878
0.33692
0.336961
0.337003
0.337044
0.337086
0.337127
0.337169
0.33721
0.337252
0.337293
0.337335
0.337376
0.337417
0.337459
0.3375
0.337541
0.337583
0.337624
0.337665
0.337706
0.337747
0.337788
0.337829
0.33787
0.337911
0.337951
0.337992
0.338033
0.338073
0.338114
0.338154
0.338194
0.338234
0.338274
0.338314
0.338353
0.338393
0.338433
0.338472
0.338511
0.338551
0.33859
0.338629
0.338669
0.338708
0.338747
0.338787
0.338826
0.338866
0.338906
0.338946
0.338986
0.339027
0.339067
0.339108
0.33915
0.339191
0.339233
0.339274
0.339316
0.339359
0.339401
0.339443
0.339485
0.339527
0.339569
0.339611
0.339652
0.339693
0.339733
0.339773
0.339812
0.339851
0.339889
0.339926
0.339962
0.339998
0.340033
0.340067
0.3401
0.340133
0.340165
0.340196
0.340227
0.340257
0.340287
0.340317
0.340347
0.340376
0.340405
0.340435
0.340465
0.340495
0.340526
0.340556
0.340586
0.340615
0.340646
0.34069
0.340757
0.340833
0.340829
0.340575
0.340038
0.339879
0.341984
0.348361
0.355476
0.345423
0.295527
0.216693
0.152094
0.122224
0.11388
0.112228
0.11193
0.111866
0.111841
0.111822
0.111805
0.111788
0.111771
0.111755
0.111739
0.111723
0.111708
0.111693
0.111678
0.111664
0.111649
0.111636
0.111622
0.111609
0.111596
0.111583
0.111571
0.111559
0.111547
0.111535
0.111524
0.111513
0.111502
0.111492
0.111482
0.111472
0.111462
0.111453
0.111443
0.111434
0.111426
0.111417
0.111409
0.111401
0.111394
0.111386
0.111379
0.111372
0.111365
0.111359
0.111353
0.111346
0.111341
0.111335
0.111329
0.111324
0.111319
0.111314
0.11131
0.111305
0.111301
0.111297
0.111293
0.111289
0.111285
0.111282
0.111279
0.111276
0.111273
0.11127
0.111268
0.111265
0.111263
0.111261
0.111259
0.111257
0.111256
0.111254
0.111253
0.111252
0.111251
0.11125
0.111249
0.111248
0.111248
0.111247
0.111247
0.111247
0.111247
0.111247
0.111247
0.111247
0.111248
0.111248
0.111249
0.11125
0.11125
0.111251
0.111252
0.111253
0.111255
0.111256
0.111257
0.111259
0.11126
0.111262
0.111263
0.111265
0.111267
0.111269
0.11127
0.111272
0.111275
0.111277
0.111279
0.111281
0.111283
0.111286
0.111288
0.111291
0.111293
0.111296
0.111299
0.111301
0.111304
0.111307
0.11131
0.111313
0.111316
0.111319
0.111322
0.111325
0.111328
0.111333
0.111353
0.111398
0.111456
0.111517
0.111578
0.111639
0.1117
0.111761
0.111823
0.111884
0.111946
0.112008
0.11207
0.112132
0.112195
0.112257
0.11232
0.112383
0.112445
0.112508
0.112572
0.112635
0.112698
0.112762
0.112826
0.112889
0.112953
0.113017
0.113082
0.113146
0.113211
0.113275
0.11334
0.113405
0.11347
0.113535
0.1136
0.113666
0.113731
0.113797
0.113862
0.113928
0.113994
0.11406
0.114126
0.114192
0.114259
0.114325
0.114392
0.114458
0.114525
0.114592
0.114658
0.114725
0.114792
0.114859
0.114926
0.114994
0.115061
0.115128
0.115195
0.115263
0.11533
0.115397
0.115465
0.115532
0.1156
0.115667
0.115735
0.115802
0.11587
0.115938
0.116005
0.116073
0.116141
0.116208
0.116276
0.116344
0.116411
0.116479
0.116547
0.116615
0.116683
0.116751
0.116819
0.116887
0.116955
0.117023
0.117091
0.117159
0.117228
0.117296
0.117365
0.117434
0.117502
0.117571
0.11764
0.11771
0.117779
0.117849
0.117919
0.117989
0.118059
0.118129
0.1182
0.118271
0.118342
0.118414
0.118485
0.118558
0.11863
0.118703
0.118776
0.118849
0.118923
0.118997
0.119072
0.119147
0.119222
0.119298
0.119374
0.11945
0.119527
0.119604
0.119682
0.11976
0.119838
0.119917
0.119996
0.120076
0.120156
0.120236
0.120317
0.120398
0.120479
0.120561
0.120643
0.120725
0.120807
0.12089
0.120973
0.121056
0.121139
0.121222
0.121306
0.121389
0.121472
0.121556
0.121639
0.121723
0.121806
0.121889
0.121972
0.122055
0.122138
0.12222
0.122303
0.122384
0.122466
0.122547
0.122628
0.122708
0.122788
0.122867
0.122946
0.123025
0.123102
0.12318
0.123256
0.123332
0.123407
0.123482
0.123556
0.123629
0.123702
0.123773
0.123845
0.123915
0.123984
0.124053
0.124121
0.124189
0.124255
0.124321
0.124386
0.12445
0.124514
0.124577
0.124639
0.1247
0.124761
0.124821
0.124881
0.12494
0.124998
0.125056
0.125113
0.125169
0.125225
0.12528
0.125335
0.12539
0.125444
0.125498
0.125551
0.125604
0.125656
0.125708
0.12576
0.125812
0.125863
0.125914
0.125965
0.126015
0.126066
0.126116
0.126166
0.126216
0.126266
0.126315
0.126365
0.126414
0.126464
0.126513
0.126562
0.126611
0.126661
0.12671
0.126759
0.126807
0.126856
0.126905
0.126954
0.127003
0.127051
0.1271
0.127148
0.127197
0.127245
0.127293
0.127342
0.12739
0.127438
0.127485
0.127533
0.12758
0.127628
0.127675
0.127722
0.127769
0.127815
0.127862
0.127908
0.127954
0.128
0.128045
0.12809
0.128135
0.12818
0.128224
0.128268
0.128311
0.128354
0.128397
0.12844
0.128482
0.128524
0.128565
0.128606
0.128646
0.128686
0.128726
0.128765
0.128804
0.128842
0.12888
0.128917
0.128954
0.128991
0.129027
0.129062
0.129097
0.129132
0.129166
0.1292
0.129233
0.129265
0.129298
0.129329
0.129361
0.129391
0.129422
0.129452
0.129481
0.12951
0.129539
0.129567
0.129595
0.129622
0.12965
0.129676
0.129703
0.129729
0.129754
0.129779
0.129805
0.129829
0.129854
0.129878
0.129902
0.129926
0.129949
0.129972
0.129995
0.130018
0.130041
0.130064
0.130086
0.130109
0.130131
0.130153
0.130175
0.130197
0.130219
0.130241
0.130263
0.130286
0.130308
0.13033
0.130352
0.130374
0.130396
0.130419
0.130441
0.130464
0.130487
0.13051
0.130532
0.130556
0.130579
0.130602
0.130626
0.130649
0.130673
0.130697
0.130721
0.130746
0.13077
0.130795
0.13082
0.130845
0.13087
0.130895
0.13092
0.130946
0.130971
0.130997
0.131023
0.131049
0.131075
0.131101
0.131127
0.131153
0.131179
0.131205
0.131231
0.131257
0.131283
0.131309
0.131335
0.131361
0.131386
0.131412
0.131437
0.131462
0.131487
0.131511
0.131535
0.131559
0.131582
0.131605
0.131628
0.13165
0.131672
0.131693
0.131713
0.131733
0.131753
0.131771
0.131789
0.131806
0.131823
0.131838
0.131853
0.131866
0.131879
0.131891
0.131901
0.131911
0.131919
0.131926
0.131932
0.131937
0.13194
0.131942
0.131942
0.131941
0.131938
0.131934
0.131928
0.13192
0.131911
0.1319
0.131887
0.131872
0.131855
0.131836
0.131815
0.131793
0.131768
0.13174
0.131711
0.13168
0.131646
0.13161
0.131571
0.131531
0.131488
0.131442
0.131394
0.131344
0.131292
0.131237
0.131179
0.13112
0.131058
0.130993
0.130926
0.130857
0.130786
0.130712
0.130637
0.130559
0.130479
0.130397
0.130313
0.130227
0.13014
0.13005
0.129959
0.129867
0.129773
0.129678
0.129581
0.129483
0.129384
0.129284
0.129183
0.129081
0.128979
0.128876
0.128773
0.128669
0.128565
0.12846
0.128356
0.128251
0.128147
0.128043
0.127939
0.127835
0.127732
0.127629
0.127527
0.127425
0.127324
0.127224
0.127124
0.127026
0.126928
0.126831
0.126735
0.12664
0.126545
0.126452
0.12636
0.126269
0.126179
0.12609
0.126002
0.125915
0.125829
0.125744
0.12566
0.125577
0.125495
0.125415
0.125335
0.125256
0.125179
0.125102
0.125026
0.124951
0.124877
0.124804
0.124732
0.124661
0.124591
0.124521
0.124453
0.124385
0.124318
0.124251
0.124186
0.124121
0.124057
0.123994
0.123931
0.123869
0.123808
0.123747
0.123687
0.123628
0.123569
0.123511
0.123454
0.123397
0.12334
0.123284
0.123229
0.123174
0.12312
0.123066
0.123013
0.12296
0.122908
0.122856
0.122805
0.122754
0.122703
0.122653
0.122603
0.122554
0.122505
0.122457
0.122409
0.122361
0.122314
0.122267
0.122221
0.122175
0.122129
0.122084
0.122039
0.121994
0.12195
0.121906
0.121863
0.121819
0.121777
0.121734
0.121692
0.12165
0.121608
0.121567
0.121526
0.121486
0.121445
0.121405
0.121366
0.121326
0.121287
0.121249
0.12121
0.121172
0.121134
0.121096
0.121059
0.121022
0.120985
0.120948
0.120912
0.120876
0.12084
0.120804
0.120769
0.120734
0.120699
0.120664
0.12063
0.120595
0.120561
0.120528
0.120494
0.120461
0.120427
0.120394
0.120361
0.120329
0.120296
0.120264
0.120232
0.1202
0.120168
0.120136
0.120104
0.120073
0.120042
0.120011
0.11998
0.119949
0.119918
0.119887
0.119857
0.119826
0.119796
0.119765
0.119735
0.119705
0.119675
0.119645
0.119615
0.119585
0.119556
0.119526
0.119497
0.119467
0.119438
0.119408
0.119379
0.11935
0.11932
0.119291
0.119262
0.119233
0.119204
0.119175
0.119146
0.119117
0.119088
0.11906
0.119031
0.119002
0.118974
0.118945
0.118916
0.118888
0.118859
0.118831
0.118803
0.118774
0.118746
0.118718
0.11869
0.118662
0.118633
0.118605
0.118578
0.11855
0.118522
0.118494
0.118466
0.118439
0.118411
0.118384
0.118356
0.118329
0.118301
0.118274
0.118247
0.11822
0.118193
0.118166
0.118139
0.118112
0.118086
0.118059
0.118032
0.118006
0.11798
0.117953
0.117927
0.117901
0.117875
0.117849
0.117823
0.117797
0.117772
0.117746
0.117721
0.117695
0.11767
0.117645
0.11762
0.117595
0.11757
0.117545
0.11752
0.117496
0.117471
0.117447
0.117422
0.117398
0.117374
0.11735
0.117326
0.117302
0.117279
0.117255
0.117231
0.117208
0.117185
0.117161
0.117138
0.117115
0.117092
0.117069
0.117046
0.117024
0.117001
0.116979
0.116956
0.116934
0.116912
0.11689
0.116867
0.116846
0.116824
0.116802
0.11678
0.116758
0.116737
0.116715
0.116694
0.116673
0.116651
0.11663
0.116609
0.116588
0.116567
0.116546
0.116525
0.116504
0.116483
0.116462
0.116442
0.116421
0.1164
0.116379
0.116359
0.116338
0.116317
0.116296
0.116276
0.116255
0.116234
0.116213
0.116192
0.116171
0.116149
0.116128
0.116106
0.116085
0.116063
0.116041
0.116019
0.115996
0.115973
0.11595
0.115927
0.115904
0.11588
0.115856
0.115831
0.115806
0.115781
0.115755
0.115729
0.115703
0.115676
0.115648
0.11562
0.115592
0.115563
0.115534
0.115504
0.115473
0.115443
0.115411
0.115379
0.115347
0.115314
0.11528
0.115246
0.115212
0.115177
0.115142
0.115106
0.11507
0.115033
0.114997
0.11496
0.114923
0.114885
0.114848
0.11481
0.114772
0.114734
0.114696
0.114659
0.114621
0.114584
0.114547
0.11451
0.114473
0.114437
0.114401
0.114366
0.114331
0.114297
0.114263
0.11423
0.114198
0.114167
0.114136
0.114106
0.114076
0.114048
0.11402
0.113994
0.113968
0.113943
0.113919
0.113896
0.113873
0.113852
0.113831
0.113812
0.113793
0.113775
0.113758
0.113742
0.113726
0.113712
0.113698
0.113685
0.113672
0.11366
0.113649
0.113639
0.113629
0.11362
0.113611
0.113603
0.113595
0.113588
0.113581
0.113575
0.113569
0.113564
0.113558
0.113554
0.113549
0.113545
0.113541
0.113537
0.113534
0.113531
0.113528
0.113525
0.113522
0.11352
0.113517
0.113515
0.113513
0.113511
0.11351
0.113508
0.113506
0.113505
0.113504
0.113503
0.113501
0.1135
0.1135
0.113499
0.113498
0.113497
0.113497
0.113496
0.113496
0.113495
0.113495
0.113495
0.113495
0.113495
0.113495
0.113495
0.113495
0.113496
0.113496
0.113496
0.113497
0.113497
0.113498
0.113499
0.1135
0.1135
0.113501
0.113502
0.113503
0.113505
0.113506
0.113507
0.113509
0.11351
0.113512
0.113513
0.113515
0.113517
0.113519
0.113521
0.113523
0.113525
0.113527
0.113529
0.113531
0.113534
0.113536
0.113538
0.113541
0.113543
0.113546
)
;

boundaryField
{
    inlet
    {
        type            calculated;
        value           uniform -0.0726389;
    }
    outlet
    {
        type            calculated;
        value           uniform 0.113548;
    }
    right
    {
        type            empty;
    }
    left
    {
        type            empty;
    }
    atmosphere
    {
        type            empty;
    }
    bottomWall
    {
        type            empty;
    }
}


// ************************************************************************* //
