/*--------------------------------*- C++ -*----------------------------------*\
| =========                 |                                                 |
| \\      /  F ield         | foam-extend: Open Source CFD                    |
|  \\    /   O peration     | Version:     3.1                                |
|   \\  /    A nd           | Web:         http://www.extend-project.de       |
|    \\/     M anipulation  |                                                 |
\*---------------------------------------------------------------------------*/
FoamFile
{
    version     2.0;
    format      ascii;
    class       volVectorField;
    location    "12";
    object      U;
}
// * * * * * * * * * * * * * * * * * * * * * * * * * * * * * * * * * * * * * //

dimensions      [0 1 -1 0 0 0 0];

internalField   nonuniform List<vector> 
2539
(
(0.726202 0 0)
(0.726613 0 0)
(0.727431 0 0)
(0.728232 0 0)
(0.729036 0 0)
(0.729841 0 0)
(0.730649 0 0)
(0.731459 0 0)
(0.73227 0 0)
(0.733083 0 0)
(0.733899 0 0)
(0.734716 0 0)
(0.735535 0 0)
(0.736356 0 0)
(0.73718 0 0)
(0.738005 0 0)
(0.738832 0 0)
(0.739661 0 0)
(0.740492 0 0)
(0.741326 0 0)
(0.742161 0 0)
(0.742998 0 0)
(0.743837 0 0)
(0.744679 0 0)
(0.745522 0 0)
(0.746368 0 0)
(0.747215 0 0)
(0.748065 0 0)
(0.748917 0 0)
(0.74977 0 0)
(0.750626 0 0)
(0.751485 0 0)
(0.752345 0 0)
(0.753207 0 0)
(0.754072 0 0)
(0.754938 0 0)
(0.755807 0 0)
(0.756678 0 0)
(0.757551 0 0)
(0.758427 0 0)
(0.759304 0 0)
(0.760184 0 0)
(0.761066 0 0)
(0.76195 0 0)
(0.762837 0 0)
(0.763726 0 0)
(0.764617 0 0)
(0.76551 0 0)
(0.766406 0 0)
(0.767303 0 0)
(0.768204 0 0)
(0.769106 0 0)
(0.770011 0 0)
(0.770918 0 0)
(0.771828 0 0)
(0.772739 0 0)
(0.773654 0 0)
(0.77457 0 0)
(0.775489 0 0)
(0.776411 0 0)
(0.777334 0 0)
(0.778261 0 0)
(0.779189 0 0)
(0.78012 0 0)
(0.781054 0 0)
(0.78199 0 0)
(0.782929 0 0)
(0.783869 0 0)
(0.784813 0 0)
(0.785759 0 0)
(0.786707 0 0)
(0.787659 0 0)
(0.788612 0 0)
(0.789568 0 0)
(0.790527 0 0)
(0.791488 0 0)
(0.792452 0 0)
(0.793419 0 0)
(0.794388 0 0)
(0.79536 0 0)
(0.796334 0 0)
(0.797311 0 0)
(0.798291 0 0)
(0.799273 0 0)
(0.800259 0 0)
(0.801246 0 0)
(0.802237 0 0)
(0.80323 0 0)
(0.804226 0 0)
(0.805225 0 0)
(0.806227 0 0)
(0.807231 0 0)
(0.808238 0 0)
(0.809248 0 0)
(0.810261 0 0)
(0.811277 0 0)
(0.812295 0 0)
(0.813317 0 0)
(0.814341 0 0)
(0.815368 0 0)
(0.816398 0 0)
(0.817431 0 0)
(0.818467 0 0)
(0.819506 0 0)
(0.820548 0 0)
(0.821593 0 0)
(0.822641 0 0)
(0.823692 0 0)
(0.824746 0 0)
(0.825803 0 0)
(0.826863 0 0)
(0.827926 0 0)
(0.828993 0 0)
(0.830062 0 0)
(0.831135 0 0)
(0.832211 0 0)
(0.833289 0 0)
(0.834371 0 0)
(0.835457 0 0)
(0.836545 0 0)
(0.837637 0 0)
(0.838732 0 0)
(0.83983 0 0)
(0.840932 0 0)
(0.842037 0 0)
(0.843145 0 0)
(0.844256 0 0)
(0.845371 0 0)
(0.846489 0 0)
(0.847611 0 0)
(0.848736 0 0)
(0.849865 0 0)
(0.850997 0 0)
(0.852132 0 0)
(0.853271 0 0)
(0.854413 0 0)
(0.855559 0 0)
(0.856709 0 0)
(0.857862 0 0)
(0.859019 0 0)
(0.860179 0 0)
(0.861343 0 0)
(0.86251 0 0)
(0.863682 0 0)
(0.864857 0 0)
(0.866035 0 0)
(0.867218 0 0)
(0.868404 0 0)
(0.869594 0 0)
(0.870787 0 0)
(0.871985 0 0)
(0.873186 0 0)
(0.874392 0 0)
(0.875601 0 0)
(0.876814 0 0)
(0.878031 0 0)
(0.879252 0 0)
(0.880477 0 0)
(0.881706 0 0)
(0.882939 0 0)
(0.884176 0 0)
(0.885417 0 0)
(0.886662 0 0)
(0.887912 0 0)
(0.889165 0 0)
(0.890423 0 0)
(0.891685 0 0)
(0.892951 0 0)
(0.894222 0 0)
(0.895496 0 0)
(0.896775 0 0)
(0.898059 0 0)
(0.899347 0 0)
(0.900639 0 0)
(0.901935 0 0)
(0.903236 0 0)
(0.904542 0 0)
(0.905852 0 0)
(0.907166 0 0)
(0.908486 0 0)
(0.909809 0 0)
(0.911138 0 0)
(0.912471 0 0)
(0.913808 0 0)
(0.915151 0 0)
(0.917113 0 0)
(0.918825 0 0)
(0.919305 0 0)
(0.919722 0 0)
(0.920136 0 0)
(0.92055 0 0)
(0.920964 0 0)
(0.921379 0 0)
(0.921794 0 0)
(0.922209 0 0)
(0.922625 0 0)
(0.923041 0 0)
(0.923458 0 0)
(0.923875 0 0)
(0.924292 0 0)
(0.92471 0 0)
(0.925129 0 0)
(0.925547 0 0)
(0.925967 0 0)
(0.926386 0 0)
(0.926806 0 0)
(0.927227 0 0)
(0.927647 0 0)
(0.928069 0 0)
(0.92849 0 0)
(0.928912 0 0)
(0.929335 0 0)
(0.929758 0 0)
(0.930181 0 0)
(0.930605 0 0)
(0.931029 0 0)
(0.931454 0 0)
(0.931879 0 0)
(0.932304 0 0)
(0.93273 0 0)
(0.933156 0 0)
(0.933583 0 0)
(0.93401 0 0)
(0.934438 0 0)
(0.934866 0 0)
(0.935294 0 0)
(0.935723 0 0)
(0.936153 0 0)
(0.936582 0 0)
(0.937013 0 0)
(0.937443 0 0)
(0.937874 0 0)
(0.938306 0 0)
(0.938738 0 0)
(0.93917 0 0)
(0.939603 0 0)
(0.940037 0 0)
(0.94047 0 0)
(0.940905 0 0)
(0.941339 0 0)
(0.941774 0 0)
(0.94221 0 0)
(0.942646 0 0)
(0.943082 0 0)
(0.943519 0 0)
(0.943957 0 0)
(0.944395 0 0)
(0.944833 0 0)
(0.945272 0 0)
(0.945711 0 0)
(0.946151 0 0)
(0.946591 0 0)
(0.947031 0 0)
(0.947472 0 0)
(0.947914 0 0)
(0.948356 0 0)
(0.948798 0 0)
(0.949241 0 0)
(0.949685 0 0)
(0.950129 0 0)
(0.950573 0 0)
(0.951018 0 0)
(0.951463 0 0)
(0.951909 0 0)
(0.952355 0 0)
(0.952802 0 0)
(0.953249 0 0)
(0.953697 0 0)
(0.954145 0 0)
(0.954594 0 0)
(0.955043 0 0)
(0.955492 0 0)
(0.955943 0 0)
(0.956393 0 0)
(0.956844 0 0)
(0.957296 0 0)
(0.957748 0 0)
(0.9582 0 0)
(0.958654 0 0)
(0.959107 0 0)
(0.959561 0 0)
(0.960016 0 0)
(0.960471 0 0)
(0.960926 0 0)
(0.961382 0 0)
(0.961839 0 0)
(0.962296 0 0)
(0.962753 0 0)
(0.963211 0 0)
(0.96367 0 0)
(0.964129 0 0)
(0.964589 0 0)
(0.965049 0 0)
(0.965509 0 0)
(0.965971 0 0)
(0.966432 0 0)
(0.966894 0 0)
(0.967357 0 0)
(0.96782 0 0)
(0.968284 0 0)
(0.968748 0 0)
(0.969213 0 0)
(0.969678 0 0)
(0.970144 0 0)
(0.97061 0 0)
(0.971077 0 0)
(0.971544 0 0)
(0.972012 0 0)
(0.972481 0 0)
(0.97295 0 0)
(0.973419 0 0)
(0.973889 0 0)
(0.97436 0 0)
(0.974831 0 0)
(0.975303 0 0)
(0.975775 0 0)
(0.976248 0 0)
(0.976721 0 0)
(0.977195 0 0)
(0.977669 0 0)
(0.978144 0 0)
(0.978619 0 0)
(0.979096 0 0)
(0.979572 0 0)
(0.980049 0 0)
(0.980527 0 0)
(0.981005 0 0)
(0.981484 0 0)
(0.981963 0 0)
(0.982443 0 0)
(0.982924 0 0)
(0.983405 0 0)
(0.983887 0 0)
(0.984369 0 0)
(0.984852 0 0)
(0.985335 0 0)
(0.985819 0 0)
(0.986303 0 0)
(0.986788 0 0)
(0.987274 0 0)
(0.98776 0 0)
(0.988247 0 0)
(0.988734 0 0)
(0.989222 0 0)
(0.989711 0 0)
(0.9902 0 0)
(0.99069 0 0)
(0.99118 0 0)
(0.991671 0 0)
(0.992163 0 0)
(0.992655 0 0)
(0.993147 0 0)
(0.993641 0 0)
(0.994135 0 0)
(0.994629 0 0)
(0.995124 0 0)
(0.99562 0 0)
(0.996116 0 0)
(0.996613 0 0)
(0.997111 0 0)
(0.997609 0 0)
(0.998108 0 0)
(0.998607 0 0)
(0.999107 0 0)
(0.999608 0 0)
(1.00011 0 0)
(1.00061 0 0)
(1.00111 0 0)
(1.00162 0 0)
(1.00212 0 0)
(1.00262 0 0)
(1.00313 0 0)
(1.00364 0 0)
(1.00414 0 0)
(1.00465 0 0)
(1.00516 0 0)
(1.00566 0 0)
(1.00617 0 0)
(1.00668 0 0)
(1.00719 0 0)
(1.0077 0 0)
(1.00822 0 0)
(1.00873 0 0)
(1.00922 0 0)
(1.01011 0 0)
(1.00278 0 0)
(1.06044 0 0)
(1.1305 0 0)
(1.17471 0 0)
(1.20295 0 0)
(1.223 0 0)
(1.23865 0 0)
(1.25178 0 0)
(1.26336 0 0)
(1.27392 0 0)
(1.28377 0 0)
(1.29309 0 0)
(1.302 0 0)
(1.31059 0 0)
(1.31889 0 0)
(1.32696 0 0)
(1.33483 0 0)
(1.34251 0 0)
(1.35004 0 0)
(1.35743 0 0)
(1.3647 0 0)
(1.37184 0 0)
(1.37888 0 0)
(1.38583 0 0)
(1.39269 0 0)
(1.39947 0 0)
(1.40618 0 0)
(1.41281 0 0)
(1.41939 0 0)
(1.4259 0 0)
(1.43236 0 0)
(1.43877 0 0)
(1.44514 0 0)
(1.45146 0 0)
(1.45774 0 0)
(1.46398 0 0)
(1.47018 0 0)
(1.47636 0 0)
(1.4825 0 0)
(1.48861 0 0)
(1.4947 0 0)
(1.50076 0 0)
(1.5068 0 0)
(1.51282 0 0)
(1.51882 0 0)
(1.5248 0 0)
(1.53077 0 0)
(1.53672 0 0)
(1.54266 0 0)
(1.54858 0 0)
(1.5545 0 0)
(1.5604 0 0)
(1.5663 0 0)
(1.57219 0 0)
(1.57808 0 0)
(1.58396 0 0)
(1.58984 0 0)
(1.59571 0 0)
(1.60159 0 0)
(1.60747 0 0)
(1.61335 0 0)
(1.61923 0 0)
(1.62512 0 0)
(1.63102 0 0)
(1.63692 0 0)
(1.64284 0 0)
(1.64876 0 0)
(1.6547 0 0)
(1.66065 0 0)
(1.66662 0 0)
(1.67261 0 0)
(1.67863 0 0)
(1.68466 0 0)
(1.69072 0 0)
(1.69682 0 0)
(1.70295 0 0)
(1.70911 0 0)
(1.71532 0 0)
(1.72158 0 0)
(1.72789 0 0)
(1.73426 0 0)
(1.7407 0 0)
(1.74721 0 0)
(1.75382 0 0)
(1.76053 0 0)
(1.76736 0 0)
(1.77433 0 0)
(1.78146 0 0)
(1.78879 0 0)
(1.79636 0 0)
(1.80423 0 0)
(1.81245 0 0)
(1.82112 0 0)
(1.83035 0 0)
(1.84026 0 0)
(1.85103 0 0)
(1.86284 0 0)
(1.8759 0 0)
(1.8904 0 0)
(1.90647 0 0)
(1.95015 0 0)
(1.97068 0 0)
(1.98987 0 0)
(2.00793 0 0)
(2.02501 0 0)
(2.04125 0 0)
(2.05675 0 0)
(2.07159 0 0)
(2.08586 0 0)
(2.09961 0 0)
(2.11288 0 0)
(2.12573 0 0)
(2.13819 0 0)
(2.1503 0 0)
(2.16207 0 0)
(2.17355 0 0)
(2.18474 0 0)
(2.19568 0 0)
(2.20637 0 0)
(2.21683 0 0)
(2.22708 0 0)
(2.23713 0 0)
(2.247 0 0)
(2.25668 0 0)
(2.26619 0 0)
(2.27555 0 0)
(2.28475 0 0)
(2.29381 0 0)
(2.30273 0 0)
(2.31152 0 0)
(2.32018 0 0)
(2.32873 0 0)
(2.33716 0 0)
(2.34548 0 0)
(2.35369 0 0)
(2.3618 0 0)
(2.36982 0 0)
(2.37774 0 0)
(2.38557 0 0)
(2.39331 0 0)
(2.40097 0 0)
(2.40854 0 0)
(2.41604 0 0)
(2.42346 0 0)
(2.43081 0 0)
(2.43809 0 0)
(2.44529 0 0)
(2.45243 0 0)
(2.4595 0 0)
(2.46651 0 0)
(2.47346 0 0)
(2.48035 0 0)
(2.48718 0 0)
(2.49395 0 0)
(2.50067 0 0)
(2.50733 0 0)
(2.51394 0 0)
(2.5205 0 0)
(2.52701 0 0)
(2.53347 0 0)
(2.53989 0 0)
(2.54625 0 0)
(2.55257 0 0)
(2.55885 0 0)
(2.56508 0 0)
(2.57127 0 0)
(2.57742 0 0)
(2.58353 0 0)
(2.5896 0 0)
(2.59562 0 0)
(2.60161 0 0)
(2.60757 0 0)
(2.61348 0 0)
(2.61936 0 0)
(2.6252 0 0)
(2.63101 0 0)
(2.63679 0 0)
(2.64253 0 0)
(2.64824 0 0)
(2.65391 0 0)
(2.65956 0 0)
(2.66517 0 0)
(2.67075 0 0)
(2.6763 0 0)
(2.68183 0 0)
(2.68732 0 0)
(2.69278 0 0)
(2.69822 0 0)
(2.70363 0 0)
(2.70901 0 0)
(2.71436 0 0)
(2.71969 0 0)
(2.72499 0 0)
(2.73026 0 0)
(2.73551 0 0)
(2.74076 0 0)
(2.74603 0 0)
(2.7513 0 0)
(2.75642 0 0)
(2.76107 0 0)
(2.76489 0 0)
(2.76821 0 0)
(2.77153 0 0)
(2.77483 0 0)
(2.77812 0 0)
(2.7814 0 0)
(2.78468 0 0)
(2.78794 0 0)
(2.79119 0 0)
(2.79443 0 0)
(2.79767 0 0)
(2.80089 0 0)
(2.80411 0 0)
(2.80731 0 0)
(2.81051 0 0)
(2.81369 0 0)
(2.81687 0 0)
(2.82004 0 0)
(2.8232 0 0)
(2.82635 0 0)
(2.82949 0 0)
(2.83263 0 0)
(2.83575 0 0)
(2.83887 0 0)
(2.84197 0 0)
(2.84507 0 0)
(2.84816 0 0)
(2.85124 0 0)
(2.85432 0 0)
(2.85738 0 0)
(2.86044 0 0)
(2.86349 0 0)
(2.86653 0 0)
(2.86956 0 0)
(2.87259 0 0)
(2.87561 0 0)
(2.87862 0 0)
(2.88162 0 0)
(2.88461 0 0)
(2.8876 0 0)
(2.89058 0 0)
(2.89355 0 0)
(2.89651 0 0)
(2.89947 0 0)
(2.90242 0 0)
(2.90536 0 0)
(2.90829 0 0)
(2.91122 0 0)
(2.91414 0 0)
(2.91706 0 0)
(2.91996 0 0)
(2.92286 0 0)
(2.92575 0 0)
(2.92864 0 0)
(2.93151 0 0)
(2.93439 0 0)
(2.93725 0 0)
(2.94011 0 0)
(2.94296 0 0)
(2.9458 0 0)
(2.94864 0 0)
(2.95147 0 0)
(2.9543 0 0)
(2.95711 0 0)
(2.95993 0 0)
(2.96273 0 0)
(2.96553 0 0)
(2.96832 0 0)
(2.97111 0 0)
(2.97389 0 0)
(2.97666 0 0)
(2.97943 0 0)
(2.98219 0 0)
(2.98494 0 0)
(2.98769 0 0)
(2.99044 0 0)
(2.99317 0 0)
(2.9959 0 0)
(2.99863 0 0)
(3.00135 0 0)
(3.00406 0 0)
(3.00677 0 0)
(3.00947 0 0)
(3.01216 0 0)
(3.01485 0 0)
(3.01754 0 0)
(3.02022 0 0)
(3.02289 0 0)
(3.02556 0 0)
(3.02822 0 0)
(3.03088 0 0)
(3.03353 0 0)
(3.03617 0 0)
(3.03881 0 0)
(3.04145 0 0)
(3.04407 0 0)
(3.0467 0 0)
(3.04932 0 0)
(3.05193 0 0)
(3.05454 0 0)
(3.05714 0 0)
(3.05974 0 0)
(3.06233 0 0)
(3.06491 0 0)
(3.0675 0 0)
(3.07007 0 0)
(3.07264 0 0)
(3.07521 0 0)
(3.07777 0 0)
(3.08033 0 0)
(3.08288 0 0)
(3.08542 0 0)
(3.08796 0 0)
(3.0905 0 0)
(3.09303 0 0)
(3.09556 0 0)
(3.09808 0 0)
(3.1006 0 0)
(3.10311 0 0)
(3.10562 0 0)
(3.10812 0 0)
(3.11062 0 0)
(3.11311 0 0)
(3.1156 0 0)
(3.11808 0 0)
(3.12056 0 0)
(3.12303 0 0)
(3.1255 0 0)
(3.12797 0 0)
(3.13043 0 0)
(3.13289 0 0)
(3.13534 0 0)
(3.13778 0 0)
(3.14023 0 0)
(3.14267 0 0)
(3.1451 0 0)
(3.14753 0 0)
(3.14995 0 0)
(3.15237 0 0)
(3.15479 0 0)
(3.1572 0 0)
(3.15961 0 0)
(3.16201 0 0)
(3.16441 0 0)
(3.16681 0 0)
(3.1692 0 0)
(3.17158 0 0)
(3.17396 0 0)
(3.17634 0 0)
(3.17872 0 0)
(3.18108 0 0)
(3.18345 0 0)
(3.18581 0 0)
(3.18817 0 0)
(3.19052 0 0)
(3.19287 0 0)
(3.19522 0 0)
(3.19756 0 0)
(3.19989 0 0)
(3.20223 0 0)
(3.20455 0 0)
(3.20688 0 0)
(3.2092 0 0)
(3.21152 0 0)
(3.21383 0 0)
(3.21614 0 0)
(3.21845 0 0)
(3.22075 0 0)
(3.22304 0 0)
(3.22534 0 0)
(3.22763 0 0)
(3.22991 0 0)
(3.2322 0 0)
(3.23448 0 0)
(3.23675 0 0)
(3.23902 0 0)
(3.24129 0 0)
(3.24355 0 0)
(3.24581 0 0)
(3.24807 0 0)
(3.25032 0 0)
(3.25257 0 0)
(3.25481 0 0)
(3.25706 0 0)
(3.25929 0 0)
(3.26153 0 0)
(3.26376 0 0)
(3.26599 0 0)
(3.26821 0 0)
(3.27043 0 0)
(3.27265 0 0)
(3.27486 0 0)
(3.27707 0 0)
(3.27928 0 0)
(3.28148 0 0)
(3.28368 0 0)
(3.28587 0 0)
(3.28807 0 0)
(3.29025 0 0)
(3.29244 0 0)
(3.29462 0 0)
(3.2968 0 0)
(3.29897 0 0)
(3.30115 0 0)
(3.30331 0 0)
(3.30548 0 0)
(3.30764 0 0)
(3.3098 0 0)
(3.31195 0 0)
(3.31411 0 0)
(3.31626 0 0)
(3.3184 0 0)
(3.32054 0 0)
(3.32268 0 0)
(3.32482 0 0)
(3.32695 0 0)
(3.32908 0 0)
(3.3312 0 0)
(3.33333 0 0)
(3.33544 0 0)
(3.33756 0 0)
(3.33967 0 0)
(3.34178 0 0)
(3.34389 0 0)
(3.34599 0 0)
(3.34809 0 0)
(3.35019 0 0)
(3.35229 0 0)
(3.35438 0 0)
(3.35647 0 0)
(3.35855 0 0)
(3.36063 0 0)
(3.36271 0 0)
(3.36479 0 0)
(3.36686 0 0)
(3.36893 0 0)
(3.371 0 0)
(3.37306 0 0)
(3.37512 0 0)
(3.37718 0 0)
(3.37923 0 0)
(3.38128 0 0)
(3.38333 0 0)
(3.38538 0 0)
(3.38742 0 0)
(3.38946 0 0)
(3.3915 0 0)
(3.39353 0 0)
(3.39557 0 0)
(3.39759 0 0)
(3.39962 0 0)
(3.40164 0 0)
(3.40366 0 0)
(3.40568 0 0)
(3.40769 0 0)
(3.4097 0 0)
(3.41171 0 0)
(3.41372 0 0)
(3.41572 0 0)
(3.41772 0 0)
(3.41972 0 0)
(3.42171 0 0)
(3.4237 0 0)
(3.42569 0 0)
(3.42768 0 0)
(3.42966 0 0)
(3.43164 0 0)
(3.43362 0 0)
(3.4356 0 0)
(3.43757 0 0)
(3.43954 0 0)
(3.4415 0 0)
(3.44347 0 0)
(3.44543 0 0)
(3.44739 0 0)
(3.44935 0 0)
(3.4513 0 0)
(3.45325 0 0)
(3.4552 0 0)
(3.45714 0 0)
(3.45909 0 0)
(3.46103 0 0)
(3.46297 0 0)
(3.4649 0 0)
(3.46683 0 0)
(3.46876 0 0)
(3.47069 0 0)
(3.47261 0 0)
(3.47454 0 0)
(3.47646 0 0)
(3.47837 0 0)
(3.48029 0 0)
(3.4822 0 0)
(3.48411 0 0)
(3.48602 0 0)
(3.48792 0 0)
(3.48982 0 0)
(3.49172 0 0)
(3.49362 0 0)
(3.49551 0 0)
(3.49741 0 0)
(3.49929 0 0)
(3.50118 0 0)
(3.50307 0 0)
(3.50495 0 0)
(3.50683 0 0)
(3.5087 0 0)
(3.51058 0 0)
(3.51245 0 0)
(3.51432 0 0)
(3.51619 0 0)
(3.51805 0 0)
(3.51992 0 0)
(3.52178 0 0)
(3.52363 0 0)
(3.52549 0 0)
(3.52734 0 0)
(3.52919 0 0)
(3.53104 0 0)
(3.53289 0 0)
(3.53473 0 0)
(3.53657 0 0)
(3.53841 0 0)
(3.54025 0 0)
(3.54208 0 0)
(3.54391 0 0)
(3.54574 0 0)
(3.54757 0 0)
(3.54939 0 0)
(3.55121 0 0)
(3.55303 0 0)
(3.55485 0 0)
(3.55667 0 0)
(3.55848 0 0)
(3.56029 0 0)
(3.5621 0 0)
(3.56391 0 0)
(3.56571 0 0)
(3.56751 0 0)
(3.56931 0 0)
(3.57111 0 0)
(3.57291 0 0)
(3.5747 0 0)
(3.57649 0 0)
(3.57828 0 0)
(3.58007 0 0)
(3.58185 0 0)
(3.5836 0 0)
(3.58531 0 0)
(3.58708 0 0)
(3.58919 0 0)
(3.59155 0 0)
(3.59391 0 0)
(3.59627 0 0)
(3.59862 0 0)
(3.60097 0 0)
(3.60331 0 0)
(3.60565 0 0)
(3.60799 0 0)
(3.61032 0 0)
(3.61265 0 0)
(3.61498 0 0)
(3.61731 0 0)
(3.61963 0 0)
(3.62194 0 0)
(3.62426 0 0)
(3.62657 0 0)
(3.62888 0 0)
(3.63118 0 0)
(3.63348 0 0)
(3.63578 0 0)
(3.63807 0 0)
(3.64036 0 0)
(3.64265 0 0)
(3.64494 0 0)
(3.64722 0 0)
(3.64949 0 0)
(3.65177 0 0)
(3.65404 0 0)
(3.65631 0 0)
(3.65857 0 0)
(3.66084 0 0)
(3.6631 0 0)
(3.66535 0 0)
(3.6676 0 0)
(3.66985 0 0)
(3.6721 0 0)
(3.67434 0 0)
(3.67658 0 0)
(3.67882 0 0)
(3.68105 0 0)
(3.68328 0 0)
(3.68551 0 0)
(3.68774 0 0)
(3.68996 0 0)
(3.69218 0 0)
(3.69439 0 0)
(3.69661 0 0)
(3.69882 0 0)
(3.70102 0 0)
(3.70323 0 0)
(3.70543 0 0)
(3.70762 0 0)
(3.70982 0 0)
(3.71201 0 0)
(3.7142 0 0)
(3.71638 0 0)
(3.71857 0 0)
(3.72075 0 0)
(3.72292 0 0)
(3.7251 0 0)
(3.72727 0 0)
(3.72944 0 0)
(3.7316 0 0)
(3.73376 0 0)
(3.73592 0 0)
(3.73808 0 0)
(3.74023 0 0)
(3.74238 0 0)
(3.74453 0 0)
(3.74668 0 0)
(3.74882 0 0)
(3.75096 0 0)
(3.75309 0 0)
(3.75523 0 0)
(3.75736 0 0)
(3.75949 0 0)
(3.76161 0 0)
(3.76373 0 0)
(3.76585 0 0)
(3.76797 0 0)
(3.77008 0 0)
(3.7722 0 0)
(3.7743 0 0)
(3.77641 0 0)
(3.77851 0 0)
(3.78061 0 0)
(3.78271 0 0)
(3.78481 0 0)
(3.7869 0 0)
(3.78899 0 0)
(3.79108 0 0)
(3.79316 0 0)
(3.79524 0 0)
(3.79732 0 0)
(3.7994 0 0)
(3.80147 0 0)
(3.80354 0 0)
(3.80561 0 0)
(3.80767 0 0)
(3.80974 0 0)
(3.8118 0 0)
(3.81386 0 0)
(3.81591 0 0)
(3.81796 0 0)
(3.82001 0 0)
(3.82206 0 0)
(3.8241 0 0)
(3.82615 0 0)
(3.82819 0 0)
(3.83022 0 0)
(3.83226 0 0)
(3.83429 0 0)
(3.83632 0 0)
(3.83834 0 0)
(3.84037 0 0)
(3.84239 0 0)
(3.84441 0 0)
(3.84643 0 0)
(3.84844 0 0)
(3.85045 0 0)
(3.85246 0 0)
(3.85447 0 0)
(3.85647 0 0)
(3.85847 0 0)
(3.86047 0 0)
(3.86247 0 0)
(3.86446 0 0)
(3.86645 0 0)
(3.86844 0 0)
(3.87043 0 0)
(3.87241 0 0)
(3.87439 0 0)
(3.87637 0 0)
(3.87835 0 0)
(3.88032 0 0)
(3.8823 0 0)
(3.88427 0 0)
(3.88623 0 0)
(3.8882 0 0)
(3.89016 0 0)
(3.89212 0 0)
(3.89408 0 0)
(3.89603 0 0)
(3.89799 0 0)
(3.89994 0 0)
(3.90188 0 0)
(3.90383 0 0)
(3.90577 0 0)
(3.90771 0 0)
(3.90965 0 0)
(3.91159 0 0)
(3.91352 0 0)
(3.91545 0 0)
(3.91738 0 0)
(3.91931 0 0)
(3.92124 0 0)
(3.92316 0 0)
(3.92508 0 0)
(3.927 0 0)
(3.92891 0 0)
(3.93082 0 0)
(3.93273 0 0)
(3.93464 0 0)
(3.93655 0 0)
(3.93845 0 0)
(3.94036 0 0)
(3.94225 0 0)
(3.94415 0 0)
(3.94605 0 0)
(3.94794 0 0)
(3.94984 0 0)
(3.95172 0 0)
(3.95358 0 0)
(3.95543 0 0)
(3.95732 0 0)
(3.95944 0 0)
(3.96181 0 0)
(3.96372 0 0)
(3.96324 0 0)
(3.96064 0 0)
(3.95953 0 0)
(3.96017 0 0)
(3.96064 0 0)
(3.96107 0 0)
(3.96148 0 0)
(3.96178 0 0)
(3.96187 0 0)
(3.96178 0 0)
(3.96165 0 0)
(3.96151 0 0)
(3.96127 0 0)
(3.96084 0 0)
(3.96027 0 0)
(3.95964 0 0)
(3.95888 0 0)
(3.95802 0 0)
(3.95704 0 0)
(3.95591 0 0)
(3.95471 0 0)
(3.9534 0 0)
(3.95201 0 0)
(3.95054 0 0)
(3.94893 0 0)
(3.94718 0 0)
(3.94532 0 0)
(3.94337 0 0)
(3.94134 0 0)
(3.93918 0 0)
(3.93675 0 0)
(3.93406 0 0)
(3.93124 0 0)
(3.92855 0 0)
(3.92627 0 0)
(3.92439 0 0)
(3.92258 0 0)
(3.91988 0 0)
(3.91509 0 0)
(3.90781 0 0)
(3.89945 0 0)
(3.89361 0 0)
(3.89519 0 0)
(3.90714 0 0)
(3.92528 0 0)
(3.93487 0 0)
(3.9141 0 0)
(3.84883 0 0)
(3.75368 0 0)
(3.68205 0 0)
(3.71382 0 0)
(3.92839 0 0)
(4.34694 0 0)
(4.77029 0 0)
(4.64451 0 0)
(3.66084 0 0)
(2.48608 0 0)
(1.77109 0 0)
(1.46463 0 0)
(1.35388 0 0)
(1.31857 0 0)
(1.31009 0 0)
(1.31103 0 0)
(1.31534 0 0)
(1.32098 0 0)
(1.32718 0 0)
(1.33373 0 0)
(1.34053 0 0)
(1.34761 0 0)
(1.35499 0 0)
(1.36269 0 0)
(1.37071 0 0)
(1.37901 0 0)
(1.38766 0 0)
(1.39667 0 0)
(1.40601 0 0)
(1.41575 0 0)
(1.42592 0 0)
(1.43651 0 0)
(1.44759 0 0)
(1.45924 0 0)
(1.4715 0 0)
(1.48441 0 0)
(1.49794 0 0)
(1.51214 0 0)
(1.52714 0 0)
(1.54307 0 0)
(1.55998 0 0)
(1.57807 0 0)
(1.59756 0 0)
(1.6187 0 0)
(1.64177 0 0)
(1.66734 0 0)
(1.69626 0 0)
(1.72993 0 0)
(1.77099 0 0)
(1.82418 0 0)
(1.89812 0 0)
(2.00727 0 0)
(2.1726 0 0)
(2.41397 0 0)
(2.71543 0 0)
(3.06217 0 0)
(3.06583 0 0)
(3.06947 0 0)
(3.0731 0 0)
(3.07671 0 0)
(3.08031 0 0)
(3.0839 0 0)
(3.08747 0 0)
(3.09104 0 0)
(3.09459 0 0)
(3.09812 0 0)
(3.10165 0 0)
(3.10517 0 0)
(3.10867 0 0)
(3.11216 0 0)
(3.11564 0 0)
(3.11911 0 0)
(3.12257 0 0)
(3.12602 0 0)
(3.12945 0 0)
(3.13288 0 0)
(3.13629 0 0)
(3.1397 0 0)
(3.14309 0 0)
(3.14648 0 0)
(3.14986 0 0)
(3.15322 0 0)
(3.15658 0 0)
(3.15992 0 0)
(3.16326 0 0)
(3.16659 0 0)
(3.1699 0 0)
(3.17321 0 0)
(3.17651 0 0)
(3.1798 0 0)
(3.18308 0 0)
(3.18635 0 0)
(3.18962 0 0)
(3.19287 0 0)
(3.19611 0 0)
(3.19935 0 0)
(3.20258 0 0)
(3.2058 0 0)
(3.20901 0 0)
(3.21221 0 0)
(3.21541 0 0)
(3.21859 0 0)
(3.22177 0 0)
(3.22494 0 0)
(3.2281 0 0)
(3.23126 0 0)
(3.2344 0 0)
(3.23754 0 0)
(3.24067 0 0)
(3.2438 0 0)
(3.24691 0 0)
(3.25002 0 0)
(3.25312 0 0)
(3.25622 0 0)
(3.2593 0 0)
(3.26238 0 0)
(3.26546 0 0)
(3.26852 0 0)
(3.27158 0 0)
(3.27463 0 0)
(3.27767 0 0)
(3.28071 0 0)
(3.28374 0 0)
(3.28677 0 0)
(3.28978 0 0)
(3.2928 0 0)
(3.2958 0 0)
(3.2988 0 0)
(3.30179 0 0)
(3.30477 0 0)
(3.30775 0 0)
(3.31072 0 0)
(3.31369 0 0)
(3.31665 0 0)
(3.3196 0 0)
(3.32255 0 0)
(3.32548 0 0)
(3.32839 0 0)
(3.33133 0 0)
(3.33433 0 0)
(3.33743 0 0)
(3.3405 0 0)
(3.34302 0 0)
(3.34428 0 0)
(3.34472 0 0)
(3.34516 0 0)
(3.3456 0 0)
(3.34603 0 0)
(3.34647 0 0)
(3.34691 0 0)
(3.34734 0 0)
(3.34778 0 0)
(3.34821 0 0)
(3.34865 0 0)
(3.34908 0 0)
(3.34951 0 0)
(3.34995 0 0)
(3.35038 0 0)
(3.35081 0 0)
(3.35124 0 0)
(3.35167 0 0)
(3.3521 0 0)
(3.35253 0 0)
(3.35296 0 0)
(3.35339 0 0)
(3.35382 0 0)
(3.35425 0 0)
(3.35467 0 0)
(3.3551 0 0)
(3.35553 0 0)
(3.35595 0 0)
(3.35638 0 0)
(3.35681 0 0)
(3.35723 0 0)
(3.35765 0 0)
(3.35808 0 0)
(3.3585 0 0)
(3.35893 0 0)
(3.35935 0 0)
(3.35977 0 0)
(3.36019 0 0)
(3.36061 0 0)
(3.36104 0 0)
(3.36146 0 0)
(3.36188 0 0)
(3.3623 0 0)
(3.36272 0 0)
(3.36314 0 0)
(3.36356 0 0)
(3.36398 0 0)
(3.3644 0 0)
(3.36481 0 0)
(3.36523 0 0)
(3.36565 0 0)
(3.36607 0 0)
(3.36649 0 0)
(3.3669 0 0)
(3.36732 0 0)
(3.36774 0 0)
(3.36815 0 0)
(3.36857 0 0)
(3.36899 0 0)
(3.3694 0 0)
(3.36982 0 0)
(3.37023 0 0)
(3.37065 0 0)
(3.37107 0 0)
(3.37148 0 0)
(3.3719 0 0)
(3.37231 0 0)
(3.37272 0 0)
(3.37314 0 0)
(3.37355 0 0)
(3.37397 0 0)
(3.37438 0 0)
(3.37479 0 0)
(3.37521 0 0)
(3.37562 0 0)
(3.37603 0 0)
(3.37644 0 0)
(3.37685 0 0)
(3.37727 0 0)
(3.37768 0 0)
(3.37809 0 0)
(3.3785 0 0)
(3.3789 0 0)
(3.37931 0 0)
(3.37972 0 0)
(3.38012 0 0)
(3.38053 0 0)
(3.38093 0 0)
(3.38134 0 0)
(3.38174 0 0)
(3.38214 0 0)
(3.38254 0 0)
(3.38294 0 0)
(3.38334 0 0)
(3.38373 0 0)
(3.38413 0 0)
(3.38452 0 0)
(3.38492 0 0)
(3.38531 0 0)
(3.3857 0 0)
(3.3861 0 0)
(3.38649 0 0)
(3.38688 0 0)
(3.38728 0 0)
(3.38767 0 0)
(3.38806 0 0)
(3.38846 0 0)
(3.38886 0 0)
(3.38926 0 0)
(3.38966 0 0)
(3.39006 0 0)
(3.39047 0 0)
(3.39088 0 0)
(3.39129 0 0)
(3.3917 0 0)
(3.39212 0 0)
(3.39254 0 0)
(3.39295 0 0)
(3.39337 0 0)
(3.3938 0 0)
(3.39422 0 0)
(3.39464 0 0)
(3.39506 0 0)
(3.39548 0 0)
(3.3959 0 0)
(3.39631 0 0)
(3.39672 0 0)
(3.39713 0 0)
(3.39753 0 0)
(3.39793 0 0)
(3.39832 0 0)
(3.3987 0 0)
(3.39907 0 0)
(3.39944 0 0)
(3.3998 0 0)
(3.40015 0 0)
(3.4005 0 0)
(3.40084 0 0)
(3.40117 0 0)
(3.40149 0 0)
(3.4018 0 0)
(3.40212 0 0)
(3.40242 0 0)
(3.40272 0 0)
(3.40302 0 0)
(3.40332 0 0)
(3.40361 0 0)
(3.40391 0 0)
(3.4042 0 0)
(3.4045 0 0)
(3.4048 0 0)
(3.4051 0 0)
(3.40541 0 0)
(3.40572 0 0)
(3.40601 0 0)
(3.40629 0 0)
(3.40663 0 0)
(3.40716 0 0)
(3.40798 0 0)
(3.40869 0 0)
(3.40788 0 0)
(3.40361 0 0)
(3.39715 0 0)
(3.40044 0 0)
(3.43925 0 0)
(3.52798 0 0)
(3.58154 0 0)
(3.32692 0 0)
(2.58363 0 0)
(1.75023 0 0)
(1.29165 0 0)
(1.15283 0 0)
(1.12477 0 0)
(1.11979 0 0)
(1.11882 0 0)
(1.11851 0 0)
(1.11831 0 0)
(1.11813 0 0)
(1.11796 0 0)
(1.11779 0 0)
(1.11763 0 0)
(1.11747 0 0)
(1.11731 0 0)
(1.11715 0 0)
(1.117 0 0)
(1.11685 0 0)
(1.11671 0 0)
(1.11656 0 0)
(1.11642 0 0)
(1.11629 0 0)
(1.11615 0 0)
(1.11602 0 0)
(1.11589 0 0)
(1.11577 0 0)
(1.11565 0 0)
(1.11553 0 0)
(1.11541 0 0)
(1.11529 0 0)
(1.11518 0 0)
(1.11507 0 0)
(1.11497 0 0)
(1.11487 0 0)
(1.11477 0 0)
(1.11467 0 0)
(1.11457 0 0)
(1.11448 0 0)
(1.11439 0 0)
(1.1143 0 0)
(1.11422 0 0)
(1.11413 0 0)
(1.11405 0 0)
(1.11398 0 0)
(1.1139 0 0)
(1.11383 0 0)
(1.11376 0 0)
(1.11369 0 0)
(1.11362 0 0)
(1.11356 0 0)
(1.11349 0 0)
(1.11343 0 0)
(1.11338 0 0)
(1.11332 0 0)
(1.11327 0 0)
(1.11322 0 0)
(1.11317 0 0)
(1.11312 0 0)
(1.11307 0 0)
(1.11303 0 0)
(1.11299 0 0)
(1.11295 0 0)
(1.11291 0 0)
(1.11287 0 0)
(1.11284 0 0)
(1.1128 0 0)
(1.11277 0 0)
(1.11274 0 0)
(1.11272 0 0)
(1.11269 0 0)
(1.11266 0 0)
(1.11264 0 0)
(1.11262 0 0)
(1.1126 0 0)
(1.11258 0 0)
(1.11257 0 0)
(1.11255 0 0)
(1.11254 0 0)
(1.11252 0 0)
(1.11251 0 0)
(1.1125 0 0)
(1.11249 0 0)
(1.11249 0 0)
(1.11248 0 0)
(1.11248 0 0)
(1.11247 0 0)
(1.11247 0 0)
(1.11247 0 0)
(1.11247 0 0)
(1.11247 0 0)
(1.11247 0 0)
(1.11248 0 0)
(1.11248 0 0)
(1.11249 0 0)
(1.11249 0 0)
(1.1125 0 0)
(1.11251 0 0)
(1.11252 0 0)
(1.11253 0 0)
(1.11254 0 0)
(1.11255 0 0)
(1.11256 0 0)
(1.11258 0 0)
(1.11259 0 0)
(1.11261 0 0)
(1.11262 0 0)
(1.11264 0 0)
(1.11266 0 0)
(1.11268 0 0)
(1.1127 0 0)
(1.11271 0 0)
(1.11274 0 0)
(1.11276 0 0)
(1.11278 0 0)
(1.1128 0 0)
(1.11282 0 0)
(1.11285 0 0)
(1.11287 0 0)
(1.11289 0 0)
(1.11292 0 0)
(1.11295 0 0)
(1.11297 0 0)
(1.113 0 0)
(1.11303 0 0)
(1.11305 0 0)
(1.11308 0 0)
(1.11311 0 0)
(1.11314 0 0)
(1.11317 0 0)
(1.1132 0 0)
(1.11323 0 0)
(1.11326 0 0)
(1.11329 0 0)
(1.11337 0 0)
(1.1137 0 0)
(1.11426 0 0)
(1.11486 0 0)
(1.11547 0 0)
(1.11608 0 0)
(1.11669 0 0)
(1.11731 0 0)
(1.11792 0 0)
(1.11854 0 0)
(1.11915 0 0)
(1.11977 0 0)
(1.12039 0 0)
(1.12101 0 0)
(1.12164 0 0)
(1.12226 0 0)
(1.12288 0 0)
(1.12351 0 0)
(1.12414 0 0)
(1.12477 0 0)
(1.1254 0 0)
(1.12603 0 0)
(1.12667 0 0)
(1.1273 0 0)
(1.12794 0 0)
(1.12857 0 0)
(1.12921 0 0)
(1.12985 0 0)
(1.1305 0 0)
(1.13114 0 0)
(1.13178 0 0)
(1.13243 0 0)
(1.13308 0 0)
(1.13372 0 0)
(1.13437 0 0)
(1.13502 0 0)
(1.13568 0 0)
(1.13633 0 0)
(1.13698 0 0)
(1.13764 0 0)
(1.13829 0 0)
(1.13895 0 0)
(1.13961 0 0)
(1.14027 0 0)
(1.14093 0 0)
(1.14159 0 0)
(1.14226 0 0)
(1.14292 0 0)
(1.14358 0 0)
(1.14425 0 0)
(1.14492 0 0)
(1.14558 0 0)
(1.14625 0 0)
(1.14692 0 0)
(1.14759 0 0)
(1.14826 0 0)
(1.14893 0 0)
(1.1496 0 0)
(1.15027 0 0)
(1.15094 0 0)
(1.15162 0 0)
(1.15229 0 0)
(1.15296 0 0)
(1.15364 0 0)
(1.15431 0 0)
(1.15499 0 0)
(1.15566 0 0)
(1.15633 0 0)
(1.15701 0 0)
(1.15769 0 0)
(1.15836 0 0)
(1.15904 0 0)
(1.15971 0 0)
(1.16039 0 0)
(1.16107 0 0)
(1.16174 0 0)
(1.16242 0 0)
(1.1631 0 0)
(1.16378 0 0)
(1.16445 0 0)
(1.16513 0 0)
(1.16581 0 0)
(1.16649 0 0)
(1.16717 0 0)
(1.16785 0 0)
(1.16853 0 0)
(1.16921 0 0)
(1.16989 0 0)
(1.17057 0 0)
(1.17125 0 0)
(1.17194 0 0)
(1.17262 0 0)
(1.17331 0 0)
(1.17399 0 0)
(1.17468 0 0)
(1.17537 0 0)
(1.17606 0 0)
(1.17675 0 0)
(1.17744 0 0)
(1.17814 0 0)
(1.17884 0 0)
(1.17954 0 0)
(1.18024 0 0)
(1.18094 0 0)
(1.18165 0 0)
(1.18235 0 0)
(1.18306 0 0)
(1.18378 0 0)
(1.18449 0 0)
(1.18521 0 0)
(1.18594 0 0)
(1.18666 0 0)
(1.18739 0 0)
(1.18812 0 0)
(1.18886 0 0)
(1.1896 0 0)
(1.19034 0 0)
(1.19109 0 0)
(1.19184 0 0)
(1.1926 0 0)
(1.19335 0 0)
(1.19412 0 0)
(1.19488 0 0)
(1.19565 0 0)
(1.19643 0 0)
(1.19721 0 0)
(1.19799 0 0)
(1.19878 0 0)
(1.19957 0 0)
(1.20036 0 0)
(1.20116 0 0)
(1.20196 0 0)
(1.20277 0 0)
(1.20357 0 0)
(1.20438 0 0)
(1.2052 0 0)
(1.20602 0 0)
(1.20684 0 0)
(1.20766 0 0)
(1.20849 0 0)
(1.20931 0 0)
(1.21014 0 0)
(1.21097 0 0)
(1.2118 0 0)
(1.21264 0 0)
(1.21347 0 0)
(1.21431 0 0)
(1.21514 0 0)
(1.21598 0 0)
(1.21681 0 0)
(1.21764 0 0)
(1.21848 0 0)
(1.21931 0 0)
(1.22014 0 0)
(1.22097 0 0)
(1.22179 0 0)
(1.22262 0 0)
(1.22344 0 0)
(1.22425 0 0)
(1.22507 0 0)
(1.22588 0 0)
(1.22668 0 0)
(1.22748 0 0)
(1.22828 0 0)
(1.22907 0 0)
(1.22986 0 0)
(1.23064 0 0)
(1.23141 0 0)
(1.23218 0 0)
(1.23294 0 0)
(1.2337 0 0)
(1.23445 0 0)
(1.23519 0 0)
(1.23593 0 0)
(1.23666 0 0)
(1.23738 0 0)
(1.23809 0 0)
(1.2388 0 0)
(1.2395 0 0)
(1.24019 0 0)
(1.24087 0 0)
(1.24155 0 0)
(1.24222 0 0)
(1.24288 0 0)
(1.24354 0 0)
(1.24418 0 0)
(1.24482 0 0)
(1.24546 0 0)
(1.24608 0 0)
(1.2467 0 0)
(1.24731 0 0)
(1.24791 0 0)
(1.24851 0 0)
(1.2491 0 0)
(1.24969 0 0)
(1.25027 0 0)
(1.25084 0 0)
(1.25141 0 0)
(1.25197 0 0)
(1.25253 0 0)
(1.25308 0 0)
(1.25363 0 0)
(1.25417 0 0)
(1.25471 0 0)
(1.25524 0 0)
(1.25577 0 0)
(1.2563 0 0)
(1.25682 0 0)
(1.25734 0 0)
(1.25786 0 0)
(1.25837 0 0)
(1.25888 0 0)
(1.25939 0 0)
(1.2599 0 0)
(1.26041 0 0)
(1.26091 0 0)
(1.26141 0 0)
(1.26191 0 0)
(1.26241 0 0)
(1.26291 0 0)
(1.2634 0 0)
(1.2639 0 0)
(1.26439 0 0)
(1.26488 0 0)
(1.26538 0 0)
(1.26587 0 0)
(1.26636 0 0)
(1.26685 0 0)
(1.26734 0 0)
(1.26783 0 0)
(1.26832 0 0)
(1.26881 0 0)
(1.2693 0 0)
(1.26978 0 0)
(1.27027 0 0)
(1.27076 0 0)
(1.27124 0 0)
(1.27173 0 0)
(1.27221 0 0)
(1.27269 0 0)
(1.27317 0 0)
(1.27366 0 0)
(1.27414 0 0)
(1.27461 0 0)
(1.27509 0 0)
(1.27557 0 0)
(1.27604 0 0)
(1.27652 0 0)
(1.27699 0 0)
(1.27746 0 0)
(1.27792 0 0)
(1.27839 0 0)
(1.27885 0 0)
(1.27931 0 0)
(1.27977 0 0)
(1.28022 0 0)
(1.28068 0 0)
(1.28113 0 0)
(1.28157 0 0)
(1.28202 0 0)
(1.28246 0 0)
(1.2829 0 0)
(1.28333 0 0)
(1.28376 0 0)
(1.28419 0 0)
(1.28461 0 0)
(1.28503 0 0)
(1.28544 0 0)
(1.28585 0 0)
(1.28626 0 0)
(1.28666 0 0)
(1.28706 0 0)
(1.28746 0 0)
(1.28785 0 0)
(1.28823 0 0)
(1.28861 0 0)
(1.28899 0 0)
(1.28936 0 0)
(1.28973 0 0)
(1.29009 0 0)
(1.29045 0 0)
(1.2908 0 0)
(1.29115 0 0)
(1.29149 0 0)
(1.29183 0 0)
(1.29216 0 0)
(1.29249 0 0)
(1.29282 0 0)
(1.29314 0 0)
(1.29345 0 0)
(1.29376 0 0)
(1.29407 0 0)
(1.29437 0 0)
(1.29467 0 0)
(1.29496 0 0)
(1.29525 0 0)
(1.29553 0 0)
(1.29581 0 0)
(1.29609 0 0)
(1.29636 0 0)
(1.29663 0 0)
(1.29689 0 0)
(1.29716 0 0)
(1.29741 0 0)
(1.29767 0 0)
(1.29792 0 0)
(1.29817 0 0)
(1.29842 0 0)
(1.29866 0 0)
(1.2989 0 0)
(1.29914 0 0)
(1.29937 0 0)
(1.29961 0 0)
(1.29984 0 0)
(1.30007 0 0)
(1.3003 0 0)
(1.30052 0 0)
(1.30075 0 0)
(1.30097 0 0)
(1.3012 0 0)
(1.30142 0 0)
(1.30164 0 0)
(1.30186 0 0)
(1.30208 0 0)
(1.3023 0 0)
(1.30252 0 0)
(1.30274 0 0)
(1.30297 0 0)
(1.30319 0 0)
(1.30341 0 0)
(1.30363 0 0)
(1.30385 0 0)
(1.30408 0 0)
(1.3043 0 0)
(1.30453 0 0)
(1.30475 0 0)
(1.30498 0 0)
(1.30521 0 0)
(1.30544 0 0)
(1.30567 0 0)
(1.3059 0 0)
(1.30614 0 0)
(1.30638 0 0)
(1.30661 0 0)
(1.30685 0 0)
(1.30709 0 0)
(1.30734 0 0)
(1.30758 0 0)
(1.30783 0 0)
(1.30807 0 0)
(1.30832 0 0)
(1.30857 0 0)
(1.30882 0 0)
(1.30908 0 0)
(1.30933 0 0)
(1.30959 0 0)
(1.30984 0 0)
(1.3101 0 0)
(1.31036 0 0)
(1.31062 0 0)
(1.31088 0 0)
(1.31114 0 0)
(1.3114 0 0)
(1.31166 0 0)
(1.31192 0 0)
(1.31218 0 0)
(1.31244 0 0)
(1.3127 0 0)
(1.31296 0 0)
(1.31322 0 0)
(1.31348 0 0)
(1.31374 0 0)
(1.31399 0 0)
(1.31424 0 0)
(1.3145 0 0)
(1.31474 0 0)
(1.31499 0 0)
(1.31523 0 0)
(1.31547 0 0)
(1.31571 0 0)
(1.31594 0 0)
(1.31617 0 0)
(1.31639 0 0)
(1.31661 0 0)
(1.31683 0 0)
(1.31703 0 0)
(1.31724 0 0)
(1.31743 0 0)
(1.31762 0 0)
(1.3178 0 0)
(1.31798 0 0)
(1.31815 0 0)
(1.31831 0 0)
(1.31846 0 0)
(1.3186 0 0)
(1.31873 0 0)
(1.31885 0 0)
(1.31896 0 0)
(1.31906 0 0)
(1.31915 0 0)
(1.31923 0 0)
(1.31929 0 0)
(1.31935 0 0)
(1.31939 0 0)
(1.31941 0 0)
(1.31942 0 0)
(1.31942 0 0)
(1.3194 0 0)
(1.31936 0 0)
(1.31931 0 0)
(1.31925 0 0)
(1.31916 0 0)
(1.31906 0 0)
(1.31894 0 0)
(1.3188 0 0)
(1.31864 0 0)
(1.31846 0 0)
(1.31826 0 0)
(1.31805 0 0)
(1.31781 0 0)
(1.31755 0 0)
(1.31726 0 0)
(1.31696 0 0)
(1.31663 0 0)
(1.31628 0 0)
(1.31591 0 0)
(1.31552 0 0)
(1.3151 0 0)
(1.31466 0 0)
(1.31419 0 0)
(1.3137 0 0)
(1.31319 0 0)
(1.31265 0 0)
(1.31209 0 0)
(1.3115 0 0)
(1.31089 0 0)
(1.31026 0 0)
(1.3096 0 0)
(1.30892 0 0)
(1.30822 0 0)
(1.3075 0 0)
(1.30675 0 0)
(1.30598 0 0)
(1.30519 0 0)
(1.30438 0 0)
(1.30356 0 0)
(1.30271 0 0)
(1.30184 0 0)
(1.30096 0 0)
(1.30005 0 0)
(1.29914 0 0)
(1.2982 0 0)
(1.29726 0 0)
(1.29629 0 0)
(1.29532 0 0)
(1.29434 0 0)
(1.29334 0 0)
(1.29234 0 0)
(1.29132 0 0)
(1.2903 0 0)
(1.28928 0 0)
(1.28824 0 0)
(1.28721 0 0)
(1.28617 0 0)
(1.28513 0 0)
(1.28408 0 0)