/*--------------------------------*- C++ -*----------------------------------*\
| =========                 |                                                 |
| \\      /  F ield         | foam-extend: Open Source CFD                    |
|  \\    /   O peration     | Version:     3.1                                |
|   \\  /    A nd           | Web:         http://www.extend-project.de       |
|    \\/     M anipulation  |                                                 |
\*---------------------------------------------------------------------------*/
FoamFile
{
    version     2.0;
    format      ascii;
    class       volScalarField;
    location    "16";
    object      k;
}
// * * * * * * * * * * * * * * * * * * * * * * * * * * * * * * * * * * * * * //

dimensions      [0 2 -2 0 0 0 0];

internalField   nonuniform List<scalar> 
119952
(
0.05106189
0.04636976
0.04454896
0.04346116
0.04252547
0.04154075
0.04146189
0.04190342
0.04267799
0.0436732
0.04480971
0.04602095
0.04724531
0.04845514
0.04963343
0.05076134
0.0518197
0.05279752
0.05371166
0.05472718
0.05715815
0.05564568
0.05546631
0.05687499
0.05386964
0.05171716
0.04962395
0.04741726
0.0442771
0.02405264
0.08313384
0.07933392
0.07640173
0.07447289
0.07341084
0.07300764
0.07306511
0.07342176
0.07397898
0.07476676
0.07329673
0.07549947
0.07943347
0.08399104
0.08857561
0.09296131
0.09703638
0.1008213
0.1043338
0.1175122
0.1202864
0.1225129
0.1241042
0.1252175
0.1259421
0.1262858
0.1261963
0.1256275
0.1245723
0.123397
0.1214206
0.1190651
0.1166398
0.1143987
0.1123269
0.1103954
0.1086025
0.1070764
0.1077031
0.1065317
0.1050866
0.1045144
0.104279
0.1039677
0.1035795
0.1033005
0.1031782
0.1032135
0.103389
0.1036846
0.1040701
0.1045106
0.1049659
0.105386
0.1057132
0.1058819
0.1058145
0.1054461
0.1049704
0.104394
0.103239
0.1023451
0.1021232
0.1013783
0.1003203
0.09938403
0.09821111
0.09516274
0.09266564
0.09049297
0.08858637
0.08694675
0.08550726
0.08424999
0.08313563
0.08213018
0.0811963
0.08030802
0.07946035
0.07863599
0.07782485
0.07703277
0.07627399
0.07556812
0.07494759
0.0744411
0.07405345
0.07378254
0.07362476
0.07357398
0.07362011
0.07374788
0.07393687
0.07416378
0.07440708
0.07465102
0.074887
0.07511318
0.07533216
0.07554561
0.07574606
0.07591126
0.07600936
0.07599741
0.07582746
0.07546254
0.07486874
0.07399346
0.07280007
0.07125159
0.0692355
0.06690775
0.06546218
0.06586904
0.06802157
0.07105045
0.07393763
0.07607396
0.07698459
0.07666578
0.07536005
0.07339169
0.07117563
0.06895935
0.06688094
0.06500325
0.06333551
0.06187615
0.06060817
0.05951699
0.05858967
0.05782064
0.05720417
0.05672774
0.05637005
0.05610081
0.0558808
0.05566084
0.05538314
0.0550061
0.05450196
0.05385667
0.0530803
0.05221023
0.0512564
0.05022875
0.04916081
0.04808672
0.04705205
0.04612479
0.04547853
0.0454492
0.04622137
0.04747722
0.04876501
0.04982836
0.05057685
0.05102238
0.05122972
0.05128218
0.05126718
0.05126094
0.05129314
0.05135567
0.05142152
0.05145327
0.05144096
0.05135914
0.05076634
0.04986491
0.04884172
0.04778211
0.04672493
0.04568824
0.04468415
0.04372848
0.04283594
0.04201494
0.04126884
0.04059331
0.03998719
0.03944853
0.03896725
0.03853105
0.03813136
0.037763
0.03742398
0.03711232
0.03682636
0.03656819
0.03634862
0.03619756
0.03618867
0.03644461
0.03698176
0.03782737
0.03890288
0.03988226
0.04050235
0.04073265
0.04068982
0.04049197
0.04018351
0.0400298
0.03973449
0.03929052
0.0387502
0.03815826
0.03754586
0.03693991
0.03635512
0.03579582
0.03524919
0.03471933
0.03420834
0.03370472
0.03321362
0.0327603
0.03235526
0.03200276
0.0317033
0.03145589
0.03125838
0.03110745
0.03099868
0.0309267
0.03088568
0.03086981
0.03087341
0.03089119
0.03091836
0.03095062
0.03098435
0.03101644
0.03104417
0.03106527
0.03108251
0.03138173
0.03148512
0.03150038
0.03139666
0.03127124
0.03117595
0.03116457
0.03124431
0.03144746
0.03176595
0.03233587
0.03352266
0.03530074
0.03738312
0.03932468
0.04084457
0.04186945
0.04243997
0.04260942
0.04241628
0.04190551
0.04112631
0.04012975
0.03897492
0.03775751
0.03655923
0.03542447
0.03437119
0.03341115
0.03254246
0.03176214
0.03107116
0.03047147
0.02996712
0.02955271
0.02921605
0.02894209
0.02871203
0.02850584
0.02831297
0.02813079
0.0279601
0.02780099
0.02765254
0.02751523
0.02738813
0.02725695
0.02712588
0.02700098
0.0268798
0.02676174
0.02664799
0.02653787
0.0264466
0.0264094
0.02622536
0.02603304
0.02584279
0.02565318
0.02546628
0.02528483
0.02511029
0.02494269
0.02478115
0.02462409
0.02446978
0.02431654
0.02416294
0.02400786
0.02385053
0.02369057
0.02352791
0.02336278
0.02319558
0.02302685
0.02285725
0.02268748
0.02251823
0.02235024
0.0221842
0.02202074
0.02186044
0.02170383
0.02155144
0.02140375
0.0212612
0.02112423
0.02099328
0.0208688
0.02075124
0.02064097
0.02053831
0.02044352
0.02035684
0.02027857
0.02020907
0.0201488
0.02009831
0.02005826
0.02002941
0.02001253
0.02000826
0.02001705
0.02003926
0.02007511
0.02012468
0.02018773
0.02026362
0.02035106
0.02044812
0.02055233
0.02066099
0.0207716
0.02088216
0.02099125
0.02109774
0.02120036
0.02129729
0.02138606
0.0214636
0.02152659
0.02157172
0.02159556
0.02159595
0.02157345
0.02152899
0.02146437
0.02138281
0.02128828
0.02118594
0.02108168
0.02097944
0.02088029
0.02078538
0.02069282
0.02059459
0.02046766
0.02032742
0.02062749
0.1058198
0.09837629
0.09949441
0.10357
0.1082511
0.1125823
0.1162873
0.1193591
0.1218978
0.1226232
0.127702
0.1350513
0.1427743
0.1499147
0.1560056
0.1610268
0.165114
0.1683593
0.1907594
0.1909714
0.190962
0.1904339
0.1896359
0.1887924
0.1879839
0.1872816
0.1867206
0.1862466
0.1861193
0.1859522
0.1854361
0.1847365
0.1839193
0.1830288
0.1820904
0.1811145
0.1801176
0.1794345
0.1786388
0.1773997
0.1760064
0.1745054
0.172941
0.1713773
0.1698732
0.1684962
0.1673294
0.1664093
0.1657535
0.1654694
0.1655395
0.1659728
0.1667924
0.1680247
0.1696629
0.1716352
0.1860378
0.1880498
0.1898177
0.1912583
0.1922955
0.1928561
0.192871
0.1922734
0.1909789
0.1889582
0.1863823
0.1835564
0.1803522
0.176809
0.173053
0.1692093
0.1654251
0.1618286
0.1585282
0.1552169
0.1518407
0.1488604
0.146262
0.1438935
0.1417232
0.1398286
0.138285
0.1371751
0.1364604
0.1360918
0.1360218
0.1362009
0.1365685
0.1370454
0.1375397
0.1379527
0.1381963
0.1382017
0.1379577
0.137482
0.1367199
0.1357762
0.1349299
0.1340547
0.132883
0.1313888
0.1295427
0.1270911
0.1242319
0.1214964
0.1188798
0.1163153
0.1138172
0.1114128
0.1091345
0.107009
0.1050526
0.1032716
0.1016662
0.1002308
0.09895434
0.09782408
0.09682955
0.0959635
0.09522227
0.09460371
0.09412528
0.09381292
0.09366897
0.09369257
0.09387818
0.0942137
0.09467812
0.09524261
0.09587575
0.09654946
0.09724372
0.09794976
0.09866978
0.09941164
0.100181
0.100974
0.1017714
0.1025353
0.1032082
0.103714
0.1039594
0.1038601
0.1034153
0.1025557
0.1011951
0.09929654
0.0969891
0.09451629
0.09207962
0.08982962
0.08791864
0.08648488
0.08557625
0.08511655
0.08492854
0.08478584
0.08448763
0.08391591
0.08305118
0.08194935
0.0807022
0.07940461
0.07813428
0.07695277
0.07593707
0.07514481
0.07458681
0.07425768
0.07413863
0.07419812
0.07439152
0.07466182
0.07494436
0.07517488
0.07529547
0.07525845
0.07503057
0.07459627
0.07395361
0.0731059
0.07209371
0.07096533
0.06973082
0.06840023
0.0670083
0.0656328
0.06436543
0.06326599
0.06234682
0.06159238
0.06097513
0.0604668
0.060044
0.05969128
0.05940235
0.05918145
0.05903971
0.05899022
0.05904039
0.05919202
0.05942264
0.05971346
0.05969875
0.05980875
0.05987816
0.05982481
0.05961259
0.05923766
0.05872
0.05809583
0.05740915
0.05670335
0.05601474
0.05537036
0.05478863
0.05427693
0.05383384
0.05344843
0.05310348
0.05278168
0.05246922
0.05215484
0.05182637
0.05146766
0.0510577
0.05057218
0.04998754
0.04928889
0.04848315
0.04761698
0.04677271
0.04602177
0.04538081
0.04481577
0.04428364
0.04376194
0.04325726
0.04280954
0.042486
0.04231729
0.0422823
0.04235633
0.04250521
0.04268519
0.04285291
0.04296916
0.04300422
0.04293608
0.04274944
0.04244845
0.04205491
0.041602
0.04111707
0.04063046
0.04016662
0.03974176
0.03936867
0.0390559
0.03880685
0.03861988
0.03848926
0.03840671
0.0383627
0.03834714
0.03834975
0.0383603
0.03836948
0.03836893
0.03835067
0.03830738
0.03823299
0.03812291
0.03975429
0.0395616
0.03936649
0.03915724
0.0389236
0.0386652
0.03837703
0.0380501
0.03765636
0.03716323
0.03659854
0.03605024
0.03561535
0.03535311
0.03527615
0.0353731
0.03562713
0.03602612
0.03655781
0.03720426
0.03793441
0.03868823
0.03942517
0.04012309
0.04076131
0.04132361
0.0417974
0.0421724
0.04244135
0.04260243
0.04266141
0.04263085
0.04252747
0.04236861
0.04216801
0.04193188
0.0416582
0.04134564
0.04100303
0.04064582
0.04028706
0.03993623
0.03959507
0.03926509
0.03894673
0.03863845
0.03833774
0.03804467
0.03775962
0.03748313
0.03721255
0.03694735
0.03668254
0.03642284
0.03616946
0.03590318
0.0356244
0.03533883
0.03504932
0.03475597
0.03445829
0.03415588
0.03384836
0.03353556
0.03321748
0.03289428
0.03256628
0.03223391
0.03189777
0.03155859
0.03121723
0.03087462
0.03053178
0.03018977
0.02984966
0.02951251
0.02917937
0.02885127
0.02852919
0.02821406
0.02790675
0.02760806
0.02731874
0.02703949
0.02677099
0.02651394
0.02626902
0.02603694
0.02581839
0.02561401
0.02542438
0.02524998
0.02509128
0.02494875
0.02482297
0.02471462
0.02462457
0.02455385
0.02450367
0.02447521
0.02446949
0.02448728
0.02452917
0.02459552
0.02468637
0.02480131
0.02493909
0.02509748
0.02527312
0.02546178
0.02565885
0.02585993
0.02606135
0.02626028
0.02645424
0.02664049
0.02681529
0.02697376
0.02711005
0.02721791
0.02729135
0.02732526
0.02731612
0.02726269
0.02716655
0.02703221
0.02686668
0.02667868
0.02647801
0.02627511
0.02607846
0.02589406
0.02572768
0.02558327
0.02546409
0.0253709
0.02530916
0.02528721
0.02529037
0.05570635
0.06056249
0.06618963
0.07228934
0.0789212
0.08623509
0.0945938
0.1046604
0.1175045
0.1342259
0.202454
0.2199625
0.23659
0.2513578
0.2643939
0.2773235
0.2898805
0.3024668
0.319224
0.3920813
0.4026316
0.4088057
0.4129127
0.415478
0.4168536
0.4172545
0.4168072
0.4154051
0.4133508
0.4101497
0.4071168
0.4042469
0.4013371
0.3982039
0.3947704
0.391038
0.3870499
0.3830868
0.3775686
0.3721458
0.3668345
0.361649
0.3565884
0.3516258
0.3467403
0.3419216
0.3371739
0.3325565
0.3279865
0.3234729
0.3190589
0.3147457
0.3105484
0.306492
0.3025963
0.298875
0.3088467
0.3053984
0.3018734
0.2983197
0.2947064
0.2910098
0.2872545
0.2834907
0.2798161
0.2763176
0.27303
0.2700022
0.2672224
0.2646211
0.2621213
0.2596641
0.2572183
0.2547833
0.2523586
0.2499167
0.2474631
0.2449823
0.2424101
0.2397182
0.236909
0.2340022
0.2310367
0.2280723
0.2252034
0.2225507
0.2202134
0.2182837
0.2168569
0.2160304
0.2159065
0.2165578
0.2180154
0.2201811
0.2226986
0.2253184
0.2277928
0.2299181
0.231554
0.2326152
0.2330363
0.2327429
0.2316495
0.2297297
0.2271388
0.2237937
0.2196946
0.2149807
0.2098584
0.2045119
0.1991542
0.1939213
0.1889529
0.1841709
0.1796377
0.1754982
0.1717734
0.1684177
0.1654142
0.1627796
0.1605278
0.1587393
0.1574458
0.1566248
0.156243
0.1562529
0.1565812
0.1571225
0.1577468
0.1583217
0.1587292
0.158885
0.1587411
0.1582948
0.157561
0.156589
0.1555024
0.1542557
0.1527663
0.1509607
0.1488027
0.1462158
0.1433082
0.1403072
0.137279
0.1342324
0.1311946
0.1282032
0.1253035
0.1225386
0.119943
0.1175416
0.1153496
0.1133736
0.1116132
0.1100652
0.1087257
0.1075905
0.1066558
0.1059204
0.1053855
0.1050654
0.1049797
0.1051225
0.1054833
0.106044
0.1067751
0.107637
0.1085873
0.1095901
0.1106223
0.1116772
0.1127639
0.1138998
0.1150995
0.1163615
0.1176603
0.1189434
0.1201349
0.1211396
0.1218495
0.1221573
0.122002
0.1213807
0.1202496
0.1186115
0.1165537
0.114184
0.1115723
0.1087861
0.105924
0.1031152
0.1004912
0.09815283
0.09614607
0.09444562
0.09296913
0.09161999
0.09032718
0.08906377
0.08784183
0.08669585
0.08566711
0.08479335
0.08410113
0.08362471
0.08342484
0.08349909
0.08382166
0.08435342
0.08503976
0.08580971
0.08658196
0.0872763
0.08782242
0.0881639
0.08826585
0.08811993
0.0877387
0.08714415
0.0863599
0.08542525
0.08438726
0.08327191
0.08211773
0.08097583
0.07989031
0.07888351
0.07795835
0.07710529
0.07630757
0.07554547
0.07479828
0.07404544
0.0732705
0.07246382
0.07162772
0.07077334
0.06992383
0.06910005
0.06833254
0.06762872
0.06701311
0.06648005
0.06602892
0.06565596
0.06534916
0.06509168
0.06486999
0.06467658
0.06451098
0.06437866
0.06428848
0.06425032
0.06427219
0.0643565
0.064498
0.06468483
0.06490194
0.06513466
0.06536992
0.06559486
0.06579415
0.06594837
0.06603419
0.06602679
0.06590335
0.06564873
0.06525995
0.0647454
0.0641167
0.06338046
0.06253785
0.06158873
0.06053727
0.05939655
0.0581908
0.05695445
0.05572581
0.0545397
0.05342961
0.05242551
0.05154807
0.05080553
0.05019373
0.04969761
0.04929339
0.04895193
0.04864321
0.04834121
0.04802724
0.04769202
0.04733412
0.04696231
0.04660169
0.04628378
0.04602525
0.04583575
0.04571994
0.04567688
0.0457008
0.04578276
0.04591178
0.04607549
0.04626022
0.04645251
0.04663959
0.04680931
0.04694969
0.0470495
0.0471031
0.04711114
0.04707272
0.04698259
0.04683654
0.04664124
0.04640616
0.04612116
0.04578191
0.04537751
0.04489155
0.04431598
0.04366771
0.04298525
0.0423042
0.04164526
0.04101357
0.0404078
0.03983115
0.0392935
0.03881149
0.03840497
0.03809238
0.03788811
0.03780335
0.03784555
0.03801718
0.03831451
0.03872608
0.0392309
0.03979791
0.04038663
0.04094891
0.04146705
0.04193526
0.04234944
0.04270668
0.04300498
0.04324359
0.04342256
0.04354204
0.04360219
0.04360263
0.04354265
0.04342438
0.04325647
0.04305257
0.04282423
0.04257942
0.04232385
0.04206105
0.04179326
0.04152124
0.04124471
0.04096306
0.040675
0.04037859
0.04007104
0.0397536
0.03942777
0.0390939
0.03875189
0.03840199
0.03804485
0.03768128
0.03731209
0.03693803
0.03655984
0.03617823
0.03579395
0.03540781
0.03502066
0.03463341
0.03424703
0.03386252
0.03348093
0.0331033
0.03273067
0.03236407
0.03200453
0.03165305
0.03131058
0.030978
0.03065614
0.03034582
0.0300478
0.02976283
0.02949172
0.02923532
0.02899451
0.02877019
0.02856322
0.02837437
0.02820431
0.02805364
0.02792297
0.02781307
0.02772487
0.02765963
0.02761883
0.02760413
0.02761715
0.02765926
0.02773149
0.02783462
0.02796908
0.02813481
0.02833092
0.0285553
0.02880428
0.02907273
0.02935453
0.02964338
0.0299338
0.03022171
0.03050432
0.03077912
0.03104263
0.03128949
0.03151251
0.03170338
0.03185384
0.03195657
0.03200612
0.03199961
0.03193762
0.03182448
0.03166836
0.03148052
0.03127394
0.0310618
0.03085618
0.03066613
0.03049739
0.03035547
0.03024231
0.03015998
0.03010424
0.03007754
0.03006776
0.03007146
0.04246938
0.0483836
0.05371917
0.08343087
0.1132788
0.1505022
0.1752613
0.2000253
0.2233205
0.2452065
0.2645627
0.2814153
0.2978069
0.3144952
0.331344
0.3483033
0.3649652
0.3812922
0.3974559
0.4133492
0.4288202
0.4436901
0.4576988
0.470809
0.482815
0.4937457
0.5037495
0.5127257
0.5204212
0.5267744
0.5320447
0.5549989
0.5546015
0.5527769
0.5499492
0.5462587
0.5418531
0.5368752
0.5314417
0.5257026
0.519803
0.5137636
0.5076489
0.5014972
0.4953548
0.4892393
0.4831595
0.4771163
0.4711084
0.4651067
0.4589285
0.4526336
0.4462155
0.4396803
0.4330487
0.4263429
0.4195847
0.4128067
0.4060496
0.3993758
0.3928761
0.3866106
0.3806018
0.3748513
0.3693554
0.3641071
0.3591192
0.3543443
0.3495574
0.3450466
0.3407569
0.3365973
0.3324679
0.3282861
0.324009
0.3196577
0.3153353
0.3111896
0.3073602
0.3039283
0.3008775
0.2981225
0.2955614
0.2930961
0.29065
0.2881975
0.2857491
0.2833167
0.2808821
0.2783777
0.2757301
0.2728916
0.2698451
0.2665951
0.2631659
0.2596303
0.2561067
0.2527556
0.2497497
0.2472527
0.2454275
0.2444457
0.2444825
0.2456872
0.2481118
0.2515894
0.2557017
0.2599784
0.2640345
0.2675644
0.270358
0.2722917
0.2732644
0.2731838
0.2719813
0.2696818
0.2664953
0.2622919
0.2571075
0.2510948
0.2444851
0.2375243
0.2304629
0.2234992
0.2168169
0.2105117
0.2046464
0.199295
0.1944885
0.1902053
0.1864184
0.1831263
0.1803409
0.1781065
0.1764934
0.1754977
0.1750981
0.1752471
0.1758516
0.1767628
0.1777935
0.1787557
0.1794884
0.1798762
0.1798583
0.17943
0.1786148
0.177466
0.1761057
0.1745331
0.1727202
0.1706231
0.1682082
0.165444
0.162374
0.1591117
0.1557398
0.1522993
0.1488239
0.1453575
0.1419527
0.1386625
0.1355332
0.1326011
0.1298921
0.1274227
0.1252018
0.1232343
0.1215232
0.1200718
0.1188845
0.1179672
0.1173259
0.1169661
0.116904
0.1171442
0.1176675
0.1184452
0.1194334
0.1205763
0.1218179
0.1231159
0.1244495
0.1258229
0.127263
0.1288053
0.1304745
0.1322648
0.1341254
0.1359697
0.1376882
0.1391483
0.1402146
0.140777
0.1407831
0.1402803
0.1392703
0.1377854
0.1358874
0.1336146
0.1309817
0.1280241
0.1248066
0.1214285
0.1180165
0.114707
0.1116186
0.1088204
0.1063219
0.1040909
0.1020841
0.1002716
0.098648
0.09722818
0.09603839
0.09510522
0.09444857
0.09408023
0.09401227
0.09430054
0.09491341
0.09579512
0.09687209
0.09805075
0.09922527
0.100295
0.1011748
0.1017993
0.1021342
0.1021831
0.1019771
0.1015581
0.1009698
0.1002558
0.09945997
0.09861829
0.09777044
0.09695125
0.09618022
0.09546119
0.09478527
0.09413503
0.09348964
0.0928288
0.09213191
0.09135879
0.0904742
0.089452
0.08828399
0.08698227
0.08558328
0.08411629
0.0826169
0.08112134
0.07966699
0.0782877
0.07701202
0.07586759
0.07487374
0.0740419
0.07337707
0.07287867
0.07254232
0.07236146
0.07232882
0.07243712
0.07267806
0.07304008
0.07350646
0.07405601
0.07466489
0.0753098
0.07596859
0.07661887
0.07723603
0.07779286
0.07825931
0.07860583
0.0788075
0.07884839
0.07872183
0.07842682
0.0779621
0.07732422
0.07651036
0.0755224
0.0743698
0.07307049
0.07164944
0.07013613
0.06856199
0.06695699
0.06535169
0.06377632
0.06225795
0.06081873
0.05947589
0.05824113
0.05711972
0.05611102
0.05521065
0.05441131
0.0537041
0.05308005
0.05253257
0.0520585
0.05165672
0.05132903
0.0510981
0.05098173
0.05097429
0.0510661
0.05124446
0.0514947
0.0518012
0.05214727
0.05251527
0.05288749
0.05324762
0.05357936
0.05386757
0.05409979
0.05426931
0.05437272
0.05441163
0.05438906
0.05431051
0.0541814
0.05400041
0.05375533
0.05343922
0.05304586
0.05256852
0.05200665
0.05137452
0.05069478
0.04998055
0.04923136
0.04844273
0.04761063
0.04673393
0.04581787
0.04487539
0.04392554
0.04298983
0.04209076
0.04125148
0.04049501
0.03984287
0.03931282
0.03891632
0.03865753
0.03853322
0.03853284
0.0386402
0.03883855
0.0391118
0.03944386
0.03981793
0.04021733
0.04062625
0.0410298
0.04141418
0.04176709
0.04207877
0.04234265
0.042555
0.04271508
0.04282483
0.04288762
0.04290704
0.04288647
0.04282902
0.04274032
0.04262465
0.04248425
0.04232061
0.04213413
0.04192574
0.04169665
0.04144765
0.04117969
0.04089401
0.04059213
0.04027583
0.03994701
0.03960763
0.03925948
0.03890423
0.03854334
0.03817815
0.03780991
0.03743976
0.03706883
0.03669819
0.03632893
0.03596209
0.03559872
0.03523988
0.03488661
0.03453994
0.03420093
0.03387064
0.03354999
0.03323988
0.03294122
0.03265488
0.03238167
0.03212247
0.03187819
0.03164986
0.03143854
0.03124538
0.03107145
0.03091771
0.03078492
0.03067376
0.03058493
0.03051939
0.03047842
0.03046375
0.03047751
0.03052196
0.03059919
0.03071083
0.03085807
0.03104174
0.03126225
0.03151941
0.03181178
0.03213602
0.0324866
0.03285601
0.03323573
0.03361765
0.03399557
0.0343659
0.03472699
0.03507706
0.03541192
0.03572396
0.03600286
0.03623736
0.03641707
0.03653387
0.03658279
0.03656277
0.03647731
0.03633492
0.03614885
0.03593593
0.03571428
0.03550062
0.03530795
0.03514429
0.03501318
0.03491623
0.03485246
0.03481968
0.03481366
0.03482959
0.03486102
0.03489542
0.02115036
0.02365156
0.02608933
0.03501118
0.04678997
0.0667949
0.08082713
0.09573288
0.1117618
0.1280506
0.1449353
0.1634914
0.1833722
0.2037798
0.2250706
0.2489946
0.2858791
0.3033722
0.3212062
0.3393948
0.3581579
0.3767737
0.394656
0.4118713
0.4283723
0.4442629
0.4597899
0.4749394
0.4896717
0.50388
0.517413
0.5301128
0.5418007
0.5522716
0.5613132
0.5686731
0.5737007
0.5769986
0.5782911
0.5776882
0.5758642
0.5724116
0.5654381
0.5584481
0.5512544
0.5437708
0.5361006
0.5283785
0.5207128
0.5132081
0.505951
0.4990198
0.4924523
0.486255
0.4804094
0.4748732
0.469591
0.4645062
0.459558
0.4547136
0.4499447
0.4452404
0.44056
0.4356769
0.4306135
0.4254345
0.4201767
0.4148533
0.4094621
0.4040206
0.3985919
0.3932814
0.3881843
0.3833512
0.3787765
0.3744391
0.3703122
0.3664196
0.3627517
0.3593089
0.3560819
0.3530176
0.3500195
0.3469753
0.3437659
0.3402967
0.3365647
0.3327096
0.3289818
0.3256283
0.322781
0.3204257
0.3184547
0.316721
0.3150582
0.3133381
0.3115196
0.3096402
0.30775
0.3058464
0.303861
0.3017271
0.2993284
0.2966021
0.2935219
0.2900958
0.2863779
0.2825285
0.2788827
0.275729
0.273318
0.2719112
0.2717996
0.2732898
0.2766634
0.2819796
0.2888232
0.2963709
0.3038519
0.3107178
0.3165569
0.3210606
0.3239959
0.3251743
0.324471
0.3218439
0.3175056
0.3120088
0.305359
0.2976854
0.2891935
0.2801362
0.2707921
0.2614569
0.2523802
0.2437886
0.2358293
0.2285711
0.2220513
0.2162732
0.2112012
0.2067971
0.2030465
0.1999572
0.1975795
0.196022
0.1952956
0.1953904
0.1962521
0.1977358
0.1995911
0.2015166
0.2032311
0.2045223
0.2052625
0.2053981
0.2049344
0.2039141
0.2024311
0.2006545
0.1985753
0.1962005
0.193526
0.190542
0.1872415
0.1836541
0.1798588
0.1759418
0.1719579
0.1679473
0.1639551
0.1600333
0.1562353
0.1526107
0.1492009
0.1460369
0.1431409
0.140528
0.1382091
0.1361936
0.1344915
0.1331144
0.1320752
0.1313865
0.1310584
0.1310954
0.1315042
0.1322554
0.1333015
0.1345754
0.1359995
0.1375088
0.1390647
0.1406555
0.1423132
0.1441056
0.1460983
0.1483273
0.150774
0.153352
0.1559143
0.1582713
0.1602151
0.1615589
0.1621892
0.1621129
0.1614641
0.160296
0.1586562
0.1565847
0.1540955
0.1511932
0.1479101
0.1443099
0.140474
0.1365046
0.1325543
0.1287658
0.1252443
0.1220437
0.1191702
0.1166039
0.114323
0.112321
0.1106094
0.1092116
0.1081543
0.1074594
0.1071397
0.1071952
0.1076343
0.1084799
0.10966
0.1110787
0.1126126
0.1141252
0.1154931
0.1166139
0.1174108
0.1178651
0.1180106
0.1179075
0.1176192
0.1172051
0.1167171
0.1161753
0.1156151
0.1150695
0.1145584
0.1140892
0.113657
0.1132382
0.1128037
0.1123377
0.1117984
0.1111358
0.1103202
0.1093222
0.108119
0.1066968
0.1050648
0.1032421
0.1012751
0.0992352
0.09717241
0.09512347
0.09312778
0.09122553
0.08945888
0.08786807
0.08648791
0.085344
0.08445032
0.08381023
0.08341923
0.08326736
0.08334118
0.08362518
0.08410195
0.08475087
0.08554661
0.08645842
0.08745051
0.08848299
0.08951329
0.09049807
0.09139468
0.09216242
0.09276592
0.09317897
0.09338623
0.0933811
0.09316088
0.09272291
0.09206412
0.09118398
0.09008869
0.08879462
0.08732809
0.08572008
0.08400059
0.08219619
0.08032991
0.07842393
0.07650169
0.07458698
0.0727028
0.07087093
0.06911172
0.06744362
0.06588313
0.06444466
0.06313959
0.06197582
0.06095801
0.06008826
0.05936583
0.05878797
0.05835045
0.05804668
0.05788248
0.05787496
0.05800623
0.05825517
0.05859971
0.05901746
0.05948527
0.05997899
0.06047419
0.06094854
0.0613818
0.06175525
0.06205561
0.06227817
0.06242457
0.06250043
0.06251192
0.06246398
0.06236135
0.06218921
0.06193917
0.06160747
0.06119179
0.06069199
0.06011376
0.05947004
0.05877384
0.05802843
0.05722819
0.05636605
0.05543566
0.05443326
0.05336053
0.05222527
0.05103992
0.04981962
0.04858194
0.04734658
0.04613459
0.04496722
0.04386513
0.0428474
0.04192934
0.04112163
0.04043053
0.0398582
0.03940319
0.03906099
0.03882504
0.03868719
0.03863795
0.03866664
0.03876154
0.03891035
0.03910039
0.03931886
0.03955384
0.03979482
0.04003301
0.04026106
0.04047314
0.04066522
0.040835
0.04098191
0.04110278
0.04119346
0.04125214
0.04127929
0.04127502
0.04124004
0.04117527
0.04108158
0.04096013
0.04081267
0.04064136
0.04044861
0.04023692
0.04000877
0.03976653
0.03951241
0.03924838
0.03897624
0.03869761
0.03841396
0.03812666
0.037837
0.03754621
0.03725548
0.03696597
0.03667883
0.0363952
0.03611625
0.03584322
0.03557736
0.03531971
0.03507128
0.03483314
0.03460634
0.03439185
0.03419069
0.03400396
0.03383292
0.03367898
0.03354358
0.033428
0.0333333
0.03326025
0.03320956
0.03318205
0.03317893
0.03320202
0.03325376
0.033337
0.03345459
0.03360899
0.033802
0.03403489
0.03430864
0.0346239
0.0349805
0.03537631
0.03580628
0.03626209
0.03673293
0.03720727
0.0376752
0.03813054
0.03857171
0.03899978
0.03941437
0.03980999
0.04017544
0.04049599
0.0407569
0.04094617
0.04105594
0.04108302
0.04102944
0.04090296
0.04071753
0.04049288
0.04025256
0.04002041
0.03981622
0.03965229
0.03953239
0.03945502
0.03941668
0.0394127
0.03943686
0.03948384
0.03954575
0.03961948
0.03968531
0.009186054
0.01068661
0.01184872
0.0176612
0.02434447
0.03316045
0.04037103
0.04853053
0.05736709
0.06677127
0.07709123
0.08925354
0.1025902
0.1174965
0.1353536
0.1629579
0.177676
0.1931946
0.2090107
0.2250831
0.2413437
0.257677
0.2739277
0.2899671
0.3056338
0.3208825
0.3358043
0.3519905
0.368412
0.3853618
0.4028419
0.4203643
0.4374058
0.4535061
0.4688258
0.4835128
0.4976109
0.511068
0.5237725
0.5355322
0.5461183
0.5553534
0.5629767
0.568455
0.5715272
0.5721697
0.5702824
0.5661868
0.5600601
0.5522015
0.5430016
0.5329098
0.5221084
0.5111588
0.5003005
0.4896869
0.4794902
0.4698548
0.4608741
0.4526141
0.4451182
0.438416
0.4325086
0.4273721
0.4229415
0.4191083
0.4157553
0.4127599
0.4100413
0.4075102
0.4050918
0.4025161
0.3998301
0.3970662
0.3942464
0.3913967
0.3885375
0.3856643
0.382737
0.3797345
0.3767091
0.3737855
0.3710901
0.3686807
0.3665323
0.3645862
0.3627994
0.3611794
0.3597547
0.3585245
0.3574325
0.3563757
0.3552282
0.3538565
0.3521253
0.3499236
0.3472621
0.3443731
0.3416567
0.3394783
0.3379993
0.3371507
0.3367136
0.3364488
0.3361132
0.3355302
0.334696
0.3337088
0.3326806
0.3316955
0.3306217
0.3291949
0.327284
0.3248837
0.3220512
0.3188496
0.3153719
0.3117738
0.3082912
0.3055779
0.3041278
0.3043826
0.3068626
0.3121376
0.3206749
0.3322831
0.3457433
0.3594501
0.3723259
0.3837822
0.3932449
0.4001142
0.4039358
0.4044379
0.4015558
0.3952233
0.3857876
0.3744782
0.3619665
0.3487765
0.3352821
0.3217841
0.3085417
0.2958144
0.2838566
0.2728628
0.2629461
0.254136
0.2464118
0.2397262
0.2340143
0.2292185
0.2253075
0.2222893
0.2202381
0.2193552
0.2196794
0.2212149
0.2238658
0.2273469
0.2311701
0.234808
0.2378392
0.2400169
0.2412419
0.2414846
0.2408157
0.2393246
0.2372135
0.2346833
0.2316803
0.2281992
0.2242623
0.2199225
0.2152557
0.2103655
0.2053648
0.2003512
0.1953865
0.190508
0.1857477
0.1811393
0.1767164
0.1725216
0.1685938
0.1649649
0.1616594
0.1586955
0.1560873
0.1538477
0.1519897
0.1505284
0.1494822
0.148871
0.1487098
0.1489996
0.1497235
0.150837
0.1522584
0.1538774
0.1555892
0.1573285
0.1590808
0.1608918
0.1628668
0.1651344
0.1677965
0.1708886
0.1743501
0.1780137
0.1816094
0.1848011
0.1872598
0.1887289
0.189117
0.1885677
0.1873733
0.1856627
0.1834741
0.1807816
0.1775608
0.1738302
0.169664
0.1651837
0.1605232
0.1558117
0.1511868
0.1467787
0.1426744
0.1389407
0.1355979
0.1326321
0.1300221
0.1277601
0.125859
0.1243463
0.1232546
0.1226109
0.1224302
0.122712
0.1234332
0.1246163
0.1261936
0.1280453
0.1300054
0.1318933
0.1335636
0.1349041
0.1358385
0.1363731
0.1365949
0.1366042
0.1364809
0.1362954
0.1360524
0.1357654
0.1354576
0.135149
0.1348513
0.1345705
0.1342994
0.1340007
0.133637
0.1331367
0.13245
0.1315572
0.1304387
0.1290762
0.1274646
0.1256172
0.1235632
0.1213363
0.1189704
0.116496
0.1139779
0.1114893
0.1090608
0.1067243
0.1045297
0.1025302
0.1007757
0.09930534
0.09814174
0.09729183
0.09675126
0.09650846
0.09654777
0.09685276
0.09740898
0.0982031
0.09921638
0.100416
0.1017499
0.1031493
0.1045359
0.1058341
0.1069845
0.1079369
0.1086542
0.109114
0.1093075
0.1092349
0.1089011
0.1083115
0.1074702
0.1063816
0.105056
0.1035142
0.1017988
0.09995397
0.09801323
0.09599613
0.09391306
0.09177421
0.08959564
0.08739844
0.08520564
0.08304093
0.08092846
0.07889325
0.07696034
0.07515361
0.07349471
0.07200194
0.07068937
0.06956632
0.06863682
0.06789962
0.06734866
0.06697369
0.06676017
0.06670548
0.066815
0.0670647
0.06743017
0.06788561
0.06840243
0.06894876
0.0694921
0.07000229
0.07045325
0.07082492
0.0711077
0.07130446
0.07142526
0.07148077
0.07147786
0.07141941
0.07129443
0.07108373
0.07078341
0.07039217
0.06991158
0.06934664
0.06870689
0.06800484
0.06724956
0.06644143
0.06557429
0.06464006
0.06363019
0.06253849
0.06136448
0.06011355
0.05879568
0.05742414
0.05601359
0.05457939
0.05313758
0.05170473
0.05029756
0.04893243
0.0476243
0.04638639
0.04522946
0.04416151
0.04318844
0.0423142
0.04153994
0.04086484
0.04028707
0.03980377
0.03941074
0.03910241
0.0388723
0.03871325
0.03861771
0.03857769
0.03858491
0.03863102
0.03870811
0.03880907
0.03892733
0.03905652
0.03919084
0.03932654
0.03945913
0.03958233
0.03969147
0.03978301
0.03985417
0.03990322
0.03992936
0.03993257
0.03991349
0.03987323
0.03981321
0.03973506
0.03964044
0.03953101
0.03940833
0.03927383
0.03912887
0.03897473
0.03881264
0.03864383
0.03846951
0.0382909
0.03810926
0.03792587
0.03774206
0.03755913
0.03737847
0.03720151
0.03702966
0.03686438
0.03670699
0.03655872
0.0364208
0.0362945
0.03618128
0.03608277
0.03600072
0.03593671
0.03589202
0.03586757
0.03586396
0.03588178
0.035922
0.03598636
0.03607759
0.0361992
0.03635506
0.03654879
0.03678316
0.03705994
0.03738041
0.03774593
0.0381578
0.03861613
0.03911793
0.03965551
0.04021626
0.04078454
0.04134508
0.04188624
0.04240314
0.04289841
0.04337826
0.04384441
0.04428754
0.04469123
0.04503502
0.04530062
0.04547563
0.04555419
0.04553662
0.04542942
0.04524575
0.04500601
0.04473755
0.04447184
0.04423903
0.04406101
0.04394632
0.04389036
0.04388279
0.04391372
0.04397502
0.04405839
0.04415742
0.04426322
0.0443743
0.04446524
0.002238567
0.008755982
0.01310482
0.01814521
0.02374845
0.03014318
0.03742303
0.04539808
0.0543189
0.06505663
0.08128989
0.09100502
0.1015337
0.1126058
0.1242669
0.136462
0.1491281
0.1621555
0.1753821
0.1886827
0.2020472
0.2171447
0.2325058
0.2479537
0.2633699
0.2786966
0.2938372
0.3087686
0.3234655
0.3378237
0.3519765
0.3661491
0.3807242
0.3954716
0.4104039
0.4254548
0.4402792
0.454409
0.4679385
0.4809833
0.4935422
0.505574
0.5169505
0.5274876
0.5367728
0.5444816
0.5501922
0.5530977
0.5532011
0.5505805
0.5452737
0.5373732
0.5272839
0.5154437
0.502322
0.488406
0.4741895
0.460098
0.4465193
0.4337634
0.4220323
0.4114491
0.402068
0.3938952
0.3869025
0.3810557
0.3763251
0.3726614
0.3700144
0.3682873
0.3673109
0.3668805
0.3666454
0.3663197
0.3659603
0.3655897
0.3651673
0.3647291
0.3643026
0.3638881
0.3634855
0.3631138
0.3627579
0.3623504
0.3618604
0.3613788
0.3610936
0.3611647
0.361623
0.3623875
0.363358
0.3644931
0.3658265
0.3674074