/*--------------------------------*- C++ -*----------------------------------*\
| =========                 |                                                 |
| \\      /  F ield         | foam-extend: Open Source CFD                    |
|  \\    /   O peration     | Version:     3.1                                |
|   \\  /    A nd           | Web:         http://www.extend-project.de       |
|    \\/     M anipulation  |                                                 |
\*---------------------------------------------------------------------------*/
FoamFile
{
    version     2.0;
    format      ascii;
    class       volScalarField;
    location    "16";
    object      omega;
}
// * * * * * * * * * * * * * * * * * * * * * * * * * * * * * * * * * * * * * //

dimensions      [0 0 -1 0 0 0 0];

internalField   nonuniform List<scalar> 
119952
(
321.7456
401.1274
376.344
328.0147
295.1905
297.4595
303.4142
311.5548
321.2914
332.2673
344.2351
356.9862
370.3294
384.2024
398.5803
413.4314
428.7234
444.4578
460.752
478.3805
402.7646
401.558
405.0861
339.837
330.6799
323.9637
317.2995
310.1386
299.3691
220.9365
754.6692
627.4681
527.7271
455.8675
402.298
361.1212
328.3877
301.7666
279.6325
255.4976
216.6468
188.9492
169.2498
154.2565
142.1609
132.0272
123.3207
115.7778
109.2555
85.2516
81.63398
78.28711
75.24477
72.60457
70.41328
68.68662
67.42809
66.62401
66.25439
66.35406
66.61167
66.88335
66.99384
66.72629
66.04188
64.95277
63.48446
61.63781
60.56184
59.21884
57.26991
55.50031
53.82705
52.20592
50.62967
49.11971
47.70368
46.39663
45.20688
44.14237
43.20763
42.40401
41.7313
41.18813
40.77202
40.47793
40.29215
40.18927
40.19211
40.36413
40.54337
40.85176
41.58387
42.84262
44.55688
47.04604
50.88031
55.49436
57.68175
59.2252
60.18327
60.72789
60.88626
60.68826
60.17214
59.37809
58.34622
57.11472
55.72602
54.22582
52.65402
51.04511
49.43003
47.83487
46.27948
44.79634
43.40847
42.13155
40.97517
39.94412
39.03955
38.25958
37.59968
37.05277
36.60964
36.25984
35.99264
35.79854
35.67111
35.60942
35.62326
35.74124
35.98845
36.39527
37.01623
37.909
39.17097
40.97576
43.60456
47.51547
53.20551
60.22992
66.90344
72.58181
77.45066
81.12478
82.99674
82.99824
81.18846
77.89196
73.74259
69.30207
64.98748
61.01191
57.4539
54.33524
51.63319
49.29178
47.29409
45.61941
44.2158
43.04555
42.0812
41.30255
40.695
40.24896
39.96035
39.83505
39.91302
40.23039
40.77558
41.53454
42.47053
43.56929
44.88845
46.45285
48.32272
50.62985
53.58619
57.35533
61.32172
64.16739
65.5182
66.05917
66.21755
66.2463
66.30505
66.46381
66.74296
67.11946
67.48672
67.75358
67.85838
67.76927
67.47614
66.97676
66.23727
68.36713
72.562
75.57217
77.58241
78.93805
79.87369
80.56584
81.1383
81.6753
82.23713
82.87276
83.60221
84.43684
85.37404
86.42103
87.5901
88.88959
90.32422
91.89444
93.61791
95.54773
97.77458
100.416
103.611
107.5061
112.2281
117.7156
123.2383
127.258
129.1744
129.8558
130.4228
131.2852
132.1704
132.4785
130.5007
126.5567
122.4337
118.1215
113.8615
109.7771
105.8965
102.2457
98.84593
95.6775
92.7069
89.93151
87.34112
84.90642
82.61138
80.46863
78.48494
76.66448
75.00387
73.49516
72.12863
70.89437
69.78284
68.78482
67.89153
67.09482
66.38772
65.76443
65.2201
64.75106
64.35489
64.0302
63.77601
63.5909
63.48106
50.70232
50.66045
50.61465
50.54974
50.61038
50.85463
51.4611
52.73891
55.065
59.22142
64.84649
70.20011
73.69782
75.22282
75.44068
74.73728
73.2952
71.38609
69.23654
66.92536
64.44741
61.83302
59.1564
56.49025
53.88865
51.40457
49.09202
46.96259
45.00232
43.20386
41.56023
40.05883
38.6829
37.42617
36.28199
35.23646
34.27749
33.39859
32.59309
31.85372
31.17252
30.5424
29.95819
29.41631
28.91555
28.45525
28.02664
27.62339
27.24446
26.8868
26.5477
26.22657
25.9233
25.64216
25.42422
25.13465
24.82837
24.51248
24.19072
23.87074
23.56007
23.26416
22.98675
22.73014
22.49532
22.28226
22.0902
21.91788
21.76377
21.62613
21.50319
21.39318
21.2944
21.20524
21.1242
21.04986
20.98094
20.91622
20.85458
20.79502
20.73658
20.67838
20.61964
20.55971
20.49797
20.43388
20.36695
20.29682
20.22324
20.14607
20.06528
19.9809
19.89298
19.80156
19.70661
19.60813
19.50607
19.40047
19.29141
19.17919
19.06433
18.94758
18.82982
18.71208
18.59549
18.4814
18.37136
18.26713
18.17066
18.0838
18.00818
17.94493
17.89469
17.85766
17.83397
17.82407
17.82902
17.8506
17.8912
17.95365
18.0409
18.15564
18.29862
18.46796
18.66141
18.87505
19.1023
19.33408
19.55931
19.76565
19.94295
20.08409
20.18263
20.23232
20.22479
20.1425
19.94718
19.60458
19.54081
789.9086
645.0178
562.1285
506.0241
462.8527
427.06
396.281
369.3646
344.4425
291.2073
235.7297
201.1352
178.2673
162.2153
150.2642
140.8964
133.2545
126.7627
100.0558
95.70905
91.5366
87.59724
83.97644
80.6989
77.73705
75.05281
72.6081
70.36093
68.38161
66.55022
64.78438
63.10486
61.52441
60.04928
58.67684
57.40038
56.21514
55.4093
54.87836
54.22887
53.51245
52.73774
51.90464
51.01165
50.05394
49.02739
47.93356
46.77351
45.56813
44.3442
43.11503
41.89913
40.71778
39.59591
38.55889
37.63182
33.82342
33.34577
32.95882
32.652
32.41942
32.25902
32.17303
32.16596
32.2394
32.38579
32.58683
32.80028
33.04458
33.27561
33.43919
33.49209
33.40774
33.19001
32.86411
32.46966
31.98232
31.40402
30.80325
30.19835
29.58791
28.97854
28.38406
27.79924
27.23815
26.71241
26.23041
25.79754
25.41629
25.08618
24.80422
24.56562
24.36507
24.19831
24.06511
23.9695
23.91178
23.90008
23.96099
24.13159
24.42163
24.83057
25.36795
26.00949
26.64937
27.27249
27.88482
28.43364
28.88948
29.23058
29.4449
29.5307
29.49282
29.34013
29.08439
28.73936
28.31876
27.8358
27.30359
26.73626
26.14957
25.55983
24.97126
24.3832
23.80497
23.24521
22.71132
22.20919
21.74274
21.31368
20.92177
20.56543
20.24248
19.95088
19.68924
19.45724
19.25565
19.08636
18.95246
18.85878
18.81326
18.82972
18.93264
19.1564
19.51927
20.05994
20.82451
21.83273
23.05053
24.44654
26.01458
27.72308
29.4983
31.2216
32.75686
33.95942
34.70721
34.94891
34.69883
34.02391
33.0234
31.80732
30.47827
29.12094
27.7992
26.55143
25.37982
24.2856
23.28112
22.37233
21.5608
20.84516
20.22202
19.68637
19.2321
18.85285
18.54281
18.29715
18.11309
17.9921
17.94171
17.97599
18.09388
18.29014
18.5715
18.94002
19.36757
19.78827
20.15089
20.45364
20.71849
20.97102
21.23506
21.52951
21.86779
22.2572
22.69654
23.17656
23.68125
24.19051
24.67979
25.124
25.49659
25.76055
26.36399
27.1638
27.66989
27.90064
27.89307
27.6897
27.3342
26.86889
26.33326
25.76276
25.18729
24.63034
24.10919
23.63577
23.21877
22.86349
22.5718
22.34368
22.17827
22.07633
22.0426
22.08731
22.22653
22.48127
22.87308
23.41338
24.08516
24.82299
25.54785
26.22535
26.87868
27.55885
28.29258
29.07224
29.85707
30.58768
31.21754
31.74684
32.13601
32.34877
32.36389
32.17688
31.79825
31.24533
30.54313
29.72534
28.83775
27.90938
26.9476
25.95925
24.96754
23.9988
23.07371
22.20569
21.40301
20.66959
20.00597
19.41015
18.8785
18.40653
17.9895
17.62288
17.30252
17.02475
16.78647
16.58525
16.4192
16.28682
16.1869
16.12039
14.44362
14.39327
14.38268
14.41563
14.50596
14.67517
14.94711
15.35851
15.95564
16.7445
17.6521
18.567
19.42453
20.23383
21.0567
21.95471
22.94774
24.02314
25.14499
26.26572
27.33668
28.31379
29.15832
29.83481
30.31494
30.58261
30.63502
30.48111
30.13937
29.63602
29.00243
28.26991
27.46875
26.62711
25.7692
24.91472
24.07882
23.27008
22.49381
21.75325
21.04986
20.38432
19.75861
19.17298
18.6259
18.11468
17.63626
17.188
16.76745
16.37234
16.00006
15.64844
15.31494
14.99881
14.69917
14.41093
14.13295
13.86562
13.6089
13.36228
13.12521
12.89723
12.678
12.46725
12.26479
12.07041
11.88396
11.70523
11.53404
11.37015
11.21334
11.06335
10.91988
10.78267
10.65138
10.52571
10.40531
10.28986
10.17901
10.07243
9.96977
9.870709
9.774918
9.682079
9.591888
9.504058
9.418328
9.334467
9.252279
9.171603
9.092309
9.014288
8.937441
8.861675
8.786908
8.713068
8.640112
8.568033
8.496881
8.426768
8.357865
8.290387
8.224584
8.16074
8.099187
8.040306
7.984516
7.932243
7.883883
7.839755
7.800066
7.764899
7.734242
7.708041
7.68627
7.668977
7.656306
7.648489
7.645816
7.64861
7.657175
7.671726
7.692324
7.718877
7.751057
7.788148
7.828999
7.872008
7.915131
7.956099
7.993138
8.024857
8.04981
8.06671
8.074835
8.074182
8.064107
8.046797
8.029715
618.0711
548.4428
491.3468
449.2537
417.2159
392.5396
373.6854
360.2985
352.3962
342.2735
180.3695
168.1198
157.9686
151.007
147.175
143.1585
139.4296
136.0411
133.2965
87.44821
85.13409
84.12356
83.21785
82.28624
81.31042
80.28907
79.18884
78.02616
76.77451
74.81969
72.57122
70.48971
68.70808
67.19438
65.87807
64.698
63.61142
62.57504
62.48448
61.83368
60.8994
59.83475
58.73021
57.63329
56.56725
55.54188
54.56108
53.63058
52.73818
51.87161
51.02638
50.19793
49.38601
48.5928
47.82243
47.08887
43.22608
42.62802
42.06577
41.53198
41.01632
40.50869
40.00184
39.49159
38.97905
38.46953
37.97035
37.49203
37.04099
36.61907
36.2246
35.85417
35.5046
35.17353
34.85947
34.56079
34.27785
34.007
33.73903
33.46438
33.17383
32.85819
32.50911
32.12063
31.69208
31.22899
30.73989
30.23675
29.73358
29.24654
28.79345
28.39227
28.0587
27.79532
27.64858
27.55056
27.49009
27.45528
27.43736
27.43173
27.43782
27.45731
27.49236
27.54581
27.62268
27.74232
27.88273
28.01041
28.09265
28.10235
28.0219
27.84632
27.58004
27.23666
26.8341
26.37841
25.88891
25.38566
24.88106
24.38451
23.91209
23.47224
23.0655
22.6956
22.36555
22.07732
21.83098
21.62386
21.45058
21.30448
21.17884
21.06856
20.97058
20.88533
20.81533
20.76591
20.75016
20.79107
20.89163
21.05013
21.26051
21.519
21.80291
22.0913
22.37609
22.64079
22.8648
23.03266
23.13448
23.16586
23.12704
23.02148
22.85484
22.63395
22.36613
22.05871
21.71893
21.35425
20.97277
20.58356
20.1968
19.81753
19.44513
19.08392
18.73806
18.41116
18.10568
17.82248
17.56102
17.32004
17.09813
16.89427
16.70832
16.54108
16.39405
16.26886
16.16699
16.08983
16.0393
16.01894
16.03566
16.10261
16.2384
16.45367
16.76295
17.17576
17.69449
18.3237
19.07074
19.93381
20.89298
21.90458
22.90305
23.80795
24.53612
25.02169
25.22807
25.15127
24.81746
24.27411
23.57878
22.78891
21.95509
21.11867
20.31396
19.55948
18.85129
18.19606
17.59932
17.06374
16.58952
16.17446
15.81429
15.50372
15.23735
15.01026
14.81849
14.65997
14.53488
14.44553
14.39672
14.39173
14.42762
14.50082
14.60035
14.70947
14.81489
14.91208
15.0029
15.09282
15.18906
15.29895
15.42938
15.58598
15.77226
15.98894
16.23309
16.49912
16.77785
17.06025
17.33643
17.5983
17.85459
18.05869
18.20599
18.29232
18.3152
18.27295
18.16629
17.9991
17.77853
17.51436
17.21788
16.90085
16.57472
16.2498
15.93465
15.63586
15.35823
15.10535
14.88022
14.68581
14.52522
14.40169
14.31849
14.27829
14.28237
14.32916
14.4134
14.52738
14.66461
14.82281
15.00345
15.20947
15.44276
15.70222
15.98302
16.27705
16.57572
16.87121
17.15292
17.41
17.63293
17.81325
17.94326
18.01596
18.02555
17.96771
17.84024
17.64396
17.38349
17.06724
16.70702
16.31235
15.88768
15.43881
14.97911
14.52163
14.07675
13.65197
13.25218
12.88023
12.53745
12.22411
11.93963
11.68294
11.45272
11.24768
11.06641
10.90737
10.76908
10.6481
10.57012
10.50848
10.46312
10.43657
10.43672
10.4752
10.55828
10.6962
10.9006
11.17228
11.49283
11.83824
12.19938
12.58392
13.0072
13.48617
14.03328
14.65238
15.33833
16.07812
16.8536
17.64345
18.42631
19.18016
19.8831
20.516
21.064
21.51634
21.86582
22.1091
22.24618
22.2798
22.21559
22.06158
21.82725
21.5231
21.16033
20.75016
20.30332
19.8304
19.34189
18.84751
18.35358
17.86473
17.38407
16.91375
16.45748
16.01785
15.59596
15.19202
14.80568
14.43608
14.08225
13.74295
13.4169
13.10274
12.79991
12.50796
12.22632
11.95446
11.69199
11.43867
11.19433
10.95882
10.73204
10.51386
10.30414
10.10275
9.909508
9.724237
9.546735
9.376777
9.214124
9.058519
8.909691
8.767356
8.631219
8.500979
8.376335
8.256982
8.14261
8.032915
7.927597
7.82636
7.728918
7.635
7.544358
7.45677
7.372044
7.290016
7.210548
7.133515
7.058799
6.986289
6.915884
6.847504
6.781093
6.716629
6.654139
6.593698
6.535419
6.479434
6.425886
6.374929
6.326726
6.281453
6.239276
6.200337
6.164724
6.132461
6.103501
6.077751
6.055097
6.035427
6.018639
6.004639
5.993335
5.984633
5.97846
5.974777
5.973587
5.974931
5.978882
5.985532
5.994942
6.007038
6.021551
6.037951
6.055426
6.072948
6.089573
6.104551
6.117264
6.127096
6.133918
6.137283
6.137464
6.133999
6.127772
358.7202
261.7527
370.2748
167.979
131.5458
96.12156
83.26313
72.40069
63.52561
59.22342
57.46672
56.53206
55.74413
55.1887
54.64142
54.21656
53.99321
53.91661
53.89297
53.90319
53.90912
53.94238
54.28391
54.8638
55.51562
56.20804
56.93133
57.65404
58.31154
58.86918
59.25035
58.15706
58.22139
58.20227
58.0787
57.83996
57.49034
57.03966
56.49977
55.88606
55.21832
54.49994
53.73965
52.94683
52.13401
51.31077
50.48514
49.66301
48.84918
48.04633
47.26131
46.4992
45.75985
45.04046
44.33778
43.64911
42.97235
42.30659
41.65193
41.01039
40.38644
39.78377
39.2043
38.6486
38.11628
37.60677
37.11999
36.64745
36.2472
35.86283
35.49503
35.14018
34.79218
34.44389
34.08854
33.72221
33.34666
32.96952
32.60186
32.254
31.93143
31.63469
31.36135
31.10727
30.86769
30.63987
30.42361
30.21965
30.02701
29.84059
29.6529
29.45619
29.24343
29.00807
28.74507
28.45136
28.12872
27.78411
27.42935
27.07944
26.75172
26.46614
26.24428
26.10669
26.06711
26.1233
26.25414
26.42761
26.61381
26.78705
26.92854
27.02651
27.0733
27.06537
27.00546
26.90876
26.81431
26.73225
26.65066
26.55508
26.42986
26.26046
26.03709
25.75662
25.4228
25.04392
24.63036
24.19215
23.73997
23.28417
22.83387
22.3983
21.98877
21.6198
21.2955
21.01825
20.78951
20.60914
20.47418
20.37767
20.30921
20.25721
20.21085
20.16169
20.10469
20.03871
19.96529
19.88949
19.82659
19.78699
19.77403
19.78908
19.831
19.89718
19.98104
20.07494
20.17086
20.25821
20.32489
20.36068
20.3588
20.31603
20.23219
20.1093
19.95077
19.76072
19.54351
19.30353
19.04512
18.77278
18.49137
18.20626
17.92327
17.64824
17.38435
17.1329
16.89625
16.6763
16.4739
16.28845
16.11827
15.96156
15.81705
15.68432
15.56422
15.45854
15.36927
15.29773
15.2439
15.20632
15.18273
15.17097
15.1706
15.18494
15.22393
15.29759
15.41283
15.57686
15.79725
16.08259
16.44163
16.87999
17.39566
17.97443
18.58718
19.19048
19.73176
20.15871
20.42934
20.51964
20.42695
20.16815
19.77391
19.28155
18.72833
18.14722
17.56541
17.00499
16.48282
16
15.56102
15.16848
14.82271
14.52148
14.26035
14.03373
13.83601
13.66204
13.50766
13.3705
13.25
13.14706
13.06373
13.00285
12.96506
12.94829
12.94879
12.96132
12.98071
13.00323
13.02714
13.05265
13.08138
13.11561
13.15781
13.21108
13.27794
13.36029
13.45846
13.57159
13.69634
13.83003
13.96816
14.10659
14.24052
14.36433
14.47318
14.56104
14.62255
14.65305
14.64917
14.60958
14.53513
14.42884
14.29556
14.14148
13.97355
13.79871
13.62303
13.45122
13.2866
13.13161
12.98839
12.85919
12.74635
12.65222
12.57891
12.52799
12.50024
12.49523
12.51122
12.54563
12.59601
12.66096
12.74027
12.8346
12.94464
13.07025
13.2098
13.35998
13.51608
13.67313
13.826
13.96934
14.09814
14.20798
14.29479
14.35473
14.38411
14.37927
14.33665
14.25349
14.1284
13.96201
13.75725
13.51964
13.25733
12.97991
12.68947
12.38914
12.08616
11.78688
11.49637
11.21839
10.95559
10.70975
10.48181
10.27199
10.08
9.905351
9.7474
9.605166
9.477666
9.363808
9.263687
9.176627
9.102613
9.042703
8.999801
8.976773
8.975981
9.000774
9.054529
9.138347
9.24944
9.383269
9.538366
9.717461
9.924981
10.16645
10.44744
10.77183
11.1408
11.55254
12.00261
12.48391
12.98703
13.50052
14.01195
14.50907
14.98061
15.41671
15.80927
16.15215
16.44091
16.67405
16.85186
16.97576
17.04767
17.0699
17.04512
16.97634
16.86681
16.71995
16.53948
16.32953
16.09441
15.83895
15.56857
15.2885
15.00041
14.70494
14.40211
14.09513
13.78731
13.48082
13.17721
12.8774
12.58209
12.2918
12.00683
11.7274
11.45372
11.18605
10.92466
10.66988
10.42202
10.18136
9.94816
9.722622
9.504892
9.295065
9.093179
8.899221
8.713129
8.534795
8.364073
8.200778
8.044701
7.895605
7.753233
7.617318
7.487585
7.363745
7.245503
7.132566
7.024646
6.921452
6.822702
6.728131
6.63749
6.550562
6.467155
6.387108
6.310278
6.236529
6.165729
6.097754
6.032493
5.969859
5.9098
5.8523
5.797384
5.745107
5.695543
5.648769
5.604867
5.563918
5.526003
5.491182
5.45947
5.430816
5.405096
5.382128
5.361715
5.343686
5.327926
5.314362
5.302896
5.293346
5.28543
5.278808
5.273152
5.268207
5.263837
5.260035
5.256933
5.254799
5.253994
5.254898
5.257793
5.262754
5.26956
5.27771
5.286544
5.295415
5.303786
5.311211
5.31738
5.322113
5.325115
5.326564
5.325678
322.5093
217.3469
164.3899
145.654
118.3582
98.61964
84.6199
79.06641
72.93107
69.35018
66.28478
62.22557
58.21141
54.44727
51.0534
47.36534
41.58089
40.30483
39.40109
38.95838
38.93874
39.21259
39.62659
40.1231
40.72024
41.40421
42.1462
42.93552
43.77042
44.65004
45.57553
46.55113
47.58063
48.65885
49.78162
50.94151
52.07823
53.19408
54.19632
54.97861
55.64712
56.09455
56.13551
56.03142
55.79147
55.40099
54.87192
54.22417
53.47772
52.65577
51.78051
50.87381
49.95221
49.0275
48.10812
47.19927
46.30382
45.42426
44.56149
43.71924
42.90116
42.11457
41.36283
40.64799
39.96871
39.3213
38.70143
38.10427
37.52455
36.9586
36.40629
35.87142
35.35901
34.87253
34.41233
33.97726
33.56543
33.17782
32.81419
32.47837
32.17028
31.88734
31.62377
31.37157
31.12064
30.8604
30.58435
30.29476
30.00335
29.72573
29.47396
29.25259
29.05981
28.8898
28.73442
28.58595
28.44081
28.30042
28.16774
28.043
27.92121
27.79402
27.65393
27.4958
27.31603
27.11178
26.88333
26.63595
26.38386
26.14774
25.95164
25.82346
25.79478
25.89702
26.15579
26.5762
27.12627
27.73709
28.34426
28.89786
29.36006
29.70355
29.90968
29.96493
29.86207
29.60424
29.22611
28.80659
28.36289
27.90543
27.44069
26.97012
26.49232
26.00679
25.51469
25.01956
24.52585
24.03784
23.56017
23.09712
22.65226
22.2297
21.83512
21.47656
21.16852
20.92227
20.74048
20.62451
20.57299
20.57838
20.62493
20.6918
20.75824
20.80743
20.82819
20.81447
20.76504
20.6822
20.57406
20.46045
20.34533
20.23235
20.12518
20.02626
19.93645
19.85558
19.78299
19.71601
19.64884
19.57422
19.48563
19.37857
19.25083
19.1023
18.9343
18.749
18.54893
18.33675
18.11513
17.8868
17.65466
17.42199
17.19249
16.97025
16.75951
16.56413
16.38591
16.22539
16.08249
15.95589
15.84298
15.74087
15.64741
15.56156
15.48427
15.41837
15.36735
15.33399
15.31894
15.31968
15.33069
15.34454
15.35324
15.35076
15.33648
15.31868
15.31144
15.32134
15.35462
15.41756
15.51623
15.65773
15.84991
16.0976
16.39893
16.74262
17.10626
17.45793
17.76059
17.97868
18.08519
18.06672
17.92509
17.67521
17.34057
16.94793
16.52318
16.08891
15.66399
15.26419
14.90082
14.57663
14.2934
14.05024
13.84366
13.66786
13.51613
13.38194
13.25962
13.14545
13.03811
12.93814
12.84704
12.76696
12.70034
12.64794
12.60904
12.58232
12.56568
12.55675
12.5529
12.55142
12.55072
12.55063
12.55155
12.55425
12.55909
12.56649
12.57718
12.59216
12.61276
12.64033
12.67491
12.71495
12.7587
12.80415
12.84892
12.89057
12.92631
12.9532
12.96822
12.96858
12.95217
12.91801
12.86651
12.79954
12.72027
12.63284
12.54181
12.4513
12.36432
12.28251
12.20646
12.13637
12.07252
12.01551
11.96619
11.92539
11.8938
11.87184
11.85954
11.85642
11.86158
11.87394
11.8927
11.91764
11.94927
11.98856
12.03629
12.09241
12.15565
12.22352
12.29298
12.36096
12.42452
12.48098
12.5279
12.56299
12.58402
12.58857
12.574
12.53758
12.47677
12.38959
12.2751
12.13376
11.96767
11.78048
11.57724
11.3644
11.14661
10.92554
10.70525
10.48923
10.28025
10.08037
9.891122
9.713461
9.547815
9.394134
9.252135
9.121396
9.00136
8.891431
8.791035
8.699701
8.617075
8.543074
8.478093
8.42348
8.379847
8.348142
8.32972
8.326122
8.338587
8.367503
8.412562
8.473765
8.551997
8.648823
8.766301
8.906779
9.072492
9.265125
9.485406
9.732711
10.00486
10.29809
10.60712
10.92553
11.24611
11.56154
11.86508
12.15075
12.41379
12.6509
12.86005
13.0403
13.19175
13.31511
13.4113
13.48122
13.52568
13.54536
13.54085
13.51265
13.46147
13.38838
13.29489
13.18276
13.054
12.91093
12.75647
12.59411
12.42348
12.24216
12.04978
11.84855
11.64026
11.42652
11.20869
10.98792
10.76523
10.5416
10.31799
10.09535
9.874562
9.656483
9.441896
9.231509
9.025942
8.825723
8.631282
8.442958
8.261001
8.085579
7.916786
7.754648
7.599132
7.450157
7.307601
7.171308
7.041105
6.916807
6.798197
6.685035
6.577088
6.474122
6.375889
6.282146
6.192658
6.107212
6.025625
5.947741
5.873421
5.802538
5.734964
5.670576
5.609254
5.550898
5.495433
5.442825
5.393073
5.346207
5.302275
5.261327
5.223416
5.188599
5.156937
5.128469
5.103176
5.080937
5.061514
5.044575
5.029757
5.016749
5.00538
4.995635
4.987572
4.981147
4.976076
4.97184
4.967812
4.963426
4.958281
4.952185
4.945169
4.937488
4.929622
4.922254
4.916183
4.91218
4.910789
4.912158
4.915987
4.921618
4.928323
4.935473
4.942582
4.949196
4.955126
4.959955
4.964008
4.966161
166.7227
122.8697
188.1696
92.18752
78.879
67.3092
63.87544
61.41847
58.72724
57.62689
56.20119
54.18633
52.30568
50.31274
47.97569
43.3222
42.26342
41.2809
40.34295
39.45252
38.56522
37.72575
36.99082
36.39102
35.94881
35.66213
35.45643
35.27521
35.28504
35.51683
35.95932
36.55962
37.25191
38.03052
38.86964
39.75122
40.67089
41.6285
42.62496
43.65756
44.72978
45.85658
47.04371
48.23932
49.45728
50.68135
51.66412
52.45696
53.03178
53.36601
53.46167
53.34161
53.00376
52.49389
51.82085
50.99592
50.04779
49.00906
47.90906
46.77626
45.63624
44.51192
43.42136
42.37727
41.38631
40.44855
39.56225
38.72475
37.93915
37.20374
36.51629
35.87715
35.2871
34.74076
34.23405
33.76352
33.32561
32.91554
32.52621
32.151
31.78793
31.44092
31.11645
30.81867
30.54712
30.29867
30.0704
29.86236
29.67677
29.51536
29.37687
29.25645
29.14662
29.03812
28.92049
28.7838
28.6248
28.45396
28.29348
28.16571
28.0817
28.03808
28.02149
28.0168
28.00872
27.9875
27.95482
27.91802
27.8843
27.86
27.83523
27.79545
27.73021
27.63704
27.51744
27.37321
27.20855
27.03498
26.87952
26.8044
26.85608
27.0795
27.52232
28.2212
29.18754
30.3739
31.66179
32.90332
34.01798
34.96113
35.69627
36.19
36.42168
36.38186
36.07029
35.48159
34.64289
33.65373
32.58822
31.50822
30.45155
29.44175
28.49053
27.60321
26.78242
26.02882
25.34078
24.71487
24.14709
23.63376
23.1719
22.76032
22.40024
22.09702
21.8651
21.72624
21.68486
21.74254
21.89543
22.12652
22.3975
22.66427
22.89113
23.05675
23.15178
23.1699
23.11877
23.00462
22.84343
22.65453
22.43559
22.18872
21.91946
21.63559
21.34564
21.05909
20.78327
20.52189
20.27418
20.03647
19.80431
19.57391
19.34279
19.11012
18.87609
18.64154
18.40761
18.17553
17.94658
17.72224
17.50433
17.29517
17.09782
16.91586
16.75297
16.61214
16.4949
16.40012
16.32454
16.26292
16.2095
16.15996
16.11247
16.06846
16.03313
16.01396
16.01809
16.04975
16.10799
16.18524
16.26749
16.33669
16.37504
16.36966
16.31918
16.23874
16.15296
16.07215
16.00132
15.94248
15.89858
15.87639
15.88613
15.93729
16.03396
16.17288
16.34327
16.52588
16.69534
16.82395
16.88713
16.86856
16.76323
16.57737
16.32576
16.02786
15.70409
15.37323
15.05136
14.75189
14.48586
14.25977
14.07425
13.92622
13.80919
13.71453
13.63372
13.55886
13.48361
13.40576
13.32719
13.25091
13.17973
13.11672
13.06249
13.01678
12.97923
12.94932
12.92608
12.90833
12.89435
12.8813
12.86715
12.84954
12.82706
12.79953
12.7668
12.7289
12.68659
12.64148
12.59576
12.55143
12.51011
12.47326
12.44176
12.41545
12.39323
12.37386
12.35624
12.33928
12.32174
12.30203
12.27837
12.2493
12.21418
12.1735
12.12886
12.0829
12.03901
12.00053
11.96973
11.94714
11.93156
11.92077
11.91246
11.9048
11.89674
11.88774
11.87767
11.86666
11.85496
11.84272
11.82994
11.81653
11.80242
11.78783
11.77364
11.76151
11.75345
11.75075
11.75334
11.75971
11.7676
11.77482
11.77966
11.78075
11.77692
11.767
11.74977
11.72378
11.68733
11.63852
11.57535
11.49598
11.39912
11.28431
11.15213
11.00428
10.84354
10.67367
10.49914
10.32374
10.14959
9.979235
9.814668
9.657262
9.507855
9.366854
9.234311
9.110004
8.993506
8.884374
8.782365
8.687388
8.599334
8.517956
8.442893
8.373844
8.310761
8.253606
8.202484
8.157867
8.120556
8.0916
8.072151
8.063188
8.065282
8.078709
8.103773
8.140965
8.190964
8.254676
8.333256
8.427953
8.539792
8.669185
8.815698
8.977918
9.153429
9.338899
9.530322
9.723373
9.913604
10.09673
10.2691
10.42794
10.5713
10.69814
10.80829
10.90197
10.97967
11.04197
11.08931
11.12202
11.14032
11.14438
11.13435
11.11049
11.07317
11.0229
10.96041
10.88671
10.80299
10.71058
10.61101
10.50682
10.39848
10.28285
10.15868
10.02668
9.887566
9.742069
9.590973
9.435099
9.275316
9.112526
8.947653
8.781622
8.615338
8.449658
8.285379
8.123216
7.963799
7.80767
7.65528
7.506996
7.363108
7.223829
7.089304
6.959624
6.834826
6.714902
6.59981
6.489495
6.383889
6.282887
6.186365
6.094186
6.006196
5.922236
5.842147
5.76579
5.693036
5.623775
5.557901
5.495312
5.435901
5.379564
5.326212
5.275784
5.228258
5.183652
5.142009
5.103383
5.067823
5.035367
5.006066
4.979991
4.957224
4.937798
4.921619
4.908403
4.897677
4.888853
4.881359
4.874795
4.869063
4.864376
4.861054
4.859155
4.858227
4.857382
4.855624
4.85215
4.846492
4.838518
4.828399
4.816595
4.803859
4.791231
4.779961
4.771318
4.766275
4.765211
4.767786
4.773119
4.780186
4.788132
4.796353
4.804349
4.811882
4.81854
4.824642
4.828889
68.42759
50.95909
48.82101
46.28529
45.17204
43.82682
42.73329
41.79865
40.9964
39.79026
36.94815
36.73473
36.5422
36.36574
36.17215
35.95112
35.74103
35.57082
35.45224
35.37262
35.1913
34.78834
34.39588
34.02433
33.67926
33.36745
33.11085
32.9241
32.81644
32.7903
32.83667
32.95037
33.15257
33.46824
33.91705
34.49302
35.1682
35.94253
36.78766
37.68598
38.62861
39.61466
40.64701
41.73342
42.85203
44.01094
45.23827
46.55131
47.7201
48.75309
49.60181
50.19643
50.52569
50.58245
50.36741
49.89381
49.19367
48.30275
47.25297
46.08649
44.84
43.54816
42.24054
40.94222
39.6742
38.45568
37.30489
36.23559
35.25975
34.38405
33.60512
32.91272
32.29254
31.73396
31.23098
30.7787
30.36904
30.00078
29.67365
29.38554
29.13349
28.91588
28.73001
28.56913
28.42684
28.30315
28.20501
28.13993
28.10928
28.1081
28.12997
28.17193
28.23602
28.32749
28.45027
28.60341
28.77133
28.92959
29.0515
29.11558
29.11886
29.09146
29.0911
29.17551
29.37371
29.67104
30.02282
30.37797
30.69468
30.9434
31.12365
31.26868
31.42214
31.60478
31.77826
31.89562
31.93272
31.88587
31.77191
31.61656
31.44465
31.28141
31.15627
31.10381
31.17165
31.49543
32.13768
33.14733
34.54869
36.31075
38.26428
40.13705
41.74238
43.04712
44.07017
44.79828
45.19432
45.24716
44.96506
44.3612
43.40492
42.07348
40.44147
38.65209
36.84182
35.09926
33.46915
31.97458
30.62365
29.41712
28.35315
27.42456
26.62103
25.93073
25.34296
24.84962
24.44616
24.13117
23.90997
23.79741
23.83503
24.03343
24.38245
24.85723
25.40899
25.95999
26.44001
26.80704
27.04903
27.16971
27.16825
27.06957
26.88538
26.63843
26.33473
25.97031
25.53899
25.04451
24.50672
23.94552
23.38648
22.84824
22.34168
21.87102
21.43522
21.03049
20.65251
20.29746
19.96255
19.64613
19.3473
19.0655
18.80036
18.55182
18.32024
18.10641
17.91199
17.74002
17.59474
17.48033
17.39944
17.35204
17.33482
17.33787
17.34784
17.35285
17.34673
17.33091
17.31587
17.31868
17.35729
17.44488
17.58515
17.76892
17.97316
18.16377
18.3028
18.35888
18.31558
18.18027
17.98964
17.78725
17.58814
17.39407
17.19907
17.00083
16.80667
16.63162
16.4916
16.39684
16.3501
16.34607
16.37216
16.4097
16.43691
16.4324
16.37979
16.27123
16.10844
15.90123
15.66432
15.41403
15.16585
14.93326
14.72758
14.55829
14.43314
14.35409
14.31421
14.30035
14.29769
14.29445
14.2806
14.24959
14.20368
14.15208
14.10235
14.05867
14.01851
13.98192
13.94825
13.91563
13.88381
13.85387
13.82639
13.80008
13.77195
13.73712
13.68986
13.62943
13.55707
13.47371
13.38002
13.27772
13.1701
13.0606
12.95209
12.84677
12.74619
12.6515
12.56398
12.48458
12.41244
12.34724
12.28937
12.23924
12.19656
12.15998
12.12775
12.09855
12.072
12.04876
12.0306
12.02043
12.02159
12.03638
12.06454
12.10275
12.14558
12.18721
12.22292
12.2497
12.26584
12.27058
12.26409
12.2472
12.22103
12.18668
12.14524
12.09756
12.04442
11.98727
11.92866
11.87195
11.8199
11.77319
11.7304
11.68914
11.64751
11.60464
11.56023
11.51404
11.46567
11.41458
11.35994
11.30063
11.23531
11.16246
11.08058
10.98841
10.88518
10.77084
10.64604
10.51214
10.3712
10.22602
10.07995
9.935926
9.796211
9.662554
9.535901
9.416326
9.303335
9.19622
9.094284
8.996813
8.903318
8.81404
8.729778
8.651165
8.578223
8.510436
8.446914
8.386422
8.328433
8.273006
8.22065
8.172188
8.128641
8.091108
8.060582
8.037732
8.022858
8.016046
8.017292
8.026564
8.043994
8.070127
8.105918
8.152483
8.210656
8.280659
8.361991
8.453448
8.553197
8.658913
8.767935
8.877394
8.984466
9.086594
9.181611
9.267876
9.344348
9.410411
9.465804
9.510586
9.544977
9.569234
9.583625
9.588422
9.583792
9.569892
9.546947
9.515259
9.475212
9.427282
9.372065
9.310271
9.242688
9.170183
9.093717
9.014364
8.933933
8.852265
8.766839
8.677105
8.583034
8.48469
8.382245
8.275966
8.166218
8.053444
7.938161
7.82093
7.702338
7.582971
7.463401
7.344166
7.225771
7.108673
6.993282
6.879961
6.769021
6.660723
6.555283
6.452878
6.353638
6.257653
6.165013
6.075785
5.989995
5.907637
5.82869
5.75311
5.680843
5.611827
5.546004
5.483314
5.423694
5.36707
5.313357
5.262468
5.214331
5.168915
5.126243
5.086391
5.049468
5.015585
4.984825
4.957216
4.932769
4.91154
4.893657
4.879278
4.868469
4.861059
4.856542
4.854113
4.85283
4.851869
4.850745
4.84951
4.848768
4.849285
4.851275
4.853956
4.855864
4.855515
4.851928
4.84472
4.833989
4.820184
4.80406
4.786695
4.769531
4.75433
4.742918
4.736714
4.736198
4.740685
4.748611
4.758383
4.768908
4.779599
4.789986
4.799802
4.808652
4.81681
4.822844
92.75155
39.24009
32.57041
31.14348
30.3737
29.99944
29.91609
30.00876
30.23248
30.54985
30.8053
30.86982
30.93688
30.99318
31.04068
31.0745
31.10339
31.12939
31.14212
31.12206
31.04735
30.93348
30.82952
30.74517
30.68727
30.6598
30.67331
30.73083
30.83217
30.97736
31.16852
31.41054
31.71468
32.08888
32.5487
33.09711
33.7793
34.57181
35.45613
36.42606
37.45486
38.53232
39.66304
40.89455
42.14315
43.39724
44.62527
45.75031
46.6824
47.36921
47.77293
47.8667
47.64782
47.12731
46.32983
45.29533
44.07838
42.73942
41.31702
39.86564
38.42812
37.03676
35.71297
34.46965
33.31424
32.25447
31.29895
30.46137
29.7432
29.13759
28.63488
28.22317
27.88533
27.60413
27.37159
27.18394
27.04121
26.94553
26.89641
26.89006
26.92556
27.01036
27.1502
27.32969
27.53752
27.77973
28.0696
28.40904
28.78268
29.17134
29.56822
29.98537
30.44602
30.97426
31.5854
32.28158
33.01373
33.70998
34.29009
34.68648
34.8925