/*--------------------------------*- C++ -*----------------------------------*\
| =========                 |                                                 |
| \\      /  F ield         | foam-extend: Open Source CFD                    |
|  \\    /   O peration     | Version:     3.1                                |
|   \\  /    A nd           | Web:         http://www.extend-project.de       |
|    \\/     M anipulation  |                                                 |
\*---------------------------------------------------------------------------*/
FoamFile
{
    version     2.0;
    format      ascii;
    class       volScalarField;
    location    "4";
    object      p;
}
// * * * * * * * * * * * * * * * * * * * * * * * * * * * * * * * * * * * * * //

dimensions      [1 -1 -2 0 0 0 0];

internalField   nonuniform List<scalar> 
119952
(
7849.833
7863.927
7840.614
7844.79
7883.478
7907.886
7917.14
7913.201
7924.332
7941.491
7949.055
7956.546
7957.866
7956.117
7965.165
7978.382
7974.07
7989.797
7996.089
8017.586
8030.561
7996.621
8025.965
8054.816
8036.249
8052.562
8117.961
8130.386
8174.302
6001.918
7531.132
7489.053
7489.738
7506.08
7534.649
7540.89
7558.513
7571.066
7599.063
7635.91
7532.178
7542.753
7547.295
7554.972
7564.855
7573.505
7586.404
7593.008
7569.904
7526.821
7546.257
7543.63
7574.909
7614.003
7630.873
7638.999
7643.024
7636.301
7638.909
7588.36
7585.787
7592.432
7601.226
7610.51
7620.871
7639.107
7632.524
7598.018
7570.94
7547.39
7580.019
7604.315
7623.245
7605.75
7635.217
7647.004
7657.267
7672.554
7672.001
7681.199
7686.383
7687.503
7688.232
7691.86
7696.083
7700.651
7705.4
7715.155
7725.396
7728.171
7741.763
7778.681
7804.262
7799.946
7789.309
7822.427
7775.983
7640.63
7598.292
7623.379
7647.682
7661.176
7672.164
7682.819
7693.652
7703.011
7710.188
7716.106
7724.807
7736.559
7779.188
7839.22
7748.894
7765.309
7774.62
7777.127
7778.128
7782.639
7789.444
7768.826
7771.343
7773.555
7770.992
7766.833
7763.134
7760.784
7758.322
7754.816
7750.621
7746.535
7742.118
7737.699
7731.995
7724.927
7718.698
7713.338
7705.392
7699.484
7696.314
7678.578
7676.988
7668.414
7659.538
7652.505
7646.202
7638.766
7602.69
7570.519
7529.391
7514.886
7527.423
7516.677
7505.619
7502.799
7498.442
7490.875
7462.501
7454.276
7441.709
7427.919
7411.985
7396.774
7382.388
7367.283
7351.782
7336.286
7320.859
7304.347
7287.591
7271.208
7254.624
7236.855
7216.737
7198.301
7180.202
7162.047
7145.484
7119.738
7100.488
7082.03
7061.27
7039.562
7018.238
6995.3
6971.958
6948.889
6931.225
6905.495
6881.363
6858.721
6837.491
6816.194
6791.781
6772.915
6755.483
6744.837
6748.402
6797.912
6615.515
6611.966
6579.632
6555.408
6517.047
6522.514
6498.209
6473.669
6450.798
6429.582
6406.015
6383.751
6362.472
6340.764
6316.634
6294.932
6270.919
6242.306
6250.205
6217.035
6194.695
6172.094
6163.725
6135.805
6116.125
6097.658
6079.275
6061.38
6043.246
6025.812
6008.746
5992.881
5975.784
5958.356
5942.505
5932.235
5916.533
5902.322
5890.73
5877.026
5863.985
5851.586
5839.17
5827.546
5816.151
5805.392
5794.117
5782.769
5772.803
5761.943
5750.056
5755.152
5736.759
5725.673
5718.172
5710.47
5702.127
5693.213
5686.948
5676.332
5674.613
5667.553
5661.751
5656.692
5651.513
5647.918
5642.715
5656.375
5635.74
5535.139
5566.145
5557.8
5555.369
5552.822
5550.472
5549.021
5543.545
5539.424
5540.307
5541.55
5534.193
5532.665
5530.325
5528.158
5527.118
5527.478
5524.166
5522.769
5523.933
5522.642
5521.009
5520.691
5520.468
5519.945
5518.713
5517.731
5517.727
5517.827
5517.938
5518.22
5518.739
5519.985
5523.041
5522.68
5523.794
5523.524
5525.201
5527.077
5528.282
5528.574
5530.767
5533.101
5535.818
5537.333
5539.729
5540.575
5544.252
5548.064
5551.989
5556.153
5558.913
5556.512
5547.628
5528.474
5538.465
5544.006
5553.967
5561.477
5543.903
5559.192
5560.185
5562.453
5566.134
5570.622
5571.418
5573.272
5578.214
5580.58
5585.724
5588.61
5590.491
5594.948
5598.617
5601.899
5605.226
5609.195
5613.494
5616.81
5620.18
5624.765
5628.683
5632.563
5636.407
5639.594
5642.786
5646.418
5651.589
5654.751
5657.656
5661.309
5664.298
5667.554
5670.637
5673.707
5676.715
5679.176
5682.451
5685.166
5687.918
5690.946
5693.237
5696.75
5702.242
5703.219
5703.756
5708.349
5711.013
5713.737
5716.133
5718.684
5721.233
5726.916
5722.921
5729.301
5730.93
5732.953
5735.603
5738.111
5740.446
5742.879
5745.805
5747.476
5748.457
5752.108
5755.02
5756.899
5759.636
5762.287
5765.025
5767.951
5770.978
5774.142
5778.295
5783.918
5788.191
5781.029
5759.636
5744.889
6595.777
6654.123
6622.335
6662.066
6693.486
6725.889
6766.741
6792.494
6806.166
6827.302
6856.198
6863.44
6882.172
6896.927
6928.868
6961.4
6991.833
7016.514
6989.766
7013.586
7029.703
7051.163
7079.334
7086.537
7099.269
7114.462
7124.849
7126.002
7126
7131.461
7149.712
7163.036
7197.18
7184.851
7210.643
7222.681
7224.054
7216.63
7211.78
7236.248
7247.097
7259.471
7270.039
7280.761
7287.38
7290.08
7273.908
7267.212
7272.64
7278.325
7284.543
7294.849
7304.629
7310.424
7309.328
7300.94
7227.114
7237.317
7253.709
7272.842
7294.846
7314.428
7318.333
7319.407
7315.543
7311.529
7304.838
7299.121
7296.752
7297.875
7301.718
7305.981
7308.223
7306.31
7298.724
7288.364
7282.211
7284.931
7294.92
7307.305
7317.935
7328.569
7341.013
7352.292
7359.113
7361.929
7365.233
7369.572
7374.347
7378.927
7383.047
7387.3
7392.591
7399.2
7406.829
7415.644
7425.788
7438.47
7453.398
7466.213
7472.183
7468.064
7454.389
7428.621
7388.968
7353.521
7338.678
7344.975
7361.155
7376.959
7389.603
7398.873
7406.123
7413.075
7420.788
7430.665
7443.322
7460.719
7480.987
7481.12
7470.645
7467.334
7468.292
7470.621
7472.629
7472.996
7470.922
7467.9
7465.311
7462.564
7459.499
7456.48
7453.391
7450.282
7446.644
7442.267
7437.513
7432.883
7428.196
7422.51
7416.026
7409.054
7401.969
7395.111
7387.96
7380.358
7372.336
7364.414
7356.012
7346.892
7336.483
7324.224
7308.216
7286.593
7259.913
7233.491
7220.485
7215.194
7211.357
7205.618
7197.966
7188.72
7177.181
7163.606
7148.416
7133.089
7118.214
7103.582
7088.62
7073.327
7058.247
7043.076
7027.223
7010.805
6994.169
6977.51
6960.744
6943.548
6925.726
6907.099
6888.055
6868.802
6849.747
6830.346
6810.965
6791.123
6770.827
6749.63
6727.434
6704.443
6681.437
6658.915
6637.212
6615.417
6593.311
6570.667
6547.839
6524.682
6501.611
6478.595
6455.85
6434.318
6411.784
6383.379
6420.334
6359.557
6324.113
6302.356
6278.621
6254.987
6236.952
6217.83
6194.467
6171.166
6149.292
6127.111
6104.336
6081.697
6059.245
6039.065
6018.544
5999.01
5980.358
5952.729
5935.082
5915.308
5894.331
5875.088
5856.956
5838.04
5818.943
5800.756
5782.794
5765.139
5747.91
5730.926
5714.366
5698.216
5682.49
5667.268
5652.571
5638.314
5625.02
5612.228
5599.175
5586.089
5573.478
5561.401
5549.565
5538.06
5526.895
5516.009
5505.503
5495.278
5485.28
5475.302
5466.623
5456.812
5448.311
5440.201
5431.735
5423.971
5416.461
5408.916
5401.722
5395.555
5389.517
5383.363
5378.089
5373.306
5368.77
5363.849
5357.133
5343.144
5241.023
5247.107
5252.525
5250.255
5246.931
5244.28
5242.184
5239.927
5237.335
5234.654
5231.865
5228.601
5225.728
5223.503
5221.956
5220.616
5219.432
5218.286
5217.159
5216.807
5216.706
5215.544
5214.436
5213.541
5212.765
5212.111
5211.537
5211.192
5211.192
5211.574
5211.947
5212.462
5212.732
5212.858
5214.734
5217.119
5218.151
5218.972
5220.24
5221.695
5223.094
5224.67
5226.545
5228.662
5230.83
5232.861
5234.855
5237.209
5239.849
5242.625
5244.826
5245.649
5244.354
5240.873
5238.775
5238.394
5240.614
5244.587
5247.838
5249.518
5251.83
5254.74
5257.856
5260.883
5263.773
5266.636
5269.48
5272.632
5276.055
5279.652
5283.194
5286.506
5289.785
5293.268
5296.896
5300.519
5304.096
5307.571
5311.029
5314.664
5318.413
5322.412
5326.398
5330.059
5333.707
5336.952
5340.136
5343.957
5347.921
5351.446
5354.737
5358.108
5361.314
5364.428
5367.463
5370.428
5373.352
5376.258
5379.157
5382.039
5384.887
5387.733
5390.659
5393.702
5396.798
5399.867
5402.492
5404.975
5407.593
5410.104
5412.734
5415.315
5417.809
5420.22
5422.552
5424.862
5427.204
5429.604
5432.028
5434.437
5436.823
5439.134
5441.434
5443.738
5446.064
5448.488
5450.932
5453.211
5455.594
5458.184
5460.928
5463.614
5466.23
5468.449
5470.028
5469.96
5468.205
5464.292
5462.657
6342.682
6388.986
6401.267
6412.047
6476.235
6429.492
6477.619
6442.716
6452.42
6487.01
6357.756
6376.894
6360.371
6393.194
6383.092
6385.353
6386.954
6384.238
6347.637
6303.563
6305.188
6299.722
6299.174
6299.539
6295.082
6314.502
6303.427
6297.19
6299.665
6291.785
6281.18
6276.668
6271.289
6266.012
6263.72
6272.727
6286.982
6301.4
6316.288
6331.95
6353.971
6381.813
6418.109
6458.364
6478.642
6511.118
6544.847
6562.428
6575.181
6589.44
6604.071
6625.687
6659.614
6692.938
6720.298
6739.991
6694.268
6711.355
6730.266
6749.928
6767.918
6782
6795.107
6806.82
6816.367
6824.035
6831.446
6839.103
6849.216
6861.668
6875.532
6888.273
6899.345
6908.49
6915.485
6920.728
6926.487
6933.69
6941.977
6950.921
6959.695
6967.102
6972.072
6974.322
6973.685
6971.904
6972.346
6975.382
6980.92
6987.544
6994.161
6999.393
7002.483
7003.688
7005.296
7008.861
7016.083
7026.527
7038.942
7049.478
7054.578
7056.364
7055.35
7050.878
7046.418
7044.579
7045.578
7048.548
7051.951
7054.741
7055.632
7054.259
7050.742
7046.871
7045.932
7049.333
7056.647
7066.059
7076.078
7085.729
7095.166
7103.237
7109.518
7115.055
7120.351
7125.682
7131.124
7136.252
7140.979
7145.826
7151.29
7157.341
7164.023
7171.205
7178.638
7186.018
7192.381
7197.081
7199.692
7198.963
7193.595
7183.589
7169.909
7157.114
7148.963
7145.533
7145.675
7148.563
7154.082
7160.95
7167.945
7174.764
7181.491
7188.481
7195.544
7201.31
7204.723
7208.953
7212.758
7216.357
7219.369
7221.677
7223.401
7223.848
7222.988
7221.565
7220.082
7218.277
7215.742
7212.987
7210.165
7206.879
7203.382
7199.309
7194.871
7190.062
7184.451
7178.681
7172.658
7166.412
7160.006
7153.075
7145.691
7137.958
7129.504
7120.878
7111.959
7102.503
7092.368
7081.843
7070.761
7058.976
7045.755
7024.019
7002.797
6985.697
6972.826
6961.901
6950.38
6938.21
6925.286
6911.979
6898.081
6884.575
6871.561
6858.031
6843.509
6828.928
6814.522
6799.636
6783.776
6767.271
6750.529
6733.704
6716.797
6699.622
6681.63
6662.729
6643.204
6623.422
6603.51
6585.683
6566.914
6547.314
6526.676
6505.378
6483.393
6460.901
6438.23
6415.595
6392.629
6368.869
6344.97
6321.591
6298.343
6275.287
6252.305
6229.211
6206.857
6183.844
6158.305
6124.081
6085.116
6052.906
6024.255
5998
5973.114
5949.434
5926.422
5904.049
5882.086
5859.921
5837.373
5814.676
5792.091
5769.92
5748.147
5726.577
5705.346
5684.245
5663.001
5642.541
5623.247
5603.34
5583.16
5562.873
5543.72
5525.507
5507.486
5489.342
5471.219
5453.504
5436.313
5419.622
5403.306
5387.397
5371.915
5356.679
5341.768
5327.586
5314.918
5301.765
5288.487
5275.546
5263.127
5251.157
5239.506
5228.119
5217.049
5206.172
5195.55
5185.302
5175.431
5165.812
5156.452
5147.455
5138.789
5130.439
5122.335
5114.477
5106.956
5099.795
5092.866
5086.253
5079.937
5073.929
5068.051
5062.321
5056.497
5050.451
5043.925
5037.901
5033.995
5025.703
5016.456
5008.602
5002.44
4997.548
4993.482
4990.151
4987.683
4985.51
4983.644
4981.864
4980.055
4978.211
4976.27
4974.275
4972.476
4971.138
4970.238
4969.18
4967.912
4966.968
4966.345
4965.854
4965.402
4965.156
4965.115
4965.156
4965.378
4965.674
4966.082
4966.916
4968.315
4969.585
4969.824
4969.939
4970.793
4972.046
4973.507
4975.049
4976.639
4978.306
4980.089
4982.04
4984.161
4986.48
4988.891
4991.34
4993.759
4995.998
4997.909
4999.274
4999.639
4998.224
4995.379
4994.29
4995.79
4997.7
5000.278
5003.21
5006.414
5009.68
5012.99
5016.131
5019.144
5022.206
5025.353
5028.57
5031.862
5035.226
5038.622
5042.035
5045.538
5049.046
5052.423
5056.038
5059.798
5063.309
5066.706
5070.644
5074.852
5078.768
5082.28
5085.617
5089.207
5092.855
5097.091
5100.645
5103.777
5107.131
5110.347
5113.261
5116.248
5119.255
5122.312
5125.374
5128.384
5131.336
5134.262
5137.214
5140.211
5143.266
5146.317
5149.294
5151.974
5154.444
5157.015
5159.881
5162.585
5164.978
5167.416
5169.957
5172.506
5175.004
5177.457
5179.884
5182.291
5184.67
5187.017
5189.329
5191.624
5193.909
5196.197
5198.479
5200.758
5203.038
5205.32
5207.603
5209.91
5212.222
5214.536
5216.732
5218.732
5220.33
5221.224
5220.881
5218.475
5213.365
5208.816
5483.028
5451.66
5298.166
5718.6
5809.181
5920.82
5963.868
5945
5945.546
5967.448
6002.885
6062.357
6085.667
6107.164
6132.148
6152.486
6170.969
6170.385
6173.398
6175.574
6164.88
6111.503
6106.818
6111.997
6112.8
6110.735
6115.258
6108.041
6099.585
6088.242
6072.873
5973.907
5981.888
5990.954
5991.282
5987.824
5985.333
5987.411
5987.895
5983.308
5976.788
5971.939
5969.516
5963.28
5956.175
5949.274
5949.816
5963.397
5980.301
5996.229
6012.692
6033.232
6058.195
6087.038
6118.496
6150.812
6181.445
6211.021
6238.266
6259.411
6275.284
6292.368
6311.916
6335.144
6361.241
6389.66
6416.824
6435.536
6447.033
6462.228
6480.517
6500.14
6516.73
6531.388
6546.169
6560.099
6571.834
6580.841
6587.335
6594.831
6604.287
6616.012
6628.68
6641.192
6652.613
6662.433
6670.482
6676.756
6682.456
6689.044
6696.422
6704.39
6712.038
6718.976
6724.573
6728.732
6730.958
6732.272
6733.342
6735.677
6738.958
6743.489
6748.25
6752.974
6756.711
6759.778
6762.193
6765.3
6770.256
6777.299
6785.874
6794.688
6801.952
6806.1
6807.709
6807.132
6806.239
6805.738
6805.903
6806.377
6807.059
6807.917
6808.657
6809.051
6808.829
6808.413
6808.699
6810.85
6815.332
6821.835
6829.596
6837.775
6845.562
6852.631
6859.037
6864.919
6870.421
6875.597
6880.408
6884.98
6889.601
6894.586
6900.137
6906.107
6912.368
6918.722
6925.183
6931.719
6937.95
6943.185
6946.332
6946.506
6943.148
6936.111
6925.203
6911.52
6899.586
6893.213
6893.989
6900.649
6909.271
6917.942
6925.963
6933.141
6939.513
6945.64
6952.679
6959.594
6966.264
6972.925
6977.892
6980.08
6979.754
6979.503
6979.697
6979.83
6979.638
6978.739
6977.03
6974.62
6971.738
6968.299
6964.735
6961.279
6957.72
6953.638
6948.989
6943.691
6938.052
6932.33
6926.235
6919.751
6912.744
6905.341
6897.763
6889.729
6881.304
6872.423
6863.125
6853.23
6842.542
6830.5
6817.05
6801.956
6785.431
6767.611
6750.052
6736.36
6725.799
6715.69
6704.969
6693.456
6681.332
6668.444
6655.759
6641.978
6628.723
6615.775
6602.185
6587.749
6572.528
6556.594
6540.199
6523.641
6507.024
6490.242
6473.325
6456.01
6437.942
6418.972
6399.066
6378.477
6358.519
6341.52
6323.973
6304.214
6283.1
6261.101
6238.54
6215.59
6192.223
6168.64
6144.859
6122.895
6100.032
6076.212
6052.909
6030.859
6008.3
5983.972
5960.877
5935.394
5907.341
5876.407
5843.481
5811.267
5780.841
5753.468
5728.622
5705.132
5681.858
5658.905
5636.568
5614.354
5591.775
5569.001
5546.432
5524.13
5502.247
5480.566
5459.223
5437.912
5417.062
5396.302
5375.755
5355.545
5335.528
5315.801
5297.636
5279.225
5260.715
5242.295
5224.209
5206.638
5189.568
5173.05
5156.861
5141.127
5125.581
5110.513
5095.239
5081.209
5068.537
5055.536
5042.059
5028.962
5016.551
5004.817
4993.302
4981.884
4970.767
4959.883
4949.295
4939.053
4929.11
4919.504
4910.249
4901.285
4892.583
4884.122
4875.947
4868.1
4860.558
4853.29
4846.336
4839.664
4833.214
4826.942
4820.854
4814.807
4808.716
4802.122
4794.662
4785.715
4775.951
4767.792
4762.969
4759.818
4756.529
4753.279
4750.342
4747.659
4745.155
4742.582
4739.905
4737.396
4735.127
4732.958
4730.953
4729.109
4727.477
4726.26
4725.506
4724.904
4724.229
4723.557
4722.774
4722.009
4721.329
4720.797
4720.493
4720.378
4720.436
4720.627
4720.974
4721.426
4721.995
4722.636
4723.47
4724.52
4725.744
4727.132
4728.58
4730.036
4731.568
4733.222
4734.994
4736.833
4738.7
4740.527
4742.495
4744.477
4746.411
4748.177
4749.686
4750.801
4751.581
4752.118
4751.205
4751.036
4752.963
4755.28
4757.793
4760.538
4763.223
4765.988
4768.589
4771.332
4774.253
4777.294
4780.424
4783.612
4786.866
4790.203
4793.662
4797.214
4800.765
4804.088
4807.303
4810.7
4814.274
4817.949
4821.604
4825.301
4829.143
4832.848
4836.361
4839.984
4843.535
4846.977
4850.64
4854.012
4857.206
4860.829
4864.166
4867.314
4870.44
4873.605
4876.726
4879.853
4882.93
4885.912
4888.85
4891.769
4894.687
4897.597
4900.505
4903.389
4906.235
4909.022
4911.789
4914.54
4917.217
4919.651
4922.216
4924.799
4927.313
4929.777
4932.213
4934.619
4936.988
4939.329
4941.632
4943.923
4946.226
4948.535
4950.812
4953.049
4955.275
4957.485
4959.687
4961.885
4964.042
4966.151
4968.176
4970.059
4971.7
4973.014
4973.818
4974.178
4973.989
4973.521
4973.837
5046.855
5072.551
5092.797
5107.476
5129.509
5098.994
5100.093
5106.462
5102.386
5048.291
4999.563
5063.418
5229.535
5255.746
5420.588
5536.26
5647.873
5645.902
5619.839
5615.586
5649.777
5696.303
5751.595
5774.587
5787.792
5806.237
5826.476
5838.702
5843.218
5842.578
5838.345
5829.883
5815.829
5800.614
5791.285
5788.38
5791.253
5794.124
5791.593
5784.497
5774.878
5763.857
5762.68
5756.976
5750.596
5745.376
5741.931
5739.584
5737.206
5735.352
5731.772
5728.17
5722.654
5716.956
5710.442
5704.136
5702.995
5707.611
5719.098
5732.351
5747.226
5765.111
5787.048
5813.672
5844.065
5876.589
5908.851
5938.92
5966.932
5992.434
6013.97
6033.277
6052.666
6073.565
6096.027
6120.386
6144.811
6166.519
6184.361
6200.519
6216.695
6233.313
6250.765
6268.528
6285.196
6300.645
6314.794
6326.758
6336.281
6344.474
6352.79
6361.915
6372.137
6383.265
6394.69
6405.599
6415.472
6424.079
6431.411
6437.849
6444.253
6450.789
6457.437
6464.081
6470.213
6475.664
6480.138
6483.72
6486.35
6488.575
6490.93
6493.847
6497.291
6501.366
6505.589
6509.754
6513.625
6517.346
6521.212
6525.804
6531.369
6537.906
6545.149
6551.337
6555.213
6557.49
6557.747
6557.297
6556.828
6556.757
6557.111
6557.829
6558.83
6560.038
6561.364
6562.493
6563.513
6564.731
6567.023
6570.908
6576.079
6582.467
6589.708
6597.098
6603.942
6610.072
6616.014
6621.979
6627.585
6632.673
6637.589
6642.565
6647.866
6653.592
6659.724
6666.021
6672.006
6677.757
6683.072
6687.741
6691.391
6693.31
6693.16
6691.187
6687.382
6682.308
6677.53
6674.114
6672.002
6671.119
6672.306
6676.074
6681.662
6687.814
6693.795
6699.27
6704.521
6710.287
6715.979
6720.888
6724.526
6727.496
6729.826
6731.243
6732.121
6732.576
6733.03
6733.278
6732.754
6731.395
6729.403
6726.885
6723.836
6720.583
6717.23
6713.538
6709.602
6705.008
6699.954
6694.397
6688.327
6682.117
6675.474
6668.494
6661.018
6653.29
6645.151
6636.542
6627.364
6617.718
6607.459
6596.604
6584.967
6572.571
6559.522
6545.968
6531.726
6517.132
6503.048
6489.996
6477.657
6465.469
6452.809
6439.76
6426.514
6414.021
6400.257
6386.408
6373.491
6359.794
6345.148
6329.357
6312.91
6296.175
6279.58
6263.329
6246.876
6230.01
6212.371
6193.876
6174.47
6155.218
6135.71
6115.552
6097.015
6079.075
6060.146
6039.447
6017.321
5994.453
5971.136
5947.429
5923.392
5900.747
5880.528
5858.686
5833.617
5809.829
5786.764
5763.328
5736.694
5710.239
5684.349
5657.045
5627.698
5596.866
5566.792
5539.562
5514.235
5488.866
5464.138
5439.516
5414.823
5391.284
5368.071
5345.208
5322.568
5300.055
5277.821
5255.816
5234.047
5212.413
5191.184
5170.296
5149.933
5129.703
5109.942
5089.468
5069.848
5051.821
5033.345
5014.388
4995.535
4977.277
4959.715
4942.956
4926.45
4910.171
4894.041
4878.536
4863.707
4849.174
4834.889
4821.602
4808.181
4794.766
4781.873
4769.817
4758.29
4746.871
4735.448
4724.237
4713.286
4702.677
4692.438
4682.531
4672.947
4663.671
4654.669
4645.923
4637.443
4629.275
4621.413
4613.857
4606.578
4599.593
4592.826
4586.242
4579.816
4573.519
4567.283
4561.033
4554.75
4548.343
4541.991
4536.226
4530.609
4525.119
4519.73
4514.622
4509.958
4505.741
4502.027
4498.803
4496.044
4493.545
4491.23
4489.215
4487.412
4485.52
4483.492
4481.982
4480.508
4479.239
4478.049
4476.838
4475.907
4475.143
4474.445
4473.907
4473.585
4473.487
4473.562
4473.75
4474.057
4474.483
4475.066
4475.82
4476.706
4477.636
4478.555
4479.5
4480.56
4481.782
4483.164
4484.644
4486.171
4487.805
4489.637
4491.687
4493.756
4495.756
4497.685
4499.52
4501.22
4502.721
4504.016
4505.23
4506.456
4506.581
4506.598
4508.294
4510.381
4512.209
4514.657
4517.213
4519.963
4522.957
4526.037
4529.148
4532.294
4535.481
4538.7
4541.937
4545.182
4548.496
4552.022
4555.561
4558.887
4562.156
4565.644
4569.298
4572.977
4576.7
4580.271
4583.911
4587.554
4590.986
4594.565
4598.178
4601.728
4605.409
4608.726
4611.978
4615.39
4618.687
4621.897
4624.983
4628.004
4631.243
4634.507
4637.667
4640.703
4643.715
4646.684
4649.631
4652.563
4655.5
4658.412
4661.271
4664.054
4666.759
4669.4
4671.952
4674.484
4677.106
4679.592
4682.02
4684.517
4687.009
4689.471
4691.86
4694.203
4696.489
4698.772
4701.08
4703.4
4705.625
4707.782
4709.905
4712.029
4714.144
4716.243
4718.257
4720.209
4722.042
4723.729
4725.211
4726.489
4727.458
4728.124
4728.425
4728.27
4728.272
4765.272
4776.871
4786.663
4766.22
4757.59
4719.712
4718.224
4719.533
4723.977
4744.265
4768.825
4791.366
4814.351
4832.173
4858.992
4799.487
4811.514
4817.968
4754.634
4602.001
4611.864
4732.356
4846.247
4944.484
5063.382
5290.49
5389.752
5332.823
5386.058
5379.974
5396.446
5437.673
5485.121
5518.791
5536.651
5554.617
5570.178
5575.54
5577.135
5577.23
5574.563
5568.34
5557.578
5545.884
5536.848
5530.884
5526.256
5521.065
5515.138
5508.909
5501.867
5494.933
5488.118
5482.777
5478.93
5476.352
5474.847
5473.897
5470.945
5465.775
5457.59
5450.399
5459.056
5467.994
5467.31
5457.191
5456.703
5469.516
5486.838
5498.718
5509.164
5524.576
5545.553
5571.555
5600.983
5631.976
5663.117
5693.769
5722.711
5748.378
5771.812
5793.863
5814.862
5836.099
5858.336
5881.837
5903.377
5922.086
5939.925
5956.714
5972.278
5987.8
6004.556
6022.39
6039.63
6055.213
6068.851
6080.865
6091.164
6100.192
6108.927
6117.823
6127.081
6137.285
6147.924
6158.449
6168.492
6177.628
6185.67
6192.726
6199.078
6205.002
6210.671
6216.349
6222.038
6227.439
6232.425
6236.886
6240.69
6243.98
6246.949
6249.988
6253.08
6256.565
6260.321
6264.302
6268.391
6272.54
6276.581
6280.81
6285.416
6290.491
6295.776
6300.573
6304.39
6307.074
6308.479
6309.11
6309.515
6310.103
6311.004
6312.047
6313.14
6314.309
6315.696
6317.316
6319.126
6321.138
6323.726
6327.228
6331.606
6336.883
6343.051
6349.691
6355.994
6361.811
6367.596
6373.517
6379.22
6384.485
6389.558
6394.584
6399.699
6404.964
6410.569
6416.297
6421.752
6426.714
6431.195
6435.223
6438.588
6440.908
6442.247
6442.497
6441.156
6438.313
6434.274
6430.153
6427.83
6427.698
6429.394
6433.147
6438.482
6444.514
6450.427
6455.831
6460.431
6465.147
6470.445
6475.613
6479.821
6483.596
6486.763
6489.006
6490.288
6490.736
6490.501
6490.005
6489.229
6487.931
6486.013
6483.571
6480.697
6477.427
6473.832
6469.84
6465.57
6460.909
6455.835
6450.295
6444.132
6437.628
6430.868
6423.722
6416.171
6408.227
6399.953
6391.106
6381.757
6371.931
6361.582
6350.782
6339.474
6327.504
6314.931
6301.371
6287.101
6272.318
6258.101
6245.417
6233.714
6221.649
6208.772
6195.373
6182.093
6169.344
6156.59
6142.816
6130.281
6116.762
6102.187
6086.512
6069.978
6053.141
6036.526
6020.739
6004.722
5987.925
5970.109
5951.639
5933.128
5914.581
5895.766
5875.286
5855.652
5835.93
5816.806
5796.313
5774.388
5751.136
5727.972
5705.622
5681.918
5659.073
5637.866
5615.38
5590.298
5565.283
5540.144
5515.241
5488.387
5461.401
5435.807
5410.054
5382.098
5352.469
5322.992
5296.633
5272.036
5247.267
5222.881
5197.183
5171.469
5146.892
5122.939
5099.335
5076.147
5053.439
5031.153
5009.041
4987.12
4965.379
4944.118
4923.206
4902.611
4882.154
4861.881
4841.696
4822.198
4804.148
4785.575
4766.669
4747.775
4729.384
4712.19
4695.79
4679.26
4662.677
4646.062
4631.012
4616.124
4601.831
4587.515
4573.656
4560.188
4547.137
4534.929
4523.248
4511.651
4500.086
4488.533
4477.207
4466.234
4455.629
4445.403
4435.521
4425.958
4416.718
4407.747
4399.02
4390.52
4382.296
4374.394
4366.832
4359.561
4352.543
4345.716
4339.037
4332.51
4326.106
4319.814
4313.598
4307.378
4301.039
4294.539
4287.874
4281.437
4275.551
4270.504
4266.301
4262.542
4259.198
4256.18
4253.296
4250.643
4248.103
4245.763
4243.632
4241.622
4239.698
4238.122
4236.397
4234.651
4233.171
4232.268
4231.499
4231.021
4230.454
4229.848
4229.294
4228.905
4228.709
4228.665
4228.744
4228.924
4229.237
4229.693
4230.271
4230.963
4231.777
4232.74
4233.848
4235.084
4236.459
4237.965
4239.584
4241.283
4242.996
4244.621
4246.148
4247.849
4249.614
4251.373
4253.095
4254.732
4256.271
4257.732
4259.074
4260.649
4261.498
4261.791
4263.328
4265.921
4268.116
4270.488
4273.367
4276.055
4278.57
4281.362
4284.367
4287.473
4290.631
4293.808
4297.04
4300.289
4303.51
4306.909
4310.358
4313.741
4317.109
4320.638
4324.24
4327.848
4331.492
4335.064
4338.643
4342.214
4345.659
4349.17
4352.804
4356.396
4360.052
4363.413
4366.711
4370.042
4373.311
4376.487
4379.516
4382.455
4385.603
4388.825
4392.073
4395.241
4398.333
4401.367
4404.378
4407.344
4410.308
4413.263
4416.175
4418.894
4421.32
4423.892
4426.466
4429.193
4431.849
4434.178
4436.66
4439.178
4441.737
4444.244
4446.67
4448.997
4451.246
4453.504
4455.817
4458.157
4460.26
4462.318
4464.431
4466.548
4468.648
4470.675
4472.545
4474.296
4475.933
4477.508
4478.944
4480.175
4481.21
4482.085
4482.838
4483.443
4484.098
4548.474
4518.034
4515.534
4511.469
4502.671
4495.606
4493.274
4493.521
4490.245
4483.842
4406.867
4392.935
4389.474
4392.045
4428.067
4481.091
4503.415
4508.392
4536.009
4586.976
4598.676
4607.772
4592.941
4468.523
4353.718
4402.591
4460.85
4551.855
4691.685
4783.867
4879.786
5005.984
5083.424
5103.955
5104.601
5122.955
5164.034
5208.676
5242.96
5265.67
5279.938
5289.051
5293.261
5295.637
5295.664
5293.22
5287.946
5279.817
5270.427
5261.051
5252.813
5246.019
5240.591
5235.889
5232.095
5228.163
5224.208
5220.269
5216.681
5213.825
5212.69
5212.072
5212.409
5211.885
5210.982
5206.714
5194.42
5197.685
5206.44
5212.746
5225.925
5233.21
5237.381
5246.319
5256.671
5269.56
5287.204
5309.675
5336.244
5365.625
5396.173
5426.591
5456.659
5485.147
5511.119
5535.123
5557.792
5579.204
5599.759
5620.918
5641.755
5661.265
5680.341
5698.7
5715.43
5730.983
5746.292
5762.633
5779.775
5796.435
5811.495
5824.47
5836.002
5846.44
5855.984
5865.082
5874.15
5883.399
5893.147
5903.379
5913.528
5923.373
5932.572
5940.722
5947.834
5954.134
5959.927
5965.229
5970.307
5975.463
5980.622
5985.696
5990.519
5995.014
5998.971
6002.429
6005.539
6008.548
6011.608
6014.861
6018.312
6022.071
6026.108
6030.207
6034.148
6038.103
6042.278
6046.572
6050.65
6054.215
6057.092
6059.226
6060.691
6061.811
6062.848
6063.888
6064.931
6065.956
6066.952
6068.283
6070.127
6072.38
6075.002
6078.041
6081.542
6085.589
6090.245
6095.502
6101.301
6107.317
6113.175
6118.916
6124.7
6130.459
6135.965
6141.159
6146.167
6151.179
6156.282
6161.637
6167.181
6172.629
6177.703
6182.336
6186.431
6189.865
6192.686
6194.645
6195.431
6195.121
6194.136
6193.045
6192.137
6191.451
6191.843
6193.459
6196.328
6200.417
6205.35
6210.389
6215.307
6220.109
6224.896
6229.6
6233.81
6237.461
6240.563
6243.133
6245.075
6246.19
6246.543
6246.311
6245.755
6245.006
6243.902
6242.202
6239.828
6236.635
6233.568
6229.945
6225.897
6221.497
6216.774
6211.73
6206.236
6200.152
6193.487
6186.573
6179.247
6171.578
6163.473
6155.052
6146.107
6136.652
6126.785
6116.403
6105.672
6094.439
6082.652
6070.265
6057.27
6043.746
6029.973
6016.375
6004.124
5991.864
5979.36
5966.272
5952.62
5938.499
5925.233
5912.684
5899.396
5887.001
5873.784
5859.294
5843.84
5827.47
5810.741
5794.128
5778.661
5763.05
5746.095
5728.051
5709.862
5691.84
5672.801
5653.283
5633.079
5613.41
5593.218
5573.715
5553.815
5532.141
5508.225
5485.272
5463.782
5439.45
5415.277
5392.598
5369.213
5344.043
5318.672
5293.306
5268.025
5242.103
5215.999
5190.755
5164.72
5137.024
5108.016
5079.125
5052.695
5027.955
5003.052
4978.23
4953.309
4927.936
4903.558
4878.496
4853.355
4829.639
4806.766
4784.214
4761.871
4739.601
4717.63
4696.452
4675.532
4654.761
4634.239
4613.948
4594.133
4574.8
4556.141
4537.772
4519.324
4500.63
4482.427
4465.565
4449.163
4432.501
4415.183
4398.494
4384.336
4370.009
4355.411
4340.999
4327.563
4314.122
4300.682
4288.539
4276.934
4265.219
4253.409
4241.537
4230.049
4219.013
4208.499
4198.184
4188.136
4178.532
4169.428
4160.529
4151.774
4143.215
4134.946
4127.028
4119.506
4112.296
4105.298
4098.426
4091.684
4085.099
4078.665
4072.387
4066.237
4060.132
4054.075
4048.104
4042.353
4036.996
4031.964
4027.297
4022.936
4018.802
4014.941
4011.295
4007.907
4004.755
4001.921
3999.49
3997.302
3995.255
3993.257
3991.541
3989.891
3988.221
3986.61
3985.62
3984.782
3983.982
3983.218
3982.506
3981.806
3981.479
3981.332
3981.356
3981.569
3981.882
3982.3
3982.834
3983.499
3984.293
3985.184
3986.158
3987.21
3988.338
3989.546
3990.828
3992.158
3993.562
3995.168
3997.133
3999.114
4001.04
4002.887
4004.709
4006.482
4008.185
4009.804
4011.372
4013.04
4014.878
4015.945
4016.816
4018.34
4020.859
4023.101
4025.293
4027.75
4030.473
4033.253
4036.21
4039.244
4042.32
4045.405
4048.55
4051.811
4055.142
4058.442
4061.818
4065.234
4068.647
4072.068
4075.57
4079.124
4082.692
4086.28
4089.849
4093.412
4096.963
4100.466
4103.976
4107.536
4111.075
4114.624
4118.035
4121.381
4124.708
4127.986
4131.197
4134.326
4137.326
4140.336
4143.426
4146.604
4149.715
4152.845
4155.918
4158.955
4161.952
4164.976
4167.878
4170.872
4173.712
4176.155
4178.646
4181.336
4184.094
4186.774
4189.194
4191.621
4194.139
4196.628
4199.036
4201.46
4203.667
4205.856
4208.175
4210.698
4212.866
4214.742
4216.717
4218.862
4220.991
4223.114
4225.046
4226.861
4228.581
4230.141
4231.594
4232.948
4234.148
4235.213
4236.161
4237.207
4238.305
4238.915
4301.567
4273.177
4208.284
4204.129
4195.181
4190.749
4190.076
4188.611
4183.04
4174.041
4165.08
4155.046
4148.075
4147.918
4173.792
4202.016
4239.318
4264.558
4288.565
4348.741
4443.859
4414.524
4339.68
4227.539
4209.778
4223.86
4250.833
4318.528
4426.189
4508.553
4567.963
4647.319
4776.526
4832.902
4817.263
4831.844
4877.873
4921.683
4956.992
4982.015
4996.423
5004.829
5009.204
5011.279
5010.413
5007.381
5001.872
4994.67
4986.106
4977.992
4970.32
4963.718
4958.248
4953.507
4949.104
4945.134
4941.558
4937.839
4934.675
4933.032
4933.096
4934.734
4937.69
4941.852
4945.217
4952.972
4966.197
4962.02
4959.389
4977.623
5003.347
5012.417
4997.21
4987.169
4998.837
5021.26
5048.237
5076.63
5105.458
5134.713
5163.883
5192.388
5220.488
5248.227
5274.36
5298.731
5322.281
5344.242
5365.011
5385.795
5406.156
5425.077
5443.014
5460.429
5476.952
5492.526
5507.862
5523.467
5539.277
5554.773
5568.98