/*--------------------------------*- C++ -*----------------------------------*\
| =========                 |                                                 |
| \\      /  F ield         | foam-extend: Open Source CFD                    |
|  \\    /   O peration     | Version:     3.1                                |
|   \\  /    A nd           | Web:         http://www.extend-project.de       |
|    \\/     M anipulation  |                                                 |
\*---------------------------------------------------------------------------*/
FoamFile
{
    version     2.0;
    format      ascii;
    class       volScalarField;
    location    "12";
    object      k;
}
// * * * * * * * * * * * * * * * * * * * * * * * * * * * * * * * * * * * * * //

dimensions      [0 2 -2 0 0 0 0];

internalField   nonuniform List<scalar> 
119952
(
0.05446594
0.04934745
0.04648901
0.04373909
0.04096813
0.03850368
0.03683951
0.03558461
0.03461558
0.03383558
0.03317955
0.03259632
0.03205059
0.03152064
0.03099902
0.03049147
0.0300132
0.02958482
0.02923952
0.02903743
0.03116346
0.02955921
0.0290503
0.03111148
0.02928788
0.02844371
0.02782653
0.02732962
0.02621325
0.01259803
0.08555315
0.07975504
0.07528923
0.071969
0.06958203
0.06796915
0.06699076
0.06653101
0.06649306
0.06689068
0.06603874
0.06878829
0.07296084
0.07767806
0.08237546
0.08682817
0.09095411
0.09478677
0.09828756
0.1119779
0.1146974
0.116905
0.118554
0.1198522
0.1208743
0.1216299
0.1221237
0.122356
0.1222919
0.1223099
0.1218287
0.1210332
0.1200606
0.1189752
0.1177845
0.116501
0.1151161
0.1137787
0.1143699
0.1125034
0.1105771
0.10942
0.1083336
0.1069166
0.105344
0.1038334
0.1024467
0.1011711
0.09997193
0.09881036
0.09765262
0.09647692
0.09527685
0.09405904
0.09283749
0.09162426
0.0904244
0.08926642
0.08835119
0.08751073
0.08656881
0.08599487
0.08611498
0.08595552
0.08558934
0.08537035
0.08490423
0.08261627
0.08078919
0.07937536
0.07821496
0.07719495
0.07626458
0.07540075
0.07458572
0.07380558
0.07305053
0.07231434
0.07159336
0.07088557
0.0701894
0.0695035
0.06882627
0.06815638
0.06749191
0.06682985
0.06616603
0.06549593
0.06482051
0.06413166
0.0634241
0.06269573
0.0619459
0.06117577
0.06038804
0.05958652
0.05877575
0.05796098
0.05714808
0.05634355
0.05555427
0.0547873
0.0540495
0.05334716
0.05268571
0.05206939
0.0515011
0.05098271
0.05051353
0.05009109
0.04971296
0.04937317
0.04906648
0.04878716
0.04853158
0.04828443
0.04804021
0.04779782
0.04761523
0.04740448
0.04715509
0.04686663
0.04654815
0.04621202
0.04587194
0.04554247
0.04523847
0.04497442
0.04476374
0.0446183
0.04454781
0.04455942
0.04465716
0.04484124
0.04510711
0.0454445
0.04583769
0.04626649
0.04670732
0.04713431
0.04752099
0.04784224
0.04807632
0.04820705
0.04822506
0.04813212
0.04795188
0.04769713
0.04738752
0.04704838
0.04669653
0.04635064
0.04602336
0.04571954
0.0454357
0.04516173
0.04488194
0.04457595
0.0442122
0.04376182
0.04321324
0.04257766
0.04187942
0.04127751
0.04139919
0.04256425
0.04435246
0.04605773
0.04811165
0.04897151
0.0489794
0.04832509
0.04728827
0.04603429
0.0447142
0.04354096
0.04257695
0.04177862
0.04105723
0.04029968
0.03945637
0.03858062
0.03772302
0.03694101
0.03628929
0.03580539
0.0355007
0.03535719
0.0353426
0.03542861
0.03558471
0.03578783
0.03601852
0.03625502
0.03647371
0.03664978
0.03674948
0.03675031
0.03659747
0.0362539
0.03574632
0.03513338
0.03445078
0.03368474
0.04089734
0.05546105
0.057298
0.05141657
0.04593183
0.04036904
0.03447309
0.02949849
0.02583568
0.02309479
0.02096524
0.01934649
0.01813805
0.01723703
0.01652539
0.01587229
0.01523149
0.0146351
0.01413047
0.01374377
0.01348186
0.01334104
0.01331066
0.01337769
0.01353013
0.01376232
0.01407066
0.01444367
0.01487498
0.01535778
0.0158987
0.01650488
0.01716827
0.02092789
0.02191182
0.02304836
0.02435165
0.02585166
0.02746991
0.02909673
0.03066479
0.03215668
0.03358141
0.03495882
0.03633056
0.0377068
0.03904487
0.04032361
0.04152716
0.04263686
0.04363165
0.0444896
0.04519014
0.04571662
0.0460578
0.04620897
0.04617285
0.04595795
0.04557576
0.04503999
0.04436693
0.04357519
0.04268502
0.04171755
0.04069413
0.03963529
0.03855884
0.03747788
0.03640067
0.03533248
0.03427753
0.03324043
0.03222679
0.03124261
0.03029316
0.02938256
0.02851377
0.02768937
0.02690877
0.02616102
0.02544961
0.02477855
0.02414622
0.02355136
0.02299299
0.02246969
0.02200067
0.02158533
0.02109485
0.02063423
0.02020052
0.0197936
0.01941455
0.01906387
0.01874142
0.01844653
0.018178
0.0179342
0.0177132
0.01751294
0.01733099
0.01716534
0.01701405
0.01687524
0.01674719
0.01662839
0.01651751
0.01641342
0.01631515
0.0162219
0.016133
0.01604793
0.01596624
0.01588759
0.01581173
0.01573845
0.01566759
0.01559899
0.01553255
0.01546817
0.01540582
0.01534542
0.01528691
0.01523023
0.01517532
0.01512211
0.01507055
0.01502058
0.01497213
0.01492512
0.0148795
0.0148352
0.01479215
0.01475029
0.01470955
0.01466986
0.01463116
0.01459338
0.01455648
0.01452039
0.01448507
0.01445046
0.01441652
0.0143832
0.01435046
0.01431825
0.01428654
0.01425529
0.01422448
0.01419406
0.01416402
0.01413433
0.01410498
0.01407596
0.01404729
0.01401897
0.01399101
0.01396344
0.01393628
0.01390954
0.01388327
0.01385744
0.01383214
0.01380725
0.0137827
0.01375799
0.01373229
0.01370251
0.01366178
0.01358952
0.01348834
0.01367071
0.088997
0.08478323
0.0906461
0.09817519
0.1047451
0.1099365
0.1139268
0.1169742
0.1194153
0.1222083
0.1314835
0.1415061
0.1507751
0.1585518
0.1647778
0.169666
0.1735108
0.176537
0.201727
0.2023346
0.2030882
0.2037463
0.2045201
0.2056063
0.2069982
0.2086125
0.210349
0.2120188
0.2136314
0.2148334
0.2153926
0.2154219
0.2149637
0.2140073
0.212517
0.210464
0.2078036
0.2048155
0.2012655
0.1969211
0.1922841
0.1876234
0.1831312
0.1789353
0.1751265
0.1717874
0.1690131
0.1667978
0.1651665
0.1642057
0.1638332
0.1640123
0.1646749
0.1657355
0.1670958
0.1686424
0.1820735
0.1832857
0.1843284
0.1851264
0.1855861
0.1856487
0.1852903
0.184521
0.1833758
0.1818775
0.1801104
0.1781787
0.1761351
0.1740025
0.1718094
0.1695476
0.1672653
0.1650545
0.1630849
0.1609603
0.158393
0.1559213
0.1535481
0.1511286
0.1485931
0.1460262
0.1435221
0.1411151
0.1388147
0.1366188
0.1345171
0.1324942
0.130533
0.1286178
0.1267358
0.1248807
0.1230554
0.1212782
0.1195851
0.118018
0.1165449
0.1152359
0.1142131
0.113337
0.1124444
0.1115704
0.1106363
0.1093946
0.1079625
0.1066966
0.1055883
0.1045534
0.1035751
0.1026444
0.1017561
0.1009035
0.1000787
0.09927357
0.09848176
0.0976977
0.09691544
0.0961329
0.09535062
0.09456754
0.09378235
0.09299375
0.09219962
0.09139694
0.09058231
0.08975203
0.08890162
0.08802679
0.08712423
0.08619181
0.08522887
0.08423626
0.08321631
0.08217266
0.08111022
0.08003499
0.07895393
0.07787484
0.07680605
0.07575624
0.07473401
0.07374754
0.0728043
0.07191063
0.07107147
0.07029045
0.06957034
0.06891681
0.06832755
0.06778817
0.06728947
0.06682011
0.06637024
0.06593221
0.06549762
0.06505652
0.06460243
0.06413692
0.06366365
0.06318893
0.06272261
0.06227746
0.06186831
0.0615112
0.06122273
0.06101935
0.06091671
0.06092902
0.06106827
0.0613431
0.06175702
0.06230631
0.06297887
0.06375414
0.06460394
0.06549472
0.06639061
0.06725574
0.068057
0.06876667
0.06936426
0.06983805
0.07018648
0.07041807
0.0705491
0.0705996
0.07059534
0.07056742
0.07053599
0.07050955
0.07048377
0.07044467
0.07036597
0.07021293
0.06994103
0.0695138
0.06890826
0.06808716
0.06701415
0.06568686
0.06417443
0.0625536
0.06088362
0.05924067
0.05759505
0.05526704
0.05357057
0.05240796
0.05172344
0.05147958
0.05163696
0.05213864
0.05289617
0.05377985
0.0546286
0.05528251
0.05562171
0.05559502
0.05523308
0.05462613
0.05388788
0.05312686
0.05242863
0.05185827
0.05146445
0.05125725
0.0512321
0.05137758
0.05167692
0.05210689
0.05263537
0.05321895
0.05380354
0.0543253
0.05471359
0.05489577
0.05485351
0.05458554
0.05404573
0.05297674
0.05059739
0.04729102
0.04501465
0.04466914
0.04692183
0.05173116
0.0573466
0.06186989
0.06369965
0.06187112
0.05724847
0.0517871
0.04699692
0.04329647
0.04053661
0.03827062
0.03616044
0.03413973
0.03226631
0.03063503
0.02929988
0.0282831
0.02758909
0.02720333
0.02710038
0.0272553
0.02764699
0.02825559
0.02906164
0.03004565
0.03118673
0.03246218
0.03384753
0.03533235
0.04062348
0.04231946
0.04403138
0.04572896
0.04740504
0.04905888
0.05068404
0.05227324
0.05382406
0.05534058
0.05683169
0.05830703
0.05978449
0.06126444
0.06271104
0.06409681
0.06539423
0.06657304
0.06760031
0.06844302
0.0690722
0.06946533
0.06960948
0.06950556
0.0691617
0.06858964
0.06780466
0.06682607
0.06567671
0.06438153
0.06296622
0.06145652
0.05987762
0.05825248
0.05660014
0.0549373
0.05327785
0.05163256
0.05001141
0.04842446
0.04688111
0.04538919
0.04395465
0.04258132
0.04127083
0.04002177
0.03883102
0.03769767
0.03662138
0.03560045
0.03463294
0.03371664
0.03285092
0.03204163
0.03127453
0.03053542
0.02983326
0.02917191
0.02855028
0.02796608
0.02741705
0.02690105
0.0264161
0.02596039
0.02553215
0.02512972
0.02475142
0.02439567
0.0240609
0.0237456
0.02344831
0.02316767
0.02290235
0.02265116
0.02241297
0.02218675
0.02197158
0.0217666
0.02157106
0.02138428
0.02120565
0.02103466
0.02087082
0.02071369
0.02056286
0.02041796
0.02027867
0.02014468
0.0200157
0.01989143
0.01977161
0.01965598
0.01954429
0.0194363
0.01933177
0.01923048
0.01913221
0.01903676
0.01894392
0.01885351
0.01876535
0.01867928
0.01859514
0.01851279
0.0184321
0.01835295
0.01827524
0.01819886
0.01812373
0.01804978
0.01797693
0.01790511
0.01783426
0.01776434
0.01769529
0.01762707
0.01755965
0.01749299
0.01742708
0.01736189
0.01729742
0.01723364
0.0171706
0.01710824
0.01704665
0.01698574
0.01692566
0.01686619
0.01680759
0.01674938
0.01669192
0.01663402
0.01657603
0.016515
0.01645073
0.01637974
0.01631521
0.01628449
0.01629305
0.04754074
0.05139595
0.05590345
0.06086374
0.06631247
0.0723644
0.07921537
0.08717186
0.09675069
0.108057
0.1589676
0.1740132
0.1891067
0.2043738
0.21922
0.2332303
0.2464497
0.2621912
0.2877665
0.3458857
0.3570608
0.3664549
0.3745592
0.3817512
0.3877099
0.3927013
0.3967334
0.3997889
0.4023036
0.4045285
0.4072784
0.4095351
0.41086
0.4112848
0.4109848
0.4101306
0.4088539
0.4075489
0.4038455
0.4004775
0.3971852
0.393778
0.3901368
0.3861801
0.3818836
0.3772627
0.3723804
0.3673337
0.3620412
0.3566057
0.351138
0.3457308
0.3404683
0.3354133
0.3305962
0.326026
0.3391413
0.3350452
0.3311798
0.3276459
0.3244796
0.3216889
0.3192888
0.3172766
0.3156328
0.3142736
0.3130569
0.3118726
0.3106067
0.3091204
0.3073115
0.305105
0.3024277
0.2992194
0.295427
0.2910234
0.2861026
0.280899
0.2753369
0.2693735
0.2631519
0.2568317
0.2505473
0.2443706
0.2384067
0.2329353
0.2282217
0.2243164
0.221256
0.2190358
0.2176185
0.2169088
0.2168112
0.217159
0.2176706
0.218309
0.2189223
0.219329
0.2193901
0.2190313
0.2182271
0.2169787
0.2153043
0.2132498
0.2109076
0.2083733
0.2057258
0.2030312
0.2003344
0.1976517
0.1950482
0.1924596
0.1898295
0.1870244
0.1840257
0.180967
0.1779259
0.1748892
0.1718349
0.1687874
0.1657903
0.1628733
0.1600514
0.1573296
0.1547073
0.1521803
0.1497429
0.147387
0.1451039
0.1428852
0.1407281
0.1386365
0.1366254
0.1347117
0.1328973
0.1312136
0.1296855
0.1282776
0.1269296
0.1256213
0.1243006
0.1229272
0.1214967
0.120134
0.1188817
0.1177259
0.1166476
0.1156321
0.1146703
0.1137549
0.1128778
0.1120292
0.1111996
0.1103806
0.109565
0.1087491
0.1079307
0.1071087
0.1062822
0.1054503
0.1046113
0.1037624
0.1029005
0.1020213
0.1011203
0.1001931
0.09923588
0.09824572
0.09722111
0.09616197
0.0950697
0.09394713
0.09279848
0.09162924
0.09044617
0.08925709
0.08807077
0.08689666
0.08574456
0.08462424
0.08354502
0.08251538
0.08154245
0.08063174
0.07978726
0.07901256
0.0783035
0.07765444
0.0770572
0.07650206
0.07597865
0.0754769
0.07498733
0.07450149
0.07401294
0.0735196
0.0730239
0.07253266
0.07205674
0.07161047
0.07121075
0.0708763
0.07062689
0.07048266
0.07046342
0.07058792
0.07087284
0.07133095
0.07196844
0.07278192
0.07375649
0.07486577
0.07607298
0.07733469
0.07860533
0.07983998
0.08099744
0.08204362
0.08295474
0.08371935
0.08433962
0.08483149
0.08522242
0.08554705
0.08584054
0.08612944
0.08642583
0.08672866
0.08702508
0.08729058
0.08749098
0.08758536
0.08753041
0.08727866
0.08677611
0.08599012
0.0849328
0.08362461
0.08208894
0.08034806
0.07842955
0.07636133
0.07412155
0.07185723
0.06959218
0.06736774
0.0652385
0.06326747
0.06152047
0.0600585
0.05892762
0.05814764
0.05770255
0.05753722
0.05756518
0.05768849
0.0578213
0.05790774
0.05792929
0.05790146
0.0578634
0.057866
0.05797323
0.05823673
0.05868166
0.05931798
0.06014046
0.06112698
0.06223805
0.06341958
0.0646083
0.06573748
0.06673975
0.06754595
0.06811489
0.06839974
0.06827331
0.06752053
0.0660493
0.06405398
0.06168096
0.05911568
0.05671132
0.05494318
0.05423551
0.05477647
0.05653853
0.05901293
0.06169249
0.06403016
0.06559926
0.0660347
0.06511191
0.06292459
0.05985667
0.05638902
0.0529167
0.04965786
0.04677467
0.04440278
0.04256775
0.04123322
0.04037595
0.03996938
0.03997881
0.04036645
0.04109371
0.04212212
0.04340914
0.04491111
0.04657097
0.04834999
0.05017529
0.05202841
0.05389312
0.05575698
0.05759866
0.0594
0.06114967
0.06284151
0.06447482
0.06605454
0.06758968
0.06909049
0.07056428
0.07203189
0.07347249
0.07486339
0.07617818
0.0773858
0.07845045
0.07933455
0.08000651
0.0804384
0.08060361
0.08050274
0.08014813
0.0795507
0.07872378
0.07768515
0.0764569
0.07506366
0.07353065
0.07188272
0.07014451
0.06833889
0.06648203
0.0645878
0.06267868
0.06077264
0.0588856
0.05703225
0.05522565
0.05347624
0.05179154
0.05017623
0.04863232
0.04715942
0.04575541
0.04441826
0.04314629
0.04193741
0.04078912
0.03969877
0.03866349
0.03768045
0.0367472
0.03586232
0.03502528
0.03423351
0.03348412
0.03277503
0.0321048
0.03147205
0.03087527
0.03031281
0.02978295
0.02928394
0.028814
0.02837135
0.02795422
0.02756085
0.02718956
0.0268387
0.0265067
0.02619208
0.02589347
0.02560961
0.02533933
0.02508157
0.02483538
0.02459989
0.02437435
0.02415806
0.02395044
0.02375096
0.02355912
0.02337448
0.0231966
0.02302514
0.02285974
0.02270009
0.02254586
0.02239676
0.02225251
0.02211283
0.02197745
0.02184612
0.02171858
0.0215946
0.02147394
0.02135638
0.02124172
0.02112976
0.02102031
0.0209132
0.02080829
0.02070542
0.02060447
0.02050532
0.02040787
0.02031202
0.02021769
0.02012479
0.02003326
0.01994303
0.01985402
0.01976619
0.01967949
0.01959386
0.01950926
0.01942565
0.019343
0.0192613
0.01918049
0.01910059
0.01902153
0.01894337
0.01886599
0.01878947
0.01871356
0.01863836
0.01856333
0.01848853
0.01841284
0.01833658
0.01825846
0.01818134
0.01810692
0.01804512
0.01800075
0.0351876
0.03977184
0.04388371
0.06731801
0.09119145
0.1208586
0.1409464
0.1611673
0.1803851
0.1983894
0.2141827
0.2279745
0.2415066
0.2554043
0.269458
0.2837905
0.2984136
0.313302
0.3281384
0.3426339
0.3568618
0.3707348
0.3842239
0.3973755
0.4101711
0.4226961
0.4349238
0.4468202
0.4584346
0.4696146
0.4807349
0.5135621
0.519297
0.5241855
0.527556
0.5297581
0.5310254
0.5314775
0.5312018
0.5303918
0.5293076
0.5279635
0.5264395
0.5248091
0.5230949
0.5212828
0.5193732
0.5173533
0.515216
0.5129101
0.5102099
0.5069501
0.5031294
0.4987588
0.4938521
0.4884324
0.4825398
0.476228
0.4695614
0.4626037
0.4554134
0.4480609
0.4406274
0.4331998
0.4258611
0.4186355
0.4115784
0.4047013
0.397771
0.3912668
0.3852519
0.3797551
0.3748073
0.3704454
0.3667103
0.3636279
0.361176
0.3592686
0.3577572
0.3564733
0.3552308
0.3538464
0.3521844
0.3501491
0.3476558
0.3446254
0.340994
0.3367519
0.3319786
0.3263915
0.3200046
0.3129718
0.3055184
0.2978748
0.2902422
0.2827798
0.275624
0.2688533
0.262615
0.2572458
0.2528437
0.2494509
0.2470573
0.2455861
0.2449094
0.2448479
0.245196
0.2457795
0.2463921
0.2467907
0.2467809
0.2462605
0.2451987
0.2435968
0.2414801
0.2389122
0.2359984
0.2328662
0.2296424
0.2264288
0.2232908
0.2202789
0.2172932
0.2142446
0.2111034
0.2078365
0.2044378
0.2009699
0.1975128
0.1941017
0.1907337
0.1874068
0.1841338
0.1809309
0.1778073
0.174765
0.1718047
0.1689287
0.1661406
0.1634428
0.1608347
0.1583127
0.155872
0.1535094
0.151225
0.1490231
0.1469069
0.1448829
0.1429606
0.1411366
0.1393896
0.137702
0.1360589
0.1344458
0.1328633
0.1313454
0.1299205
0.1285915
0.1273472
0.1261761
0.125071
0.1240264
0.1230344
0.122085
0.1211665
0.1202687
0.1193829
0.118503
0.1176254
0.1167481
0.1158703
0.114991
0.1141085
0.11322
0.1123218
0.1114095
0.1104782
0.1095227
0.1085386
0.1075221
0.1064707
0.1053832
0.1042602
0.1031032
0.1019157
0.1007023
0.09946906
0.09822344
0.09697422
0.09573126
0.09450519
0.09330704
0.09214775
0.09103767
0.08998596
0.08900001
0.0880849
0.08724296
0.08647611
0.08578025
0.08514825
0.08457066
0.08403655
0.08353463
0.08305432
0.08258659
0.08212486
0.08166649
0.08121376
0.08077408
0.08035958
0.07998643
0.07967385
0.07944329
0.0793177
0.07932104
0.07947773
0.07981195
0.08034572
0.08109582
0.08206957
0.08326061
0.08464583
0.08618642
0.08783171
0.08952522
0.09120991
0.09283116
0.09433994
0.09569757
0.09687991
0.09787923
0.09870587
0.09938957
0.09997595
0.100518
0.1010628
0.1016362
0.1022399
0.102859
0.1034645
0.1040159
0.1044666
0.1047677
0.1048733
0.1047388
0.1043208
0.1035775
0.1024821
0.1010654
0.09939415
0.0974936
0.09539423
0.09312391
0.09070211
0.08814534
0.08547869
0.08274263
0.07998908
0.0772741
0.07465314
0.07218102
0.06991108
0.0678903
0.06615299
0.06471485
0.06356842
0.06268623
0.06203019
0.0615623
0.06125386
0.0610914
0.06107887
0.06123628
0.0615937
0.0621978
0.06306432
0.06418313
0.06553132
0.06706864
0.06873468
0.07045401
0.07214621
0.07373128
0.07513106
0.07627377
0.07710141
0.07755247
0.07753449
0.0769669
0.07585614
0.07428261
0.07227483
0.06986637
0.06717685
0.06437599
0.0617022
0.05948973
0.05803742
0.0574858
0.05788601
0.05920489
0.06103654
0.06294708
0.06461102
0.06574
0.06610705
0.0655962
0.06423498
0.0621945
0.05974989
0.05720062
0.05478626
0.0526413
0.05092484
0.04971117
0.04900303
0.04878338
0.0490268
0.04969245
0.05073024
0.05208361
0.05369484
0.05550272
0.05744887
0.05945869
0.06149059
0.06351801
0.06551301
0.06745281
0.06932422
0.07112049
0.0728391
0.07448249
0.07605647
0.07756797
0.07902128
0.08042972
0.08179175
0.0830932
0.08431542
0.08543395
0.0864169
0.08722348
0.08782595
0.08820514
0.08832812
0.08818621
0.08779044
0.08715253
0.08628719
0.0852124
0.08394892
0.08251908
0.08094509
0.079248
0.07744845
0.07556855
0.07362696
0.07163348
0.06960545
0.06755972
0.06552017
0.06350775
0.06153975
0.05962922
0.0577853
0.05601366
0.05431708
0.05269595
0.05114888
0.04967376
0.04826835
0.04693017
0.04565642
0.04444415
0.04329036
0.0421929
0.04114964
0.0401573
0.03921316
0.03831555
0.03746314
0.03665463
0.03588864
0.03516373
0.03447837
0.03383094
0.03321978
0.03264316
0.03209932
0.03158644
0.0311027
0.03064625
0.03021527
0.02980795
0.02942255
0.02905738
0.02871086
0.02838151
0.02806798
0.02776899
0.0274834
0.02721018
0.02694841
0.02669725
0.02645598
0.02622397
0.02600062
0.02578541
0.02557785
0.02537755
0.0251841
0.02499715
0.02481635
0.02464137
0.0244719
0.02430765
0.02414831
0.02399362
0.0238433
0.02369709
0.02355475
0.02341603
0.0232807
0.02314856
0.0230194
0.02289302
0.02276926
0.02264796
0.02252898
0.02241219
0.02229748
0.02218475
0.02207389
0.02196483
0.02185747
0.02175175
0.02164758
0.02154489
0.02144363
0.02134372
0.02124509
0.0211477
0.02105148
0.02095638
0.02086234
0.02076933
0.02067727
0.02058615
0.02049586
0.02040639
0.02031755
0.02022933
0.02014138
0.02005368
0.0199658
0.01987794
0.01979017
0.01970347
0.01961972
0.01954154
0.01947793
0.01735134
0.01935256
0.02128622
0.0283752
0.03782567
0.0538031
0.06508822
0.07713193
0.09016338
0.1034741
0.1173161
0.1326318
0.1491173
0.1661184
0.1839792
0.2041928
0.2353289
0.2502116
0.2654507
0.2808763
0.2966841
0.3123304
0.3274606
0.3421931
0.3566965
0.3710811
0.3853422
0.3993569
0.4133032
0.427113
0.4407278
0.4540557
0.4669817
0.4794045
0.4912622
0.5024668
0.5128881
0.5225844
0.5315334
0.5398385
0.5474664
0.5526911
0.5533979
0.5539495
0.5537573
0.5525828
0.5505721
0.547947
0.5449333
0.5417568
0.5386389
0.5357902
0.5333074
0.5311866
0.5294333
0.5279919
0.5267761
0.5257085
0.5246941
0.5237159
0.5227602
0.521767
0.5203812
0.5186482
0.5165428
0.5139613
0.5108088
0.5070317
0.5026144
0.4975844
0.4919979
0.4859111
0.4793926
0.4725463
0.4654995
0.458375
0.4512179
0.444081
0.4369747
0.4299659
0.4232175
0.4168694
0.4110191
0.4057631
0.4012027
0.3974302
0.3945168
0.3924646
0.3911643
0.3904282
0.3900154
0.3896405
0.3890333
0.388
0.3864081
0.384157
0.3811898
0.3775112
0.373241
0.3681782
0.3621459
0.3551592
0.3473521
0.3389589
0.3302578
0.3215135
0.3129468
0.3047344
0.2970152
0.2899061
0.283685
0.2786189
0.2747903
0.2722075
0.2707873
0.2703578
0.2707027
0.2715868
0.2727484
0.2738671
0.2746011
0.274706
0.2740839
0.2727281
0.2706585
0.26792
0.2646153
0.2609049
0.2569688
0.2529699
0.2490356
0.2452813
0.2416787
0.2381065
0.2344807
0.2307502
0.2269015
0.2229549
0.2189718
0.2150262
0.2111642
0.2073942
0.2037092
0.2001092
0.1965955
0.1931658
0.1898136
0.1865348
0.1833324
0.1802158
0.1771958
0.1742801
0.1714707
0.1687638
0.1661524
0.1636281
0.1611847
0.1588174
0.1565249
0.1543117
0.1521814
0.1501309
0.1481571
0.1462579
0.144429
0.1426693
0.1409879
0.139396
0.1378965
0.1364846
0.1351546
0.1339018
0.1327211
0.131605
0.1305427
0.1295219
0.1285309
0.1275598
0.1266019
0.1256529
0.1247109
0.1237747
0.1228434
0.1219151
0.1209868
0.1200543
0.1191128
0.118157
0.1171815
0.1161812
0.1151514
0.1140889
0.1129916
0.1118591
0.1106922
0.1094935
0.1082667
0.1070175
0.1057529
0.1044818
0.1032144
0.1019621
0.1007369
0.09955116
0.09841662
0.097344
0.09634207
0.09541676
0.0945695
0.09380677
0.09312534
0.09251826
0.09197589
0.09148685
0.09103924
0.09062186
0.09022554
0.08984431
0.0894765
0.08912563
0.08880094
0.08851691
0.08829215
0.08814842
0.08810979
0.08820226
0.08845392
0.08889463
0.08955474
0.09046199
0.09163648
0.09308349
0.09478682
0.09670357
0.09877391
0.1009307
0.1031029
0.1052223
0.1072247
0.1090544
0.1106711
0.1120549
0.1132067
0.1141519
0.1149438
0.1156584
0.1163776
0.1171639
0.1180358
0.118971
0.1199309
0.1208605
0.1216932
0.1223688
0.1228309
0.1230279
0.1229125
0.1224432
0.1215908
0.1203454
0.1187169
0.1167568
0.1145748
0.1122209
0.1097255
0.1070834
0.1042843
0.101336
0.09827233
0.09514692
0.0920131
0.0889121
0.08588097
0.08296289
0.08020727
0.07766234
0.07536871
0.0733573
0.07164707
0.07024438
0.06914812
0.06835473
0.06786155
0.06766999
0.06778811
0.06822801
0.06900329
0.07014417
0.07161953
0.07337697
0.07534413
0.07742821
0.07952459
0.0815331
0.08335912
0.08491522
0.08613405
0.08696998
0.08737642
0.08730924
0.08675645
0.085759
0.08436534
0.08256549
0.08033281
0.07767301
0.07462753
0.07130139
0.06790569
0.06472869
0.06204699
0.06009239
0.05900835
0.05880202
0.05939345
0.06062175
0.06210365
0.06358499
0.06487274
0.06579704
0.06621718
0.06605046
0.06529786
0.06405125
0.06249317
0.06085218
0.05934627
0.05810337
0.05725753
0.05689223
0.05701369
0.05759091
0.0585829
0.05993331
0.06157447
0.06343175
0.06542589
0.06749386
0.06958635
0.07166407
0.07369768
0.07566687
0.07755847
0.07936243
0.08107319
0.08268722
0.08420129
0.08561062
0.08691421
0.08811827
0.0892202
0.09021339
0.09108587
0.09181918
0.09237569
0.0927315
0.09288227
0.09282354
0.09254932
0.0920586
0.09135877
0.09046142
0.08938026
0.08813041
0.08672805
0.08518961
0.08353054
0.08176566
0.07991143
0.0779882
0.07601809
0.07400856
0.07196406
0.0699089
0.06786809
0.0658619
0.06390539
0.06200916
0.06018015
0.05842229
0.0567371
0.05512429
0.05358245
0.05210964
0.05070353
0.04936145
0.04808065
0.04685836
0.04569216
0.04457946
0.04351725
0.0425034
0.04153652
0.04061541
0.03973878
0.03890537
0.03811396
0.03736331
0.03665213
0.03597903
0.03534255
0.03474112
0.03417307
0.03363667
0.0331301
0.03265152
0.03219908
0.03177095
0.03136536
0.03098057
0.03061496
0.03026699
0.02993523
0.0296184
0.02931532
0.02902491
0.02874624
0.02847847
0.02822086
0.02797275
0.02773352
0.02750268
0.02727975
0.02706431
0.02685598
0.02665437
0.02645913
0.02626995
0.0260865
0.02590848
0.02573559
0.02556755
0.02540409
0.02524495
0.02508986
0.02493858
0.02479088
0.02464655
0.02450538
0.02436718
0.02423179
0.02409905
0.02396883
0.02384101
0.02371548
0.02359214
0.0234709
0.02335166
0.02323434
0.02311887
0.02300515
0.02289311
0.02278266
0.02267374
0.02256625
0.02246011
0.02235525
0.02225158
0.02214903
0.02204751
0.02194696
0.02184728
0.0217484
0.02165017
0.02155254
0.02145532
0.02135849
0.02126193
0.02116579
0.02107042
0.02097621
0.02088484
0.02079696
0.02072308
0.007402909
0.008684388
0.00965335
0.01445349
0.01994239
0.02713509
0.03299312
0.03962075
0.04679387
0.05445453
0.06289068
0.07284956
0.08382034
0.09612286
0.1109376
0.1339726
0.146156
0.1590499
0.1722364
0.185679
0.1993204
0.2130505
0.226744
0.2403038
0.2536181
0.2665935
0.2793859
0.293429
0.3078492
0.3226659
0.3379303
0.3532843
0.3683742
0.3831271
0.3975925
0.4116325
0.4252653
0.4386257
0.4517271
0.4645212
0.4769164
0.4887962
0.5000333
0.5104589
0.5199677
0.5284939
0.5358468
0.5420466
0.5466386
0.5494541
0.5506191
0.5497809
0.5466779
0.5424375
0.537099
0.5310355
0.5246338
0.5182654
0.5122468
0.5068807
0.5023886
0.4989446
0.4966043
0.4953174
0.4949706
0.4953492
0.4962586
0.4975082
0.4989966
0.5006946
0.5023691
0.5040382
0.5059326
0.5079802
0.5098973
0.5113207
0.5119497
0.5116012
0.5101948
0.5077553
0.5043633
0.5001046
0.495084
0.489458
0.4834331
0.4771933
0.4708318
0.4643939
0.4579194
0.4515128
0.4453536
0.4396147
0.4344536
0.4300325
0.4265116
0.4240504
0.4227923
0.4227182
0.4236017
0.4251116
0.4268494
0.4283396
0.4291373
0.4289363
0.4275337
0.4248144
0.4208112
0.415741
0.4100409
0.4035603
0.3962103
0.3879704
0.3789432
0.3693565
0.3595091
0.3497015
0.3401911
0.3311867
0.3228618
0.3153876
0.3090093
0.3041448
0.3009014
0.2992788
0.2991408
0.3002351
0.3022771
0.3049579
0.3078631
0.3104484
0.3121847
0.3127856
0.3122085
0.3104992
0.3076993
0.3038973
0.2993186
0.2942767
0.2890511
0.2838214
0.2786946
0.2737908
0.2689841
0.2642098
0.2594085
0.2545466
0.2496154
0.2446422
0.2396855
0.2348118
0.2300706
0.2254826
0.2210449
0.2167541
0.2126056
0.2085887
0.204687
0.2008847
0.1971794
0.1935823
0.1901097
0.1867751
0.1835852
0.1805377
0.1776222
0.1748232
0.172125
0.1695139
0.1669808
0.1645243
0.1621478
0.1598557
0.1576528
0.1555425
0.153525
0.151599
0.1497651
0.148025
0.1463791
0.1448253
0.1433611
0.1419831
0.1406865
0.139463
0.1383011
0.1371875
0.1361099
0.1350583
0.1340256
0.133008
0.1320036
0.1310116
0.1300308
0.1290589
0.1280925
0.1271269
0.126157
0.1251774
0.1241826
0.1231671
0.1221261
0.1210557
0.1199534
0.1188183
0.1176508
0.116453
0.1152283
0.1139821
0.1127218
0.1114562
0.1101965
0.1089548
0.1077441
0.1065779
0.1054689
0.1044286
0.1034663
0.1025882
0.1017954
0.1010929
0.1004817
0.0999538
0.09949879
0.09910487
0.09875981
0.09845255
0.09817472
0.09792194
0.09769479
0.09749914
0.09734689
0.09725671
0.0972508
0.09735367
0.0975916
0.09799341
0.09859164
0.09942295
0.100526
0.1019361
0.103676
0.1057455
0.108112
0.11071
0.1134497
0.1162313
0.1189608
0.1215563
0.1239437
0.1260619
0.1278741
0.1293724
0.1305746
0.1315313
0.1323354
0.1331137
0.1339933
0.13505
0.1362771
0.1376058
0.1389467
0.1402122
0.1413167
0.1421865
0.1427573
0.1429707
0.1427734
0.1421227
0.1409975
0.1394001
0.1373594
0.134933
0.1322417
0.1294226
0.1265263
0.1235431
0.1204291
0.1171603
0.1137648
0.1103035
0.1068369
0.1033947
0.09998901
0.09665276
0.09344347
0.09042221
0.08764036
0.08514353
0.08297391
0.08116019
0.07972073
0.07866844
0.07801192
0.07775476
0.07789826
0.07844298
0.07938635
0.08073258
0.08246056
0.08449179
0.08671996
0.0890175
0.09125621
0.0933248
0.09512268
0.09656348
0.09759419
0.09819503
0.09834024
0.09803326
0.0973223
0.09626379
0.0948647
0.09307776
0.09084984
0.08815265
0.08498909
0.08140409
0.07751654
0.07352384
0.06965394
0.06614405
0.06322553
0.06106504
0.05974292
0.05924952
0.05947159
0.06024861
0.06139298
0.06264805
0.06391255
0.06508296
0.06604993
0.06669771
0.06693713
0.06675165
0.06621986
0.06549222
0.0647636
0.06421587
0.06396851
0.06408563
0.06461985
0.0655625
0.06686722
0.06846694
0.07028482
0.07224643
0.074284
0.07634724
0.07840072
0.08041277
0.08235737
0.08421311
0.0859611
0.08758351
0.08906211
0.09037691
0.09150839
0.09246009
0.0932385
0.0938482
0.09429181
0.09456983
0.09468191
0.09462686
0.09440631
0.09402682
0.09349743
0.09282718
0.09202446
0.09109559
0.09004459
0.08887463
0.0875897
0.08619527
0.0846972
0.08310116
0.08141458
0.07964913
0.07782114
0.07594579
0.07402721
0.07208531
0.07014325
0.06822063
0.06633272
0.06449104
0.06270383
0.06097653
0.05931221
0.05771211
0.05617609
0.05470312
0.05329159
0.05193943
0.05064435
0.04940395
0.04821587
0.04707779
0.04598748
0.04494324
0.04394371
0.04298779
0.04207444
0.04120275
0.04037188
0.03958101
0.03882925
0.03811561
0.03743898
0.03679809
0.03619157
0.03561789
0.0350754
0.03456234
0.03407695
0.03361744
0.03318199
0.03276882
0.0323762
0.03200252
0.03164626
0.031306
0.03098047
0.03066851
0.03036908
0.03008126
0.02980426
0.02953737
0.02927994
0.0290314
0.02879125
0.02855904
0.02833439
0.0281169
0.02790624
0.02770205
0.02750402
0.02731184
0.02712521
0.02694384
0.02676744
0.02659575
0.02642849
0.02626541
0.02610626
0.02595082
0.02579887
0.0256502
0.02550463
0.02536201
0.0252222
0.02508506
0.02495049
0.02481837
0.02468862
0.02456113
0.02443581
0.02431258
0.02419133
0.024072
0.02395446
0.02383864
0.02372443
0.02361173
0.02350044
0.02339045
0.02328165
0.02317394
0.02306723
0.02296141
0.02285639
0.02275206
0.02264835
0.02254517
0.02244251
0.0223404
0.02223895
0.02213857
0.02203945
0.02194301
0.02184948
0.02177009
0.001743228
0.007094722
0.01077139
0.01502954
0.01974157
0.02510693
0.03120622
0.03789796
0.04537972
0.05440032
0.06820371
0.07627231
0.08499929
0.0941737
0.1038252
0.1139061
0.1243725
0.1351413
0.1460798
0.157099
0.1682148
0.1808067
0.1936726
0.2066526
0.2196734
0.2326647
0.2455731
0.2583403
0.2709752
0.2835044
0.2959368
0.3084546
0.3214954
0.334895
0.3487346
0.3628865
0.3770173
0.3908295
0.4041845
0.4169435
0.4292414
0.4412524
0.4530472
0.4646175
0.4758688
0.4866837
0.4969233
0.506451
0.5148935
0.5221457
0.5281664
0.5319264
0.5335944
0.5332177
0.5307406
0.5262413
0.5198361
0.5118261
0.5027905
0.4932146
0.4836206
0.474501
0.466308
0.4594093
0.4541313
0.450668
0.4491669
0.4495849
0.4517922
0.4554784
0.4601971
0.4655524
0.4710564
0.4761003
0.4811773
0.4866946
0.4929571
0.5000236
0.5075472
0.5148742
0.5212716