/*--------------------------------*- C++ -*----------------------------------*\
| =========                 |                                                 |
| \\      /  F ield         | foam-extend: Open Source CFD                    |
|  \\    /   O peration     | Version:     3.1                                |
|   \\  /    A nd           | Web:         http://www.extend-project.de       |
|    \\/     M anipulation  |                                                 |
\*---------------------------------------------------------------------------*/
FoamFile
{
    version     2.0;
    format      ascii;
    class       volScalarField;
    location    "12";
    object      p;
}
// * * * * * * * * * * * * * * * * * * * * * * * * * * * * * * * * * * * * * //

dimensions      [1 -1 -2 0 0 0 0];

internalField   nonuniform List<scalar> 
119952
(
6360.283
5452.784
5346.712
5505.245
5659.044
5603.358
5618.441
5639.498
5674.28
5713.823
5757.973
5805.37
5854.762
5905.176
5955.787
6005.873
6054.792
6101.512
6142.34
6163.596
6317.969
6302.311
6327.655
6505.196
6528.959
6587.801
6630.986
6698.555
6834.968
7569.072
4118.848
4139.429
4175.003
4221.501
4272.667
4325.564
4379.846
4434.56
4488.522
4517.033
4555.808
4599.285
4637.827
4669.767
4697.507
4720.654
4739.296
4751.354
4762.765
4741.359
4740.89
4725.301
4717.695
4712.344
4706.622
4702.79
4701.741
4702.349
4711.46
4714.017
4723.617
4745.272
4769.915
4799.926
4834.931
4876.379
4928.441
5019.19
5168.761
5108.297
5141.778
5223.147
5283.662
5317.34
5336.799
5368.499
5406.587
5449.092
5495.35
5544.429
5595.196
5646.735
5698.336
5749.377
5799.296
5847.684
5894.89
5943.213
5997.707
6053.607
6099.659
6174.663
6258.994
6305.958
6347.5
6385.633
6395.645
6341.447
6360.258
6402.919
6436.811
6469.458
6500.091
6528.732
6555.901
6581.869
6606.811
6630.852
6654.094
6676.617
6698.549
6719.99
6741.04
6761.762
6782.224
6802.492
6822.616
6842.646
6862.645
6882.575
6902.453
6922.256
6941.969
6961.566
6981.018
7000.288
7019.335
7038.108
7056.555
7074.618
7092.238
7109.355
7125.91
7141.847
7157.112
7171.659
7185.444
7198.441
7210.599
7221.925
7232.416
7242
7250.626
7258.322
7265.013
7270.865
7276.935
7283.263
7288.347
7290.37
7291.708
7292.499
7292.44
7291.573
7289.951
7287.599
7284.571
7280.926
7276.723
7272.028
7266.9
7261.394
7255.553
7249.413
7243.001
7236.346
7229.48
7222.458
7215.346
7208.235
7201.24
7194.472
7188.051
7182.079
7176.645
7171.847
7167.755
7164.296
7161.66
7159.133
7156.969
7154.963
7152.917
7150.666
7148.122
7145.248
7142.068
7138.657
7135.207
7131.959
7128.944
7125.877
7120.665
7108.111
7094.533
7092.574
7097.61
7144.224
7146.504
7142.508
7145.654
7146.474
7148.004
7148.92
7149.72
7150.835
7152.654
7155.419
7159.087
7163.555
7168.563
7173.604
7178.617
7183.611
7188.651
7193.814
7199.005
7204.348
7209.87
7215.474
7221.202
7227.123
7233.343
7240.015
7247.348
7255.72
7265.434
7276.893
7291.21
7309.269
7332.193
7361.177
7402.552
7470.358
7335.105
7375.912
7389.378
7395.993
7409.041
7437.265
7454.981
7461.513
7462.984
7462.138
7458.965
7454.569
7450.989
7449.062
7448.453
7448.341
7448.005
7447.108
7445.6
7443.531
7440.961
7437.967
7434.6
7430.9
7426.797
7422.24
7417.191
7411.56
7405.282
7398.351
7390.686
7382.301
7372.989
7336.065
7322.83
7310.07
7298.588
7287.033
7275.732
7264.834
7254.602
7245.341
7237.371
7231.022
7226.575
7224.288
7224.368
7226.992
7232.203
7239.946
7250.06
7262.274
7276.218
7291.444
7307.463
7323.773
7339.892
7355.404
7369.978
7383.356
7395.349
7405.84
7414.773
7422.155
7428.039
7432.52
7435.722
7437.778
7438.811
7438.935
7438.26
7436.898
7434.959
7432.555
7429.795
7426.791
7423.657
7420.456
7416.931
7412.677
7408.128
7403.742
7399.444
7395.212
7391.068
7386.944
7382.118
7374.679
7372.71
7369.441
7365.497
7361.671
7357.856
7354.09
7350.398
7346.772
7343.208
7339.701
7336.246
7332.835
7329.458
7326.126
7322.829
7319.561
7316.321
7313.103
7309.905
7306.724
7303.556
7300.401
7297.254
7294.117
7290.985
7287.86
7284.741
7281.626
7278.517
7275.412
7272.314
7269.221
7266.136
7263.06
7259.992
7256.935
7253.889
7250.855
7247.835
7244.83
7241.84
7238.867
7235.911
7232.972
7230.053
7227.153
7224.272
7221.411
7218.57
7215.75
7212.949
7210.168
7207.406
7204.664
7201.94
7199.234
7196.544
7193.87
7191.211
7188.564
7185.927
7183.298
7180.674
7178.052
7175.427
7172.794
7170.147
7167.478
7164.779
7162.037
7159.239
7156.366
7153.395
7150.296
7147.03
7143.537
7139.721
7135.469
7130.563
7124.661
7117.453
7110.324
7113.18
7145.397
5556.961
5441.568
5302.614
5171.097
5043.954
4922.849
4809.104
4703.584
4609.245
4491.182
4417.934
4354.346
4300.379
4256.538
4224.427
4201.796
4186.841
4175.575
4142.285
4154.118
4142.949
4133.049
4126.466
4116.631
4101.923
4082.092
4056.991
4026.846
3995.132
3948.364
3909.63
3874.865
3844.49
3822.02
3809.492
3808.472
3820.12
3848.77
3866.127
3900.571
3950.461
4002.652
4056.097
4110.423
4163.944
4215.19
4261.929
4305.311
4348.347
4384.012
4412.346
4436.449
4455.639
4469.683
4479.342
4491.462
4410.244
4406.86
4406.908
4401.686
4393.265
4385.732
4381.129
4379.836
4381.712
4386.324
4396.666
4412.217
4431.643
4456.04
4487.096
4525.385
4572.295
4628.158
4690.15
4750.305
4794.627
4832.024
4878.613
4928.342
4972.963
5012.443
5052.28
5095.693
5143.125
5193.724
5246.387
5300.174
5354.356
5408.356
5461.728
5514.221
5565.897
5617.247
5669.105
5722.273
5776.653
5832.278
5889.802
5946.304
5994.326
6031.23
6057.18
6071.153
6078.089
6092.982
6118.771
6148.969
6179.035
6207.365
6234.078
6259.686
6284.47
6308.497
6331.779
6354.357
6376.382
6397.833
6418.868
6439.616
6460.092
6480.358
6500.484
6520.522
6540.507
6560.473
6580.425
6600.338
6620.201
6639.995
6659.691
6679.257
6698.653
6717.834
6736.747
6755.334
6773.53
6791.268
6808.48
6825.095
6841.048
6856.277
6870.728
6884.355
6897.117
6908.993
6919.95
6929.988
6939.071
6947.335
6954.67
6961.146
6966.894
6972.026
6976.523
6980.172
6982.733
6984.201
6984.716
6984.4
6983.322
6981.51
6978.985
6975.778
6971.941
6967.534
6962.622
6957.259
6951.486
6945.329
6938.81
6931.951
6924.782
6917.358
6909.758
6902.087
6894.486
6887.107
6880.094
6873.592
6867.734
6862.621
6858.297
6854.765
6852.063
6849.854
6848.555
6847.273
6845.874
6844.167
6841.992
6839.278
6835.996
6832.247
6828.13
6823.78
6819.25
6814.918
6809.492
6803.439
6796.918
6790.574
6788.62
6791.963
6858.178
6865.144
6867.356
6869.078
6871.488
6873.693
6875.792
6877.762
6879.848
6882.314
6885.274
6888.775
6892.761
6897.013
6901.334
6905.655
6909.967
6914.298
6918.55
6923.336
6927.891
6932.599
6937.448
6942.448
6947.668
6953.232
6959.326
6966.171
6974.1
6983.545
6994.894
7008.85
7025.957
7046.628
7070.486
7094.691
7108.619
7084.942
7097.78
7111.823
7129.562
7145.162
7166.411
7183.632
7192.392
7191.628
7188.63
7184.301
7179.481
7176.413
7174.855
7174.405
7174.252
7173.703
7172.596
7170.884
7168.655
7165.924
7162.812
7159.411
7155.695
7151.635
7147.173
7142.231
7136.727
7130.592
7123.774
7116.218
7107.9
7098.979
7026.577
7015.835
7003.831
6992.113
6980.562
6969.049
6957.806
6947.182
6937.515
6929.137
6922.373
6917.521
6914.898
6914.599
6916.867
6921.74
6929.168
6938.997
6950.964
6964.698
6979.737
6995.6
7011.757
7027.685
7043.012
7057.441
7070.722
7082.668
7093.16
7102.143
7109.618
7115.635
7120.283
7123.688
7125.975
7127.221
7127.547
7127.076
7125.917
7124.181
7121.977
7119.404
7116.544
7113.449
7110.127
7106.538
7102.645
7098.552
7094.423
7090.323
7086.256
7082.216
7078.172
7073.993
7069.38
7065
7061.217
7057.619
7053.929
7050.168
7046.429
7042.76
7039.16
7035.617
7032.127
7028.685
7025.289
7021.934
7018.615
7015.33
7012.076
7008.848
7005.643
7002.456
6999.285
6996.128
6992.982
6989.845
6986.716
6983.593
6980.475
6977.361
6974.252
6971.148
6968.047
6964.953
6961.861
6958.778
6955.703
6952.635
6949.578
6946.531
6943.496
6940.475
6937.467
6934.475
6931.499
6928.541
6925.6
6922.678
6919.775
6916.891
6914.028
6911.184
6908.361
6905.558
6902.775
6900.011
6897.267
6894.542
6891.835
6889.145
6886.472
6883.813
6881.167
6878.532
6875.906
6873.285
6870.668
6868.048
6865.422
6862.783
6860.126
6857.44
6854.717
6851.942
6849.103
6846.174
6843.141
6839.96
6836.611
6833.029
6829.223
6825.197
6821.281
6818.071
6816.8
6817.949
6822.045
3258.566
3302.718
3364.507
3440.924
3530.984
3634.178
3750.052
3878.304
4018.317
4166.936
4308.349
4473.841
4644.186
4819.136
4996.968
5175.247
5349.769
5518.889
5680.551
5817.36
5953.146
6073.934
6176.179
6257.573
6316.841
6352.931
6365.323
6354.228
6324.654
6271.811
6199.781
6111.206
6008.961
5895.193
5772.206
5642.342
5508.293
5372.936
5226.672
5091.465
4956.244
4824.363
4697.47
4576.663
4463.532
4359.538
4266.251
4182.988
4108.672
4047.719
3997.531
3958.045
3928.954
3909.124
3897.409
3897.366
3818.899
3818.135
3821.426
3821.232
3815.473
3804.376
3787.923
3765.42
3736.408
3700.875
3660.079
3617.327
3574.796
3535.119
3501.916
3478.424
3466.838
3468.379
3483.162
3510.204
3548.068
3593.51
3645.555
3703.101
3763.049
3823.208
3881.604
3937.582
3988.137
4034.561
4075.137
4109.318
4137.248
4158.771
4173.963
4182.817
4185.527
4182.161
4172.079
4162.666
4154.648
4144.416
4133.229
4123.915
4118.015
4115.668
4116.747
4121.738
4130.996
4144.584
4163.232
4187.849
4218.943
4256.784
4300.723
4350.099
4403.601
4459.236
4508.476
4550.585
4594.952
4643.987
4692.937
4738.942
4784.136
4831.857
4883.188
4937.49
4993.685
5050.849
5108.269
5165.402
5221.843
5277.364
5331.923
5385.689
5438.969
5492.239
5545.852
5598.652
5650.238
5700.081
5744.687
5780.525
5808.464
5829.932
5846.775
5864.459
5887.812
5915.346
5943.336
5970.028
5995.358
6019.762
6043.512
6066.652
6089.161
6111.082
6132.614
6153.697
6174.403
6194.826
6215.037
6235.099
6255.073
6275.01
6294.942
6314.891
6334.859
6354.831
6374.789
6394.709
6414.561
6434.311
6453.921
6473.343
6492.522
6511.398
6529.899
6547.949
6565.468
6582.376
6598.594
6614.047
6628.671
6642.408
6655.214
6667.058
6677.925
6687.817
6696.743
6704.725
6711.776
6717.962
6723.344
6727.991
6731.961
6735.181
6737.464
6738.727
6739.093
6738.687
6737.552
6735.689
6733.106
6729.832
6725.916
6721.417
6716.39
6710.884
6704.935
6698.541
6691.705
6684.443
6676.765
6668.731
6660.492
6652.191
6644.007
6636.142
6628.792
6622.122
6616.276
6611.371
6607.452
6604.516
6602.525
6601.282
6600.611
6600.04
6599.261
6597.931
6595.906
6593.085
6589.457
6585.11
6580.229
6574.953
6569.428
6563.786
6557.893
6552.434
6547.069
6543.007
6541.916
6543.691
6547.376
6550.294
6553.269
6556.553
6559.944
6563.438
6567.047
6570.804
6574.695
6578.905
6583.419
6588.128
6592.981
6597.659
6602.132
6606.347
6610.319
6614.101
6617.752
6621.513
6625.195
6628.921
6632.692
6636.543
6640.581
6644.947
6649.817
6655.431
6662.085
6670.057
6679.601
6690.918
6704.802
6720.04
6735.966
6748.056
6757.974
6764.011
6772.455
6785.684
6801.872
6821.174
6841.218
6854.188
6864.254
6871.402
6873.59
6875.816
6879.341
6879.931
6877.006
6873.543
6870.619
6868.54
6866.934
6865.23
6862.857
6859.912
6856.765
6853.398
6849.615
6845.465
6840.973
6836.022
6830.5
6824.357
6817.503
6809.896
6801.484
6792.595
6783.363
6772.578
6760.909
6749.171
6737.393
6725.533
6713.821
6702.609
6692.251
6683.093
6675.482
6669.76
6666.278
6665.105
6666.57
6670.712
6677.504
6686.82
6698.431
6711.956
6726.88
6742.759
6759.1
6775.271
6790.832
6805.519
6819.073
6831.29
6842.044
6851.274
6858.98
6865.204
6870.04
6873.645
6876.227
6877.835
6878.501
6878.309
6877.376
6875.84
6873.818
6871.402
6868.667
6865.667
6862.432
6858.975
6855.3
6851.449
6847.515
6843.57
6839.631
6835.694
6831.748
6827.836
6824.143
6820.379
6816.441
6812.457
6808.528
6804.685
6800.931
6797.261
6793.664
6790.13
6786.65
6783.22
6779.835
6776.49
6773.182
6769.908
6766.664
6763.446
6760.252
6757.075
6753.914
6750.767
6747.632
6744.505
6741.385
6738.272
6735.163
6732.057
6728.955
6725.856
6722.761
6719.669
6716.582
6713.501
6710.426
6707.358
6704.299
6701.25
6698.211
6695.185
6692.173
6689.175
6686.193
6683.227
6680.279
6677.349
6674.438
6671.546
6668.674
6665.822
6662.99
6660.179
6657.388
6654.617
6651.866
6649.134
6646.421
6643.726
6641.048
6638.386
6635.738
6633.103
6630.478
6627.861
6625.249
6622.639
6620.026
6617.404
6614.769
6612.113
6609.429
6606.705
6603.931
6601.094
6598.179
6595.172
6592.065
6588.862
6585.614
6582.434
6579.54
6577.223
6575.798
6575.732
6577.189
3032.125
3015.055
2995.154
2963.527
2946.534
2906.795
2908.402
2924.051
2950.897
2961.239
2957.163
2966.164
2992.948
3035.231
3092.359
3163.221
3247.15
3343.537
3452.54
3572.368
3703.432
3844.92
3995.276
4154.009
4318.795
4487.929
4659.731
4831.994
5002.825
5169.49
5329.06
5447.666
5587.987
5705.056
5802.964
5880.314
5934.943
5965.953
5973.475
5958.748
5923.635
5868.526
5794.596
5704.346
5600.456
5485.319
5361.363
5230.862
5096.405
4960.364
4824.587
4690.295
4558.036
4429.388
4305.799
4188.591
4079.175
3978.909
3888.91
3809.921
3742.204
3686.066
3641.766
3609.039
3586.99
3574.14
3568.688
3568.112
3569.26
3573.603
3579.039
3580.565
3576.615
3566.851
3550.434
3526.335
3493.692
3452.891
3405.972
3355.38
3304.371
3257.009
3217.27
3188.612
3173.637
3173.935
3189.961
3220.443
3263.006
3315.206
3375.562
3441.844
3510.835
3579.619
3645.991
3708.692
3766.064
3817.1
3861.301
3897.045
3924.912
3944.701
3956.398
3960.345
3956.701
3947.128
3933.496
3917.771
3901.878
3886.216
3871.84
3860.317
3852.484
3848.278
3847.581
3850.659
3857.88
3869.93
3887.509
3911
3940.434
3975.986
4017.153
4063.548
4113.279
4164.633
4213.906
4260.147
4306.847
4356.095
4406.356
4456.034
4506.017
4558.285
4613.764
4672.088
4732.339
4793.596
4855.081
4916.182
4976.427
5035.492
5093.202
5149.548
5204.654
5258.686
5311.606
5362.862
5412.032
5458.476
5500.512
5536.443
5566.487
5591.762
5613.489
5634.482
5657.628
5682.999
5708.843
5733.894
5757.91
5781.129
5803.767
5825.899
5847.544
5868.75
5889.599
5910.11
5930.333
5950.343
5970.21
5989.994
6009.752
6029.533
6049.369
6069.275
6089.251
6109.279
6129.335
6149.391
6169.419
6189.383
6209.245
6228.958
6248.467
6267.706
6286.599
6305.061
6323.001
6340.325
6356.938
6372.753
6387.688
6401.674
6414.656
6426.595
6437.468
6447.278
6456.027
6463.76
6470.519
6476.363
6481.357
6485.572
6489.052
6491.776
6493.674
6494.716
6494.949
6494.431
6493.186
6491.208
6488.501
6485.097
6481.044
6476.409
6471.252
6465.603
6459.502
6452.918
6445.813
6438.179
6430.034
6421.43
6412.501
6403.449
6394.543
6386.052
6378.225
6371.274
6365.365
6360.599
6357.018
6354.608
6353.323
6352.989
6353.286
6353.745
6353.967
6353.151
6351.204
6348.277
6344.28
6339.335
6333.688
6327.531
6321.086
6314.532
6308.233
6302.198
6297.367
6293.841
6292.388
6293.042
6295.27
6298.516
6302.448
6306.593
6310.866
6315.455
6320.421
6325.52
6330.726
6336.235
6341.934
6347.599
6353.127
6358.404
6363.381
6367.885
6371.898
6375.479
6378.728
6381.698
6384.367
6386.89
6389.274
6391.642
6394.1
6396.803
6399.929
6403.711
6408.474
6414.348
6421.477
6430.341
6441.076
6452.77
6464.398
6475.362
6485.524
6493.498
6503.976
6518.913
6534.735
6550.468
6567.786
6584.349
6598.431
6611.081
6622.464
6628.878
6628.702
6626.67
6626.96
6629.372
6631.324
6630.768
6628.446
6625.088
6621.291
6617.624
6614.052
6610.296
6606.287
6602.151
6597.815
6592.962
6587.463
6581.366
6574.596
6567.058
6558.745
6549.663
6539.765
6528.812
6517.122
6505.106
6492.894
6480.555
6468.317
6456.515
6445.507
6435.652
6427.319
6420.854
6416.541
6414.876
6415.834
6419.559
6426.046
6435.189
6446.807
6460.556
6475.807
6491.996
6508.664
6525.307
6541.489
6556.814
6570.928
6583.591
6594.667
6604.103
6611.915
6618.163
6622.955
6626.456
6628.835
6630.287
6631.027
6630.978
6630.109
6628.606
6626.613
6624.224
6621.514
6618.54
6615.342
6611.947
6608.374
6604.658
6600.859
6597.028
6593.188
6589.35
6585.53
6581.746
6578.002
6574.14
6570.212
6566.339
6562.56
6558.852
6555.201
6551.602
6548.057
6544.562
6541.114
6537.711
6534.348
6531.023
6527.732
6524.472
6521.241
6518.036
6514.854
6511.688
6508.538
6505.401
6502.276
6499.159
6496.05
6492.945
6489.845
6486.748
6483.653
6480.561
6477.472
6474.382
6471.301
6468.225
6465.15
6462.083
6459.024
6455.974
6452.934
6449.906
6446.891
6443.89
6440.903
6437.933
6434.98
6432.045
6429.128
6426.231
6423.353
6420.495
6417.657
6414.84
6412.044
6409.267
6406.511
6403.775
6401.059
6398.361
6395.681
6393.018
6390.372
6387.739
6385.119
6382.51
6379.909
6377.312
6374.718
6372.121
6369.517
6366.901
6364.267
6361.609
6358.921
6356.194
6353.427
6350.617
6347.777
6344.932
6342.144
6339.5
6337.149
6335.223
6333.95
6333.451
6333.837
3190.392
3166.808
3143.127
3095.881
3057.222
2985.035
2946.686
2908.453
2871.2
2834.889
2800.189
2768.211
2738.073
2711.08
2688.358
2669.905
2595.615
2591.165
2594.058
2600.801
2607.566
2618.604
2638.905
2671.207
2716.742
2774.866
2845.477
2929.959
3027.245
3136.926
3258.369
3390.731
3532.913
3683.661
3841.845
4006.313
4175.178
4346.891
4519.289
4689.478
4853.849
5010.43
5147.944
5281.178
5397.445
5495.288
5572.203
5626.043
5655.881
5661.84
5645.091
5607.545
5550.852
5476.485
5386.452
5283.1
5168.633
5045.575
4915.882
4781.918
4646.269
4509.69
4374.018
4241.937
4114.511
3992.325
3876.422
3768.282
3669.437
3581.27
3504.756
3440.308
3388.286
3348.906
3321.918
3306.43
3300.704
3302.821
3310.393
3320.801
3332.445
3342.972
3349.625
3350.507
3343.956
3328.34
3302.333
3264.73
3215.438
3157.152
3093.958
3030.141
2970.415
2919.635
2881.954
2860.472
2857.405
2873.195
2906.206
2954.431
3015.543
3086.539
3164.405
3245.629
3326.858
3405.415
3479.243
3546.434
3605.607
3655.397
3695.543
3724.563
3742.988
3751.2
3749.665
3739.018
3721.37
3699.288
3674.914
3650.363
3627.342
3607.388
3591.822
3581.012
3574.428
3571.359
3571.781
3576.69
3586.965
3602.857
3624.44
3651.886
3685.305
3724.355
3768.299
3815.758
3865.189
3914.78
3963.591
4012.468
4062.573
4113.973
4166.363
4220.247
4276.765
4336.565
4399.391
4464.413
4530.618
4597.056
4662.957
4727.73
4790.941
4852.313
4911.713
4969.115
5024.495
5077.758
5128.628
5176.713
5221.501
5262.274
5298.321
5329.655
5357.006
5381.403
5404.428
5427.687
5451.663
5475.756
5499.254
5521.903
5543.82
5565.193
5586.14
5606.727
5627.003
5647.022
5666.824
5686.451
5705.953
5725.388
5744.815
5764.294
5783.874
5803.587
5823.444
5843.433
5863.53
5883.704
5903.927
5924.169
5944.395
5964.57
5984.648
6004.574
6024.28
6043.682
6062.687
6081.187
6099.072
6116.229
6132.551
6147.936
6162.296
6175.557
6187.667
6198.59
6208.328
6216.891
6224.345
6230.743
6236.156
6240.671
6244.369
6247.312
6249.529
6251.018
6251.77
6251.793
6251.095
6249.688
6247.547
6244.662
6241.067
6236.823
6232.012
6226.715
6220.968
6214.756
6208.02
6200.686
6192.675
6183.971
6174.66
6164.892
6154.912
6145.098
6135.81
6127.342
6119.944
6113.834
6109.144
6105.895
6104.068
6103.638
6104.445
6106.079
6107.854
6109.086
6109.391
6107.918
6104.804
6100.425
6094.769
6088.163
6080.946
6073.42
6065.885
6058.744
6052.477
6047.046
6043.387
6041.774
6042.217
6044.456
6048.017
6052.295
6056.802
6061.432
6066.416
6072.042
6078.342
6084.97
6091.717
6098.616
6105.495
6112.027
6118.142
6124.045
6129.336
6133.876
6137.627
6140.677
6143.072
6144.866
6146.189
6147.073
6147.751
6148.349
6149.055
6150.002
6151.677
6154.272
6157.601
6162.436
6168.614
6176.564
6185.833
6195.002
6204.12
6213.621
6224.422
6237.104
6251.07
6265.071
6280.21
6297.403
6314.197
6329.334
6343.372
6354.84
6362.168
6367.942
6373.888
6379.522
6382.863
6383.8
6383.548
6383.153
6382.219
6380.139
6376.928
6372.798
6368.21
6363.684
6359.246
6354.605
6349.531
6343.979
6337.971
6331.278
6323.673
6315.193
6305.835
6295.631
6284.571
6272.79
6260.539
6247.942
6235.112
6222.32
6209.907
6198.242
6187.711
6178.702
6171.597
6166.758
6164.52
6165.037
6168.453
6174.771
6183.878
6195.553
6209.418
6224.958
6241.587
6258.725
6275.936
6292.78
6308.729
6323.393
6336.515
6347.953
6357.664
6365.68
6372.081
6376.966
6380.441
6382.61
6383.776
6384.27
6384.05
6383.096
6381.546
6379.529
6377.134
6374.43
6371.475
6368.311
6364.97
6361.479
6357.871
6354.185
6350.458
6346.715
6342.968
6339.227
6335.486
6331.737
6327.958
6324.185
6320.453
6316.771
6313.132
6309.533
6305.978
6302.468
6299.004
6295.583
6292.202
6288.86
6285.552
6282.278
6279.033
6275.816
6272.626
6269.46
6266.302
6263.158
6260.032
6256.917
6253.81
6250.71
6247.614
6244.523
6241.433
6238.346
6235.26
6232.176
6229.094
6226.017
6222.943
6219.873
6216.808
6213.75
6210.701
6207.661
6204.632
6201.615
6198.611
6195.622
6192.648
6189.691
6186.752
6183.831
6180.928
6178.046
6175.183
6172.34
6169.518
6166.716
6163.935
6161.175
6158.435
6155.715
6153.016
6150.335
6147.673
6145.028
6142.4
6139.787
6137.187
6134.599
6132.02
6129.448
6126.88
6124.313
6121.744
6119.169
6116.585
6113.99
6111.383
6108.767
6106.151
6103.553
6101.006
6098.561
6096.289
6094.287
6092.654
6091.515
6090.919
6090.91
3306.954
3277.548
3243.976
3197.761
3164.968
3096.93
3064.158
3031.212
2997.679
2963.507
2929.129
2894.748
2858.712
2822.335
2783.867
2678.883
2640.357
2602.502
2565.245
2528.903
2493.738
2460.507
2429.473
2400.981
2375.947
2355.643
2339.997
2329.822
2325.124
2325.223
2330.218
2342.442
2363.898
2396.016
2439.568
2495.929
2565.551
2648.134
2743.541
2851.353
2970.897
3101.316
3241.592
3390.495
3546.702
3708.996
3875.251
4043.222
4211.45
4378.197
4540.432
4696.19
4839.698
4970.615
5084.668
5179.369
5252.316
5301.692
5326.626
5327.445
5305.557
5263.153
5202.529
5125.732
5034.944
4931.85
4818.551
4697.588
4570.7
4439.046
4304.313
4168.229
4033.647
3903.295
3777.622
3656.777
3541.92
3434.848
3337.387
3251.422
3178.272
3118.382
3071.973
3039.449
3020.79
3015.105
3020.54
3033.962
3053.235
3075.686
3097.731
3116.778
3131.039
3138.379
3135.878
3120.956
3091.551
3045.39
2982.633
2907.281
2825.012
2741.78
2663.797
2597.067
2546.746
2516.517
2509.413
2525.737
2562.531
2618.402
2691.661
2777.854
2872.71
2971.578
3070.251
3165.381
3254.362
3335.106
3405.711
3464.54
3510.172
3541.418
3558.383
3561.612
3551.944
3530.758
3500.994
3466.396
3429.87
3394.028
3361.911
3335.694
3316.181
3302.439
3293.016
3287.14
3284.544
3286.643
3294.658
3308.659
3328.499
3354.028
3385.197
3421.886
3464.259
3511.049
3560.529
3611.149
3661.87
3712.557
3763.762
3816.164
3870.42
3927.304
3987.747
4052.133
4120.124
4190.81
4262.933
4335.257
4406.799
4476.826
4544.797
4610.352
4673.279
4733.46
4790.814
4845.237
4896.545
4944.469
4988.722
5029.032
5065.163
5097.203
5125.695
5151.449
5175.458
5198.69
5221.646
5244.239
5266.165
5287.289
5307.709
5327.617
5347.18
5366.515
5385.69
5404.752
5423.73
5442.649
5461.54
5480.45
5499.44
5518.577
5537.916
5557.489
5577.298
5597.317
5617.506
5637.827
5658.25
5678.746
5699.285
5719.836
5740.357
5760.795
5781.077
5801.114
5820.797
5840.004
5858.603
5876.458
5893.435
5909.409
5924.265
5937.906
5950.258
5961.278
5970.951
5979.317
5986.432
5992.38
5997.262
6001.193
6004.283
6006.635
6008.322
6009.38
6009.81
6009.591
6008.694
6007.1
6004.766
6001.662
5997.81
5993.293
5988.234
5982.747
5976.905
5970.645
5963.86
5956.387
5948.081
5938.833
5928.668
5917.804
5906.599
5895.584
5885.246
5875.957
5868.006
5861.635
5856.995
5854.078
5852.844
5853.377
5855.641
5859.004
5862.597
5865.492
5867.228
5866.537
5863.253
5858.109
5851.465
5843.73
5835.301
5826.552
5817.88
5809.702
5802.462
5796.558
5792.403
5790.482
5790.824
5793.338
5797.392
5802.286
5807.329
5812.244
5817.539
5823.976
5831.288
5838.747
5846.208
5853.943
5861.678
5869.491
5877.333
5884.55
5891.031
5896.443
5900.608
5903.532
5905.283
5906.012
5905.9
5905.235
5904.072
5902.633
5901.151
5899.69
5899.243
5899.281
5899.559
5901.856
5905.548
5911.246
5918.832
5927.36
5936.911
5946.575
5957.411
5969.424
5982.093
5995.384
6009.876
6025.724
6041.852
6057.392
6072.536
6086.602
6098.062
6108.236
6117.556
6125.423
6130.828
6134.644
6137.019
6138.014
6137.413
6135.453
6132.981
6130.104
6126.583
6122.437
6117.638
6112.306
6106.763
6100.97
6094.684
6087.719
6079.95
6071.339
6061.857
6051.514
6040.318
6028.337
6015.744
6002.725
5989.466
5976.226
5963.335
5951.163
5940.105
5930.561
5922.929
5917.577
5914.776
5914.804
5917.84
5923.918
5932.93
5944.582
5958.449
5974.181
5991.302
6009.095
6026.93
6044.274
6060.646
6075.67
6089.091
6100.777
6110.685
6118.855
6125.378
6130.365
6133.95
6136.264
6137.479
6137.716
6137.124
6135.963
6134.33
6132.282
6129.886
6127.203
6124.285
6121.173
6117.902
6114.499
6110.995
6107.419
6103.799
6100.155
6096.5
6092.84
6089.174
6085.508
6081.844
6078.188
6074.549
6070.938
6067.359
6063.816
6060.31
6056.844
6053.417
6050.028
6046.676
6043.357
6040.071
6036.816
6033.587
6030.384
6027.205
6024.051
6020.904
6017.774
6014.662
6011.557
6008.46
6005.369
6002.282
5999.199
5996.117
5993.037
5989.958
5986.88
5983.804
5980.73
5977.66
5974.593
5971.531
5968.475
5965.426
5962.387
5959.358
5956.34
5953.335
5950.343
5947.367
5944.407
5941.465
5938.54
5935.633
5932.746
5929.879
5927.032
5924.205
5921.399
5918.614
5915.85
5913.108
5910.386
5907.685
5905.005
5902.344
5899.703
5897.08
5894.475
5891.887
5889.314
5886.755
5884.209
5881.673
5879.146
5876.627
5874.115
5871.609
5869.11
5866.622
5864.152
5861.713
5859.326
5857.021
5854.844
5852.85
5851.106
5849.69
5848.662
5848.072
5847.915
3239.055
3197.985
3163.819
3118.733
3072.545
3030.286
2991.039
2954.627
2920.621
2886.557
2787.392
2754.862
2722.477
2689.593
2655.993
2621.697
2586.629
2550.528
2513.501
2476.191
2439.474
2401.485
2363.563
2325.9
2288.933
2252.85
2218.046
2184.893
2153.522
2124.513
2099.08
2078.778
2063.763
2054.059
2050.373
2053.813
2065.754
2087.324
2119.493
2163.17
2218.983
2287.466
2368.665
2462.502
2568.597
2686.299
2814.739
2953.036
3099.791
3253.429
3412.006
3574.025
3737.808
3902.001
4065.095
4224.086
4375.594
4515.398
4640.649
4748.69
4836.759
4902.458
4944.243
4961.208
4954.092
4924.535
4875.396
4809.338
4728.949
4637.33
4535.61
4425.611
4308.414
4184.78
4056.533
3925.072
3792.961
3663.049
3536.381
3413.194
3293.598
3179.304
3072.962
2976.776
2893.249
2824.29
2770.471
2731.886
2709.047
2702.105
2710.348
2731.198
2760.519
2795.758
2833.931
2870.04
2901.179
2926.139
2942.591
2946.848
2934.746
2902.072
2843.997
2761.615
2663.085
2555.3
2445.05
2341.512
2252.353
2183.82
2140.769
2128.253
2146.848
2189.507
2255.332
2342.844
2448.452
2566.277
2689.146
2811.072
2927.831
3036.353
3134.424
3219.888
3290.106
3342.987
3377.428
3393.05
3390.456
3370.214
3334.195
3287.826
3237.364
3185.849
3135.454
3091.085
3056.287
3032.882
3018.16
3007.221
2997.858
2990.313
2989.15
2995.204
3007.438
3025.719
3049.88
3078.492
3112.124
3153.523
3200.864
3251.752
3304.338
3357.307
3409.78
3461.651
3514.019
3568.516
3627.095
3690.93
3760.121
3834.04
3911.444
3990.628
4069.941
4148.109
4224.228
4297.654
4367.965
4434.923
4498.398
4558.309
4614.56
4667.01
4715.5
4759.908
4800.197
4836.409
4868.769
4897.757
4924.023
4948.277
4971.176
4993.144
5014.291
5034.565
5053.973
5072.666
5090.878
5108.842
5126.737
5144.658
5162.642
5180.693
5198.809
5216.992
5235.282
5253.747
5272.471
5291.523
5310.939
5330.709
5350.779
5371.087
5391.58
5412.228
5433.011
5453.905
5474.888
5495.927
5516.973
5537.956
5558.768
5579.287
5599.367
5618.85
5637.572
5655.37
5672.085
5687.571
5701.699
5714.371
5725.525
5735.151
5743.285
5749.993
5755.389
5759.619
5762.842
5765.218
5766.898
5768.005
5768.605
5768.71
5768.276
5767.234
5765.512
5763.005
5759.642
5755.45
5750.546
5745.127
5739.36
5733.396
5727.182
5720.461
5712.964
5704.431
5694.65
5683.553
5671.316
5658.456
5645.866
5634.144
5623.766
5615.112
5608.45
5603.928
5601.479
5601.189
5603.356
5607.226
5612.285
5618.224
5623.942
5627.081
5626.509
5622.738
5616.595
5608.75
5599.76
5590.018
5579.912
5569.903
5560.5
5552.219
5545.485
5540.715
5538.316
5538.404
5541.507
5546.593
5552.654
5558.425
5563.354
5568.429
5575.798
5584.63
5593.216
5601.339
5609.78
5618.612
5627.411
5636.038
5644.329
5651.724
5657.963
5662.716
5665.914
5667.423
5667.327
5665.843
5663.351
5660.16
5656.588
5652.856
5649.017
5646.209
5643.473
5640.723
5640.017
5641.45
5645.116
5651.383
5660.323
5670.862
5681.551
5691.507
5702.26
5714.399
5727.026
5740.169
5754.465
5769.714
5785.645
5802.638
5820.037
5836.098
5849.514
5859.797
5868.556
5876.396
5883.478
5888.319
5890.987
5891.875
5891.211
5889.477
5886.727
5883.161
5879.28
5875.08
5870.342
5864.994
5858.944
5852.089
5844.612
5836.57
5827.772
5818.099
5807.531
5796.097
5783.864
5770.965
5757.637
5744.108
5730.599
5717.418
5704.928
5693.518
5683.601
5675.599
5669.901
5666.496
5666.005
5668.613
5674.367
5683.188
5694.843
5708.953
5725.027
5742.468
5760.574
5778.684
5796.238
5812.779
5827.943
5841.463
5853.223
5863.197
5871.442
5878.057
5883.112
5886.775
5889.218
5890.426
5890.444
5889.637
5888.374
5886.721
5884.688
5882.33
5879.703
5876.855
5873.826
5870.649
5867.353
5863.964
5860.507
5857.004
5853.473
5849.924
5846.365
5842.802
5839.237
5835.675
5832.114
5828.563
5825.031
5821.525
5818.048
5814.602
5811.187
5807.805
5804.455
5801.135
5797.846
5794.585
5791.351
5788.143
5784.957
5781.792
5778.647
5775.517
5772.402
5769.298
5766.203
5763.114
5760.031
5756.952
5753.876
5750.801
5747.727
5744.654
5741.582
5738.511
5735.441
5732.374
5729.311
5726.252
5723.198
5720.151
5717.113
5714.084
5711.066
5708.06
5705.067
5702.09
5699.127
5696.182
5693.254
5690.344
5687.454
5684.583
5681.732
5678.901
5676.092
5673.304
5670.537
5667.792
5665.069
5662.367
5659.687
5657.029
5654.392
5651.776
5649.18
5646.605
5644.048
5641.511
5638.991
5636.49
5634.005
5631.538
5629.089
5626.661
5624.256
5621.881
5619.545
5617.264
5615.057
5612.953
5610.988
5609.209
5607.662
5606.405
5605.47
5604.907
5604.686
2985.605
2930.94
2817.944
2778.499
2739.63
2703.073
2668.66
2635.916
2604.253
2573.4
2543.368
2512.47
2481.043
2448.826
2415.827
2381.85
2346.834
2310.702
2273.382
2235.285
2197.558
2159.47
2121.212
2083.028
2045.212
2007.571
1970.161
1933.795
1899.232
1867.095
1838.418
1814.737
1796.859
1784.965
1779.809
1782.377
1793.724
1814.751
1846.382
1889.37
1944.304
2011.612
2091.46
2183.757
2288.139
2404
2530.34
2666.318
2809.682
2958.542
3111.641
3268.44
3428.261
3588.684
3747.017
3900.072
4044.432
4176.301
4292.635
4390.886
4468.683
4523.82
4555.067
4561.494
4544.236
4505.51
4448.665
4377.187
4294.202
4202.101
4101.872
3995.939
3883.784
3765.271
3642.938
3518.824
3394.488
3271.502
3148.367
3025.867
2905.424
2789.8
2682.549
2586.97
2506.63
2442.726
2395.27
2365.538
2355.526
2364.986
2391.958
2432.248
2481.403
2537.269
2595.005
2647.299
2692.264
2730.504
2759.319
2773.648
2769.164