/*--------------------------------*- C++ -*----------------------------------*\
| =========                 |                                                 |
| \\      /  F ield         | foam-extend: Open Source CFD                    |
|  \\    /   O peration     | Version:     3.1                                |
|   \\  /    A nd           | Web:         http://www.extend-project.de       |
|    \\/     M anipulation  |                                                 |
\*---------------------------------------------------------------------------*/
FoamFile
{
    version     2.0;
    format      ascii;
    class       volScalarField;
    location    "12";
    object      pd;
}
// * * * * * * * * * * * * * * * * * * * * * * * * * * * * * * * * * * * * * //

dimensions      [1 -1 -2 0 0 0 0];

internalField   nonuniform List<scalar> 
119952
(
6390.978
5490.199
5383.506
5538.772
5689.756
5634.71
5650.406
5672.076
5707.471
5747.627
5792.39
5840.401
5890.405
5941.432
5992.656
6043.356
6092.888
6140.221
6181.662
6203.531
6353.257
6337.861
6363.463
6535.858
6559.621
6618.463
6661.648
6729.217
6865.663
7599.767
4409.334
4426.373
4458.681
4501.911
4549.81
4599.435
4650.454
4701.901
4752.596
4778.958
4831.714
4875.192
4913.733
4945.673
4973.413
4996.56
5015.203
5027.261
5038.671
5047.922
5047.453
5031.864
5024.257
5018.907
5013.184
5009.352
5008.304
5008.912
5018.022
5020.58
5030.179
5051.835
5076.478
5106.488
5141.494
5182.941
5235.003
5325.752
5475.324
5414.859
5448.341
5529.709
5590.224
5623.903
5643.362
5675.062
5713.15
5755.655
5801.913
5850.991
5901.758
5953.297
6004.899
6055.939
6105.859
6154.247
6201.452
6249.775
6304.27
6360.169
6406.221
6481.225
6565.557
6612.521
6654.062
6692.195
6702.207
6648.01
6666.82
6709.481
6743.374
6776.02
6806.653
6835.295
6862.464
6888.431
6913.373
6937.415
6960.656
6983.179
7005.112
7026.553
7047.602
7068.325
7088.787
7109.054
7129.178
7149.208
7169.208
7189.137
7209.015
7228.819
7248.532
7268.129
7287.58
7306.85
7325.897
7344.671
7363.117
7381.18
7398.8
7415.917
7432.472
7448.409
7463.675
7478.221
7492.007
7505.004
7517.162
7528.488
7538.978
7548.563
7557.188
7564.885
7571.575
7577.428
7583.497
7589.825
7594.91
7596.933
7598.271
7599.061
7599.002
7598.136
7596.514
7594.162
7591.134
7587.488
7583.285
7578.59
7573.463
7567.956
7562.115
7555.975
7549.564
7542.908
7536.042
7529.021
7521.909
7514.798
7507.802
7501.034
7494.613
7488.641
7483.208
7478.41
7474.317
7470.859
7468.222
7465.695
7463.532
7461.526
7459.48
7457.229
7454.684
7451.81
7448.63
7445.219
7441.77
7438.522
7435.506
7432.44
7427.228
7414.673
7401.095
7399.137
7404.173
7420.13
7422.411
7418.414
7421.56
7422.381
7423.91
7424.826
7425.627
7426.741
7428.56
7431.325
7434.993
7439.461
7444.469
7449.51
7454.524
7459.518
7464.557
7469.721
7474.912
7480.254
7485.776
7491.38
7497.108
7503.029
7509.249
7515.922
7523.254
7531.626
7541.34
7552.8
7567.116
7585.175
7608.1
7637.083
7678.458
7746.264
7611.011
7651.818
7665.284
7671.9
7684.947
7713.171
7730.887
7737.419
7738.89
7738.044
7734.871
7730.475
7726.896
7724.968
7724.359
7724.247
7723.911
7723.014
7721.506
7719.437
7716.867
7713.874
7710.506
7706.807
7702.703
7698.147
7693.098
7687.466
7681.188
7674.258
7666.592
7658.207
7648.896
7642.628
7629.392
7616.633
7605.15
7593.596
7582.295
7571.396
7561.165
7551.903
7543.933
7537.584
7533.138
7530.85
7530.93
7533.554
7538.765
7546.509
7556.622
7568.836
7582.78
7598.006
7614.025
7630.335
7646.454
7661.967
7676.541
7689.918
7701.912
7712.403
7721.336
7728.717
7734.601
7739.083
7742.285
7744.34
7745.373
7745.497
7744.823
7743.461
7741.521
7739.117
7736.357
7733.353
7730.219
7727.018
7723.493
7719.24
7714.69
7710.304
7706.007
7701.774
7697.631
7693.506
7688.68
7681.242
7679.273
7676.004
7672.059
7668.233
7664.418
7660.652
7656.961
7653.335
7649.771
7646.264
7642.809
7639.397
7636.02
7632.688
7629.391
7626.124
7622.883
7619.666
7616.467
7613.286
7610.119
7606.963
7603.817
7600.679
7597.548
7594.422
7591.303
7588.189
7585.078
7581.975
7578.876
7575.784
7572.699
7569.622
7566.555
7563.497
7560.451
7557.418
7554.397
7551.392
7548.402
7545.429
7542.473
7539.534
7536.615
7533.715
7530.834
7527.974
7525.133
7522.312
7519.511
7516.73
7513.969
7511.226
7508.502
7505.796
7503.107
7500.433
7497.773
7495.126
7492.489
7489.861
7487.237
7484.615
7481.99
7479.356
7476.709
7474.04
7471.341
7468.6
7465.801
7462.928
7459.957
7456.858
7453.592
7450.099
7446.284
7442.032
7437.125
7431.223
7424.016
7416.887
7419.743
7451.959
6090.803
5972.129
5829.907
5695.124
5564.713
5440.341
5323.328
5214.541
5117.098
5012.338
4939.09
4875.502
4821.535
4777.695
4745.583
4722.953
4707.997
4696.731
4694.098
4705.93
4694.761
4684.861
4678.279
4668.444
4653.736
4633.905
4608.803
4578.659
4546.945
4500.177
4461.442
4426.678
4396.302
4373.833
4361.305
4360.284
4371.933
4400.583
4417.94
4452.383
4502.273
4554.464
4607.91
4662.235
4715.756
4767.002
4813.741
4857.123
4900.159
4935.825
4964.159
4988.261
5007.452
5021.496
5031.154
5043.274
5023.369
5019.985
5020.033
5014.811
5006.39
4998.857
4994.254
4992.961
4994.837
4999.449
5009.791
5025.342
5044.768
5069.165
5100.221
5138.51
5185.42
5241.283
5303.275
5363.43
5407.752
5445.149
5491.738
5541.467
5586.088
5625.568
5665.405
5708.818
5756.25
5806.849
5859.512
5913.299
5967.481
6021.481
6074.853
6127.346
6179.022
6230.372
6282.23
6335.398
6389.778
6445.403
6502.927
6559.429
6607.451
6644.355
6670.305
6684.278
6691.214
6706.107
6731.896
6762.094
6792.16
6820.49
6847.203
6872.811
6897.595
6921.622
6944.904
6967.482
6989.507
7010.958
7031.993
7052.741
7073.217
7093.483
7113.609
7133.647
7153.632
7173.598
7193.55
7213.463
7233.326
7253.12
7272.817
7292.382
7311.778
7330.959
7349.872
7368.459
7386.655
7404.393
7421.605
7438.22
7454.173
7469.402
7483.853
7497.48
7510.242
7522.118
7533.075
7543.113
7552.196
7560.46
7567.795
7574.271
7580.019
7585.151
7589.648
7593.297
7595.858
7597.326
7597.841
7597.525
7596.447
7594.635
7592.11
7588.903
7585.066
7580.659
7575.747
7570.384
7564.611
7558.454
7551.935
7545.076
7537.907
7530.483
7522.883
7515.212
7507.611
7500.232
7493.219
7486.717
7480.859
7475.746
7471.422
7467.89
7465.188
7462.979
7461.68
7460.398
7458.999
7457.292
7455.117
7452.403
7449.121
7445.372
7441.255
7436.905
7432.375
7428.043
7422.617
7416.564
7410.042
7403.699
7401.745
7405.088
7409.99
7416.956
7419.168
7420.891
7423.301
7425.505
7427.604
7429.575
7431.661
7434.126
7437.086
7440.588
7444.573
7448.826
7453.147
7457.467
7461.78
7466.11
7470.362
7475.149
7479.703
7484.412
7489.26
7494.261
7499.48
7505.043
7511.138
7517.984
7525.913
7535.358
7546.706
7560.663
7577.769
7598.441
7622.298
7646.504
7660.431
7636.754
7649.592
7663.636
7681.375
7696.974
7718.223
7735.444
7744.204
7743.441
7740.442
7736.113
7731.293
7728.225
7726.668
7726.217
7726.065
7725.516
7724.409
7722.696
7720.468
7717.736
7714.624
7711.223
7707.508
7703.448
7698.985
7694.044
7688.54
7682.405
7675.587
7668.031
7659.713
7650.792
7639.702
7628.96
7616.956
7605.238
7593.687
7582.174
7570.931
7560.307
7550.64
7542.262
7535.498
7530.646
7528.023
7527.724
7529.992
7534.865
7542.293
7552.122
7564.089
7577.823
7592.862
7608.725
7624.882
7640.81
7656.137
7670.566
7683.847
7695.793
7706.285
7715.268
7722.743
7728.76
7733.408
7736.813
7739.1
7740.346
7740.672
7740.201
7739.042
7737.306
7735.102
7732.529
7729.669
7726.574
7723.252
7719.663
7715.77
7711.677
7707.548
7703.448
7699.381
7695.341
7691.297
7687.118
7682.505
7678.125
7674.342
7670.744
7667.054
7663.293
7659.554
7655.885
7652.285
7648.742
7645.252
7641.81
7638.414
7635.059
7631.74
7628.455
7625.201
7621.973
7618.768
7615.581
7612.41
7609.253
7606.107
7602.97
7599.841
7596.718
7593.6
7590.486
7587.377
7584.272
7581.172
7578.078
7574.986
7571.903
7568.828
7565.76
7562.703
7559.656
7556.621
7553.6
7550.592
7547.6
7544.624
7541.666
7538.725
7535.803
7532.9
7530.016
7527.153
7524.309
7521.486
7518.683
7515.9
7513.136
7510.392
7507.667
7504.96
7502.27
7499.597
7496.938
7494.292
7491.657
7489.031
7486.41
7483.793
7481.173
7478.547
7475.908
7473.251
7470.565
7467.842
7465.067
7462.228
7459.299
7456.266
7453.085
7449.736
7446.154
7442.348
7438.322
7434.406
7431.196
7429.925
7431.074
7435.17
4039.551
4080.163
4138.685
4211.834
4298.627
4398.549
4511.16
4636.145
4772.891
4919.361
5074.755
5240.247
5410.592
5585.542
5763.374
5941.653
6116.175
6285.296
6446.957
6614.423
6750.208
6870.997
6973.241
7054.635
7113.903
7149.993
7162.386
7151.291
7121.717
7068.873
6996.844
6908.268
6806.023
6692.256
6569.269
6439.405
6305.356
6169.999
6023.734
5888.528
5753.306
5621.425
5494.532
5373.725
5260.595
5156.601
5063.313
4980.051
4905.734
4844.781
4794.593
4755.108
4726.017
4706.187
4694.471
4694.429
4677.274
4676.51
4679.801
4679.607
4673.848
4662.751
4646.298
4623.795
4594.783
4559.25
4518.454
4475.702
4433.171
4393.494
4360.291
4336.799
4325.213
4326.754
4341.537
4368.579
4406.443
4451.885
4503.93
4561.476
4621.424
4681.583
4739.979
4795.957
4846.512
4892.936
4933.512
4967.693
4995.623
5017.146
5032.338
5041.192
5043.902
5040.536
5030.454
5021.041
5013.023
5002.791
4991.604
4982.29
4976.39
4974.043
4975.122
4980.113
4989.371
5002.959
5021.607
5046.224
5077.318
5115.159
5159.098
5208.474
5261.976
5317.611
5366.851
5408.96
5453.327
5502.362
5551.312
5597.317
5642.511
5690.232
5741.563
5795.865
5852.06
5909.224
5966.644
6023.777
6080.218
6135.739
6190.298
6244.064
6297.344
6350.614
6404.227
6457.027
6508.613
6558.456
6603.062
6638.9
6666.839
6688.307
6705.15
6722.834
6746.187
6773.721
6801.711
6828.403
6853.733
6878.137
6901.887
6925.027
6947.536
6969.457
6990.989
7012.072
7032.778
7053.201
7073.412
7093.474
7113.448
7133.385
7153.317
7173.266
7193.234
7213.206
7233.164
7253.084
7272.936
7292.686
7312.296
7331.718
7350.897
7369.773
7388.274
7406.324
7423.843
7440.751
7456.969
7472.422
7487.046
7500.783
7513.589
7525.433
7536.3
7546.192
7555.118
7563.1
7570.151
7576.337
7581.718
7586.366
7590.336
7593.556
7595.839
7597.102
7597.468
7597.062
7595.927
7594.064
7591.481
7588.207
7584.291
7579.792
7574.765
7569.259
7563.31
7556.916
7550.08
7542.818
7535.14
7527.106
7518.867
7510.566
7502.382
7494.517
7487.167
7480.497
7474.651
7469.746
7465.827
7462.891
7460.9
7459.657
7458.986
7458.415
7457.636
7456.306
7454.281
7451.46
7447.832
7443.484
7438.601
7433.32
7427.783
7422.143
7416.261
7410.808
7405.444
7401.382
7400.291
7402.066
7405.751
7408.669
7411.644
7414.928
7418.319
7421.813
7425.422
7429.179
7433.07
7437.28
7441.794
7446.503
7451.356
7456.034
7460.507
7464.722
7468.694
7472.476
7476.127
7479.888
7483.57
7487.296
7491.067
7494.917
7498.951
7503.317
7508.19
7513.806
7520.46
7528.432
7537.976
7549.293
7563.175
7578.407
7594.314
7606.342
7616.062
7621.844
7630.37
7643.916
7660.236
7679.549
7699.593
7712.563
7722.629
7729.777
7731.965
7734.191
7737.716
7738.306
7735.381
7731.918
7728.994
7726.915
7725.309
7723.605
7721.232
7718.287
7715.14
7711.773
7707.99
7703.84
7699.348
7694.397
7688.875
7682.732
7675.878
7668.271
7659.859
7650.97
7641.738
7630.953
7619.285
7607.546
7595.768
7583.908
7572.196
7560.984
7550.626
7541.468
7533.857
7528.135
7524.653
7523.48
7524.945
7529.087
7535.879
7545.195
7556.806
7570.331
7585.255
7601.134
7617.475
7633.646
7649.207
7663.894
7677.448
7689.665
7700.419
7709.649
7717.355
7723.579
7728.415
7732.02
7734.602
7736.21
7736.876
7736.684
7735.751
7734.215
7732.193
7729.777
7727.042
7724.042
7720.807
7717.35
7713.675
7709.824
7705.89
7701.946
7698.006
7694.069
7690.123
7686.211
7682.518
7678.754
7674.816
7670.832
7666.903
7663.061
7659.306
7655.636
7652.039
7648.505
7645.025
7641.595
7638.21
7634.865
7631.557
7628.283
7625.039
7621.821
7618.627
7615.45
7612.289
7609.142
7606.007
7602.88
7599.76
7596.647
7593.538
7590.432
7587.33
7584.231
7581.136
7578.044
7574.957
7571.877
7568.801
7565.733
7562.674
7559.625
7556.586
7553.56
7550.548
7547.55
7544.568
7541.602
7538.654
7535.724
7532.813
7529.921
7527.049
7524.197
7521.365
7518.554
7515.763
7512.992
7510.241
7507.509
7504.796
7502.101
7499.423
7496.761
7494.113
7491.478
7488.853
7486.236
7483.624
7481.014
7478.401
7475.779
7473.144
7470.488
7467.804
7465.08
7462.306
7459.469
7456.554
7453.547
7450.44
7447.237
7443.989
7440.809
7437.915
7435.598
7434.173
7434.107
7435.564
4049.329
4020.706
3997.33
3975.183
3958.19
3949.107
3950.715
3966.363
3993.209
4003.552
3999.475
4008.477
4035.26
4077.544
4134.672
4205.534
4289.462
4385.849
4494.852
4614.681
4745.744
4887.233
5037.589
5196.322
5361.108
5530.241
5702.043
5874.306
6045.137
6211.803
6371.372
6551.291
6691.612
6808.681
6906.589
6983.939
7038.568
7069.578
7077.1
7062.373
7027.26
6972.151
6898.221
6807.971
6704.081
6588.944
6464.988
6334.487
6200.03
6063.989
5928.212
5793.92
5661.661
5533.013
5409.424
5292.216
5182.8
5082.534
4992.535
4913.546
4845.829
4789.691
4745.391
4712.664
4690.615
4677.765
4672.313
4671.737
4672.885
4677.228
4682.664
4684.19
4680.24
4670.476
4654.059
4629.96
4597.317
4556.516
4509.597
4459.005
4407.996
4360.634
4320.895
4292.237
4277.262
4277.56
4293.586
4324.068
4366.631
4418.831
4479.187
4545.469
4614.46
4683.244
4749.616
4812.317
4869.689
4920.725
4964.926
5000.67
5028.537
5048.326
5060.023
5063.97
5060.326
5050.752
5037.121
5021.396
5005.503
4989.841
4975.465
4963.942
4956.109
4951.903
4951.206
4954.284
4961.505
4973.555
4991.134
5014.625
5044.059
5079.611
5120.778
5167.173
5216.904
5268.258
5317.531
5363.772
5410.472
5459.72
5509.981
5559.659
5609.642
5661.91
5717.389
5775.713
5835.964
5897.221
5958.706
6019.807
6080.052
6139.117
6196.827
6253.173
6308.279
6362.311
6415.231
6466.487
6515.657
6562.101
6604.137
6640.068
6670.112
6695.387
6717.114
6738.107
6761.253
6786.624
6812.468
6837.519
6861.535
6884.754
6907.392
6929.524
6951.169
6972.375
6993.224
7013.735
7033.958
7053.968
7073.835
7093.619
7113.377
7133.158
7152.994
7172.9
7192.876
7212.904
7232.96
7253.016
7273.044
7293.008
7312.87
7332.583
7352.092
7371.331
7390.224
7408.686
7426.626
7443.95
7460.563
7476.378
7491.313
7505.299
7518.281
7530.22
7541.093
7550.903
7559.652
7567.385
7574.144
7579.988
7584.982
7589.197
7592.677
7595.401
7597.298
7598.341
7598.574
7598.056
7596.811
7594.833
7592.126
7588.722
7584.669
7580.034
7574.877
7569.228
7563.127
7556.543
7549.437
7541.804
7533.658
7525.055
7516.126
7507.074
7498.168
7489.677
7481.85
7474.899
7468.99
7464.224
7460.643
7458.233
7456.948
7456.614
7456.911
7457.37
7457.592
7456.776
7454.828
7451.897
7447.881
7442.839
7436.988
7430.916
7424.641
7418.151
7411.858
7405.823
7400.992
7397.466
7396.013
7396.667
7398.895
7402.141
7406.073
7410.218
7414.491
7419.08
7424.046
7429.145
7434.351
7439.86
7445.559
7451.224
7456.752
7462.029
7467.006
7471.51
7475.523
7479.104
7482.353
7485.323
7487.992
7490.515
7492.897
7495.253
7497.705
7500.419
7503.553
7507.336
7512.099
7517.973
7525.102
7533.965
7544.679
7556.141
7566.537
7574.046
7583.024
7593.408
7606.879
7622.499
7638.359
7654.093
7671.411
7687.974
7702.056
7714.706
7726.089
7732.502
7732.325
7730.291
7730.58
7732.995
7734.949
7734.393
7732.071
7728.713
7724.916
7721.249
7717.677
7713.921
7709.913
7705.776
7701.44
7696.587
7691.088
7684.991
7678.221
7670.683
7662.37
7653.288
7643.39
7632.437
7620.747
7608.731
7596.519
7584.18
7571.942
7560.14
7549.132
7539.277
7530.944
7524.479
7520.166
7518.501
7519.459
7523.184
7529.671
7538.814
7550.432
7564.181
7579.432
7595.621
7612.289
7628.932
7645.114
7660.439
7674.553
7687.216
7698.292
7707.728
7715.54
7721.788
7726.58
7730.081
7732.46
7733.912
7734.652
7734.603
7733.734
7732.231
7730.238
7727.849
7725.139
7722.165
7718.967
7715.572
7711.999
7708.283
7704.484
7700.653
7696.813
7692.975
7689.155
7685.371
7681.627
7677.765
7673.837
7669.964
7666.185
7662.478
7658.826
7655.227
7651.682
7648.187
7644.739
7641.336
7637.973
7634.648
7631.357
7628.098
7624.866
7621.662
7618.479
7615.313
7612.163
7609.026
7605.901
7602.784
7599.675
7596.57
7593.47
7590.373
7587.278
7584.186
7581.097
7578.007
7574.926
7571.85
7568.775
7565.708
7562.649
7559.599
7556.559
7553.531
7550.516
7547.515
7544.528
7541.558
7538.605
7535.67
7532.753
7529.856
7526.978
7524.12
7521.282
7518.465
7515.669
7512.892
7510.136
7507.4
7504.684
7501.986
7499.306
7496.643
7493.997
7491.364
7488.744
7486.135
7483.534
7480.937
7478.343
7475.746
7473.142
7470.526
7467.892
7465.234
7462.546
7459.819
7457.052
7454.242
7451.402
7448.556
7445.768
7443.125
7440.774
7438.848
7437.575
7437.076
7437.462
4458.737
4423.436
4388.73
4352.787
4314.128
4272.598
4234.248
4196.016
4158.762
4122.452
4087.751
4055.774
4025.636
3998.642
3975.92
3957.467
3944.49
3940.04
3942.933
3949.676
3956.441
3967.479
3987.78
4020.082
4065.617
4123.741
4194.352
4278.834
4376.12
4485.801
4607.244
4739.606
4881.788
5032.536
5190.72
5355.188
5524.053
5695.766
5868.164
6038.353
6202.724
6359.305
6496.819
6630.053
6746.32
6844.163
6921.078
6974.918
7004.756
7010.715
6993.966
6956.42
6899.727
6825.36
6735.327
6631.975
6517.508
6394.45
6264.757
6130.793
5995.144
5858.565
5722.893
5590.812
5463.386
5341.2
5225.297
5117.157
5018.312
4930.145
4853.631
4789.183
4737.161
4697.781
4670.793
4655.305
4649.579
4651.696
4659.268
4669.676
4681.32
4691.847
4698.5
4699.382
4692.831
4677.215
4651.208
4613.605
4564.313
4506.027
4442.833
4379.016
4319.29
4268.51
4230.829
4209.347
4206.28
4222.07
4255.081
4303.306
4364.418
4435.414
4513.28
4594.504
4675.733
4754.29
4828.118
4895.309
4954.482
5004.272
5044.418
5073.438
5091.863
5100.075
5098.54
5087.893
5070.245
5048.163
5023.789
4999.238
4976.217
4956.263
4940.697
4929.887
4923.303
4920.234
4920.656
4925.565
4935.84
4951.732
4973.315
5000.761
5034.18
5073.23
5117.174
5164.633
5214.064
5263.655
5312.466
5361.343
5411.448
5462.848
5515.238
5569.122
5625.64
5685.44
5748.266
5813.288
5879.493
5945.931
6011.832
6076.605
6139.816
6201.188
6260.588
6317.989
6373.37
6426.633
6477.503
6525.588
6570.376
6611.149
6647.196
6678.53
6705.881
6730.278
6753.303
6776.562
6800.537
6824.631
6848.128
6870.778
6892.695
6914.068
6935.015
6955.601
6975.878
6995.897
7015.699
7035.326
7054.828
7074.263
7093.69
7113.169
7132.749
7152.462
7172.319
7192.308
7212.405
7232.579
7252.802
7273.044
7293.27
7313.445
7333.523
7353.449
7373.155
7392.557
7411.562
7430.062
7447.947
7465.104
7481.426
7496.811
7511.171
7524.432
7536.542
7547.465
7557.202
7565.766
7573.22
7579.618
7585.031
7589.546
7593.244
7596.187
7598.404
7599.893
7600.645
7600.668
7599.97
7598.563
7596.422
7593.537
7589.942
7585.698
7580.887
7575.59
7569.843
7563.631
7556.895
7549.561
7541.55
7532.846
7523.535
7513.767
7503.787
7493.973
7484.685
7476.217
7468.819
7462.709
7458.019
7454.769
7452.94
7452.503
7453.293
7454.918
7456.694
7457.929
7458.227
7456.694
7453.151
7447.85
7442.165
7436.275
7429.691
7422.289
7414.76
7407.619
7401.352
7395.921
7392.262
7390.649
7391.092
7393.331
7396.892
7401.17
7405.677
7410.307
7415.291
7420.917
7427.217
7433.845
7440.592
7447.491
7454.369
7460.901
7467.017
7472.92
7478.211
7482.751
7486.501
7489.551
7491.947
7493.741
7495.062
7495.919
7496.567
7497.195
7497.925
7498.877
7500.552
7503.147
7506.476
7511.311
7517.487
7525.371
7533.131
7522.232
7507.984
7535.904
7567.49
7585.656
7599.942
7613.946
7629.084
7646.278
7663.072
7678.208
7692.244
7703.707
7711.015
7716.746
7722.69
7728.369
7731.735
7732.675
7732.422
7732.025
7731.092
7729.013
7725.802
7721.673
7717.085
7712.559
7708.121
7703.48
7698.406
7692.854
7686.846
7680.153
7672.548
7664.068
7654.71
7644.506
7633.446
7621.665
7609.414
7596.817
7583.987
7571.195
7558.782
7547.117
7536.586
7527.577
7520.472
7515.633
7513.395
7513.912
7517.328
7523.646
7532.753
7544.428
7558.293
7573.833
7590.462
7607.6
7624.811
7641.655
7657.604
7672.268
7685.39
7696.828
7706.539
7714.555
7720.956
7725.84
7729.316
7731.485
7732.651
7733.145
7732.925
7731.971
7730.421
7728.404
7726.009
7723.305
7720.35
7717.186
7713.845
7710.354
7706.746
7703.06
7699.333
7695.59
7691.843
7688.102
7684.361
7680.612
7676.833
7673.06
7669.328
7665.646
7662.007
7658.408
7654.853
7651.343
7647.879
7644.458
7641.077
7637.735
7634.427
7631.153
7627.908
7624.691
7621.501
7618.335
7615.177
7612.033
7608.907
7605.792
7602.685
7599.585
7596.489
7593.398
7590.308
7587.221
7584.136
7581.051
7577.969
7574.892
7571.818
7568.748
7565.683
7562.625
7559.576
7556.536
7553.507
7550.49
7547.486
7544.497
7541.523
7538.567
7535.627
7532.706
7529.803
7526.921
7524.058
7521.215
7518.393
7515.591
7512.81
7510.05
7507.31
7504.59
7501.891
7499.21
7496.548
7493.904
7491.275
7488.662
7486.062
7483.474
7480.895
7478.323
7475.755
7473.188
7470.619
7468.044
7465.46
7462.865
7460.258
7457.642
7455.026
7452.428
7449.88
7447.436
7445.164
7443.162
7441.529
7440.39
7439.794
7439.785
4814.589
4773.634
4736.614
4699.917
4667.124
4629.742
4596.97
4564.025
4530.491
4496.319
4461.941
4427.561
4391.524
4355.147
4316.679
4273.008
4234.482
4196.627
4159.37
4123.028
4087.863
4054.632
4023.598
3995.106
3970.072
3949.768
3934.122
3923.947
3919.249
3919.348
3924.343
3936.567
3958.023
3990.141
4033.693
4090.054
4159.676
4242.259
4337.666
4445.478
4565.022
4695.441
4835.717
4984.62
5140.827
5303.121
5469.376
5637.347
5805.575
5972.322
6134.557
6290.315
6433.823
6564.74
6678.793
6773.494
6846.441
6895.817
6920.751
6921.57
6899.682
6857.278
6796.654
6719.857
6629.069
6525.975
6412.676
6291.713
6164.824
6033.171
5898.438
5762.354
5627.772
5497.42
5371.747
5250.902
5136.045
5028.973
4931.512
4845.547
4772.397
4712.507
4666.098
4633.574
4614.915
4609.23
4614.665
4628.087
4647.36
4669.811
4691.856
4710.903
4725.164
4732.504
4730.003
4715.081
4685.676
4639.515
4576.758
4501.406
4419.137
4335.905
4257.922
4191.192
4140.871
4110.642
4103.538
4119.862
4156.656
4212.527
4285.786
4371.979
4466.835
4565.703
4664.376
4759.506
4848.487
4929.231
4999.836
5058.665
5104.297
5135.543
5152.508
5155.737
5146.069
5124.883
5095.119
5060.521
5023.995
4988.153
4956.036
4929.819
4910.306
4896.564
4887.141
4881.265
4878.669
4880.768
4888.783
4902.784
4922.624
4948.153
4979.322
5016.011
5058.384
5105.174
5154.654
5205.274
5255.995
5306.682
5357.887
5410.289
5464.545
5521.429
5581.872
5646.258
5714.249
5784.935
5857.058
5929.382
6000.924
6070.951
6138.922
6204.477
6267.403
6327.585
6384.938
6439.362
6490.67
6538.594
6582.847
6623.157
6659.288
6691.328
6719.82
6745.574
6769.583
6792.815
6815.77
6838.363
6860.29
6881.414
6901.834
6921.742
6941.305
6960.64
6979.815
6998.877
7017.855
7036.774
7055.665
7074.575
7093.565
7112.702
7132.041
7151.614
7171.423
7191.442
7211.631
7231.952
7252.375
7272.87
7293.41
7313.961
7334.482
7354.92
7375.202
7395.239
7414.922
7434.129
7452.728
7470.582
7487.56
7503.534
7518.39
7532.031
7544.383
7555.403
7565.076
7573.442
7580.557
7586.505
7591.387
7595.318
7598.408
7600.76
7602.447
7603.504
7603.934
7603.716
7602.819
7601.225
7598.891
7595.787
7591.935
7587.418
7582.359
7576.872
7571.03
7564.77
7557.985
7550.512
7542.206
7532.958
7522.793
7511.929
7500.724
7489.709
7479.371
7470.082
7462.131
7455.76
7451.119
7448.18
7446.775
7446.549
7447.596
7451.089
7455.747
7458.851
7459.338
7456.053
7452.758
7449.962
7445.179
7437.833
7429.426
7420.677
7412.005
7403.827
7396.587
7390.683
7386.528
7384.607
7384.949
7387.463
7391.517
7396.411
7401.454
7406.369
7411.663
7418.101
7425.412
7432.869
7440.321
7448.036
7455.772
7463.605
7471.457
7478.675
7485.155
7490.564
7494.724
7497.649
7499.403
7500.128
7499.969
7499.209
7498.116
7496.741
7495.275
7493.815
7493.368
7493.406
7493.684
7495.98
7499.667
7505.244
7509.919
7474.718
7454.718
7468.208
7523.449
7560.425
7576.152
7589.508
7604
7619.846
7635.966
7651.484
7666.554
7680.341
7691.306
7701.635
7711.485
7719.534
7724.953
7728.769
7731.144
7732.135
7731.529
7729.57
7727.102
7724.228
7720.708
7716.562
7711.763
7706.431
7700.888
7695.095
7688.809
7681.844
7674.075
7665.464
7655.982
7645.64
7634.443
7622.462
7609.869
7596.85
7583.591
7570.351
7557.46
7545.288
7534.23
7524.686
7517.054
7511.702
7508.901
7508.929
7511.965
7518.043
7527.055
7538.707
7552.574
7568.306
7585.427
7603.22
7621.055
7638.399
7654.771
7669.794
7683.216
7694.901
7704.809
7712.98
7719.503
7724.49
7728.075
7730.389
7731.604
7731.841
7731.249
7730.088
7728.455
7726.407
7724.011
7721.328
7718.41
7715.298
7712.027
7708.624
7705.12
7701.544
7697.924
7694.28
7690.625
7686.965
7683.299
7679.633
7675.969
7672.313
7668.674
7665.063
7661.484
7657.941
7654.435
7650.969
7647.542
7644.153
7640.801
7637.482
7634.196
7630.941
7627.712
7624.509
7621.33
7618.176
7615.029
7611.899
7608.787
7605.682
7602.585
7599.494
7596.407
7593.324
7590.242
7587.162
7584.083
7581.005
7577.929
7574.855
7571.785
7568.718
7565.656
7562.6
7559.552
7556.512
7553.483
7550.465
7547.46
7544.468
7541.492
7538.532
7535.59
7532.665
7529.758
7526.871
7524.004
7521.157
7518.33
7515.524
7512.739
7509.976
7507.233
7504.511
7501.81
7499.13
7496.469
7493.828
7491.205
7488.6
7486.012
7483.439
7480.88
7478.334
7475.798
7473.271
7470.752
7468.24
7465.734
7463.235
7460.747
7458.277
7455.838
7453.451
7451.146
7448.969
7446.975
7445.231
7443.815
7442.787
7442.197
7442.04
4987.304
4976.047
4941.881
4896.796
4850.607
4808.349
4769.101
4732.689
4698.683
4664.619
4626.767
4594.237
4561.852
4528.968
4495.368
4461.072
4426.004
4389.903
4352.876
4315.566
4278.849
4240.86
4202.938
4165.275
4128.308
4092.225
4057.421
4024.268
3992.897
3963.888
3938.455
3918.154
3903.138
3893.434
3889.748
3893.188
3905.129
3926.699
3958.868
4002.545
4058.358
4126.841
4208.04
4301.877
4407.972
4525.674
4654.114
4792.411
4939.166
5092.804
5251.381
5413.4
5577.183
5741.376
5904.47
6063.461
6214.969
6354.773
6480.024
6588.065
6676.134
6741.833
6783.618
6800.583
6793.467
6763.91
6714.771
6648.713
6568.324
6476.705
6374.985
6264.986
6147.789
6024.155
5895.908
5764.447
5632.336
5502.424
5375.756
5252.569
5132.973
5018.679
4912.337
4816.151
4732.624
4663.665
4609.845
4571.261
4548.422
4541.48
4549.723
4570.573
4599.894
4635.133
4673.306
4709.415
4740.554
4765.514
4781.966
4786.223
4774.121
4741.447
4683.372
4600.99
4502.46
4394.675
4284.425
4180.887
4091.728
4023.191
3980.117
3967.536
3986.12
4028.79
4094.644
4182.193
4287.823
4405.652
4528.521
4650.447
4767.206
4875.728
4973.799
5059.263
5129.481
5182.362
5216.803
5232.425
5229.831
5209.589
5173.57
5127.201
5076.739
5025.224
4974.829
4930.459
4895.661
4872.257
4857.535
4846.596
4837.233
4829.688
4828.525
4834.579
4846.813
4865.094
4889.255
4917.867
4951.499
4992.898
5040.239
5091.127
5143.713
5196.682
5249.155
5301.026
5353.394
5407.891
5466.47
5530.305
5599.496
5673.415
5750.819
5830.003
5909.316
5987.483
6063.603
6137.029
6207.34
6274.297
6337.773
6397.684
6453.935
6506.385
6554.875
6599.283
6639.572
6675.784
6708.144
6737.132
6763.398
6787.652
6810.55
6832.519
6853.666
6873.94
6893.348
6912.041
6930.253
6948.217
6966.112
6984.033
7002.016
7020.068
7038.184
7056.367
7074.657
7093.122
7111.846
7130.898
7150.314
7170.084
7190.154
7210.462
7230.955
7251.603
7272.386
7293.28
7314.263
7335.302
7356.348
7377.331
7398.143
7418.662
7438.742
7458.225
7476.947
7494.745
7511.46
7526.946
7541.074
7553.746
7564.9
7574.525
7582.66
7589.368
7594.764
7598.994
7602.217
7604.593
7606.273
7607.38
7607.98
7608.085
7607.651
7606.609
7604.887
7602.38
7599.017
7594.825
7589.921
7584.502
7578.735
7572.771
7566.557
7559.836
7552.339
7543.806
7534.025
7522.928
7510.688
7497.823
7485.227
7473.498
7463.108
7454.454
7447.801
7443.275
7440.593
7436.487
7428.133
7432.995
7445.727
7452.593
7452.472
7455.428
7461.388
7461.376
7455.924
7448.124
7439.135
7429.393
7419.287
7409.278
7399.875
7391.593
7384.859
7380.087
7377.686
7377.772
7380.874
7385.959
7392.017
7397.778
7402.683
7407.685
7414.793
7422.712
7430.443
7439.375
7448.864
7457.97
7466.781
7475.408
7483.689
7491.023
7497.181
7501.992
7505.269
7506.778
7506.586
7504.88
7502.521
7499.48
7495.958
7492.229
7488.388
7485.561
7482.767
7479.999
7479.328
7480.788
7484.278
7486.039
7437.513
7422.177
7432.866
7494.246
7537.369
7553.68
7566.4
7579.531
7593.729
7608.626
7623.476
7637.336
7651.992
7671.001
7688.028
7699.121
7707.931
7715.771
7722.853
7727.693
7730.353
7731.216
7730.545
7728.829
7726.098
7722.536
7718.655
7714.455
7709.717
7704.369
7698.319
7691.464
7683.987
7675.945
7667.147
7657.474
7646.907
7635.472
7623.239
7610.34
7597.012
7583.483
7569.974
7556.793
7544.303
7532.894
7522.976
7514.974
7509.276
7505.871
7505.38
7507.988
7513.742
7522.563
7534.218
7548.328
7564.402
7581.843
7599.949
7618.059
7635.613
7652.154
7667.318
7680.837
7692.596
7702.571
7710.816
7717.432
7722.487
7726.15
7728.593
7729.8
7729.819
7729.012
7727.749
7726.096
7724.063
7721.705
7719.078
7716.23
7713.201
7710.024
7706.728
7703.339
7699.882
7696.379
7692.848
7689.299
7685.74
7682.176
7678.612
7675.049
7671.489
7667.938
7664.406
7660.9
7657.423
7653.977
7650.562
7647.18
7643.83
7640.51
7637.221
7633.96
7630.726
7627.518
7624.332
7621.167
7618.022
7614.892
7611.777
7608.673
7605.578
7602.489
7599.406
7596.327
7593.251
7590.176
7587.102
7584.029
7580.957
7577.886
7574.816
7571.749
7568.686
7565.627
7562.573
7559.526
7556.488
7553.459
7550.441
7547.435
7544.442
7541.465
7538.502
7535.557
7532.629
7529.719
7526.829
7523.958
7521.107
7518.276
7515.467
7512.679
7509.912
7507.167
7504.444
7501.742
7499.062
7496.404
7493.767
7491.151
7488.555
7485.98
7483.423
7480.886
7478.366
7475.865
7473.38
7470.913
7468.464
7466.036
7463.631
7461.256
7458.92
7456.639
7454.432
7452.328
7450.363
7448.584
7447.037
7445.78
7444.845
7444.282
7444.061
4978.258
4954.253
4902.569
4863.124
4824.255
4787.698
4753.285
4720.541
4688.878
4658.025
4627.993
4597.095
4565.668
4533.451
4500.452
4466.475
4431.459
4395.327
4358.007
4319.91
4282.183
4244.095
4205.837
4167.653
4129.837
4092.196
4054.786
4018.42
3983.857
3951.72
3923.043
3899.362
3881.484
3869.59
3864.434
3867.002
3878.349
3899.376
3931.007
3973.995
4028.929
4096.237
4176.085
4268.382
4372.764
4488.625
4614.965
4750.943
4894.307
5043.167
5196.266
5353.065
5512.886
5673.309
5831.642
5984.697
6129.057
6260.926
6377.26
6475.511
6553.308
6608.445
6639.691
6646.119
6628.861
6590.135
6533.29
6461.812
6378.827
6286.726
6186.497
6080.564
5968.409
5849.896
5727.563
5603.449
5479.113
5356.127
5232.992
5110.492
4990.049
4874.425
4767.174
4671.595
4591.255
4527.351
4479.895
4450.163
4440.151
4449.611
4476.583
4516.873
4566.028
4621.894
4679.63
4731.924
4776.889
4815.129