/*--------------------------------*- C++ -*----------------------------------*\
| =========                 |                                                 |
| \\      /  F ield         | foam-extend: Open Source CFD                    |
|  \\    /   O peration     | Version:     3.1                                |
|   \\  /    A nd           | Web:         http://www.extend-project.de       |
|    \\/     M anipulation  |                                                 |
\*---------------------------------------------------------------------------*/
FoamFile
{
    version     2.0;
    format      ascii;
    class       volScalarField;
    location    "2.5";
    object      k;
}
// * * * * * * * * * * * * * * * * * * * * * * * * * * * * * * * * * * * * * //

dimensions      [0 2 -2 0 0 0 0];

internalField   nonuniform List<scalar> 
119952
(
0.01139456
0.01062803
0.01042468
0.01020485
0.009983034
0.009784606
0.009734681
0.009759435
0.009822222
0.009903898
0.009991762
0.01007801
0.01015794
0.01022896
0.01029073
0.01034278
0.01038613
0.01042368
0.01046484
0.01055337
0.01089941
0.01065843
0.01066654
0.01106872
0.01074438
0.01057542
0.01043303
0.01029084
0.009970557
0.01181188
0.01469333
0.01457446
0.01418195
0.01383866
0.01360682
0.01347631
0.01342297
0.0134213
0.01345472
0.01351123
0.01246639
0.01227776
0.01252257
0.01297107
0.01350775
0.01407944
0.01465835
0.01523157
0.01577936
0.01818083
0.01855055
0.0188838
0.01921846
0.01957309
0.01995783
0.02037085
0.02080866
0.02126064
0.02173525
0.02221031
0.02263736
0.02304323
0.02343928
0.02383266
0.02422857
0.02463057
0.02504337
0.02551662
0.02615692
0.02635304
0.02652625
0.02675753
0.02695153
0.02706298
0.0271151
0.02715853
0.0272057
0.02726029
0.02732372
0.02739565
0.02747477
0.02755936
0.02764775
0.02773855
0.02783099
0.02792581
0.02802732
0.02815117
0.02832485
0.02849706
0.02867563
0.02897986
0.02930927
0.02952191
0.02964811
0.02970943
0.02960095
0.02917989
0.02899043
0.02888044
0.02880372
0.0287339
0.02866571
0.02859932
0.02853628
0.02847852
0.02842747
0.0283839
0.02834775
0.02831887
0.02829733
0.02828315
0.02827583
0.02827437
0.02827767
0.02828479
0.02829503
0.02830781
0.02832263
0.02833897
0.02835635
0.02837432
0.02839248
0.02841052
0.0284282
0.02844537
0.02846191
0.02847774
0.02849278
0.02850697
0.02852024
0.02853251
0.02854372
0.0285538
0.02856269
0.02857032
0.02857664
0.02858158
0.02858509
0.02858712
0.02858761
0.02858653
0.02858383
0.02857954
0.0285738
0.02856752
0.02856795
0.02859075
0.02859418
0.0285562
0.02847991
0.02837623
0.02825569
0.02812688
0.02799603
0.02786723
0.02774304
0.02762496
0.0275137
0.02740939
0.02731178
0.02722038
0.02713458
0.02705372
0.02697713
0.02690414
0.02683413
0.02676654
0.02670085
0.0266366
0.02657341
0.02651091
0.02644883
0.02638692
0.02632499
0.02626289
0.02620049
0.02613766
0.02607433
0.02601041
0.02594583
0.02588055
0.02581447
0.02574759
0.0256798
0.02561114
0.0255415
0.02547092
0.02539935
0.02532683
0.02525339
0.02517905
0.02510393
0.02502806
0.02495189
0.02487596
0.02481058
0.02361483
0.02196338
0.02126445
0.02080845
0.02043434
0.02010628
0.01981459
0.01955418
0.01932066
0.01910982
0.01891792
0.01874165
0.01857825
0.01842543
0.01828136
0.01814454
0.0180138
0.01788817
0.01776689
0.01764931
0.01753493
0.01742332
0.01731416
0.01720716
0.01710215
0.01699898
0.0168976
0.01679796
0.01670012
0.01660427
0.01651075
0.01642018
0.01633367
0.01625354
0.01618579
0.01617615
0.01639013
0.01663292
0.01686092
0.01706834
0.01725437
0.01742152
0.017573
0.01771174
0.01784039
0.017961
0.0180752
0.01818422
0.01828907
0.01839048
0.01848904
0.01858518
0.01867923
0.01877147
0.01886211
0.01895131
0.01903921
0.01912593
0.01921154
0.01929614
0.01937978
0.01946251
0.01954435
0.01962531
0.01970541
0.01978467
0.01986309
0.0199407
0.02001787
0.02009318
0.02304897
0.02306203
0.0230584
0.02308259
0.02315731
0.02328525
0.02345744
0.02366038
0.02388037
0.02410595
0.02432875
0.02454335
0.0247467
0.0249375
0.02511556
0.02528136
0.02543578
0.02557982
0.02571456
0.02584102
0.02596018
0.02607289
0.02617995
0.02628205
0.02637982
0.02647379
0.02656442
0.02665211
0.02673723
0.02682006
0.02690087
0.02697988
0.02705726
0.02713318
0.02720775
0.02728107
0.02735323
0.02742425
0.02749417
0.02756298
0.02763062
0.02769695
0.02776172
0.02782446
0.02788439
0.02793832
0.02798131
0.02801904
0.02805473
0.0280891
0.02812285
0.02815629
0.02818915
0.02823321
0.0282464
0.02820756
0.02816647
0.0281363
0.02812739
0.02814583
0.02819266
0.02826486
0.02835728
0.02846374
0.02857837
0.02869624
0.02881365
0.02892803
0.02903781
0.02914216
0.02924079
0.02933375
0.02942134
0.02950395
0.02958206
0.02965611
0.02972657
0.02979386
0.02985834
0.02992035
0.0299802
0.03003812
0.03009436
0.03014909
0.03020248
0.03025466
0.03030576
0.03035587
0.03040506
0.03045341
0.03050097
0.03054778
0.03059387
0.03063927
0.03068401
0.03072808
0.03077151
0.03081431
0.03085647
0.03089802
0.03093894
0.03097927
0.031019
0.03105815
0.03109674
0.03113478
0.03117229
0.03120931
0.03124587
0.03128199
0.03131772
0.0313531
0.03138816
0.03142297
0.03145756
0.031492
0.03152635
0.03156067
0.03159504
0.03162953
0.03166423
0.03169924
0.03173468
0.03177068
0.0318074
0.03184505
0.03188387
0.03192417
0.03196638
0.03201106
0.03205903
0.03211149
0.03217023
0.03223821
0.03232069
0.03242812
0.03258414
0.03288253
0.03335118
0.01781704
0.01680147
0.01627012
0.01605789
0.01604245
0.01613277
0.01627555
0.01643661
0.01660682
0.01614551
0.01600334
0.01649665
0.01726304
0.01811763
0.01898245
0.01981066
0.02059463
0.02132733
0.02469892
0.02510039
0.02547168
0.02580207
0.02612589
0.02645541
0.02678856
0.02711598
0.02742719
0.02770335
0.02796675
0.02815097
0.02826355
0.02833007
0.02836601
0.02838335
0.02839105
0.02839516
0.02840135
0.02843311
0.02843988
0.0284232
0.02841326
0.02841649
0.02843813
0.0284831
0.02855395
0.02865185
0.02877878
0.0289306
0.02910362
0.02929928
0.02951252
0.02974121
0.02998468
0.03024234
0.0305142
0.03079962
0.03384092
0.03412655
0.03442469
0.03472934
0.03503702
0.03534576
0.03565432
0.03596269
0.03626982
0.03657553
0.03688116
0.03718627
0.0374897
0.03779107
0.03809029
0.03838742
0.03868454
0.03898517
0.03929491
0.03956628
0.03979044
0.0400151
0.04023597
0.04043485
0.04060703
0.04075401
0.04088403
0.04100174
0.04111054
0.04121297
0.04131088
0.04140575
0.04149878
0.04159112
0.04168404
0.04177933
0.04188014
0.04199153
0.04212069
0.04226686
0.04242596
0.042616
0.04282847
0.04300951
0.04314121
0.04322768
0.04324751
0.04320145
0.04316169
0.0431698
0.043202
0.04324624
0.04329413
0.04334164
0.04338681
0.04342884
0.04346774
0.04350391
0.04353795
0.04357059
0.04360263
0.04363489
0.0436681
0.04370279
0.04373929
0.0437778
0.0438184
0.0438611
0.04390579
0.04395231
0.04400043
0.04404984
0.04410024
0.0441513
0.04420274
0.04425429
0.04430571
0.0443568
0.0444074
0.04445733
0.04450647
0.04455469
0.04460187
0.04464789
0.04469266
0.04473609
0.04477809
0.04481857
0.04485746
0.04489468
0.04493017
0.04496387
0.04499574
0.04502578
0.04505406
0.04508088
0.04510685
0.0451331
0.04515915
0.04518629
0.04521266
0.04523559
0.04525277
0.04526277
0.04526509
0.04525995
0.0452481
0.04523055
0.04520844
0.04518287
0.04515481
0.04512508
0.04509434
0.04506307
0.04503161
0.04500018
0.04496888
0.04493776
0.04490677
0.04487585
0.04484489
0.04481381
0.04478249
0.04475082
0.04471871
0.04468608
0.04465287
0.044619
0.04458445
0.04454917
0.04451313
0.0444763
0.04443866
0.04440019
0.04436087
0.04432068
0.0442796
0.04423765
0.04419483
0.04415115
0.04410664
0.04406137
0.04401541
0.04396889
0.04392196
0.04387501
0.04382844
0.04378363
0.04197094
0.04098533
0.04064799
0.04049313
0.04038723
0.04029163
0.04019563
0.040097
0.0399961
0.03989395
0.03979157
0.03968981
0.0395893
0.03949045
0.03939354
0.0392987
0.039206
0.03911543
0.03902694
0.03894046
0.03885591
0.0387732
0.03869227
0.03861303
0.03853549
0.03845962
0.03838546
0.03831311
0.03824276
0.03817473
0.03810964
0.03804872
0.03799407
0.03794949
0.03792467
0.0379187
0.03793582
0.03796867
0.03801059
0.03805835
0.03810995
0.03816403
0.03821957
0.03827578
0.03833206
0.038388
0.0384433
0.03849777
0.03855129
0.03860381
0.03865531
0.03870579
0.03875528
0.0388038
0.0388514
0.0388981
0.03894394
0.03898896
0.03903318
0.03907663
0.03911933
0.03916128
0.0392025
0.03924298
0.03928273
0.03932171
0.03935989
0.03939722
0.03943343
0.03946444
0.04243694
0.04252618
0.04258991
0.04263372
0.04266395
0.04268641
0.04270569
0.04272522
0.04274733
0.04277339
0.042804
0.04283925
0.04287882
0.04292219
0.04296871
0.04301775
0.04306869
0.04312098
0.04317417
0.04322788
0.0432818
0.0433357
0.04338942
0.04344285
0.04349591
0.04354856
0.04360078
0.04365258
0.04370396
0.04375493
0.04380553
0.04385577
0.04390565
0.0439552
0.04400441
0.04405327
0.04410177
0.04414987
0.04419753
0.04424467
0.04429118
0.04433694
0.04438175
0.04442532
0.04446716
0.04450638
0.04454263
0.04457664
0.04460902
0.04464004
0.04466989
0.04469859
0.04472664
0.04475416
0.04477768
0.04479683
0.04481281
0.04482587
0.04483657
0.04484587
0.04485493
0.04486497
0.04487706
0.04489197
0.04491016
0.04493181
0.04495685
0.04498502
0.04501597
0.0450493
0.0450846
0.04512148
0.04515957
0.04519857
0.04523823
0.04527832
0.04531868
0.04535919
0.04539972
0.04544021
0.04548059
0.04552083
0.04556088
0.04560072
0.04564032
0.04567968
0.04571877
0.04575757
0.04579608
0.04583425
0.04587209
0.04590956
0.04594664
0.04598331
0.04601954
0.04605532
0.04609063
0.04612543
0.04615973
0.0461935
0.04622674
0.04625945
0.04629163
0.04632326
0.04635436
0.04638493
0.04641499
0.04644455
0.04647365
0.04650232
0.04653058
0.04655848
0.04658607
0.04661341
0.04664054
0.04666754
0.04669446
0.0467214
0.04674842
0.04677563
0.04680312
0.04683102
0.04685945
0.04688857
0.04691857
0.04694967
0.04698214
0.04701632
0.04705266
0.04709174
0.04713435
0.04718158
0.04723492
0.04729652
0.04736953
0.04745889
0.04757465
0.04772719
0.04787782
0.0369141
0.03939262
0.04204412
0.04429514
0.04617994
0.04761895
0.04871314
0.04949049
0.05002116
0.0512727
0.06491318
0.07356603
0.07721321
0.07838793
0.07830246
0.07757215
0.07649973
0.07521485
0.07374602
0.08122741
0.07914144
0.07702706
0.07500257
0.07307326
0.07120081
0.06935711
0.06753166
0.06571981
0.06395308
0.06216559
0.06033124
0.05854527
0.05684802
0.05525586
0.05377016
0.05238648
0.05109809
0.04992086
0.04877967
0.04764027
0.04656691
0.04558005
0.04468122
0.04387387
0.04315866
0.04253482
0.04200148
0.0415575
0.04118302
0.04088855
0.04066344
0.04050215
0.04040285
0.0403623
0.04037599
0.04043626
0.04346763
0.04356221
0.04367251
0.04378899
0.04390085
0.04399994
0.04408032
0.04413727
0.04416758
0.04416746
0.04413528
0.04407255
0.04397974
0.04385836
0.04371215
0.04354574
0.04336432
0.04317361
0.04297918
0.04278619
0.04260131
0.04243113
0.04227902
0.04214732
0.04203837
0.04195388
0.04189513
0.04186244
0.04185654
0.04187785
0.04192492
0.04199704
0.04209341
0.04221275
0.04235347
0.04251403
0.04269288
0.04289609
0.04307817
0.04327794
0.04349266
0.04372017
0.04395825
0.04420469
0.04445751
0.04471515
0.04497585
0.04523899
0.04550357
0.04576847
0.04603329
0.04629768
0.0465612
0.04682341
0.04708442
0.04734328
0.0475975
0.04782987
0.04804203
0.04824717
0.04845114
0.04864332
0.04880902
0.04895459
0.04908614
0.04920741
0.04932078
0.04942802
0.04953053
0.04962952
0.04972612
0.04982152
0.04991716
0.05001491
0.05011744
0.05022814
0.05035093
0.05048562
0.05063089
0.0507918
0.05095721
0.05110107
0.05121115
0.05128458
0.05131667
0.05131305
0.05131415
0.05134377
0.05139677
0.05146234
0.05153503
0.05161122
0.05168846
0.05176506
0.05184003
0.05191281
0.05198322
0.05205131
0.05211735
0.05218172
0.05224486
0.05230718
0.05236907
0.05243085
0.05249278
0.05255507
0.05261786
0.0526812
0.05274509
0.05280944
0.05287414
0.05293903
0.05300396
0.05306877
0.0531333
0.0531974
0.05326093
0.05332376
0.05338578
0.05344685
0.05350688
0.05356574
0.05362334
0.05367958
0.05373436
0.05378759
0.0538392
0.05388909
0.05393721
0.05398347
0.05402786
0.05407034
0.05411098
0.05414992
0.05418737
0.05422355
0.05425808
0.05429138
0.05432359
0.0543543
0.05438282
0.05440838
0.05443041
0.05444849
0.05446248
0.05447246
0.05447869
0.05448153
0.05448141
0.05447873
0.0544739
0.05446724
0.05445904
0.05444951
0.05443883
0.05442709
0.05441436
0.05440065
0.05438599
0.05437034
0.05435369
0.05433601
0.05431726
0.05429744
0.05427651
0.05425451
0.0542314
0.05420719
0.05418189
0.05415551
0.05412804
0.05409949
0.05406988
0.0540392
0.05400749
0.05397476
0.05394103
0.05390636
0.05387078
0.05383436
0.05379721
0.05375942
0.05372111
0.05368228
0.05364191
0.05359235
0.05348897
0.05346873
0.05346084
0.05344906
0.05343078
0.0534062
0.05337591
0.05334046
0.05330044
0.05325634
0.05320869
0.05315802
0.05310482
0.05304956
0.05299267
0.05293452
0.05287548
0.05281586
0.05275589
0.05269566
0.05263534
0.05257508
0.05251505
0.05245543
0.05239637
0.05233807
0.05228075
0.05222472
0.05217037
0.0521182
0.05206876
0.052022
0.05197882
0.05194084
0.0519096
0.0518868
0.05187275
0.05186595
0.05186477
0.05186796
0.05187462
0.05188409
0.05189591
0.05190973
0.05192527
0.0519423
0.05196062
0.05198007
0.05200048
0.05202172
0.05204366
0.0520662
0.05208923
0.05211267
0.05213643
0.05216044
0.05218462
0.05220892
0.05223328
0.05225763
0.05228192
0.0523061
0.05233012
0.05235392
0.05237745
0.05240066
0.05242351
0.05244612
0.05246987
0.05250376
0.05247856
0.05246924
0.05246859
0.05247237
0.05247806
0.05248426
0.05249049
0.05249685
0.05250372
0.05251156
0.05252079
0.05253174
0.05254463
0.05255958
0.05257659
0.0525956
0.05261651
0.05263916
0.0526634
0.05268906
0.052716
0.05274407
0.05277315
0.05280315
0.05283396
0.05286552
0.05289777
0.05293066
0.05296414
0.05299819
0.05303276
0.05306782
0.05310334
0.05313928
0.0531756
0.05321223
0.05324913
0.05328623
0.05332344
0.05336066
0.05339779
0.05343468
0.05347116
0.05350702
0.05354197
0.05357563
0.05360778
0.05363854
0.05366815
0.05369674
0.0537244
0.05375116
0.05377708
0.05380209
0.05382552
0.05384711
0.05386704
0.05388531
0.05390194
0.05391707
0.05393094
0.05394389
0.0539563
0.05396861
0.05398119
0.05399442
0.05400855
0.05402381
0.05404033
0.05405818
0.05407738
0.05409791
0.05411972
0.05414275
0.05416692
0.05419215
0.05421834
0.05424543
0.05427332
0.05430195
0.05433124
0.05436113
0.05439155
0.05442243
0.05445372
0.05448536
0.05451727
0.05454942
0.05458172
0.05461413
0.05464657
0.054679
0.05471133
0.05474352
0.05477549
0.05480719
0.05483856
0.05486954
0.05490008
0.05493013
0.05495964
0.05498864
0.05501722
0.05504538
0.05507312
0.05510042
0.05512729
0.05515374
0.0551798
0.05520548
0.05523082
0.05525585
0.05528062
0.05530518
0.05532958
0.0553539
0.05537818
0.05540253
0.05542701
0.05545172
0.05547678
0.05550229
0.05552841
0.05555527
0.05558307
0.05561204
0.05564243
0.05567458
0.0557089
0.05574591
0.05578629
0.0558309
0.05588088
0.05593772
0.05600327
0.05608008
0.05617085
0.05627453
0.05636868
0.03908402
0.04661456
0.05365687
0.08876032
0.1169656
0.1520329
0.1690018
0.1836039
0.1938189
0.2006772
0.2065118
0.210399
0.2114736
0.2111436
0.2094179
0.2066322
0.2030356
0.1988101
0.1941257
0.1891295
0.1839267
0.178643
0.1732987
0.1679202
0.1625868
0.1573559
0.1522528
0.1472748
0.1423961
0.1375977
0.1328482
0.1334689
0.1290444
0.1246523
0.1203423
0.1161438
0.1120768
0.1081536
0.1043834
0.1007689
0.0973056
0.09399378
0.09083523
0.08782232
0.08495256
0.08222486
0.07963727
0.07718793
0.07487561
0.07269529
0.07064104
0.06871667
0.06691998
0.06524498
0.06368861
0.06224887
0.06092425
0.05971348
0.05861519
0.05762929
0.05675345
0.0559847
0.05532103
0.05475865
0.05429258
0.05391648
0.05362343
0.05341137
0.05321698
0.0530832
0.05299885
0.05295099
0.05292754
0.05291791
0.05291255
0.05290275
0.05288082
0.05284027
0.05277636
0.05268609
0.05256796
0.05242293
0.05225374
0.05206398
0.05185789
0.05164017
0.05141583
0.0511901
0.05096842
0.05075633
0.05055885
0.05037996
0.05022279
0.05008972
0.04998246
0.04990196
0.04984903
0.04982346
0.04982473
0.04985224
0.04990507
0.04998197
0.05008144
0.05020192
0.05034168
0.05049956
0.05067103
0.05085457
0.05104969
0.05125562
0.05147098
0.05169415
0.05192364
0.05215812
0.05239634
0.05263736
0.05288023
0.05312429
0.05336901
0.05361386
0.05385815
0.05410098
0.05434121
0.05457619
0.05480322
0.05501742
0.05522281
0.05542165
0.05560854
0.05577894
0.05593149
0.05606905
0.05619543
0.05631337
0.05642467
0.05653073
0.05663273
0.05673171
0.05682866
0.05692463
0.05702084
0.05711882
0.05722048
0.05732796
0.05744336
0.05756691
0.05769755
0.05783479
0.05797203
0.05809577
0.05819679
0.05827175
0.05832029
0.05834939
0.05837902
0.05842248
0.0584823
0.05855436
0.05863468
0.05872045
0.05880959
0.05890044
0.05899177
0.05908267
0.05917254
0.05926097
0.05934778
0.05943293
0.0595165
0.05959862
0.05967945
0.0597592
0.05983806
0.05991622
0.05999383
0.06007101
0.06014784
0.06022433
0.06030048
0.06037625
0.06045158
0.0605264
0.06060063
0.06067419
0.06074699
0.06081893
0.06088994
0.06095991
0.06102876
0.0610964
0.06116272
0.06122765
0.06129109
0.06135295
0.06141315
0.06147161
0.06152826
0.06158302
0.06163584
0.0616867
0.0617356
0.06178259
0.06182771
0.06187097
0.06191217
0.06195142
0.0619889
0.0620247
0.06205874
0.06209082
0.0621207
0.06214819
0.06217311
0.06219537
0.062215
0.06223205
0.06224664
0.06225893
0.06226908
0.06227724
0.06228356
0.06228817
0.06229116
0.06229259
0.06229252
0.06229098
0.06228797
0.0622835
0.06227757
0.06227019
0.06226134
0.06225105
0.06223931
0.06222614
0.06221158
0.06219564
0.06217834
0.06215971
0.06213977
0.06211855
0.06209609
0.06207241
0.06204754
0.06202153
0.06199441
0.06196624
0.06193708
0.06190701
0.06187611
0.06184448
0.06181221
0.06177928
0.06174523
0.06170802
0.06166331
0.0616251
0.06159263
0.06156334
0.06153525
0.06150711
0.06147812
0.06144786
0.06141608
0.06138262
0.0613472
0.06130983
0.06127058
0.06122958
0.06118693
0.0611428
0.06109731
0.06105058
0.0610028
0.06095423
0.06090505
0.06085542
0.06080549
0.0607554
0.06070532
0.06065544
0.06060599
0.0605572
0.06050939
0.06046291
0.06041815
0.06037554
0.06033563
0.06029915
0.06026694
0.06023977
0.06021795
0.06020102
0.06018821
0.06017884
0.06017233
0.06016822
0.06016618
0.06016596
0.06016735
0.06017024
0.06017449
0.06018001
0.06018669
0.06019447
0.06020326
0.06021299
0.06022358
0.06023494
0.06024701
0.06025971
0.06027298
0.06028673
0.0603009
0.06031542
0.06033022
0.06034524
0.06036038
0.06037561
0.06039085
0.06040604
0.06042113
0.06043612
0.06045124
0.06046656
0.06047603
0.06048325
0.06048982
0.06049626
0.0605026
0.06050866
0.0605143
0.0605195
0.06052433
0.06052895
0.06053355
0.06053834
0.06054354
0.06054933
0.06055585
0.06056324
0.06057157
0.06058091
0.0605913
0.06060276
0.06061529
0.0606289
0.06064357
0.06065931
0.0606761
0.06069393
0.06071279
0.06073267
0.06075354
0.0607754
0.06079821
0.06082196
0.06084659
0.06087208
0.06089837
0.0609254
0.06095311
0.06098141
0.06101023
0.06103944
0.06106894
0.0610986
0.06112825
0.06115773
0.06118683
0.06121533
0.06124307
0.06127003
0.06129628
0.06132185
0.06134677
0.06137103
0.0613946
0.06141742
0.06143928
0.06146005
0.06147977
0.06149844
0.06151604
0.06153258
0.06154805
0.0615625
0.06157604
0.06158882
0.06160102
0.06161285
0.06162451
0.06163623
0.06164818
0.06166055
0.06167349
0.0616871
0.06170149
0.06171674
0.06173289
0.06174998
0.06176804
0.06178706
0.06180704
0.06182796
0.0618498
0.06187253
0.06189611
0.06192049
0.06194563
0.06197147
0.06199796
0.06202503
0.06205263
0.06208068
0.06210912
0.06213787
0.06216688
0.06219606
0.06222535
0.06225468
0.06228399
0.06231322
0.0623423
0.06237119
0.06239984
0.0624282
0.06245624
0.06248393
0.06251126
0.06253821
0.06256479
0.06259099
0.06261683
0.06264235
0.06266755
0.0626925
0.06271722
0.06274177
0.06276621
0.06279061
0.06281504
0.06283959
0.06286434
0.06288941
0.06291491
0.06294097
0.06296774
0.0629954
0.06302413
0.06305419
0.06308584
0.06311944
0.06315539
0.06319421
0.06323652
0.06328309
0.06333487
0.06339299
0.06345873
0.06353339
0.06361748
0.06370777
0.06378658
0.02272203
0.0264104
0.03005468
0.0429221
0.05797424
0.08408083
0.1003063
0.116246
0.1321054
0.1471392
0.1617064
0.1766523
0.1916246
0.2058826
0.2194592
0.2337248
0.2575858
0.2626443
0.2654016
0.2658971
0.2652423
0.2640144
0.261462
0.2574909
0.2526392
0.247224
0.2414813
0.2355541
0.2295431
0.2235191
0.2175325
0.2116244
0.2058287
0.2001554
0.1945974
0.1891664
0.1838607
0.1786622
0.1735016
0.168345
0.1632513
0.1581825
0.1528636
0.1477734
0.1428711
0.1381298
0.1335476
0.1291263
0.1248647
0.1207603
0.1168102
0.1130113
0.1093615
0.1058571
0.1024957
0.09927641
0.09619849
0.09326023
0.09045977
0.08779516
0.0852642
0.08286377
0.08059202
0.07844909
0.07643477
0.07454795
0.07278718
0.07115123
0.06963908
0.06824999
0.06698327
0.06583756
0.06481182
0.06390455
0.06311297
0.06243315
0.06185948
0.06138566
0.06100291
0.06069927
0.06046541
0.06029122
0.06016582
0.0600781
0.06001784
0.05997542
0.05994143
0.05990695
0.05986393
0.05980527
0.05972502
0.05961807
0.05948413
0.05932622
0.0591472
0.05895037
0.05873964
0.05851942
0.05829449
0.05806988
0.05785091
0.05764266
0.05744943
0.05727477
0.05712155
0.05699199
0.0568876
0.05680938
0.05675767
0.05673228
0.05673268
0.05675802
0.05680718
0.05687886
0.05697165
0.05708401
0.05721427
0.05736026
0.05752036
0.05769345
0.05787821
0.05807307
0.05827644
0.05848685
0.05870301
0.05892373
0.05914804
0.05937508
0.05960418
0.05983478
0.06006635
0.06029836
0.06053029
0.06076269
0.06099445
0.06122333
0.0614447
0.06165178
0.06184722
0.06203135
0.06220222
0.06235903
0.06250326
0.06263729
0.06276318
0.06288251
0.06299657
0.0631065
0.06321335
0.06331809
0.06342174
0.0635254
0.06363033
0.06373792
0.06384961
0.06396659
0.06408903
0.06421593
0.06434567
0.06447385
0.06459285
0.0646964
0.06478182
0.0648495
0.06490443
0.06495768
0.06501808
0.06508871
0.06516872
0.06525636
0.06534992
0.06544793
0.06554905
0.06565213
0.06575626
0.06586068
0.06596483
0.0660683
0.06617082
0.06627223
0.06637245
0.06647149
0.06656938
0.06666619
0.06676203
0.06685699
0.06695114
0.06704454
0.06713723
0.06722921
0.06732046
0.06741097
0.06750068
0.06758954
0.0676775
0.0677645
0.06785045
0.06793528
0.06801893
0.0681013
0.06818231
0.06826188
0.06833991
0.06841632
0.06849103
0.06856394
0.06863497
0.06870404
0.06877107
0.06883599
0.06889876
0.06895933
0.06901769
0.06907381
0.06912766
0.0691791
0.06922812
0.06927484
0.06931936
0.06936176
0.06940207
0.06944028
0.06947636
0.06951029
0.06954199
0.06957151
0.06959883
0.06962404
0.06964717
0.06966829
0.06968746
0.06970475
0.06972019
0.06973382
0.06974567
0.06975574
0.06976404
0.06977055
0.06977529
0.06977822
0.06977936
0.06977869
0.06977623
0.06977199
0.06976599
0.06975826
0.06974882
0.06973771
0.06972496
0.06971061
0.06969469
0.06967726
0.06965834
0.06963799
0.06961625
0.06959319
0.06956885
0.06954333
0.06951669
0.06948902
0.06946044
0.06943102
0.06940081
0.06936969
0.06933717
0.06930266
0.06926792
0.06923387
0.06920078
0.06916855
0.0691367
0.06910467
0.0690721
0.0690387
0.06900427
0.06896888
0.06893245
0.06889493
0.06885628
0.0688165
0.06877561
0.06873367
0.06869075
0.06864691
0.06860228
0.06855693
0.06851098
0.06846455
0.06841776
0.06837078
0.06832375
0.06827689
0.06823042
0.06818462
0.0681398
0.06809631
0.06805453
0.0680149
0.06797792
0.06794407
0.06791381
0.06788733
0.06786449
0.06784493
0.06782823
0.067814
0.06780195
0.06779179
0.06778336
0.06777648
0.06777105
0.06776699
0.06776421
0.06776267
0.06776231
0.06776306
0.0677649
0.06776776
0.06777158
0.06777631
0.06778187
0.06778821
0.06779525
0.06780292
0.06781116
0.0678199
0.06782904
0.06783853
0.0678483
0.06785828
0.06786839
0.06787858
0.06788878
0.067899
0.0679091
0.06791836
0.06792679
0.06793461
0.06794197
0.06794892
0.06795542
0.06796143
0.06796691
0.06797187
0.06797634
0.06798041
0.06798417
0.06798775
0.06799129
0.06799491
0.06799875
0.06800294
0.06800757
0.06801277
0.06801862
0.0680252
0.06803259
0.06804085
0.06805004
0.06806022
0.06807143
0.0680837
0.06809707
0.06811155
0.06812716
0.0681439
0.06816176
0.06818072
0.06820076
0.06822183
0.06824388
0.06826684
0.06829065
0.06831521
0.06834042
0.06836616
0.0683923
0.06841871
0.06844521
0.06847166
0.06849789
0.06852377
0.06854924
0.06857427
0.06859886
0.06862298
0.06864658
0.06866963
0.06869206
0.06871376
0.06873467
0.06875476
0.06877404
0.06879251
0.06881014
0.0688269
0.06884277
0.06885778
0.06887196
0.06888538
0.06889816
0.06891042
0.0689223
0.06893396
0.06894557
0.06895728
0.06896924
0.06898159
0.06899446
0.06900795
0.06902216
0.06903717
0.06905304
0.06906981
0.06908752
0.06910618
0.06912581
0.06914638
0.06916789
0.06919031
0.0692136
0.06923772
0.06926261
0.06928822
0.0693145
0.06934136
0.06936875
0.0693966
0.06942484
0.06945339
0.0694822
0.06951119
0.0695403
0.06956949
0.06959871
0.06962791
0.069657
0.06968583
0.06971435
0.06974255
0.0697704
0.06979791
0.06982507
0.06985191
0.06987844
0.06990469
0.06993071
0.06995654
0.06998225
0.07000789
0.07003354
0.07005929
0.07008523
0.07011145
0.07013809
0.07016526
0.07019312
0.07022183
0.07025158
0.07028259
0.07031513
0.07034949
0.07038603
0.07042517
0.07046744
0.07051343
0.07056386
0.07061958
0.07068151
0.07075062
0.07082768
0.07091251
0.07100147
0.07107847
0.01042208
0.01235257
0.0139909
0.02203856
0.03112859
0.04332459
0.0526903
0.0629663
0.0736901
0.08478639
0.0963992
0.1097178
0.1236808
0.1385156
0.1556015
0.1833501
0.1964624
0.2097538
0.2227474
0.2354534
0.2478383
0.2597665
0.270937
0.2801292
0.2868389
0.2908851
0.2917547
0.2909467
0.2880843
0.2823754
0.2758109
0.268834
0.2614051
0.2536319
0.2458143
0.2381702
0.2308312
0.2238725
0.2173285
0.2112065
0.2054873
0.2001477
0.1951615
0.1904811
0.1860659
0.1818739
0.1778671
0.174008
0.1702548
0.1665561
0.1628804
0.1591116
0.155253
0.1513805
0.147527
0.143701
0.1399152
0.1361824
0.1325114
0.1289075
0.1253749
0.1219171
0.1185373
0.115239
0.1120263
0.1089039
0.105876
0.1029461
0.1001171
0.0973918
0.09477228
0.09225928
0.08985418
0.08756
0.08537944
0.08331431
0.08136596
0.07953563
0.07782473
0.07623472
0.07476693
0.07342254
0.07220253
0.07110711
0.07013528
0.06928486
0.068552
0.06793149
0.06741606
0.06699683
0.06666453
0.06640916
0.06621888
0.06607861
0.0659777
0.06590847
0.06586137
0.06582644
0.06579422
0.06575635
0.06570604
0.06563828
0.06554955
0.06543806
0.06530382
0.06514839
0.0649746
0.06478627
0.06458797
0.06438478
0.06418213
0.06398531
0.06379914
0.06362781
0.06347486
0.06334309
0.06323459
0.06315088
0.06309286
0.0630605
0.06305331
0.06307057
0.06311133
0.0631745
0.06325894
0.06336389
0.06348739
0.06362748
0.06378256
0.06395124
0.06413212
0.06432372
0.06452457
0.06473328
0.06494855
0.06516924
0.06539433
0.06562296
0.06585443
0.06608815
0.06632368
0.06656063
0.06679848
0.06703542
0.06727094
0.06750384
0.06772971
0.06794564
0.06815135
0.0683465
0.06853004
0.06870148
0.0688616
0.0690119
0.06915392
0.06928903
0.06941845
0.06954332
0.06966469
0.06978358
0.069901
0.07001798
0.07013562
0.07025502
0.07037721
0.07050295
0.07063227
0.07076434
0.07089755
0.07102881
0.07115347
0.07126737
0.07136846
0.07145703
0.07153631
0.07161277
0.07169239
0.07177822
0.0718709
0.07196996
0.07207459
0.07218387
0.07229686
0.07241265
0.07253042
0.07264948
0.07276925
0.07288927
0.07300918
0.07312873
0.07324774
0.0733661
0.07348375
0.07360066
0.07371684
0.07383229
0.07394703
0.07406106
0.07417436
0.0742869
0.07439863
0.07450949
0.07461944
0.07472839
0.07483628
0.07494303
0.07504857
0.0751528
0.07525564
0.07535702
0.07545683
0.07555499
0.0756514
0.07574598
0.07583863
0.07592925
0.07601774
0.07610403
0.07618801
0.07626959
0.07634871
0.0764253
0.0764993
0.07657064
0.07663926
0.07670505
0.07676797
0.07682803
0.07688532
0.07693991
0.07699188
0.07704131
0.07708827
0.07713282
0.07717504
0.07721494
0.07725264
0.0772882
0.07732167
0.0773531
0.07738253
0.07741
0.07743551
0.07745907
0.07748067
0.07750029
0.0775179
0.07753347
0.07754696
0.07755835
0.07756762
0.07757475
0.07757974
0.07758258
0.0775833
0.0775819
0.07757843
0.0775729
0.07756536
0.07755584
0.0775444
0.07753106
0.07751589
0.07749893
0.07748025
0.07745991
0.07743798
0.07741454
0.07738969
0.07736352
0.07733614
0.07730764
0.07727811
0.07724755
0.07721588
0.07718299
0.07714918
0.07711481
0.07707966
0.07704367
0.07700705
0.07697006
0.07693268
0.07689483
0.07685646
0.07681749
0.07677784
0.07673746
0.07669629
0.07665431
0.0766115
0.07656786
0.07652342
0.07647821
0.07643229
0.07638571
0.07633855
0.0762909
0.07624288
0.07619462
0.07614626
0.07609799
0.07605003
0.07600261
0.07595601
0.07591057
0.07586663
0.07582455
0.07578474
0.07574754
0.07571327
0.07568209
0.07565394
0.07562865
0.07560597
0.07558562
0.07556739
0.07555106
0.07553647
0.0755235
0.07551204
0.07550201
0.07549335
0.07548601
0.07547994
0.0754751
0.07547144
0.07546892
0.0754675
0.07546711
0.0754677
0.07546921
0.07547158
0.07547473
0.0754786
0.0754831
0.07548818
0.07549377
0.07549978
0.07550614
0.07551277
0.07551961
0.07552659
0.07553365
0.07554071
0.07554758
0.07555416
0.07556046
0.0755665
0.07557229
0.07557782
0.07558305
0.07558795
0.07559252
0.07559676
0.07560067
0.07560431
0.07560772
0.07561099
0.07561419
0.07561742
0.07562077
0.07562435
0.07562824
0.07563257
0.07563741
0.07564287
0.07564905
0.07565601
0.07566386
0.07567267
0.07568249
0.0756934
0.07570543
0.07571863
0.07573302
0.07574862
0.07576543
0.07578342
0.07580258
0.07582286
0.0758442
0.07586653
0.07588978
0.07591384
0.07593859
0.07596392
0.07598968
0.07601574
0.07604194
0.07606815
0.07609424
0.07612012
0.07614574
0.07617104
0.07619598
0.07622048
0.07624449
0.07626794
0.07629074
0.07631284
0.07633421
0.07635484
0.07637471
0.07639383
0.07641215
0.07642969
0.07644643
0.0764624
0.07647762
0.07649218
0.07650615
0.07651963
0.07653276
0.07654564
0.07655844
0.07657128
0.07658431
0.07659765
0.07661143
0.07662576
0.07664075
0.07665647
0.07667299
0.07669038
0.07670868
0.0767279
0.07674807
0.07676918
0.07679121
0.07681416
0.07683797
0.0768626
0.07688801
0.07691413
0.07694089
0.07696822
0.07699605
0.0770243
0.07705288
0.07708173
0.07711075
0.07713987
0.07716901
0.07719811
0.07722709
0.07725589
0.07728447
0.07731278
0.07734081
0.07736853
0.07739595
0.07742306
0.07744987
0.07747642
0.07750272
0.07752883
0.0775548
0.07758068
0.07760655
0.07763248
0.07765857
0.07768491
0.07771162
0.07773881
0.07776664
0.07779526
0.07782483
0.07785557
0.07788769
0.07792148
0.07795722
0.07799527
0.07803605
0.07808004
0.07812779
0.07817994
0.07823718
0.07830026