/*--------------------------------*- C++ -*----------------------------------*\
| =========                 |                                                 |
| \\      /  F ield         | foam-extend: Open Source CFD                    |
|  \\    /   O peration     | Version:     3.1                                |
|   \\  /    A nd           | Web:         http://www.extend-project.de       |
|    \\/     M anipulation  |                                                 |
\*---------------------------------------------------------------------------*/
FoamFile
{
    version     2.0;
    format      ascii;
    class       volScalarField;
    location    "2.5";
    object      omega;
}
// * * * * * * * * * * * * * * * * * * * * * * * * * * * * * * * * * * * * * //

dimensions      [0 0 -1 0 0 0 0];

internalField   nonuniform List<scalar> 
119952
(
152.1656
192.4007
182.3295
159.0987
143.1074
144.4456
147.0997
150.441
154.2261
158.3295
162.6681
167.1934
171.8793
176.7162
181.7136
186.8806
192.2407
197.8381
203.7842
210.5433
176.1497
176.0491
177.9828
150.1398
147.9304
146.7649
145.7754
144.7811
142.3643
154.956
318.2176
269.5237
227.7356
196.7594
173.3718
155.2714
140.835
129.0746
119.2846
108.6217
90.12985
77.16776
68.05083
61.20769
55.81297
51.41434
47.76136
44.6704
42.00972
32.18429
30.56696
29.02178
27.58583
26.27943
25.10441
24.05445
23.11782
22.28289
21.54579
20.89418
20.27295
19.67821
19.1103
18.57136
18.06327
17.58498
17.13176
16.70326
16.72377
16.75874
16.66131
16.53012
16.40462
16.28568
16.18112
16.08033
15.98216
15.88675
15.79555
15.71048
15.63315
15.56481
15.50613
15.45685
15.41556
15.3782
15.33422
15.25994
15.15836
15.07086
14.96511
14.84755
14.77825
14.73805
14.77507
14.96411
15.6701
17.09052
17.4894
17.62215
17.64312
17.62059
17.57759
17.52531
17.46935
17.41293
17.35824
17.30719
17.26173
17.22303
17.19134
17.16649
17.14844
17.13731
17.13301
17.13509
17.14288
17.15562
17.17264
17.19331
17.21712
17.24361
17.27242
17.30321
17.3357
17.36967
17.40494
17.44136
17.47885
17.51734
17.55678
17.59716
17.63849
17.68076
17.72401
17.76826
17.81358
17.86001
17.90763
17.95651
18.00674
18.05837
18.11148
18.16606
18.22182
18.27679
18.32457
18.59374
18.97664
19.34182
19.65863
19.92039
20.13137
20.29973
20.43455
20.54395
20.63461
20.71172
20.77932
20.84049
20.89757
20.95228
21.00591
21.0594
21.11344
21.16852
21.22502
21.28318
21.34319
21.40521
21.46932
21.53561
21.60418
21.67506
21.74831
21.82396
21.90213
21.98286
22.06629
22.15246
22.24154
22.33358
22.42883
22.52729
22.62933
22.7349
22.84446
22.958
23.076
23.19858
23.32605
23.45873
23.59671
23.74079
23.88955
24.03823
24.18123
28.88836
34.47033
36.85664
38.01521
38.65287
39.05148
39.33746
39.57271
39.78897
40.00285
40.22336
40.45453
40.69869
40.95657
41.22831
41.51381
41.81277
42.12491
42.45002
42.78788
43.13843
43.50169
43.87769
44.26678
44.66875
45.08398
45.51295
45.95551
46.41203
46.88234
47.36577
47.86075
48.36276
48.85638
49.27794
48.92893
47.93242
47.20171
46.6257
46.14178
45.71099
45.31092
44.92892
44.5581
44.19479
43.83743
43.48563
43.13867
42.79662
42.45963
42.1278
41.80125
41.48001
41.1641
40.8535
40.54815
40.24798
39.9529
39.66281
39.37759
39.09699
38.82105
38.54996
38.28319
38.02067
37.76234
37.50803
37.25753
37.01117
36.76117
29.77172
28.61533
27.48479
26.45762
25.57564
24.84512
24.25504
23.78484
23.41161
23.11357
22.8721
22.67231
22.50288
22.35543
22.22395
22.10414
21.99298
21.88833
21.78869
21.69301
21.60052
21.51069
21.42311
21.3375
21.25363
21.17138
21.09061
21.01123
20.93316
20.85633
20.7807
20.70623
20.63288
20.56062
20.48942
20.41926
20.35013
20.28201
20.21489
20.1488
20.08377
20.01991
19.95749
19.89713
19.84053
19.79032
19.74613
19.70423
19.66372
19.62435
19.5859
19.54834
19.51163
19.47728
19.45249
19.35576
19.19366
18.98697
18.76027
18.53464
18.32475
18.13867
17.97925
17.84578
17.73544
17.64452
17.56922
17.50607
17.45211
17.40498
17.36284
17.3243
17.28834
17.25422
17.22143
17.1896
17.15849
17.12793
17.09782
17.06807
17.03866
17.00954
16.98072
16.95217
16.9239
16.8959
16.86817
16.84071
16.81351
16.78656
16.75988
16.73343
16.70723
16.68126
16.65552
16.62998
16.60465
16.57952
16.55457
16.52979
16.50519
16.48073
16.45643
16.43226
16.40823
16.38433
16.36054
16.33687
16.31331
16.28986
16.2665
16.24324
16.22006
16.19697
16.17396
16.15103
16.12816
16.10535
16.0826
16.05988
16.03719
16.01451
15.9918
15.96906
15.94622
15.92324
15.90005
15.87653
15.85254
15.82784
15.80208
15.7747
15.74478
15.71049
15.66801
15.60849
15.51279
15.35221
15.55248
324.7183
266.9185
227.5427
199.4002
178.284
161.7339
148.3047
137.1043
127.1613
108.7291
89.69313
77.15995
68.33873
61.74903
56.61973
52.48374
49.07668
46.20717
35.42035
33.59458
31.83289
30.17959
28.6742
27.32657
26.13001
25.07078
24.13308
23.29991
22.57469
21.90247
21.25702
20.63821
20.04774
19.48843
18.96199
18.4683
18.00634
17.7061
17.51062
17.2556
16.96409
16.65153
16.32823
16.0025
15.68031
15.36615
15.06324
14.77219
14.49455
14.22896
13.97359
13.72734
13.48983
13.26111
13.04151
12.83305
11.41219
11.25351
11.10821
10.97315
10.84597
10.72506
10.60929
10.49793
10.39057
10.28683
10.18688
10.09048
9.997247
9.906969
9.819497
9.734831
9.653223
9.575894
9.505058
9.4436
9.387695
9.338597
9.297548
9.262624
9.233961
9.211808
9.193998
9.178988
9.165546
9.15284
9.14033
9.127674
9.114658
9.101136
9.08694
9.071763
9.055004
9.035691
9.012669
8.987
8.959807
8.930078
8.904661
8.891494
8.890485
8.904445
8.939427
9.000469
9.067414
9.124713
9.177258
9.223672
9.264285
9.299294
9.328929
9.353446
9.373175
9.388532
9.399995
9.408062
9.413208
9.415884
9.416533
9.4156
9.413511
9.410645
9.407322
9.403794
9.40026
9.39687
9.393736
9.39094
9.388532
9.386542
9.384979
9.383836
9.383097
9.382736
9.382728
9.383045
9.38366
9.384551
9.385694
9.387072
9.388666
9.390464
9.392453
9.394624
9.396969
9.399483
9.402161
9.404998
9.407985
9.411101
9.4143
9.417479
9.420507
9.42364
9.430428
9.442749
9.461093
9.484575
9.511648
9.540621
9.56999
9.598593
9.625622
9.650582
9.673235
9.693534
9.711568
9.727513
9.741593
9.75405
9.765128
9.775058
9.784051
9.792298
9.79997
9.807218
9.814154
9.82089
9.827517
9.834112
9.84074
9.847456
9.854301
9.861314
9.868531
9.875989
9.883699
9.891694
9.899996
9.908629
9.917615
9.926974
9.936724
9.946883
9.957469
9.968492
9.979972
9.9919
10.00429
10.01709
10.03026
10.04351
10.05587
10.05872
10.64883
11.09601
11.3169
11.45009
11.54717
11.62654
11.69463
11.75388
11.80555
11.85064
11.89006
11.9247
11.9554
11.9829
12.00785
12.03079
12.0522
12.07243
12.09179
12.11053
12.12885
12.1469
12.16484
12.18272
12.20057
12.21841
12.23629
12.25417
12.27199
12.28957
12.30661
12.32254
12.33622
12.34501
12.3419
12.32702
12.30249
12.27247
12.23956
12.20569
12.17216
12.13975
12.1089
12.07973
12.05225
12.02633
12.00182
11.97856
11.95637
11.93511
11.91466
11.89488
11.8757
11.85703
11.8388
11.82096
11.80345
11.78624
11.7693
11.75258
11.73608
11.71976
11.70362
11.68763
11.6718
11.65612
11.64058
11.62522
11.61009
11.59785
10.48982
10.43829
10.3996
10.36479
10.32957
10.29234
10.2529
10.21181
10.16991
10.12806
10.08704
10.04741
10.00957
9.973748
9.940047
9.908467
9.87894
9.851355
9.825574
9.801451
9.778836
9.757585
9.737564
9.718647
9.700721
9.683687
9.667453
9.65194
9.637078
9.622804
9.609064
9.595811
9.583005
9.570608
9.558591
9.546928
9.535599
9.524587
9.513883
9.503488
9.493413
9.483688
9.474375
9.465576
9.45742
9.449982
9.443115
9.436633
9.430442
9.424485
9.418728
9.413174
9.40785
9.402984
9.398438
9.393167
9.386404
9.377437
9.365834
9.351535
9.3348
9.316099
9.296008
9.27512
9.253983
9.233058
9.212705
9.19318
9.174649
9.157199
9.14086
9.125616
9.111422
9.098214
9.085919
9.074459
9.063757
9.05374
9.044339
9.035492
9.027141
9.019237
9.011735
9.004593
8.997776
8.991253
8.984995
8.978977
8.973176
8.967571
8.962143
8.956875
8.951752
8.946759
8.941881
8.937108
8.932427
8.927826
8.923297
8.91883
8.914415
8.910046
8.905714
8.901414
8.897139
8.892885
8.888648
8.884422
8.880204
8.87599
8.871777
8.867562
8.863342
8.859113
8.854873
8.850617
8.846341
8.842041
8.837711
8.833344
8.828932
8.824463
8.819925
8.8153
8.810565
8.805692
8.80064
8.795356
8.789765
8.783759
8.77718
8.769793
8.761236
8.75095
8.738105
8.721687
8.700743
8.678078
8.66347
503.2105
442.3153
391.5542
351.6049
319.0796
291.6273
268.0936
247.6937
229.8568
211.4751
124.5651
100.7766
92.25928
87.12217
82.82027
78.84905
75.12001
71.61115
68.26914
52.64368
48.82506
45.54121
42.79645
40.51321
38.58805
36.92961
35.46834
34.15381
32.96405
31.83702
30.68908
29.54511
28.43142
27.36746
26.36374
25.42323
24.54411
23.71287
23.26267
22.70738
22.09251
21.45245
20.80702
20.17029
19.55147
18.95624
18.38837
17.84981
17.33849
16.85344
16.39018
15.94617
15.52092
15.11475
14.72858
14.36517
12.68451
12.40391
12.1485
11.91378
11.69629
11.49363
11.30425
11.12712
10.96148
10.80666
10.66211
10.52722
10.40109
10.28266
10.17102
10.06532
9.964821
9.86886
9.776855
9.688907
9.605202
9.525238
9.448436
9.374262
9.30224
9.231991
9.163232
9.095779
9.029504
8.964432
8.900488
8.837655
8.775947
8.715357
8.655859
8.597424
8.539897
8.481421
8.447878
8.410901
8.371393
8.330182
8.287903
8.245018
8.201871
8.158715
8.115734
8.073116
8.030988
7.989423
7.948521
7.908396
7.869168
7.831001
7.794148
7.758984
7.725885
7.694746
7.6653
7.637702
7.611587
7.587815
7.568573
7.552648
7.539272
7.527925
7.518129
7.509459
7.50155
7.494087
7.486792
7.479411
7.471697
7.463391
7.454206
7.443854
7.432068
7.419129
7.405639
7.391741
7.379396
7.371384
7.368634
7.371397
7.380878
7.396424
7.413617
7.429639
7.445093
7.460598
7.47594
7.490902
7.505248
7.518737
7.531149
7.542307
7.552088
7.560418
7.567263
7.572633
7.576579
7.579193
7.580596
7.580928
7.580334
7.578962
7.576951
7.574437
7.571541
7.568373
7.56503
7.561591
7.558122
7.554674
7.551284
7.547978
7.544776
7.541688
7.538722
7.535879
7.533161
7.530565
7.528089
7.525729
7.52348
7.521339
7.519301
7.517362
7.515518
7.513765
7.512095
7.510499
7.508959
7.507447
7.505946
7.504525
7.503694
7.503949
7.505685
7.509106
7.514191
7.520731
7.528385
7.536805
7.545632
7.554548
7.563289
7.571659
7.579522
7.586796
7.593447
7.599476
7.604913
7.609787
7.614159
7.618089
7.621649
7.624899
7.627873
7.630643
7.633257
7.635763
7.6382
7.640611
7.643025
7.645441
7.647907
7.650445
7.653046
7.655747
7.658567
7.66152
7.664621
7.66788
7.671308
7.674915
7.678706
7.682689
7.686865
7.691233
7.695789
7.700523
7.705407
7.710341
7.715266
7.720451
7.735209
7.733955
7.731878
7.733081
7.737928
7.745736
7.755658
7.766915
7.778906
7.791176
7.803396
7.815341
7.826865
7.837887
7.84836
7.858272
7.867632
7.876462
7.8848
7.892706
7.900231
7.907396
7.91425
7.920767
7.926984
7.932911
7.938547
7.94387
7.948829
7.953335
7.957265
7.960693
7.963426
7.965001
7.964997
7.963122
7.959552
7.954639
7.948671
7.941893
7.934516
7.926725
7.918678
7.910509
7.902331
7.8942
7.886185
7.878332
7.870663
7.863198
7.855942
7.8489
7.842067
7.835438
7.829004
7.822755
7.816678
7.810761
7.804993
7.799361
7.793854
7.788465
7.78318
7.777993
7.772897
7.767895
7.762996
7.758176
7.753331
7.747011
7.772384
7.787673
7.796381
7.800361
7.800698
7.798032
7.792814
7.785429
7.77624
7.765595
7.753825
7.741237
7.728103
7.71466
7.701104
7.687597
7.674263
7.661198
7.648471
7.63613
7.624204
7.612709
7.60165
7.591024
7.580823
7.571033
7.561639
7.552622
7.543965
7.53565
7.527657
7.519969
7.512569
7.505442
7.498573
7.49195
7.485561
7.479398
7.473455
7.46773
7.462228
7.456959
7.451942
7.447207
7.442784
7.438684
7.434864
7.431269
7.427863
7.424622
7.421532
7.418587
7.415783
7.413161
7.410717
7.408276
7.405664
7.402706
7.399237
7.395132
7.390319
7.384782
7.378556
7.371716
7.364366
7.356625
7.348615
7.340452
7.332243
7.324079
7.316036
7.308173
7.300537
7.293159
7.286061
7.279254
7.272745
7.266531
7.260607
7.254966
7.249597
7.244488
7.239627
7.235
7.230595
7.226398
7.222397
7.218579
7.214933
7.211446
7.208107
7.204907
7.201835
7.198881
7.196036
7.193292
7.190641
7.188075
7.185587
7.18317
7.180817
7.17852
7.176261
7.174036
7.171839
7.169666
7.167512
7.165373
7.163247
7.16113
7.159019
7.15691
7.154801
7.15269
7.150573
7.148447
7.146309
7.144154
7.141979
7.139778
7.137545
7.135272
7.132949
7.130565
7.128103
7.125544
7.122863
7.120023
7.11698
7.11367
7.110005
7.105862
7.101072
7.095411
7.088598
7.080362
7.070577
7.059947
7.05084
344.0925
256.8953
323.0987
140.1095
104.7355
69.12227
60.03145
53.16339
49.16361
48.1366
48.12102
47.73918
46.58554
46.25226
45.65563
44.89645
44.03609
43.08598
42.06614
40.99777
39.89613
38.7721
37.56993
36.2975
35.0403
33.84496
32.71874
31.6561
30.64947
29.69088
28.77746
26.68897
25.861
25.06565
24.29658
23.55232
22.83319
22.13966
21.47217
20.8306
20.21398
19.62167
19.05264
18.50477
17.9766
17.46707
16.97529
16.50054
16.04231
15.60009
15.1744
14.76534
14.37202
13.99313
13.62768
13.27491
12.93422
12.60524
12.28768
11.98158
11.6868
11.40324
11.13102
10.87022
10.62089
10.38309
10.1567
9.939733
9.759788
9.586877
9.422059
9.265847
9.118497
8.980119
8.850667
8.729967
8.617829
8.513937
8.417932
8.329386
8.247833
8.172687
8.103362
8.039265
7.979813
7.924437
7.872593
7.823807
7.777642
7.733696
7.691647
7.651219
7.612165
7.574271
7.537364
7.501302
7.465991
7.431336
7.397278
7.363784
7.330825
7.298376
7.266412
7.234913
7.203853
7.173241
7.144578
7.117242
7.090847
7.06515
7.039979
7.015215
6.990786
6.966649
6.942785
6.919192
6.895876
6.872859
6.850183
6.827904
6.806102
6.784884
6.76439
6.744792
6.726175
6.70821
6.690167
6.672445
6.656246
6.641892
6.629293
6.618187
6.608354
6.599621
6.591822
6.58479
6.578359
6.57237
6.566664
6.561084
6.555476
6.549688
6.543575
6.537024
6.529968
6.522493
6.514813
6.507168
6.500161
6.494594
6.490919
6.489324
6.490017
6.492604
6.496024
6.499805
6.503873
6.508278
6.513055
6.518169
6.523547
6.529077
6.534629
6.540057
6.54522
6.549984
6.554229
6.557858
6.5608
6.563009
6.564469
6.565187
6.56519
6.564524
6.563246
6.561421
6.559124
6.556426
6.553402
6.550118
6.546637
6.543012
6.539292
6.535515
6.531712
6.527911
6.524131
6.520388
6.516694
6.513059
6.509488
6.505985
6.502553
6.499193
6.495907
6.492692
6.489551
6.48648
6.483479
6.480545
6.477672
6.474855
6.472093
6.469408
6.466903
6.464716
6.462993
6.461866
6.461421
6.461691
6.462636
6.464194
6.46626
6.468689
6.471374
6.4742
6.477069
6.479902
6.482641
6.485238
6.487665
6.489889
6.491926
6.493783
6.495476
6.49702
6.498437
6.499745
6.500968
6.502126
6.503239
6.504326
6.505409
6.506487
6.50758
6.508699
6.509855
6.51106
6.512324
6.513658
6.515069
6.516566
6.518154
6.519838
6.521623
6.52351
6.525501
6.527594
6.529786
6.53207
6.534441
6.536861
6.539333
6.541982
6.545581
6.548187
6.550052
6.551826
6.553975
6.556748
6.560206
6.564276
6.568883
6.573912
6.579269
6.584843
6.59054
6.59629
6.602025
6.607661
6.613193
6.618601
6.623866
6.628968
6.633894
6.638609
6.643147
6.647499
6.65167
6.655622
6.659374
6.662914
6.666223
6.669272
6.672009
6.674351
6.676237
6.677534
6.678107
6.677881
6.676908
6.675307
6.673175
6.670557
6.667555
6.664242
6.66068
6.65694
6.653067
6.64907
6.645015
6.640948
6.636895
6.63284
6.628824
6.624863
6.620967
6.617145
6.613401
6.60974
6.60616
6.602661
6.599241
6.595897
6.592629
6.589441
6.586304
6.583226
6.580207
6.577259
6.574381
6.571539
6.568787
6.566355
6.567152
6.569208
6.571486
6.573446
6.574799
6.575393
6.575152
6.574053
6.572112
6.569372
6.565899
6.561772
6.557078
6.551907
6.546348
6.540485
6.534397
6.528155
6.521821
6.515449
6.509085
6.502766
6.496524
6.490382
6.484361
6.478474
6.472733
6.467144
6.461712
6.456439
6.451326
6.446372
6.441574
6.436932
6.432443
6.428103
6.42391
6.419863
6.415961
6.412206
6.408599
6.405148
6.401861
6.39875
6.395824
6.393085
6.390516
6.388094
6.385803
6.383628
6.381563
6.3796
6.377739
6.375985
6.374335
6.372745
6.371166
6.369546
6.367832
6.365969
6.363912
6.361623
6.35908
6.356272
6.353203
6.349888
6.346352
6.342626
6.338744
6.334744
6.330662
6.326531
6.322384
6.318248
6.314148
6.310105
6.306136
6.302254
6.298471
6.294793
6.291226
6.287774
6.284438
6.281219
6.278115
6.275125
6.272245
6.269471
6.266801
6.264229
6.261751
6.259361
6.257054
6.254826
6.25267
6.250582
6.248557
6.246588
6.244671
6.242802
6.240975
6.239188
6.237439
6.235724
6.23404
6.232383
6.23075
6.229138
6.227543
6.225963
6.224394
6.222834
6.221281
6.21973
6.21818
6.216627
6.215068
6.213499
6.211916
6.210313
6.208684
6.207024
6.205322
6.203569
6.201752
6.199854
6.197854
6.195727
6.193438
6.190942
6.188182
6.185082
6.181547
6.177464
6.172706
6.167169
6.160835
6.153984
6.147787
334.2432
229.6657
176.4419
147.6717
118.4127
92.193
76.37534
69.07017
61.69629
57.41375
54.18343
50.81546
47.96553
45.95784
44.85398
44.36793
44.16224
44.75633
45.27143
45.60941
45.86015
46.07726
46.05701
45.65919
45.01117
44.17176
43.18942
42.09971
40.93371
39.7183
38.47651
37.22843
35.99168
34.77359
33.57855
32.41207
31.27716
30.17613
29.11535
28.09578
27.11765
26.17456
25.28242
24.42852
23.61134
22.82755
22.07595
21.35555
20.66506
20.00311
19.36829
18.75929
18.17487
17.61369
17.07452
16.55635
16.05822
15.57915
15.11821
14.67451
14.24722
13.83557
13.43885
13.05656
12.68828
12.33352
11.99179
11.66265
11.34572
11.04072
10.74741
10.4656
10.19518
9.936155
9.688493
9.452199
9.227252
9.013653
8.811284
8.621701
8.444222
8.278442
8.123796
7.979843
7.84624
7.72249
7.608153
7.502917
7.406307
7.317921
7.237376
7.164333
7.098224
7.038364
6.98416
6.935057
6.890516
6.85001
6.813025
6.779069
6.747694
6.718504
6.691141
6.665289
6.640674
6.617069
6.594285
6.572173
6.550612
6.529513
6.50881
6.488451
6.468395
6.448609
6.429064
6.409734
6.39061
6.371796
6.353345
6.335286
6.317618
6.300319
6.283359
6.26671
6.250351
6.234261
6.218425
6.202832
6.187477
6.172363
6.157498
6.142896
6.128563
6.11439
6.100333
6.086401
6.072607
6.059573
6.047271
6.035795
6.025204
6.015473
6.006523
5.998275
5.990656
5.983592
5.977007
5.970825
5.964966
5.95935
5.953894
5.948515
5.943135
5.937682
5.932105
5.926384
5.920552
5.914693
5.908935
5.903483
5.898578
5.894377
5.890962
5.888359
5.886457
5.885012
5.883889
5.883046
5.882489
5.88224
5.882309
5.882695
5.883376
5.884307
5.885426
5.886653
5.887902
5.889081
5.890098
5.89087
5.891323
5.891399
5.891057
5.890268
5.889025
5.887331
5.885206
5.882677
5.879783
5.876566
5.87307
5.86934
5.865421
5.861353
5.857172
5.852912
5.848601
5.844263
5.839921
5.83559
5.831285
5.827017
5.822795
5.818627
5.814518
5.810471
5.806491
5.80258
5.798741
5.794975
5.791283
5.787667
5.784126
5.780663
5.777288
5.774026
5.77092
5.768022
5.765388
5.763072
5.761114
5.759534
5.758336
5.757514
5.75702
5.756798
5.756807
5.757002
5.757342
5.757783
5.758273
5.758792
5.759319
5.759839
5.760344
5.760831
5.761298
5.761749
5.762187
5.762619
5.763051
5.763491
5.763946
5.764423
5.764927
5.765463
5.766038
5.766656
5.767323
5.768045
5.768825
5.769668
5.770579
5.771559
5.772613
5.77374
5.774941
5.776217
5.777565
5.778982
5.780464
5.782005
5.783595
5.785234
5.78695
5.788831
5.790713
5.7925
5.794228
5.795977
5.79785
5.799931
5.802263
5.804866
5.80773
5.810813
5.814084
5.817507
5.82105
5.824687
5.828361
5.832053
5.835739
5.839397
5.843012
5.846563
5.850038
5.85343
5.856728
5.859933
5.86301
5.865959
5.868766
5.871413
5.873879
5.876124
5.878113
5.879793
5.881106
5.881996
5.882436
5.882449
5.882087
5.881411
5.880438
5.879215
5.877776
5.876153
5.874373
5.872458
5.87043
5.86831
5.866122
5.863892
5.861624
5.859335
5.857003
5.854666
5.852333
5.850014
5.847714
5.845438
5.84319
5.840971
5.838788
5.836654
5.834547
5.832443
5.830369
5.828326
5.82632
5.824348
5.822416
5.820537
5.818793
5.817539
5.816782
5.816403
5.816254
5.8162
5.816123
5.815925
5.815533
5.814891
5.813962
5.812727
5.811177
5.809319
5.807166
5.804738
5.802061
5.799164
5.796077
5.792829
5.78945
5.785968
5.782409
5.778796
5.775152
5.771494
5.767839
5.764201
5.760593
5.757024
5.753503
5.750038
5.746633
5.743295
5.740025
5.736829
5.733709
5.730668
5.727708
5.724833
5.722046
5.719352
5.716756
5.714265
5.711885
5.709621
5.707475
5.705441
5.703507
5.701666
5.699911
5.698236
5.69664
5.695119
5.693676
5.692305
5.690994
5.689724
5.688477
5.687234
5.685976
5.684682
5.683332
5.681909
5.680397
5.678785
5.677066
5.675236
5.673298
5.671255
5.669115
5.666888
5.664584
5.662217
5.659798
5.657341
5.654858
5.652359
5.649857
5.64736
5.644878
5.642418
5.639985
5.637587
5.635227
5.632909
5.630636
5.62841
5.626231
5.624101
5.62202
5.619987
5.618001
5.616062
5.614167
5.612314
5.610502
5.608729
5.606991
5.605287
5.603614
5.601969
5.600353
5.59877
5.597217
5.595693
5.594195
5.592721
5.591267
5.589833
5.588414
5.58701
5.585617
5.584233
5.582855
5.581481
5.580106
5.578728
5.577344
5.575948
5.574535
5.573101
5.571638
5.570139
5.568593
5.566989
5.565313
5.563548
5.561671
5.559655
5.557468
5.555066
5.552401
5.549411
5.54603
5.54219
5.537838
5.532971
5.527742
5.52293
177.5198
132.076
197.382
97.18109
82.68953
69.20089
65.05815
61.77153
58.28221
56.5278
54.51445
51.8897
49.53187
47.33605
45.21552
41.28088
40.60402
40.23655
40.16001
40.38099
40.84492
41.57116
42.57395
43.7716
45.05113
46.19731
46.96339
47.62016
48.0262
48.00538
47.69972
47.23119
46.55509
45.63958
44.54722
43.34385
42.06992
40.75787
39.43361
38.11752
36.82313
35.56111
34.34154
33.16503
32.03237
30.94251
29.89389
28.88489
27.91399
26.9771
26.07696
25.21448
24.38641
23.59271
22.83144
22.09955
21.39507
20.7166
20.06283
19.43242
18.82421
18.23713
17.67019
17.12254
16.59349
16.08242
15.58878
15.11203
14.65161
14.20703
13.77775
13.36319
12.96284
12.57636
12.20345
11.84373
11.49685
11.16247
10.84031
10.53014
10.2318
9.945158
9.670147
9.406725
9.154862
8.914546
8.685748
8.468433
8.26253
8.068053
7.884889
7.712995
7.552151
7.402228
7.263003
7.133892
7.014476
6.90436
6.803144
6.71042
6.625766
6.548705
6.478812
6.415728
6.359049
6.308318
6.26304
6.222697
6.186757
6.154692
6.125991
6.100172
6.076782
6.055406
6.035674
6.017264
5.999901
5.983347
5.967415
5.951968
5.936909
5.922158
5.907652
5.893337
5.879158
5.865022
5.850942
5.836936
5.823027
5.809243
5.795604
5.782119
5.768791
5.755623
5.742614
5.729764
5.717071
5.704533
5.692143
5.679895
5.667781
5.655786
5.643901
5.632237
5.620789
5.609558
5.598647
5.588154
5.578125
5.568604
5.55961
5.551127
5.543117
5.535537
5.528343
5.521493
5.514941
5.508644
5.502559
5.496643
5.490857
5.485157
5.479508
5.473877
5.468245
5.462607
5.45698
5.451402
5.445931
5.440639
5.435601
5.430862
5.42644
5.422328
5.418489
5.414858
5.411394
5.408087
5.404946
5.401984
5.399222
5.396677
5.39436
5.39227
5.390393
5.388701
5.387154
5.385702
5.384284
5.382841
5.381309
5.379633
5.377761
5.375652
5.373276
5.370613
5.367656
5.364408
5.36088
5.357092
5.353068
5.348837
5.344429
5.339875
5.335204
5.330444
5.325621
5.320759
5.315878
5.310998
5.306132
5.301296
5.296499
5.291751
5.287061
5.282435
5.277878
5.273395
5.268992
5.264671
5.260437
5.256293
5.252241
5.248286
5.244433
5.24069
5.237073
5.233599
5.230291
5.227173
5.224268
5.221594
5.219163
5.216982
5.215055
5.213357
5.211857
5.210549
5.209415
5.20843
5.207576
5.206834
5.206188
5.205625
5.205137
5.204715
5.204355
5.204055
5.203812
5.203626
5.203497
5.203428
5.203418
5.20347
5.203584
5.203761
5.204003
5.204311
5.204686
5.205129
5.205643
5.206227
5.206884
5.207613
5.208414
5.209288
5.210233
5.211247
5.212329
5.213475
5.214681
5.215943
5.217256
5.21862
5.220039
5.221529
5.223073
5.224651
5.226284
5.227985
5.229754
5.231589
5.233506
5.235518
5.237634
5.239857
5.242185
5.244613
5.247133
5.249733
5.252397
5.255111
5.25786
5.260632
5.263413
5.266191
5.268952
5.271687
5.274383
5.277032
5.279618
5.28213
5.284552
5.286868
5.289058
5.291098
5.29296
5.29461
5.296015
5.297144
5.297984
5.298544
5.298849
5.29893
5.298811
5.298514
5.29806
5.297465
5.296747
5.295916
5.294987
5.293969
5.292875
5.291715
5.290499
5.289244
5.287932
5.286583
5.285203
5.2838
5.28238
5.280948
5.279509
5.278068
5.276639
5.275223
5.27378
5.272338
5.270901
5.269472
5.268055
5.266654
5.265271
5.263911
5.262594
5.261379
5.260302
5.259373
5.258581
5.257903
5.257304
5.256748
5.256198
5.255618
5.254978
5.254252
5.253418
5.252462
5.251375
5.250151
5.24879
5.247295
5.245671
5.243927
5.242072
5.240117
5.238073
5.235951
5.233764
5.231521
5.229233
5.226909
5.224559
5.22219
5.219811
5.217428
5.215047
5.212675
5.210317
5.207977
5.205661
5.203373
5.201118
5.198901
5.196726
5.194599
5.192526
5.190512
5.188563
5.186684
5.184876
5.183138
5.181468
5.179861
5.178315
5.176828
5.1754
5.174028
5.172715
5.171457
5.170251
5.169088
5.167962
5.166866
5.165792
5.164733
5.163679
5.162623
5.161554
5.160463
5.159343
5.158186
5.156986
5.155738
5.15444
5.153089
5.151687
5.150233
5.148731
5.147183
5.145593
5.143966
5.142307
5.140621
5.138913
5.137188
5.135451
5.133706
5.13196
5.130215
5.128475
5.126745
5.125027
5.123324
5.121638
5.119972
5.118327
5.116704
5.115104
5.113529
5.111978
5.110453
5.108952
5.107477
5.106027
5.104601
5.103199
5.101821
5.100465
5.09913
5.097814
5.096517
5.095237
5.093971
5.09272
5.09148
5.09025
5.089027
5.08781
5.086596
5.085383
5.084167
5.082945
5.081713
5.080467
5.079202
5.077911
5.076589
5.075226
5.073814
5.072339
5.070789
5.069145
5.067389
5.065495
5.063434
5.061173
5.058675
5.0559
5.05281
5.049377
5.045602
5.041581
5.037871
76.86474
52.31752
48.58763
46.3511
45.52086
44.31358
43.27183
42.33636
41.51496
40.24241
36.97647
36.66093
36.39878
36.19525
36.02358
35.88523
35.8404
35.93284
36.19271
36.61881
37.10303
37.63463
38.35706
39.29839
40.44825
41.78355
43.24452
44.67331
46.01529
47.20098
48.10723
48.50409
48.56075
48.25055
47.57103
46.60431
45.44169
44.13693
42.70421
41.20079
39.68881
38.1927
36.73414
35.3298
33.98491
32.71535
31.52315
30.40851
29.36798
28.39782
27.49279
26.6489
25.86052
25.11932
24.41751
23.75032
23.11109
22.49513
21.89936
21.32121
20.75805
20.2079
19.66946
19.14177
18.62408
18.11587
17.6167
17.1264
16.64492
16.17234
15.70892
15.25501
14.811
14.37719
13.95384
13.5411
13.13914
12.74813
12.36818
11.99932
11.64155
11.2948
10.95906
10.63434
10.3206
10.01784
9.726086
9.445391
9.175813
8.917403
8.670218
8.434293
8.209634
7.996211
7.793969
7.602738
7.42233
7.25252
7.092957
6.943347
6.80342
6.673013
6.5519
6.439815
6.33645
6.241461
6.154456
6.075168
6.003392
5.938822
5.881077
5.829716
5.784249
5.744151
5.708874
5.677864
5.650573
5.626468
5.605041
5.585823
5.568398
5.552411
5.537518
5.523359
5.509837
5.496866
5.484343
5.472168
5.460254
5.448532
5.437007
5.425589
5.414218
5.40286
5.391502
5.380146
5.3688
5.357478
5.346196
5.334971
5.323822
5.312766
5.301819
5.290996
5.280307
5.269764
5.259377
5.249155
5.23913
5.229337
5.219819
5.210612
5.201741
5.193217
5.185049
5.177229
5.169735
5.162538
5.155602
5.148898
5.142393
5.136058
5.129867
5.123794
5.117819
5.111923
5.106091
5.100308
5.094568
5.088868
5.083215
5.077621
5.072106
5.066693
5.061406
5.05626
5.051256
5.046383
5.041621
5.036951
5.032352
5.027818
5.023352
5.018962
5.014658
5.010454
5.00637
5.002421
4.998622
4.994979
4.991489
4.988141
4.984915
4.981781
4.978705
4.975648
4.972567
4.969423
4.96618
4.962806
4.959276
4.955574
4.95169
4.947622
4.943377
4.938965
4.934401
4.929703
4.924892
4.919989
4.915015
4.90999
4.904935
4.899867
4.894801
4.889753
4.884735
4.879758
4.874831
4.869963
4.865161
4.860431
4.85578
4.851212
4.846733
4.842346
4.838057
4.83387
4.829787
4.825812
4.821951
4.818209
4.814591
4.811107
4.807765
4.804574
4.801543
4.798678
4.795986
4.793473
4.791132
4.788947
4.786919
4.78504
4.783303
4.781701
4.780225
4.778867
4.77762
4.776479
4.775439
4.774496
4.773648
4.772893
4.772228
4.771654
4.771169
4.770771
4.77046
4.770236
4.770095
4.770039
4.770065
4.770172
4.770361
4.770629
4.770976
4.771402
4.771905
4.772483
4.773136
4.77386
4.774655
4.775517
4.776442
4.777428
4.778471
4.779568
4.780716
4.781915
4.783169
4.784502
4.785919
4.787385
4.788886
4.790418
4.791982
4.793582
4.795223
4.796909
4.798645
4.800433
4.802275
4.804169
4.806113
4.808104
4.810137
4.812204
4.814301
4.81642
4.818553
4.820693
4.822831
4.82496
4.82707
4.829151
4.831192
4.833183
4.835109
4.836955
4.838704
4.840336
4.84183
4.843166
4.844327
4.845304
4.8461
4.846726
4.847199
4.847534
4.847745
4.847844
4.847842
4.847749
4.847572
4.847318
4.846992
4.8466
4.846148
4.845641
4.845084
4.844479
4.84383
4.843141
4.842416
4.84166
4.840876
4.840068
4.83924
4.838406
4.837561
4.836684
4.83579
4.834884
4.833969
4.83305
4.83213
4.831212
4.830296
4.829389
4.828501
4.827642
4.826823
4.82605
4.825325
4.824645
4.824006
4.823396
4.822805
4.822219
4.821626
4.821013
4.82037
4.819686
4.818954
4.818167
4.817321
4.816413
4.815441
4.814405
4.813307
4.812148
4.81093
4.809658
4.808334
4.806962
4.805547
4.804091
4.8026
4.801077
4.799527
4.797954
4.796361
4.794753
4.793134
4.791508
4.78988
4.788254
4.786634
4.785025
4.783433
4.781861
4.780316
4.778801
4.777321
4.775879
4.774475
4.77311
4.771784
4.770495
4.769246
4.768035
4.766863
4.765732
4.764641
4.763588
4.762572
4.761589
4.760638
4.759716
4.75882
4.757947
4.757093
4.756253
4.755423
4.754598
4.753772
4.752939
4.752095
4.751235
4.750354
4.74945
4.748518
4.747558
4.746568
4.745548
4.744496
4.743415
4.742305
4.741169
4.740007
4.738823
4.73762
4.736399
4.735164
4.733918
4.732663
4.731402
4.730137
4.728872
4.727607
4.726346
4.72509
4.723841
4.7226
4.721368
4.720147
4.718937
4.717739
4.716554
4.715381
4.714221
4.713075
4.71194
4.710819
4.709709
4.70861
4.707522
4.706443
4.705373
4.70431
4.703254
4.702202
4.701153
4.700105
4.699056
4.698003
4.696944
4.695875
4.694793
4.693694
4.692573
4.691423
4.690239
4.689013
4.687735
4.686394
4.684979
4.683473
4.68186
4.680121
4.678232
4.676172
4.673915
4.671442
4.668735
4.665797
4.662695
4.65984
94.50114
38.66705
31.23337
29.99495
29.54395
29.42363
29.52027
29.7445
30.06495
30.47129
30.83165
31.0133
31.21533
31.4653
31.77139
32.14942
32.62731
33.23117
33.97265
34.85306
35.86595
37.0642
38.41775
39.93304
41.5968
43.27496
44.88641
46.20616
47.14527
47.73478
47.91633
47.71218
47.08501
46.08785
44.76731
43.22087
41.53325
39.77696
37.99864
36.24963
34.5727
32.98636
31.5032
30.12975
28.86268
27.70719
26.6582
25.70941
24.8555
24.08672
23.39305
22.76566
22.19628
21.6767
21.19903
20.75367
20.33308
19.9322
19.54611
19.17076
18.80256
18.43859
18.07659
17.71481
17.35194
16.98692
16.6191
16.24827
15.87364
15.49607
15.11725
14.7386
14.36133
13.98647
13.6149
13.24744
12.88475
12.52739
12.17592
11.83082
11.49254
11.16154
10.83823
10.52296
10.21604
9.917768
9.628427
9.348313
9.077698
8.816875
8.566093
8.325518
8.095255
7.875406
7.665786
7.466094
7.276225