/*--------------------------------*- C++ -*----------------------------------*\
| =========                 |                                                 |
| \\      /  F ield         | foam-extend: Open Source CFD                    |
|  \\    /   O peration     | Version:     3.1                                |
|   \\  /    A nd           | Web:         http://www.extend-project.de       |
|    \\/     M anipulation  |                                                 |
\*---------------------------------------------------------------------------*/
FoamFile
{
    version     2.0;
    format      ascii;
    class       volScalarField;
    location    "2.5";
    object      p;
}
// * * * * * * * * * * * * * * * * * * * * * * * * * * * * * * * * * * * * * //

dimensions      [1 -1 -2 0 0 0 0];

internalField   nonuniform List<scalar> 
119952
(
8275.077
8102.683
8059.166
8071.409
8087.95
8055.01
8036.523
8020.107
8004.736
7990.002
7975.668
7961.578
7947.632
7933.826
7919.921
7906.007
7891.868
7877.117
7860.572
7835.74
7868.911
7827.067
7803.672
7847.946
7822.375
7815.578
7804.525
7805.453
7843.086
7207.366
8268.833
8255.525
8246.491
8237.905
8228.893
8220.292
8211.438
8202.979
8194.376
8181.38
8155.876
8144.855
8133.001
8121.125
8109.24
8097.548
8085.856
8074.054
8062.394
8024.204
8008.509
7995.965
7984.369
7972.876
7961.605
7950.473
7939.439
7928.668
7918.219
7905.972
7895.548
7885.337
7875.043
7864.904
7854.877
7845.002
7835.994
7832.532
7839.655
7812.673
7798.823
7795.411
7787.399
7773.271
7757.819
7743.218
7729.102
7715.307
7701.783
7688.438
7675.209
7662.042
7648.872
7635.625
7622.217
7608.529
7594.588
7580.98
7570.655
7558.822
7545.191
7542.546
7542.739
7532.198
7522.594
7512.623
7494.456
7452.264
7435.242
7425.396
7413.608
7401.709
7389.287
7376.576
7363.653
7350.567
7337.353
7324.036
7310.634
7297.162
7283.63
7270.047
7256.423
7242.767
7229.086
7215.386
7201.676
7187.961
7174.249
7160.546
7146.859
7133.195
7119.561
7105.963
7092.409
7078.906
7065.461
7052.08
7038.771
7025.54
7012.395
6999.342
6986.388
6973.541
6960.806
6948.191
6935.702
6923.344
6911.124
6899.048
6887.12
6875.345
6863.726
6852.262
6840.947
6829.774
6818.914
6808.425
6797.98
6787.734
6777.68
6767.823
6758.171
6748.73
6739.503
6730.49
6721.697
6713.125
6704.776
6696.654
6688.759
6681.092
6673.654
6666.446
6659.469
6652.721
6646.204
6639.917
6633.858
6628.027
6622.424
6617.046
6611.892
6606.961
6602.249
6597.756
6593.48
6589.417
6585.565
6581.921
6578.483
6575.248
6572.212
6569.372
6566.726
6564.269
6561.997
6559.908
6557.997
6556.26
6554.689
6553.274
6552.034
6550.942
6549.972
6549.113
6548.603
6579.757
6578.746
6578.653
6578.674
6578.801
6579.041
6579.396
6579.864
6580.445
6581.137
6581.938
6582.842
6583.846
6584.947
6586.139
6587.421
6588.787
6590.234
6591.756
6593.35
6595.011
6596.737
6598.523
6600.364
6602.255
6604.19
6606.163
6608.164
6610.184
6612.21
6614.219
6616.177
6618.026
6619.638
6620.651
6620.894
6625.337
6629.085
6632.548
6635.848
6639.061
6642.22
6645.341
6648.436
6651.51
6654.567
6657.61
6660.64
6663.66
6666.669
6669.667
6672.656
6675.634
6678.601
6681.557
6684.501
6687.433
6690.353
6693.258
6696.15
6699.028
6701.89
6704.738
6707.57
6710.387
6713.188
6715.975
6718.753
6721.514
6724.224
6700.667
6700.825
6701.989
6704.5
6706.895
6709.369
6711.855
6714.334
6716.814
6719.276
6721.716
6724.132
6726.524
6728.891
6731.232
6733.548
6735.839
6738.104
6740.344
6742.558
6744.746
6746.909
6749.046
6751.158
6753.245
6755.307
6757.343
6759.354
6761.341
6763.304
6765.243
6767.158
6769.05
6770.92
6772.767
6774.594
6776.401
6778.19
6779.962
6781.722
6783.473
6785.224
6786.988
6788.789
6790.637
6792.385
6793.752
6794.973
6796.273
6797.583
6798.899
6800.222
6801.542
6802.739
6802.661
6804.512
6806
6807.178
6808.338
6809.485
6810.621
6811.739
6812.845
6813.934
6815.003
6816.054
6817.084
6818.094
6819.085
6820.055
6821.006
6821.938
6822.85
6823.744
6824.618
6825.474
6826.311
6827.129
6827.928
6828.709
6829.472
6830.216
6830.942
6831.649
6832.337
6833.008
6833.659
6834.292
6834.906
6835.502
6836.079
6836.636
6837.175
6837.694
6838.194
6838.674
6839.134
6839.574
6839.994
6840.393
6840.772
6841.129
6841.464
6841.777
6842.068
6842.335
6842.579
6842.799
6842.995
6843.165
6843.309
6843.425
6843.514
6843.575
6843.605
6843.603
6843.569
6843.501
6843.396
6843.252
6843.067
6842.837
6842.559
6842.228
6841.839
6841.383
6840.853
6840.236
6839.516
6838.669
6837.665
6836.454
6834.956
6833.038
6830.466
6826.935
6822.756
6823.144
6843.1
8400.117
8396.505
8391.293
8385.988
8380.543
8375.22
8369.737
8364.671
8358.148
8330.588
8324.544
8315.41
8305.705
8295.99
8286.206
8276.499
8266.615
8256.39
8217.291
8207.903
8194.843
8183.595
8172.982
8162.342
8151.655
8140.909
8129.981
8119.184
8107.911
8095.136
8084.066
8072.596
8060.955
8049.321
8037.611
8025.826
8014.235
8003.094
7988.673
7976.411
7964.961
7953.142
7941.25
7929.405
7917.472
7905.591
7893.306
7881.233
7869.587
7857.528
7845.454
7833.48
7821.62
7809.843
7798.146
7786.497
7710.808
7699.544
7687.729
7676.006
7664.56
7653.313
7642.182
7631.155
7620.203
7609.358
7598.736
7588.046
7577.451
7567.101
7557.039
7547.335
7538.206
7529.943
7522.518
7514.703
7503.412
7491.32
7481.069
7470.791
7458.762
7445.32
7431.615
7418.123
7404.825
7391.645
7378.552
7365.526
7352.538
7339.555
7326.55
7313.517
7300.508
7287.679
7275.34
7263.802
7252.971
7242.956
7234.644
7226.977
7217.172
7205.11
7190.542
7173.121
7152.221
7133.904
7119.864
7107.065
7094.248
7081.288
7068.239
7055.107
7041.882
7028.568
7015.175
7001.715
6988.196
6974.626
6961.012
6947.362
6933.682
6919.981
6906.264
6892.538
6878.81
6865.087
6851.374
6837.679
6824.008
6810.369
6796.768
6783.211
6769.708
6756.263
6742.884
6729.578
6716.351
6703.212
6690.166
6677.221
6664.383
6651.66
6639.057
6626.581
6614.239
6602.036
6589.978
6578.07
6566.319
6554.728
6543.303
6532.055
6521.004
6510.175
6499.604
6489.183
6478.944
6468.909
6459.08
6449.46
6440.051
6430.857
6421.882
6413.127
6404.594
6396.285
6388.203
6380.348
6372.722
6365.326
6358.16
6351.224
6344.519
6338.044
6331.799
6325.783
6319.995
6314.434
6309.1
6303.989
6299.1
6294.432
6289.983
6285.749
6281.729
6277.92
6274.319
6270.924
6267.73
6264.736
6261.938
6259.333
6256.917
6254.686
6252.637
6250.765
6249.068
6247.541
6246.183
6244.975
6243.925
6243.037
6242.305
6241.814
6303.023
6302.601
6302.449
6302.443
6302.561
6302.801
6303.161
6303.637
6304.226
6304.93
6305.742
6306.658
6307.673
6308.783
6309.985
6311.274
6312.649
6314.106
6315.635
6317.234
6318.901
6320.632
6322.423
6324.268
6326.163
6328.102
6330.077
6332.081
6334.104
6336.133
6338.148
6340.124
6342.031
6343.84
6345.593
6347.614
6350.578
6353.879
6357.119
6360.316
6363.466
6366.582
6369.671
6372.741
6375.794
6378.834
6381.863
6384.881
6387.891
6390.891
6393.882
6396.864
6399.837
6402.799
6405.75
6408.691
6411.619
6414.535
6417.437
6420.326
6423.201
6426.061
6428.905
6431.735
6434.549
6437.349
6440.137
6442.917
6445.705
6448.551
6390.755
6393.496
6395.806
6398.135
6400.608
6403.131
6405.643
6408.134
6410.606
6413.06
6415.492
6417.901
6420.286
6422.646
6424.981
6427.291
6429.576
6431.835
6434.069
6436.277
6438.46
6440.617
6442.75
6444.857
6446.938
6448.995
6451.027
6453.034
6455.016
6456.974
6458.909
6460.819
6462.707
6464.573
6466.416
6468.238
6470.041
6471.825
6473.592
6475.344
6477.085
6478.818
6480.543
6482.255
6483.929
6485.517
6486.97
6488.337
6489.685
6491.029
6492.367
6493.7
6495.034
6496.339
6497.434
6498.482
6499.638
6500.803
6501.942
6503.068
6504.188
6505.298
6506.395
6507.476
6508.539
6509.584
6510.608
6511.614
6512.599
6513.565
6514.511
6515.439
6516.347
6517.236
6518.106
6518.958
6519.791
6520.605
6521.401
6522.179
6522.938
6523.678
6524.4
6525.104
6525.79
6526.456
6527.105
6527.734
6528.345
6528.938
6529.511
6530.066
6530.601
6531.117
6531.613
6532.09
6532.547
6532.984
6533.4
6533.796
6534.17
6534.524
6534.855
6535.164
6535.451
6535.715
6535.955
6536.17
6536.361
6536.527
6536.666
6536.778
6536.862
6536.917
6536.941
6536.934
6536.894
6536.819
6536.708
6536.557
6536.365
6536.128
6535.843
6535.505
6535.108
6534.648
6534.114
6533.496
6532.782
6531.954
6530.99
6529.862
6528.542
6527.012
6525.357
6523.829
6523.285
6524.054
6526.965
8134.651
8260.781
8367.715
8454.849
8522.441
8571.793
8604.798
8623.701
8630.751
8625.784
8596.584
8579.882
8558.953
8536.064
8512.065
8487.796
8463.818
8440.448
8418.981
8364.797
8344.173
8324.628
8307.177
8291.021
8276.171
8262.507
8249.9
8238.211
8228.287
8216.061
8206.16
8197
8187.941
8179.289
8170.865
8162.579
8154.466
8147.009
8137.721
8127.73
8119.939
8111.802
8103.336
8094.817
8086.099
8077.252
8068.202
8058.52
8049.307
8039.727
8029.903
8019.996
8010.077
8000.122
7990.191
7980.536
7905.741
7895.307
7885.06
7874.6
7863.902
7853.135
7842.35
7831.502
7820.549
7809.405
7798.206
7786.926
7775.382
7763.716
7752.049
7740.385
7728.697
7716.971
7705.178
7693.332
7681.347
7669.105
7656.94
7644.92
7632.949
7620.975
7608.989
7596.976
7584.97
7572.98
7560.932
7548.902
7536.937
7525.03
7513.178
7501.389
7489.651
7478.065
7466.726
7454.965
7443.1
7431.497
7420.148
7408.946
7397.834
7386.798
7375.87
7365.023
7354.251
7343.583
7333.078
7322.776
7312.709
7302.925
7293.45
7284.332
7275.436
7266.611
7256.133
7244.673
7233.692
7222.772
7210.932
7198.189
7185.131
7172.107
7159.159
7146.26
7133.402
7120.583
7107.793
7095.021
7082.268
7069.552
7056.929
7044.502
7032.413
7020.859
7009.84
6999.213
6989.278
6979.54
6968.628
6956.017
6941.874
6925.918
6908.444
6891.964
6877.68
6864.266
6851.035
6837.81
6824.573
6811.305
6797.985
6784.601
6771.157
6757.657
6744.105
6730.508
6716.871
6703.199
6689.501
6675.781
6662.046
6648.302
6634.556
6620.814
6607.083
6593.37
6579.68
6566.022
6552.401
6538.825
6525.301
6511.835
6498.435
6485.107
6471.858
6458.696
6445.627
6432.659
6419.797
6407.049
6394.422
6381.922
6369.555
6357.328
6345.246
6333.316
6321.543
6309.935
6298.498
6287.241
6276.178
6265.318
6254.678
6244.227
6233.965
6223.904
6214.048
6204.4
6194.964
6185.744
6176.742
6167.962
6159.404
6151.072
6142.966
6135.088
6127.439
6120.021
6112.833
6105.876
6099.15
6092.655
6086.391
6080.356
6074.55
6068.971
6063.619
6058.491
6053.586
6048.903
6044.438
6040.19
6036.156
6032.333
6028.72
6025.312
6022.107
6019.102
6016.294
6013.679
6011.254
6009.014
6006.957
6005.079
6003.376
6001.844
6000.48
5999.277
5998.235
5997.355
5996.634
5996.083
5995.708
5995.49
5995.379
5995.395
5995.541
5995.812
5996.2
5996.702
5997.311
5998.051
5998.895
5999.839
6000.881
6002.017
6003.243
6004.558
6005.959
6007.453
6008.989
6010.604
6012.29
6014.041
6015.85
6017.713
6019.626
6021.582
6023.575
6025.599
6027.646
6029.707
6031.773
6033.843
6035.927
6038.032
6040.232
6042.659
6045.42
6048.409
6051.469
6054.539
6057.604
6060.662
6063.711
6066.751
6069.783
6072.807
6075.824
6078.833
6081.835
6084.829
6087.816
6090.794
6093.763
6096.722
6099.671
6102.609
6105.535
6108.448
6111.348
6114.235
6117.107
6119.964
6122.805
6125.631
6128.441
6131.236
6134.015
6136.779
6139.523
6142.253
6144.845
6147.286
6149.774
6152.346
6154.941
6157.515
6160.056
6162.569
6165.057
6167.522
6169.961
6172.376
6174.764
6177.128
6179.466
6181.778
6184.065
6186.326
6188.561
6190.771
6192.956
6195.114
6197.248
6199.356
6201.438
6203.496
6205.529
6207.537
6209.52
6211.479
6213.414
6215.325
6217.213
6219.079
6220.922
6222.743
6224.545
6226.326
6228.089
6229.834
6231.562
6233.274
6234.966
6236.63
6238.254
6239.817
6241.296
6242.706
6244.082
6245.444
6246.79
6248.12
6249.423
6250.701
6251.964
6253.143
6254.272
6255.389
6256.503
6257.617
6258.729
6259.834
6260.927
6262.007
6263.07
6264.115
6265.141
6266.148
6267.136
6268.104
6269.053
6269.983
6270.893
6271.785
6272.657
6273.511
6274.347
6275.163
6275.961
6276.741
6277.502
6278.245
6278.969
6279.675
6280.363
6281.032
6281.682
6282.314
6282.927
6283.521
6284.097
6284.653
6285.191
6285.709
6286.207
6286.686
6287.145
6287.584
6288.003
6288.4
6288.778
6289.133
6289.467
6289.779
6290.068
6290.334
6290.576
6290.795
6290.988
6291.156
6291.298
6291.413
6291.5
6291.558
6291.586
6291.582
6291.546
6291.475
6291.368
6291.222
6291.036
6290.805
6290.528
6290.2
6289.817
6289.373
6288.863
6288.277
6287.609
6286.848
6285.986
6285.019
6283.953
6282.824
6281.734
6280.843
6280.424
6280.787
6281.848
6213.735
6304.923
6402.306
6509.817
6638.281
6762.208
6916.526
7076.443
7239.144
7395.061
7547.255
7697.26
7831.688
7950.865
8052.358
8134.925
8198.627
8244.676
8274.96
8291.771
8297.585
8295.041
8286.135
8271.764
8253.477
8232.939
8211.309
8189.408
8167.702
8146.805
8128.056
8037.552
8020.463
8004.664
7988.868
7973.956
7960.31
7947.797
7936.209
7925.383
7915.166
7905.584
7896.287
7887.271
7878.607
7870.264
7862.137
7854.13
7846.167
7838.171
7830.09
7821.652
7813.094
7804.584
7796.046
7787.391
7778.577
7769.591
7760.429
7751.11
7741.557
7731.815
7722
7712.107
7702.131
7692.081
7681.921
7671.724
7661.507
7651.109
7640.449
7629.676
7618.897
7608.126
7597.326
7586.452
7575.472
7564.398
7553.218
7541.856
7530.38
7518.856
7507.295
7495.694
7484.043
7472.337
7460.58
7448.76
7436.784
7424.698
7412.669
7400.719
7388.781
7376.826
7364.852
7352.87
7340.866
7328.854
7316.866
7304.897
7292.948
7281.036
7269.171
7257.365
7245.63
7233.959
7222.284
7210.518
7198.806
7187.251
7175.847
7164.556
7153.36
7142.255
7131.252
7120.34
7109.535
7098.859
7088.323
7077.948
7067.754
7057.755
7047.946
7038.337
7028.79
7019.098
7008.579
6997.479
6986.427
6975.234
6963.502
6951.214
6938.639
6925.991
6913.339
6900.691
6888.055
6875.439
6862.844
6850.273
6837.735
6825.254
6812.872
6800.655
6788.685
6777.047
6765.734
6754.656
6743.8
6732.859
6721.158
6708.349
6694.452
6679.46
6663.795
6648.677
6634.448
6620.748
6607.275
6593.882
6580.514
6567.141
6553.738
6540.291
6526.797
6513.254
6499.667
6486.038
6472.372
6458.674
6444.95
6431.205
6417.445
6403.677
6389.906
6376.139
6362.383
6348.644
6334.928
6321.243
6307.596
6293.993
6280.441
6266.947
6253.519
6240.163
6226.886
6213.695
6200.598
6187.601
6174.712
6161.936
6149.281
6136.753
6124.359
6112.106
6099.999
6088.045
6076.251
6064.623
6053.168
6041.895
6030.811
6019.926
6009.245
5998.762
5988.475
5978.389
5968.51
5958.84
5949.385
5940.146
5931.125
5922.327
5913.752
5905.404
5897.283
5889.391
5881.729
5874.297
5867.097
5860.128
5853.391
5846.886
5840.611
5834.567
5828.752
5823.166
5817.806
5812.671
5807.761
5803.071
5798.601
5794.349
5790.311
5786.485
5782.869
5779.459
5776.252
5773.246
5770.436
5767.821
5765.395
5763.157
5761.101
5759.225
5757.525
5755.997
5754.638
5753.443
5752.411
5751.541
5750.829
5750.277
5749.886
5749.634
5749.516
5749.532
5749.677
5749.946
5750.334
5750.83
5751.401
5752.174
5753.028
5753.977
5755.021
5756.16
5757.39
5758.705
5760.101
5761.561
5763.133
5764.767
5766.464
5768.225
5770.043
5771.917
5773.841
5775.81
5777.82
5779.865
5781.941
5784.045
5786.173
5788.328
5790.519
5792.767
5795.117
5797.629
5800.351
5803.236
5806.198
5809.19
5812.196
5815.21
5818.227
5821.242
5824.256
5827.267
5830.274
5833.276
5836.273
5839.264
5842.248
5845.225
5848.193
5851.153
5854.102
5857.041
5859.968
5862.883
5865.785
5868.673
5871.547
5874.405
5877.248
5880.075
5882.884
5885.676
5888.449
5891.201
5893.923
5896.613
5899.24
5901.82
5904.402
5906.986
5909.557
5912.11
5914.642
5917.151
5919.638
5922.102
5924.542
5926.957
5929.348
5931.713
5934.053
5936.368
5938.657
5940.92
5943.158
5945.37
5947.556
5949.717
5951.852
5953.962
5956.046
5958.105
5960.138
5962.147
5964.132
5966.091
5968.027
5969.938
5971.826
5973.691
5975.534
5977.354
5979.152
5980.93
5982.687
5984.423
5986.139
5987.832
5989.501
5991.138
5992.735
5994.282
5995.769
5997.202
5998.601
5999.976
6001.329
6002.659
6003.964
6005.248
6006.504
6007.695
6008.845
6009.983
6011.117
6012.245
6013.364
6014.471
6015.565
6016.644
6017.706
6018.751
6019.777
6020.785
6021.774
6022.743
6023.694
6024.625
6025.537
6026.431
6027.305
6028.161
6028.998
6029.817
6030.617
6031.398
6032.161
6032.906
6033.632
6034.34
6035.029
6035.7
6036.352
6036.986
6037.601
6038.197
6038.775
6039.333
6039.872
6040.392
6040.893
6041.374
6041.835
6042.276
6042.697
6043.097
6043.476
6043.834
6044.17
6044.485
6044.777
6045.046
6045.291
6045.513
6045.709
6045.881
6046.027
6046.145
6046.237
6046.299
6046.332
6046.334
6046.303
6046.239
6046.139
6046.002
6045.826
6045.607
6045.344
6045.034
6044.672
6044.255
6043.779
6043.239
6042.632
6041.955
6041.209
6040.401
6039.553
6038.704
6037.927
6037.32
6037.009
6037.092
6037.451
5876.764
5865.875
5858.544
5830.529
5816.918
5778.363
5778.748
5786.997
5805.326
5834.956
5878.49
5933.202
6006.395
6097.012
6202.217
6323.434
6426.815
6581.054
6743.155
6907.413
7071.403
7232.761
7386.92
7525.922
7646.185
7746.281
7825.938
7886.08
7928.474
7955.4
7969.382
7972.953
7968.346
7957.444
7941.98
7923.464
7903.225
7882.279
7861.168
7840.368
7820.511
7801.505
7782.548
7765.676
7750.425
7735.812
7722.042
7709.362
7697.7
7686.867
7676.732
7667.191
7658.082
7649.289
7640.826
7632.655
7624.704
7616.891
7609.138
7601.378
7593.574
7585.619
7577.395
7569.061
7560.705
7552.259
7543.656
7534.866
7525.891
7516.728
7507.364
7497.816
7488.118
7478.289
7468.347
7458.299
7448.163
7437.934
7427.645
7417.298
7406.752
7396.048
7385.302
7374.551
7363.767
7352.915
7341.978
7330.948
7319.824
7308.583
7297.229
7285.803
7274.314
7262.76
7251.147
7239.481
7227.763
7215.989
7204.146
7192.221
7180.246
7168.275
7156.32
7144.363
7132.393
7120.41
7108.418
7096.414
7084.416
7072.43
7060.454
7048.496
7036.569
7024.681
7012.836
7001.038
6989.273
6977.542
6965.836
6954.178
6942.61
6931.152
6919.798
6908.542
6897.382
6886.321
6875.36
6864.509
6853.775
6843.168
6832.701
6822.384
6812.21
6802.11
6792.103
6782.08
6771.907
6761.368
6750.424
6739.291
6727.967
6716.311
6704.301
6692.058
6679.705
6667.307
6654.886
6642.457
6630.03
6617.615
6605.218
6592.854
6580.542
6568.313
6556.208
6544.268
6532.525
6520.961
6509.503
6498.059
6486.429
6474.281
6461.402
6447.784
6433.531
6418.895
6404.385
6390.269
6376.5
6362.923
6349.43
6335.969
6322.51
6309.032
6295.521
6281.971
6268.38
6254.749
6241.08
6227.376
6213.641
6199.882
6186.102
6172.308
6158.505
6144.7
6130.898
6117.107
6103.332
6089.581
6075.861
6062.177
6048.538
6034.95
6021.421
6007.956
5994.565
5981.253
5968.028
5954.896
5941.866
5928.943
5916.135
5903.449
5890.891
5878.469
5866.188
5854.055
5842.077
5830.26
5818.611
5807.137
5795.845
5784.742
5773.834
5763.127
5752.619
5742.311
5732.208
5722.314
5712.631
5703.164
5693.915
5684.887
5676.081
5667.501
5659.148
5651.024
5643.13
5635.466
5628.035
5620.836
5613.869
5607.135
5600.633
5594.363
5588.324
5582.515
5576.935
5571.583
5566.456
5561.554
5556.873
5552.413
5548.171
5544.144
5540.329
5536.724
5533.326
5530.132
5527.139
5524.343
5521.74
5519.329
5517.105
5515.064
5513.203
5511.518
5510.006
5508.663
5507.486
5506.472
5505.619
5504.923
5504.383
5503.993
5503.747
5503.642
5503.671
5503.828
5504.115
5504.524
5505.06
5505.749
5506.456
5507.295
5508.246
5509.298
5510.447
5511.687
5513.014
5514.423
5515.91
5517.481
5519.123
5520.833
5522.606
5524.44
5526.329
5528.271
5530.261
5532.294
5534.369
5536.48
5538.628
5540.812
5543.034
5545.306
5547.645
5550.079
5552.638
5555.341
5558.161
5561.056
5563.993
5566.957
5569.938
5572.929
5575.927
5578.928
5581.929
5584.929
5587.928
5590.922
5593.913
5596.897
5599.875
5602.845
5605.807
5608.759
5611.7
5614.63
5617.548
5620.453
5623.344
5626.22
5629.081
5631.925
5634.753
5637.563
5640.354
5643.125
5645.873
5648.594
5651.289
5653.948
5656.571
5659.169
5661.749
5664.315
5666.864
5669.395
5671.904
5674.391
5676.856
5679.296
5681.712
5684.104
5686.471
5688.812
5691.128
5693.419
5695.684
5697.923
5700.136
5702.324
5704.486
5706.622
5708.733
5710.818
5712.878
5714.912
5716.922
5718.906
5720.866
5722.802
5724.713
5726.6
5728.464
5730.305
5732.122
5733.917
5735.69
5737.441
5739.169
5740.873
5742.553
5744.204
5745.824
5747.407
5748.946
5750.438
5751.885
5753.298
5754.683
5756.042
5757.375
5758.683
5759.963
5761.21
5762.417
5763.594
5764.755
5765.903
5767.039
5768.161
5769.27
5770.364
5771.442
5772.503
5773.546
5774.572
5775.579
5776.567
5777.537
5778.487
5779.419
5780.332
5781.225
5782.101
5782.957
5783.795
5784.615
5785.416
5786.198
5786.962
5787.708
5788.435
5789.144
5789.834
5790.506
5791.16
5791.795
5792.411
5793.009
5793.588
5794.147
5794.688
5795.21
5795.712
5796.195
5796.658
5797.101
5797.523
5797.925
5798.307
5798.667
5799.005
5799.322
5799.616
5799.888
5800.137
5800.362
5800.562
5800.738
5800.887
5801.011
5801.107
5801.175
5801.214
5801.223
5801.201
5801.145
5801.056
5800.931
5800.769
5800.567
5800.323
5800.036
5799.702
5799.32
5798.887
5798.401
5797.863
5797.272
5796.636
5795.964
5795.28
5794.616
5794.022
5793.558
5793.287
5793.23
5793.329
5929.139
5905.078
5878.206
5836.63
5808.498
5746.797
5719.438
5692.609
5666.52
5641.2
5616.883
5594.138
5573.59
5555.99
5541.157
5470.921
5469.011
5474.93
5490.318
5516.505
5555.677
5609.985
5679.753
5765.51
5869.85
5990.855
6126.328
6279.078
6442.015
6610.52
6778.862
6943.807
7099.772
7240.457
7361.982
7462.844
7543.069
7603.833
7647.071
7675.141
7690.555
7695.765
7693.005
7684.182
7670.943
7654.694
7636.615
7617.442
7597.586
7577.976
7559.247
7541.427
7524.592
7509.16
7495.004
7481.707
7469.211
7457.607
7446.87
7436.876
7427.506
7418.64
7410.16
7402
7394.113
7386.435
7378.895
7371.43
7363.974
7356.467
7348.858
7341.097
7333.155
7325.064
7316.846
7308.476
7299.929
7291.175
7282.227
7273.08
7263.736
7254.21
7244.518
7234.677
7224.708
7214.626
7204.447
7194.175
7183.818
7173.375
7162.803
7152.124
7141.391
7130.623
7119.787
7108.859
7097.843
7086.739
7075.542
7064.247
7052.861
7041.397
7029.861
7018.261
7006.604
6994.893
6983.131
6971.316
6959.447
6947.526
6935.565
6923.586
6911.603
6899.615
6887.62
6875.613
6863.599
6851.579
6839.562
6827.552
6815.553
6803.572
6791.618
6779.698
6767.81
6755.949
6744.126
6732.351
6720.614
6708.927
6697.315
6685.798
6674.377
6663.051
6651.819
6640.685
6629.65
6618.719
6607.897
6597.188
6586.594
6576.113
6565.733
6555.476
6545.24
6534.959
6524.554
6513.912
6502.994
6491.872
6480.565
6469.023
6457.232
6445.25
6433.151
6420.984
6408.775
6396.539
6384.291
6372.041
6359.799
6347.576
6335.391
6323.261
6311.212
6299.261
6287.414
6275.65
6263.906
6252.096
6240.091
6227.711
6214.832
6201.444
6187.628
6173.534
6159.419
6145.48
6131.737
6118.12
6104.564
6091.034
6077.505
6063.961
6050.39
6036.785
6023.143
6009.465
5995.751
5982.005
5968.23
5954.431
5940.613
5926.781
5912.94
5899.097
5885.257
5871.428
5857.616
5843.827
5830.069
5816.348
5802.671
5789.046
5775.479
5761.978
5748.55
5735.202
5721.941
5708.775
5695.71
5682.755
5669.915
5657.197
5644.61
5632.159
5619.85
5607.692
5595.69
5583.851
5572.181
5560.687
5549.376
5538.254
5527.327
5516.598
5506.071
5495.746
5485.629
5475.722
5466.029
5456.553
5447.297
5438.264
5429.455
5420.873
5412.519
5404.396
5396.504
5388.844
5381.418
5374.224
5367.265
5360.539
5354.047
5347.788
5341.76
5335.964
5330.397
5325.058
5319.947
5315.06
5310.396
5305.953
5301.728
5297.719
5293.923
5290.337
5286.959
5283.785
5280.812
5278.036
5275.455
5273.065
5270.863
5268.844
5267.006
5265.344
5263.855
5262.536
5261.383
5260.393
5259.563
5258.89
5258.37
5258
5257.774
5257.688
5257.737
5257.918
5258.22
5258.648
5259.198
5259.868
5260.627
5261.494
5262.467
5263.54
5264.709
5265.969
5267.317
5268.748
5270.259
5271.848
5273.51
5275.24
5277.036
5278.892
5280.806
5282.774
5284.792
5286.856
5288.966
5291.118
5293.311
5295.548
5297.831
5300.168
5302.573
5305.06
5307.646
5310.338
5313.122
5315.976
5318.877
5321.81
5324.767
5327.74
5330.724
5333.715
5336.71
5339.706
5342.702
5345.696
5348.687
5351.673
5354.653
5357.626
5360.59
5363.545
5366.49
5369.424
5372.345
5375.253
5378.147
5381.026
5383.89
5386.737
5389.566
5392.377
5395.168
5397.939
5400.686
5403.409
5406.105
5408.771
5411.404
5414.011
5416.599
5419.17
5421.723
5424.256
5426.766
5429.254
5431.719
5434.16
5436.577
5438.969
5441.336
5443.678
5445.994
5448.285
5450.55
5452.79
5455.003
5457.191
5459.353
5461.489
5463.6
5465.685
5467.744
5469.778
5471.787
5473.771
5475.73
5477.664
5479.573
5481.459
5483.32
5485.157
5486.971
5488.762
5490.529
5492.272
5493.992
5495.686
5497.354
5498.994
5500.602
5502.174
5503.709
5505.203
5506.658
5508.079
5509.471
5510.834
5512.171
5513.48
5514.762
5516.013
5517.234
5518.428
5519.601
5520.757
5521.897
5523.022
5524.132
5525.225
5526.302
5527.362
5528.405
5529.429
5530.435
5531.422
5532.39
5533.34
5534.271
5535.184
5536.077
5536.952
5537.809
5538.647
5539.466
5540.267
5541.05
5541.814
5542.56
5543.287
5543.997
5544.688
5545.36
5546.014
5546.65
5547.267
5547.866
5548.446
5549.007
5549.549
5550.072
5550.575
5551.06
5551.524
5551.969
5552.393
5552.798
5553.181
5553.543
5553.884
5554.204
5554.501
5554.776
5555.028
5555.257
5555.461
5555.641
5555.796
5555.925
5556.027
5556.102
5556.148
5556.165
5556.152
5556.108
5556.031
5555.92
5555.774
5555.591
5555.369
5555.108
5554.806
5554.461
5554.074
5553.643
5553.171
5552.661
5552.121
5551.563
5551.005
5550.474
5550.003
5549.63
5549.388
5549.283
5549.289
5921.72
5854.035
5797.197
5741.717
5694.013
5655.092
5621.046
5590.29
5561.798
5533.268
5440.741
5413.519
5386.609
5360.341
5334.782
5310.115
5286.724
5264.987
5245.561
5229.684
5217.731
5212.141
5213.201
5223.056
5243.586
5276.588
5323.913
5387.789
5469.845
5571.657
5693.313
5830.896
5984.186
6148.921
6319.385
6489.546
6654.545
6809.207
6948.336
7068.326
7167.782
7246.984
7307.337
7350.899
7380.032
7397.162
7404.611
7404.525
7398.694
7388.577
7375.515
7360.616
7344.52
7327.745
7310.916
7294.192
7278.031
7263.037
7249.281
7236.613
7224.829
7213.823
7203.578
7194.058
7185.167
7176.8
7168.854
7161.226
7153.837
7146.631
7139.558
7132.553
7125.559
7118.522
7111.386
7104.08
7096.596
7088.925
7081.062
7073.012
7064.77
7056.344
7047.627
7038.713
7029.595
7020.273
7010.758
7001.067
6991.225
6981.246
6971.15
6960.953
6950.647
6940.25
6929.775
6919.189
6908.479
6897.674
6886.796
6875.849
6864.826
6853.722
6842.535
6831.262
6819.9
6808.448
6796.912
6785.307
6773.642
6761.92
6750.144
6738.315
6726.436
6714.511
6702.544
6690.542
6678.519
6666.487
6654.449
6642.405
6630.354
6618.299
6606.241
6594.185
6582.136
6570.099
6558.078
6546.08
6534.109
6522.174
6510.284
6498.434
6486.62
6474.851
6463.137
6451.493
6439.933
6428.463
6417.083
6405.795
6394.603
6383.51
6372.517
6361.627
6350.842
6340.159
6329.574
6319.073
6308.637
6298.214
6287.755
6277.204
6266.494
6255.59
6244.513
6233.271
6221.847
6210.236
6198.467
6186.585
6174.624
6162.609
6150.554
6138.473
6126.377
6114.274
6102.176
6090.094
6078.04
6066.027
6054.06
6042.134
6030.226
6018.286
6006.249
5994.028
5981.521
5968.654
5955.42
5941.871
5928.106
5914.273
5900.494
5886.804
5873.18
5859.59
5846.012
5832.43
5818.832
5805.206
5791.549
5777.858
5764.132
5750.372
5736.581
5722.762
5708.919
5695.058
5681.183
5667.299
5653.414
5639.532
5625.661
5611.806
5597.975
5584.174
5570.411
5556.692
5543.024
5529.415
5515.873
5502.403
5489.015
5475.714
5462.508
5449.405
5436.412
5423.535
5410.783
5398.161
5385.677
5373.337
5361.149
5349.118
5337.252
5325.557
5314.04
5302.705
5291.561
5280.611
5269.86
5259.311
5248.969
5238.835
5228.914
5219.208
5209.722
5200.457
5191.417
5182.603
5174.017
5165.662
5157.539
5149.648
5141.992
5134.57
5127.383
5120.431
5113.714
5107.232
5100.984
5094.969
5089.186
5083.634
5078.311
5073.216
5068.347
5063.701
5059.277
5055.072
5051.083
5047.308
5043.745
5040.389
5037.237
5034.288
5031.536
5028.98
5026.615
5024.437
5022.444
5020.632
5018.997
5017.535
5016.243
5015.117
5014.154
5013.35
5012.703
5012.208
5011.862
5011.659
5011.596
5011.667
5011.87
5012.198
5012.649
5013.22
5013.906
5014.695
5015.59
5016.588
5017.686
5018.878
5020.163
5021.535
5022.99
5024.526
5026.14
5027.826
5029.582
5031.403
5033.287
5035.228
5037.226
5039.275
5041.374
5043.521
5045.714
5047.952
5050.237
5052.573
5054.965
5057.42
5059.948
5062.557
5065.249
5068.018
5070.849
5073.728
5076.641
5079.582
5082.541
5085.515
5088.499
5091.489
5094.483
5097.479
5100.473
5103.466
5106.454
5109.437
5112.413
5115.382
5118.341
5121.29
5124.228
5127.153
5130.065
5132.963
5135.846
5138.713
5141.563
5144.394
5147.207
5150
5152.772
5155.521
5158.245
5160.944
5163.614
5166.257
5168.875
5171.471
5174.048
5176.605
5179.139
5181.652
5184.141
5186.607
5189.049
5191.467
5193.859
5196.227
5198.569
5200.886
5203.177
5205.442
5207.682
5209.895
5212.083
5214.245
5216.38
5218.491
5220.575
5222.634
5224.667
5226.674
5228.657
5230.614
5232.546
5234.454
5236.336
5238.195
5240.029
5241.839
5243.624
5245.385
5247.122
5248.834
5250.52
5252.178
5253.808
5255.407
5256.972
5258.503
5259.997
5261.456
5262.882
5264.278
5265.645
5266.985
5268.297
5269.582
5270.839
5272.069
5273.272
5274.454
5275.616
5276.761
5277.889
5279
5280.094
5281.171
5282.23
5283.271
5284.294
5285.299
5286.285
5287.253
5288.202
5289.133
5290.044
5290.937
5291.812
5292.668
5293.506
5294.325
5295.126
5295.909
5296.674
5297.42
5298.148
5298.857
5299.549
5300.222
5300.877
5301.513
5302.131
5302.731
5303.312
5303.874
5304.417
5304.942
5305.447
5305.933
5306.399
5306.846
5307.273
5307.679
5308.065
5308.43
5308.774
5309.097
5309.398
5309.676
5309.932
5310.165
5310.374
5310.559
5310.72
5310.855
5310.964
5311.046
5311.101
5311.128
5311.125
5311.093
5311.029
5310.934
5310.805
5310.642
5310.445
5310.211
5309.941
5309.634
5309.291
5308.914
5308.504
5308.067
5307.61
5307.145
5306.688
5306.259
5305.88
5305.577
5305.368
5305.257
5305.234
5639.854
5569.701
5443.886
5403.082
5366.413
5334.259
5305.216
5277.923
5251.212
5224.895
5198.687
5171.993
5145.179
5118.615
5092.41
5066.609
5041.77
5018.064
4995.903
4976.495
4961.608
4952.529
4949.757
4955.604
4971.694
5000.706
5044.849
5105.931
5185.746
5285.914
5406.439
5544.536
5697.872
5862.531
6032.403
6200.917
6362.432
6512.198
6646.203
6761.695
6857.633
6934.516
6993.866
7037.736
7068.367
7087.939
7098.52
7102.101
7100.259
7094.213
7085.086
7073.854
7061.315
7048.083
7034.521
7020.855
7007.675
6995.464
6984.214
6973.799
6964.113
6955.073
6946.628
6938.734
6931.305
6924.253
6917.513
6910.996
6904.591
6898.235
6891.912
6885.562
6879.128
6872.568
6865.852
6858.971
6851.868
6844.507
6836.891
6829.031
6820.929
6812.562
6804.025
6795.229
6786.189
6776.924
6767.449
6757.785
6747.963
6737.973
6727.87
6717.66
6707.302
6696.806
6686.201
6675.495
6664.687