/*--------------------------------*- C++ -*----------------------------------*\
| =========                 |                                                 |
| \\      /  F ield         | foam-extend: Open Source CFD                    |
|  \\    /   O peration     | Version:     3.1                                |
|   \\  /    A nd           | Web:         http://www.extend-project.de       |
|    \\/     M anipulation  |                                                 |
\*---------------------------------------------------------------------------*/
FoamFile
{
    version     2.0;
    format      ascii;
    class       surfaceScalarField;
    location    "2.5";
    object      phi;
}
// * * * * * * * * * * * * * * * * * * * * * * * * * * * * * * * * * * * * * //

dimensions      [0 3 -1 0 0 0 0];

internalField   nonuniform List<scalar> 
275122
(
-0.0001274396
0.0001289763
-5.771507e-08
-1.479009e-06
-0.0001143952
0.0001090979
4.200071e-07
4.877337e-06
-0.0001136248
0.0001167911
-1.150164e-07
-3.051249e-06
-0.0001273213
0.000130897
-1.171639e-07
-3.458616e-06
-0.0001398335
0.0001409393
-1.185469e-07
-9.872983e-07
-0.0001409842
0.0001407693
-9.693315e-08
3.118775e-07
-0.0001396029
0.0001391321
-8.479579e-08
5.556096e-07
-0.0001374826
0.000136909
-7.465067e-08
6.48249e-07
-0.0001351111
0.000134487
-6.381635e-08
6.879235e-07
-0.0001325583
0.0001318971
-5.459596e-08
7.157944e-07
-0.0001298708
0.0001291814
-4.605701e-08
7.354419e-07
-0.000127079
0.0001263671
-3.827117e-08
7.502224e-07
-0.0001242012
0.000123468
-2.941119e-08
7.626949e-07
-0.0001212503
0.0001205093
-2.769318e-08
7.686998e-07
-0.0001182546
0.0001174961
-1.845262e-08
7.769897e-07
-0.0001152013
0.0001144359
-1.279227e-08
7.781811e-07
-0.0001121168
0.0001113472
-9.897095e-09
7.795017e-07
-0.0001090443
0.0001082909
-1.052343e-08
7.639701e-07
-0.0001061567
0.0001055231
-2.628278e-08
6.598982e-07
-0.0001041479
0.0001042801
-1.378389e-07
5.582435e-09
-0.0001153562
0.0001196811
-3.59604e-07
-3.96531e-06
-0.0001209442
0.0001211065
-1.000547e-07
-6.226091e-08
-0.0001218829
0.0001226137
-4.77499e-08
-6.830847e-07
-0.0001356967
0.0001407444
1.042304e-07
-5.15186e-06
-0.0001416599
0.0001416473
1.895509e-07
-1.769614e-07
-0.0001426878
0.0001428259
3.18142e-08
-1.699028e-07
-0.0001425549
0.0001422525
1.095509e-08
2.914119e-07
-0.0001408252
0.0001396569
1.727033e-08
1.151001e-06
-0.0001317123
0.0001233798
2.165898e-08
8.310828e-06
-0.000116376
0.0001195505
2.920842e-09
-3.177355e-06
-9.608712e-05
0.0001007842
-2.61207e-08
-4.670924e-06
-0.0001142124
0.0001187198
2.785296e-09
-4.510166e-06
-0.0001324681
0.0001371147
2.871959e-09
-4.649482e-06
-0.0001512737
0.0001560346
2.937845e-09
-4.763876e-06
-0.0001705352
0.0001754233
2.942924e-09
-4.891026e-06
-0.0001902235
0.0001951886
2.950612e-09
-4.968008e-06
-0.00021017
0.0002151867
2.7487e-09
-5.01949e-06
-0.0002302012
0.0002352355
2.0513e-09
-5.036298e-06
-0.0002503235
0.0002553596
1.709853e-09
-5.037726e-06
-0.0002704031
0.0002757063
8.082911e-08
-5.384042e-06
4.391352e-06
-0.0001867223
0.0001872789
5.428621e-11
-4.947958e-06
4.420709e-06
-0.0001888048
0.0001892589
-2.756215e-10
-4.874554e-06
4.54745e-06
-0.000190423
0.0001907376
-4.829545e-10
-4.861536e-06
4.66112e-06
-0.0001914609
0.0001916404
-4.828651e-10
-4.840114e-06
4.718632e-06
-0.000192025
0.0001921264
-4.033426e-10
-4.819626e-06
4.805183e-06
-0.0001922676
0.0001922896
-2.871779e-10
-4.826898e-06
4.819973e-06
-0.0001922916
0.0001922716
-2.944945e-10
-4.799661e-06
4.860937e-06
-0.0001921687
0.0001921102
-2.994268e-10
-4.802105e-06
4.970698e-06
-0.0001918574
0.0001915918
-3.938187e-11
-4.704964e-06
4.30264e-06
-0.0007728598
0.000773421
-7.255208e-11
-1.816804e-05
4.511419e-06
4.293475e-06
4.499386e-06
4.589051e-06
-0.000773367
0.0007729355
-7.473864e-11
-1.814447e-05
4.706551e-06
4.582489e-06
4.698018e-06
4.625707e-06
-0.000772343
0.0007715837
-7.01067e-11
-1.78745e-05
4.697815e-06
4.61879e-06
4.691541e-06
4.660957e-06
-0.0007707743
0.0007698624
-5.884431e-11
-1.77721e-05
4.687042e-06
4.655034e-06
4.681056e-06
4.641341e-06
-0.000768876
0.0007678832
-4.582541e-11
-1.763054e-05
4.675613e-06
4.635805e-06
4.67067e-06
4.672395e-06
-0.0007668237
0.0007656543
-6.243296e-11
-1.751996e-05
4.676682e-06
4.667771e-06
4.6726e-06
4.625725e-06
-0.0007646399
0.0007634738
-2.026786e-10
-1.736477e-05
4.644348e-06
4.620499e-06
4.640544e-06
4.617364e-06
-0.0007623022
0.000761071
-1.561693e-10
-1.720243e-05
4.602457e-06
4.614438e-06
4.599571e-06
4.585753e-06
-0.0007598502
0.0007584448
-4.493397e-11
-1.6898e-05
4.569253e-06
4.582379e-06
4.566042e-06
4.270663e-06
-0.0007567755
0.0007564047
-2.913743e-11
-1.698945e-05
4.411115e-06
4.266576e-06
4.41196e-06
4.622944e-06
-0.0007553934
0.000753661
-3.121458e-11
-1.655602e-05
4.524642e-06
4.617004e-06
4.523862e-06
4.457569e-06
-0.0007522462
0.0007508717
-3.067594e-11
-1.637644e-05
4.416497e-06
4.459178e-06
4.417682e-06
4.413758e-06
-0.000749516
0.0007481616
-3.047463e-11
-1.625096e-05
4.388008e-06
4.414743e-06
4.388869e-06
4.37392e-06
-0.000746832
0.0007454944
-3.047535e-11
-1.612719e-05
4.358088e-06
4.3743e-06
4.35859e-06
4.347887e-06
-0.0007441522
0.0007427974
-4.299971e-11
-1.60101e-05
4.337924e-06
4.343943e-06
4.335243e-06
4.337731e-06
-0.0007414476
0.000740059
-6.531973e-11
-1.593522e-05
4.333783e-06
4.327752e-06
4.324644e-06
4.401997e-06
-0.000738666
0.0007372162
-5.232174e-11
-1.606381e-05
4.410125e-06
4.347044e-06
4.354567e-06
4.756497e-06
-0.0007356619
0.0007335153
-3.641634e-11
-1.65825e-05
4.882686e-06
4.513084e-06
4.576822e-06
5.872166e-06
-0.0007302656
0.0007241247
-2.95369e-11
-1.711143e-05
6.498359e-06
5.442654e-06
5.439181e-06
5.316967e-06
-0.0007160211
0.0007214042
-2.679883e-11
-1.069998e-05
5.260269e-06
-0.0007246593
0.0007247562
-2.755558e-11
-5.35715e-06
1.093853e-05
-0.000722285
0.0007197044
-2.619158e-11
-8.357915e-06
9.110258e-06
-0.0007175092
0.0007153357
-2.547778e-11
-6.936769e-06
3.702585e-06
-0.0007134739
0.0007128874
-2.468908e-11
-3.116056e-06
-1.280529e-07
-0.0007129569
0.0007127208
-2.375353e-11
3.641249e-07
-1.847179e-06
-0.000712604
0.0007123986
-2.528625e-11
2.052541e-06
-2.585373e-06
-0.0007120978
0.000711698
-2.521506e-11
2.985166e-06
-3.092583e-06
-0.0007112433
0.0007107066
-2.479053e-11
3.629309e-06
-3.421228e-06
-0.0007101221
0.0007094722
-2.425802e-11
4.071203e-06
-3.649235e-06
-0.0007087891
0.000708056
-2.365448e-11
4.382338e-06
-3.815258e-06
-0.0007073005
0.000706507
-2.322336e-11
4.608815e-06
-3.936444e-06
-0.0007056972
0.0007048604
-2.326102e-11
4.773246e-06
-4.023675e-06
-0.0007040131
0.0007031508
-2.348138e-11
4.886058e-06
-4.076691e-06
-0.0007022872
0.0007014185
-2.376585e-11
4.945396e-06
-4.077977e-06
-0.0007005547
0.0006996978
-2.406822e-11
4.934907e-06
-3.996626e-06
-0.0006988564
0.0006980394
-2.428242e-11
4.813657e-06
-3.718167e-06
-0.000697252
0.0006964888
-2.423171e-11
4.481469e-06
-3.006975e-06
-0.0006957347
0.0006949694
-2.361028e-11
3.77238e-06
-1.200071e-06
-0.0006941256
0.0006928702
-2.219786e-11
2.455459e-06
1.016273e-06
-0.0006903291
0.000688614
-1.972036e-11
6.987758e-07
3.503628e-08
-0.0006879096
0.000687149
-1.912167e-11
7.255332e-07
3.869982e-06
-0.0006860987
0.0006838502
-1.829509e-11
-1.621522e-06
9.610683e-06
-0.0006780796
0.0006729006
-1.76732e-11
-4.431603e-06
1.906264e-06
-0.0006694985
0.0006677266
-2.181754e-11
-1.34301e-07
-2.194709e-06
-0.0006656451
0.0006637125
-2.574064e-11
4.127346e-06
-5.790452e-06
-0.0006617265
0.0006596891
-2.705568e-11
7.827821e-06
-1.227378e-05
-0.0006579604
0.0006568852
-2.814639e-11
1.334904e-05
-2.854991e-05
-0.0006570558
0.0006641868
-2.944376e-11
2.141894e-05
-5.693062e-06
-0.0006729191
0.0006725988
-2.962753e-11
2.025889e-05
-4.231137e-06
-5.725299e-06
-4.289061e-06
-2.665679e-06
-0.0006704449
0.0006688539
-2.812641e-11
1.213074e-05
-2.550136e-06
-2.718093e-06
-2.605738e-06
-1.925243e-06
-0.0006669242
0.0006647629
-2.710384e-11
9.741661e-06
-1.816198e-06
-1.975824e-06
-1.863017e-06
-1.562567e-06
-0.0006625965
0.000660573
-2.690301e-11
8.292068e-06
-1.533731e-06
-1.601929e-06
-1.570379e-06
-1.429337e-06
-0.0006586542
0.0006568202
-2.68245e-11
7.579791e-06
-1.412789e-06
-1.461204e-06
-1.442483e-06
-1.35478e-06
-0.0006550326
0.000653305
-2.667037e-11
7.175395e-06
-1.345813e-06
-1.378841e-06
-1.368293e-06
-1.317289e-06
-0.0006516124
0.0006499623
-2.674543e-11
6.944775e-06
-1.312865e-06
-1.334981e-06
-1.329477e-06
-1.29658e-06
-0.0006483348
0.0006467354
-2.698999e-11
6.806864e-06
-1.293671e-06
-1.310334e-06
-1.30686e-06
-1.28461e-06
-0.000645152
0.0006435886
-2.707925e-11
6.720076e-06
-1.282976e-06
-1.295682e-06
-1.293379e-06
-1.27792e-06
-0.0006420367
0.0006404985
-2.669653e-11
6.663685e-06
-1.276663e-06
-1.286243e-06
-1.284641e-06
-1.27348e-06
-0.0006389676
0.0006374454
-2.583052e-11
6.62661e-06
-1.272782e-06
-1.279716e-06
-1.278379e-06
-1.272481e-06
-0.0006359287
0.0006344188
-2.481667e-11
6.605228e-06
-1.272226e-06
-1.275696e-06
-1.274914e-06
-1.273002e-06
-0.0006329136
0.0006314134
-2.388171e-11
6.594341e-06
-1.27279e-06
-1.274412e-06
-1.273957e-06
-1.273493e-06
-0.0006299167
0.0006284234
-2.287129e-11
6.587771e-06
-1.273109e-06
-1.274115e-06
-1.273669e-06
-1.27291e-06
-0.0006269321
0.0006254425
-2.172832e-11
6.581009e-06
-1.272264e-06
-1.273431e-06
-1.272812e-06
-1.271408e-06
-0.0006239539
0.0006224661
-2.055918e-11
6.573039e-06
-1.270691e-06
-1.271919e-06
-1.271177e-06
-1.269797e-06
-0.0006209789
0.0006194924
-1.936695e-11
6.564875e-06
-1.269104e-06
-1.270098e-06
-1.269356e-06
-1.268256e-06
-0.0006180065
0.0006165215
-1.812524e-11
6.556796e-06
-1.267548e-06
-1.26833e-06
-1.267584e-06
-1.266512e-06
-0.000615037
0.0006135534
-1.683125e-11
6.547964e-06
-1.265726e-06
-1.266427e-06
-1.265618e-06
-1.264274e-06
-0.0006120702
0.0006105878
-1.549487e-11
6.537294e-06
-1.263369e-06
-1.264086e-06
-1.263169e-06
-1.261382e-06
-0.0006091059
0.0006076248
-1.416706e-11
6.524035e-06
-1.260351e-06
-1.261128e-06
-1.26009e-06
-1.2578e-06
-0.0006061441
0.0006046646
-1.29109e-11
6.507852e-06
-1.256651e-06
-1.2575e-06
-1.256351e-06
-1.253562e-06
-0.0006031855
0.0006017079
-1.164501e-11
6.488732e-06
-1.252311e-06
-1.253236e-06
-1.25199e-06
-1.24874e-06
-0.0006002309
0.0005987556
-1.032239e-11
6.466841e-06
-1.247409e-06
-1.248404e-06
-1.247072e-06
-1.243433e-06
-0.0005972812
0.000595809
-9.430174e-12
6.442382e-06
-1.242029e-06
-1.243059e-06
-1.241646e-06
-1.237678e-06
0.0005928691
-8.406929e-12
6.415535e-06
-1.236183e-06
-1.23727e-06
-1.235801e-06
-0.0005943377
-1.231424e-06
-0.0005914017
0.0005899373
-7.638104e-12
6.386319e-06
-1.229877e-06
-1.231108e-06
-1.229581e-06
-1.224758e-06
-0.0005884744
0.0005870149
-6.725129e-12
6.354676e-06
-1.223117e-06
-1.224477e-06
-1.222841e-06
-1.217657e-06
-0.0005855569
0.000584103
-5.413573e-12
6.32056e-06
-1.215974e-06
-1.217328e-06
-1.215645e-06
-1.210193e-06
-0.0005826508
0.0005812033
-4.137528e-12
6.284185e-06
-1.208457e-06
-1.209855e-06
-1.208131e-06
-1.202324e-06
-0.0005797578
0.0005783175
-2.785432e-12
6.245395e-06
-1.200528e-06
-1.201995e-06
-1.20021e-06
-1.194067e-06
-0.0005768795
0.0005754472
-1.427976e-12
6.204179e-06
-1.192215e-06
-1.193747e-06
-1.191906e-06
-1.185434e-06
-0.0005740177
0.0005725944
-1.816758e-13
6.160561e-06
-1.183534e-06
-1.185122e-06
-1.183233e-06
-1.176449e-06
-0.0005711742
0.0005697609
5.212643e-13
6.114593e-06
-1.174502e-06
-1.176145e-06
-1.17421e-06
-1.167135e-06
-0.0005683509
0.0005669485
1.140703e-12
6.066342e-06
-1.165141e-06
-1.166837e-06
-1.164857e-06
-1.157508e-06
-0.0005655498
0.0005641593
1.68078e-12
6.015881e-06
-1.155472e-06
-1.157218e-06
-1.155196e-06
-1.147587e-06
-0.0005627729
0.0005613952
2.122292e-12
5.963278e-06
-1.145513e-06
-1.147305e-06
-1.145246e-06
-1.137392e-06
-0.000560022
0.0005586582
2.449503e-12
5.908598e-06
-1.13528e-06
-1.137116e-06
-1.13502e-06
-1.126936e-06
-0.0005572991
0.0005559501
2.69162e-12
5.851896e-06
-1.124785e-06
-1.126667e-06
-1.124534e-06
-1.116238e-06
-0.0005546062
0.000553273
2.873185e-12
5.793216e-06
-1.114045e-06
-1.115971e-06
-1.113797e-06
-1.105319e-06
-0.0005519452
0.0005506289
3.035073e-12
5.732586e-06
-1.10309e-06
-1.105039e-06
-1.102821e-06
-1.094176e-06
-0.0005493184
0.00054802
3.237867e-12
5.669974e-06
-1.091891e-06
-1.093887e-06
-1.091628e-06
-1.082694e-06
-0.0005467278
0.0005454485
3.496221e-12
5.605179e-06
-1.080402e-06
-1.082505e-06
-1.08025e-06
-1.070918e-06
-0.0005441757
0.0005429166
3.706086e-12
5.537876e-06
-1.068584e-06
-1.070772e-06
-1.068445e-06
-1.05874e-06
-0.0005416644
0.0005404268
3.760305e-12
5.467441e-06
-1.056407e-06
-1.058537e-06
-1.05621e-06
-1.046057e-06
-0.000539197
0.0005379831
3.737798e-12
5.392819e-06
-1.043624e-06
-1.04586e-06
-1.043437e-06
-1.032322e-06
-0.000536778
0.0005355911
4.002117e-12
5.310564e-06
-1.029671e-06
-1.032145e-06
-1.029496e-06
-1.016006e-06
-0.0005344151
0.0005332619
4.706874e-12
5.209892e-06
-1.012448e-06
-1.015903e-06
-1.012338e-06
-9.880696e-07
-0.0005321215
0.0005309936
5.22759e-12
5.056924e-06
-9.7619e-07
-9.883918e-07
-9.763717e-07
-9.086809e-07
-0.0005297854
0.0005284896
2.158573e-12
4.80589e-06
-8.442095e-07
-9.109756e-07
-8.463055e-07
-9.094606e-07
-0.0005274388
0.0005262096
3.584829e-12
4.842117e-06
-8.988659e-07
-9.075277e-07
-8.97113e-07
-8.966233e-07
-0.0005249891
0.0005238106
3.779205e-12
4.751174e-06
-8.905167e-07
-8.956353e-07
-8.898986e-07
-8.830961e-07
-0.0005226351
0.0005214991
4.024097e-12
4.671962e-06
-8.853878e-07
-8.825775e-07
-8.849e-07
-8.824214e-07
-0.0005203884
0.0005193102
4.162608e-12
4.606867e-06
-8.822975e-07
-8.819961e-07
-8.819597e-07
-8.810192e-07
-0.000518254
0.0005172269
4.203563e-12
4.549417e-06
-8.804627e-07
-8.806474e-07
-8.801501e-07
-8.779107e-07
-0.0005162169
0.0005152315
4.501485e-12
4.494785e-06
-8.770828e-07
-8.775871e-07
-8.768005e-07
-8.734942e-07
-0.0005142595
0.0005133106
4.677567e-12
4.440442e-06
-8.725208e-07
-8.732594e-07
-8.723046e-07
-8.684462e-07
-0.0005123744
0.0005114591
4.536791e-12
4.385648e-06
-8.670079e-07
-8.682033e-07
-8.667743e-07
-8.622454e-07
-0.0005105548
0.0005096701
4.245431e-12
4.330111e-06
-8.606988e-07
-8.61984e-07
-8.604375e-07
-8.551846e-07
-0.0005087953
0.0005079391
3.959857e-12
4.273226e-06
-8.535953e-07
-8.549363e-07
-8.533598e-07
-8.472932e-07
-0.0005070924
0.0005062639
3.450585e-12
4.214256e-06
-8.457291e-07
-8.471359e-07
-8.45595e-07
-8.387725e-07
-0.0005054445
0.0005046429
2.88816e-12
4.153238e-06
-8.371736e-07
-8.386585e-07
-8.37059e-07
-8.29789e-07
-0.0005038503
0.0005030756
2.156941e-12
4.090393e-06
-8.282014e-07
-8.296397e-07
-8.280518e-07
-8.205323e-07
-0.00050231
0.0005015623
1.36433e-12
4.026345e-06
-8.18939e-07
-8.20371e-07
-8.187889e-07
-8.110256e-07
-0.0005008237
0.000500103
6.279107e-13
3.961251e-06
-8.094333e-07
-8.108714e-07
-8.092911e-07
-8.013956e-07
-0.0004993916
0.0004986983
-1.077977e-13
3.895528e-06
-7.998087e-07
-8.012619e-07
-7.996978e-07
-7.916978e-07
-0.0004980142
0.0004973482
-1.026094e-12
3.829422e-06
-7.901328e-07
-7.915831e-07
-7.90029e-07
-7.820237e-07
-0.0004966916
0.0004960532
-1.65615e-12
3.763277e-06
-7.80478e-07
-7.819159e-07
-7.803755e-07
-7.724356e-07
-0.0004954242
0.0004948133
-2.241687e-12
3.697409e-06
-7.709089e-07
-7.723418e-07
-7.708249e-07
-7.629626e-07
-0.0004942119
0.0004936286
-2.999713e-12
3.632022e-06
-7.614575e-07
-7.628856e-07
-7.613866e-07
-7.536531e-07
-0.0004930549
0.000492499
-3.658801e-12
3.567327e-06
-7.521705e-07
-7.535742e-07
-7.52101e-07
-7.445345e-07
-0.0004919528
0.0004914244
-3.97647e-12
3.503546e-06
-7.430854e-07
-7.444694e-07
-7.430362e-07
-7.35633e-07
-0.0004909057
0.0004904045
-4.229779e-12
3.440841e-06
-7.342232e-07
-7.355899e-07
-7.341877e-07
-7.269811e-07
-0.0004899129
0.0004894386
-4.207832e-12
3.379333e-06
-7.256147e-07
-7.26929e-07
-7.255633e-07
-7.186166e-07
-0.000488974
0.0004885265
-4.222773e-12
3.319191e-06
-7.172978e-07
-7.185349e-07
-7.172109e-07
-7.105303e-07
0.0004876675
-4.112956e-12
3.260505e-06
-0.0004880886
-7.092313e-07
-7.104509e-07
-7.091643e-07
-7.026408e-07
-0.0004872558
0.0004868608
-4.222321e-12
3.203152e-06
-7.014148e-07
-7.02652e-07
-7.014464e-07
-6.950038e-07
-0.0004864752
0.0004861057
-4.317443e-12
3.147144e-06
-6.93789e-07
-6.950467e-07
-6.938187e-07
-6.8762e-07
-0.0004857453
0.000485401
-4.221588e-12
3.092455e-06
-6.864597e-07
-6.876075e-07
-6.864309e-07
-6.806043e-07
-0.0004850657
0.0004847463
-4.209236e-12
3.039473e-06
-6.794625e-07
-6.805605e-07
-6.794086e-07
-6.73815e-07
-0.0004844356
0.0004841405
-4.338243e-12
2.987956e-06
-6.726961e-07
-6.737554e-07
-6.726285e-07
-6.673572e-07
-0.000483854
0.0004835831
-4.753557e-12
2.93801e-06
-6.66227e-07
-6.672947e-07
-6.661731e-07
-6.610568e-07
-0.0004833203
0.0004830728
-4.780166e-12
2.889413e-06
-6.599293e-07
-6.609885e-07
-6.598586e-07
-6.551583e-07
-0.0004828334
0.0004826091
-4.612999e-12
2.842466e-06
-6.539951e-07
-6.550745e-07
-6.539136e-07
-6.493356e-07
-0.0004823926
0.0004821906
-4.251737e-12
2.796789e-06
-6.481358e-07
-6.492588e-07
-6.480726e-07
-6.440166e-07
-0.0004819967
0.0004818172
-3.797745e-12
2.752976e-06
-6.427746e-07
-6.439579e-07
-6.427205e-07
-6.386005e-07
-0.0004816451
0.0004814867
-3.672116e-12
2.710139e-06
-6.37332e-07
-6.385335e-07
-6.372691e-07
-6.338791e-07
-0.0004813365
0.0004811998
-3.628972e-12
2.669463e-06
-6.325485e-07
-6.338139e-07
-6.324951e-07
-6.288709e-07
-0.0004810704
0.0004809537
-3.556001e-12
2.629537e-06
-6.275653e-07
-6.288259e-07
-6.275279e-07
-6.246582e-07
-0.0004808455
0.0004807495
-3.405798e-12
2.591785e-06
-6.233126e-07
-6.245958e-07
-6.23253e-07
-6.201338e-07
-0.0004806609
0.0004805839
-3.2944e-12
2.554797e-06
-6.188806e-07
-6.200371e-07
-6.187802e-07
-6.163459e-07
-0.000480516
0.0004804593
-3.390709e-12
2.519481e-06
-6.15122e-07
-6.162362e-07
-6.150317e-07
-6.12249e-07
-0.0004804101
0.0004803716
-3.656822e-12
2.485364e-06
-6.111345e-07
-6.122413e-07
-6.11156e-07
-6.08543e-07
-0.0004803421
0.0004803236
-3.977251e-12
2.450794e-06
-6.075622e-07
-6.085635e-07
-6.07586e-07
-6.052282e-07
-0.000480313
0.0004803111
-4.208513e-12
2.421158e-06
-6.044786e-07
-6.051725e-07
-6.044318e-07
-6.00796e-07
-0.0004803188
0.0004803401
-4.273109e-12
2.3808e-06
-6.003254e-07
-6.007253e-07
-6.002673e-07
-5.968891e-07
-0.000480371
0.0004804156
-4.181603e-12
2.342989e-06
-5.969522e-07
-5.968147e-07
-5.968808e-07
-5.927858e-07
-0.0004804724
0.0004805532
-3.629417e-12
2.289445e-06
-5.924229e-07
-5.927046e-07
-5.923225e-07
-5.662574e-07
-0.0004806465
0.0004807251
-7.742546e-13
2.196823e-06
-5.71587e-07
-5.660948e-07
-5.714633e-07
-3.858743e-07
-0.0004806821
0.0004801335
-2.295518e-12
1.99268e-06
-3.359469e-07
-3.855353e-07
-3.366929e-07
-2.423277e-07
-0.0001194994
0.0001192398
2.196086e-11
5.01912e-07
-4.212916e-07
-0.0001188143
0.0001187564
-8.395073e-11
4.793088e-07
-4.855828e-07
-0.0001186933
0.0001186942
-5.84308e-11
4.847085e-07
-5.129994e-07
-0.0001187277
0.0001187454
-3.509476e-11
4.953512e-07
-5.289721e-07
-0.0001188075
0.0001188302
-1.64491e-11
5.062961e-07
-5.384465e-07
-0.0001189016
0.0001189263
-6.007028e-12
5.138085e-07
-5.444697e-07
-0.0001190018
0.0001190274
8.437678e-13
5.188288e-07
-5.485359e-07
-0.0001191054
0.0001191317
5.441135e-12
5.221742e-07
-5.513908e-07
-0.0001192117
0.0001192388
1.096323e-11
5.243631e-07
-5.534505e-07
-0.0001193209
0.0001193486
1.471041e-11
5.257578e-07
-5.550284e-07
-0.0001194328
0.0001194612
9.376338e-12
5.265335e-07
-5.56097e-07
-0.0001195477
0.0001195769
6.35781e-12
5.268962e-07
-5.570182e-07
-0.0001196656
0.0001196956
1.079169e-11
5.270637e-07
-5.578644e-07
-0.0001197866
0.0001198173
1.324536e-11
5.27115e-07
-5.586037e-07
-0.0001199106
0.0001199421
1.52216e-11
5.27071e-07
-5.59287e-07
-0.0001200378
0.0001200701
1.482958e-11
5.26979e-07
-5.599505e-07
-0.0001201681
0.0001202012
1.635342e-11
5.268559e-07
-5.605851e-07
-0.0001203015
0.0001203354
1.767696e-11
5.267115e-07
-5.612406e-07
-0.0001204381
0.0001204727
1.704196e-11
5.265961e-07
-5.618909e-07
-0.0001205777
0.0001206131
1.787019e-11
5.264692e-07
-5.625082e-07
-0.0001207204
0.0001207566
1.941303e-11
5.263168e-07
-5.631757e-07
-0.0001208663
0.0001209034
1.957836e-11
5.261504e-07
-5.637924e-07
-0.0001210156
0.0001210534
2.098445e-11
5.25913e-07
-5.643977e-07
-0.0001211683
0.000121207
2.346615e-11
5.256144e-07
-5.649671e-07
-0.0001213246
0.0001213644
2.770294e-11
5.252079e-07
-5.654593e-07
-0.0001214853
0.000121526
2.810266e-11
5.246462e-07
-5.658787e-07
-0.0001216502
0.0001216924
2.120103e-11
5.2368e-07
-5.659038e-07
-0.0001218209
0.0001218646
1.870893e-11
5.221952e-07
-5.656422e-07
-0.0001219982
0.0001220438
2.296941e-11
5.199607e-07
-5.648727e-07
-0.0001221843
0.0001222326
2.594312e-11
5.164674e-07
-5.630778e-07
-0.0001223824
0.0001224347
2.805465e-11
5.10787e-07
-5.594793e-07
-0.0001225985
0.0001226568
2.718299e-11
5.012056e-07
-5.521694e-07
-0.0001228426
0.0001229109
2.949705e-11
4.839065e-07
-5.346721e-07
-0.0001231361
0.0001232242
3.082933e-11
4.465246e-07
-4.792662e-07
-0.0001235387
0.000123681
2.595006e-11
3.369182e-07
1.846759e-07
-0.0001241608
0.0001241259
3.182132e-11
-1.498165e-07
5.421937e-07
-0.0001240016
0.0001239921
1.805439e-11
-5.327062e-07
5.971508e-07
-0.0001239796
0.0001239904
1.614361e-11
-6.079537e-07
6.198264e-07
-0.0001240433
0.000124068
1.306032e-11
-6.444653e-07
6.339857e-07
-0.0001241552
0.0001241884
9.823915e-12
-6.672575e-07
6.438209e-07
-0.0001242972
0.0001243365
5.781393e-12
-6.831223e-07
6.509106e-07
-0.0001244616
0.0001245057
5.691423e-12
-6.94977e-07
6.566569e-07
-0.0001246434
0.0001246912
6.794584e-12
-7.044175e-07
6.61408e-07
-0.0001248389
0.0001248896
6.109307e-12
-7.121029e-07
6.655233e-07
-0.0001250451
0.0001250982
3.728914e-12
-7.185738e-07
6.692158e-07
-0.0001252601
0.000125315
2.622009e-12
-7.24165e-07
6.727091e-07
-0.0001254819
0.0001255383
2.955024e-12
-7.291231e-07
6.759862e-07
-0.0001257093
0.0001257669
3.552552e-12
-7.336009e-07
6.791431e-07
-0.0001259411
0.0001259997
4.98515e-12
-7.377223e-07
6.821698e-07
-0.0001261765
0.0001262359
4.643591e-12
-7.415272e-07
6.850972e-07
-0.0001264148
0.0001264748
4.613038e-12
-7.45086e-07
6.879566e-07
-0.0001266554
0.0001267158
5.816974e-12
-7.484428e-07
6.907282e-07
-0.0001268978
0.0001269587
5.866275e-12
-7.516131e-07
6.934352e-07
-0.0001271416
0.0001272028
5.489487e-12
-7.546292e-07
6.960811e-07
-0.0001273866
0.000127448
6.587402e-12
-7.575064e-07
6.986685e-07
-0.0001276324
0.000127694
7.03373e-12
-7.602652e-07
7.012044e-07
-0.0001278787
0.0001279404
6.481049e-12
-7.629119e-07
7.036845e-07
-0.0001281254
0.0001281872
7.851202e-12
-7.654563e-07
7.061112e-07
-0.0001283722
0.000128434
1.027098e-11
-7.679083e-07
7.0853e-07
-0.000128619
0.0001286807
1.005303e-11
-7.702874e-07
7.108386e-07
-0.0001288655
0.0001289272
8.675557e-12
-7.72549e-07
7.130275e-07
-0.0001291116
0.0001291732
8.925298e-12
-7.746766e-07
7.151913e-07
-0.0001293571
0.0001294186
9.043927e-12
-7.76694e-07
7.172347e-07
-0.0001296019
0.0001296633
9.481505e-12
-7.785772e-07
7.192001e-07
-0.0001298458
0.0001299069
1.053086e-11
-7.803368e-07
7.210556e-07
-0.0001300884
0.0001301493
9.851368e-12
-7.819459e-07
7.230468e-07
-0.0001303296
0.0001303901
1.061755e-11
-7.83608e-07
7.260239e-07
-0.000130568
0.0001306275
1.554382e-11
-7.85564e-07
7.254987e-07
-0.0001308047
0.0001308666
4.841179e-11
-7.874621e-07
7.712254e-07
-0.0001310512
0.0001310912
1.226418e-10
-8.114186e-07
7.060874e-07
-0.0001306465
0.000529001
5.426652e-12
-3.141462e-06
4.301679e-08
7.065984e-07
3.8691e-08
-0.0001306487
-0.0001330288
-0.00013303
4.163821e-07
-0.0005310824
0.0005320465
3.115422e-12
-2.979632e-06
5.956651e-07
4.119076e-07
5.91532e-07
5.44686e-07
-0.0005328594
0.0005336
1.743866e-12
-3.006272e-06
5.916554e-07
5.410529e-07
5.883321e-07
5.983735e-07
-0.0005343023
0.0005349064
1.057705e-12
-3.043949e-06
6.244187e-07
5.954153e-07
6.216425e-07
6.325529e-07
-0.0005354746
0.0005360068
7.663047e-13
-3.080331e-06
6.440361e-07
6.299699e-07
6.416188e-07
6.555423e-07
-0.0005365291
0.0005370372
2.985818e-13
-3.134833e-06
6.598053e-07
6.535051e-07
6.578926e-07
6.76425e-07
-0.0005375368
0.0005380103
-2.033006e-13
-3.184582e-06
6.807023e-07
6.747722e-07
6.791633e-07
6.980168e-07
-0.000538468
0.0005389106
-7.759891e-13
-3.235887e-06
6.998643e-07
6.967653e-07
6.986893e-07
7.138588e-07
-0.0005393432
0.0005397657
-8.861805e-13
-3.278778e-06
7.152156e-07
7.129266e-07
7.143273e-07
7.266964e-07
-0.0005401808
0.0005405901
-1.264708e-12
-3.316798e-06
7.278284e-07
7.259448e-07
7.270726e-07
7.366036e-07
-0.0005409951
0.0005413972
-1.577777e-12
-3.349366e-06
7.376211e-07
7.360033e-07
7.370509e-07
7.443504e-07
-0.0005417971
0.0005421958
-1.349714e-12
-3.377087e-06
7.453252e-07
7.438533e-07
7.448388e-07
7.504682e-07
-0.0005425937
0.0005429914
-1.622134e-12
-3.400579e-06
7.513627e-07
7.500388e-07
7.509467e-07
7.553216e-07
-0.0005433892
0.0005437874
-1.699822e-12
-3.420419e-06
7.561531e-07
7.549334e-07
7.557643e-07
7.592538e-07
-0.0005441861
0.0005445855
-1.384336e-12
-3.437238e-06
7.600095e-07
7.588939e-07
7.596622e-07
7.625132e-07
-0.0005449855
0.0005453862
-1.410506e-12
-3.451589e-06
7.632144e-07
7.622054e-07
7.62915e-07
7.652732e-07
-0.0005457875
0.0005461895
-1.514798e-12
-3.46386e-06
7.659261e-07
7.649957e-07
7.656489e-07
7.676847e-07
-0.000546592
0.000546995
-1.837845e-12
-3.474455e-06
7.682929e-07
7.674172e-07
7.680295e-07
7.698252e-07
-0.0005473984
0.0005478021
-2.171693e-12
-3.483681e-06
7.704022e-07
7.695909e-07
7.701785e-07
7.717633e-07
-0.0005482059
0.0005486099
-1.824948e-12
-3.491754e-06
7.723134e-07
7.715558e-07
7.72107e-07
7.735646e-07
-0.0005490139
0.0005494179
-1.364665e-12
-3.498893e-06
7.740909e-07
7.733583e-07
7.738829e-07
7.752442e-07
-0.0005498218
0.0005502254
-7.27257e-13
-3.505273e-06
7.757539e-07
7.750603e-07
7.755782e-07
7.76849e-07
-0.0005506287
0.0005510317
-5.67575e-13
-3.511032e-06
7.773378e-07
7.766975e-07
7.771954e-07
7.78401e-07
-0.0005514342
0.0005518362
-3.948838e-13
-3.516295e-06
7.788799e-07
7.782685e-07
7.787724e-07
7.799125e-07
-0.0005522376
0.0005526384
-4.662366e-13
-3.521024e-06
7.803602e-07
7.797644e-07
7.801987e-07
7.813089e-07
-0.0005530387
0.0005534381
-6.054652e-13
-3.525289e-06
7.817797e-07
7.811348e-07
7.815845e-07
7.826871e-07
-0.0005538369
0.0005542349
-6.1611e-13
-3.52926e-06
7.831115e-07
7.825222e-07
7.829604e-07
7.840302e-07
-0.0005546321
0.0005550284
-9.985993e-13
-3.532995e-06
7.844621e-07
7.838926e-07
7.843301e-07
7.853729e-07
-0.0005554239
0.0005558183
-7.381638e-13
-3.536512e-06
7.857882e-07
7.85254e-07
7.856772e-07
7.866784e-07
-0.0005562119
0.0005566043
-4.733645e-13
-3.539754e-06
7.870914e-07
7.86561e-07
7.869698e-07
7.879619e-07
-0.0005569959
0.0005573862
-2.386039e-13
-3.542758e-06
7.883605e-07
7.878374e-07
7.882403e-07
7.892099e-07
-0.0005577756
0.0005581637
-1.403874e-14
-3.545496e-06
7.89601e-07
7.890982e-07
7.894942e-07
7.904067e-07
-0.0005585508
0.0005589365
2.160297e-13
-3.547874e-06
7.907882e-07
7.902993e-07
7.906795e-07
7.91556e-07
-0.0005593211
0.0005597042
4.528099e-13
-3.549853e-06
7.919244e-07
7.914361e-07
7.918057e-07
7.926264e-07
-0.0005600862
0.0005604665
6.881641e-13
-3.551315e-06
7.929838e-07
7.925161e-07
7.928793e-07
7.936034e-07
-0.0005608456
0.0005612228
4.954475e-13
-3.552096e-06
7.939471e-07
7.934989e-07
7.93844e-07
7.944501e-07
-0.0005615986
0.0005619723
7.934537e-13
-3.551932e-06
7.947752e-07
7.943354e-07
7.946575e-07
7.951051e-07
-0.0005623445
0.0005627141
1.050481e-12
-3.550467e-06
7.954085e-07
7.949974e-07
7.953064e-07
7.955027e-07
-0.000563082
0.0005634468
9.871048e-13
-3.547148e-06
7.957749e-07
7.954112e-07
7.956907e-07
7.955058e-07
-0.0005638094
0.000564168
1.140026e-12
-3.540983e-06
7.957308e-07
7.954147e-07
7.956621e-07
7.948304e-07
-0.000564524
0.0005648747
1.26243e-12
-3.530093e-06
7.949696e-07
7.947242e-07
7.948508e-07
7.929167e-07
-0.0005652219
0.0005655615
1.216861e-12
-3.511148e-06
7.929718e-07
7.927885e-07
7.928235e-07
7.886191e-07
-0.0005658958
0.0005662185
1.304512e-12
-3.476648e-06
7.884417e-07
7.88488e-07
7.883207e-07
7.779885e-07
-0.0005665325
0.0005668305
1.425138e-12
-3.407432e-06
7.768485e-07
7.778803e-07
7.767453e-07
7.457106e-07
-0.0005671219
0.0005674176
1.487692e-12
-3.261999e-06
7.375551e-07
7.456214e-07
7.374637e-07
6.599756e-07
-0.0005677535
0.0005681576
1.727934e-12
-2.987407e-06
6.317873e-07
6.598782e-07
6.31658e-07
5.706521e-07
-0.0005686213
0.000569088
1.854689e-12
-2.742203e-06
5.672004e-07
5.705342e-07
5.670938e-07
5.597572e-07
-0.0005695348
0.0005699643
1.738827e-12
-2.670186e-06
5.606831e-07
5.596553e-07
5.605797e-07
5.524105e-07
-0.0005703875
0.0005708018
1.736639e-12
-2.623036e-06
5.520638e-07
5.523048e-07
5.519593e-07
5.471262e-07
-0.0005712104
0.0005716107
1.621409e-12
-2.589109e-06
5.473626e-07
5.470252e-07
5.472652e-07
5.440592e-07
-0.0005720065
0.000572395
6.120864e-13
-2.565441e-06
5.445241e-07
5.439654e-07
5.444317e-07
5.405608e-07
-0.0005727801
0.0005731575
-1.403814e-12
-2.542589e-06
5.420982e-07
5.404895e-07
5.420394e-07
5.350127e-07
-0.0005735351
0.0005739003
2.690353e-12
-2.511146e-06
5.378581e-07
5.350717e-07
5.379997e-07
4.826298e-07
-0.0005743819
0.0005750512
3.998476e-12
-2.633825e-06
4.990102e-07
4.829846e-07
4.999613e-07
4.933894e-07
-0.0005756126
0.0005756488
2.802359e-12
-1.930698e-06
4.534624e-07
4.93841e-07
4.537244e-07
4.512213e-07
-0.0005757793
0.0005762123
1.789925e-12
-2.138883e-06
3.999419e-07
4.5307e-07
4.016552e-07
4.239717e-07
-0.0005766843
0.0005771775
1.445049e-12
-2.163729e-06
4.101378e-07
4.252517e-07
4.112192e-07
4.302821e-07
-0.000577662
0.0005781453
1.295594e-12
-2.200197e-06
4.274132e-07
4.31095e-07
4.281137e-07
4.449793e-07
-0.0005786088
0.0005790574
1.214867e-12
-2.232983e-06
4.467776e-07
4.454787e-07
4.472202e-07
4.609507e-07
-0.0005794868
0.0005799026
1.085692e-12
-2.26575e-06
4.637667e-07
4.612514e-07
4.64042e-07
4.746937e-07
-0.0005803047
0.0005806956
1.109229e-12
-2.295487e-06
4.774621e-07
4.748589e-07
4.776188e-07
4.883874e-07
-0.0005810725
0.0005814378
1.141815e-12
-2.324469e-06
4.910829e-07
4.884872e-07
4.911791e-07
5.001398e-07
-0.0005817928
0.0005821389
1.161112e-12
-2.351385e-06
5.024279e-07
5.002048e-07
5.024915e-07
5.097435e-07
-0.0005824771
0.0005828085
1.227398e-12
-2.374026e-06
5.115713e-07
5.097828e-07
5.116128e-07
5.172775e-07
-0.0005831341
0.0005834547
1.235065e-12
-2.392494e-06
5.186223e-07