/*--------------------------------*- C++ -*----------------------------------*\
| =========                 |                                                 |
| \\      /  F ield         | foam-extend: Open Source CFD                    |
|  \\    /   O peration     | Version:     3.1                                |
|   \\  /    A nd           | Web:         http://www.extend-project.de       |
|    \\/     M anipulation  |                                                 |
\*---------------------------------------------------------------------------*/
FoamFile
{
    version     2.0;
    format      ascii;
    class       volScalarField;
    location    "3";
    object      pd;
}
// * * * * * * * * * * * * * * * * * * * * * * * * * * * * * * * * * * * * * //

dimensions      [1 -1 -2 0 0 0 0];

internalField   nonuniform List<scalar> 
119952
(
6831.445
6855.754
6815.244
6794.672
6818.845
6804.033
6790.581
6767.746
6752.754
6739.55
6721.851
6705.061
6686.537
6667.132
6651.584
6641.893
6619.265
6609.928
6599.815
6590.882
6579.198
6526.96
6510.929
6518.435
6488.204
6470.369
6478.807
6475.975
6498.568
6257.396
7520.759
7414.063
7333.553
7362.562
7373.469
7358.955
7353.127
7348.198
7371.936
7423.39
7249.97
7255.615
7242.184
7234.198
7229.058
7223.341
7219.928
7220.846
7156.038
7122.306
7134.265
7114.78
7115.786
7120.011
7109.57
7102.625
7092.041
7071.02
7064.732
6999.535
6978.426
6967.983
6961.058
6953.812
6947.914
6947.471
6927.421
6879.849
6839.511
6803.343
6819.651
6821.518
6815.356
6786.181
6783.371
6768.628
6752.012
6736.575
6716.708
6700.375
6682.882
6663.722
6645.506
6628.226
6610.421
6592.283
6572.815
6559.246
6543.594
6521.447
6512.63
6509.482
6493.981
6472.958
6459.96
6452.288
6413.631
6319.268
6271.173
6279.298
6271.497
6259.237
6249.979
6243.662
6240.006
6236.848
6226.961
6215.187
6205.081
6196.176
6191.762
6183.937
6151.5
6144.913
6134.101
6123.946
6114.104
6104.682
6095.419
6083.58
6075.462
6066.77
6058.152
6049.993
6042.085
6034.076
6026.75
6020.19
6013.377
6006.734
6000.301
5994.093
5988.673
5983.37
5977.722
5972.803
5967.716
5963.178
5958.864
5951.287
5950.491
5945.721
5941.766
5938.91
5937.553
5934.868
5923.9
5907.615
5887.685
5888.386
5889.393
5886.657
5885.998
5886.366
5886.319
5887.332
5881.431
5881.858
5880.343
5878.537
5876.219
5874.224
5873.815
5871.936
5868.366
5867.92
5867.673
5864.934
5863.523
5862.789
5861.761
5860.154
5857.698
5857.009
5856.253
5855.944
5856.676
5852.236
5852.474
5852.286
5851.898
5851.554
5852.059
5852.075
5852.238
5850.85
5852.03
5851.864
5851.995
5852.976
5854.764
5856.282
5856.618
5860.275
5864.103
5870.042
5876.998
5875.147
5818.755
5828.439
5827.44
5838.964
5821.206
5851.282
5852.605
5852.01
5853.603
5855.066
5857.45
5859.526
5861.95
5866.812
5864.009
5867.619
5870.072
5865.729
5888.05
5878.221
5881.974
5881.362
5892.761
5889.299
5890.156
5892.313
5895.796
5897.879
5899.733
5901.506
5904.083
5907.114
5908.57
5909.598
5911.822
5918.697
5920.204
5922.825
5926.847
5929.247
5932.002
5934.918
5937.495
5940.483
5943.652
5946.57
5949.017
5951.576
5954.439
5957.124
5958.495
5974.609
5969.598
5969.939
5973.671
5976.993
5979.373
5982.678
5985.985
5985.458
5993.743
5996.548
6000.534
6005.007
6008.844
6013.853
6015.876
6040.251
6029.032
5953.582
6002.924
6001.965
6006.681
6011.923
6016.958
6023.229
6024.316
6025.316
6032.388
6039.953
6036.105
6040.433
6043.113
6045.625
6049.753
6056.287
6056.474
6060.393
6063.623
6066.604
6067.74
6071.401
6075.209
6078.147
6079.054
6080.983
6083.674
6086.196
6088.652
6090.953
6093.293
6096.081
6099.741
6100.664
6103.213
6104.497
6107.431
6110.636
6113.065
6114.102
6117.124
6120.324
6123.823
6125.828
6129.304
6129.912
6134.091
6138.41
6142.861
6147.902
6152.725
6150.949
6137.53
6111.331
6118.322
6129.713
6141.486
6153.94
6119.571
6144.359
6143.698
6144.912
6148.175
6152.62
6152.686
6151.009
6158.311
6158.665
6163.928
6167.649
6167.639
6172.876
6175.22
6178.429
6181.658
6184.43
6187.791
6189.994
6191.944
6194.344
6196.961
6199.111
6201.458
6203.679
6205.703
6207.843
6210.056
6212.748
6215.192
6217.521
6219.743
6222.258
6224.305
6226.606
6228.814
6231.102
6233.455
6235.629
6237.845
6240.251
6242.139
6244.915
6248.961
6250.164
6249.887
6254.065
6256.447
6258.973
6260.885
6263.099
6265.797
6270.476
6266.907
6272.727
6274.348
6276.444
6278.886
6281.161
6283.676
6286.034
6288.759
6290.352
6291.614
6294.929
6297.964
6300.166
6303.144
6305.849
6308.714
6312.075
6315.491
6319.002
6323.798
6330.583
6336.197
6330.077
6306.459
6290.813
7671.587
7639.138
7738.848
7741.025
7749.736
7753.37
7798.074
7799.615
7828.453
7802.185
7705.401
7721.849
7709.515
7715.821
7720.793
7720.567
7722.504
7687.919
7595.143
7667.331
7659.046
7659.747
7694.698
7691.999
7673.428
7668.89
7656.343
7623.751
7613.314
7548.811
7541.734
7526.653
7541.422
7504.19
7515.668
7506.36
7470.826
7431.696
7377.323
7379.092
7377.684
7371.205
7368.734
7365.549
7354.499
7336.138
7289.609
7264.131
7256.121
7248.286
7238.77
7232.668
7228.401
7218.06
7197.455
7161.671
7117.117
7120.303
7123.87
7117.746
7108.659
7099.934
7088.544
7077.767
7061.879
7043.463
7020.473
6995.631
6975.911
6962.929
6951.683
6939.518
6925.078
6906.672
6881.557
6854.653
6834.212
6821.047
6812.966
6803.642
6791.103
6776.736
6761.802
6746.485
6729.489
6710.896
6692.525
6674.843
6657.504
6639.938
6622.101
6604.164
6586.56
6569.463
6553.037
6537.123
6522.001
6507.649
6493.966
6479.148
6461.659
6441.063
6416.598
6385.367
6346.503
6309.091
6285.69
6275.252
6267.424
6258.5
6249.119
6239.943
6230.38
6220.511
6210.729
6201.093
6191.862
6182.809
6171.88
6156.678
6142.091
6130.607
6120.555
6110.622
6100.71
6091.077
6081.709
6072.592
6063.803
6055.374
6047.287
6039.533
6032.041
6024.731
6017.634
6010.846
6004.414
5998.27
5992.348
5986.546
5980.942
5975.563
5970.358
5965.299
5960.428
5955.754
5951.313
5947.185
5943.152
5938.974
5934.623
5929.988
5924.595
5916.03
5904.308
5896.053
5895.692
5895.358
5893.662
5890.96
5888.699
5887.657
5886.584
5883.967
5881.548
5879.397
5877.546
5875.744
5873.857
5872.061
5870.38
5868.833
5867.43
5866.104
5864.796
5863.488
5862.141
5860.75
5859.369
5858.062
5856.905
5855.969
5855.219
5854.666
5853.658
5852.512
5851.781
5851.351
5851.144
5851.146
5851.268
5851.463
5851.72
5852.121
5852.327
5852.618
5853.287
5854.298
5855.466
5856.745
5857.91
5860.865
5862.045
5857.784
5851.532
5836.012
5832.757
5834.455
5838.661
5843.35
5848.913
5851.353
5852.701
5854.759
5856.805
5858.918
5861.513
5863.823
5866.062
5869.202
5871.423
5874.628
5878.102
5877.882
5880.644
5882.771
5884.915
5887.334
5890.305
5891.802
5893.893
5895.985
5898.284
5900.739
5903.131
5905.406
5907.674
5910.018
5912.487
5915.177
5918.03
5920.839
5923.855
5926.836
5929.687
5932.477
5935.29
5938.202
5941.155
5944.004
5946.907
5949.872
5952.889
5955.952
5959.082
5962.035
5965.497
5968.061
5970.957
5974.352
5977.609
5980.654
5983.764
5986.949
5989.823
5993.31
5996.895
6000.133
6003.73
6007.855
6012.251
6015.951
6017.398
6010.128
5972.147
5989.21
6005.708
6011.895
6015.291
6019.29
6023.898
6028.331
6032.195
6035.471
6037.953
6040.004
6042.126
6044.561
6047.65
6051.374
6055.227
6058.989
6062.204
6064.595
6067.74
6070.301
6072.676
6075.323
6077.784
6079.94
6082.015
6084.18
6086.535
6089.003
6091.493
6093.946
6096.19
6098.147
6100.489
6103.622
6106.147
6108.29
6110.62
6113.076
6115.569
6118.066
6120.593
6123.242
6126.043
6128.833
6131.348
6133.933
6136.745
6139.72
6142.245
6143.438
6142.221
6137.374
6133.811
6132.051
6133.835
6138.021
6141.15
6141.719
6142.769
6144.613
6147.07
6149.586
6151.937
6154.015
6155.902
6158.443
6161.391
6164.374
6167.393
6170.206
6173.011
6176.015
6179.061
6181.978
6184.715
6187.259
6189.575
6191.938
6194.351
6196.822
6199.363
6201.784
6204.08
6206.055
6208.1
6210.367
6212.849
6215.27
6217.644
6220.1
6222.514
6224.802
6227.031
6229.254
6231.489
6233.752
6236.047
6238.428
6240.786
6242.986
6245.238
6247.558
6250.063
6252.519
6254.658
6256.8
6259.08
6261.531
6263.98
6266.283
6268.427
6270.407
6272.538
6274.801
6277.103
6279.427
6281.733
6284.051
6286.383
6288.724
6291.037
6293.282
6295.567
6298.004
6300.515
6303.075
6305.765
6308.576
6311.467
6314.453
6317.464
6320.098
6322.073
6322.305
6320.808
6316.775
6315.045
7731.732
7745.994
7746.089
7753.775
7796.747
7743.647
7763.839
7729.464
7731.15
7796.098
7605.498
7627.005
7606.427
7625.826
7619.178
7624.163
7631.615
7637.112
7595.38
7589.758
7605.882
7610.411
7620.717
7641.011
7656.231
7676.628
7670.206
7674.962
7699.766
7674.068
7681.135
7692.22
7703.417
7716.185
7730.639
7745.939
7757.488
7728.263
7719.208
7742.426
7755.294
7760.108
7770.129
7783.407
7786.723
7788.752
7766.354
7721.891
7717.076
7723.677
7722.439
7721.089
7721.774
7720.003
7714.519
7695.771
7654.956
7655.241
7665.558
7669.066
7674.754
7680.32
7671.179
7655.963
7639.795
7623.374
7603.97
7578.571
7554.889
7537.436
7526.528
7514.508
7500.175
7483.019
7463.648
7440.311
7416.102
7396.226
7381.748
7371.654
7362.531
7351.581
7336.812
7317.644
7293.871
7270.354
7256.424
7248.586
7239.857
7229.503
7217.974
7205.256
7190.334
7172.851
7159.573
7146.763
7133.16
7119.398
7106.11
7093.66
7079.391
7062.519
7042.88
7021.214
7000.957
6985.449
6973.593
6962.278
6949.514
6934.407
6917.566
6898.907
6878.563
6858.938
6842.899
6830.558
6819.968
6808.289
6794.444
6779.102
6763.284
6746.425
6729.144
6711.788
6694.452
6677.027
6659.277
6641.321
6623.306
6605.441
6587.596
6569.876
6552.425
6535.357
6518.594
6501.778
6484.798
6467.418
6449.016
6429.118
6406.753
6381.459
6353.022
6326.6
6305.593
6289.282
6275.153
6262.785
6252.168
6243.009
6233.87
6223.537
6211.671
6199.03
6186.207
6173.637
6161.603
6150.438
6139.762
6129.42
6119.28
6109.187
6099.296
6089.826
6080.533
6071.499
6062.789
6054.41
6046.349
6038.565
6031.036
6023.779
6016.811
6010.138
6003.695
5997.463
5991.45
5985.639
5980.047
5974.634
5969.441
5964.434
5959.618
5955.007
5950.515
5946.131
5941.786
5937.479
5933.034
5928.287
5922.931
5916.87
5909.746
5901.616
5894.399
5889.489
5886.89
5885.804
5884.564
5883.008
5881.083
5879.203
5877.66
5876.346
5875.135
5873.971
5872.729
5871.246
5869.589
5867.895
5866.278
5864.742
5863.256
5861.849
5860.484
5859.154
5857.888
5856.752
5855.784
5854.833
5854.25
5853.786
5853.214
5852.646
5852.169
5851.803
5851.493
5851.247
5850.991
5850.724
5850.442
5850.255
5850.429
5850.956
5851.683
5852.488
5853.209
5854.203
5856.118
5857.367
5855.97
5853.076
5849.115
5845.189
5842.356
5841.283
5842.486
5845.516
5848.809
5851.54
5853.775
5855.735
5857.711
5859.809
5862.006
5864.351
5866.743
5869.176
5871.629
5874.084
5876.542
5878.761
5881.013
5883.185
5885.352
5887.545
5889.872
5892.178
5894.39
5896.658
5898.961
5901.294
5903.698
5906.132
5908.549
5910.979
5913.482
5916.129
5918.947
5921.878
5924.568
5927.374
5930.243
5933.162
5936.096
5939.016
5941.914
5944.826
5947.719
5950.656
5953.638
5956.671
5959.721
5962.756
5965.783
5968.818
5971.866
5974.947
5978.068
5981.211
5984.339
5987.468
5990.607
5993.763
5996.946
6000.152
6003.345
6006.535
6009.633
6012.564
6015.358
6018.718
6023.997
6021.551
6017.534
6015.268
6015.307
6017.314
6020.121
6023.288
6026.673
6030.176
6033.853
6037.639
6041.176
6044.156
6046.934
6049.78
6052.742
6055.8
6058.838
6061.536
6064.161
6066.925
6069.776
6072.558
6075.274
6078.032
6080.696
6083.27
6085.862
6088.324
6090.822
6093.347
6095.885
6098.49
6100.82
6102.986
6105.189
6107.529
6109.962
6112.462
6114.984
6117.519
6120.053
6122.595
6125.126
6127.74
6130.438
6133.172
6135.754
6138.039
6139.831
6140.843
6140.547
6137.986
6133.253
6130.855
6131.958
6134.001
6136.542
6139.458
6142.676
6145.654
6148.215
6150.404
6152.553
6154.924
6157.515
6160.163
6162.893
6165.699
6168.376
6170.949
6173.673
6176.872
6180.167
6182.895
6185.444
6187.753
6190.001
6192.562
6195.202
6197.695
6199.918
6202.107
6204.239
6206.404
6208.983
6211.421
6213.702
6216.023
6218.205
6220.391
6222.641
6224.917
6227.174
6229.443
6231.721
6233.999
6236.283
6238.582
6240.904
6243.247
6245.644
6248.071
6250.24
6252.264
6254.552
6256.976
6259.332
6261.621
6263.864
6266.126
6268.402
6270.674
6272.944
6275.214
6277.476
6279.692
6281.881
6284.041
6286.232
6288.455
6290.751
6293.09
6295.447
6297.812
6300.207
6302.64
6305.123
6307.623
6310.111
6312.507
6314.764
6316.625
6317.763
6317.49
6314.948
6309.574
6304.187
6648.756
6638.622
6472.089
7148.242
7299.774
7490.312
7553.845
7580.365
7628.67
7673.464
7714.644
7733.035
7747.18
7764.015
7771.376
7769.276
7766.676
7758.313
7748.228
7739.085
7718.046
7655.948
7639.866
7634.422
7627.97
7626.518
7628.339
7623.923
7620.159
7613.684
7602.478
7576.296
7593.38
7611.819
7625.701
7638.598
7651.514
7661.472
7670.303
7675.513
7680.933
7685.964
7691.246
7697.229
7705.678
7715.212
7727.668
7738.71
7743.782
7744.548
7746.211
7750.846
7757.702
7764.765
7770.89
7774.898
7774.927
7770.24
7760.703
7746.583
7734.484
7727.811
7725.76
7724.414
7721.536
7716.648
7709.076
7701.069
7694.44
7688.718
7684.121
7680.712
7671.92
7659.919
7646.137
7630.613
7613.252
7593.469
7573.081
7555.322
7541.351
7530.344
7519.806
7507.329
7492.009
7473.706
7451.865
7428.302
7410.503
7396.773
7383.937
7372.486
7361.696
7350.164
7337.253
7322.49
7305.967
7288.857
7272.278
7256.859
7242.937
7229.831
7216.958
7203.328
7188.605
7172.236
7153.935
7137.159
7124.108
7112.928
7102.119
7090.545
7077.856
7064.596
7049.674
7033.847
7017.248
7000.277
6983.239
6966.714
6950.91
6935.364
6919.657
6903.421
6886.131
6867.975
6850.096
6833.711
6818.631
6804.499
6790.448
6775.833
6760.167
6744.013
6727.153
6709.766
6692.106
6674.395
6656.633
6638.78
6620.868
6603.053
6585.289
6567.611
6550.026
6532.662
6515.431
6498.188
6480.824
6463.107
6444.465
6424.527
6402.988
6379.928
6355.779
6331.697
6310.031
6291.827
6276.905
6264.21
6252.619
6241.425
6230.323
6218.777
6207.189
6195.851
6184.851
6173.843
6162.748
6151.517
6140.198
6128.866
6118.035
6107.747
6097.899
6088.543
6079.389
6070.363
6061.615
6053.225
6045.192
6037.464
6029.995
6022.781
6015.841
6009.149
6002.681
5996.448
5990.439
5984.66
5979.089
5973.701
5968.512
5963.464
5958.591
5953.869
5949.215
5944.662
5940.17
5935.637
5931.006
5926.107
5920.891
5915.3
5909.28
5903.28
5898.649
5895.603
5893.761
5892.079
5890.036
5887.658
5885.402
5883.828
5881.872
5879.846
5877.888
5875.776
5873.712
5871.783
5869.97
5868.269
5866.705
5865.283
5863.964
5862.693
5861.477
5860.247
5858.978
5857.723
5856.647
5855.703
5854.516
5853.568
5852.872
5852.149
5851.504
5851.029
5850.706
5850.46
5850.274
5850.149
5850.235
5850.478
5850.727
5851.054
5851.628
5852.48
5853.475
5854.43
5855.368
5854.146
5851.408
5849.589
5847.942
5845.151
5841.445
5842.302
5845.057
5847.456
5849.585
5851.538
5853.429
5855.336
5857.302
5859.356
5861.532
5863.853
5866.234
5868.585
5870.882
5873.254
5875.589
5877.757
5879.957
5882.189
5884.437
5886.888
5889.278
5891.578
5893.872
5896.188
5898.597
5901.027
5903.462
5905.906
5908.358
5910.807
5913.364
5916.04
5918.951
5921.754
5924.384
5927.107
5929.996
5932.944
5935.878
5938.748
5941.63
5944.542
5947.436
5950.378
5953.406
5956.472
5959.552
5962.611
5965.664
5968.694
5971.73
5974.759
5977.796
5980.868
5983.928
5987.018
5990.102
5993.193
5996.27
5999.303
6002.223
6004.885
6006.991
6007.972
6007.552
6005.503
6002.694
6002.584
6006.408
6011.763
6016.301
6019.896
6023.179
6026.54
6029.945
6033.379
6036.695
6039.594
6042.217
6044.881
6047.661
6050.532
6053.546
6056.836
6060.347
6063.513
6066.46
6069.121
6071.58
6074.035
6076.61
6079.163
6081.622
6084.066
6086.542
6088.99
6091.298
6093.571
6095.886
6098.263
6100.603
6102.944
6105.312
6107.72
6110.141
6112.581
6115.029
6117.469
6119.915
6122.351
6124.764
6127.175
6129.53
6131.778
6133.829
6135.582
6136.939
6137.786
6138.12
6137.982
6136.79
6136.205
6137.945
6140.238
6142.104
6143.896
6145.387
6147.104
6149.09
6151.239
6153.451
6155.753
6158.207
6160.691
6163.179
6165.738
6168.433
6171.292
6174.185
6176.941
6179.619
6181.925
6184.368
6187.009
6189.705
6192.315
6194.82
6197.19
6199.331
6201.67
6203.922
6206.087
6208.476
6210.728
6212.952
6215.408
6217.706
6219.93
6222.208
6224.56
6226.878
6229.204
6231.517
6233.814
6236.11
6238.411
6240.714
6243.025
6245.338
6247.651
6249.957
6252.269
6254.596
6256.95
6259.247
6261.489
6263.757
6266.028
6268.286
6270.532
6272.769
6274.988
6277.17
6279.357
6281.572
6283.83
6286.107
6288.399
6290.645
6292.912
6295.192
6297.465
6299.753
6302.041
6304.32
6306.556
6308.733
6310.77
6312.567
6313.994
6314.847
6315.089
6314.619
6313.817
6313.755
6306.427
6281.583
6277.14
6230.755
6173.99
6204.546
6089.263
6057.631
6070.985
6129.743
6196.527
6419.498
6712.237
6866.025
7120.512
7296.824
7514.139
7522.907
7573.358
7628.711
7673.902
7707.633
7730.611
7744.509
7751.565
7754.952
7754.119
7747.146
7737.221
7723.956
7708.122
7688.841
7664.229
7639.561
7623.285
7616.281
7615.982
7618.013
7616.732
7613.703
7611.35
7610.612
7617.35
7623.549
7628.353
7633.803
7640.456
7648.357
7655.939
7661.938
7666.582
7668.284
7671.329
7679.106
7689.803
7700.953
7711.53
7726.055
7737.205
7742.451
7746.577
7750.254
7754.667
7759.716
7764.997
7769.015
7771.268
7771.877
7769.661
7764.589
7757.252
7749.429
7742.379
7735.931
7730.192
7725.131
7719.586
7712.627
7704.004
7693.841
7683.845
7675.108
7667.835
7661.579
7654.69
7646.909
7637.119
7625.239
7611.071
7594.108
7575.889
7558.452
7542.268
7526.425
7510.683
7494.392
7477.92
7461.532
7444.515
7426.822
7408.64
7391.122
7375.843
7362.392
7349.05
7335.149
7319.486
7302.221
7284.622
7268.183
7253.195
7239.468
7226.588
7213.918
7200.982
7187.447
7173.31
7158.676
7144.362
7130.712
7117.452
7104.064
7090.258
7075.779
7060.569
7044.464
7027.688
7010.631
6993.892
6977.75
6962.419
6947.965
6933.333
6917.779
6901.455
6884.529
6867.503
6850.948
6835.066
6820.204
6806.194
6792.013
6776.828
6760.763
6744.289
6727.313
6709.789
6692.052
6674.417
6656.758
6638.902
6620.822
6602.748
6584.748
6566.743
6548.784
6530.876
6512.996
6495.162
6477.098
6458.653
6439.409
6419.375
6398.596
6377.105
6355.167
6333.548
6313.691
6296.091
6280.742
6267.189
6254.57
6242.248
6230.332
6218.757
6206.964
6194.881
6182.877
6171.096
6159.424
6147.926
6136.744
6126.031
6115.73
6105.711
6095.939
6086.585
6077.432
6068.522
6059.927
6051.648
6043.669
6035.988
6028.575
6021.407
6014.481
6007.812
6001.387
5995.186
5989.214
5983.451
5977.883
5972.497
5967.285
5962.226
5957.313
5952.524
5947.837
5943.236
5938.695
5934.132
5929.499
5924.764
5919.907
5914.947
5909.88
5904.88
5900.144
5895.438
5891.394
5888.475
5886.407
5884.413
5882.181
5879.558
5877.376
5875.695
5874.717
5873.801
5872.274
5870.366
5868.452
5866.684
5865.128
5863.614
5862.118
5860.632
5859.164
5857.768
5856.483
5855.481
5854.7
5854.323
5853.61
5852.707
5852.136
5851.601
5851.073
5850.636
5850.298
5850.026
5849.802
5849.758
5849.687
5849.481
5849.63
5849.95
5850.263
5850.777
5851.845
5852.704
5852.972
5852.258
5850.581
5849.616
5849.178
5847.887
5846.397
5846.811
5847.301
5848.173
5849.763
5851.604
5853.522
5855.514
5857.582
5859.71
5861.851
5864.014
5866.245
5868.485
5870.782
5873.081
5875.309
5877.603
5879.967
5882.318
5884.757
5886.952
5888.99
5891.16
5893.494
5895.99
5898.554
5901.085
5903.576
5906.04
5908.525
5911.054
5913.671
5916.359
5919.133
5921.825
5924.372
5927.139
5930.091
5933.063
5935.965
5938.787
5941.621
5944.514
5947.439
5950.418
5953.442
5956.481
5959.53
5962.579
5965.624
5968.639
5971.662
5974.689
5977.744
5980.799
5983.841
5986.861
5989.856
5992.852
5995.8
5998.713
6001.536
6004.333
6007.056
6009.654
6012.128
6014.346
6016.414
6018.041
6019.156
6019.973
6020.908
6022.35
6024.396
6026.96
6029.879
6032.983
6036.037
6038.936
6041.82
6044.8
6047.749
6050.807
6053.639
6056.57
6059.517
6062.294
6064.879
6067.456
6070.049
6072.666
6075.302
6077.955
6080.578
6083.185
6085.748
6088.253
6090.67
6093.089
6095.521
6097.979
6100.404
6102.77
6105.117
6107.468
6109.839
6112.203
6114.582
6116.963
6119.332
6121.692
6123.998
6126.248
6128.424
6130.488
6132.386
6134.047
6135.415
6136.483
6137.306
6137.926
6137.316
6136.312
6137.37
6138.554
6139.885
6142.229
6144.522
6146.78
6149.073
6151.427
6153.793
6156.153
6158.604
6161.109
6163.559
6166.052
6168.634
6171.453
6174.29
6176.673
6179.083
6181.806
6184.558
6187.245
6190.004
6192.341
6194.589
6196.971
6199.009
6201.313
6203.721
6206.06
6208.529
6210.727
6212.945
6215.272
6217.554
6219.804
6222.04
6224.334
6226.723
6229.1
6231.463
6233.824
6236.164
6238.49
6240.809
6243.125
6245.445
6247.768
6250.088
6252.396
6254.688
6256.963
6259.206
6261.428
6263.701
6266.057
6268.407
6270.705
6272.954
6275.161
6277.323
6279.475
6281.67
6283.897
6286.12
6288.338
6290.551
6292.722
6294.908
6297.108
6299.278
6301.432
6303.542
6305.582
6307.538
6309.359
6310.93
6312.218
6313.139
6313.701
6313.836
6313.47
6313.131
6551.248
6554.533
6607.215
6516.327
6495.391
6463.26
6437.412
6417.753
6391.001
6368.267
6333.301
6305.483
6239.892
6199.932
6142.084
6057.771
5992.318
5982.571
5970.858
5947.136
6125.422
6387.029
6611.561
6825.021
7034.244
7313.365
7465.738
7440.766
7554.609
7616.636
7653
7684.249
7706.961
7723.634
7733.88
7739.064
7738.917
7729.481
7719.148
7707.717
7695.146
7680.292
7663.505
7647.064
7633.396
7621.892
7613.109
7607.317
7603.794
7601.728
7600.698
7601.415
7602.006
7604.756
7610.466
7619.622
7630.433
7640.901
7649.777
7656.884
7662.493
7670.309
7684.705
7697.646
7703.857
7706.798
7716.074
7729.972
7738.785
7743.962
7748.359
7753.31
7758.074
7762.482
7766.378
7769.317
7771.046
7771.309
7769.82
7766.449
7760.54
7753.215
7745.811
7738.499
7732.117
7726.804
7721.298
7714.454
7706.409
7697.827
7689.376
7681.331
7674.081
7666.211
7656.791
7645.76
7632.251
7615.967
7598.89
7582.502
7566.097
7549.925
7533.859
7518.914
7504.192
7489.206
7473.326
7456.315
7438.405
7420.737
7404.198
7388.901
7374.586
7360.911
7347.304
7333.44
7319.27
7304.35
7289.01
7273.514
7258.228
7243.487
7229.176
7215.117
7201.257
7187.305
7173.018
7158.191
7143.16
7128.275
7113.693
7100.007
7086.772
7073.274
7059.134
7044.394
7029.103
7013.496
6997.921
6982.284
6966.691
6951.295
6935.829
6919.972
6903.982
6887.916
6871.638
6855.234
6838.861
6822.948
6807.497
6791.891
6775.887
6759.629
6743.127
6726.144
6708.658
6690.864
6673.054
6655.248
6637.287
6619.111
6600.874
6582.687
6564.526
6546.346
6528.128
6509.878
6491.568
6473.066
6454.188
6434.878
6415.214
6395.204
6374.755
6354.312
6334.58
6315.857
6298.363
6282.194
6267.293
6253.507
6240.606
6228.322
6216.188
6203.867
6191.625
6179.765
6168.285
6156.948
6145.772
6134.876
6124.251
6113.828
6103.687
6093.886
6084.507
6075.434
6066.62
6058.097
6049.87
6041.917
6034.25
6026.88
6019.771
6012.898
6006.272
5999.887
5993.729
5987.789
5982.05
5976.492
5971.113
5965.9
5960.852
5955.932
5951.138
5946.436
5941.822
5937.257
5932.692
5928.119
5923.512
5918.853
5914.137
5909.442
5904.943
5900.723
5896.882
5894.011
5891.743
5889.359
5886.917
5884.459
5881.853
5880.148
5878.023
5875.805
5874.282
5872.763
5870.944
5869.058
5867.318
5865.76
5864.316
5863.016
5861.726
5860.439
5859.163
5858.041
5856.86
5855.675
5854.476
5853.281
5852.22
5851.521
5850.986
5850.482
5850.01
5849.597
5849.267
5849.107
5849.156
5848.984
5848.703
5848.959
5849.326
5849.504
5849.748
5850.225
5850.586
5850.706
5850.418
5849.343
5848.782
5848.654
5848.151
5847.259
5847.221
5848.044
5849.209
5850.601
5852.238
5853.974
5855.762
5857.564
5859.514
5861.582
5863.71
5865.876
5868.061
5870.281
5872.537
5874.816
5877.099
5879.417
5881.761
5884.129
5886.398
5888.503
5890.768
5893.17
5895.703
5898.26
5900.771
5903.225
5905.742
5908.351
5911.08
5913.605
5916.256
5918.972
5921.726
5924.509
5927.33
5930.174
5932.929
5935.685
5938.5
5941.366
5944.312
5947.309
5950.334
5953.362
5956.381
5959.395
5962.42
5965.447
5968.462
5971.478
5974.512
5977.549
5980.575
5983.572
5986.525
5989.456
5992.338
5995.174
5997.906
6000.471
6002.818
6004.847
6006.486
6007.733
6008.592
6009.262
6010.305
6012.108
6014.616
6017.665
6020.911
6024.056
6027.088
6030.108
6033.099
6036.213
6039.469
6042.566
6045.439
6048.261
6051.148
6054.124
6056.927
6059.531
6062.323
6065.178
6067.819
6070.478
6073.186
6075.848
6078.458
6081.038
6083.59
6086.099
6088.55
6090.935
6093.289
6095.647
6098.022
6100.403
6102.745
6105.072
6107.395
6109.729
6112.06
6114.391
6116.726
6119.044
6121.338
6123.58
6125.749
6127.821
6129.775
6131.559
6133.14
6134.514
6135.685
6136.703
6137.844
6138.075
6137.82
6138.765
6141.011
6142.735
6144.422
6146.513
6148.391
6150.24
6152.301
6154.6
6156.981
6159.377
6161.799
6164.251
6166.731
6169.282
6171.842
6174.366
6176.711
6179.218
6182.008
6184.652
6187.199
6189.755
6192.073
6194.338
6196.648
6198.772
6201.058
6203.52
6205.954
6208.409
6210.631
6212.862
6215.151
6217.435
6219.699
6221.931
6224.228
6226.61
6228.931
6231.271
6233.656
6236.035
6238.393
6240.737
6243.061
6245.368
6247.664
6249.962
6252.284
6254.628
6256.946
6259.225
6261.487
6263.74
6266.031
6268.289
6270.541
6272.781
6275.006
6277.199
6279.356
6281.498
6283.645
6285.806
6288.05
6290.325
6292.532
6294.67
6296.752
6298.801
6300.828
6302.79
6304.711
6306.522
6308.153
6309.569
6310.754
6311.691
6312.344
6312.726
6312.947
6313.33
6614.951
6608.569
6601.549
6596.383
6585.112
6576.12
6562.827
6541.211
6511.567
6512.588
6461.63
6434.885
6419.981
6396.385
6365.34
6322.015
6294.987
6230.172
6163.724
6085.568
5981.959
5934.298
5923.474
5877.788
5910.527
6082.081
6289.118
6507.317
6769.905
6955.651
7127.263
7301.641
7411.73
7492.08
7550.82
7594.956
7634.339
7665.42
7687.28
7700.742
7705.288
7703.595
7695.965
7686.236
7675.099
7662.512
7649.339
7634.805
7619.84
7606.113
7594.808
7586.868
7584.086
7584.87
7586.895
7590.104
7594.732
7601.172
7609.169
7618.109
7627.588
7636.334
7645.55
7654.593
7661.077
7663.511
7663.957
7673.498
7687.141
7696.375
7708.206
7720.983
7731.967
7737.984
7742.885
7748.986
7755.619
7761.349
7765.808
7769.006
7771.244
7772.39
7772.209
7770.89
7768.225
7763.622
7757.64
7751.085
7744.266
7737.828
7731.73
7725.275
7718.252
7710.763
7702.485
7693.721
7684.765
7675.172
7664.64
7653.41
7641.993
7630.364
7618.248
7605.292
7591.123
7575.354
7558.831
7542.64
7526.801
7510.956
7494.903
7478.283
7461.588
7445.24
7428.885
7412.552
7396.194
7379.914
7364.343
7349.35
7334.502
7319.606
7304.337
7288.473
7272.434
7256.82
7241.711
7227.107
7213.088
7199.52
7185.945
7172.14
7157.96
7143.559
7129.24
7115.088
7101.239
7087.555
7073.639
7059.251
7044.402
7029.233
7013.727
6997.925
6982.196
6966.452
6950.744
6935.234
6919.739
6904.109
6888.231
6872.088
6855.815
6839.579
6823.525
6807.602
6791.722
6775.732
6759.491
6742.849
6725.791
6708.282
6690.383
6672.341
6654.307
6636.194
6617.882
6599.432
6580.975
6562.527
6544.04
6525.489
6506.89
6488.227
6469.431
6450.441
6431.271
6411.932
6392.398
6372.652
6353.138
6334.156
6315.838
6298.429
6281.972
6266.714
6252.802
6239.647
6226.721
6214.083
6201.738
6189.526
6177.501
6165.803
6154.377
6143.17
6132.177
6121.479
6111.111
6101.09
6091.405
6082.068
6073.055
6064.324
6055.877
6047.724
6039.842
6032.237
6024.924
6017.881
6011.078
6004.5
5998.159
5992.042
5986.139
5980.429
5974.902
5969.549
5964.362
5959.33
5954.422
5949.64
5944.951
5940.335
5935.782
5931.257
5926.772
5922.314
5917.814
5913.341
5908.951
5904.684
5900.71
5897.238
5894.089
5890.808
5887.817
5885.211
5882.908
5880.692
5878.559
5876.541
5874.547
5872.88
5871.022
5869.052
5867.262
5865.616
5864.026
5862.493
5860.995
5859.504
5858.053
5856.873
5855.742
5855.091
5854.297
5853.396
5852.481
5851.584
5850.804
5850.172
5849.673
5849.237
5848.904
5848.643
5848.422
5848.332
5848.2
5848.038
5848.109
5848.307
5848.448
5848.567
5848.651
5848.831
5848.746
5847.938
5847.27
5846.799
5846.858
5847.099
5847.211
5847.47
5848.278
5849.548
5850.97
5852.58
5854.218
5855.974
5857.688
5859.467
5861.433
5863.52
5865.679
5867.884
5870.11
5872.315
5874.535
5876.775
5879.073
5881.384
5883.677
5885.944
5888.244
5890.563
5892.947
5895.433
5897.988
5900.395
5902.826
5905.472
5908.354
5911.09
5913.264
5915.808
5918.632
5921.464
5924.136
5927.036
5929.97
5932.56
5935.225
5938.071
5941.018
5944.063
5947.144
5950.207
5953.253
5956.3
5959.35
5962.39
5965.402
5968.404
5971.407
5974.428
5977.444
5980.458
5983.406
5986.316
5989.161
5991.952
5994.742
5997.455
6000.154
6002.756
6005.287
6007.745
6010.097
6012.35
6014.495
6016.601
6018.602
6020.568
6022.547
6024.596
6026.784
6029.152
6031.747
6034.517
6037.452
6040.349
6043.076
6045.769
6048.564
6051.379
6054.21
6056.907
6059.532
6062.283
6065.136
6067.762
6070.357
6072.968
6075.548
6078.083
6080.621
6083.163
6085.693
6088.168
6090.597
6092.981
6095.365
6097.746
6100.143
6102.514
6104.858
6107.177
6109.489
6111.796
6114.095
6116.373
6118.628
6120.838
6122.989
6125.059
6127.043
6128.91
6130.66
6132.259
6133.713
6135.024
6136.395
6137.912
6138.373
6138.579
6139.407
6141.282
6142.836
6144.617
6146.579
6148.572
6150.533
6152.699
6155.01
6157.374
6159.712
6162.08
6164.53
6166.992
6169.486
6171.964
6174.437
6176.882
6179.404
6181.996
6184.52
6186.996
6189.448
6191.812
6194.131
6196.444
6198.699
6201.006
6203.39
6205.77
6208.143
6210.431
6212.708
6215.006
6217.306
6219.601
6221.9
6224.24
6226.577
6228.833
6231.131
6233.507
6235.912
6238.296
6240.66
6243.008
6245.342
6247.667
6250.026
6252.373
6254.686
6256.996
6259.302
6261.584
6263.833
6266.039
6268.251
6270.504
6272.773
6275.027
6277.254
6279.478
6281.68
6283.815
6285.905
6288.023
6290.206
6292.36
6294.385
6296.368
6298.332
6300.322
6302.289
6304.067
6305.68
6307.152
6308.466
6309.59
6310.545
6311.309
6311.978
6312.583
6313.035
6608.268
6611.145
6603.232
6596.9
6586.762
6573.786
6558.201
6542.484
6527.616
6511.811
6492.114
6474.735
6466.515
6446.367
6404.511
6360.86
6323.238
6204.064
6110.675
6105.277
6073.979
5958.602
5847.269
5805.275
5926.807
6072.845
6256
6464.918
6700.08
6882.98
7021.392
7153.248
7326.384
7436.316
7475.445
7522.6
7575.314
7614.554
7640.71
7656.095
7661.929
7661.075
7655.987
7648.181
7639.275
7629.67
7619.422
7609.848
7600.22
7591.519
7584.589
7579.265
7575.238
7573.343
7574.744
7579.659
7585.885
7594.146
7602.302
7611.052
7619.489
7629.048
7637.213
7645.092
7649.144
7658.98
7677.136
7686.26
7695.866
7712.839
7728.828
7737.417
7735.531
7733.997
7740.163
7749.496
7758.53
7765.441
7769.98
7772.807
7774.436
7775.094
7774.68
7773.286
7771.056
7767.554
7762.619
7756.762
7750.213
7743.331
7736.235
7729.006
7721.867
7714.288
7705.766
7696.61
7686.836