/*--------------------------------*- C++ -*----------------------------------*\
| =========                 |                                                 |
| \\      /  F ield         | foam-extend: Open Source CFD                    |
|  \\    /   O peration     | Version:     3.1                                |
|   \\  /    A nd           | Web:         http://www.extend-project.de       |
|    \\/     M anipulation  |                                                 |
\*---------------------------------------------------------------------------*/
FoamFile
{
    version     2.0;
    format      ascii;
    class       volScalarField;
    location    "3.5";
    object      k;
}
// * * * * * * * * * * * * * * * * * * * * * * * * * * * * * * * * * * * * * //

dimensions      [0 2 -2 0 0 0 0];

internalField   nonuniform List<scalar> 
119952
(
0.01303631
0.01202382
0.01185446
0.01180307
0.01171336
0.01156973
0.01161961
0.01176642
0.01195966
0.01217524
0.0123996
0.01262514
0.01284806
0.0130668
0.01328116
0.01349198
0.01370132
0.01391379
0.01414302
0.01444478
0.01496202
0.01474818
0.01495113
0.01540813
0.01503745
0.01495207
0.01489908
0.01483648
0.0144927
0.01072876
0.01774898
0.01608195
0.01526468
0.01497687
0.01502533
0.01525636
0.01555928
0.01586891
0.01614568
0.01642852
0.01703469
0.01841718
0.01988273
0.02118766
0.02225079
0.02308269
0.023732
0.02423928
0.0246273
0.02734745
0.02768441
0.02787353
0.02797105
0.02804718
0.02812616
0.02822527
0.02834589
0.02847373
0.02863291
0.02880406
0.02886652
0.0288981
0.02891879
0.0289349
0.02894644
0.02895019
0.02892988
0.02892947
0.02940366
0.02930562
0.02905757
0.02895367
0.02887927
0.02872933
0.02849466
0.02823106
0.02796229
0.02769563
0.02743447
0.02718078
0.02693545
0.02669893
0.02647154
0.02625351
0.02604482
0.02584429
0.02564788
0.02545193
0.02529673
0.02517969
0.02501478
0.02493718
0.0250433
0.025076
0.02505047
0.02506112
0.02514608
0.02472281
0.02429759
0.0239827
0.02373551
0.02353033
0.02335069
0.02318625
0.02302917
0.02287373
0.02271603
0.02255341
0.02238413
0.02220717
0.02202216
0.02182926
0.02162913
0.02142301
0.02121328
0.0210028
0.02079225
0.02058291
0.02037667
0.02017565
0.01998306
0.01979917
0.01962361
0.01945697
0.01929968
0.01915192
0.0190137
0.01888487
0.01876504
0.01865362
0.01855006
0.01845379
0.01836435
0.0182813
0.01820398
0.01813192
0.01806477
0.01800211
0.01794352
0.01788862
0.01783702
0.01778842
0.01774247
0.01769878
0.01765663
0.01761314
0.01756917
0.01754049
0.01754623
0.01756527
0.01759694
0.01763489
0.01767276
0.01770991
0.01774284
0.01776952
0.01779013
0.01780498
0.0178141
0.01781736
0.01781477
0.01780656
0.01779307
0.01777468
0.01775186
0.01772502
0.01769454
0.01766081
0.01762421
0.01758512
0.01754389
0.0175009
0.0174565
0.017411
0.01736474
0.01731801
0.0172711
0.01722428
0.01717779
0.01713186
0.01708668
0.01704246
0.01699939
0.01695763
0.01691736
0.0168787
0.0168418
0.01680663
0.01677311
0.01674115
0.01671073
0.01668177
0.01665425
0.01662799
0.01660258
0.01657547
0.01655377
0.01665378
0.01687902
0.01699468
0.01705721
0.01707288
0.01702545
0.0169308
0.01681218
0.01668083
0.01654321
0.01640513
0.01627019
0.01613981
0.01601466
0.01589542
0.01578237
0.01567565
0.01557535
0.0154815
0.01539401
0.01531282
0.01523786
0.01516909
0.01510646
0.01504984
0.01499916
0.01495425
0.01491516
0.01488183
0.0148544
0.01483296
0.01481765
0.01480855
0.0148049
0.0147993
0.01473487
0.01479937
0.01492234
0.01504719
0.015167
0.0152786
0.01537921
0.01546708
0.01553776
0.01558926
0.01562664
0.01565191
0.0156669
0.01567342
0.01567319
0.01566776
0.01565852
0.01564668
0.01563331
0.01561948
0.01560624
0.01559405
0.01558113
0.01556818
0.01555724
0.01554808
0.01554048
0.0155344
0.0155298
0.01552662
0.01552477
0.01552417
0.01552467
0.01552605
0.01552742
0.01657704
0.0165709
0.01651249
0.01641718
0.01631539
0.01622383
0.01615495
0.01611457
0.01610447
0.01612367
0.01616934
0.01623759
0.01632417
0.01642485
0.01653568
0.01665316
0.01677433
0.01689683
0.01701884
0.01713903
0.01725648
0.01737062
0.01748109
0.01758777
0.01769064
0.01778977
0.01788532
0.01797748
0.01806649
0.01815255
0.01823591
0.01831678
0.01839539
0.01847196
0.01854669
0.01861978
0.01869141
0.01876171
0.01883084
0.0188989
0.01896598
0.01903216
0.0190975
0.01916224
0.01922752
0.01929276
0.0193507
0.01940498
0.01945633
0.01950545
0.01955289
0.01959911
0.01964461
0.01970089
0.01976223
0.019758
0.0197423
0.01972506
0.01971126
0.01970627
0.01971489
0.01974001
0.01978246
0.01984118
0.01991377
0.01999711
0.020088
0.02018348
0.02028104
0.02037872
0.02047494
0.02056856
0.02065891
0.02074574
0.02082906
0.02090905
0.02098583
0.02105952
0.02113041
0.0211988
0.02126496
0.02132916
0.02139162
0.02145252
0.02151204
0.0215703
0.02162736
0.02168332
0.02173827
0.02179229
0.02184545
0.0218978
0.02194936
0.02200017
0.02205025
0.02209963
0.02214831
0.02219632
0.02224365
0.02229033
0.02233636
0.02238174
0.02242647
0.02247056
0.02251401
0.02255682
0.02259899
0.02264053
0.02268145
0.02272177
0.02276151
0.02280068
0.02283931
0.02287743
0.02291508
0.02295231
0.02298915
0.02302566
0.02306191
0.02309795
0.02313387
0.02316976
0.0232057
0.02324182
0.02327825
0.02331514
0.02335268
0.02339112
0.02343075
0.02347199
0.02351539
0.02356172
0.02361216
0.02366847
0.02373349
0.02381224
0.02391492
0.02410776
0.02452612
0.04586365
0.04315152
0.04204453
0.04178956
0.04197619
0.04233087
0.0426902
0.04295996
0.04312999
0.04198933
0.04172132
0.04267547
0.044074
0.04547788
0.04668438
0.04762757
0.04830833
0.04875075
0.05383446
0.05352739
0.05312523
0.05252599
0.05181721
0.0510763
0.05035505
0.04967864
0.04905591
0.04848095
0.04811433
0.0476376
0.04712092
0.04661381
0.0461264
0.04566409
0.04523117
0.04483246
0.04446091
0.04426681
0.0441385
0.04386635
0.04361365
0.04337193
0.04314482
0.04293387
0.04274108
0.04256727
0.04241151
0.04225624
0.0421131
0.04200038
0.0418977
0.04179952
0.04170674
0.04161879
0.04153676
0.0414823
0.04419976
0.04405524
0.04393764
0.04382796
0.0437124
0.04358661
0.04344862
0.04329993
0.04313751
0.0429595
0.04277589
0.04258553
0.04238259
0.04216765
0.04194307
0.04170808
0.04146924
0.04124385
0.04106541
0.0408785
0.04059326
0.04030269
0.04003692
0.03976054
0.03944874
0.03910715
0.03875043
0.03838434
0.03801305
0.03764086
0.03727125
0.03690687
0.03654969
0.03620114
0.03586209
0.03553275
0.03521297
0.03490402
0.03461105
0.03434195
0.03408591
0.03385856
0.03369873
0.0335848
0.03348267
0.03339604
0.03330863
0.03315175
0.03292838
0.03272123
0.0325378
0.03236667
0.03220607
0.03205207
0.03190027
0.03174711
0.03158968
0.0314257
0.03125334
0.03107119
0.03087824
0.03067387
0.03045783
0.03023023
0.02999148
0.0297423
0.0294838
0.02921743
0.02894484
0.02866773
0.02838781
0.02810676
0.02782738
0.02755282
0.02728587
0.02702908
0.02678485
0.02655538
0.02634241
0.0261455
0.02596423
0.02579824
0.0256471
0.02551014
0.02538653
0.02527545
0.02517604
0.02508746
0.02500889
0.02493954
0.02487862
0.02482538
0.02477911
0.02473915
0.02470479
0.02467557
0.02465171
0.02463379
0.02462165
0.02461233
0.02460439
0.02459874
0.0245958
0.02459551
0.02459769
0.02460221
0.02460879
0.02461713
0.02462703
0.02463827
0.02465064
0.0246639
0.02467783
0.02469221
0.02470683
0.0247215
0.02473603
0.02475027
0.02476409
0.02477736
0.02479001
0.02480196
0.02481314
0.02482352
0.02483308
0.02484182
0.02484974
0.02485687
0.02486323
0.02486887
0.02487385
0.0248782
0.02488198
0.02488527
0.02488812
0.0248906
0.02489279
0.02489474
0.02489654
0.02489821
0.02489986
0.02490143
0.0249031
0.02490469
0.02490648
0.02490842
0.02491179
0.0249212
0.02450096
0.02402955
0.02371778
0.02350699
0.02336153
0.02326022
0.02318893
0.02313849
0.02310248
0.0230764
0.02305698
0.02304179
0.02302908
0.02301758
0.02300637
0.02299485
0.02298258
0.02296932
0.02295495
0.02293945
0.02292289
0.02290538
0.02288708
0.02286822
0.02284891
0.02282941
0.02280987
0.02279046
0.02277137
0.02275278
0.02273487
0.02271789
0.02270213
0.02268834
0.02267903
0.02268297
0.02271251
0.02275307
0.02279733
0.02284494
0.02289618
0.02295152
0.02301027
0.0230721
0.0231368
0.02320419
0.02327416
0.02334656
0.02342127
0.02349814
0.02357702
0.02365774
0.02374015
0.02382407
0.02390932
0.02399574
0.02408317
0.02417143
0.02426033
0.02434964
0.02443917
0.02452874
0.02461819
0.0247074
0.02479629
0.02488475
0.02497235
0.02505886
0.02514416
0.0252269
0.0272014
0.02730271
0.02741125
0.02751721
0.02761562
0.0277058
0.02778811
0.02786345
0.02793296
0.02799773
0.02805897
0.02811789
0.02817557
0.02823291
0.02829072
0.02834963
0.02841012
0.02847254
0.02853709
0.02860384
0.02867276
0.02874372
0.02881652
0.02889093
0.02896666
0.02904343
0.02912096
0.02919901
0.02927732
0.02935568
0.02943391
0.02951182
0.02958929
0.0296662
0.02974245
0.02981798
0.02989273
0.02996666
0.03003971
0.03011186
0.03018306
0.03025322
0.03032221
0.03038964
0.03045465
0.03051578
0.03057334
0.03062888
0.03068319
0.03073649
0.03078902
0.03084065
0.0308919
0.03094431
0.03099552
0.03104105
0.03108235
0.03112197
0.03116059
0.03119833
0.03123536
0.03127193
0.0313084
0.0313452
0.03138277
0.0314215
0.03146168
0.03150349
0.03154701
0.03159217
0.0316388
0.03168669
0.0317356
0.0317853
0.03183556
0.0318862
0.03193702
0.03198786
0.03203859
0.03208908
0.03213924
0.03218901
0.03223832
0.03228713
0.03233539
0.03238308
0.03243037
0.03247738
0.03252414
0.03257068
0.03261704
0.03266327
0.0327094
0.0327555
0.03280148
0.03284704
0.03289211
0.03293663
0.03298057
0.03302387
0.03306652
0.0331085
0.03314978
0.03319037
0.03323025
0.03326942
0.03330788
0.03334563
0.03338267
0.03341901
0.03345468
0.03348969
0.03352408
0.03355786
0.03359109
0.03362382
0.03365608
0.03368796
0.0337195
0.03375081
0.03378195
0.03381304
0.03384419
0.03387552
0.03390719
0.03393937
0.03397228
0.03400617
0.03404137
0.03407828
0.03411743
0.03415951
0.03420543
0.03425633
0.0343139
0.03438078
0.03446524
0.03457994
0.03470324
0.04428482
0.04868636
0.05335407
0.05802938
0.06264778
0.06664961
0.07037069
0.07400728
0.07793717
0.08680197
0.1386355
0.1431121
0.1451665
0.1465133
0.1473207
0.1477911
0.1479911
0.1477919
0.1470271
0.1644893
0.1630337
0.1614641
0.1600297
0.1585448
0.1568638
0.1549541
0.1528426
0.1505643
0.1482281
0.1456722
0.14297
0.14025
0.1375925
0.135019
0.1325251
0.1300978
0.127717
0.1254055
0.1230181
0.120553
0.1180516
0.1155952
0.1132031
0.11088
0.1086266
0.1064378
0.1043167
0.1022699
0.1002166
0.09821595
0.09625852
0.09432606
0.09241822
0.09053366
0.08868201
0.08690246
0.08967118
0.08793925
0.08627478
0.08468618
0.08314338
0.08163025
0.08014255
0.07868159
0.07724598
0.07583537
0.07446441
0.07313189
0.0718274
0.07055307
0.0693155
0.06811992
0.06697047
0.06587029
0.06482146
0.06382653
0.06288183
0.06198521
0.06114235
0.06034983
0.05960856
0.05891785
0.05827601
0.05767955
0.05713162
0.05663811
0.05618641
0.05577196
0.05539064
0.05504108
0.05471662
0.05441854
0.05412389
0.05382013
0.0535733
0.0533277
0.0530761
0.05281822
0.05255605
0.05229008
0.05201918
0.05174261
0.05145859
0.05116673
0.05086777
0.0505592
0.05024
0.04991178
0.04957659
0.0492363
0.04889769
0.04856459
0.04824277
0.04792363
0.0475711
0.04719566
0.04681989
0.04644156
0.04604812
0.04563476
0.04520652
0.04476948
0.04432856
0.04388771
0.04344987
0.04301732
0.04259189
0.04217508
0.04176789
0.04137126
0.04098592
0.04061376
0.04025752
0.03992253
0.03961093
0.03932808
0.03908636
0.03888923
0.03871945
0.03856567
0.03841897
0.03826313
0.03806635
0.03785377
0.0376542
0.03747236
0.0373049
0.03714689
0.03699419
0.03684362
0.03669246
0.03653821
0.03637857
0.03621161
0.03603578
0.0358499
0.0356532
0.03544525
0.035226
0.03499574
0.03475513
0.03450517
0.03424715
0.03398266
0.03371351
0.03344168
0.0331693
0.03289859
0.03263171
0.03237066
0.03211714
0.03187244
0.0316376
0.03141507
0.03120697
0.03101487
0.03083985
0.03068123
0.03053812
0.03040975
0.03029524
0.03019367
0.03010413
0.03002573
0.02995761
0.02989894
0.02984896
0.02980694
0.02977218
0.02974417
0.0297226
0.02970713
0.02969723
0.02969145
0.02968875
0.02968911
0.02969229
0.02969812
0.0297063
0.02971662
0.02972892
0.02974303
0.02975879
0.02977604
0.02979464
0.02981444
0.0298353
0.02985708
0.02987965
0.0299029
0.02992669
0.02995091
0.02997547
0.03000029
0.03002521
0.03005023
0.03007525
0.03010022
0.0301251
0.03014982
0.03017443
0.03019877
0.03022291
0.03024687
0.03027054
0.030294
0.03031725
0.03034028
0.03036312
0.03038578
0.03040828
0.03043065
0.03045291
0.03047508
0.03049721
0.03051927
0.03054141
0.0305635
0.03058598
0.03060834
0.0306314
0.03065311
0.0306425
0.03065121
0.03067197
0.03069991
0.03073149
0.0307645
0.03079764
0.03083021
0.03086187
0.03089248
0.03092202
0.0309505
0.03097793
0.03100435
0.03102975
0.03105415
0.03107754
0.03109992
0.0311213
0.0311417
0.03116116
0.03117975
0.03119757
0.0312146
0.03123104
0.03124699
0.03126256
0.03127789
0.03129314
0.03130849
0.03132421
0.03134075
0.03135891
0.03138031
0.0314075
0.0314436
0.0314891
0.03154071
0.03159587
0.03165343
0.03171267
0.03177307
0.03183436
0.03189638
0.0319591
0.03202251
0.03208663
0.0321515
0.0322172
0.03228378
0.03235131
0.03241985
0.03248945
0.03256015
0.03263199
0.03270498
0.03277913
0.0328544
0.03293074
0.03300808
0.03308633
0.0331654
0.03324515
0.03332547
0.03340619
0.03348722
0.03356832
0.03364961
0.03373092
0.03381818
0.03388624
0.03395612
0.03402294
0.03408827
0.03415375
0.03421939
0.03428478
0.03434967
0.03441387
0.03447723
0.03453962
0.03460098
0.03466136
0.0347209
0.03477981
0.03483834
0.03489675
0.03495531
0.03501427
0.03507384
0.0351342
0.03519548
0.03525776
0.03532105
0.03538535
0.03545061
0.03551677
0.03558372
0.03565138
0.03571962
0.03578832
0.03585737
0.03592663
0.03599601
0.03606539
0.03613468
0.03620378
0.0362726
0.03634105
0.03640903
0.03647641
0.03654302
0.03660863
0.03667282
0.03673505
0.03679461
0.03685183
0.03690743
0.03696189
0.03701543
0.0370682
0.03712002
0.03717139
0.03722207
0.03726949
0.03731562
0.03736172
0.0374076
0.03745297
0.03749772
0.0375418
0.03758512
0.03762767
0.0376695
0.03771075
0.03775159
0.03779219
0.03783274
0.03787339
0.03791426
0.03795542
0.03799694
0.03803883
0.0380811
0.03812374
0.03816673
0.03821002
0.03825355
0.03829728
0.03834114
0.03838509
0.03842907
0.03847303
0.03851695
0.03856078
0.03860451
0.03864811
0.03869153
0.03873476
0.03877775
0.03882047
0.03886287
0.03890489
0.03894648
0.03898774
0.03902894
0.03907017
0.03911148
0.03915282
0.03919385
0.03923441
0.03927443
0.03931384
0.03935263
0.03939076
0.03942823
0.03946502
0.03950113
0.03953656
0.03957131
0.0396054
0.03963885
0.03967167
0.0397039
0.03973557
0.03976674
0.03979745
0.03982777
0.03985776
0.03988752
0.03991712
0.03994667
0.03997629
0.04000611
0.04003629
0.040067
0.04009845
0.04013091
0.04016466
0.04020008
0.04023762
0.04027787
0.04032149
0.04036937
0.04042255
0.04048267
0.0405519
0.04063161
0.04070768
0.03831012
0.04544101
0.05194243
0.08555544
0.1156453
0.1542035
0.1759557
0.1967971
0.2154105
0.2327438
0.2475671
0.2589897
0.2679209
0.2750667
0.2805582
0.2847208
0.2876676
0.2893343
0.2896572
0.2886339
0.2865402
0.2844597
0.281602
0.2779852
0.2737225
0.2689266
0.2637452
0.2582917
0.2526305
0.2467769
0.2405865
0.2372444
0.2320418
0.226727
0.2213106
0.2159166
0.2106103
0.2054306
0.200398
0.1955327
0.1908221
0.1862481
0.1818243
0.1775373
0.173385
0.1693712
0.1654986
0.1617685
0.158184
0.1547294
0.1513845
0.148165
0.1450713
0.1420887
0.1392088
0.1364256
0.1337336
0.1311267
0.1285939
0.1261395
0.1237575
0.1214332
0.1191566
0.1169331
0.1147549
0.1126352
0.1105293
0.1084432
0.10644
0.1044583
0.1024817
0.1005208
0.09858832
0.09668992
0.09482531
0.09299568
0.09120005
0.08944156
0.08772122
0.08603695
0.08439177
0.08279025
0.08123638
0.07973323
0.0782831
0.07688811
0.07554994
0.07427006
0.073047
0.07188301
0.07078237
0.06974754
0.06877942
0.06787704
0.06703909
0.06626261
0.06554219
0.06486946
0.06424256
0.06365904
0.06311699
0.06261232
0.0621441
0.0617119
0.06131359
0.06093905
0.06059379
0.06026101
0.05993273
0.05960886
0.05928889
0.0589698
0.05864808
0.05832114
0.05798704
0.05764428
0.05729152
0.05692808
0.05655412
0.05617073
0.0557797
0.0553831
0.05498402
0.05458528
0.05418825
0.05378946
0.05337426
0.052941
0.05250038
0.05205631
0.05160298
0.05113561
0.05065598
0.05016862
0.04967778
0.049187
0.04869887
0.04821543
0.04773853
0.04726984
0.04681073
0.04636257
0.04592674
0.04550527
0.04510073
0.04471748
0.04435897
0.04402821
0.04373076
0.04346931
0.04323669
0.04302316
0.04282075
0.04261941
0.04240738
0.04218994
0.04198132
0.04178851
0.04161084
0.04144503
0.04128786
0.04113659
0.04098866
0.04084147
0.04069252
0.04053955
0.04038064
0.0402142
0.04003898
0.03985405
0.03965883
0.03945312
0.03923705
0.03901117
0.03877637
0.03853385
0.03828512
0.03803194
0.03777622
0.03751993
0.03726513
0.03701382
0.0367679
0.03652917
0.03629934
0.03607991
0.03587206
0.03567657
0.03549378
0.03532491
0.03517122
0.03503336
0.03491057
0.03480178
0.03470602
0.03462234
0.03454983
0.03448763
0.03443494
0.03439101
0.03435516
0.03432674
0.03430525
0.03429017
0.03428092
0.03427662
0.03427647
0.03427995
0.03428672
0.03429649
0.03430902
0.034324
0.03434126
0.03436046
0.03438148
0.03440414
0.03442826
0.0344537
0.03448032
0.03450802
0.0345367
0.03456618
0.03459641
0.03462732
0.0346588
0.0346908
0.03472324
0.03475607
0.03478923
0.03482269
0.0348564
0.03489033
0.03492445
0.03495875
0.03499319
0.03502775
0.03506243
0.03509722
0.0351321
0.03516707
0.03520212
0.03523725
0.03527246
0.03530775
0.03534313
0.03537859
0.03541415
0.0354498
0.0354856
0.03552152
0.03555768
0.03559402
0.03563067
0.03566726
0.03570208
0.03573583
0.03576905
0.03580244
0.03583626
0.03587055
0.03590529
0.03594021
0.03597525
0.03601026
0.03604513
0.03607975
0.03611403
0.03614787
0.03618129
0.0362141
0.03624634
0.03627797
0.03630898
0.03633937
0.0363692
0.03639842
0.03642714
0.03645545
0.03648347
0.03651118
0.03653879
0.03656646
0.03659435
0.03662273
0.03665199
0.03668261
0.03671544
0.03675175
0.03679298
0.03684072
0.03689487
0.03695355
0.03701514
0.03707852
0.03714316
0.03720861
0.03727459
0.03734089
0.03740745
0.03747409
0.03754088
0.03760778
0.03767489
0.03774213
0.03780962
0.03787743
0.03794562
0.03801425
0.03808339
0.03815308
0.03822338
0.03829432
0.03836591
0.03843815
0.03851102
0.03858449
0.03865854
0.03873308
0.03880805
0.03888339
0.03895906
0.03903484
0.03911055
0.03918638
0.03926002
0.03933112
0.03940154
0.0394725
0.03954381
0.03961476
0.03968488
0.0397541
0.03982239
0.0398897
0.03995596
0.04002112
0.04008519
0.04014822
0.04021028
0.0402715
0.04033201
0.04039197
0.04045154
0.0405109
0.0405702
0.04062959
0.04068919
0.0407491
0.0408094
0.04087015
0.04093139
0.04099313
0.04105536
0.04111808
0.04118123
0.04124478
0.04130867
0.04137283
0.04143719
0.04150168
0.04156624
0.04163077
0.04169518
0.04175937
0.04182319
0.04188649
0.04194902
0.04201049
0.04207055
0.04212888
0.04218556
0.04224097
0.04229543
0.04234914
0.04240216
0.04245448
0.0425062
0.04255725
0.04260701
0.04265571
0.0427037
0.04275109
0.04279798
0.04284441
0.04289036
0.0429357
0.0429803
0.04302401
0.04306672
0.0431087
0.04315013
0.04319106
0.04323159
0.04327178
0.0433117
0.04335144
0.04339108
0.04343066
0.04347027
0.04350992
0.04354966
0.04358951
0.04362947
0.04366954
0.04370971
0.04374998
0.04379033
0.04383074
0.0438712
0.04391168
0.04395216
0.04399261
0.04403301
0.04407334
0.04411356
0.04415366
0.04419361
0.04423339
0.04427297
0.04431234
0.04435143
0.04439015
0.04442858
0.04446703
0.04450561
0.04454404
0.04458204
0.0446195
0.04465638
0.04469263
0.04472825
0.04476322
0.04479753
0.04483119
0.04486421
0.0448966
0.04492838
0.04495957
0.04499022
0.04502037
0.04505007
0.04507938
0.04510837
0.04513713
0.04516574
0.04519431
0.04522296
0.04525182
0.04528105
0.04531082
0.04534135
0.04537286
0.04540566
0.04544007
0.04547649
0.04551539
0.04555732
0.04560291
0.04565288
0.04570802
0.04576885
0.04583412
0.04589284
0.02404714
0.02763232
0.03114388
0.04438525
0.05939871
0.08565709
0.1014946
0.117017
0.1327102
0.1479415
0.1631131
0.1792233
0.1960564
0.2128008
0.2296223
0.2482147
0.2808995
0.2935274
0.3056751
0.3162155
0.3256802
0.3343399
0.3410904
0.3450382
0.3467607
0.3464451
0.3441251
0.3398557
0.3343273
0.3276567
0.3201636
0.3122446
0.3041939
0.2959822
0.287715
0.2795203
0.2714952
0.2636971
0.2561768
0.2489382
0.2420165
0.2352962
0.2282747
0.2217965
0.2157607
0.2100459
0.2046102
0.1994456
0.194541
0.1898848
0.1854586
0.1812505
0.1771863
0.1732772
0.1695249
0.1659308
0.1624962
0.1592192
0.1560959
0.15312
0.1502837
0.147577
0.1449926
0.1425229
0.1401603
0.1378983
0.13573
0.1336481
0.1316444
0.1297105
0.1278397
0.1260203
0.1242372
0.1224761
0.1207399
0.1190223
0.1173204
0.1156246
0.1139449
0.1122788
0.1105989
0.1089008
0.1071966
0.1054958
0.1038012
0.1021117
0.1004272
0.09874888
0.09707861
0.095419
0.09377334
0.09214593
0.09054128
0.08896353
0.08741656
0.0859042
0.08443045
0.08299898
0.08161333
0.08027611
0.07899072
0.0777618
0.07659295
0.07548598
0.07444169
0.07346062
0.07254264
0.07168702
0.07089201
0.07015545
0.06947448
0.06884617
0.06826624
0.06772815
0.06722308
0.06675031
0.06630518
0.0658841
0.06548495
0.06510342
0.06473564
0.06437821
0.0640269
0.06367747
0.06332639
0.06297078
0.06260829
0.06223711
0.06185633
0.06146563
0.06106524
0.06065611
0.06023949
0.05981719
0.05939112
0.05896131
0.05852553
0.05807867
0.05761848
0.05714857
0.0566721
0.0561873
0.05569163
0.05518501
0.05467115
0.05415413
0.05363659
0.05312069
0.05260825
0.05210118
0.05160128
0.05111019
0.05062958
0.05016117
0.04970718
0.04927022
0.04885362
0.04846048
0.04809319
0.04775465
0.047446
0.04716374
0.04690156
0.0466534
0.04641354
0.04617679
0.04594474
0.04572402
0.04551929
0.04533093
0.04515693
0.04499479
0.04484213
0.04469648
0.04455524
0.04441571
0.04427547
0.04413248
0.04398494
0.04383124
0.04367003
0.04350025
0.04332118
0.04313248
0.04293421
0.04272679
0.04251104
0.04228808
0.04205934
0.04182647
0.04159124
0.04135558
0.04112141
0.04089065
0.04066515
0.0404466
0.04023654
0.04003629
0.03984689
0.03966926
0.03950404
0.03935154
0.03921173
0.03908528
0.03897291
0.03887429
0.03878827
0.03871384
0.03865008
0.03859616
0.03855132
0.03851487
0.03848615
0.03846458
0.03844959
0.0384406
0.03843695
0.03843795
0.03844307
0.03845188
0.03846406
0.03847929
0.03849728
0.03851772
0.03854047
0.03856512
0.03859162
0.03861974
0.03864931
0.03868025
0.03871231
0.03874545
0.03877956
0.03881453
0.03885028
0.03888674
0.03892384
0.03896152
0.03899973
0.03903844
0.0390776
0.0391172
0.03915721
0.0391976
0.03923837
0.03927949
0.03932096
0.03936276
0.03940489
0.03944733
0.03949008
0.03953312
0.03957646
0.03962009
0.03966398
0.03970815
0.03975258
0.03979728
0.03984223
0.03988745
0.03993293
0.03997871
0.04002475
0.04007112
0.04011775
0.04016458
0.04021116
0.04025708
0.04030226
0.04034686
0.04039102
0.04043481
0.04047822
0.04052127
0.04056393
0.04060618
0.04064799
0.04068932
0.04073013
0.04077039
0.04081009
0.0408492
0.04088769
0.04092559
0.04096289
0.04099964
0.04103589
0.04107171
0.04110716
0.04114234
0.04117741
0.04121245
0.04124766
0.04128325
0.04131949
0.04135677
0.04139558
0.0414366
0.04148067
0.04152867
0.04158134
0.04163863
0.0416996
0.04176308
0.04182826
0.04189457
0.04196165
0.04202923
0.04209712
0.04216517
0.04223331
0.04230147
0.04236964
0.04243779
0.04250596
0.04257422
0.04264247
0.04271086
0.04277942
0.04284821
0.04291726
0.04298663
0.04305635
0.04312644
0.0431969
0.0432677
0.04333892
0.04341034
0.04348196
0.04355365
0.04362525
0.04369691
0.04376868
0.04384046
0.04391212
0.04398321
0.04405363
0.04412381
0.04419404
0.04426429
0.04433431
0.0444039
0.04447297
0.0445415
0.04460941
0.04467664
0.04474311
0.04480876
0.04487356
0.0449375
0.04500059
0.04506288
0.04512444
0.04518534
0.04524569
0.04530558
0.04536512
0.04542442
0.04548357
0.04554267
0.04560181
0.04566105
0.04572046
0.04578009
0.04583996
0.0459001
0.04596051
0.04602118
0.04608209
0.04614321
0.04620451
0.04626594
0.04632744
0.04638894
0.04645034
0.04651153
0.04657238
0.04663268
0.04669224
0.04675083
0.04680827
0.04686461
0.04692002
0.04697473
0.04702888
0.04708252
0.04713568
0.04718838
0.0472406
0.04729206
0.04734277
0.04739295
0.04744277
0.04749232
0.04754167
0.04759082
0.04763974
0.04768835
0.04773658
0.04778435
0.0478316
0.0478783
0.04792443
0.04797001
0.04801506
0.04805963
0.04810375
0.0481475
0.04819093
0.0482341
0.04827708
0.04831991
0.04836264
0.0484053
0.04844791
0.0484905
0.04853308
0.04857566
0.04861824
0.04866083
0.04870341
0.04874598
0.04878852
0.04883102
0.04887346
0.04891582
0.04895808
0.04900022
0.04904221
0.04908401
0.04912561
0.04916696
0.04920804
0.04924882
0.04928926
0.0493293
0.04936924
0.04940924
0.04944888
0.04948796
0.04952639
0.04956415
0.04960122
0.04963758
0.04967325
0.04970821
0.0497425
0.04977612
0.04980911
0.0498415
0.04987334
0.04990469
0.04993562
0.04996619
0.04999649
0.05002663
0.05005672
0.05008687
0.05011725
0.050148
0.05017932
0.05021141
0.05024453
0.05027895
0.050315
0.05035304
0.05039352
0.05043688
0.05048365
0.05053433
0.05058937
0.05064873
0.05071043
0.05076445
0.01465163
0.01689566
0.01872858
0.02896936
0.03987384
0.05406223
0.06402093
0.07448913
0.08506083
0.09573661
0.1067616
0.1192516
0.1323464
0.1462972
0.1625391
0.1897794
0.2025023
0.2157118
0.2290232
0.2424235
0.2559108
0.2694688
0.2828911
0.2960172
0.3086745
0.3203059
0.330571
0.3401463
0.3477428
0.3535022
0.3575989
0.3600846
0.3603187
0.3575646
0.352254
0.3448778
0.3357861
0.3253635
0.3141
0.3024131
0.2906107
0.2789664
0.2677129
0.2569659
0.2467778
0.237189
0.2282212
0.2198753
0.2121337
0.2049627
0.1983243
0.1921702
0.1864716
0.1811998
0.1763557
0.1719008
0.1678191
0.164066
0.1606088
0.1574218
0.154476
0.151695
0.1490504
0.1465425
0.1441707
0.1419325
0.139824
0.1378397
0.1359732
0.1342176
0.1325667
0.1310123
0.1295452
0.1281591
0.1268491
0.1256104
0.1244374
0.123324
0.1222632
0.1212471
0.1202612
0.1192716
0.1182855
0.1173116
0.1163428
0.1153718
0.1143921
0.1133977
0.1123806
0.1113352
0.110254
0.1091322
0.1079714
0.106774
0.1055415
0.1042741
0.1029731
0.1016411
0.1002817
0.09889939
0.09749898
0.09608567
0.09466485
0.09324206
0.09182299
0.09041332
0.08901868
0.08764449
0.08629599
0.08497796
0.08369515
0.08245258
0.08125473
0.08010523
0.07900692
0.0779622
0.07697294
0.07604041
0.07516514
0.07434694
0.07358492
0.07287763
0.0722231
0.07161892
0.071061
0.07054448
0.07006446
0.06961512
0.06918796
0.06877863
0.06838408
0.06800302
0.06763413
0.0672733
0.06691626
0.06655925
0.06619929
0.06583399
0.06546159
0.065081
0.06469166
0.0642936
0.06388727
0.0634734
0.06305273
0.06262525
0.06218986
0.0617441
0.06128634
0.06081777
0.06034074
0.05985463
0.05935795
0.05885202
0.0583394
0.05782238
0.05730301
0.05678342
0.05626568
0.05575174
0.0552434
0.05474235
0.05425032
0.05376924
0.0533013
0.05284896
0.05241493
0.05200183
0.05161174
0.05124638
0.05090628
0.05058962
0.05029278
0.05001189
0.04974383
0.04948634
0.04924008
0.04900829
0.04879378
0.04859701
0.04841673
0.04825119
0.04809851
0.04795648
0.04782243
0.04769292
0.04756502
0.04743738
0.04730825
0.04717582
0.04703836
0.04689439
0.04674272
0.04658256
0.04641349
0.04623551
0.046049
0.04585473
0.04565376
0.04544744
0.04523733
0.04502514
0.04481267
0.04460175
0.04439418
0.04419165
0.04399574
0.04380783
0.04362911
0.04346056
0.04330293
0.04315673
0.04302232
0.04289983
0.04278913
0.04269031
0.04260399
0.04252959
0.042466
0.0424123
0.04236768
0.04233146
0.04230299
0.04228167
0.04226695
0.04225828
0.04225507
0.04225675
0.04226282
0.04227285
0.04228647
0.04230336
0.0423232
0.04234572
0.04237062
0.0423978
0.04242685
0.0424577
0.04249015
0.04252405
0.04255926
0.04259565
0.04263311
0.04267154
0.04271084
0.04275094
0.04279178
0.0428333
0.04287544
0.04291818
0.04296148
0.04300532
0.04304968
0.04309454
0.04313989
0.04318573
0.04323204
0.04327883
0.04332608
0.0433738
0.04342196
0.04347058
0.04351964
0.04356913
0.04361905
0.04366938
0.04372012
0.04377126
0.04382279
0.0438747
0.04392699
0.04397966
0.04403269
0.04408609
0.04413984
0.04419389
0.04424797
0.04430172
0.04435498
0.04440773
0.04445999
0.04451175
0.04456299
0.04461367
0.04466377
0.04471326
0.04476212
0.04481033
0.04485785
0.04490467
0.04495076
0.04499613
0.04504077
0.04508469
0.04512793
0.04517053
0.04521254
0.04525404
0.04529512
0.04533589
0.04537648
0.04541704
0.04545776
0.04549885
0.04554061
0.04558336
0.04562755
0.04567367
0.04572231
0.04577402
0.04582918
0.04588777
0.04594926
0.04601291
0.0460781
0.04614438
0.04621145
0.04627905
0.04634702
0.04641521
0.04648354
0.04655194
0.04662038
0.04668883
0.0467573
0.04682578
0.04689435
0.04696299
0.04703175
0.04710068
0.04716984
0.04723927
0.04730901
0.04737912
0.0474496
0.04752056
0.0475919
0.04766372
0.04773598
0.04780867
0.04788174
0.04795513
0.04802876
0.04810253
0.04817633
0.04824998
0.04832333
0.0483965
0.04846973
0.04854309
0.04861647
0.04868972
0.04876278
0.04883557
0.04890803
0.04898007
0.04905161
0.04912258
0.04919291
0.04926255
0.0493315
0.04939973
0.04946728
0.04953418
0.04960047
0.04966623
0.04973151
0.04979639
0.04986096
0.0499253
0.04998949
0.05005361
0.05011772
0.0501819
0.05024618
0.05031062
0.05037524
0.05044005
0.05050507
0.05057028
0.05063566
0.05070119
0.05076683
0.0508325
0.05089815
0.05096367
0.05102894
0.05109382
0.05115816
0.05122181
0.05128466
0.05134671
0.05140806
0.05146884
0.05152914
0.05158902
0.0516485
0.05170758
0.05176626
0.05182443
0.0518821
0.05193938
0.05199641
0.05205325
0.05210998
0.05216663
0.05222324
0.05227982
0.05233636
0.05239288
0.05244906
0.0525047
0.05255975
0.05261417
0.05266798
0.05272116
0.05277377
0.05282582
0.05287736
0.05292846
0.05297915
0.05302949
0.05307952
0.05312928
0.05317882
0.05322816
0.05327733
0.05332636
0.05337525
0.05342401
0.05347266
0.0535212
0.05356961
0.0536179
0.05366606
0.05371406
0.05376188
0.05380952
0.05385694
0.05390411
0.05395101
0.05399761
0.05404387
0.05408976
0.05413525
0.0541803
0.05422488
0.05426903
0.05431315
0.05435685
0.05439988
0.05444214
0.0544836
0.05452426
0.05456411
0.05460316
0.05464141
0.0546789
0.05471566
0.05475172
0.05478714
0.05482198
0.05485632
0.05489023
0.05492382
0.05495719
0.05499047
0.05502379
0.05505732
0.05509122
0.0551257
0.05516098
0.05519731
0.05523499
0.05527434
0.05531571
0.05535951
0.05540616
0.0554561
0.05550976
0.05556741
0.05562882
0.0556918
0.05574635
0.004951943
0.01724398
0.02569821
0.03481352
0.04397507
0.05359602
0.06377477
0.07411074
0.08491594
0.09723952
0.1160009
0.1261915