/*--------------------------------*- C++ -*----------------------------------*\
| =========                 |                                                 |
| \\      /  F ield         | foam-extend: Open Source CFD                    |
|  \\    /   O peration     | Version:     3.1                                |
|   \\  /    A nd           | Web:         http://www.extend-project.de       |
|    \\/     M anipulation  |                                                 |
\*---------------------------------------------------------------------------*/
FoamFile
{
    version     2.0;
    format      ascii;
    class       volScalarField;
    location    "3.5";
    object      nut;
}
// * * * * * * * * * * * * * * * * * * * * * * * * * * * * * * * * * * * * * //

dimensions      [0 2 -1 0 0 0 0];

internalField   nonuniform List<scalar> 
119952
(
2.690279e-05
1.754438e-05
1.792603e-05
2.007707e-05
2.162385e-05
2.060815e-05
1.998474e-05
1.958099e-05
1.927602e-05
1.901184e-05
1.876203e-05
1.851183e-05
1.825395e-05
1.798545e-05
1.770538e-05
1.741385e-05
1.711126e-05
1.679658e-05
1.646015e-05
1.610558e-05
2.014856e-05
1.917979e-05
1.889024e-05
2.414444e-05
2.348597e-05
2.323492e-05
2.30437e-05
2.310429e-05
2.310784e-05
2.447665e-05
1.710423e-05
1.77892e-05
1.976779e-05
2.215319e-05
2.489301e-05
2.791623e-05
3.114532e-05
3.445503e-05
3.777754e-05
4.313032e-05
0.0001681994
0.0002059708
0.0002440803
0.0002806956
0.0003153231
0.0003482559
0.0003799528
0.0004108145
0.0004409118
0.0006125607
0.0006503291
0.0006881824
0.0007262245
0.0007649716
0.0008044678
0.0008447878
0.0008857756
0.000926992
0.0009688179
0.001010473
0.001050697
0.001091294
0.001132635
0.001174706
0.001217257
0.001260191
0.001303438
0.001349587
0.001351509
0.001395311
0.001407797
0.001425381
0.001441485
0.001451977
0.001458392
0.001463002
0.001466473
0.001468999
0.001470687
0.001471612
0.001471828
0.00147138
0.001470337
0.001468815
0.001467012
0.001465252
0.001464114
0.001464544
0.001468383
0.001473723
0.001480274
0.001494008
0.001509739
0.001515625
0.001513849
0.001493166
0.001385811
0.001287019
0.001242901
0.001218495
0.001204539
0.00119538
0.001188582
0.001182609
0.001176445
0.001169458
0.001161271
0.001151678
0.001140594
0.001128019
0.001114027
0.001098741
0.001082331
0.001065032
0.001047208
0.001029242
0.001011184
0.0009931575
0.0009753563
0.0009580061
0.0009413152
0.0009253401
0.0009100858
0.0008955965
0.0008819141
0.0008690616
0.00085704
0.0008458255
0.0008353677
0.000825604
0.0008164704
0.0008079023
0.0007998338
0.0007922015
0.0007849501
0.0007780283
0.0007713887
0.0007649868
0.0007587816
0.0007527364
0.0007468175
0.0007410023
0.0007352685
0.0007296085
0.0007240387
0.0007187219
0.0007145487
0.0007110422
0.0007064184
0.0007016517
0.0006970053
0.0006923979
0.0006880406
0.0006835312
0.000679039
0.0006744663
0.0006698138
0.0006650875
0.0006602858
0.0006554067
0.0006504507
0.0006454242
0.0006403317
0.0006351791
0.000629974
0.0006247211
0.0006194249
0.0006140897
0.0006087202
0.0006033211
0.000597897
0.0005924523
0.0005869909
0.0005815166
0.0005760336
0.0005705459
0.0005650559
0.0005595656
0.0005540765
0.0005485895
0.0005431054
0.0005376248
0.0005321484
0.0005266768
0.0005212103
0.0005157485
0.0005102986
0.0005048675
0.0004994519
0.0004940467
0.0004886472
0.0004832495
0.0004778515
0.000472453
0.0004670667
0.0004618833
0.0004578793
0.0003517112
0.0003536206
0.0003509836
0.0003505354
0.0003470334
0.0003347331
0.0003243518
0.0003153974
0.0003074909
0.0003003774
0.0002938662
0.0002878711
0.0002822846
0.0002770226
0.0002720321
0.0002672737
0.0002627126
0.0002583224
0.0002540822
0.000249975
0.0002459872
0.0002421093
0.0002383345
0.0002346608
0.0002310727
0.000227567
0.0002241368
0.0002207797
0.0002174923
0.0002142759
0.0002111347
0.0002080768
0.0002051191
0.0002023109
0.0001999432
0.0002002832
0.0002060767
0.000211355
0.0002165239
0.000222423
0.0002288827
0.0002359391
0.0002430395
0.0002499452
0.0002556824
0.0002612728
0.0002667324
0.0002720776
0.0002773247
0.0002824894
0.0002875866
0.0002926298
0.0002976311
0.000302601
0.0003075498
0.0003124886
0.0003174308
0.0003223661
0.0003272876
0.0003322108
0.0003371381
0.0003420674
0.0003469971
0.0003519269
0.0003568559
0.0003617831
0.0003667081
0.0003716313
0.0003765599
0.0003815101
0.0005165227
0.0005276586
0.0005391519
0.0005508817
0.0005626831
0.0005746361
0.0005868137
0.0005992203
0.0006118527
0.0006246902
0.0006376973
0.0006508349
0.0006640678
0.0006773621
0.0006906853
0.0007040069
0.0007172982
0.0007305338
0.0007436914
0.0007567512
0.0007696949
0.0007825062
0.0007951705
0.0008076744
0.0008200062
0.0008321561
0.0008441181
0.0008558897
0.0008674711
0.000878864
0.0008900717
0.0009010986
0.0009119506
0.0009226346
0.0009331583
0.0009435295
0.0009537555
0.0009638432
0.0009737984
0.0009836251
0.0009933248
0.001002894
0.001012321
0.001021605
0.001030765
0.001039687
0.001048072
0.001056017
0.001063587
0.001070846
0.00107785
0.001084638
0.001091246
0.001097861
0.001103584
0.001108657
0.001115043
0.001123321
0.001133291
0.00114462
0.001157042
0.001170223
0.001183827
0.00119755
0.001211143
0.001224416
0.001237252
0.001249585
0.001261398
0.001272705
0.001283531
0.001293915
0.001303905
0.001313552
0.00132291
0.00133203
0.001340935
0.001349632
0.001358149
0.001366509
0.001374731
0.00138283
0.001390819
0.001398707
0.001406501
0.001414204
0.001421815
0.001429335
0.001436771
0.001444124
0.001451398
0.001458593
0.001465709
0.001472748
0.001479711
0.001486598
0.001493411
0.001500149
0.001506813
0.001513406
0.001519926
0.001526375
0.001532753
0.001539061
0.001545298
0.001551468
0.001557569
0.001563603
0.001569573
0.001575479
0.001581324
0.00158711
0.00159284
0.001598518
0.001604147
0.001609731
0.001615275
0.001620786
0.001626268
0.001631729
0.001637177
0.001642622
0.001648074
0.001653546
0.001659055
0.00166462
0.001670266
0.001676026
0.001681943
0.001688081
0.001694526
0.001701411
0.001708951
0.001717519
0.001727831
0.001741429
0.00176168
0.001797465
0.001807001
2.672499e-05
2.957598e-05
3.300223e-05
3.686267e-05
4.10477e-05
4.542992e-05
4.991176e-05
5.438754e-05
5.937437e-05
0.0002380855
0.0002814763
0.0003287634
0.0003768228
0.0004233747
0.0004672697
0.0005080997
0.0005458935
0.0005808639
0.0008102277
0.0008373133
0.0008632264
0.0008867864
0.0009081247
0.0009277798
0.0009463323
0.0009641616
0.0009814895
0.000998277
0.001016153
0.001031823
0.001046971
0.001062304
0.001078146
0.001094691
0.001112124
0.001130644
0.001150296
0.001170636
0.001189216
0.001208049
0.001229571
0.001253466
0.001279787
0.00130845
0.001339392
0.00137251
0.001407763
0.001444836
0.001483711
0.001524767
0.001567664
0.001612331
0.001658765
0.001706872
0.001756498
0.001807392
0.002160052
0.002213156
0.002267686
0.002323102
0.002378986
0.002435156
0.002491455
0.002547841
0.002604072
0.002659993
0.002715776
0.002771266
0.002826204
0.002880548
0.002934299
0.002987313
0.003039756
0.003091914
0.003144478
0.003194045
0.003236993
0.003277905
0.003317365
0.003353137
0.003384137
0.003411041
0.003434868
0.003456095
0.003475117
0.003492328
0.003508068
0.003522629
0.003536273
0.003549249
0.003561797
0.003574172
0.00358665
0.003599639
0.003613746
0.003629567
0.003646139
0.003664718
0.003686365
0.003707805
0.003725984
0.00374027
0.003742941
0.003725307
0.003706142
0.003699657
0.003695797
0.003692123
0.003688265
0.0036838
0.003678288
0.003671326
0.003662547
0.003651638
0.003638339
0.00362245
0.003603824
0.003582374
0.003558062
0.003530891
0.003500907
0.003468207
0.003432995
0.003395558
0.0033562
0.003315204
0.003272771
0.003228968
0.003184444
0.003140135
0.00309678
0.003055
0.003015339
0.002978294
0.002944226
0.002912936
0.002884245
0.00285803
0.002834165
0.002812499
0.002792875
0.002775139
0.002759137
0.00274472
0.002731744
0.002720071
0.002709571
0.002700127
0.00269163
0.002684
0.002677188
0.002671206
0.002666075
0.002661852
0.002658237
0.002654436
0.002650444
0.002646487
0.002642554
0.002638688
0.002634819
0.002630943
0.002627047
0.002623102
0.002619088
0.002614995
0.002610812
0.002606533
0.002602154
0.00259767
0.002593081
0.002588387
0.002583591
0.002578693
0.002573701
0.002568618
0.002563454
0.002558215
0.00255291
0.002547547
0.002542134
0.002536681
0.002531194
0.002525683
0.002520152
0.002514607
0.002509054
0.002503496
0.002497938
0.002492381
0.00248683
0.002481286
0.002475756
0.002470238
0.00246474
0.002459255
0.002453801
0.002448362
0.002442973
0.00243761
0.002432378
0.002427365
0.002423164
0.002422899
0.002308216
0.002178388
0.0020915
0.00203193
0.001990051
0.001960071
0.001938197
0.001921883
0.001909398
0.001899562
0.001891551
0.001884791
0.001878881
0.001873542
0.001868583
0.001863871
0.001859317
0.00185486
0.001850462
0.0018461
0.001841765
0.001837457
0.001833183
0.001828955
0.001824782
0.001820677
0.001816656
0.001812739
0.001808957
0.001805354
0.001802001
0.00179902
0.001796652
0.001795451
0.001796615
0.001802294
0.001813884
0.001826872
0.001839986
0.001853324
0.001866979
0.00188108
0.00189552
0.001910224
0.001925143
0.001940243
0.0019555
0.0019709
0.001986431
0.002002083
0.002017847
0.002033716
0.00204968
0.002065728
0.002081852
0.00209804
0.002114281
0.002130557
0.002146845
0.002163126
0.00217938
0.002195589
0.002211739
0.002227821
0.00224384
0.002259777
0.002275556
0.00229115
0.002306542
0.002321503
0.002789524
0.002816524
0.002842234
0.002866116
0.002888123
0.002908625
0.002927995
0.002946555
0.002964566
0.002982217
0.002999718
0.003017243
0.003034908
0.003052795
0.003070956
0.003089423
0.003108207
0.003127306
0.003146704
0.003166374
0.00318628
0.003206379
0.003226625
0.003246968
0.003267358
0.003287749
0.003308097
0.003328366
0.003348522
0.003368535
0.003388381
0.003408039
0.003427493
0.003446732
0.003465746
0.003484528
0.003503073
0.003521375
0.003539426
0.003557215
0.003574722
0.003591914
0.003608722
0.003624993
0.00364047
0.003654851
0.003668418
0.003681564
0.003694471
0.003707216
0.003719859
0.003732367
0.003744714
0.00375664
0.00376829
0.003779659
0.003790634
0.003801807
0.003813492
0.00382581
0.003838838
0.003852587
0.003867009
0.003882022
0.00389752
0.003913392
0.003929522
0.003945808
0.003962152
0.003978458
0.003994635
0.004010614
0.004026343
0.004041788
0.004056929
0.004071755
0.004086261
0.004100447
0.004114315
0.004127871
0.004141122
0.004154074
0.004166736
0.004179114
0.004191213
0.004203048
0.0042147
0.004226222
0.004237638
0.004248963
0.004260216
0.004271413
0.004282574
0.00429372
0.004304823
0.004315811
0.004326665
0.004337381
0.004347952
0.004358375
0.004368647
0.004378767
0.004388735
0.004398553
0.00440822
0.004417738
0.004427109
0.004436335
0.00444542
0.004454367
0.004463179
0.004471864
0.004480426
0.004488873
0.004497214
0.004505458
0.004513617
0.004521704
0.004529732
0.004537718
0.004545682
0.004553646
0.004561634
0.004569678
0.004577814
0.004586086
0.004594552
0.004603282
0.00461237
0.004621943
0.004632174
0.004643311
0.004655714
0.004669896
0.004686626
0.004706881
0.00473239
0.004763223
0.004790693
4.630351e-05
6.222276e-05
8.835626e-05
0.0001253412
0.000168515
0.0001931147
0.0002183148
0.0002442491
0.0002715438
0.0003153547
0.001039219
0.00111589
0.001181214
0.001243546
0.001303201
0.001363962
0.001425594
0.001483776
0.001537753
0.002218364
0.002373402
0.002503725
0.002608832
0.002690291
0.002752301
0.002799549
0.002835998
0.002864562
0.002887018
0.002905912
0.002928541
0.002954169
0.002981135
0.003007386
0.003031381
0.003052188
0.003069256
0.003084635
0.003055764
0.003036487
0.003023485
0.003014936
0.003009015
0.00300431
0.002999817
0.002994772
0.002988698
0.002981589
0.002971943
0.002960762
0.002948068
0.002933789
0.002918081
0.002901034
0.00288286
0.002863187
0.003247723
0.003229491
0.003211051
0.00319272
0.003174165
0.003155257
0.003136038
0.003116629
0.003097087
0.003077493
0.003058159
0.003039144
0.003020358
0.00300193
0.002984097
0.002967066
0.002951045
0.002936234
0.002922826
0.002911009
0.002900834
0.002892453
0.002886187
0.002882177
0.002880656
0.002881824
0.002885865
0.002892954
0.002903702
0.00291887
0.002938174
0.002961528
0.002988816
0.00301998
0.00305479
0.003093285
0.003134733
0.003179523
0.003224076
0.003271169
0.003320501
0.003371885
0.003425129
0.003480003
0.003536234
0.003593574
0.003651728
0.003710471
0.003769629
0.00382892
0.003888127
0.003947138
0.004005862
0.004064185
0.004122211
0.004179821
0.00423693
0.004292689
0.004345393
0.00439563
0.004444224
0.00449071
0.004534334
0.004574945
0.004612901
0.004648581
0.004682309
0.004714373
0.004745024
0.004774495
0.004803013
0.004830805
0.004858092
0.004885115
0.004912121
0.004939444
0.004967439
0.004996533
0.005026758
0.005058424
0.005091915
0.005126532
0.005160541
0.005192797
0.005222103
0.005246689
0.005266344
0.005284581
0.005303219
0.005322001
0.005340233
0.00535725
0.005372493
0.005385467
0.005395715
0.005402814
0.005406389
0.005406125
0.005401779
0.005393174
0.0053802
0.005362815
0.005341048
0.005315
0.005284853
0.005250859
0.005213333
0.005172646
0.005129219
0.005083528
0.005036132
0.00498762
0.004938558
0.004889442
0.004840666
0.00479248
0.004745106
0.004699476
0.004656394
0.004616426
0.004579967
0.00454682
0.004516722
0.004489473
0.004464872
0.004442721
0.004422829
0.004405015
0.004389108
0.004374947
0.004362389
0.004351308
0.004341574
0.004333108
0.004325871
0.004319763
0.00431459
0.004309858
0.004305358
0.00430124
0.004297469
0.004294022
0.004290822
0.004287832
0.004285013
0.004282325
0.004279736
0.004277215
0.004274736
0.004272275
0.00426981
0.004267322
0.004264791
0.004262211
0.004259563
0.004256841
0.004254034
0.004251149
0.004248169
0.004245105
0.004241958
0.004238731
0.004235429
0.004232058
0.004228636
0.004225149
0.004221618
0.004218057
0.00421446
0.004210843
0.004207214
0.004203579
0.004199948
0.004196328
0.004192729
0.004189156
0.004185627
0.004182136
0.004178717
0.004175348
0.004172099
0.004168925
0.004165974
0.004163085
0.00416046
0.004157884
0.004146031
0.004141892
0.004142785
0.004146653
0.004152063
0.004158091
0.004164168
0.004169977
0.004175343
0.004180194
0.004184512
0.004188312
0.004191625
0.004194487
0.004196935
0.004199002
0.00420072
0.00420212
0.004203229
0.004204076
0.00420469
0.004205105
0.004205359
0.004205471
0.00420549
0.004205454
0.004205408
0.004205404
0.004205509
0.004205813
0.004206446
0.00420762
0.004209669
0.004213136
0.004218751
0.004227229
0.004238353
0.004251149
0.004265051
0.004279742
0.004294977
0.004310581
0.004326453
0.004342537
0.004358799
0.004375229
0.004391818
0.004408567
0.004425484
0.004442576
0.004459853
0.004477323
0.004494993
0.004512868
0.004530953
0.004549249
0.004567751
0.00458645
0.004605332
0.00462438
0.004643572
0.004662883
0.004682287
0.004701754
0.004721252
0.004740757
0.004760229
0.004779663
0.004799064
0.004820073
0.004823186
0.004829278
0.004837124
0.004846451
0.004857073
0.0048687
0.004881129
0.004894273
0.004908078
0.004922495
0.004937481
0.004953013
0.004969085
0.004985704
0.005002881
0.00502063
0.005038961
0.005057881
0.005077388
0.00509747
0.005118108
0.005139268
0.005160911
0.005182988
0.005205447
0.005228232
0.005251289
0.005274563
0.005298001
0.005321551
0.005345166
0.005368802
0.005392418
0.005415978
0.00543945
0.005462803
0.005486009
0.005509042
0.005531872
0.005554465
0.005576778
0.005598753
0.005620305
0.005641312
0.005661617
0.005681044
0.005699701
0.005717824
0.005735564
0.005752989
0.005770171
0.005787064
0.005803806
0.005820459
0.005836278
0.005851738
0.005867153
0.005882584
0.005898112
0.005913844
0.005929848
0.005946149
0.005962752
0.005979646
0.00599681
0.006014216
0.006031824
0.006049593
0.006067476
0.006085421
0.006103373
0.006121283
0.006139109
0.006156813
0.006174365
0.006191738
0.006208907
0.006225854
0.006242564
0.006259025
0.00627523
0.006291175
0.00630686
0.006322287
0.00633746
0.006352387
0.00636707
0.006381513
0.006395714
0.006409674
0.006423387
0.006436847
0.006450044
0.006462961
0.006475666
0.006488292
0.006500882
0.006513466
0.006526025
0.006538451
0.006550707
0.006562776
0.006574652
0.006586331
0.006597813
0.006609099
0.006620192
0.006631093
0.006641807
0.006652337
0.00666269
0.006672872
0.006682891
0.006692756
0.00670248
0.006712073
0.006721552
0.006730933
0.006740235
0.006749479
0.006758691
0.0067679
0.006777139
0.006786446
0.006795869
0.006805463
0.006815297
0.006825457
0.00683605
0.006847218
0.006859142
0.006872066
0.006886307
0.006902279
0.006920491
0.006941523
0.006965932
0.006993184
0.007018248
4.413662e-05
7.751e-05
0.0001556571
0.0005614695
0.0009766449
0.001854031
0.002433033
0.003113813
0.003830718
0.00438505
0.00473552
0.004985232
0.005172728
0.005262379
0.005332536
0.005376597
0.005401473
0.005413617
0.005417523
0.00541856
0.005419836
0.005410815
0.005365655
0.005337093
0.005321317
0.005329535
0.00535666
0.005402871
0.005432063
0.005412644
0.005388897
0.005418006
0.005537268
0.005638312
0.005632601
0.005625115
0.005616441
0.005606874
0.005596562
0.005585736
0.005574081
0.005560978
0.005546706
0.005531199
0.005514587
0.00549705
0.005478723
0.005459689
0.005440063
0.005419576
0.00539764
0.00537457
0.005350475
0.005325236
0.005298849
0.005271333
0.005242699
0.005212936
0.005181909
0.005149818
0.005116592
0.00508207
0.005046164
0.005009231
0.004972201
0.004935869
0.0048993
0.004863563
0.004819981
0.004774715
0.004728538
0.004681852
0.004634961
0.004588145
0.004541525
0.004495353
0.004449656
0.004404712
0.004360706
0.004317709
0.004275932
0.004235584
0.004196846
0.004159892
0.004124877
0.004091942
0.004061207
0.004032805
0.004006778
0.003983475
0.003963159
0.003945964
0.003932076
0.003921617
0.003914733
0.003911443
0.00391138
0.003913862
0.00391917
0.003927551
0.003939238
0.00395441
0.003973498
0.003997174
0.004025309
0.004057592
0.004093839
0.004133473
0.0041762
0.004221917
0.004270448
0.004321509
0.004374784
0.004429971
0.004486781
0.004544933
0.004604156
0.004664199
0.004724849
0.004785931
0.004847307
0.004908846
0.004970469
0.005032067
0.005093444
0.005154164
0.005213376
0.005270914
0.005327148
0.005382063
0.005435221
0.005486346
0.005535515
0.005582958
0.00562892
0.00567362
0.005717243
0.005759967
0.005801982
0.005843485
0.005884676
0.005925774
0.00596701
0.006008664
0.006051033
0.006094487
0.006139259
0.006185515
0.006233478
0.006282978
0.006333181
0.00638318
0.006432277
0.006479679
0.006524864
0.006568636
0.006612061
0.006655359
0.006698115
0.006739743
0.006779672
0.006817353
0.006852236
0.006883774
0.006911446
0.006934787
0.006953401
0.006966958
0.006975203
0.006977951
0.0069751
0.006966635
0.00695263
0.006933255
0.006908769
0.006879518
0.006845929
0.006808498
0.006767781
0.00672437
0.006678874
0.006631902
0.006584043
0.006535871
0.006487955
0.00644084
0.006394975
0.006350671
0.006308115
0.006267945
0.006230785
0.006197013
0.006166464
0.006138861
0.006113981
0.006091617
0.006071579
0.00605369
0.006037789
0.006023724
0.006011351
0.006000544
0.005991195
0.005983172
0.005976302
0.005970313
0.005965022
0.005960376
0.005956329
0.005952822
0.005949803
0.005947199
0.005944974
0.005943063
0.005941432
0.005940043
0.005938858
0.005937843
0.005936962
0.005936197
0.005935528
0.005934914
0.005934344
0.005933797
0.005933256
0.005932708
0.005932142
0.005931548
0.005930921
0.005930256
0.005929551
0.005928804
0.005928013
0.00592719
0.005926331
0.005925441
0.005924525
0.005923589
0.00592264
0.005921685
0.005920732
0.00591979
0.00591887
0.00591798
0.005917135
0.005916342
0.005915621
0.005914978
0.005914445
0.005914021
0.005913747
0.005913611
0.005913669
0.005913895
0.005913666
0.0059133
0.005913208
0.005913726
0.005914945
0.005916837
0.005919338
0.005922327
0.005925709
0.005929384
0.005933259
0.005937253
0.005941298
0.005945333
0.005949327
0.005953218
0.005956994
0.005960634
0.005964125
0.005967462
0.005970661
0.005973718
0.005976661
0.005979516
0.005982325
0.005985105
0.00598792
0.005990829
0.005993912
0.005997272
0.006001068
0.006005496
0.006010844
0.006017499
0.006025876
0.00603637
0.006048902
0.006062884
0.006077837
0.006093467
0.006109591
0.006126059
0.006142765
0.006159636
0.006176636
0.006193722
0.006210889
0.006228127
0.006245458
0.006262868
0.00628039
0.006298041
0.006315842
0.006333816
0.006351984
0.006370366
0.006388979
0.006407836
0.006426945
0.00644631
0.006465926
0.006485786
0.006505889
0.006526211
0.00654673
0.006567423
0.006588265
0.006609203
0.006630157
0.006651182
0.006670465
0.006688328
0.006705438
0.006722258
0.006738914
0.006755408
0.006771784
0.006788162
0.006804628
0.006821253
0.006838089
0.006855183
0.006872587
0.006890353
0.00690853
0.006927168
0.006946312
0.006966
0.006986265
0.007007126
0.007028595
0.007050671
0.007073341
0.007096582
0.007120364
0.007144649
0.007169395
0.007194554
0.007220079
0.007245918
0.00727202
0.007298334
0.00732481
0.007351401
0.00737806
0.007404744
0.007431409
0.007458013
0.00748451
0.007510854
0.007536988
0.007562848
0.007588355
0.007613411
0.007637913
0.007661768
0.007684995
0.007707693
0.007729954
0.007751833
0.007773374
0.007794587
0.007815527
0.007836186
0.007856345
0.007876116
0.007895634
0.007914959
0.00793415
0.007953268
0.007972353
0.00799142
0.008010461
0.008029459
0.00804839
0.008067326
0.008086295
0.008105288
0.008124289
0.008143277
0.00816223
0.008181127
0.00819995
0.008218682
0.008237306
0.008255806
0.008274165
0.008292367
0.008310399
0.008328247
0.0083459
0.008363347
0.008380582
0.008397598
0.008414391
0.008430956
0.00844729
0.00846339
0.008479255
0.008494885
0.008510279
0.008525439
0.008540368
0.008555068
0.008569547
0.008583802
0.00859782
0.008611578
0.008625122
0.008638617
0.00865212
0.008665525
0.008678741
0.008691741
0.008704516
0.008717064
0.008729384
0.00874148
0.008753354
0.008765011
0.008776457
0.0087877
0.008798749
0.008809615
0.00882031
0.00883085
0.008841251
0.008851534
0.008861722
0.008871839
0.008881916
0.008891985
0.008902087
0.008912266
0.008922576
0.008933079
0.008943852
0.008954987
0.008966596
0.008978822
0.008991839
0.009005864
0.009021166
0.009038061
0.009056901
0.009078023
0.009101587
0.009126918
0.009149953
2.577232e-05
4.407653e-05
7.019637e-05
0.0002993581
0.0004979687
0.0009100453
0.001281358
0.001606712
0.002001844
0.002363595
0.002732868
0.003185475
0.003696752
0.004235307
0.004780269
0.00540568
0.006634835
0.006992338
0.00727681
0.007438747
0.007494975
0.007492365
0.007443021
0.00704528
0.006567906
0.006155515
0.00579175
0.005468435
0.00520221
0.004991317
0.0048255
0.004688587
0.004579341
0.004519452
0.004492888
0.004489619
0.00450447
0.004537764
0.00458105
0.004643216
0.004698388
0.004791054
0.004972408
0.005045805
0.005138601
0.005266254
0.005407082
0.005547083
0.005688922
0.005832955
0.005984035
0.006129816
0.006138601
0.006144722
0.006148534
0.00615036
0.006150487
0.006149125
0.006146424
0.006142468
0.00613727
0.006130778
0.006123015
0.006113975
0.006103619
0.006091922
0.006078844
0.006064325
0.006048295
0.006030667
0.006011429
0.005990519
0.005968284
0.005945898
0.005923195
0.0058986
0.005871693
0.005841973
0.005810551
0.005776826
0.005740179
0.005700968
0.005659808
0.00561713
0.00557318
0.005528128
0.005482169
0.005435538
0.005388478
0.005341246
0.005294091
0.005247292
0.005201128
0.005155849
0.005111688
0.005068865
0.005027599
0.004988092
0.004950548
0.004915133
0.0048821
0.004851732
0.004824254
0.004799855
0.004778705
0.004760988
0.004746854
0.00473641
0.004729699
0.00472678
0.004727722
0.004732587
0.004741362
0.004753679
0.004768747
0.004786841
0.00480811
0.004832792
0.004861473
0.004894127
0.004930523
0.004970466
0.005013721
0.005060016
0.005109071
0.005160606
0.005214342
0.005270006
0.005327348
0.005386137
0.005446161
0.005507235
0.005569188
0.005631873
0.005695145
0.005758775
0.005822432
0.005885658
0.005948181
0.006010019
0.006071164
0.006131371
0.006190426
0.006248244
0.006304943
0.006360722
0.006415711
0.006470032
0.006523819
0.006577231
0.006630443
0.006683635
0.006737008
0.006790786
0.006845225
0.006900608
0.006957248
0.007015408
0.007075274
0.007137015
0.007200596
0.007265621
0.007331511
0.007397738
0.007463819
0.007529394
0.007594637
0.00765999
0.007725588
0.007791151
0.007856185
0.00792014
0.007982441
0.008042479
0.008099603
0.008153155
0.008202542
0.008247248
0.00828681
0.008320812
0.008348898
0.008370786
0.008386283
0.008395291
0.00839782
0.008393989
0.008384025
0.008368259
0.008347115
0.008321102
0.008290794
0.008256816
0.008219823
0.008180489
0.00813948
0.008097449
0.008055007
0.008012714
0.007971067
0.007930515
0.007891445
0.007854134
0.007818738
0.007785753
0.007755675
0.007728553
0.007704105
0.007682114
0.007662394
0.007644781
0.007629126
0.007615287
0.007603135
0.007592542
0.007583375
0.007575484
0.007568692
0.007562845
0.00755784
0.007553604
0.007550071
0.007547175
0.00754485
0.007543021
0.007541679
0.007540731
0.007540173
0.007539946
0.007540005
0.007540338
0.007540898
0.007541661
0.0075426
0.007543689
0.007544905
0.007546227
0.007547637
0.007549119
0.007550659
0.007552244
0.007553866
0.007555515
0.007557187
0.007558875
0.007560579
0.007562294
0.007564022
0.007565762
0.007567517
0.007569289
0.007571082
0.007572902
0.007574756
0.00757665
0.007578593
0.007580595
0.007582667
0.007584822
0.007587069
0.007589427
0.007591905
0.007594523
0.007597289
0.007600229
0.007603335
0.007606552
0.007609744
0.007612882
0.007616026
0.007619266
0.00762267
0.007626276
0.007630102
0.007634149
0.007638411
0.007642866
0.007647489
0.007652249
0.007657112
0.007662042
0.00766702
0.00767201
0.007676988
0.00768194
0.007686853
0.007691725
0.00769656
0.00770137
0.007706174
0.007710993
0.007715877
0.007720863
0.007726009
0.007731393
0.007737113
0.007743298
0.007750115
0.007757769
0.007766508
0.007776574
0.007788161
0.00780124
0.007815532
0.007830709
0.00784655
0.007862874
0.007879551
0.007896481
0.007913585
0.007930813
0.007948125
0.007965502
0.00798293
0.008000405
0.008017943
0.00803557
0.008053289
0.008071138
0.008089143
0.008107335
0.008125744
0.0081444
0.008163328
0.008182548
0.008202072
0.008221897
0.008242064
0.008262526
0.008283273
0.00830427
0.008325472
0.008346917
0.008368628
0.008390561
0.008412688
0.008434704
0.008456456
0.008478015
0.008499448
0.00852074
0.008541853
0.008562773
0.008583533
0.008604175
0.008624743
0.008645279
0.00866583
0.008686444
0.008707178
0.008728088
0.008749235
0.008770675
0.008792465
0.008814656
0.008837291
0.008860407
0.008884028
0.00890817
0.00893284
0.008958033
0.008983738
0.009009937
0.009036604
0.009063707
0.009091212
0.009119079
0.009147266
0.009175727
0.00920442
0.009233297
0.009262314
0.009291423
0.009320577
0.009349727
0.009378819
0.009407798
0.009436599
0.009465153
0.009493382
0.009521213
0.009548583
0.009575483
0.009601948
0.009628022
0.009653739
0.009679121
0.009704181
0.009728938
0.009753391
0.009777479
0.009801225
0.009824694
0.009847939
0.009871003
0.009893928
0.009916746
0.00993948
0.00996214
0.00998473
0.01
0.01
0.01
0.01
0.01
0.01
0.01
0.01
0.01
0.01
0.01
0.01
0.01
0.01
0.01
0.01
0.01
0.01
0.01
0.01
0.01
0.01
0.01
0.01
0.01
0.01
0.01
0.01
0.01
0.01
0.01
0.01
0.01
0.01
0.01
0.01
0.01
0.01
0.01
0.01
0.01
0.01
0.01
0.01
0.01
0.01
0.01
0.01
0.01
0.01
0.01
0.01
0.01
0.01
0.01
0.01
0.01
0.01
0.01
0.01
0.01
0.01
0.01
0.01
0.01
0.01
0.01
0.01
0.01
0.01
0.01
0.01
0.01
0.01
0.01
2.609755e-05
4.189539e-05
8.299351e-05
0.0002694396
0.0004458846
0.0007433922
0.0009493392
0.001176788
0.001434243
0.001672197
0.001939183
0.002274309
0.002640242
0.003049676
0.003550523
0.004588356
0.005001622
0.005420515
0.005834342
0.006237681
0.006634877
0.007017251
0.007368851
0.00767748
0.007932747
0.008123084
0.008250335
0.008315649
0.008298982
0.008059391
0.007608401
0.007081092
0.006563304
0.006082141
0.005646523
0.005271169
0.004949607
0.004683899
0.004468376
0.004295957
0.004164045
0.004066097
0.004000589
0.003967577
0.003966715
0.003992283
0.004039017
0.004105776
0.004189031
0.004293188
0.004407906
0.004555629
0.00471793
0.004871339
0.005017953
0.005190892
0.005382565
0.005580433
0.005780544
0.005980253
0.006188228
0.006251566
0.006286747
0.006319441
0.006349919
0.006378379
0.006404951
0.006429707
0.006452673
0.006473847
0.006493212
0.006510703
0.006526234
0.006539769
0.006551297
0.00656079
0.006568203
0.006573473
0.006576533
0.00657734
0.006575988
0.006573966
0.006570769
0.006564692
0.006555879
0.006544257
0.006529878
0.006512594
0.006492542
0.006469689
0.00644388
0.006415185
0.0063839
0.006350286
0.00631453
0.006276792
0.006237262
0.006196159
0.00615373
0.006110241
0.006065961
0.006021168
0.005976139
0.005931147
0.00588646
0.005842337
0.005799032
0.005756784
0.005715833
0.0056764
0.005638725
0.005603069
0.005569676
0.005538767
0.005510556
0.005485259
0.005463088
0.005444243
0.005428904
0.005417229
0.005409363
0.005405424
0.005405494
0.005409581
0.005417605
0.005429479
0.005445103
0.005464215
0.005486029
0.005510494
0.005537863
0.005568666
0.005603251
0.005641372
0.005682801
0.005727319
0.005774702
0.005824721
0.005877151
0.005931775
0.005988385
0.006046785
0.00610679
0.006168221
0.006230893
0.006294585
0.006359025
0.006423885
0.006488894
0.006553931
0.006618932
0.006683707
0.006748045
0.006811899
0.006875315
0.006938338
0.007001029
0.007063481
0.007125807
0.007188135
0.007250606
0.00731338
0.007376638
0.007440591
0.007505481
0.007571572
0.007639143
0.007708455
0.007779717
0.007853082
0.007928586
0.008006064
0.0080852
0.008165659
0.008247145
0.008329437
0.008412529
0.008496563
0.008581563
0.008667291
0.008753329
0.008839207
0.008924398
0.009008291
0.009090152
0.009169076
0.009244273
0.009315328
0.009381732
0.009442941
0.009498429
0.009547719
0.009590412
0.009626206
0.009654906
0.009676437
0.009690847
0.009698307
0.009699105
0.009693638
0.009682399
0.00966596
0.009644956
0.009620063
0.009591976
0.009561395
0.009528999
0.009495431
0.009461292
0.009427124
0.009393404
0.00936054
0.009328879
0.009298703
0.00927018
0.009243609
0.009219479
0.009197778
0.00917826
0.009160749
0.009145106
0.009131207
0.009118939
0.009108193
0.009098853
0.009090799
0.009083904
0.009078043
0.009073117
0.009069045
0.009065761
0.009063198
0.009061293
0.009059985
0.009059198
0.009058947
0.00905915
0.009059775
0.009060781
0.009062134
0.009063804
0.00906576
0.009067976
0.009070425
0.009073083
0.009075929
0.009078944
0.009082109
0.009085409
0.009088831
0.009092361
0.00909599
0.009099709
0.00910351
0.009107389
0.009111339
0.009115358
0.009119443
0.009123594
0.00912781
0.009132093
0.009136445