/*--------------------------------*- C++ -*----------------------------------*\
| =========                 |                                                 |
| \\      /  F ield         | foam-extend: Open Source CFD                    |
|  \\    /   O peration     | Version:     3.1                                |
|   \\  /    A nd           | Web:         http://www.extend-project.de       |
|    \\/     M anipulation  |                                                 |
\*---------------------------------------------------------------------------*/
FoamFile
{
    version     2.0;
    format      ascii;
    class       volScalarField;
    location    "3.5";
    object      omega;
}
// * * * * * * * * * * * * * * * * * * * * * * * * * * * * * * * * * * * * * //

dimensions      [0 0 -1 0 0 0 0];

internalField   nonuniform List<scalar> 
119952
(
162.779
204.6679
194.4628
171.1336
155.0411
157.0954
160.7329
165.2041
170.1941
175.5564
181.2141
187.1303
193.2952
199.7163
206.4125
213.413
220.7594
228.5184
236.8381
246.237
206.3593
207.0593
210.6845
177.1405
175.0026
174.5066
174.1981
173.8326
171.6275
147.6978
349.5534
283.0861
236.2748
204.7052
182.1992
165.221
151.6397
140.3609
130.6782
119.7831
101.2768
89.41646
81.45979
75.4827
70.56504
66.28082
62.46041
59.00298
55.8554
44.64448
42.56985
40.50311
38.51571
36.66434
34.96244
33.41108
32.00121
30.71627
29.55449
28.50551
27.47368
26.48058
25.53232
24.63162
23.78005
22.97286
22.19506
21.4358
21.20477
21.00293
20.64045
20.31294
20.03438
19.78635
19.53841
19.29667
19.06771
18.85341
18.65419
18.47007
18.30067
18.1455
18.00373
17.87393
17.75365
17.63812
17.51768
17.37874
17.22761
17.08576
16.89875
16.69147
16.58783
16.54498
16.54754
16.78388
17.69628
19.20935
19.5491
19.68223
19.70505
19.68439
19.64583
19.60601
19.57522
19.55926
19.56135
19.58308
19.62498
19.68687
19.76807
19.86753
19.98384
20.1149
20.25698
20.40609
20.56229
20.72471
20.89152
21.06004
21.22887
21.39664
21.56237
21.72515
21.88385
22.03747
22.18531
22.32714
22.46321
22.59391
22.71981
22.84161
22.96021
23.07658
23.19125
23.30497
23.4185
23.53257
23.64781
23.76479
23.88403
24.0059
24.1306
24.25792
24.3863
24.5062
24.58779
24.6687
24.8383
25.03418
25.24649
25.4693
25.68564
25.90944
26.12934
26.34604
26.55981
26.77089
26.97938
27.18519
27.38835
27.58893
27.78727
27.98374
28.17872
28.37269
28.56609
28.75934
28.9529
29.14719
29.34266
29.53976
29.73896
29.94068
30.14535
30.3534
30.5653
30.78153
31.00257
31.22892
31.46108
31.69955
31.94483
32.19742
32.45783
32.72662
33.00381
33.28919
33.58303
33.88577
34.19794
34.51999
34.85235
35.19502
35.54648
35.88671
36.15312
37.95931
41.56138
44.65056
47.14786
49.19664
50.86277
52.19889
53.30476
54.2482
55.07477
55.82515
56.51902
57.17569
57.80994
58.43214
59.04948
59.66842
60.29424
60.93106
61.58219
62.25047
62.93795
63.64622
64.37573
65.13032
65.91095
66.71931
67.55675
68.42462
69.32369
70.25355
71.21241
72.19488
73.17898
74.01754
73.57016
71.81486
70.22813
68.72895
67.30646
65.94808
64.6426
63.38575
62.16468
60.97119
59.80968
58.68018
57.58246
56.51651
55.4824
54.48014
53.50966
52.57072
51.66311
50.78684
49.9418
49.12584
48.33365
47.56726
46.82943
46.11783
45.43103
44.76809
44.12791
43.50949
42.91182
42.33387
41.77438
41.23128
40.69989
32.09354
31.40458
30.62678
29.80165
28.9957
28.23322
27.52994
26.89257
26.32083
25.81066
25.35582
24.94886
24.58208
24.24826
23.94097
23.65482
23.38543
23.12943
22.88427
22.64817
22.4199
22.19869
21.98408
21.77582
21.57379
21.37793
21.18818
21.00444
20.82662
20.65456
20.48814
20.32717
20.17148
20.02088
19.87518
19.73418
19.59769
19.46552
19.33751
19.21352
19.09343
18.97724
18.86506
18.75701
18.65365
18.55632
18.46315
18.37563
18.29313
18.21498
18.14064
18.06972
18.002
17.94479
17.90732
17.82155
17.70542
17.5596
17.39294
17.21644
17.03905
16.86859
16.7106
16.56814
16.44213
16.33195
16.23598
16.15215
16.07822
16.01213
15.95204
15.89637
15.84388
15.79362
15.74489
15.69713
15.65015
15.60389
15.55824
15.5131
15.46846
15.42428
15.38059
15.3374
15.29473
15.25261
15.2111
15.17021
15.12995
15.09032
15.05132
15.01297
14.97525
14.93818
14.90173
14.8659
14.83069
14.79608
14.76205
14.72859
14.69569
14.66333
14.6315
14.60018
14.56936
14.53902
14.50914
14.47972
14.45072
14.42214
14.39396
14.36616
14.33873
14.31165
14.28491
14.25847
14.23234
14.20648
14.18088
14.15551
14.13034
14.10535
14.0805
14.05575
14.03103
14.00629
13.98142
13.9563
13.93076
13.90454
13.87727
13.84835
13.81676
13.78062
13.736
13.67396
13.57507
13.41209
13.57283
520.3099
427.3685
365.5355
321.5111
288.2759
261.901
240.1215
221.5983
204.8768
176.3624
148.2232
129.806
116.9621
107.4176
99.90885
93.73667
88.49406
83.92801
66.44362
63.92756
61.54263
59.23184
57.05957
55.05219
53.21074
51.52523
49.98109
48.56462
47.34948
46.1684
45.00689
43.8799
42.78309
41.71412
40.67097
39.65214
38.65172
37.81434
37.11563
36.31172
35.47062
34.6016
33.71251
32.81277
31.91081
31.01418
30.12688
29.24639
28.38362
27.54544
26.7262
25.92491
25.14325
24.38308
23.64748
22.95148
20.46236
19.90607
19.37554
18.86614
18.37439
17.8989
17.43906
16.99475
16.5654
16.15023
15.75089
15.36682
14.9963
14.63876
14.29407
13.96174
13.64229
13.33926
13.05953
12.79835
12.54042
12.29526
12.06889
11.85772
11.65696
11.46487
11.28149
11.10627
10.93864
10.77816
10.62444
10.47708
10.33565
10.19966
10.06854
9.941532
9.81779
9.696535
9.577612
9.461721
9.348495
9.239064
9.141451
9.057864
8.986263
8.928778
8.899053
8.899066
8.884813
8.844396
8.804002
8.766412
8.732038
8.700818
8.672587
8.647314
8.625059
8.60592
8.590002
8.577397
8.568186
8.56244
8.560231
8.561644
8.566773
8.575697
8.588359
8.604605
8.624289
8.64735
8.673935
8.704565
8.738535
8.774407
8.811046
8.847489
8.882864
8.916307
8.947142
8.975653
9.002087
9.02658
9.049259
9.070272
9.089749
9.107815
9.124606
9.140262
9.154917
9.168708
9.181754
9.194155
9.205989
9.217271
9.227888
9.237614
9.246444
9.254379
9.262399
9.27215
9.28312
9.294867
9.307588
9.321113
9.335628
9.351101
9.367471
9.384742
9.4029
9.421919
9.441752
9.46234
9.48362
9.505525
9.527985
9.550927
9.574284
9.597989
9.621977
9.646185
9.670552
9.695023
9.71955
9.744087
9.768595
9.79304
9.817395
9.841642
9.865767
9.889767
9.913636
9.937382
9.961011
9.984536
10.00797
10.03133
10.05462
10.07787
10.10108
10.12429
10.14746
10.17065
10.19377
10.21685
10.23956
10.26151
10.28069
10.2857
10.61467
11.03088
11.34008
11.5688
11.73916
11.86703
11.96418
12.03949
12.09935
12.14828
12.18946
12.22512
12.25681
12.2856
12.31221
12.33714
12.36076
12.38332
12.40498
12.4259
12.44615
12.4658
12.48488
12.50344
12.52145
12.53897
12.55596
12.57239
12.58812
12.60294
12.61646
12.62793
12.6358
12.63656
12.6232
12.58561
12.52148
12.45467
12.38995
12.32647
12.26376
12.20125
12.13929
12.07822
12.01822
11.95943
11.90189
11.84563
11.79063
11.73685
11.68424
11.63277
11.58237
11.53301
11.48464
11.43722
11.39071
11.34512
11.30045
11.25669
11.21382
11.17183
11.1307
11.09039
11.05083
11.01204
10.97417
10.93724
10.90124
10.86663
9.75127
9.693763
9.644264
9.600871
9.56179
9.525392
9.490492
9.456281
9.422278
9.388226
9.353868
9.319069
9.283829
9.248219
9.21235
9.176351
9.140356
9.104494
9.068882
9.033627
8.998821
8.964542
8.930857
8.897818
8.865468
8.833834
8.802934
8.772775
8.743356
8.714674
8.686718
8.659473
8.632924
8.607051
8.581833
8.557252
8.533289
8.509932
8.487171
8.465011
8.443469
8.422591
8.40248
8.383364
8.365583
8.349389
8.334202
8.319528
8.305164
8.290991
8.276934
8.263027
8.249468
8.23723
8.225353
8.212659
8.199776
8.186098
8.171142
8.154699
8.136671
8.117127
8.096283
8.074452
8.051984
8.029225
8.006489
7.984039
7.962088
7.940807
7.920324
7.900709
7.881992
7.864166
7.847206
7.831069
7.815706
7.801066
7.7871
7.773759
7.761
7.748781
7.737068
7.72583
7.715041
7.704666
7.694587
7.68473
7.675064
7.66556
7.656195
7.646946
7.637789
7.628701
7.619704
7.610863
7.602185
7.593668
7.58531
7.577106
7.569053
7.561146
7.55338
7.545749
7.538248
7.530873
7.523619
7.51648
7.509452
7.502529
7.495707
7.488979
7.482342
7.475788
7.469312
7.462907
7.456565
7.450279
7.44404
7.437836
7.431657
7.425488
7.419312
7.413109
7.406852
7.400508
7.394035
7.387376
7.380451
7.373151
7.365317
7.356714
7.346979
7.335566
7.321665
7.304366
7.282841
7.259776
7.243887
551.258
491.849
441.2156
402.5688
371.7638
345.1296
322.3359
302.9992
287.0151
275.2519
133.4035
128.2493
122.8959
117.819
113.0453
108.3543
103.8101
99.60524
95.61162
74.14889
68.69198
64.48953
61.34151
58.93222
56.99368
55.34965
53.89376
52.56102
51.34299
50.1296
48.81953
47.47528
46.15441
44.89581
43.71774
42.62445
41.61173
40.6549
40.25772
39.70148
39.04488
38.34084
37.62132
36.90699
36.21107
35.54119
34.90373
34.30046
33.72091
33.17253
32.65139
32.15161
31.67089
31.20737
30.76182
30.35166
27.61047
27.23007
26.86808
26.52478
26.19378
25.87119
25.55535
25.24574
24.94149
24.64193
24.34943
24.06332
23.78109
23.50257
23.2283
22.95868
22.69382
22.4336
22.17767
21.92591
21.67716
21.42998
21.18447
20.93898
20.69271
20.44464
20.1936
19.93794
19.67544
19.40412
19.1229
18.83216
18.53264
18.22564
17.91174
17.59248
17.26587
16.92711
16.61664
16.30234
15.98436
15.6643
15.34425
15.02587
14.71033
14.39865
14.09157
13.78982
13.4941
13.20456
12.92139
12.64506
12.37601
12.11468
11.86201
11.61882
11.38626
11.16401
10.94748
10.73695
10.535
10.3417
10.15543
9.974932
9.80002
9.630784
9.467244
9.309342
9.156934
9.009816
8.867744
8.730445
8.597592
8.468842
8.343832
8.222334
8.10428
7.990048
7.880016
7.774771
7.676161
7.585876
7.502984
7.426763
7.356992
7.292815
7.228231
7.16306
7.100255
7.041028
6.985632
6.933947
6.885851
6.841305
6.800296
6.76281
6.728812
6.698256
6.671094
6.647273
6.626742
6.609449
6.595335
6.584335
6.576367
6.571338
6.569147
6.569686
6.572835
6.578439
6.586266
6.59605
6.607539
6.620523
6.634861
6.650512
6.667418
6.684802
6.701961
6.718372
6.73364
6.747844
6.761125
6.773567
6.785242
6.796212
6.806534
6.816261
6.825443
6.834127
6.842343
6.85011
6.857462
6.864396
6.870892
6.877028
6.882979
6.889195
6.895767
6.902454
6.90925
6.916156
6.923218
6.930455
6.937883
6.945532
6.953417
6.96155
6.969938
6.978587
6.9875
6.996679
7.006122
7.015819
7.025765
7.035949
7.046362
7.056985
7.067802
7.078795
7.089946
7.101235
7.112643
7.124153
7.135737
7.147385
7.159081
7.170806
7.182544
7.194285
7.206016
7.217726
7.229403
7.241041
7.252623
7.264147
7.275592
7.286964
7.298225
7.309395
7.320394
7.331266
7.341856
7.352322
7.362502
7.372287
7.390802
7.400292
7.403706
7.403539
7.401499
7.39871
7.395868
7.393378
7.391458
7.390204
7.389637
7.38973
7.390434
7.391689
7.393432
7.395603
7.398145
7.401008
7.404142
7.407502
7.411048
7.414736
7.418527
7.42238
7.426255
7.430111
7.433895
7.437548
7.440988
7.4441
7.446716
7.44857
7.449258
7.448209
7.44474
7.438348
7.429561
7.419337
7.408087
7.396108
7.383665
7.370949
7.358073
7.345103
7.332088
7.319048
7.306002
7.29296
7.279926
7.266904
7.253895
7.2409
7.22792
7.214957
7.202013
7.189094
7.176207
7.16336
7.150567
7.137839
7.125191
7.112638
7.100196
7.087881
7.075707
7.063685
7.051829
7.040163
7.028645
7.016114
7.025696
7.031303
7.033712
7.033656
7.031755
7.028445
7.023944
7.018339
7.01168
7.004015
6.995392
6.985844
6.9754
6.964092
6.951957
6.939038
6.925386
6.911058
6.896118
6.880636
6.864686
6.848346
6.831693
6.814805
6.797755
6.780612
6.763438
6.746289
6.729214
6.712257
6.695455
6.678839
6.662434
6.646262
6.630339
6.614678
6.599293
6.584194
6.569395
6.554912
6.540767
6.526993
6.513637
6.500761
6.488437
6.476735
6.465572
6.454802
6.444335
6.434121
6.424108
6.41431
6.404658
6.395041
6.385831
6.376844
6.367946
6.359042
6.349992
6.340669
6.330989
6.320918
6.310454
6.299621
6.288468
6.277059
6.265467
6.253766
6.242033
6.230342
6.218762
6.207348
6.196148
6.185196
6.17452
6.164139
6.154065
6.144306
6.134864
6.125738
6.116922
6.108409
6.100189
6.09225
6.08458
6.077167
6.069999
6.063066
6.056362
6.049879
6.043613
6.037563
6.031726
6.026105
6.020653
6.015287
6.009979
6.004711
5.99949
5.994363
5.98934
5.984422
5.979608
5.974894
5.970276
5.965749
5.96131
5.956956
5.952681
5.948482
5.944356
5.940298
5.936303
5.932368
5.928488
5.924658
5.920872
5.917124
5.913409
5.909718
5.906042
5.902373
5.898697
5.895002
5.891269
5.887476
5.883596
5.879593
5.875418
5.871009
5.866276
5.8611
5.855313
5.848703
5.840995
5.831958
5.82146
5.810173
5.800262
340.7763
253.7133
333.6977
152.3777
118.4108
83.17202
72.3195
63.20132
56.23241
53.07666
52.27875
51.95138
51.79489
52.27041
52.61253
52.95558
53.25725
53.44566
53.46673
53.26764
52.86879
52.30675
51.36517
50.57259
49.83145
49.06334
48.25126
47.3964
46.50728
45.59266
44.64485
42.07023
41.13867
40.21185
39.29101
38.38439
37.49889
36.63907
35.80733
35.00571
34.23382
33.49196
32.7806
32.09743
31.44115
30.81128
30.20752
29.62962
29.07761
28.5501
28.04643
27.5678
27.11372
26.68214
26.27152
25.88067
25.50854
25.1541
24.81593
24.49396
24.18748
23.89443
23.61331
23.34353
23.0793
22.81973
22.56022
22.29708
22.08307
21.87738
21.67302
21.47031
21.27058
21.07386
20.87962
20.68707
20.49598
20.30588
20.11629
19.92653
19.73646
19.54636
19.35653
19.16714
18.97829
18.79013
18.60283
18.41648
18.23086
18.0453
17.86009
17.67566
17.49188
17.30843
17.12482
16.94071
16.75679
16.57428
16.39188
16.20833
16.02264
15.83354
15.63965
15.43888
15.23202
15.01852
14.80121
14.57878
14.35102
14.11891
13.88353
13.64565
13.40594
13.16513
12.92397
12.68319
12.44344
12.20533
11.96951
11.73664
11.50736
11.28231
11.06214
10.84749
10.63882
10.43612
10.23795
10.04399
9.855252
9.672186
9.494182
9.320522
9.151086
8.986029
8.825454
8.66942
8.517894
8.370783
8.22797
8.089324
7.954682
7.823885
7.696776
7.573276
7.453394
7.337366
7.22546
7.117954
7.015468
6.918584
6.827009
6.740082
6.657169
6.577395
6.49935
6.422937
6.349203
6.278926
6.212321
6.149348
6.089949
6.0341
5.981793
5.933006
5.8877
5.845825
5.807322
5.772131
5.740188
5.711425
5.685772
5.663152
5.643483
5.626675
5.61263
5.601242
5.592393
5.585952
5.581773
5.579696
5.579553
5.581177
5.584395
5.589029
5.594881
5.60174
5.609414
5.617764
5.626685
5.635805
5.644749
5.653265
5.661359
5.669093
5.676501
5.683604
5.690419
5.696959
5.703236
5.709261
5.715048
5.720605
5.725944
5.731103
5.736142
5.741176
5.746243
5.751306
5.756351
5.761384
5.766413
5.771457
5.776519
5.781608
5.786733
5.7919
5.797117
5.802393
5.807737
5.813152
5.81864
5.824208
5.829863
5.835609
5.841447
5.84738
5.853407
5.859527
5.865738
5.872038
5.878422
5.884885
5.891425
5.89803
5.904696
5.911417
5.918185
5.924992
5.931831
5.938693
5.945569
5.952449
5.959324
5.966183
5.973014
5.979808
5.986548
5.993226
5.999819
6.006324
6.012717
6.018999
6.025137
6.031095
6.037217
6.043297
6.049009
6.054125
6.058597
6.062454
6.065761
6.068596
6.071045
6.073187
6.075098
6.076842
6.078474
6.080041
6.081577
6.083112
6.084669
6.086261
6.087898
6.089585
6.091319
6.093093
6.094898
6.096722
6.098543
6.10034
6.102085
6.103739
6.105254
6.106564
6.107578
6.108173
6.108201
6.107478
6.105831
6.103124
6.099432
6.095046
6.090183
6.084963
6.079484
6.073826
6.068048
6.062192
6.056282
6.050335
6.044364
6.038377
6.032367
6.026332
6.020267
6.014161
6.008007
6.001793
5.995511
5.989151
5.982706
5.97617
5.96954
5.962814
5.955994
5.949085
5.942084
5.935003
5.927853
5.920647
5.913402
5.906134
5.898888
5.891642
5.88565
5.880561
5.876057
5.871911
5.86798
5.864155
5.860328
5.856387
5.852251
5.847855
5.843148
5.838082
5.83262
5.826729
5.820382
5.813559
5.806248
5.798445
5.790153
5.781386
5.772164
5.762514
5.752471
5.742074
5.731364
5.720386
5.709183
5.697799
5.686276
5.674654
5.66297
5.65126
5.639555
5.627883
5.616272
5.604743
5.593319
5.582019
5.570863
5.559869
5.549059
5.538454
5.528079
5.517959
5.508121
5.498584
5.489341
5.480364
5.471628
5.463113
5.454795
5.446662
5.438686
5.430863
5.423261
5.415831
5.40852
5.401303
5.394148
5.38702
5.379887
5.372725
5.365521
5.358269
5.350973
5.343618
5.336205
5.328751
5.321276
5.313804
5.306357
5.298958
5.291627
5.284383
5.277243
5.270221
5.263331
5.256582
5.249985
5.243545
5.237268
5.231156
5.225213
5.219437
5.213829
5.208386
5.203107
5.197989
5.193028
5.188221
5.183562
5.179048
5.174673
5.170431
5.166315
5.162321
5.15845
5.154706
5.151067
5.147471
5.143897
5.140374
5.136925
5.133552
5.130254
5.127028
5.123872
5.120782
5.117756
5.11479
5.111882
5.109027
5.106223
5.103466
5.100753
5.098079
5.09544
5.092832
5.090249
5.087685
5.085135
5.082589
5.08004
5.077476
5.074885
5.072251
5.069555
5.066771
5.063868
5.060805
5.057529
5.053972
5.050047
5.045652
5.040673
5.035019
5.028667
5.021861
5.015637
343.9021
234.9677
179.6503
148.2681
119.282
94.12399
79.20868
72.8301
66.29399
62.59171
59.68568
56.26267
53.03476
50.24448
48.03542
45.91738
42.33707
41.97843
42.00675
42.50925
43.45314
44.62408
45.82688
47.00134
48.05464
48.91541
49.58913
50.01667
50.14228
50.01034
49.64816
49.10966
48.43261
47.60282
46.64963
45.60992
44.515
43.38713
42.24879
41.10973
39.99018
38.87345
37.74775
36.67495
35.65099
34.6636
33.71234
32.80094
31.93084
31.10247
30.31452
29.56867
28.86427
28.19936
27.57159
26.97904
26.42006
25.89299
25.39622
24.9281
24.48707
24.0715
23.67993
23.31101
22.96348
22.63625
22.32826
22.03841
21.76553
21.50848
21.2661
21.03662
20.81623
20.59841
20.38426
20.17806
19.98068
19.79205
19.60999
19.43608
19.26749
19.10217
18.93997
18.78109
18.62513
18.47131
18.31888
18.16727
18.01596
17.86456
17.71283
17.56066
17.40801
17.25487
17.10131
16.94742
16.79339
16.63942
16.48572
16.33244
16.17966
16.02764
15.87664
15.72672
15.5778
15.4297
15.28226
15.13531
14.98869
14.84212
14.69513
14.54726
14.39802
14.24752
14.09659
13.94454
13.79028
13.63272
13.47019
13.30236
13.12957
12.95215
12.77034
12.58444
12.39489
12.20221
12.00694
11.80969
11.61109
11.41182
11.21253
11.0139
10.81657
10.62119
10.42838
10.23852
10.05173
9.867829
9.686739
9.508882
9.334635
9.163905
8.996414
8.832083
8.671156
8.513833
8.360194
8.210267
8.064027
7.921445
7.782479
7.647066
7.515142
7.386652
7.261585
7.139983
7.021976
6.907721
6.79736
6.691124
6.589178
6.491357
6.397257
6.306441
6.218471
6.132869
6.049629
5.969201
5.892017
5.818259
5.747946
5.68106
5.617596
5.557551
5.500917
5.447671
5.397774
5.351177
5.307826
5.267664
5.230634
5.196674
5.165718
5.137699
5.112542
5.090165
5.070481
5.053391
5.038788
5.026554
5.016557
5.00866
5.002712
4.998559
4.996037
4.99498
4.995222
4.996595
4.998941
5.002104
5.005932
5.010296
5.015097
5.020102
5.025083
5.029958
5.034754
5.039477
5.044126
5.048694
5.053177
5.057573
5.061879
5.0661
5.070247
5.074342
5.078413
5.082472
5.086515
5.090534
5.094529
5.098502
5.102457
5.106405
5.11033
5.114242
5.118135
5.122019
5.1259
5.129776
5.133647
5.137522
5.141404
5.145298
5.149208
5.153137
5.157089
5.161068
5.165076
5.169117
5.173193
5.177304
5.181453
5.185639
5.189863
5.194123
5.198419
5.202749
5.207109
5.211497
5.215909
5.22034
5.224784
5.229236
5.233687
5.238131
5.24256
5.246963
5.251334
5.255661
5.259936
5.26415
5.268294
5.272357
5.276336
5.280262
5.284167
5.288021
5.291771
5.295374
5.298802
5.302038
5.30507
5.307895
5.310519
5.312952
5.315207
5.317301
5.319255
5.321086
5.32281
5.324446
5.326007
5.327507
5.328955
5.330358
5.331719
5.333039
5.334315
5.335544
5.336711
5.337804
5.338806
5.339691
5.340427
5.340976
5.341286
5.341304
5.340968
5.340227
5.339044
5.337438
5.335478
5.333243
5.330783
5.328149
5.325386
5.322527
5.319601
5.316627
5.313619
5.310585
5.30753
5.304456
5.301355
5.29822
5.295038
5.291802
5.288499
5.285116
5.281641
5.27806
5.274363
5.27054
5.266584
5.262496
5.258261
5.253883
5.24937
5.244729
5.239974
5.235095
5.230091
5.224973
5.21975
5.214553
5.209467
5.204497
5.199637
5.194887
5.190245
5.185691
5.181197
5.176731
5.17226
5.16775
5.163166
5.15847
5.153628
5.148607
5.143374
5.137904
5.132172
5.126161
5.119859
5.113262
5.106369
5.099186
5.091726
5.084004
5.076039
5.067855
5.059474
5.050923
5.042228
5.033414
5.024508
5.015534
5.006517
4.997479
4.988441
4.979425
4.970448
4.961529
4.952685
4.943934
4.935292
4.926775
4.918398
4.910176
4.902117
4.894229
4.886511
4.87896
4.871572
4.864339
4.857254
4.850311
4.843505
4.836836
4.830292
4.82386
4.817532
4.811296
4.805136
4.799036
4.792981
4.786959
4.780958
4.774974
4.76901
4.763069
4.757155
4.751272
4.745427
4.739626
4.733876
4.728183
4.722554
4.716995
4.711511
4.70611
4.700796
4.695576
4.690453
4.685431
4.680515
4.675707
4.67101
4.666424
4.66195
4.657589
4.653341
4.649203
4.645176
4.641257
4.637445
4.633737
4.63013
4.626623
4.623212
4.619895
4.61667
4.613531
4.610478
4.607511
4.604586
4.601684
4.598834
4.596046
4.593322
4.590659
4.588056
4.58551
4.583018
4.580578
4.578188
4.575843
4.573542
4.571281
4.569056
4.566863
4.564699
4.562559
4.560437
4.558327
4.556224
4.554118
4.552002
4.549864
4.547691
4.545468
4.543176
4.540792
4.538285
4.535621
4.532755
4.529636
4.526207
4.52241
4.518199
4.51357
4.508652
4.504122
210.4012
154.4705
225.6632
107.5171
89.42635
72.7237
67.43736
63.2987
59.30714
57.25199
55.05493
52.4342
50.12663
47.9714
45.77893
41.36109
40.48732
39.79545
39.25434
38.86437
38.57054
38.40091
38.39013
38.55655
38.91142
39.43156
40.06759
40.90436
41.90186
43.06151
44.33791
45.64565
46.87078
47.95446
48.67362
49.05609
49.13042
48.89751
48.38311
47.63044
46.67437
45.55897
44.33457
43.03223
41.67736
40.29871
38.92269
37.56937
36.2539
34.98434
33.76814
32.60453
31.50085
30.46031
29.48675
28.57495
27.72396
26.93015
26.19042
25.50192
24.86115
24.26512
23.70866
23.18915
22.70433
22.25213
21.83062
21.43794
21.07238
20.73229
20.4162
20.1226
19.84992
19.59688
19.36244
19.14563
18.94543
18.76085
18.59084
18.43406
18.28793
18.14302
18.00177
17.87008
17.74634
17.62947
17.51826
17.41207
17.30919
17.20875
17.10987
17.01155
16.91307
16.81405
16.71407
16.61264
16.50934
16.40389
16.29609
16.18584
16.07313
15.95798
15.84047
15.72075
15.59902
15.47554
15.35061
15.22456
15.09771
14.9704
14.84292
14.71561
14.58877
14.46265
14.33738
14.21304
14.08964
13.96712
13.84536
13.72416
13.60325
13.48232
13.36105
13.23927
13.11668
12.99287
12.86743
12.74019
12.61166
12.48139
12.34846
12.21172
12.07052
11.92499
11.77523
11.62136
11.46367
11.30251
11.13832
10.97159
10.80286
10.63269
10.46168
10.29039
10.11937
9.949067
9.779779
9.611645
9.444806
9.279587
9.116386
8.955304
8.796317
8.639591
8.485343
8.333752
8.184942
8.039013
7.896043
7.756079
7.619142
7.485233
7.354343
7.226474
7.101649
6.979918
6.861362
6.746076
6.634142
6.52564
6.4206
6.318913
6.22035
6.124661
6.031642
5.941139
5.853184
5.768014
5.685885
5.606944
5.531236
5.45877
5.389552
5.323594
5.260905
5.201497
5.145351
5.0924
5.042592
4.995882
4.952226
4.91158
4.873901
4.83914
4.807244
4.778154
4.751804
4.728117
4.707007
4.688378
4.67212
4.658113
4.646229
4.636327
4.628262
4.621883
4.617037
4.61357
4.611327
4.610161
4.609929
4.610496
4.611735
4.613529
4.615782
4.61836
4.621084
4.623898
4.626803
4.629784
4.632826
4.635911
4.639025
4.642158
4.645306
4.648467
4.651642
4.654831
4.658027
4.661223
4.664415
4.667597
4.670769
4.673928
4.677083
4.680212
4.683315
4.686396
4.689458
4.692499
4.695519
4.698519
4.701503
4.70447
4.707423
4.710366
4.7133
4.716228
4.719154
4.72208
4.725008
4.727943
4.730885
4.733837
4.736801
4.739778
4.74277
4.745775
4.748796
4.751829
4.754876
4.757932
4.760996
4.764063
4.767131
4.770193
4.773246
4.776283
4.779298
4.782285
4.78524
4.788154
4.791026
4.79385
4.796627
4.79936
4.802054
4.804707
4.807309
4.809852
4.812326
4.814723
4.817034
4.819253
4.821374
4.823395
4.825315
4.827137
4.828864
4.830499
4.832049
4.83352
4.834916
4.836244
4.837507
4.83871
4.839853
4.840938
4.841963
4.842925
4.843818
4.844635
4.845366
4.845998
4.846517
4.846904
4.847139
4.847203
4.847073
4.846736
4.846183
4.845422
4.844471
4.843356
4.842101
4.840733
4.839274
4.837746
4.836165
4.834545
4.832896
4.831224
4.829531
4.827817
4.826079
4.824312
4.822499
4.820634
4.818703
4.816693
4.814589
4.812375
4.810038
4.807562
4.804939
4.802154
4.799189
4.796044
4.792711
4.789189
4.785475
4.781576
4.7775
4.773254
4.768849
4.764309
4.759656
4.754909
4.750094
4.745237
4.740356
4.735465
4.73057
4.725674
4.720775
4.715866
4.710936
4.70597
4.700952
4.695862
4.69068
4.685387
4.679963
4.674392
4.668658
4.662751
4.656663
4.650389
4.64393
4.637287
4.630466
4.623478
4.616332
4.609043
4.601624
4.594092
4.586463
4.578754
4.570983
4.563166
4.555319
4.547459
4.539602
4.531764
4.523957
4.516197
4.508496
4.500868
4.493322
4.485869
4.478519
4.471278
4.464154
4.45715
4.450268
4.443509
4.436871
4.430352
4.423948
4.417657
4.411474
4.405395
4.399417
4.393532
4.387732
4.382009
4.376355
4.37076
4.365217
4.359719
4.354281
4.348909
4.343604
4.338366
4.333196
4.328096
4.323065
4.318105
4.313217
4.308402
4.30366
4.298993
4.294401
4.289887
4.285452
4.281097
4.276824
4.272634
4.268528
4.264506
4.260571
4.256721
4.252958
4.24928
4.245688
4.242181
4.238758
4.235418
4.23216
4.228982
4.225884
4.222863
4.219919
4.217049
4.214251
4.211525
4.208868
4.206272
4.203698
4.201168
4.198693
4.196275
4.193911
4.1916
4.189341
4.18713
4.184966
4.182846
4.180767
4.178726
4.176721
4.174746
4.172799
4.170875
4.168969
4.167076
4.165189
4.163302
4.161406
4.159492
4.157549
4.155564
4.153521
4.151402
4.149186
4.146845
4.14435
4.141667
4.138762
4.135598
4.132152
4.128419
4.124489
4.120863
101.3658
66.02086
58.36935
53.8494
51.4652
48.89265
46.70982
44.8683
43.3106
41.44113
37.71734
37.08154
36.52708
36.06183
35.64368
35.26726
34.96976
34.76882
34.67778
34.68603
34.67247
34.60873
34.62122
34.74192
34.97432
35.32135
35.79987
36.426
37.2143
38.17048
39.27602
40.48699
41.80205
43.10651
44.40538
45.57516
46.5205
47.19892
47.52186
47.46309
47.07043
46.36661
45.38854
44.18373
42.79374
41.28232
39.69564
38.07907
36.46448
34.87739
33.34283
31.8781
30.49495
29.19879
27.99234
26.87455
25.84813
24.9076
24.04341
23.25102
22.52499
21.85938
21.24905
20.68943
20.17641
19.70624
19.27289
18.87286
18.50362
18.16301
17.84908
17.56007
17.29438
17.05058
16.82737
16.62356
16.43801
16.26965
16.11755
15.98092
15.859
15.75106
15.65631
15.57357
15.49832
15.42449
15.36122
15.30741
15.26188
15.22324
15.19018
15.16136
15.13552
15.11122
15.08727
15.06262
15.03613
15.0068
14.97389
14.93686
14.89529
14.84881
14.7972
14.74034
14.67822
14.61092
14.53857
14.46137
14.37961
14.29362
14.20378
14.11051
14.01425
13.91547
13.81461
13.71216
13.60856
13.50426
13.39964
13.29503
13.19069
13.08682
12.98352
12.88085
12.77879
12.67725
12.57609
12.47512
12.37414
12.27282
12.17087
12.06799
11.96397
11.85855
11.75139
11.64226
11.53146
11.41909
11.3043
11.18596
11.06362
10.93739
10.80735
10.67367
10.53662
10.39655
10.25383
10.10892
9.962245
9.814264
9.665377
9.515923
9.366173
9.216388
9.066878
8.917986
8.76996
8.622982
8.477326
8.333157
8.190663
8.050047
7.911461
7.775046
7.640907
7.50911
7.379703
7.252723
7.128214
7.006221
6.886801
6.770019
6.655941
6.544619
6.436086
6.330341
6.227321
6.126908
6.028979
5.933451
5.840296
5.749581
5.661464
5.576122
5.49368
5.414203
5.337697
5.264165
5.193616
5.126059
5.061472
4.999808
4.941053
4.885215
4.832298
4.7823
4.735216
4.69104
4.649758
4.611352
4.575797
4.543057
4.513088
4.485831
4.461216
4.439157
4.419556
4.402302
4.38727
4.374328
4.363332
4.354136
4.346587
4.340532
4.335819
4.3323
4.329831
4.328277
4.327511
4.327414
4.327879
4.328814
4.330087
4.331576
4.33326
4.335116
4.337119
4.339242
4.341462
4.343761
4.346126
4.348543
4.351002
4.353492
4.356002
4.358524
4.36105
4.363574
4.366091
4.368604
4.371094
4.373566
4.376014
4.378439
4.380837
4.38321
4.385555
4.387873
4.390165
4.392431
4.394673
4.396892
4.39909
4.401269
4.403432
4.40558
4.407715
4.409841
4.411959
4.414072
4.41618
4.418286
4.42039
4.422494
4.424597
4.4267
4.428801
4.430899
4.432992
4.435077
4.437152
4.439213
4.441257
4.443279
4.445276
4.447244
4.449179
4.451079
4.452941
4.454766
4.456551
4.458298
4.460005
4.46167
4.463292
4.464868
4.466397
4.467877
4.469305
4.470679
4.471999
4.473263
4.474473
4.475627
4.476728
4.477777
4.478776
4.479725
4.480626
4.481481
4.48229
4.483051
4.483764
4.484426
4.485033
4.485582
4.486065
4.486477
4.486809
4.487053
4.4872
4.487239
4.487163
4.486963
4.486637
4.486184
4.485606
4.484912
4.484113
4.483221
4.48225
4.481215
4.480129
4.479004
4.47785
4.476673
4.475479
4.47427
4.473044
4.471798
4.470527
4.469221
4.467869
4.466461
4.464981
4.463414
4.461745
4.459958
4.458036
4.455967
4.453728
4.45131
4.448698
4.445881
4.44285
4.439598
4.436135
4.432472
4.428614
4.424566
4.420336
4.415932
4.411368
4.406662
4.401834
4.396902
4.391881
4.386787
4.381632
4.376425
4.371175
4.365883
4.360551
4.355176
4.349751
4.344271
4.338725
4.333104
4.327398
4.321598
4.315694
4.309679
4.303548
4.297297
4.290925
4.284433
4.277824
4.271102
4.264273
4.257345
4.250328
4.243231
4.236065
4.228843
4.221575
4.214274
4.206953
4.199623
4.192297
4.184987
4.177703
4.170458
4.16326
4.15612
4.149047
4.142049
4.135134
4.12831
4.121583
4.114959
4.108441
4.102031
4.09573
4.089538
4.083455
4.07748
4.071612
4.065849
4.060191
4.054633
4.049173
4.043808
4.038536
4.033353
4.028259
4.023253
4.018334
4.013501
4.008754
4.004093
3.999515
3.995021
3.99061
3.986281
3.982032
3.977862
3.973769
3.969753
3.965813
3.961949
3.958158
3.954441
3.950798
3.947228
3.94373
3.940306
3.936953
3.933672
3.930463
3.927325
3.924257
3.92126
3.918331
3.915472
3.912679
3.909954
3.907296
3.904702
3.902172
3.899706
3.897302
3.89496
3.892677
3.89045
3.888249
3.886088
3.883975
3.88191
3.879892
3.87792
3.875992
3.874105
3.872258
3.870448
3.868672
3.866928
3.865212
3.863521
3.86185
3.860197
3.858554
3.856919
3.855283
3.853641
3.851985
3.850304
3.84859
3.84683
3.845009
3.843112
3.841121
3.839014
3.836771
3.834367
3.831784
3.829004
3.826027
3.822917
3.820054
122.291
48.61333
37.1207
34.5323
33.16128
32.34382
31.86684
31.59988
31.47958
31.46302
31.40685
31.22847
31.0696
30.95345
30.87595
30.84344
30.86651
30.95012
31.09358
31.28585
31.51793
31.82104
32.21081
32.71505
33.34868
34.1251
35.05146
36.1356
37.38754
38.77062
40.26933
41.7538
43.11541
44.26954
45.13788
45.7142
45.95883
45.84423
45.34472
44.48982
43.3385
41.93129
40.3268
38.58871
36.76467
34.92516
33.11696
31.37417
29.72133
28.17899
26.75646
25.45392
24.2698
23.19457
22.21838
21.33159
20.5221
19.77961
19.10462
18.49211
17.93633
17.42939
16.96689
16.54486
16.15963
15.80793
15.4866
15.19292
14.92464
14.67984
14.45681
14.25407
14.0703
13.90436
13.7552
13.62189
13.5036
13.39958
13.30915
13.23173
13.16681
13.11385
13.07212
13.0382
13.00931
12.99197
12.98529
12.98816
12.99943
13.01785
13.04208
13.07073
13.10239
13.1356
13.16898