/*--------------------------------*- C++ -*----------------------------------*\
| =========                 |                                                 |
| \\      /  F ield         | foam-extend: Open Source CFD                    |
|  \\    /   O peration     | Version:     3.1                                |
|   \\  /    A nd           | Web:         http://www.extend-project.de       |
|    \\/     M anipulation  |                                                 |
\*---------------------------------------------------------------------------*/
FoamFile
{
    version     2.0;
    format      ascii;
    class       volScalarField;
    location    "3.5";
    object      pd;
}
// * * * * * * * * * * * * * * * * * * * * * * * * * * * * * * * * * * * * * //

dimensions      [1 -1 -2 0 0 0 0];

internalField   nonuniform List<scalar> 
119952
(
9841.97
9684.524
9655.7
9683.179
9715.607
9697.262
9695.317
9693.886
9693.89
9694.508
9695.542
9696.853
9698.325
9699.873
9701.405
9702.803
9703.859
9704.032
9701.378
9687.254
9753.944
9712.755
9701.87
9788.342
9773.368
9787.241
9795.092
9821.164
9904.439
6901.844
9211.355
9231.026
9249.406
9269.293
9288.08
9305.975
9323.296
9339.969
9356.072
9366.442
9382.521
9397.195
9410.295
9422.693
9434.586
9446.333
9457.703
9468.42
9479.414
9496.579
9501.797
9508.717
9517.556
9526.13
9534.744
9543.308
9551.825
9560.073
9568.493
9574.79
9583.167
9591.548
9599.538
9607.733
9616.054
9624.459
9633.833
9649.165
9678.328
9663.843
9666.769
9681.156
9689.834
9692.182
9690.821
9690.873
9691.586
9692.576
9693.857
9695.34
9696.938
9698.585
9700.212
9701.732
9703.023
9703.965
9704.699
9706.561
9712.628
9718.487
9721.284
9740.563
9769.316
9776.815
9782.692
9789.781
9780.54
9728.971
9720.583
9732.888
9738.782
9744.016
9748.845
9752.916
9756.575
9759.974
9763.15
9766.128
9768.926
9771.557
9774.031
9776.351
9778.521
9780.542
9782.419
9784.136
9785.71
9787.138
9788.417
9789.551
9790.578
9791.435
9792.161
9792.747
9793.192
9793.504
9793.681
9793.717
9793.617
9793.384
9793.015
9792.505
9791.856
9791.066
9790.124
9789.032
9787.784
9786.377
9784.803
9783.054
9781.124
9778.993
9776.651
9774.05
9771.127
9767.969
9765.607
9764.599
9763.487
9759.248
9755.165
9751.127
9746.897
9742.641
9737.997
9733.305
9728.408
9723.301
9717.987
9712.464
9706.73
9700.787
9694.636
9688.276
9681.705
9674.92
9667.924
9660.716
9653.298
9645.671
9637.834
9629.79
9621.538
9613.08
9604.416
9595.549
9586.48
9577.209
9567.738
9558.067
9548.198
9538.132
9527.87
9517.413
9506.763
9495.919
9484.883
9473.655
9462.231
9450.614
9438.799
9426.784
9414.556
9402.086
9389.285
9376.017
9361.969
9355.163
9342.328
9329.275
9315.561
9301.866
9288.117
9274.227
9260.284
9246.17
9231.944
9217.603
9203.145
9188.58
9173.911
9159.14
9144.277
9129.33
9114.299
9099.187
9083.998
9068.735
9053.401
9037.995
9022.518
9006.967
8991.335
8975.614
8959.788
8943.835
8927.716
8911.369
8894.688
8877.469
8859.245
8838.991
8817.698
8810.016
8800.079
8788.554
8776.332
8763.72
8750.871
8737.812
8724.6
8711.279
8697.876
8684.399
8670.857
8657.256
8643.597
8629.881
8616.109
8602.277
8588.385
8574.428
8560.405
8546.305
8532.109
8517.839
8503.494
8489.059
8474.528
8459.897
8445.164
8430.326
8415.379
8400.32
8385.145
8369.824
8354.409
8348.926
8325.919
8305.124
8289.375
8272.725
8255.88
8239.261
8222.525
8205.681
8188.716
8171.652
8154.487
8137.208
8119.81
8102.29
8084.652
8066.901
8049.04
8031.076
8013.016
7994.867
7976.637
7958.334
7939.966
7921.544
7903.074
7884.567
7866.031
7847.477
7828.915
7810.354
7791.806
7773.281
7754.789
7736.342
7717.95
7699.626
7681.382
7663.23
7645.187
7627.269
7609.499
7591.904
7574.498
7557.345
7540.22
7522.607
7504.968
7487.659
7470.598
7453.772
7437.183
7420.777
7403.654
7385.869
7371.193
7356.317
7340.985
7325.852
7310.949
7296.306
7281.922
7267.79
7253.905
7240.266
7226.873
7213.725
7200.823
7188.168
7175.758
7163.597
7151.687
7140.026
7128.614
7117.45
7106.522
7095.859
7085.436
7075.256
7065.317
7055.617
7046.155
7036.927
7027.932
7019.165
7010.616
7002.295
6994.199
6986.321
6978.669
6971.221
6963.981
6956.948
6950.118
6943.484
6937.043
6930.794
6924.733
6918.848
6913.14
6907.607
6902.248
6897.06
6892.037
6887.177
6882.475
6877.928
6873.533
6869.285
6865.182
6861.219
6857.394
6853.702
6850.141
6846.706
6843.394
6840.202
6837.125
6834.159
6831.301
6828.546
6825.888
6823.322
6820.842
6818.44
6816.106
6813.83
6811.596
6809.386
6807.175
6804.927
6802.582
6800.06
6797.217
6793.817
6789.548
6784.869
6785.587
6806.762
8256.375
8248.515
8241.28
8238.274
8240.984
8246.59
8256.726
8271.544
8287.901
8293.012
8326.946
8353.974
8383.052
8414.33
8447.738
8482.885
8519.469
8557.326
8613.06
8653.242
8680.202
8715.972
8754.007
8791.318
8828.353
8864.873
8900.619
8935.881
8966.824
8997.112
9029.184
9059.028
9087.334
9114.582
9140.744
9165.785
9189.726
9213.57
9232.339
9251.948
9272.51
9291.414
9309.415
9326.729
9343.251
9358.928
9373.375
9387.78
9401.735
9414.434
9426.506
9438.197
9449.538
9460.525
9471.13
9482.029
9493.948
9503.915
9512.503
9520.741
9529.079
9537.496
9545.831
9554.041
9562.107
9570.093
9578.2
9586.042
9593.761
9601.623
9609.756
9618.259
9627.368
9637.4
9648.381
9658.298
9663.749
9668.102
9674.179
9680.133
9684.059
9685.997
9687.202
9688.478
9690.001
9691.696
9693.478
9695.308
9697.17
9699.045
9700.92
9702.823
9704.887
9707.423
9710.927
9715.869
9722.388
9730.729
9741.746
9753.673
9762.071
9765.742
9764.303
9756.935
9745.334
9737.266
9737.347
9741.435
9745.886
9749.67
9753.006
9756.2
9759.326
9762.344
9765.216
9767.937
9770.516
9772.957
9775.263
9777.432
9779.462
9781.351
9783.1
9784.708
9786.176
9787.505
9788.698
9789.73
9790.672
9791.458
9792.097
9792.595
9792.956
9793.184
9793.255
9793.198
9793.001
9792.662
9792.164
9791.524
9790.737
9789.797
9788.704
9787.453
9786.039
9784.458
9782.702
9780.765
9778.642
9776.33
9773.844
9771.25
9768.658
9766.077
9763.638
9761.005
9757.771
9754.098
9750.135
9745.982
9741.634
9737.108
9732.369
9727.427
9722.282
9716.931
9711.371
9705.602
9699.623
9693.432
9687.029
9680.414
9673.586
9666.549
9659.3
9651.842
9644.174
9636.297
9628.211
9619.918
9611.419
9602.714
9593.805
9584.694
9575.382
9565.868
9556.156
9546.246
9536.139
9525.836
9515.339
9504.648
9493.764
9482.689
9471.422
9459.963
9448.313
9436.469
9424.429
9412.199
9399.786
9387.269
9374.782
9362.554
9353.955
9341.185
9327.645
9314.121
9300.592
9286.87
9273.008
9259.024
9244.91
9230.667
9216.305
9201.828
9187.243
9172.555
9157.769
9142.889
9127.922
9112.871
9097.741
9082.536
9067.258
9051.909
9036.49
9021.002
9005.442
8989.805
8974.081
8958.258
8942.314
8926.22
8909.928
8893.366
8876.444
8859.142
8841.872
8825.732
8812.423
8800.798
8788.546
8775.97
8763.186
8750.197
8737.051
8723.792
8710.441
8697.012
8683.515
8669.958
8656.345
8642.678
8628.955
8615.178
8601.343
8587.447
8573.488
8559.461
8545.36
8531.182
8516.925
8502.581
8488.147
8473.617
8458.988
8444.255
8429.43
8414.471
8399.411
8384.251
8369.014
8353.829
8337.881
8322.621
8304.459
8286.392
8269.378
8252.824
8236.239
8219.499
8202.628
8185.701
8168.623
8151.427
8134.109
8116.67
8099.112
8081.439
8063.653
8045.761
8027.768
8009.681
7991.506
7973.251
7954.924
7936.535
7918.091
7899.601
7881.075
7862.521
7843.951
7825.374
7806.8
7788.24
7769.704
7751.203
7732.748
7714.349
7696.02
7677.77
7659.614
7641.562
7623.63
7605.831
7588.175
7570.654
7553.226
7535.826
7518.406
7501.049
7483.857
7466.871
7450.1
7433.545
7417.21
7401.013
7384.668
7368.595
7353.066
7337.811
7322.715
7307.835
7293.212
7278.846
7264.733
7250.872
7237.261
7223.899
7210.786
7197.922
7185.307
7172.941
7160.825
7148.958
7137.341
7125.972
7114.853
7103.984
7093.359
7082.978
7072.841
7062.945
7053.288
7043.869
7034.684
7025.731
7017.008
7008.53
7000.249
6992.191
6984.354
6976.733
6969.323
6962.122
6955.127
6948.346
6941.736
6935.33
6929.123
6923.11
6917.248
6911.57
6906.071
6900.747
6895.592
6890.602
6885.774
6881.104
6876.589
6872.224
6868.006
6863.931
6859.997
6856.199
6852.535
6849
6845.591
6842.304
6839.137
6836.084
6833.142
6830.307
6827.575
6824.939
6822.396
6819.939
6817.559
6815.25
6813.001
6810.799
6808.629
6806.471
6804.301
6802.085
6799.799
6797.424
6795.074
6793.035
6792.221
6793.005
6796.04
8223.079
8369.894
8518.57
8667.366
8808.755
8942.69
9064.784
9171.265
9259.73
9325.02
9369.786
9399.257
9410.282
9405.375
9386.635
9355.685
9315.088
9266.371
9213.44
9140.483
9079.942
9016.128
8951.452
8886.745
8823.041
8761.069
8701.292
8644.603
8592.644
8538.427
8490.296
8446.232
8405.657
8369.33
8337.245
8309.579
8286.603
8269.841
8252.856
8238.054
8232.454
8231.573
8234.679
8241.915
8252.976
8267.784
8286.008
8305.666
8330.892
8358.52
8387.65
8419.045
8452.562
8487.84
8524.208
8562.581
8614.334
8655.229
8690.612
8726.051
8763.11
8800.913
8838.303
8874.779
8910.228
8944.663
8977.889
9009.426
9039.633
9068.85
9097.091
9124.255
9150.261
9175.109
9198.819
9221.374
9242.512
9262.23
9281.215
9299.683
9317.457
9334.419
9350.549
9365.889
9380.512
9394.387
9407.571
9420.16
9432.214
9443.792
9454.875
9465.505
9475.67
9485.855
9496.3
9505.415
9513.616
9521.783
9530.133
9538.507
9546.761
9554.856
9562.848
9570.738
9578.516
9586.225
9593.963
9601.81
9609.835
9618.134
9626.721
9635.603
9644.546
9652.959
9659.471
9664.432
9669.544
9674.811
9679.044
9681.79
9683.689
9685.468
9687.371
9689.369
9691.398
9693.447
9695.53
9697.663
9699.875
9702.229
9704.848
9707.918
9711.708
9716.543
9722.65
9729.559
9737.515
9745.796
9752.191
9755.262
9755.036
9751.658
9745.394
9740.667
9740.23
9742.843
9746.182
9749.297
9752.214
9755.118
9758.039
9760.918
9763.701
9766.368
9768.918
9771.353
9773.669
9775.862
9777.929
9779.868
9781.677
9783.354
9784.898
9786.31
9787.587
9788.718
9789.718
9790.577
9791.297
9791.877
9792.313
9792.604
9792.765
9792.769
9792.638
9792.37
9791.916
9791.363
9790.649
9789.766
9788.727
9787.525
9786.162
9784.63
9782.925
9781.047
9778.995
9776.776
9774.412
9771.927
9769.333
9766.691
9764
9761.155
9757.97
9754.352
9750.423
9746.3
9741.995
9737.502
9732.806
9727.902
9722.789
9717.463
9711.925
9706.176
9700.214
9694.038
9687.65
9681.049
9674.236
9667.211
9659.975
9652.527
9644.869
9637.001
9628.925
9620.641
9612.151
9603.455
9594.555
9585.452
9576.147
9566.642
9556.938
9547.035
9536.936
9526.641
9516.151
9505.468
9494.592
9483.526
9472.268
9460.822
9449.185
9437.364
9425.355
9413.184
9400.847
9388.405
9375.793
9363.031
9350.139
9337.568
9324.666
9311.344
9297.748
9284.002
9270.131
9256.129
9241.99
9227.721
9213.331
9198.826
9184.212
9169.496
9154.681
9139.774
9124.779
9109.703
9094.548
9079.32
9064.021
9048.655
9033.224
9017.727
9002.164
8986.532
8970.826
8955.037
8939.157
8923.171
8907.069
8890.858
8874.59
8858.42
8842.637
8827.646
8813.71
8800.551
8787.599
8774.571
8761.429
8748.196
8734.891
8721.518
8708.084
8694.593
8681.05
8667.458
8653.818
8640.129
8626.391
8612.601
8598.756
8584.853
8570.886
8556.853
8542.748
8528.565
8514.301
8499.95
8485.507
8470.968
8456.328
8441.583
8426.724
8411.759
8396.677
8381.495
8366.187
8350.745
8334.75
8317.961
8301.492
8285.465
8269.52
8253.393
8237.019
8220.443
8203.704
8186.834
8169.817
8152.657
8135.36
8117.931
8100.377
8082.703
8064.916
8047.019
8029.021
8010.927
7992.744
7974.481
7956.145
7937.744
7919.287
7900.783
7882.241
7863.671
7845.083
7826.487
7807.892
7789.309
7770.75
7752.223
7733.741
7715.315
7696.954
7678.671
7660.477
7642.382
7624.397
7606.53
7588.783
7571.153
7553.625
7536.177
7518.779
7501.46
7484.289
7467.306
7450.517
7433.919
7417.488
7401.248
7385.33
7369.568
7353.921
7338.468
7323.257
7308.302
7293.61
7279.187
7265.027
7251.126
7237.48
7224.088
7210.948
7198.059
7185.421
7173.034
7160.898
7149.012
7137.377
7125.991
7114.855
7103.967
7093.325
7082.928
7072.775
7062.864
7053.193
7043.758
7034.559
7025.593
7016.857
7008.355
7000.073
6992.01
6984.165
6976.535
6969.116
6961.904
6954.895
6948.074
6941.481
6935.076
6928.869
6922.903
6916.982
6911.285
6905.778
6900.447
6895.285
6890.289
6885.454
6880.778
6876.256
6871.885
6867.661
6863.581
6859.641
6855.838
6852.168
6848.628
6845.215
6841.924
6838.753
6835.697
6832.753
6829.917
6827.184
6824.55
6822.01
6819.558
6817.188
6814.893
6812.666
6810.496
6808.374
6806.289
6804.231
6802.193
6800.187
6798.254
6796.506
6795.123
6794.374
6794.589
6795.723
7247.266
7277.689
7317.156
7364.824
7419.439
7490.316
7565.598
7652
7751.225
7848.341
7950.559
8070.294
8199.883
8337.109
8479.092
8620.341
8757.932
8887.03
9003.858
9105.764
9191.405
9261.767
9310.344
9338.569
9349.616
9345.113
9326.969
9297.283
9258.134
9212.006
9163.262
9078.077
9023.724
8966.505
8903.351
8839.31
8777.135
8717.324
8659.913
8605.115
8553.197
8504.204
8458.321
8415.857
8377.218
8342.714
8312.467
8286.528
8264.885
8247.349
8234.069
8225.134
8220.437
8220.059
8224.073
8232.32
8244.521
8260.399
8279.702
8302.366
8327.872
8355.888
8386.348
8419.193
8453.935
8490.435
8528.067
8567.591
8608.699
8647.426
8684.63
8722.27
8760.802
8799.498
8837.576
8874.623
8910.559
8945.26
8978.674
9010.83
9041.781
9071.547
9100.098
9127.395
9153.441
9178.273
9201.921
9224.38
9245.673
9265.821
9285.067
9303.595
9321.317
9338.181
9354.199
9369.427
9383.887
9397.724
9410.922
9423.494
9435.495
9446.993
9458.107
9468.52
9478.742
9488.567
9497.998
9506.96
9515.482
9523.814
9532.097
9540.299
9548.363
9556.277
9564.074
9571.761
9579.365
9586.953
9594.566
9602.232
9609.99
9617.873
9625.849
9633.887
9641.828
9649.284
9655.713
9661.085
9666.07
9670.875
9675.03
9678.224
9680.748
9683.012
9685.258
9687.529
9689.799
9692.074
9694.383
9696.76
9699.247
9701.905
9704.829
9708.146
9712.027
9716.619
9721.963
9727.816
9734.061
9740.236
9745.212
9748.118
9748.761
9747.431
9744.736
9742.514
9742.318
9744.006
9746.536
9749.217
9751.898
9754.619
9757.379
9760.129
9762.82
9765.426
9767.938
9770.351
9772.659
9774.856
9776.939
9778.902
9780.742
9782.458
9784.046
9785.505
9786.83
9788.021
9789.081
9790.005
9790.79
9791.436
9791.938
9792.298
9792.526
9792.61
9792.544
9792.321
9791.982
9791.446
9790.769
9789.922
9788.941
9787.788
9786.475
9784.992
9783.341
9781.519
9779.532
9777.383
9775.082
9772.638
9770.066
9767.387
9764.585
9761.613
9758.371
9754.797
9750.944
9746.877
9742.616
9738.157
9733.49
9728.605
9723.506
9718.195
9712.671
9706.934
9700.983
9694.819
9688.441
9681.85
9675.046
9668.029
9660.8
9653.359
9645.708
9637.846
9629.776
9621.498
9613.013
9604.322
9595.427
9586.329
9577.029
9567.528
9557.828
9547.93
9537.834
9527.543
9517.057
9506.379
9495.508
9484.447
9473.196
9461.759
9450.134
9438.33
9426.346
9414.198
9401.885
9389.421
9376.796
9364.051
9351.274
9338.559
9325.595
9312.261
9298.677
9284.94
9271.075
9257.075
9242.935
9228.664
9214.268
9199.757
9185.135
9170.41
9155.585
9140.667
9125.662
9110.576
9095.412
9080.176
9064.871
9049.502
9034.072
9018.582
9003.033
8987.427
8971.761
8956.035
8940.248
8924.403
8908.514
8892.612
8876.765
8861.081
8845.72
8830.853
8816.627
8802.988
8789.636
8776.315
8762.952
8749.555
8736.128
8722.666
8709.166
8695.627
8682.051
8668.436
8654.782
8641.088
8627.349
8613.564
8599.728
8585.837
8571.886
8557.87
8543.784
8529.623
8515.381
8501.053
8486.633
8472.117
8457.498
8442.773
8427.935
8412.984
8397.911
8382.708
8367.346
8351.781
8336.062
8320.249
8304.229
8288.002
8271.662
8255.238
8238.698
8222.005
8205.175
8188.225
8171.15
8153.948
8136.62
8119.166
8101.591
8083.897
8066.09
8048.174
8030.155
8012.04
7993.835
7975.548
7957.188
7938.761
7920.278
7901.746
7883.176
7864.577
7845.958
7827.329
7808.702
7790.086
7771.491
7752.929
7734.409
7715.943
7697.542
7679.215
7660.973
7642.826
7624.781
7606.847
7589.025
7571.316
7553.713
7536.207
7518.79
7501.481
7484.317
7467.326
7450.517
7433.897
7417.47
7401.257
7385.265
7369.418
7353.741
7338.297
7323.105
7308.163
7293.474
7279.042
7264.866
7250.945
7237.277
7223.862
7210.7
7197.79
7185.132
7172.726
7160.572
7148.671
7137.021
7125.622
7114.473
7103.573
7092.921
7082.514
7072.353
7062.433
7052.755
7043.314
7034.109
7025.138
7016.398
7007.887
6999.6
6991.534
6983.686
6976.052
6968.63
6961.416
6954.405
6947.593
6940.983
6934.564
6928.322
6922.21
6916.423
6910.768
6905.276
6899.95
6894.791
6889.796
6884.963
6880.287
6875.766
6871.396
6867.173
6863.093
6859.155
6855.353
6851.685
6848.147
6844.736
6841.448
6838.281
6835.229
6832.29
6829.46
6826.735
6824.111
6821.583
6819.147
6816.798
6814.53
6812.339
6810.218
6808.162
6806.168
6804.237
6802.377
6800.61
6798.981
6797.568
6796.475
6795.835
6795.732
6796.126
7205.812
7195.913
7188.03
7182.349
7177.519
7175.903
7178.291
7183.348
7192.729
7206.561
7225.605
7247.658
7277.358
7313.414
7355.706
7406.74
7480.36
7552.931
7632.698
7721.58
7820.327
7931.171
8054.418
8187.317
8326.957
8469.881
8612.27
8750.432
8879.239
8995.37
9095.586
9178.136
9242.188
9286.44
9310.947
9317.873
9309.644
9288.417
9256.128
9214.713
9165.695
9110.681
9050.707
8991.395
8932.459
8871.221
8809.187
8748.322
8689.503
8632.958
8578.981
8527.865
8479.567
8434.343
8392.717
8354.946
8321.184
8291.539
8266.09
8244.884
8228.046
8215.479
8206.907
8202.598
8202.801
8207.441
8216.303
8229.133
8245.708
8265.794
8289.053
8315.364
8344.563
8376.112
8409.805
8445.445
8482.577
8521.33
8560.599
8600.481
8640.495
8680.143
8719.597
8758.992
8798.07
8836.46
8873.878
8910.192
8945.313
8979.212
9011.87
9043.242
9073.305
9102.069
9129.557
9155.794
9180.806
9204.62
9227.26
9248.767
9269.168
9288.571
9307.088
9324.75
9341.563
9357.548
9372.747
9387.205
9400.977
9414.088
9426.565
9438.448
9449.784
9460.595
9471.257
9481.4
9491.062
9500.361
9509.326
9517.902
9526.199
9534.327
9542.323
9550.193
9557.927
9565.539
9573.054
9580.5
9587.914
9595.316
9602.728
9610.165
9617.637
9625.112
9632.532
9639.757
9646.585
9652.769
9658.213
9663.132
9667.708
9671.804
9675.296
9678.289
9680.884
9683.375
9685.884
9688.369
9690.848
9693.36
9695.942
9698.636
9701.496
9704.595
9708.016
9711.849
9716.146
9720.895
9725.956
9731.12
9736.049
9740.161
9742.943
9744.232
9744.272
9743.542
9742.895
9743.189
9744.611
9746.755
9749.179
9751.698
9754.28
9756.91
9759.551
9762.162
9764.708
9767.176
9769.56
9771.851
9774.043
9776.13
9778.106
9779.968
9781.711
9783.334
9784.832
9786.204
9787.447
9788.56
9789.54
9790.384
9791.091
9791.659
9792.086
9792.374
9792.515
9792.508
9792.35
9792.055
9791.603
9790.991
9790.236
9789.294
9788.181
9786.935
9785.509
9783.912
9782.148
9780.217
9778.123
9775.87
9773.464
9770.911
9768.215
9765.36
9762.319
9759.044
9755.503
9751.708
9747.689
9743.461
9739.023
9734.372
9729.507
9724.425
9719.13
9713.621
9707.897
9701.959
9695.807
9689.439
9682.857
9676.062
9669.052
9661.83
9654.396
9646.75
9638.895
9630.829
9622.556
9614.075
9605.388
9596.496
9587.401
9578.104
9568.606
9558.908
9549.012
9538.919
9528.631
9518.148
9507.472
9496.605
9485.548
9474.302
9462.871
9451.256
9439.462
9427.492
9415.354
9403.051
9390.596
9378.002
9365.296
9352.497
9339.593
9326.489
9313.135
9299.569
9285.841
9271.972
9257.961
9243.811
9229.527
9215.119
9200.593
9185.956
9171.213
9156.372
9141.438
9126.417
9111.315
9096.138
9080.89
9065.578
9050.205
9034.776
9019.294
9003.764
8988.187
8972.569
8956.912
8941.224
8925.517
8909.814
8894.149
8878.577
8863.172
8848.034
8833.262
8818.933
8805.013
8791.346
8777.775
8764.232
8750.7
8737.169
8723.628
8710.071
8696.491
8682.887
8669.255
8655.591
8641.894
8628.159
8614.382
8600.557
8586.681
8572.748
8558.752
8544.688
8530.55
8516.332
8502.028
8487.632
8473.139
8458.543
8443.837
8429.018
8414.079
8399.012
8383.807
8368.455
8352.949
8337.314
8321.497
8305.442
8289.216
8272.898
8256.49
8239.959
8223.284
8206.471
8189.526
8172.45
8155.241
8137.901
8120.431
8102.836
8085.12
8067.287
8049.343
8031.293
8013.146
7994.907
7976.585
7958.187
7939.722
7921.198
7902.624
7884.011
7865.367
7846.703
7828.028
7809.352
7790.687
7772.042
7753.429
7734.857
7716.337
7697.88
7679.495
7661.192
7642.981
7624.869
7606.862
7588.965
7571.179
7553.504
7535.939
7518.487
7501.159
7483.98
7466.967
7450.134
7433.488
7417.036
7400.782
7384.727
7368.861
7353.201
7337.77
7322.579
7307.63
7292.928
7278.478
7264.281
7250.337
7236.646
7223.209
7210.025
7197.095
7184.419
7171.997
7159.828
7147.914
7136.252
7124.843
7113.686
7102.779
7092.121
7081.71
7071.545
7061.623
7051.943
7042.503
7033.298
7024.329
7015.591
7007.081
6998.797
6990.734
6982.891
6975.262
6967.846
6960.638
6953.634
6946.83
6940.226
6933.813
6927.585
6921.536
6915.703
6910.045
6904.557
6899.243
6894.093
6889.108
6884.285
6879.618
6875.107
6870.746
6866.532
6862.462
6858.533
6854.741
6851.083
6847.555
6844.155
6840.878
6837.722
6834.683
6831.758
6828.943
6826.235
6823.63
6821.124
6818.714
6816.396
6814.167
6812.023
6809.962
6807.982
6806.084
6804.276
6802.569
6800.986
6799.565
6798.36
6797.432
6796.854
6796.622
6796.752
7448.375
7403.663
7369.134
7337.707
7311.932
7287.779
7268.408
7251.274
7235.937
7222.412
7209.538
7198.996
7190.354
7183.406
7177.901
7178.072
7180.04
7184.897
7193.643
7206.607
7224.269
7247.057
7275.45
7309.728
7350.4
7399.041
7453.061
7518.784
7593.416
7678.445
7775.337
7885.228
8006.735
8138.75
8278.743
8422.346
8565.035
8702.442
8830.281
8944.853
9043.186
9123.504
9185.068
9227.509
9251.208
9257.822
9249.632
9228.847
9197.476
9157.396
9110.225
9058.091
9002.543
8945.196
8887.515
8829.181
8770.332
8711.943
8654.977
8599.995
8547.29
8496.957
8449.318
8404.961
8364.238
8327.289
8294.221
8265.158
8240.225
8219.52
8203.113
8190.942
8182.969
8179.357
8180.215
8185.465
8194.929
8208.401
8225.671
8246.496
8270.564
8297.714
8327.708
8360.436
8395.267
8431.973
8470.223
8509.81
8550.116
8591.079
8632.459
8673.675
8714.437
8754.756
8794.581
8833.709
8871.894
8908.964
8944.817
8979.394
9012.648
9044.542
9075.071
9104.253
9132.112
9158.673
9183.962
9208.008
9230.847
9252.525
9273.086
9292.602
9311.164
9328.831
9345.635
9361.601
9376.77
9391.184
9404.888
9417.924
9430.33
9442.151
9453.437
9464.243
9474.638
9484.567
9494.082
9503.262
9512.094
9520.606
9528.814
9536.827
9544.626
9552.303
9559.853
9567.279
9574.61
9581.866
9589.066
9596.227
9603.362
9610.478
9617.57
9624.604
9631.519
9638.221
9644.585
9650.473
9655.809
9660.658
9665.122
9669.157
9672.757
9676.034
9678.929
9681.657
9684.388
9687.061
9689.718
9692.401
9695.146
9697.993
9700.986
9704.176
9707.614
9711.344
9715.378
9719.685
9724.155
9728.603
9732.789
9736.389
9739.112
9740.856
9741.774
9742.184
9742.555
9743.376
9744.859
9746.867
9749.149
9751.552
9754.034
9756.57
9759.13
9761.685
9764.197
9766.639
9769.008
9771.294
9773.49
9775.588
9777.583
9779.469
9781.242
9782.898
9784.434
9785.847
9787.134
9788.293
9789.322
9790.218
9790.978
9791.602
9792.086
9792.429
9792.628
9792.68
9792.586
9792.344
9791.945
9791.389
9790.681
9789.811
9788.79
9787.572
9786.193
9784.652
9782.942
9781.063
9779.018
9776.808
9774.435
9771.901
9769.202
9766.328
9763.26
9759.975
9756.454
9752.695
9748.709
9744.506
9740.09
9735.458
9730.611
9725.549
9720.27
9714.776
9709.065
9703.139
9696.996
9690.638
9684.064
9677.275
9670.272
9663.055
9655.625
9647.983
9640.13
9632.066
9623.794
9615.315
9606.629
9597.738
9588.643
9579.345
9569.847
9560.149
9550.252
9540.158
9529.869
9519.385
9508.709
9497.841
9486.784
9475.54
9464.11
9452.498
9440.707
9428.741
9416.606
9404.307
9391.855
9379.259
9366.527
9353.658
9340.646
9327.464
9314.087
9300.519
9286.784
9272.899
9258.868
9244.698
9230.395
9215.966
9201.418
9186.757
9171.992
9157.127
9142.169
9127.126
9112.003
9096.807
9081.544
9066.219
9050.838
9035.407
9019.932
9004.417
8988.868
8973.294
8957.7
8942.1
8926.509
8910.951
8895.457
8880.073
8864.852
8849.86
8835.154
8820.766
8806.675
8792.799
8779.049
8765.364
8751.719
8738.098
8724.487
8710.876
8697.258
8683.627
8669.979
8656.308
8642.61
8628.88
8615.112
8601.302
8587.443
8573.53
8559.556
8545.516
8531.402
8517.209
8502.93
8488.559
8474.089
8459.514
8444.828
8430.024
8415.096
8400.036
8384.838
8369.494
8353.999
8338.344
8322.509
8306.491
8290.327
8274.045
8257.644
8241.107
8224.426
8207.603
8190.64
8173.54
8156.302
8138.93
8121.425
8103.792
8086.035
8068.159
8050.17
8032.073
8013.876
7995.585
7977.209
7958.755
7940.232
7921.649
7903.014
7884.339
7865.631
7846.902
7828.162
7809.42
7790.687
7771.974
7753.291
7734.65
7716.059
7697.53
7679.073
7660.696
7642.409
7624.22
7606.135
7588.159
7570.298
7552.553
7534.929
7517.431
7500.07
7482.861
7465.819
7448.955
7432.279
7415.795
7399.509
7383.428
7367.553
7351.892
7336.456
7321.255
7306.295
7291.582
7277.119
7262.909
7248.953
7235.252
7221.807
7208.618
7195.684
7183.007
7170.585
7158.419
7146.508
7134.851
7123.449
7112.299
7101.402
7090.754
7080.354
7070.202
7060.293
7050.628
7041.202
7032.013
7023.06
7014.339
7005.846
6997.579
6989.535
6981.71
6974.1
6966.703
6959.514
6952.529
6945.747
6939.161
6932.769
6926.566
6920.55
6914.726
6909.082
6903.612
6898.312
6893.184
6888.218
6883.414
6878.767
6874.274
6869.931
6865.736
6861.685
6857.774
6854
6850.36
6846.85
6843.468
6840.211
6837.074
6834.055
6831.151
6828.358
6825.674
6823.096
6820.62
6818.244
6815.966
6813.782
6811.691
6809.694
6807.791
6805.986
6804.287
6802.707
6801.267
6799.995
6798.929
6798.106
6797.567
6797.299
6797.342
7827.774
7756.194
7657.382
7568.13
7496.995
7442.892
7399.87
7365.213
7336.673
7311.572
7287.291
7268.874
7252.137
7236.977
7223.365
7211.267
7200.665
7191.589
7184.241
7179.286
7176.1
7176.641
7180.016
7186.947
7197.882
7213.17
7233.296
7259.05
7290.616
7328.22
7372.854
7425.179
7487.501
7559.3
7642.137
7737.947
7847.329
7968.979
8100.529
8239.09
8380.552
8520.341
8654.024
8777.44
8887.115
8980.47
9055.982
9113.136
9152.12
9173.736
9179.481
9171.391
9151.533
9121.841
9084.122
9040.163
8991.649
8939.759
8885.501
8830.253
8774.555
8718.551
8662.939
8608.494
8555.755
8504.954
8456.285
8410.258
8367.382
8327.921
8292.021
8259.827
8231.505
8207.218
8187.092
8171.208
8159.611
8152.347
8149.483
8151.048
8156.988
8167.169
8181.422
8199.543
8221.294
8246.47
8274.93
8306.297
8340.26
8376.448
8414.566
8454.271
8495.258
8537.146
8579.649
8622.44
8665.086
8707.293
8748.964
8790.014
8830.267
8869.505
8907.555
8944.306
8979.689
9013.662
9046.204
9077.312
9107.002
9135.296
9162.222
9187.812
9212.107
9235.151
9256.994
9277.694
9297.315
9315.935
9333.614
9350.398
9366.323
9381.433
9395.774
9409.392
9422.333
9434.642
9446.361
9457.534
9468.207
9478.424
9488.211
9497.599
9506.625
9515.295
9523.633
9531.695
9539.529
9547.237
9554.752
9562.121
9569.334
9576.446
9583.479
9590.445
9597.352
9604.205
9611.003
9617.735
9624.371
9630.862
9637.14
9643.12
9648.722
9653.894
9658.649
9663.029
9667.055
9670.739
9674.143
9677.266
9680.2
9683.073
9685.893
9688.691
9691.507
9694.375
9697.329
9700.403
9703.632
9707.045
9710.662
9714.475
9718.447
9722.487
9726.458
9730.19
9733.491
9736.197
9738.249
9739.738
9740.874
9741.935
9743.207
9744.854
9746.861
9749.1
9751.451
9753.884
9756.375
9758.894
9761.41
9763.897
9766.339
9768.724
9771.037
9773.265
9775.402
9777.438
9779.368
9781.186
9782.887
9784.469
9785.927
9787.259
9788.463
9789.535
9790.475
9791.279
9791.946
9792.474
9792.86
9793.103
9793.201
9793.151
9792.95
9792.596
9792.086
9791.421
9790.594
9789.606
9788.446
9787.121
9785.619
9783.958
9782.123
9780.117
9777.941
9775.594
9773.076
9770.381
9767.502
9764.426
9761.139
9757.628
9753.889
9749.926
9745.744
9741.346
9736.731
9731.899
9726.85
9721.583
9716.098
9710.395
9704.475
9698.337
9691.982
9685.411
9678.623
9671.62
9664.402
9656.97
9649.325
9641.468
9633.4
9625.123
9616.638
9607.946
9599.049
9589.947
9580.643
9571.137
9561.431
9551.527
9541.425
9531.128
9520.636
9509.952
9499.076
9488.011
9476.759
9465.322
9453.703
9441.904
9429.93
9417.786
9405.477
9393.008
9380.385
9367.611
9354.687
9341.61
9328.371
9314.955
9301.36
9287.599
9273.684
9259.624
9245.423
9231.089
9216.628
9202.047
9187.355
9172.556
9157.659
9142.67
9127.596
9112.444
9097.222
9081.936
9066.592
9051.198
9035.761
9020.286
9004.783
8989.257
8973.719
8958.178
8942.649
8927.148
8911.698
8896.328
8881.071
8865.968
8851.061
8836.383
8821.951
8807.749
8793.734
8779.85
8766.051
8752.312
8738.613
8724.94
8711.284
8697.633
8683.98
8670.319
8656.644
8642.948
8629.225
8615.47
8601.675
8587.835
8573.943
8559.991
8545.974
8531.884
8517.714
8503.458
8489.108
8474.659
8460.102
8445.432
8430.641
8415.724
8400.674
8385.484
8370.148
8354.657
8339.005
8323.188
8307.209
8291.077
8274.806
8258.396
8241.844
8225.145
8208.3
8191.311
8174.18
8156.908
8139.498
8121.953
8104.277
8086.474
8068.549
8050.509
8032.359
8014.106
7995.758
7977.323
7958.808
7940.223
7921.576
7902.877
7884.136
7865.361
7846.565
7827.756
7808.945
7790.144
7771.361
7752.609
7733.897
7715.236
7696.637
7678.108
7659.66
7641.302
7623.041
7604.885
7586.841
7568.914
7551.109
7533.432
7515.891
7498.495
7481.256
7464.186
7447.295
7430.592
7414.084
7397.778
7381.68
7365.793
7350.125
7334.683
7319.477
7304.512
7289.794
7275.327
7261.112
7247.152
7233.448
7220.002
7206.814
7193.883
7181.21
7168.795
7156.637
7144.736
7133.091
7121.702
7110.567
7099.684
7089.053
7078.672
7068.538
7058.65
7049.005
7039.601
7030.435
7021.504
7012.806
7004.337
6996.095
6988.075
6980.275
6972.69
6965.318
6958.155
6951.196
6944.439
6937.88
6931.515
6925.339
6919.352
6913.551
6907.93
6902.484
6897.209
6892.103
6887.162
6882.381
6877.757
6873.287
6868.968
6864.795
6860.766
6856.878
6853.126
6849.508
6846.021
6842.661
6839.426
6836.312
6833.317
6830.438
6827.671
6825.015
6822.467
6820.024
6817.685
6815.448
6813.311
6811.275
6809.34
6807.51
6805.788
6804.184
6802.71
6801.383
6800.224
6799.261
6798.516
6798.017
6797.748
6797.764
7761.1
7690.628
7583.136
7519.065
7465.203
7421.592
7385.974
7356.269
7330.81
7308.691
7288.839
7270.948
7254.345
7239.096
7225.117
7212.427
7201.108
7191.248
7182.995
7176.631
7172.807
7171.979
7173.9
7179.162
7188.389
7201.805
7219.648
7242.418
7270.893
7305.762
7347.884
7398.565
7459.826
7531.902
7615.276
7711.049
7819.672
7939.829
8068.998
8203.898
8340.422
8474.095
8600.62
8716.203
8817.896
8903.676
8972.528
9024.241
9059.278
9078.653
9083.817
9076.567
9058.692
9031.828
8997.654
8957.608
8912.954
8865.009
8814.768
8763.146
8710.704
8657.848
8605.297
8553.671
8503.423
8454.882
8408.358
8364.264
8322.994
8284.832
8249.995
8218.691
8191.129
8167.506
8147.988
8132.702
8121.749
8115.196
8113.085
8115.427
8122.187
8133.262
8148.48
8167.689
8190.661
8217.34
8247.288
8280.17
8315.708
8353.588
8393.474
8435.001
8477.824
8521.578
8565.892
8610.413
8654.801