/*--------------------------------*- C++ -*----------------------------------*\
| =========                 |                                                 |
| \\      /  F ield         | foam-extend: Open Source CFD                    |
|  \\    /   O peration     | Version:     3.1                                |
|   \\  /    A nd           | Web:         http://www.extend-project.de       |
|    \\/     M anipulation  |                                                 |
\*---------------------------------------------------------------------------*/
FoamFile
{
    version     2.0;
    format      ascii;
    class       volScalarField;
    location    "19";
    object      alpha1;
}
// * * * * * * * * * * * * * * * * * * * * * * * * * * * * * * * * * * * * * //

dimensions      [0 0 0 0 0 0 0];

internalField   nonuniform List<scalar> 
119952
(
1
1
1
1
1
1
1
1
1
1
1
1
1
1
1
1
1
1
1
1
1
1
1
1
1
1
1
1
1
1
1
1
1
1
1
1
1
1
1
1
1
1
1
1
1
1
1
1
1
1
1
1
1
1
1
1
1
0.9999999
1
1
1
1
1
1
1
0.9999999
1
1
1
1
1
0.9999999
1
1
1
1
1
1
1
1
1
1
1
1
0.9999999
1
1
1
1
1
1
1
1
1
1
1
1
1
1
1
1
1
1
1
1
1
1
1
1
1
1
1
1
1
1
0.9999999
1
1
1
0.9999999
1
1
1
1
0.9999999
1
1
0.9999999
0.9999999
1
1
1
1
0.9999999
1
1
1
1
1
1
1
1
1
1
1
1
1
1
1
1
1
1
1
1
1
1
1
1
1
1
1
1
1
1
1
1
1
1
1
1
1
1
1
1
1
1
1
1
1
1
1
1
1
1
1
1
1
1
1
1
1
1
1
1
1
1
1
1
1
1
1
1
1
1
1
1
1
1
1
1
1
1
1
1
1
0.9999999
1
0.9999999
1
1
0.9999998
1
1
0.9999998
1
0.9999998
1
1
0.9999999
1
1
0.9999999
1
0.9999999
1
0.9999999
1
0.9999999
1
0.9999999
1
1
0.9999999
1
1
0.9999999
1
1
1
0.9999998
1
0.9999999
1
1
0.9999998
1
1
1
0.9999998
1
1
0.9999999
0.9999998
1
1
0.9999998
0.9999998
1
1
1
1
1
1
1
1
1
1
1
1
1
1
1
1
1
1
1
1
1
1
1
1
1
1
1
1
1
1
1
1
1
1
1
1
1
1
1
1
0.9999999
1
0.9999999
0.9999999
1
1
1
1
1
1
1
1
1
1
1
1
0.9999996
0.9999998
1
0.9999999
0.9999999
1
1
1
1
0.9999999
1
1
1
1
1
1
0.9999998
0.9999997
1
1
1
0.9999998
0.9999999
1
1
1
1
0.9999999
1
1
1
0.9999999
0.9999998
1
1
1
1
1
1
0.9999999
1
1
1
1
1
1
1
1
1
1
1
1
1
1
1
1
1
1
1
1
1
1
1
1
1
1
0.9999999
1
1
1
1
1
1
1
1
1
1
1
1
1
1
1
1
1
1
1
1
1
1
1
1
1
1
1
1
1
1
1
1
0.9999999
1
1
1
1
1
1
1
1
1
1
1
1
1
1
1
1
1
1
1
1
1
1
1
1
1
1
1
1
1
1
1
1
1
1
1
1
1
1
1
1
1
1
1
1
1
1
1
1
1
1
1
1
1
1
1
1
1
1
1
1
1
1
1
1
1
1
1
1
1
1
1
1
1
1
1
1
1
1
1
1
1
1
1
1
1
1
1
1
1
1
1
1
1
1
1
1
1
1
1
1
1
1
1
1
1
1
1
1
1
1
1
1
1
1
1
1
1
1
1
1
1
1
1
1
1
1
1
1
1
1
1
1
1
1
1
1
1
1
1
1
1
1
1
1
1
1
1
1
1
1
1
1
1
1
1
1
1
1
1
1
1
1
1
1
1
1
1
1
1
1
1
1
1
1
1
1
1
1
1
1
1
1
1
1
1
1
1
1
1
1
1
1
1
1
1
1
1
1
1
1
1
1
1
1
1
1
1
1
1
1
1
0.9999999
0.9999999
1
0.9999999
0.9999999
1
1
1
1
1
0.9999998
0.9999998
0.9999999
1
1
1
1
1
1
1
0.9999999
0.9999999
1
1
1
1
1
1
1
1
1
1
1
1
1
1
1
1
1
1
1
1
1
1
1
1
1
1
1
1
1
1
1
1
1
1
1
1
1
1
1
1
1
1
1
1
1
1
1
1
1
1
1
1
1
1
1
1
1
1
1
1
1
1
1
1
0.9999999
0.9999999
1
1
1
1
1
0.9999998
0.9999997
0.9999997
0.9999997
0.9999998
1
1
1
1
1
1
1
0.9999999
0.9999997
0.9999996
0.9999996
0.9999997
0.9999999
1
1
1
1
0.9999999
1
1
1
0.9999999
1
1
1
1
1
1
1
1
0.9999999
0.9999999
1
1
1
1
1
1
0.9999999
0.9999999
1
1
1
1
1
1
1
1
1
1
1
1
1
1
1
1
1
1
1
1
1
1
1
1
1
1
1
1
1
1
1
1
1
1
1
1
1
1
1
1
1
1
1
1
1
1
1
1
1
1
1
1
1
1
1
1
1
1
1
1
1
1
1
1
1
1
1
1
1
1
1
1
1
1
1
1
1
1
1
1
1
1
1
1
1
1
1
1
1
1
1
1
1
1
1
1
1
1
1
1
1
1
1
1
1
1
1
1
1
1
1
1
1
1
1
1
1
1
1
1
1
1
1
1
1
1
1
1
1
1
1
1
1
1
1
1
1
1
1
1
1
1
1
1
1
1
1
1
1
1
1
1
1
1
1
1
1
1
1
1
1
1
1
1
1
1
1
1
1
1
1
1
1
1
1
1
1
1
1
1
1
1
1
1
1
1
1
1
1
1
1
1
1
1
1
1
1
1
1
1
1
1
1
1
1
1
1
1
1
1
1
1
1
1
1
1
1
1
1
1
1
1
1
1
1
1
1
1
1
1
1
1
1
1
1
1
1
1
1
1
1
1
1
1
1
1
1
1
1
1
1
1
1
1
1
1
1
1
1
1
1
1
1
1
1
1
1
1
1
1
1
1
1
1
1
1
1
1
1
1
1
1
1
1
1
1
1
1
1
1
1
1
1
1
1
1
1
1
1
1
1
1
1
1
1
1
1
1
1
1
1
1
1
1
1
1
1
1
1
1
1
1
1
1
1
0.9999999
0.9999999
1
1
1
1
1
1
1
0.9999999
0.9999999
0.9999999
1
1
1
1
1
1
1
1
1
1
1
1
1
1
1
1
1
1
1
1
1
1
1
1
1
1
1
1
1
1
1
1
1
1
1
1
1
1
1
1
1
1
1
1
1
1
1
1
1
1
1
1
1
1
1
1
1
1
1
1
1
1
1
1
1
1
1
1
1
1
1
0.9999998
0.9999997
0.9999997
0.9999997
0.9999997
0.9999999
1
1
1
1
1
1
0.9999999
0.9999997
0.9999997
0.9999998
1
1
1
1
0.9999999
0.9999996
0.9999996
0.9999997
0.9999999
1
1
1
1
1
1
1
1
0.9999999
0.9999999
0.9999999
1
1
1
1
0.9999999
0.9999999
0.9999999
0.9999999
1
1
1
1
1
1
1
1
1
1
1
1
1
1
1
1
1
1
1
1
1
1
1
1
1
1
1
1
1
1
1
1
1
1
1
1
1
1
1
1
1
1
1
1
1
1
1
1
1
1
1
1
1
1
1
1
1
1
1
1
1
1
1
1
1
1
1
1
1
1
1
1
1
1
1
1
1
1
1
1
1
1
1
1
1
1
1
1
1
1
1
1
1
1
1
1
1
1
1
1
1
1
1
1
1
1
1
1
1
1
1
1
1
1
1
1
1
1
1
1
1
1
1
1
1
1
1
1
1
1
1
1
1
1
1
1
1
1
1
1
1
1
1
1
1
1
1
1
1
1
1
1
1
1
1
1
1
1
1
1
1
1
1
1
1
1
1
1
1
1
1
1
1
1
1
1
1
1
1
1
1
1
1
1
1
1
1
1
1
1
1
1
1
1
1
1
1
1
1
1
1
1
1
1
1
1
1
1
1
1
1
1
1
1
1
1
1
1
1
1
1
1
1
1
1
1
1
1
1
1
1
1
1
1
1
1
1
1
1
1
1
1
1
1
1
1
1
1
1
1
1
1
1
1
1
1
1
1
1
1
1
1
1
1
1
1
1
1
1
1
1
1
1
1
1
1
1
1
1
1
1
1
1
1
1
1
1
1
1
1
1
1
1
1
1
1
1
1
1
1
1
1
1
1
1
1
1
1
1
1
1
1
1
1
1
1
1
1
1
1
1
1
1
1
1
1
1
1
1
1
1
1
1
1
1
1
1
1
1
1
1
1
1
1
1
1
1
1
1
1
1
1
1
1
1
1
1
1
1
1
1
1
1
1
1
1
1
1
1
1
1
1
1
1
1
1
1
1
1
1
1
1
1
1
1
1
1
1
1
1
1
1
1
1
1
1
1
1
1
1
1
1
1
1
1
1
1
1
1
1
1
1
1
1
1
1
1
1
1
1
0.9999999
0.9999998
0.9999999
1
1
1
1
1
1
1
1
1
1
0.9999999
0.9999999
0.9999999
1
1
1
1
0.9999995
0.9999981
0.999998
0.9999989
0.9999998
1
1
1
1
1
1
1
1
1
1
1
0.9999999
0.9999997
0.999999
0.999998
0.9999979
0.9999988
0.9999998
1
1
1
1
1
1
1
1
1
1
1
1
1
1
1
1
1
1
1
1
1
1
1
1
1
1
1
1
1
1
1
1
1
1
1
1
1
1
1
0.9999999
0.9999998
0.9999998
0.9999998
1
1
1
1
1
1
1
1
1
1
1
1
1
1
1
1
1
1
1
1
1
1
1
1
1
1
1
1
1
1
1
1
1
1
1
1
1
1
1
1
1
1
1
1
1
1
1
1
1
1
1
1
1
1
1
1
1
1
1
1
1
1
1
1
1
1
1
1
1
1
1
1
1
1
1
1
1
1
1
1
1
1
1
1
1
1
1
1
1
1
1
1
1
1
1
1
1
1
1
1
1
1
1
1
1
1
1
1
1
1
1
1
1
1
1
1
1
1
1
1
1
1
1
1
1
1
1
1
1
1
1
1
1
1
1
1
1
1
1
1
1
1
1
1
1
1
1
1
1
1
1
1
1
1
1
1
1
1
1
1
1
1
1
1
1
1
1
1
1
1
1
1
1
1
1
1
1
1
1
1
1
1
1
1
1
1
1
1
1
1
1
1
1
1
1
1
1
1
1
1
1
1
1
1
1
1
1
1
1
1
1
1
1
1
1
1
1
1
1
1
1
1
1
1
1
1
1
1
1
1
1
1
1
1
1
1
1
1
1
1
1
1
1
1
1
1
1
1
1
1
1
1
1
1
1
1
1
1
1
1
1
1
1
1
1
1
1
1
1
1
1
1
1
1
1
1
1
1
1
1
1
1
1
1
1
1
1
1
1
1
1
1
1
1
1
1
1
1
1
1
1
1
1
1
1
1
1
1
1
1
1
1
1
1
1
1
1
1
1
1
1
1
1
1
1
1
1
1
1
1
1
1
1
1
1
1
1
1
1
1
1
1
1
1
1
1
1
1
1
1
1
1
1
1
1
1
1
1
1
1
1
1
1
1
1
1
1
1
1
1
1
1
1
1
1
1
1
1
1
1
1
1
1
1
1
1
1
1
1
1
0.9999999
0.9999999
1
1
1
1
1
1
1
1
1
0.9999997
0.9999995
0.9999996
0.9999999
1
1
0.9999999
0.9999986
0.9999939
0.9999941
0.9999978
0.9999998
1
1
1
1
1
1
1
1
1
1
0.9999994
0.9999958
0.9999835
0.9999717
0.9999747
0.9999896
0.9999988
1
1
1
1
1
1
1
1
1
1
1
1
1
1
1
1
1
1
1
1
1
1
1
1
1
0.9999999
0.9999998
0.9999999
1
1
1
1
1
1
1
1
1
0.9999999
0.9999993
0.9999988
0.9999991
0.9999997
1
1
1
1
1
1
1
1
1
1
1
1
1
1
1
1
1
1
1
1
1
1
1
1
1
1
1
1
1
1
1
1
1
1
1
1
1
1
1
1
1
1
1
1
1
1
1
1
1
1
1
1
1
1
1
1
1
1
1
1
1
1
1
1
1
1
1
1
1
1
1
1
1
1
1
1
1
1
1
1
1
1
1
1
1
1
1
1
1
1
1
1
1
1
1
1
1
1
1
1
1
1
1
1
1
1
1
1
1
1
1
1
1
1
1
1
1
1
1
1
1
1
1
1
1
1
1
1
1
1
1
1
1
1
1
1
1
1
1
1
1
1
1
1
1
1
1
1
1
1
1
1
1
1
1
1
1
1
1
1
1
1
1
1
1
1
1
1
1
1
1
1
1
1
1
1
1
1
1
1
1
1
1
1
1
1
1
1
1
1
1
1
1
1
1
1
1
1
1
1
1
1
1
1
1
1
1
1
1
1
1
1
1
1
1
1
1
1
1
1
1
1
1
1
1
1
1
1
1
1
1
1
1
1
1
1
1
1
1
1
1
1
1
1
1
1
1
1
1
1
1
1
1
1
1
1
1
1
1
1
1
1
1
1
1
1
1
1
1
1
1
1
1
1
1
1
1
1
1
1
1
1
1
1
1
1
1
1
1
1
1
1
1
1
1
1
1
1
1
1
1
1
1
1
1
1
1
1
1
1
1
1
1
1
1
1
1
1
1
1
1
1
1
1
1
1
1
1
1
1
1
1
1
1
1
1
1
1
1
1
1
1
1
1
1
1
1
1
1
1
1
1
1
1
1
1
1
1
1
1
1
1
1
1
1
1
1
1
1
1
1
1
1
1
1
1
1
1
1
1
1
1
1
1
1
1
1
1
1
1
1
1
1
1
1
1
1
1
1
1
1
1
1
1
1
1
1
1
1
1
1
1
0.9999999
0.9999992
0.9999983
0.999999
0.9999998
1
1
0.9999996
0.9999945
0.9999836
0.9999892
0.9999975
0.9999999
1
1
1
1
1
1
1
1
1
0.9999999
0.9999976
0.9999654
0.999817
0.9998138
0.9999194
0.9999897
0.9999997
1
1
1
1
1
1
1
1
1
1
1
1
1
1
1
1
1
1
1
1
1
1
1
0.9999999
0.9999994
0.9999993
0.9999997
1
1
1
1
1
1
0.9999999
0.9999999
0.9999997
0.9999986
0.9999949
0.9999954
0.9999985
0.9999998
1
1
1
1
1
1
1
1
1
1
1
1
1
1
1
1
1
1
1
1
1
1
1
1
1
1
1
1
1
1
1
1
1
1
1
1
1
1
1
1
1
1
1
1
1
1
1
1
1
1
1
1
1
1
1
1
1
1
1
1
1
1
1
1
1
1
1
1
1
1
1
1
1
1
1
1
1
1
1
1
1
1
1
1
1
1
1
1
1
1
1
1
1
1
1
1
1
1
1
1
1
1
1
1
1
1
1
1
1
1
1
1
1
1
1
1
1
1
1
1
1
1
1
1
1
1
1
1
1
1
1
1
1
1
1
1
1
1
1
1
1
1
1
1
1
1
1
1
1
1
1
1
1
1
1
1
1
1
1
1
1
1
1
1
1
1
1
1
1
1
1
1
1
1
1
1
1
1
1
1
1
1
1
1
1
1
1
1
1
1
1
1
1
1
1
1
1
1
1
1
1
1
1
1
1
1
1
1
1
1
1
1
1
1
1
1
1
1
1
1
1
1
1
1
1
1
1
1
1
1
1
1
1
1
1
1
1
1
1
1
1
1
1
1
1
1
1
1
1
1
1
1
1
1
1
1
1
1
1
1
1
1
1
1
1
1
1
1
1
1
1
1
1
1
1
1
1
1
1
1
1
1
1
1
1
1
1
1
1
1
1
1
1
1
1
1
1
1
1
1
1
1
1
1
1
1
1
1
1
1
1
1
1
1
1
1
1
1
1
1
1
1
1
1
1
1
1
1
1
1
1
1
1
1
1
1
1
1
1
1
1
1
1
1
1
1
1
1
1
1
1
1
1
1
1
0.9999999
0.9999998
0.9999999
1
1
1
1
1
1
1
1
1
1
1
1
0.9999999
0.9999996
0.9999989
0.9999987
0.9999994
0.9999999
1
1
1
1
1
1
1
1
1
1
1
1
1
1
1
1
1
1
1
1
1
1
1
1
1
1
1
1
1
1
1
1
1
1
1
1
1
1
1
1
1
1
0.9999998
0.9999975
0.9999967
0.9999986
0.9999998
1
0.9999999
0.9999985
0.9999818
0.9999691
0.9999854
0.9999978
0.9999999
1
1
1
1
1
1
1
1
1
0.9999998
0.9999945
0.9998765
0.9996538
0.9996538
0.9998445
0.9999774
0.9999993
1
1
1
1
1
1
1
1
1
1
1
1
1
1
1
1
1
1
1
1
1
0.9999999
0.9999993
0.9999976
0.9999976
0.999999
0.9999999
1
1
0.9999999
0.9999999
0.9999999
0.9999999
0.9999997
0.9999984
0.9999907
0.9999787
0.9999848
0.9999962
0.9999997
0.9999999
0.9999999
0.9999997
0.9999984
0.9999954
0.9999849
0.9999755
1
1
1
1
1
1
1
1
1
1
1
1
1
1
1
1
1
1
1
1
1
1
1
1
1
1
1
1
1
1
1
1
1
1
1
1
1
1
1
1
1
1
1
1
1
1
1
1
1
1
1
1
1
1
1
1
1
1
1
1
1
1
1
1
1
1
1
1
1
1
1
1
1
1
1
1
1
1
1
1
1
1
1
1
1
1
1
1
1
1
1
1
1
1
1
1
1
1
1
1
1
1
1
1
1
1
1
1
1
1
1
1
1
1
1
1
1
1
1
1
1
1
1
1
1
0.9999999
0.9999999
0.9999998
0.9999998
0.9999998
0.9999998
0.9999998
0.9999998
0.9999997
0.9999995
0.9999992
0.9999991
0.9999991
0.9999992
0.9999992
0.9999991
0.9999986
0.9999974
0.9999961
0.9999959
0.9999964
0.9999973
0.9999976
0.9999973
0.9999962
0.9999935
0.9999901
0.9999891
0.9999897
0.9999924
0.9999948
0.9999951
0.9999946
0.9999924
0.9999878
0.9999842
0.9999837
0.9999851
0.9999898
0.9999939
0.9999944
0.999994
0.9999919
0.9999872
0.9999827
0.9999816
0.9999824
0.9999868
0.9999927
0.9999944
0.9999943
0.9999929
0.9999891
0.9999845
0.9999833
0.9999838
0.9999867
0.999992
0.9999951
0.9999952
0.9999947
0.9999925
0.9999892
0.9999878
0.9999879
0.9999893
0.9999928
0.9999959
0.9999964
0.9999962
0.9999952
0.9999931
0.9999915
0.9999915
0.999992
0.999994
0.9999965
0.9999974
0.9999973
0.9999967
0.9999952
0.9999937
0.9999936
0.9999938
0.999995
0.999997
0.9999978
0.9999977
0.9999973
0.9999962
0.9999954
0.9999954
0.9999956
0.9999965
0.999998
0.9999988
0.9999988
0.9999986
0.9999982
0.9999979
0.9999978
0.9999979
0.9999983
0.9999991
0.9999995
0.9999995
0.9999994
0.9999993
0.9999992
0.9999991
0.9999992
0.9999993
0.9999996
0.9999997
0.9999997
0.9999996
0.9999996
0.9999996
0.9999996
0.9999996
0.9999997
0.9999997
0.9999997
0.9999997
0.9999996
0.9999995
0.9999995
0.9999994
0.9999991
0.9999984
0.9999975
0.9999969
0.9999961
0.9999954
0.9999958
0.9999969
0.9999984
0.9999995
0.9999999
0.9999999
0.9999999
0.9999999
1
1
1
1
1
1
1
1
1
1
1
1
1
1
1
1
1
1
1
1
1
1
1
1
1
1
1
1
1
1
1
1
1
1
1
1
1
1
1
1
1
1
1
1
1
1
1
1
1
1
1
1
1
1
1
1
1
1
1
1
1
1
1
1
1
1
1
1
1
1
0.9999999
1
1
1
1
1
1
1
1
1
1
0.9999998
0.9999995
0.9999998
1
1
1
1
1
1
1
1
0.9999998
0.9999994
0.9999978
0.9999913
0.9999663
0.9999182
0.9999219
0.9999719
0.9999973
0.9999999
1
1
1
1
1
1
1
1
1
1
1
1
1
1
1
1
1
1
1
1
1
1
1
1
1
1
1
1
1
1
1
1
1
1
1
1
1
1
1
1
1
1
1
0.9999991
0.9999941
0.9999954
0.9999988
0.9999999
1
0.9999998
0.999995
0.9999551
0.9999535
0.9999834
0.9999984
1
1
1
1
1
1
1
1
1
1
0.9999999
0.999998
0.9999595
0.9997181
0.9996582
0.9997962
0.9999631
0.9999984
1
1
1
1
0.9999999
0.9999997
0.9999997
0.9999998
1
1
1
1
1
1
1
1
1
1
1
1
0.9999999
0.9999988
0.9999922
0.9999903
0.9999951
0.9999991
1
1
0.9999998
0.9999988
0.9999979
0.9999981
0.9999985
0.999997
0.9999791
0.9999206
0.9999422
0.9999841
0.9999984
0.9999986
0.9999962
0.9999804
0.9999049
0.999607
0.9995134
0.9996471
0.9999332
1
1
1
1
1
1
1
1
1
1
1
1
1
1
1
1
1
1
1
1
1
1
1
1
1
1
1
1
1
1
1
1
1
1
1
1
1
1
1
1
1
1
1
1
1
1
1
1
1
1
1
1
1
1
1
1
1
1
1
1
1
1
1
1
1
1
1
1
1
1
1
1
1
1
1
1
1
1
1
1
1
1
1
1
1
1
1
1
1
1
1
1
1
1
1
1
1
1
1
1
1
1
1
1
1
1
1
1
1
1
1
1
1
1
0.9999999
0.9999998
0.9999997
0.9999997
0.9999997
0.9999997
0.9999997
0.9999997
0.9999996
0.999999
0.9999981
0.9999968
0.9999954
0.9999946
0.9999947
0.9999954
0.9999956
0.9999949
0.9999921
0.9999866
0.9999796
0.9999758
0.9999763
0.9999806
0.9999834
0.9999817
0.9999718
0.9999478
0.9999135
0.9998958
0.9998991
0.9999271
0.9999509
0.9999472
0.9999152
0.9998306
0.9996902
0.9995979
0.9996115
0.9997473
0.9998784
0.99988
0.9998107
0.9995812
0.9991196
0.998755
0.9987676
0.9991191
0.9996296
0.9997295
0.9996601
0.9993479
0.9985836
0.9977055
0.9975482
0.9978659
0.9988448
0.9995163
0.9995333
0.9993742
0.9988548
0.9979143
0.9971352
0.99704
0.9974008
0.9985325
0.9993963
0.999454
0.9993512
0.9989899
0.9982707
0.9974605
0.9971881
0.9973081
0.9980615
0.999167
0.9994831
0.9994508
0.9992798
0.9988383
0.9981315
0.9976372
0.9976067
0.9979067
0.998838
0.999564
0.9996149
0.9995599
0.9993589
0.9989221
0.9983685
0.9981553
0.9982177
0.9986949
0.9995133
0.9997736
0.9997573
0.9996706
0.999429
0.9989921
0.9986454
0.9986156
0.9988084
0.9994554
0.9998738
0.9998807
0.9998285
0.9996619
0.9993058
0.9988432
0.9986839
0.9988773
0.9995892
0.9999334
0.9999334
0.9998841
0.9997306
0.9993793
0.9988836
0.9987476
0.9991413
0.9998106
0.9999796
0.9999765
0.9999515
0.9998659
0.9996252
0.999319
0.9993391
0.9997176
0.9999686
0.9999949
0.9999912
0.9999727
0.9999071
0.9997732
0.9997274
0.9998087
0.9999561
0.9999952
0.9999942
0.9999859
0.9999551
0.9998845
0.9998564
0.9999061
0.9999772
0.9999912
0.9999892
0.999975
0.9999185
0.9998671
0.9999018
0.9999627
0.9999729
0.9999668
0.9999384
0.9998244
0.9997031
0.9997157
0.9997195
0.9996091
0.9993699
0.9993589
0.9994387
0.9996457
0.9998966
0.9999914
0.9999998
0.9999999
0.9999998
0.9999997
0.999999
0.9999964
0.9999959
0.9999981
0.9999998
1
1
0.9999999
0.9999996
0.9999989
0.999999
0.9999997
1
1
0.9999999
0.9999996
0.9999994
0.9999996
0.9999999
0.9999999
0.9999999
0.9999997
0.9999994
0.9999994
0.9999997
1
1
1
1
1
1
1
1
1
1
1
1
1
1
1
1
1
1
1
1
1
1
1
1
1
1
1
1
1
1
1
1
1
1
1
1
1
1
1
1
0.9999999
0.9999997
0.9999997
0.9999999
1
1
1
1
1
0.9999999
0.9999996
0.9999989
0.999999
0.9999992
0.9999992
0.9999995
0.9999998
0.9999999
0.9999999
0.9999999
0.9999998
0.9999998
0.9999998
0.9999996
0.9999976
0.9999836
0.9999217
0.9996817
0.9990902
0.9988995
0.9993519
0.9998839
0.9999953
0.9999998
0.9999998
0.9999996
0.9999989
0.9999988
0.9999995
0.9999999
1
1
1
1
1
1
0.9999999
0.9999999
1
1
1
1
1
1
1
1
1
1
1
1
1
1
1
1
1
1
1
1
1
1
1
1
1
1
1
1
1
0.9999998
0.9999962
0.9999896
0.999995
0.9999992
1
0.9999999
0.9999989
0.9999815
0.9999108
0.9999339
0.9999831
0.9999988
1
1
1
1
1
1
1
0.9999997
0.9999982
0.9999959
0.999997
0.9999975
0.9999937
0.9999691
0.9999083
0.9999109
0.9999639
0.9999952
0.999997
0.9999962
0.9999921
0.9999808
0.9999771
0.9999887
0.9999983
0.9999999
1
1
1
1
1
1
1
1
1
0.9999998
0.9999991
0.9999989
0.9999985
0.9999911
0.9999851
0.9999851
0.9999864
0.9999934
0.9999986
0.9999996
0.9999991
0.9999949
0.9999797
0.999975
0.9999828
0.9999665
0.9999088
0.9999084
0.9999164
0.9999624
0.9999705
0.9999482
0.9997621
0.998368
0.9974739
0.9985487
0.9997017
0.9999843
0.9999997
1
1
1
1
1
1
1
1
1
1
1
1
1
1
1
1
1
1
1
1
1
1
1
1
1
1
1
1
1
1
1
1
1
1
1
1
1
1
1
1
1
1
1
1
1
1
1
1
1
1
1
1
1
1
1
1
1
1
1
1
1
1
1
1
1
1
1
1
1
1
1
1
1
1
1
1
1
1
1
1
1
1
1
1
1
1
1
1
1
1
1
1
1
1
1
1
1
1
1
1
1
1
1
1
1
1
1
1
1
1
1
1
1
0.9999999
0.9999999
0.9999999
1
0.9999999
0.9999995
0.9999974
0.9999913
0.9999834
0.9999815
0.9999828
0.9999887
0.9999938
0.999993
0.9999823
0.9999338
0.9998146
0.9996895
0.9996641
0.9996967
0.9998274
0.9999237
0.9999176
0.9998073
0.9993851
0.998525
0.997937
0.99798
0.9985943
0.9994762
0.999622
0.9994101
0.9983908
0.9959742
0.9943005
0.9945053
0.9962966
0.9987083
0.9992645
0.9989367
0.9969694
0.9908958
0.9843123
0.9842055
0.9887976
0.9960371
0.99845
0.9980743
0.9943388
0.9799685
0.9609284
0.9599905
0.9720118
0.9904002
0.9968636
0.9967354
0.9919156
0.969168
0.9275187
0.9158519
0.9332562
0.9731695
0.9935004
0.9943769
0.9901492
0.9699759
0.920416
0.8763717
0.878068
0.9219572
0.9791335
0.9927084
0.9908538
0.9820243
0.9552954
0.8961217
0.8601414
0.8668386
0.9152291
0.9769281
0.9922561
0.9906892
0.9847921
0.9663454
0.9183015
0.8726737
0.8727601
0.9059638
0.9676177
0.9928162
0.9928048
0.9897335
0.9795575
0.9502163
0.9055288
0.8955208
0.9103453
0.9577773
0.9919238
0.9952945
0.993915
0.9892521
0.976484
0.9513552
0.9329768
0.9341717
0.9556228
0.9879295
0.9974461
0.9969816
0.9950485
0.9900884
0.9786398
0.9613548
0.9549804
0.9636057
0.9882708
0.9986935
0.9988814
0.9980448
0.9954867
0.9872591
0.9679639
0.9619251
0.9779507
0.9960719
0.9994783
0.9993301
0.9985363
0.9955656
0.9854612
0.9692723
0.9713356
0.989954
0.9990409
0.9997366
0.9996437
0.9991945
0.9972308
0.9910254
0.9865629
0.9904478
0.9977592
0.9998348
0.9998963
0.9998483
0.9995705
0.9984996
0.9965643
0.9963186
0.9979062
0.9996522
0.9999299
0.9999043
0.99973
0.9989167
0.9974436
0.9978214
0.999299
0.9998602
0.9998596
0.9997075
0.9988159
0.9975784
0.9982843
0.9995209
0.9998027
0.9996975
0.9992291
0.9985645
0.9973452
0.9920361
0.9900807
0.9918583
0.994371
0.9941997
0.9905111
0.9896558
0.993615
0.9982493
0.9998197
0.9999881
0.9999902
0.9999843
0.9999294
0.9997995
0.9998535
0.99996
0.9999968
0.9999996
0.9999996
0.9999991
0.9999956
0.9999815
0.9999787
0.9999913
0.9999991
0.9999997
0.9999994
0.9999966
0.9999921
0.9999946
0.9999986
0.9999996
0.9999994
0.9999983
0.9999945
0.9999906
0.9999923
0.9999976
0.9999998
1
1
1
1
0.9999999
0.9999999
0.9999999
0.9999999
1
1
1
1
1
1
1
1
0.9999999
1
1
1
1
1
1
1
1
1
1
1
1
1
1
1
1
1
1
1
1
1
1
0.9999996
0.999999
0.9999993
0.9999998
1
1
1
0.9999998
0.9999989
0.9999932
0.9999739
0.9999598
0.999965
0.9999864
0.9999978
0.9999989
0.9999991
0.9999995
0.9999996
0.9999987
0.9999926
0.9999778
0.9999702
0.9999729
0.9999828
0.9999794
0.9998214
0.9976338
0.9891015
0.9899195
0.9957255
0.9993184
0.9999687
0.9999972
0.9999878
0.9999748
0.9999782
0.9999924
0.9999992
1
1
1
1
0.9999997
0.9999986
0.9999985
0.9999994
0.9999999
1
1
1
1
1
1
1
1
1
1
1
1
1
1
1
1
1
1
1
1
1
1
1
1
1
1
1
1
1
1
0.9999988
0.9999871
0.9999871
0.9999958
0.9999996
1
0.9999996
0.9999919
0.9999147
0.9998312
0.999912
0.9999848
0.9999994
1
1
1
1
0.9999999
0.9999993
0.9999946
0.9999697
0.9999082
0.999901
0.9999529
0.9999933
0.9999979
0.9999979
0.9999979
0.9999939
0.9999814
0.9999424
0.9998008
0.9994169
0.9992912
0.9996375
0.9999444
0.9999981
1
1
1
1
1
1
1
1
1
0.9999999
0.9999989
0.9999906
0.9999683
0.9999691
0.9999874
0.9999982
0.9999988
0.9999935
0.9999761
0.9999771
0.9999907
0.9999968
0.9999912
0.9999396
0.9996895
0.9996535
0.9998161
0.9999735
0.9999863
0.9999813
0.9999446
0.999812
0.9994933
0.9972847
0.9951831
0.9951831
0.9971837
0.9994635
0.9999668
0.9999984
0.9999994
1
1
1
1
1
1
1
1
1
1
1
1
1
1
1
1
1
1
1
1
1
1
1
1
1
1
1
1
1
1
1
1
1
1
1
1
1
1
1
1
1
1
1
1
1
1
1
1
1
1
1
1
1
1
1
1
1
1
1
1
1
1
1
1
1
1
1
1
1
1
1
1
1
1
1
1
1
1
1
1
1
1
1
1
1
1
1
1
1
1
1
1
1
1
1
1
1
1
1
1
1
1
1
1
1
1
1
1
1
1
1
1
1
1
1
1
1
1
1
1
1
1
0.9999999
0.9999988
0.999991
0.9999615
0.9999184
0.999911
0.9999204
0.9999477
0.9999616
0.9999395
0.9997088
0.998567
0.9959664
0.9948053
0.9952735
0.997189
0.9990129
0.9992789
0.9989657
0.9962752
0.9843321
0.9646916
0.9623026
0.9716708
0.9885875
0.9960399
0.9964561
0.9937333
0.9730315
0.9134235
0.8810546
0.8970679
0.9527662
0.9903085
0.9934324
0.9873693
0.9499211
0.8441556
0.7801942
0.805343
0.9056705
0.981996
0.9888277
0.9800857
0.942083
0.7871281
0.6093667
0.6388728
0.8084027
0.952888
0.9658174
0.9573364
0.9260892
0.6884145
0.3572785
0.4175839
0.7183709
0.9015334
0.9083263
0.9135603
0.8992682
0.6191959
0.1681087
0.1546042
0.4326844
0.7888548
0.8695383
0.8899379
0.8693993
0.55549
0.123574
0.0379272
0.0713936
0.394935
0.8140651
0.8902103
0.8762122
0.6259145
0.1825455
0.04461039
0.03244724
0.04946737
0.317631
0.8042573
0.9111466
0.8618557
0.491308
0.1338635
0.06414382
0.04569639
0.04918969
0.23824
0.7514283
0.9220125
0.8948176
0.5866878
0.1840599
0.09117172
0.06521012
0.06168107
0.2003017
0.703149
0.9354316
0.9433395
0.8390451
0.3934337
0.1276623
0.08512587
0.08334558
0.234625
0.7233358
0.9462166
0.970591
0.9634353
0.803219
0.3029246
0.1059066
0.1310052
0.4642277
0.8776535
0.9789984
0.9886352
0.9869894
0.9280795
0.4716801
0.2021835
0.4163674
0.8380973
0.9682783
0.9810626
0.9873193
0.9801748
0.8254336
0.3365181
0.3346024
0.6877627
0.9511831
0.9916381
0.992216
0.9902661
0.9646399
0.8178503
0.7173219
0.7795546
0.9152357
0.9867912
0.9957531
0.9954546
0.992859
0.9838919
0.9679545
0.9586759
0.9610021
0.9811012
0.9973662
0.9984536
0.9977804
0.9940043
0.9801929
0.9729675
0.9864624
0.9976073
0.9982745
0.9971483
0.9894454
0.9739652
0.9797034
0.9936426
0.9978797
0.9976973
0.9960911
0.9923411
0.9880728
0.9747659
0.9456633
0.9420297
0.9454614
0.9387082
0.9249825
0.9315523
0.957363
0.9796835
0.9847082
0.9908687
0.9968925
0.9987257
0.9984221
0.9977889
0.9986513
0.9996634
0.9999627
0.9999955
0.9999978
0.9999977
0.9999946
0.9999681
0.9998783
0.9998936
0.9999696
0.9999973
0.9999978
0.9999908
0.9999615
0.9999602
0.9999845
0.9999965
0.9999964
0.9999941
0.9999843
0.9999563
0.9999361
0.999951
0.9999862
0.9999989
0.9999999
0.9999999
0.9999998
0.9999996
0.9999995
0.9999994
0.9999994
0.9999994
0.9999995
0.9999998
0.9999999
0.9999999
0.9999998
0.9999993
0.9999972
0.9999969
0.9999986
0.9999998
1
1
1
1
1
1
1
1
1
1
1
1
1
0.9999999
0.9999996
0.9999995
0.9999996
0.9999998
0.9999999
0.9999999
0.9999998
0.9999992
0.999998
0.9999988
0.9999998
1
1
0.9999998
0.9999981
0.9999855
0.9999085
0.9996434
0.9994749
0.9997046
0.9999407
0.9999948
0.9999964
0.9999815
0.9999783
0.9999836
0.9999923
0.9999924
0.9999588
0.9996661
0.9992168
0.9991617
0.9992068
0.9992073
0.9984284
0.9908714
0.9825233
0.9825233
0.9825233
0.986896
0.99709
0.9998618
0.999995
0.999996
0.9999959
0.9999973
0.9999985
0.9999985
0.9999971
0.9999921
0.999992
0.9999963
0.9999993
0.9999999
0.9999999
1
1
1
1
1
1
1
1
1
1
1
1
1
1
1
1
1
1
0.9999999
0.9999999
0.9999999
1
1
1
1
1
1
1
1
1
0.9999996
0.9999921
0.9999737
0.9999864
0.9999974
0.9999999
0.9999998
0.9999965
0.9999393
0.9996509
0.9996955
0.999906
0.9999918
0.9999999
1
1
0.9999999
0.9999989
0.999992
0.9999434
0.9996888
0.9991747
0.9993241
0.9997987
0.9999825
0.9999978
0.9999979
0.9999978
0.9999947
0.9999152
0.9992115
0.9954911
0.9908278
0.9932193
0.9982207
0.9998801
0.9999986
1
1
1
1
1
1
1
1
1
0.9999997
0.999996
0.9999606
0.999907
0.9999472
0.9999898
0.9999988
0.9999988
0.9999988
0.9999945
0.9999939
0.9999968
0.9999969
0.9999906
0.9998887
0.9990789
0.9990602
0.9996673
0.9999549
0.9999568
0.9998841
0.9995234
0.9975439
0.989513
0.9878811
0.990971
0.9979097
0.9993304
0.9991412
0.9985404
0.9989081
0.9996844
0.9999692
1
1
1
1
1
1
1
1
1
1
1
1
1
1
1
1
1
1
1
1
1
1
1
1
1
1
1
1
1
1
1
1
1
1
1
1
1
1
1
1
1
1
1
1
1
1
1
1
1
1
1
1
1
1
1
1
1
1
1
1
1
1
1
1
1
1
1
1
1
1
1
1
1
1
1
1
1
1
1
1
1
1
1
1
1
1
1
1
1
1
1
1
1
1
1
1
1
1
1
1
1
1
1
1
1
1
1
1
1
1
1
1
1
1
1
1
1
1
1
1
1
1
1
1
1
1
1
0.9999997
0.9999986
0.999997
0.9999962
0.999996
0.9999954
0.9999928
0.9999809
0.999886
0.9991236
0.9953735
0.9882131
0.9867229
0.9885393
0.992566
0.9950925
0.9954733
0.991924
0.9611294
0.8678695
0.8198186
0.839713
0.9102547
0.9682249
0.9747897
0.9684652
0.9387191
0.7873065
0.4786775
0.4619825
0.6393261
0.8671188
0.9016287
0.8990533
0.893349
0.7252933
0.2391508
0.1036387
0.234135
0.6575134
0.8582174
0.873573
0.8246506
0.4408165
0.07887127
0.02663508
0.05358937
0.3511482
0.8005826
0.8438322
0.6399637
0.1937655
0.02153351
0.008796878
0.01423152
0.1232673
0.5677719
0.6074517
0.3276631
0.0620339
0.006983092
0.005765617
0.01179253
0.07678022
0.2714354
0.2836496
0.170587
0.0432886
0.007734803
0.006801529
0.01145487
0.0339491
0.07506477
0.08423857
0.07376246
0.04262866
0.01348701
0.006565428
0.008497315
0.01678603
0.02516359
0.02820552
0.0282089
0.02619596
0.01847924
0.008811559
0.007869828
0.01299217
0.0148224
0.0133236
0.01299562
0.01356234
0.01421319
0.01427702
0.01248215
0.01166916
0.01138686
0.01019976
0.008387778
0.008295425
0.009407678
0.01358807
0.01852309
0.01792722
0.01462953
0.009224745
0.006407311
0.006199638
0.006622431
0.009561217
0.01995668
0.03292873
0.03060177
0.01889974
0.007927233
0.006384358
0.006507299
0.00737195
0.01252141
0.03162288
0.06425106
0.06555017
0.03831086
0.01208688
0.01071698
0.01292891
0.01861476
0.04845162
0.1286716
0.161307
0.1249668
0.04548919
0.02777303
0.03648057
0.07304748
0.1640588
0.2031108
0.1836442
0.125695
0.06244862
0.03803903
0.04473587
0.06847597
0.1153242
0.2364166
0.3594414
0.3559394
0.2667474
0.1398174
0.08925142
0.0839657
0.1060771
0.4114026
0.8440735
0.8800546
0.7004505
0.2667107
0.1460175
0.3157694
0.7838078
0.976597
0.9904279
0.936687
0.4865214
0.4103766
0.6976169
0.9479694
0.9916615
0.9877828
0.8124504
0.5380064
0.6748784
0.9220833
0.9835117
0.9777885
0.9155585
0.911123
0.9495738
0.9732561
0.9066661
0.6706321
0.7312653
0.936696
0.9312743
0.7174607
0.4367231
0.6212001
0.9432002
0.941303
0.5836747
0.3269626
0.5218302
0.8617753
0.9834327
0.99703
0.9987034
0.9996066
0.9999269
0.9999432
0.9999388
0.9999142
0.9997425
0.9994137
0.9996262
0.9999198
0.9999859
0.9999781
0.9998884
0.9998303
0.9998899
0.999976
0.9999854
0.9999583
0.9998148
0.9994707
0.9992605
0.9993335
0.9996369
0.9999129
0.9999912
0.9999977
0.9999975
0.9999969
0.999996
0.9999936
0.999983
0.9999424
0.9999337
0.9999702
0.9999959
0.9999978
0.9999956
0.9999776
0.9999247
0.9999342
0.9999788
0.9999977
0.9999999
1
1
1
1
1
0.9999999
0.9999998
0.9999999
1
1
1
0.9999999
0.9999996
0.9999984
0.9999956
0.999996
0.9999986
0.9999992
0.9999984
0.999998
0.9999986
0.9999983
0.999997
0.9999974
0.9999986
0.9999996
1
0.9999999
0.9999989
0.9999751
0.9996955
0.9980789
0.9976166
0.9989474
0.999851
0.9999897
0.9999914
0.9999886
0.9999885
0.9999868
0.9999098
0.9997142
0.9996834
0.9996562
0.9993351
0.9956937
0.9760197
0.9717731
0.9717731
0.9717731
0.971803
0.9879018
0.9965823
0.9965627
0.9968409
0.9985953
0.9998344
0.9999935
0.999994
0.9999897
0.9999559
0.9998671
0.999865
0.9999337
0.9999872
0.9999981
0.9999994
0.9999998
0.9999999
0.9999999
0.9999999
0.9999999
0.9999999
0.9999995
0.9999972
0.9999842
0.999917
0.9998621
0.9999038
0.9999764
0.9999986
1
1
0.9999999
0.9999998
0.9999992
0.999997
0.9999965
0.9999983
0.9999998
1
1
1
1
1
1
1
1
1
0.9999998
0.9999957
0.9999636
0.9999661
0.9999894
0.999999
0.9999999
0.9999995
0.9999853
0.9996978
0.9994115
0.9995673
0.9998952
0.9999941
0.9999999
1
0.9999996
0.9999945
0.9999464
0.9995741
0.9977403
0.9954664
0.9971686
0.9993878
0.9999638
0.9999978
0.9999978
0.9999978
0.9999978
0.9999883
0.999737
0.9935439
0.96378
0.970896
0.9904675
0.9989167
0.9999678
0.9999996
0.9999998
0.9999999
1
1
1
1
1
1
0.9999998
0.999995
0.9999402
0.999799
0.9998478
0.9999597
0.9999971
0.9999988
0.9999987
0.9999976
0.9999964
0.9999965
0.9999971
0.9999948
0.9999145
0.9991321
0.9987791
0.9990722
0.9997971
0.9999021
0.9994702
0.9949745
0.9710168
0.9699971
0.988574
0.9985796
0.9989263
0.997815
0.99395
0.9934816
0.9955808
0.9990599
0.999931
0.999957
1
1
1
1
1
1
1
1
1
1
1
1
1
1
1
1
1
1
1
1
1
1
1
1
1
1
1
1
1
1
1
1
1
1
1
1
1
1
1
1
1
1
1
1
1
1
1
1
1
1
1
1
1
1
1
1
1
1
1
1
1
1
1
1
1
1
1
1
1
1
1
1
1
1
1
1
1
1
1
1
1
1
1
1
1
1
1
1
1
1
1
1
1
1
1
1
1
1
1
1
1
1
1
1
1
1
1
1
1
1
1
1
1
1
1
1
1
1
1
1
1
1
1
1
1
1
1
1
1
1
1
1
1
1
1
1
1
1
0.9999997
0.9999952
0.9999442
0.9996055
0.9988136
0.9984876
0.9985009
0.998475
0.9981065
0.9969352
0.9937369
0.9759102
0.8942808
0.754135
0.731671
0.7738341
0.8522498
0.8740916
0.8731681
0.8540575
0.6433928
0.2168401
0.1118902
0.1593544
0.3997878
0.6791941
0.7093873
0.5865728
0.2437629
0.04334442
0.01377563
0.0152628
0.04993074
0.2538137
0.3422558
0.2392386
0.07651156
0.0121864
0.006854488
0.008880347
0.02200547
0.05625928
0.07451565
0.06969306
0.04715223
0.01720439
0.006343713
0.007794264
0.01420878
0.01967392
0.021431
0.02124114
0.01897535
0.01257983
0.007591181
0.007860657
0.007787459
0.006342918
0.005461814
0.005811204
0.009032961
0.01368995
0.009398967
0.002334446
0.001251309
0.001345059
0.001527911
0.002436655
0.00574699
0.007968873
0.005343157
0.001303056
0.0004460283
0.0004539501
0.0005615944
0.001143239
0.00300956
0.004623645
0.003969586
0.001605962
0.0003739166
0.0002566271
0.0002762226
0.0004650428
0.001353316
0.003247968
0.003601356
0.00245878
0.0009377855
0.0004212898
0.0002484549
0.0002699037
0.0006209693
0.002207782
0.003691995
0.003233002
0.001810944
0.0007956071
0.0004371837
0.0003032105
0.0003219247
0.0007363284
0.002351083
0.003212085
0.002778267
0.001712236
0.0007996053
0.0003867879
0.0003111543
0.0003660356
0.0008989721
0.002303028
0.002779939
0.002567088
0.001866371
0.0009150687
0.0003961998
0.000367766
0.0005756814
0.001583543
0.00277324
0.002891065
0.002806889
0.002350725
0.001650706
0.002970952
0.004601083
0.004846394
0.02007265
0.0451645
0.08299451
0.08467502
0.05028943
0.04830179
0.1587869
0.2023166
0.2028671
0.1705684
0.1561764
0.2402381
0.2104735
0.1285713
0.04534462
0.01579352
0.01579617
0.01768294
0.03008468
0.05163965
0.05426488
0.05313037
0.05313037
0.1439761
0.1751975
0.08739026
0.07746026
0.09451968
0.0952173
0.06353356
0.04052276
0.0638307
0.2196497
0.174144
0.1558791
0.4089604
0.7538472
0.4387399
0.1401904
0.2181214
0.3087668
0.2718791
0.2939961
0.5602384
0.7449215
0.7449215
0.6201544
0.5070234
0.6990048
0.9096184
0.7757195
0.2246287
0.1390594
0.3324736
0.7924083
0.9246426
0.9452592
0.8758898
0.3537094
0.2283189
0.4713714
0.8802416
0.9208414
0.692043
0.1607732
0.06570852
0.1279793
0.4513637
0.8673169
0.98811
0.9990359
0.9992038
0.9991047
0.9981173
0.9945127
0.9951653
0.9985652
0.999834
0.9998821
0.9996455
0.999196
0.9994156
0.9998331
0.999981
0.9999839
0.9999439
0.9992153
0.9952346
0.9943864
0.9952222
0.9972228
0.9987291
0.9995105
0.9998455
0.9999422
0.9999472
0.9999215
0.9996451
0.99846
0.9984654
0.999447
0.9999295
0.9999663
0.9999524
0.9997633
0.9992134
0.9993966
0.9998039
0.9999747
0.999998
0.9999999
1
1
1
1
0.9999998
0.9999994
0.9999994
0.9999998
1
1
0.9999999
0.9999996
0.9999971
0.9999855
0.9999806
0.999985
0.999996
0.9999976
0.999995
0.9999901
0.9999903
0.9999956
0.9999973
0.9999953
0.9999903
0.9999913
0.9999954
0.9999989
0.9999994
0.999997
0.9999276
0.9981902
0.9949541
0.9969661
0.999384
0.9999277
0.9999248
0.9998568
0.9998075
0.9998335
0.9999333
0.9999245
0.9995057