/*--------------------------------*- C++ -*----------------------------------*\
| =========                 |                                                 |
| \\      /  F ield         | foam-extend: Open Source CFD                    |
|  \\    /   O peration     | Version:     3.1                                |
|   \\  /    A nd           | Web:         http://www.extend-project.de       |
|    \\/     M anipulation  |                                                 |
\*---------------------------------------------------------------------------*/
FoamFile
{
    version     2.0;
    format      ascii;
    class       volScalarField;
    location    "19";
    object      k;
}
// * * * * * * * * * * * * * * * * * * * * * * * * * * * * * * * * * * * * * //

dimensions      [0 2 -2 0 0 0 0];

internalField   nonuniform List<scalar> 
119952
(
0.08424813
0.08061959
0.07988986
0.07825207
0.07647151
0.07510184
0.07467691
0.0747274
0.07503049
0.07546884
0.07597848
0.0765172
0.07705734
0.07758255
0.07808575
0.07857119
0.07904392
0.07951758
0.08006898
0.08103859
0.0836045
0.0815295
0.08172775
0.08387629
0.08085698
0.0793528
0.07809838
0.07694312
0.07452442
0.02760484
0.1009576
0.09834688
0.09601233
0.09462791
0.09414129
0.09435332
0.09499558
0.09587534
0.09684918
0.09787269
0.09312518
0.09318862
0.09568645
0.09920354
0.1029262
0.1064357
0.1095888
0.112366
0.1147561
0.1256891
0.1269073
0.127691
0.1280348
0.1281439
0.1282047
0.1282995
0.1284654
0.1287053
0.1289097
0.1295721
0.1299807
0.1301602
0.1302287
0.1302329
0.1301973
0.1301247
0.129954
0.1298929
0.1322551
0.1322191
0.1313071
0.1311317
0.1310987
0.130794
0.13009
0.1291927
0.1282595
0.1273409
0.1264362
0.1255453
0.124673
0.1238268
0.1230137
0.1222375
0.1214935
0.1207632
0.1200088
0.1192137
0.1186002
0.1181173
0.1172898
0.1169285
0.1175353
0.117768
0.1177976
0.1181743
0.1187136
0.1167175
0.1146934
0.1131538
0.1117736
0.1106179
0.1096069
0.1087194
0.1079457
0.1072614
0.1066412
0.1060655
0.1055214
0.1050022
0.1045051
0.1040296
0.1035752
0.1031402
0.1027212
0.1023132
0.1019112
0.1015112
0.1011124
0.1007169
0.1003291
0.09995407
0.09959468
0.09924962
0.09891348
0.09858062
0.09824812
0.09791545
0.09758392
0.09725614
0.09693457
0.09661976
0.09630908
0.09599717
0.09567864
0.09535114
0.09501698
0.09468215
0.09435307
0.09403329
0.09372196
0.09341471
0.09310578
0.09279021
0.0924644
0.09211889
0.0917696
0.09149587
0.09133091
0.09121338
0.09113176
0.09104881
0.09095404
0.09084411
0.09071454
0.09056344
0.0903905
0.09019648
0.08998369
0.08975544
0.08951541
0.08926684
0.0890129
0.08875635
0.08850141
0.08825605
0.08803371
0.08784129
0.0876705
0.08752576
0.08740598
0.08730449
0.08721626
0.08712786
0.08703619
0.08693413
0.08680968
0.0866592
0.08648342
0.08628918
0.0860897
0.08590323
0.08574991
0.08564946
0.08561761
0.08566338
0.08578338
0.08595698
0.08614117
0.08627547
0.08629011
0.08612821
0.08575504
0.08517087
0.08439855
0.08347308
0.08246585
0.08147844
0.07931713
0.07702236
0.07482997
0.07298014
0.07131222
0.06980306
0.06838831
0.06710922
0.06599706
0.06505501
0.06422792
0.06364776
0.06339038
0.06340803
0.06352232
0.0634728
0.06304957
0.0622294
0.06114989
0.05997109
0.05878975
0.05762993
0.05643924
0.05524197
0.05402223
0.052814
0.05160948
0.05046214
0.04942476
0.04851143
0.04772002
0.04705334
0.04652465
0.04614672
0.04587842
0.04606207
0.04639768
0.04661786
0.04677877
0.04689251
0.04696985
0.04702579
0.04706803
0.0471036
0.047137
0.04717213
0.04721196
0.04725904
0.04731539
0.04738256
0.04746169
0.04755339
0.04765764
0.04777377
0.04790042
0.04803543
0.048176
0.04831878
0.04846012
0.04859644
0.0487242
0.04884046
0.0489432
0.04903141
0.04910529
0.04916657
0.04921919
0.04927312
0.04935265
0.05084929
0.05113509
0.05133222
0.05138398
0.05142964
0.05150666
0.0516607
0.05190249
0.05222209
0.05258776
0.05296106
0.0533086
0.05361524
0.05388355
0.05410634
0.05428499
0.05441807
0.05453713
0.05464794
0.05487439
0.05542951
0.05621069
0.05706578
0.05783609
0.05841775
0.05875909
0.05885983
0.05873427
0.05837203
0.05774772
0.05687054
0.05578916
0.05455201
0.05318298
0.05170551
0.05021065
0.04882582
0.04765799
0.04678882
0.04625446
0.04605314
0.04616542
0.04656619
0.04722814
0.04812276
0.04919617
0.05039204
0.0517124
0.05313859
0.0546589
0.0562519
0.05789487
0.05956792
0.06132632
0.06314547
0.06470532
0.06617785
0.06752034
0.06869153
0.06964498
0.07033187
0.07071078
0.07075689
0.0704665
0.06985561
0.06895486
0.06780359
0.06644553
0.06492574
0.06328971
0.06158412
0.05985501
0.05814316
0.05648058
0.05488933
0.05338231
0.0519651
0.05063796
0.0493975
0.04823813
0.04715328
0.04613588
0.04517842
0.04427332
0.04341375
0.04259421
0.04181076
0.04106097
0.04034355
0.03965747
0.03900293
0.03838065
0.03779067
0.03723202
0.03670293
0.03620388
0.0357332
0.03528949
0.03487201
0.03447896
0.03410974
0.03376566
0.0334476
0.03315572
0.03288971
0.03264877
0.03243164
0.03223666
0.03206185
0.03190493
0.03176351
0.03163506
0.03151718
0.03140759
0.03130435
0.03120577
0.03111063
0.0310179
0.03092711
0.03083788
0.03075047
0.03066532
0.03058393
0.03050837
0.03044042
0.03037883
0.03032613
0.03028885
0.03027389
0.03028711
0.03033797
0.03041694
0.03047978
0.03060504
0.03089252
0.03133921
0.03188454
0.03245788
0.03395159
0.09853281
0.09357926
0.09937503
0.1072296
0.1143291
0.1201563
0.1248501
0.1286574
0.1319213
0.1346849
0.1438268
0.1544899
0.1643927
0.1728877
0.1798167
0.185308
0.1896015
0.1929349
0.2181607
0.2181958
0.2180316
0.2174528
0.2167356
0.2160387
0.2154345
0.2149163
0.2144456
0.2138582
0.2134565
0.2128813
0.2119035
0.2107329
0.2095061
0.2082937
0.2071131
0.2059664
0.2048227
0.2038815
0.2030093
0.2018385
0.2005322
0.199214
0.1979114
0.1966345
0.1953863
0.1941636
0.1929796
0.1918885
0.1907831
0.1897202
0.1887027
0.1876992
0.1866945
0.1856832
0.18467
0.1836876
0.1925893
0.1914334
0.1903116
0.1892484
0.1882158
0.1871875
0.1861556
0.1851209
0.184101
0.1830845
0.1820719
0.1810978
0.1801487
0.179197
0.1782343
0.1772606
0.1763029
0.1754516
0.1748667
0.1743478
0.1734503
0.1725178
0.1717581
0.1709629
0.1699894
0.1688864
0.1677471
0.166606
0.1654582
0.1642855
0.1630829
0.1618576
0.16062
0.1593824
0.1581584
0.1569587
0.1557829
0.1546352
0.1535288
0.1524855
0.1514472
0.1504907
0.1498296
0.149381
0.1488835
0.1483417
0.1477319
0.146754
0.1453247
0.1439988
0.1428554
0.1417584
0.1406909
0.1396651
0.1386852
0.1377501
0.136851
0.1359752
0.1351103
0.134248
0.1333852
0.1325258
0.1316788
0.1308549
0.1300612
0.1292985
0.1285607
0.1278377
0.1271205
0.1264051
0.1256946
0.1249987
0.1243298
0.1236955
0.1230939
0.1225166
0.1219535
0.1213964
0.12084
0.1202849
0.1197371
0.1192033
0.1186853
0.1181776
0.1176695
0.1171492
0.1166101
0.1160538
0.1154895
0.114929
0.1143809
0.1138463
0.1133197
0.1127913
0.1122518
0.1116975
0.1111365
0.1105892
0.1100727
0.1095737
0.1090785
0.1085951
0.1081283
0.1076775
0.107241
0.1068168
0.1064019
0.1059921
0.1055836
0.105173
0.104758
0.1043377
0.1039116
0.1034808
0.1030504
0.102631
0.1022358
0.1018784
0.1015758
0.1013455
0.1011997
0.1011284
0.1011158
0.1011423
0.1011953
0.1012532
0.1012866
0.1012653
0.1011651
0.1009705
0.1006779
0.1002962
0.09983889
0.09932573
0.09876876
0.09818607
0.09758505
0.09698569
0.09639502
0.09583593
0.09530655
0.09482419
0.09436819
0.09395323
0.0935436
0.09316383
0.09278
0.09243701
0.09198835
0.09128412
0.09062515
0.08997239
0.08935947
0.08879541
0.08827086
0.08776415
0.0872538
0.08672044
0.08615471
0.0855697
0.08501364
0.08457433
0.08435444
0.08442942
0.08482077
0.0854962
0.08637201
0.08731432
0.08819191
0.08892206
0.08942827
0.08964726
0.0895356
0.08908317
0.08831605
0.08727313
0.08604476
0.08472363
0.08337559
0.08203828
0.08072071
0.07946029
0.07827061
0.07715566
0.0761833
0.07536131
0.0746318
0.07397238
0.07336987
0.07281296
0.07229311
0.07180361
0.07133963
0.07089795
0.07047677
0.07007559
0.06969493
0.06933612
0.06900097
0.0686915
0.0684095
0.06815611
0.06793125
0.06773317
0.06755823
0.06740084
0.06725369
0.06710811
0.06695477
0.0667842
0.06658767
0.06635747
0.0660876
0.0657737
0.06541362
0.0650073
0.06455559
0.06405931
0.06592912
0.06533724
0.06478651
0.06423341
0.06366313
0.06307189
0.0624606
0.06184748
0.06125234
0.06068442
0.0601489
0.05965489
0.05921151
0.058817
0.05846326
0.05814761
0.05786095
0.05758848
0.05731519
0.05706513
0.05689897
0.05687414
0.05703247
0.05738252
0.05789675
0.05853507
0.05929392
0.06017372
0.06117734
0.06231465
0.0636019
0.06504364
0.06660217
0.06817892
0.06963172
0.07083049
0.07170797
0.07227059
0.07257758
0.07270353
0.07274273
0.07288691
0.07327681
0.07397995
0.07500284
0.07631112
0.07785829
0.07958798
0.08143275
0.08332395
0.08520012
0.08701596
0.08874796
0.09039073
0.09193843
0.09341894
0.09479388
0.09600815
0.09700994
0.09774922
0.09817998
0.09826436
0.09797779
0.09731291
0.09628069
0.09490806
0.09323361
0.09130287
0.08916447
0.08687015
0.08447471
0.08203124
0.07958683
0.07717991
0.07483969
0.07258664
0.07043357
0.06838696
0.06644807
0.06461405
0.06287887
0.06123415
0.05967015
0.05817667
0.05674397
0.05536362
0.05402918
0.05273665
0.05148461
0.05027395
0.04910744
0.04798877
0.046922
0.045911
0.04495907
0.04406887
0.0432398
0.04246918
0.04175475
0.04109444
0.04048599
0.03992747
0.03941681
0.03895184
0.03853026
0.03814965
0.03780744
0.03750094
0.03722724
0.03698334
0.03676602
0.0365722
0.03639867
0.03624269
0.03610141
0.03597286
0.03585472
0.03574593
0.03564458
0.03555035
0.03546153
0.03537856
0.03529975
0.03522558
0.03515298
0.03508181
0.03501016
0.0349397
0.03486763
0.03478976
0.03469669
0.03457994
0.03444731
0.0343166
0.03419469
0.03409687
0.03404485
0.03410762
0.03427495
0.05845342
0.06301174
0.06832123
0.07412036
0.08044979
0.08743223
0.09528263
0.1043368
0.1151707
0.1278603
0.1869358
0.2039006
0.2207966
0.2377491
0.2541219
0.2695591
0.2838684
0.3010034
0.3294276
0.3929802
0.4042489
0.4135256
0.4211654
0.4277192
0.4329482
0.4370319
0.4399425
0.4416266
0.4426363
0.4432105
0.4441955
0.4445
0.4437014
0.4418019
0.4390092
0.435519
0.4314958
0.4274214
0.4208571
0.4148179
0.4091875
0.4038605
0.3987754
0.3938551
0.3890378
0.3842629
0.3795045
0.3747997
0.3699398
0.3650029
0.360007
0.3549835
0.3499943
0.3450886
0.3402816
0.3355557
0.3434979
0.3390195
0.3344604
0.3299229
0.3254653
0.3210986
0.3168344
0.3126713
0.3086151
0.3046453
0.3007106
0.2968372
0.2930639
0.2893866
0.2858152
0.2823611
0.2790168
0.2757719
0.272617
0.2695066
0.266431
0.2634476
0.2605709
0.2577951
0.2551149
0.252518
0.2499871
0.2475046
0.2450504
0.2426483
0.2403275
0.2380857
0.2359235
0.2338353
0.2318034
0.2298097
0.2278423
0.2258716
0.2238757
0.221967
0.2201631
0.2184459
0.2167813
0.2151403
0.2135112
0.2118998
0.2103238
0.2088005
0.2073505
0.2059758
0.2046512
0.2033456
0.2020435
0.2007486
0.1994942
0.1983281
0.1972907
0.1963548
0.1953994
0.1943824
0.1933582
0.1923032
0.1911724
0.1899631
0.188723
0.187497
0.1862974
0.1851056
0.1838902
0.1826218
0.1813035
0.1799637
0.1786302
0.1773291
0.176076
0.1748761
0.1737225
0.1726083
0.1715362
0.1705101
0.1695904
0.1687632
0.1679664
0.1671262
0.1662406
0.1652137
0.1640076
0.162738
0.1615084
0.1603162
0.1591637
0.1580553
0.1570024
0.1560089
0.1550659
0.154154
0.1532527
0.1523452
0.1514214
0.1504831
0.1495445
0.1486259
0.1477436
0.1469032
0.1460965
0.1453059
0.1445134
0.1437091
0.1428953
0.1420879
0.1413101
0.1405787
0.1398941
0.139243
0.138609
0.137978
0.1373398
0.1366943
0.1360518
0.1354263
0.1348256
0.1342443
0.1336658
0.1330692
0.1324399
0.1317768
0.1310933
0.1304096
0.1297421
0.1290963
0.1284653
0.1278348
0.1271893
0.1265205
0.1258342
0.125147
0.1244778
0.123832
0.1232076
0.1226042
0.1220198
0.1214514
0.1208969
0.1203546
0.1198218
0.119294
0.1187659
0.1182332
0.1176936
0.1171465
0.1165916
0.1160304
0.115469
0.1149194
0.114398
0.1139256
0.1135298
0.1132448
0.1130633
0.1129806
0.112978
0.1130227
0.1130705
0.1131047
0.1131104
0.1130454
0.1128707
0.1125594
0.112104
0.1115145
0.1108147
0.1100298
0.1091845
0.1082923
0.1073648
0.106404
0.1054207
0.1044194
0.1034191
0.1024257
0.101462
0.1005257
0.0996441
0.09880559
0.09804709
0.09736757
0.09693822
0.0964762
0.0960559
0.0957321
0.09553348
0.09545472
0.09547258
0.09555179
0.0956447
0.0956971
0.0956598
0.09550073
0.09521442
0.09482523
0.09438175
0.09394449
0.09357091
0.09330863
0.09319398
0.09324939
0.0934782
0.09386085
0.09435531
0.09489704
0.09540229
0.09577612
0.09595202
0.09589758
0.09560166
0.09506917
0.09433129
0.09343672
0.09242915
0.09133777
0.0902128
0.089109
0.08806977
0.08710941
0.0862222
0.08540522
0.08465379
0.08396123
0.08332073
0.08272573
0.08217065
0.08165118
0.08116455
0.08070962
0.08028678
0.07989786
0.07954577
0.07923415
0.07896669
0.07874637
0.0785743
0.07844915
0.07836633
0.07831807
0.07829328
0.0782786
0.078259
0.07821956
0.07814574
0.07802503
0.07784628
0.07760156
0.07728558
0.07689577
0.07643326
0.07590026
0.07532311
0.0747004
0.07401419
0.07326087
0.07245938
0.07162943
0.07078076
0.06991686
0.06904424
0.06816685
0.067291
0.06642529
0.06557849
0.06475613
0.06396216
0.0632005
0.06247101
0.06176839
0.06109149
0.06045247
0.05987313
0.05937927
0.05899657
0.05874433
0.05863197
0.05866108
0.05882937
0.05913488
0.05958424
0.06020439
0.06104959
0.06219012
0.06367239
0.06546725
0.06754706
0.06986739
0.07236182
0.07494794
0.07751971
0.07995851
0.08216919
0.08410944
0.08580519
0.08733434
0.08878971
0.09025734
0.0918397
0.09357169
0.0954318
0.09736254
0.09929107
0.1011467
0.1028708
0.1044187
0.1057548
0.1068948
0.107847
0.1086007
0.1091415
0.1094498
0.1095006
0.1092669
0.1087252
0.1078616
0.1066757
0.1051817
0.1034055
0.1013812
0.09914698
0.09674457
0.09422594
0.09164384
0.08904551
0.08647012
0.08394852
0.08150367
0.07915151
0.07690191
0.07475953
0.0727245
0.07079307
0.06895828
0.06721068
0.06553935
0.06393287
0.06238045
0.06087295
0.05940377
0.05796936
0.05656949
0.05520691
0.05388651
0.05261417
0.05139581
0.05023696
0.04914226
0.04811471
0.04715553
0.04626388
0.04543831
0.04467846
0.0439834
0.04335119
0.04277955
0.04226597
0.04180774
0.04140198
0.04104556
0.04073516
0.04046721
0.04023808
0.04004395
0.03988121
0.03974622
0.03963591
0.0395471
0.03947744
0.03942426
0.03938584
0.03935986
0.03934504
0.03933918
0.03934104
0.03934819
0.03935912
0.03937128
0.03938371
0.03939447
0.03940335
0.03940689
0.03940027
0.03937486
0.03932716
0.03926294
0.03918417
0.03909428
0.03899333
0.03888791
0.03876528
0.04384529
0.04953719
0.05460796
0.08356154
0.1130339
0.1495561
0.174201
0.1988952
0.2222301
0.243942
0.2628044
0.2790535
0.2948896
0.3110859
0.3274309
0.3439867
0.3607107
0.3775429
0.3940224
0.4098332
0.4250844
0.4396165
0.4536097
0.4672115
0.4803665
0.4930311
0.5051823
0.5168422
0.5280566
0.5387407
0.5490461
0.582536
0.5864515
0.589044
0.589932
0.58938
0.5876157
0.5847319
0.5807895
0.5759751
0.5705939
0.5646651
0.5583061
0.5516285
0.5447051
0.5375988
0.5303615
0.5230402
0.5156805
0.5083053
0.5009086
0.4935574
0.486237
0.4789661
0.4717704
0.4646602
0.4575733
0.450486
0.4434327
0.4364045
0.4293844
0.4223888
0.4154389
0.4085693
0.4018441
0.3952844
0.3889618
0.3827798
0.3763002
0.3700878
0.3641228
0.3583619
0.3528005
0.3474589
0.3423578
0.3374988
0.3328533
0.3283703
0.3239952
0.3197031
0.3154892
0.3113685
0.3073764
0.3035442
0.2998752
0.2963453
0.2929145
0.2895453
0.2862225
0.2829595
0.2797842
0.2767264
0.2738002
0.2709946
0.2682768
0.2656082
0.2629674
0.2603652
0.2578342
0.2554029
0.2530909
0.2508884
0.2487657
0.246673
0.2445909
0.2425071
0.2404623
0.2385077
0.2366712
0.2349388
0.2332704
0.2316192
0.2299562
0.2282828
0.2266292
0.2250407
0.2235539
0.2221728
0.2208688
0.2195932
0.2183084
0.2170068
0.2157151
0.2144815
0.213354
0.2123529
0.2114305
0.210498
0.2095095
0.2084471
0.2072954
0.2060681
0.2048248
0.2036319
0.2025098
0.2014247
0.2003179
0.1991408
0.1978765
0.1965476
0.1952076
0.1939062
0.1926787
0.1915381
0.1904702
0.1894398
0.1884271
0.1874208
0.1864206
0.185437
0.1844726
0.1835144
0.182571
0.1816107
0.1805716
0.1794324
0.1782501
0.1770646
0.1758911
0.1747484
0.1736664
0.1726642
0.1717391
0.170865
0.1700049
0.1691232
0.1681977
0.1672317
0.1662503
0.1652903
0.1643828
0.16354
0.1627491
0.161979
0.161197
0.160383
0.1595366
0.1586828
0.1578623
0.1571081
0.1564271
0.1558
0.1551964
0.1545863
0.1539506
0.1532931
0.1526351
0.1520026
0.1514096
0.1508495
0.1502968
0.1497174
0.1490826
0.1483856
0.1476466
0.1468997
0.1461749
0.1454838
0.1448137
0.1441411
0.1434396
0.1426916
0.1419003
0.1410885
0.140286
0.1395122
0.138771
0.1380571
0.137363
0.1366829
0.1360145
0.1353575
0.1347107
0.1340694
0.1334265
0.1327763
0.1321165
0.131447
0.1307676
0.13008
0.1293914
0.1287161
0.1280747
0.1274963
0.1270306
0.1266969
0.1265032
0.1264434
0.1264913
0.1265998
0.1267082
0.1267522
0.126726
0.1266043
0.1263316
0.1258677
0.1252022
0.1243548
0.1233666
0.1222823
0.1211413
0.1199656
0.1187652
0.117535
0.1162728
0.1149745
0.1136504
0.1123093
0.1109728
0.1096516
0.1083718
0.1071394
0.105984
0.1049168
0.1039848
0.1031988
0.1025735
0.1021261
0.101862
0.1017655
0.1018094
0.1019594
0.1021617
0.1023464
0.1024441
0.1023995
0.1021808
0.1017849
0.1012345
0.1005689
0.09983484
0.09908001
0.09835106
0.09768966
0.09712812
0.0966887
0.09637788
0.09618312
0.09607334
0.09600264
0.0959192
0.09577376
0.09552697
0.09515483
0.09465168
0.09402731
0.09330002
0.09249482
0.09163838
0.09076588
0.08991235
0.0890989
0.08833557
0.0876267
0.08697316
0.08637322
0.08582363
0.08532037
0.08485932
0.084437
0.08405115
0.08370107
0.08338791
0.08311456
0.08288547
0.0827062
0.08258278
0.08252049
0.08252253
0.08258861
0.0827142
0.08288976
0.08310122
0.08333028
0.0835568
0.0837596
0.08391947
0.08401806
0.08404131
0.0839766
0.08381848
0.08356216
0.08321259
0.08277038
0.0822446
0.08163954
0.08096798
0.08024352
0.07947533
0.07866748
0.07782032
0.07693303
0.07601043
0.07505585
0.07407315
0.0730693
0.0720532
0.07103174
0.07001044
0.06899667
0.067998
0.06701895
0.06606429
0.06514387
0.06427231
0.06346698
0.06274542
0.06212188
0.0616054
0.06120033
0.06090686
0.06072229
0.06064611
0.06068917
0.0608813
0.06127027
0.06191129
0.06285771
0.06416361
0.06588001
0.06803519
0.07058834
0.07350218
0.07674066
0.08022509
0.08383723
0.08742283
0.09083676
0.09398896
0.0968635
0.09949752
0.1019473
0.1042592
0.1064521
0.1085144
0.1104114
0.1120952
0.1135127
0.1146083
0.1153414
0.1157529
0.1158863
0.1157726
0.115441
0.1149088
0.1141821
0.113259
0.112134
0.1108029
0.1092668
0.1075334
0.1056149
0.1035245
0.1012711
0.09889569
0.09644588
0.09396409
0.09148599
0.08904065
0.08665094
0.08433416
0.08210263
0.07996412
0.07792217
0.07597617
0.07412157
0.07235045
0.07065231
0.06901521
0.067427
0.06587671
0.06435582
0.06285916
0.06138551
0.05993756
0.05852118
0.057144
0.0558141
0.05453934
0.05332663
0.05218101
0.05110517
0.0501
0.04916623
0.04830516
0.04751753
0.04680303
0.04616051
0.04558832
0.04508429
0.04464583
0.04426984
0.04395284
0.04369097
0.04348014
0.04331603
0.04319442
0.0431111
0.04306226
0.04304416
0.04305359
0.04308732
0.04314261
0.04321642
0.04330608
0.04340838
0.04352056
0.04363934
0.0437621
0.04388591
0.04400955
0.044132
0.04425351
0.04437179
0.04448368
0.0445836
0.0446661
0.0447269
0.04475722
0.04475353
0.04470654
0.04461397
0.04446703
0.02142814
0.02392343
0.02633484
0.03512009
0.04684517
0.06668216
0.08076476
0.09581622
0.1121168
0.1287551
0.146048
0.1651578
0.1857047
0.2068477
0.2290087
0.2540554
0.292526
0.3105473
0.3288411
0.3473981
0.3663894
0.3849758
0.4026357
0.4194947
0.4359379
0.4522435
0.4681604
0.4836078
0.4987768
0.5135978
0.5280054
0.5418835
0.5550896
0.5674038
0.5787395
0.5890238
0.5982251
0.6063925
0.6136501
0.6199572
0.6256646
0.627838
0.6247477
0.6216988
0.617721
0.6124399
0.6059575
0.5984481
0.5901116
0.5811516
0.5717735
0.5622066
0.5525743
0.5429635
0.5334626
0.5241544
0.5151025
0.5063531
0.4979321
0.4898469
0.4820907
0.4746221
0.4674163
0.4604409
0.4536697
0.4470903
0.4407039
0.4345126
0.4285184
0.4225887
0.4166243
0.4106435
0.4046538
0.3986799
0.3927661
0.3869796
0.3813748
0.3759963
0.3708071
0.3657209
0.3607422
0.3558665
0.3510709
0.3463724
0.3418287
0.3375027
0.3334255
0.3295748
0.3258866
0.3222802
0.3186902
0.315093
0.3115177
0.3080305
0.304696
0.3015381
0.29853
0.2956132
0.2927266
0.2898317
0.2869351
0.2840874
0.2813519
0.2787709
0.2763361
0.2739939
0.2716775
0.2693444
0.2669988
0.2646918
0.2624915
0.2604463
0.2585551
0.2567573
0.2549729
0.2531521
0.2512966
0.2494593
0.2477158
0.2461212
0.244676
0.2433182
0.2419655
0.240562
0.2391029
0.2376356
0.2362364
0.2349695
0.2338497
0.2328347
0.2318462
0.2308146
0.2297162
0.2285786
0.2274696
0.2264678
0.2256247
0.2249125
0.2242268
0.223461
0.2225575
0.2215119
0.2203728
0.2192369
0.2181954
0.2172724
0.2164205
0.2155498
0.2145709
0.2134486
0.2122156
0.2109471
0.2097235
0.2086112
0.2076342
0.2067643
0.2059288
0.2050692
0.2041471
0.2031524
0.2021153
0.2010841
0.2001043
0.1992078
0.1983751
0.1975309
0.1965939
0.1955573
0.1944434
0.1932905
0.1921537
0.191089
0.1901352
0.1892919
0.1885196
0.1877601
0.1869582
0.1860718
0.1851038
0.1840984
0.1831169
0.1822138
0.1814121
0.1806928
0.1800047
0.1792907
0.178512
0.1776661
0.1767984
0.1759789
0.1752639
0.1746643
0.1741466
0.1736633
0.1731633
0.1726067
0.1719984
0.1713805
0.1707999
0.1702806
0.1698086
0.1693411
0.1688247
0.1682136
0.1674943
0.1666973
0.1658774
0.1650826
0.1643329
0.1636147
0.1628941
0.1621273
0.1612811
0.1603533
0.1593778
0.1584044
0.1574673
0.1565747
0.1557174
0.1548821
0.1540585
0.1532428
0.1524376
0.1516453
0.1508619
0.1500786
0.1492879
0.1484885
0.1476819
0.1468689
0.1460531
0.1452446
0.1444605
0.1437271
0.1430844
0.1426067
0.1423207
0.1422332
0.1423275
0.1425516
0.1428158
0.1430149
0.1430592
0.1429009
0.1425926
0.1420683
0.1412755
0.1402062
0.1389009
0.1374329
0.1358811
0.1343094
0.1327532
0.1312201
0.1296953
0.1281584
0.1265918
0.1249925
0.1233674
0.1217339
0.1201101
0.1185186
0.1169774
0.1155106
0.1141431
0.1129061
0.1118268
0.1109306
0.1102456
0.1097889
0.1095483
0.1094959
0.1095987
0.1098014
0.110021
0.1101681
0.1101672
0.1099675
0.1095493
0.1089218
0.1081158
0.1071724
0.1061353
0.1050474
0.1039492
0.1028773
0.101862
0.1009247
0.1000762
0.09931491
0.09862875
0.09799574
0.09738812
0.0967775
0.09613986
0.0954594
0.09472978
0.09395498
0.09314767
0.0923227
0.09149627
0.09069574
0.08994278
0.08924563
0.08860814
0.08803121
0.08751351
0.08705221
0.08664357
0.08628369
0.08596923
0.08569814
0.08547025
0.0852876
0.08515438
0.08507685
0.08506283
0.08512085
0.08525856
0.08548086
0.08578796
0.08617418
0.08662689
0.0871268
0.08764909
0.08816614
0.08865012
0.08907551
0.08941972
0.08966477
0.08979695
0.08980939
0.08970028
0.08947428
0.08913922
0.0887062
0.0881884
0.08759873
0.08694513
0.0862321
0.08546376
0.08464356
0.08377518
0.08286075
0.08190067
0.08089593
0.07985038
0.07876997
0.07766107
0.07653085
0.07538801
0.07424148
0.07309959
0.07197159
0.0708688
0.06980425
0.06879167
0.0678442
0.06697271
0.06618471
0.06548366
0.06486859
0.06433491
0.06387747
0.06349603
0.06320111
0.06301698
0.0629792
0.0631289
0.0635099
0.06417172
0.06517282
0.06657858
0.06846341
0.07089329
0.07388157
0.07732683
0.08114162
0.08522023
0.089421
0.09359643
0.09760358
0.1013348
0.1047257
0.1077448
0.1103773
0.1126104
0.1144265
0.1158016
0.1167057
0.1171028
0.1170234
0.116579
0.1158715
0.114986
0.1139861
0.112911
0.1117774
0.110584
0.1093177
0.1079608
0.1064975
0.1049127
0.1031874
0.1013193
0.09933885
0.09727756
0.09516592
0.093032
0.09090058
0.08879264
0.08672543
0.08471274
0.08276506
0.08088936
0.07908857
0.07736125
0.07570182
0.07410131
0.0725485
0.07103123
0.06953805
0.0680598
0.06659084
0.06512991
0.06368041
0.06224988
0.06084819
0.05948578
0.05817239
0.05691644
0.05572447
0.05460072
0.05354756
0.05256706
0.05166211
0.05083504
0.05008704
0.04941845
0.04882883
0.04831697
0.04788085
0.04751774
0.04722425
0.04699646
0.04683005
0.04672046
0.04666307
0.04665332
0.04668694
0.04675984
0.04686821
0.04700826
0.04717614
0.04736776
0.04757893
0.0478052
0.04804215
0.04828531
0.04853097
0.0487765
0.04902118
0.04926546
0.04951022
0.04975487
0.04999663
0.05023023
0.05044677
0.05063666
0.05078559
0.05088276
0.05091184
0.05086873
0.05075333
0.009145372
0.010653
0.01181011
0.01756267
0.02419387
0.0329234
0.04012996
0.04832262
0.05723286
0.06678099
0.0773156
0.08979745
0.1035732
0.119074
0.1377678
0.1666917
0.1821571
0.1985172
0.2152171
0.2322013
0.2493819
0.2665998
0.2836914
0.3005154
0.316887
0.3327657
0.3483428
0.365393
0.3826792
0.4004491
0.4186817
0.4368103
0.4543528
0.4712297
0.4874305
0.5026385
0.5171585
0.5311431
0.5446134
0.557525
0.5697773
0.5812243
0.591677
0.6009876
0.6090507
0.615732
0.6209443
0.6246475
0.6266701
0.6260936
0.623732
0.6189244
0.61142
0.6025272
0.5921209
0.5804977
0.5680168
0.5549946
0.5417202
0.5284523
0.5154042
0.5027421
0.4905842
0.4790028
0.4680483
0.4577553
0.4481535
0.4392589
0.4310685
0.4235512
0.4166571
0.4103039
0.4044115
0.3989022
0.3938096
0.3890727
0.3846578
0.3804525
0.3763426
0.37236
0.3684529
0.3645743
0.3606811
0.356763
0.3528539
0.3490238
0.3453534
0.3418947
0.3386404
0.3355177
0.3324446
0.3293622
0.3262464
0.3231273
0.3200849
0.3172146
0.3145755
0.3121544
0.3098734
0.3076212
0.3052985
0.3028643
0.3003527
0.2978549
0.2954755
0.2932757
0.2912427
0.2892898
0.2873159
0.2852559
0.2831141
0.2809672
0.2789207
0.2770497
0.2753573
0.2737616
0.2721524
0.2704597
0.2686908
0.2669276
0.2652772
0.2638177
0.2625509
0.2613867
0.2602007
0.2589157
0.2575385
0.2561527
0.2548756
0.2537939
0.2529087
0.252124
0.2513104
0.2503832
0.249339
0.2482529
0.2472463
0.2464246
0.245806
0.2453093
0.2448096
0.2441996
0.2434452
0.2425957
0.2417615
0.241064
0.2405719
0.2402553
0.2399896
0.2395917
0.2389499
0.2380769
0.2370752
0.2361112
0.2353247
0.2347456
0.2342901
0.2337949
0.2331018
0.2321644
0.2310568
0.2298967
0.2288108
0.2279031
0.2272099
0.2266709
0.2261464
0.2255152
0.224736
0.2238052
0.2227795
0.2217532
0.2208285
0.2200674
0.2194426
0.218846
0.218144
0.2172732
0.2162458
0.2151223
0.2140022
0.2129822
0.2121237
0.2114253
0.2108209
0.2102137
0.2095181
0.208682
0.2077143
0.2066849
0.2056905
0.2048171
0.2041008
0.2035087
0.2029586
0.2023667
0.2016789
0.2009003
0.2001202
0.1994486
0.1989541
0.1986342
0.1984262
0.1982433
0.1980014
0.197651
0.1972048
0.1967251
0.196282
0.1959072
0.1955731
0.1952104
0.1947393
0.1940954
0.1932574
0.1922825
0.1912622
0.1902702
0.1893304
0.1884257
0.1875107
0.1865253
0.1854196
0.1841953
0.1829116
0.1816448
0.1804429
0.1793119
0.1782333
0.1771847
0.1761489
0.1751202
0.1741047
0.1731097
0.1721323
0.1711615
0.1701892
0.1692175
0.1682529
0.1673009
0.1663706
0.1654804
0.1646579
0.1639417
0.1633954
0.1631499
0.1632502
0.1636951
0.1644273
0.1652992
0.1660844
0.1665497
0.1665251
0.1659357
0.1649407
0.1636098
0.1618983
0.159828
0.1574853
0.1549986
0.152506
0.1501122
0.1478606
0.1457475
0.1437367
0.1417806
0.1398382
0.1378883
0.13593
0.1339769
0.1320487
0.1301672
0.1283534
0.1266309
0.1250249
0.1235639
0.1222764
0.1211907
0.1203374
0.119736
0.1193766
0.119234
0.1192699
0.1194155
0.1195795
0.1196629
0.1195772
0.1192621
0.1186932
0.11788
0.1168561
0.1156668
0.1143581
0.1129717
0.1115432
0.1101031
0.1086771
0.1072865
0.1059476
0.1046715
0.1034628
0.102319
0.1012319
0.1001889
0.09917639
0.09818229
0.09719913
0.09622521
0.09526448
0.09432532
0.0934173
0.09254908
0.09174665
0.09102325
0.09037928
0.08981315
0.08932172
0.08890079
0.08854562
0.08825164
0.08801521
0.08783446
0.08770983
0.08764447
0.08764428
0.08771769
0.08787517
0.08812802
0.08848623
0.08895569
0.08953577
0.09021753
0.09098237
0.0918024
0.09264281
0.09346623
0.09423674
0.09492312
0.0955001
0.09594852
0.09625574
0.09641691
0.09643506
0.09632016
0.09608644
0.09574957
0.09532376
0.09481988
0.09424561
0.09360655
0.09290663
0.09214832
0.09133342
0.09045588
0.08951449
0.08851098
0.08744963
0.08633654
0.08517894
0.0839852
0.08276496
0.08152846
0.0802863
0.07904965
0.07783014
0.07663927
0.07548808
0.07438656
0.07334276
0.07236203
0.07144645
0.0705947
0.06980259
0.06906445
0.06837532
0.06773398
0.067146
0.06662394
0.0661856
0.06585588
0.06567364
0.06569612
0.06599557
0.06665246
0.06774637
0.06934276
0.07147883
0.07417136
0.07739639
0.08105835
0.08497576
0.08900968
0.09301313
0.09683779
0.100353
0.1034539
0.1060639
0.1081322
0.1096333
0.1105633
0.110936
0.1107572
0.1101646
0.1093166
0.1083476
0.1073576
0.1064065
0.1055162
0.1046764
0.1038548
0.1030076
0.1020801
0.1010402
0.09987649
0.09858859
0.09718728
0.09568843
0.09411218
0.09248061
0.09081515
0.08913503
0.08745688
0.08579525
0.0841627
0.08256916
0.08102078
0.07951896
0.07806038
0.07663777
0.07524126
0.07385993
0.07248349
0.07110387
0.06971658
0.06832171
0.06692453
0.06553491
0.06416532
0.06282841
0.06153542
0.06029562
0.05911617
0.05800219
0.05695739
0.05598531
0.05508982
0.05427417
0.05354068
0.05289082
0.0523251
0.05184302
0.05144314
0.05112308
0.05087973
0.05070934
0.05060774
0.05057042
0.05059277
0.05067026
0.05079852
0.0509733
0.05119033
0.05144509
0.05173266
0.0520477
0.05238443
0.05273673
0.05309831
0.05346335
0.05382775
0.05418999
0.05455141
0.05491502
0.05528326
0.05565616
0.05602984
0.05639647
0.05674333
0.05705516
0.05731282
0.05749927
0.05759432
0.05758937
0.05749611
0.00226073
0.008724353
0.01300397
0.01797774
0.02353789
0.02991848
0.03722652
0.04528133
0.05433935
0.06529854
0.0819122
0.09191828
0.1028117
0.1143292
0.1265188
0.1393186
0.1526697
0.1664557
0.1804929
0.1946437
0.2088856
0.2250617
0.2415531
0.2581439
0.2747055
0.2911486
0.3073679
0.3233241
0.339032
0.3544076
0.3695743
0.384844
0.4006691
0.4167868
0.4331671
0.4496534
0.4658093
0.4812163
0.4956777
0.5090406
0.5216374
0.5336946
0.5453139
0.55647
0.5671001
0.5770866
0.5862727
0.5943565
0.6011009
0.6063843
0.6099464
0.6110101
0.6093672
0.6053843
0.5988766
0.5900193
0.5788561
0.5656725
0.5510007
0.5352541
0.5188642
0.5022393
0.4857386
0.469669
0.4542847
0.4397741
0.4262561
0.4137878
0.4023796
0.392016
0.3826728
0.3743365
0.3669981
0.3606352
0.355187
0.3505742
0.3466479
0.3432504
0.3402348
0.337263
0.334435
0.3318385
0.3295175
0.3274495
0.3256021
0.3238745
0.3221484
0.3203336
0.3184042
0.316407
0.3144384
0.3126103
0.3109966
0.3095816
0.3082664
0.3069297
0.3054846
0.3039078
0.3022484
0.3006164
0.2991298
0.2978638
0.296812
0.2958724
0.2948918
0.2937483
0.2923974
0.2908918
0.2893621
0.2879537
0.2867489
0.2857237
0.2847549
0.2836974
0.282477
0.2811197
0.2797424
0.2784941
0.2774681
0.2766444
0.2758957
0.2750723
0.2740962
0.272999
0.2719047
0.2709705