/*--------------------------------*- C++ -*----------------------------------*\
| =========                 |                                                 |
| \\      /  F ield         | foam-extend: Open Source CFD                    |
|  \\    /   O peration     | Version:     3.1                                |
|   \\  /    A nd           | Web:         http://www.extend-project.de       |
|    \\/     M anipulation  |                                                 |
\*---------------------------------------------------------------------------*/
FoamFile
{
    version     2.0;
    format      ascii;
    class       volScalarField;
    location    "19";
    object      omega;
}
// * * * * * * * * * * * * * * * * * * * * * * * * * * * * * * * * * * * * * //

dimensions      [0 0 -1 0 0 0 0];

internalField   nonuniform List<scalar> 
119952
(
413.3007
528.7979
503.7724
439.9047
395.582
399.648
406.8473
415.6732
425.6008
436.3602
447.8162
459.8887
472.5365
485.7511
499.5538
514.0041
529.1715
545.1609
562.3104
581.9393
487.0515
486.0622
491.7952
412.825
405.3301
401.5444
398.3595
395.4036
388.7261
236.5449
831.6964
698.7179
591.6977
513.9681
455.662
410.6001
374.4823
344.8522
319.936
292.2804
246.4665
214.0385
191.3715
174.5295
161.2815
150.3653
141.0845
133.0244
125.937
97.94266
94.06467
90.26502
86.56217
83.05015
79.781
76.767
73.99887
71.45006
69.10714
67.03855
65.08173
63.20065
61.40529
59.69285
58.05714
56.48138
54.93435
53.41775
53.01114
52.82011
52.23487
51.76895
51.46561
51.26491
51.06153
50.89775
50.78682
50.71055
50.66532
50.64618
50.64581
50.65576
50.66851
50.67895
50.68082
50.6581
50.56913
50.34051
50.05558
49.79636
49.38192
48.91939
48.766
48.78234
49.04443
49.95707
52.4493
56.26407
57.03888
57.5472
57.70097
57.72403
57.70203
57.65323
57.60253
57.56732
57.55429
57.56386
57.59253
57.63527
57.68762
57.74725
57.81458
57.89192
57.98185
58.08551
58.20165
58.32678
58.45657
58.58775
58.71973
58.85547
59.00083
59.16232
59.34447
59.54906
59.77629
60.02593
60.29805
60.59409
60.91706
61.27059
61.65687
62.07455
62.51789
62.97793
63.44565
63.91522
64.38537
64.85814
65.33577
65.81779
66.29951
66.77222
67.22395
67.62784
67.92936
68.1971
68.64912
69.11161
69.56037
69.99846
70.41648
70.8165
71.20403
71.58191
71.95221
72.3144
72.66617
73.003
73.31863
73.60512
73.85377
74.05691
74.21012
74.31539
74.39652
74.46814
74.56078
74.71321
74.96859
75.37087
75.9687
76.79656
77.89525
79.27391
80.92574
82.82921
84.94318
87.21601
89.59293
92.02074
94.44506
96.80197
99.00791
100.9565
102.5265
103.6042
104.1103
104.0202
103.3674
102.2363
100.7427
99.01792
97.18934
95.35753
93.48139
95.44771
99.8979
103.0641
105.5891
107.8332
109.9318
112.2007
114.8575
117.9332
121.4172
125.2119
129.0354
132.5282
135.2662
136.8631
137.0751
135.9251
133.7302
130.8884
127.6901
124.3517
121.0665
117.9846
115.0892
112.42
110.0681
107.9724
106.2169
104.8314
103.7408
102.9138
102.3318
101.9693
101.7624
101.5049
100.2696
98.56758
97.18863
95.83439
94.51709
93.24412
92.00854
90.81675
89.67031
88.57024
87.51729
86.51191
85.55362
84.64247
83.77856
82.9622
82.19396
81.47466
80.80533
80.18733
79.62222
79.11153
78.65663
78.25856
77.91793
77.63493
77.40969
77.24221
77.13211
77.07963
77.08621
77.15509
77.29364
77.52358
77.85767
63.25843
63.52729
63.80028
64.01453
64.32043
64.70907
65.1482
65.61767
66.0969
66.56551
66.98817
67.33058
67.57543
67.72998
67.81855
67.93422
68.27975
68.9545
70.01786
71.2291
72.17197
72.7086
72.79357
72.46177
71.74357
70.75165
69.63188
68.45779
67.16495
65.60632
63.63056
61.19534
58.41728
55.50805
52.65883
49.96029
47.4852
45.2967
43.43155
41.90013
40.68523
39.74468
39.02253
38.46262
38.02217
37.68959
37.38949
37.05489
36.66175
36.19523
35.67495
35.14075
34.63271
34.18323
33.76143
33.22106
32.62067
31.99407
31.38449
30.82731
30.33943
29.92165
29.56589
29.26132
28.99821
28.76958
28.57135
28.40171
28.26027
28.14698
28.06147
28.00283
27.96942
27.95905
27.96944
27.99863
28.04532
28.10898
28.18984
28.28887
28.40785
28.54898
28.71358
28.9016
29.11148
29.33992
29.58149
29.82848
30.07102
30.2973
30.49534
30.65361
30.76152
30.81186
30.79997
30.72515
30.58983
30.39683
30.15276
29.86647
29.54654
29.20198
28.84183
28.47435
28.10685
27.74554
27.39551
27.06076
26.74427
26.44811
26.17358
25.92129
25.69134
25.48343
25.297
25.13136
24.98587
24.86004
24.75379
24.66755
24.6026
24.56116
24.54694
24.56594
24.62593
24.73325
24.89611
25.13097
25.46796
25.9663
26.74905
27.93325
29.37654
30.84086
32.29534
33.76912
35.22128
36.56841
38.71201
762.2686
629.1265
561.8149
514.9109
475.6939
441.214
410.6298
383.4935
358.3293
298.78
236.5668
199.7568
176.5396
160.8279
149.4729
140.7342
133.6415
127.6279
100.9116
96.42429
92.10085
88.03583
84.31524
80.97216
77.98908
75.33132
72.95645
70.80674
68.9228
67.16886
65.44163
63.74854
62.10372
60.52363
59.01983
57.59608
56.24739
55.27172
54.58541
53.7785
52.89208
51.96568
51.02305
50.08162
49.15359
48.24542
47.36468
46.51276
45.68292
44.8806
44.10529
43.3537
42.62426
41.9157
41.22748
40.5707
36.33005
35.81683
35.32981
34.86659
34.42311
33.99459
33.57766
33.1702
32.77185
32.38133
31.99987
31.63109
31.27457
30.92764
30.58807
30.25517
29.93013
29.62283
29.35057
29.11149
28.87228
28.64402
28.44589
28.26985
28.10074
27.93586
27.77786
27.62911
27.49188
27.36902
27.2577
27.15224
27.04866
26.94517
26.84084
26.73489
26.62538
26.50918
26.38966
26.27272
26.15567
26.04225
25.95583
25.90075
25.88658
25.92076
26.01742
26.16016
26.25639
26.27684
26.30216
26.3199
26.32592
26.32668
26.32434
26.32185
26.32159
26.32407
26.32837
26.33275
26.33541
26.3351
26.33179
26.32658
26.32116
26.31702
26.31479
26.31391
26.31294
26.31027
26.30492
26.29723
26.28902
26.28302
26.28161
26.28611
26.2968
26.31334
26.33516
26.36217
26.3952
26.43592
26.48608
26.54658
26.61681
26.69461
26.77698
26.86118
26.94586
27.0312
27.11821
27.20764
27.29889
27.38964
27.47592
27.55327
27.61926
27.67355
27.71969
27.76355
27.80005
27.83099
27.85839
27.8829
27.90519
27.92621
27.94641
27.96568
27.98319
27.99757
28.00702
28.00948
28.00262
27.98409
27.95217
27.90663
27.84949
27.78522
27.72193
27.66797
27.6324
27.63457
27.69297
27.82153
28.02454
28.3077
28.67901
29.14113
29.69127
30.32183
31.02128
31.77705
32.57527
33.40245
34.24172
35.07423
35.87495
36.61779
37.27341
37.81826
38.23028
38.49895
38.61556
38.58669
38.41738
38.13001
37.73964
37.26057
37.62582
37.9759
38.17288
38.2854
38.37846
38.51517
38.75723
39.15685
39.75521
40.58198
41.65078
42.95527
44.46549
46.13042
47.88697
49.66189
51.37537
52.93991
54.25103
55.20115
55.70383
55.70924
55.21625
54.27125
52.95651
51.37923
49.64772
47.8549
46.06637
44.32819
42.66972
41.10924
39.66673
38.3229
37.06467
35.88189
34.7821
33.76931
32.82912
31.95247
31.13315
30.36519
29.64337
28.96314
28.32059
27.71244
27.13602
26.58921
26.07043
25.57855
25.11288
24.67308
24.25913
23.87128
23.50991
23.1755
22.86852
22.58934
22.33824
22.11534
21.92065
21.75408
21.61553
21.50493
21.42235
21.36806
21.3426
21.34693
21.38194
21.45114
19.50774
19.54993
19.63659
19.76003
19.9175
20.11034
20.34301
20.6142
20.92013
21.26002
21.63209
22.03369
22.46403
22.92444
23.41383
23.93153
24.48056
25.06494
25.67174
26.2835
26.89318
27.49895
28.10927
28.7434
29.42646
30.18469
31.04025
31.99816
33.03346
34.08827
35.08849
35.96581
36.66215
37.1131
37.23532
36.95771
36.26432
35.21196
33.91345
32.50227
31.09771
29.78596
28.61554
27.59963
26.7256
25.96539
25.28474
24.65275
24.04693
23.45588
22.87959
22.32719
21.81382
21.35697
20.96573
20.63016
20.33944
20.08067
19.84183
19.61226
19.38311
19.14756
18.90111
18.64165
18.36931
18.08606
17.79515
17.50046
17.20596
16.91539
16.63212
16.35901
16.09832
15.85172
15.62035
15.40493
15.20589
15.02347
14.85783
14.70906
14.57722
14.46233
14.36432
14.28297
14.21783
14.16812
14.13268
14.10989
14.09763
14.09335
14.09411
14.09668
14.09773
14.0939
14.0822
14.06032
14.0263
13.97835
13.91511
13.83581
13.7405
13.63019
13.50645
13.37128
13.22692
13.07578
12.92026
12.76264
12.60507
12.44943
12.29732
12.1501
12.00878
11.87419
11.7469
11.62737
11.51587
11.41274
11.31816
11.2325
11.15605
11.08938
11.03311
10.98825
10.9559
10.93763
10.93591
10.95494
11.0016
11.08575
11.21928
11.40982
11.64769
11.93458
12.28135
12.70198
13.21542
13.86138
14.70391
633.1056
559.4155
499.1952
454.9098
421.2403
395.2586
375.0475
359.7453
348.8837
334.0639
189.9537
177.263
166.3934
156.7375
148.5911
142.5977
140.1246
137.6879
128.8438
85.6292
83.89033
83.26219
82.6299
81.91352
81.19004
80.44769
79.65453
78.7537
77.29542
74.35771
71.98516
70.38176
69.18602
68.17011
67.22795
66.31534
65.41401
64.51667
64.54594
63.76429
62.6552
61.44357
60.24043
59.08995
58.00496
56.98401
56.02205
55.11977
54.24764
53.38865
52.53436
51.6817
50.8359
50.00391
49.19172
48.41185
44.63353
43.97393
43.34479
42.73864
42.15111
41.57909
41.02138
40.47762
39.94799
39.43093
38.92282
38.42392
37.93507
37.45504
36.98389
36.52283
36.07232
35.63218
35.20144
34.77761
34.36012
33.95124
33.55162
33.16125
32.78034
32.40872
32.04531
31.68842
31.33587
30.988
30.64619
30.31076
29.98244
29.66188
29.34843
29.04079
28.73678
28.42746
28.1695
27.91132
27.65666
27.40638
27.15968
26.91506
26.67131
26.42804
26.18593
25.94659
25.71248
25.48519
25.26443
25.04869
24.83661
24.62785
24.42397
24.2285
24.04574
23.87822
23.72148
23.57067
23.4278
23.29187
23.15889
23.0262
22.89485
22.7677
22.64683
22.53227
22.42227
22.31611
22.21092
22.10354
21.9943
21.88451
21.77577
21.66792
21.56336
21.46305
21.36702
21.2752
21.19007
21.1168
21.06545
21.03179
21.01447
21.01189
21.00427
20.97348
20.93234
20.89061
20.84699
20.80132
20.75595
20.71316
20.67443
20.63989
20.60844
20.57827
20.54736
20.51428
20.47896
20.4426
20.40705
20.37394
20.34385
20.31607
20.28889
20.26042
20.22943
20.19612
20.16237
20.13092
20.10394
20.08216
20.0654
20.05292
20.04369
20.03715
20.03391
20.03567
20.04443
20.06133
20.08595
20.11628
20.14945
20.18305
20.21614
20.24941
20.28441
20.32238
20.3633
20.40552
20.44612
20.48196
20.51082
20.53214
20.54671
20.55719
20.56484
20.56928
20.5706
20.56922
20.56553
20.55991
20.55265
20.54356
20.53198
20.51694
20.49739
20.4722
20.44013
20.39985
20.35016
20.291
20.22386
20.15208
20.07978
20.01149
19.96168
19.93709
19.94513
19.99492
20.09972
20.26271
20.48093
20.75566
21.08451
21.46142
21.87811
22.32661
22.79914
23.2888
23.78838
24.28877
24.77867
25.24364
25.66872
26.03831
26.34002
26.56257
26.70056
26.74941
26.71333
26.59647
26.41578
26.18063
25.95461
25.68541
25.4032
25.13655
24.90991
24.74211
24.64784
24.63875
24.72334
24.90728
25.19389
25.58431
26.07747
26.67012
27.35649
28.12686
28.96495
29.8453
30.73258
31.58445
32.35557
33.00307
33.49377
33.8037
33.92061
33.84366
33.58198
33.15379
32.58463
31.90427
31.1431
30.33023
29.49545
28.66573
27.83712
27.0172
26.22066
25.45575
24.72559
24.03163
23.37392
22.75135
22.16217
21.60429
21.07546
20.57372
20.09706
19.6438
19.21262
18.80246
18.41261
18.04264
17.69238
17.3618
17.05096
16.7599
16.4885
16.23651
16.00345
15.78867
15.59135
15.41066
15.2457
15.09571
14.95988
14.83764
14.72842
14.63188
14.54764
14.47198
14.44129
14.42202
14.41304
14.41434
14.42902
14.46168
14.5171
14.60012
14.71023
14.84714
15.01022
15.19844
15.41209
15.6521
15.91741
16.20576
16.51628
16.84762
17.19473
17.55186
17.91554
18.28603
18.66986
19.07996
19.53326
20.04918
20.64919
21.35057
22.15971
23.06943
24.06469
25.13043
26.24968
27.39091
28.49831
29.49677
30.31093
30.87911
31.15277
31.1042
30.73983
30.10637
29.28122
28.35196
27.39512
26.46165
25.5777
24.75283
23.98689
23.2762
22.61786
22.01166
21.45992
20.96601
20.53295
20.15868
19.82703
19.52231
19.23157
18.94432
18.65231
18.34951
18.03218
17.69891
17.35055
16.98984
16.62083
16.24823
15.87683
15.51103
15.15421
14.80908
14.47776
14.16176
13.86206
13.57927
13.31366
13.06533
12.83423
12.62025
12.42316
12.24269
12.07846
11.92999
11.79666
11.67768
11.57211
11.4788
11.39644
11.32357
11.25859
11.19984
11.14555
11.09388
11.04302
10.99136
10.93752
10.88022
10.81811
10.74985
10.67458
10.59198
10.5021
10.40533
10.3024
10.19428
10.08211
9.967138
9.85066
9.733926
9.618119
9.504289
9.393372
9.286126
9.183222
9.08515
8.992371
8.905179
8.823927
8.74879
8.680085
8.617949
8.562758
8.514734
8.474403
8.442177
8.418989
8.406125
8.405996
8.421633
8.456642
8.514778
8.600071
8.71746
8.87228
9.073326
9.332393
9.66616
10.08933
364.4826
264.8568
378.5854
171.7132
134.8849
99.60287
86.37578
75.28796
66.09258
61.69206
59.89234
58.93118
58.04331
57.2516
56.48105
55.79131
55.16404
54.58983
54.1397
53.819
53.55239
53.41632
53.56814
53.88643
54.25036
54.65176
55.08893
55.56065
56.04044
56.46431
56.73632
55.52675
56.04964
56.63857
57.08278
57.39598
57.58917
57.65812
57.59623
57.41263
57.12534
56.71904
56.21294
55.6336
54.99947
54.32176
53.60985
52.87142
52.11342
51.34182
50.56587
49.7909
49.01278
48.23215
47.45191
46.67482
45.90525
45.14672
44.40244
43.67452
42.96218
42.26578
41.58539
40.92167
40.2767
39.65112
39.04764
38.45545
37.91943
37.39305
36.87864
36.375
35.88216
35.40197
34.93666
34.48775
34.05474
33.63539
33.22641
32.82527
32.43029
32.04141
31.66034
31.2894
30.92981
30.58087
30.24034
29.9056
29.57474
29.24729
28.92435
28.60805
28.30018
28.00112
27.70952
27.42288
27.13908
26.85761
26.57976
26.30748
26.04287
25.78665
25.53793
25.29369
25.05169
24.80978
24.57108
24.33815
24.11349
23.89775
23.68959
23.48618
23.2846
23.0833
22.88282
22.68558
22.49468
22.31208
22.13769
21.9693
21.80411
21.64042
21.47851
21.32081
21.17099
21.03254
20.90585
20.78726
20.67327
20.5612
20.44825
20.33312
20.2179
20.10687
20.0031
19.90651
19.81425
19.72254
19.6286
19.53112
19.43031
19.32912
19.23062
19.13689
19.04934
18.96652
18.88655
18.8072
18.7301
18.65799
18.59312
18.53612
18.48767
18.44686
18.40765
18.36208
18.31038
18.25635
18.19994
18.14198
18.08506
18.03181
17.98386
17.94101
17.90149
17.86276
17.82239
17.77907
17.73316
17.68655
17.64172
17.60064
17.56382
17.53004
17.49705
17.46251
17.42499
17.38487
17.34461
17.3075
17.27588
17.25016
17.22937
17.21194
17.19633
17.18206
17.17005
17.16235
17.16109
17.16737
17.18056
17.19838
17.2177
17.23607
17.253
17.26984
17.28878
17.31144
17.33806
17.3671
17.39565
17.42052
17.43963
17.45287
17.46169
17.46807
17.4731
17.47677
17.47874
17.47881
17.47711
17.47393
17.46948
17.46364
17.45571
17.44488
17.43044
17.41172
17.38793
17.35822
17.32201
17.27947
17.23193
17.18217
17.13512
17.1
17.08006
17.07788
17.09512
17.13289
17.19353
17.28442
17.41118
17.57216
17.76392
17.98129
18.21882
18.47209
18.73806
19.01459
19.29958
19.58936
19.87824
20.15779
20.41833
20.64948
20.8422
20.98853
21.08315
21.12236
21.106
21.03601
20.91824
20.76039
20.57736
20.3826
20.19053
20.01485
19.86954
19.76625
19.71413
19.72051
19.78957
19.92213
20.1169
20.37156
20.68361
21.05099
21.47187
21.94352
22.46142
23.01658
23.59489
24.1774
24.74345
25.26721
25.72566
26.09786
26.3645
26.5171
26.5496
26.46146
26.25742
25.94699
25.54447
25.06581
24.52947
23.9561
23.37416
22.78785
22.19853
21.61637
21.0488
20.50054
19.97446
19.47223
18.99432
18.54036
18.10956
17.70076
17.31262
16.94399
16.59392
16.26147
15.94591
15.64692
15.36436
15.09819
14.84845
14.61507
14.39784
14.1963
14.00972
13.8371
13.67728
13.52899
13.3911
13.26239
13.14194
13.02872
12.92222
12.82175
12.72733
12.63847
12.55659
12.48167
12.41452
12.35641
12.30866
12.27267
12.2501
12.24319
12.25318
12.28054
12.32538
12.38774
12.46792
12.56601
12.68137
12.81313
12.96057
13.12239
13.29633
13.48018
13.67282
13.87507
14.0906
14.32618
14.59145
14.89874
15.26231
15.6964
16.21269
16.81895
17.51975
18.31768
19.21222
20.1952
21.24884
22.342
23.43355
24.48031
25.44231
26.28244
26.96539
27.4568
27.72051
27.7362
27.51301
27.08921
26.51981
25.86179
25.16445
24.46488
23.78791
23.14828
22.55316
22.00366
21.49588
21.02406
20.58094
20.15573
19.73947
19.32513
18.90754
18.48329
18.05062
17.60955
17.16188
16.71103
16.26162
15.81867
15.38683
14.96886
14.56585
14.17885
13.80869
13.45589
13.12071
12.80323
12.50338
12.22101
11.95595
11.70798
11.47683
11.26213
11.06342
10.88007
10.71136
10.55641
10.41424
10.28376
10.16385
10.05337
9.951191
9.856237
9.767452
9.683774
9.604149
9.527564
9.453044
9.379599
9.30617
9.231682
9.155241
9.076274
8.994444
8.909638
8.821972
8.731774
8.639546
8.54592
8.451616
8.357393
8.264015
8.172202
8.082623
7.995857
7.912424
7.832749
7.757206
7.686077
7.619623
7.558002
7.501375
7.449812
7.403439
7.362306
7.326545
7.296229
7.271643
7.253253
7.241958
7.238878
7.245545
7.263876
7.296554
7.347032
7.419916
7.520111
7.654803
7.831463
8.051455
324.614
218.592
165.1621
147.5141
120.1864
101.0176
87.07283
81.67789
75.62117
72.09283
69.03827
64.9324
60.81251
56.91309
53.34858
49.43749
43.41434
42.01948
41.0037
40.45451
40.32021
40.45632
40.70866
41.02214
41.3908
41.81531
42.31676
42.89687
43.52625
44.19145
44.88842
45.61181
46.35642
47.12099
47.90154
48.6976
49.50773
50.34565
51.23577
52.17038
53.16711
54.15906
54.75124
55.31175
55.77791
56.09299
56.24579
56.2334
56.06093
55.73901
55.2831
54.71686
54.05342
53.30515
52.48844
51.6213
50.71978
49.79788
48.86679
47.93511
47.00939
46.09198
45.18653
44.29507
43.41906
42.56148
41.72632
40.9175
40.13981
39.39292
38.67631
37.98703
37.32199
36.67925
36.05842
35.4608
34.88791
34.34112
33.81793
33.31553
32.83152
32.36347
31.90807
31.46444
31.03493
30.62322
30.23206
29.86135
29.50796
29.16666
28.832
28.50044
28.17175
27.84889
27.53614
27.2362
26.94874
26.67069
26.39772
26.12596
25.85392
25.58337
25.31822
25.06221
24.81647
24.57897
24.34556
24.11228
23.87749
23.64298
23.41293
23.19165
22.98123
22.77982
22.58279
22.38555
22.18585
21.98508
21.78752
21.59804
21.41939
21.25022
21.0861
20.92213
20.75544
20.58655
20.41923
20.25856
20.10824
19.96868
19.83671
19.70724
19.57645
19.44343
19.31079
19.18373
19.06772
18.96503
18.87307
18.78579
18.69711
18.60339
18.50417
18.40321
18.30668
18.2193
18.14191
18.07098
18.0003
17.92465
17.84187
17.75344
17.66385
17.57825
17.5004
17.43154
17.36918
17.30934
17.24877
17.18533
17.11996
17.05602
16.99718
16.94631
16.90397
16.86667
16.82771
16.78381
16.73469
16.68119
16.62556
16.57141
16.52262
16.48128
16.44676
16.41634
16.3865
16.35363
16.31599
16.27457
16.2324
16.1933
16.16012
16.13343
16.1112
16.08997
16.06631
16.0385
16.00787
15.97845
15.95504
15.94063
15.93521
15.93715
15.944
15.95311
15.9637
15.9774
15.99694
16.02452
16.06053
16.1033
16.14967
16.19591
16.23942
16.28023
16.3205
16.36285
16.40878
16.45773
16.50769
16.55542
16.59766
16.63278
16.66167
16.6869
16.71076
16.73417
16.7569
16.77827
16.79775
16.81523
16.83103
16.84549
16.85851
16.86946
16.87756
16.8824
16.88369
16.8811
16.87437
16.86375
16.85019
16.83565
16.82426
16.82863
16.8545
16.90102
16.96461
17.03802
17.11074
17.17244
17.21895
17.26047
17.31458
17.37741
17.44449
17.51338
17.5844
17.66017
17.74413
17.83879
17.94432
18.05805
18.17442
18.28614
18.38528
18.46471
18.51847
18.54212
18.53262
18.48871
18.41075
18.30135
18.16586
18.01229
17.8498
17.68883
17.54058
17.4161
17.32352
17.26873
17.25677
17.29026
17.36808
17.48695
17.643
17.83286
18.05433
18.30661
18.5893
18.90196
19.24217
19.60475
19.98137
20.36022
20.7283
21.07097
21.37351
21.62364
21.80749
21.91574
21.94211
21.884
21.74267
21.52234
21.23256
20.88415
20.48995
20.06468
19.62894
19.18885
18.74545
18.30598
17.87611
17.45979
17.0597
16.6774
16.31356
15.96822
15.64093
15.33101
15.03767
14.76012
14.49775
14.25009
14.01685
13.79787
13.59324
13.40299
13.22702
13.06497
12.91615
12.77952
12.65371
12.53714
12.42825
12.32552
12.22753
12.13314
12.04134
11.95146
11.86303
11.77598
11.69047
11.60703
11.52643
11.44958
11.37724
11.31015
11.2493
11.1959
11.1515
11.11781
11.09521
11.08374
11.08347
11.09445
11.11667
11.14989
11.19374
11.24771
11.31106
11.38287
11.46236
11.54931
11.64444
11.74985
11.86926
12.00805
12.17328
12.37342
12.61781
12.91601
13.27734
13.71072
14.22466
14.82662
15.52056
16.30297
17.16022
18.0706
19.0088
19.9536
20.88821
21.7972
22.66233
23.45596
24.14043
24.67802
25.04107
25.21422
25.20199
25.02731
24.72424
24.32957
23.87596
23.38792
22.87989
22.35596
21.81129
21.24919
20.67962
20.10857
19.53986
18.97614
18.41944
17.8716
17.33452
16.81037
16.30168
15.8112
15.34095
14.89168
14.46253
14.05256
13.66124
13.28811
12.93273
12.59468
12.27355
11.96894
11.68056
11.40814
11.1515
10.91044
10.68467
10.47378
10.27719
10.09417
9.923847
9.765238
9.617292
9.47896
9.34924
9.227243
9.112225
9.003556
8.900654
8.802929
8.709774
8.620561
8.534616
8.451157
8.369354
8.288507
8.208112
8.12779
8.047309
7.966592
7.885706
7.804851
7.724327
7.644512
7.565831
7.488736
7.41367
7.341057
7.271279
7.204681
7.141562
7.082172
7.026702
6.975289
6.928006
6.884885
6.845909
6.811047
6.780236
6.753426
6.730581
6.711764
6.69716
6.687124
6.682167
6.683002
6.690601
6.706319
6.731961
6.770059
6.82357
6.896761
6.993755
7.112977
166.3553
122.6768
188.1733
92.46489
79.27977
68.01399
64.7313
62.4425
59.92622
58.99049
57.72593
55.85464
54.10639
52.21718
49.95656
45.3603
44.33647
43.37193
42.4325
41.52328
40.59855
39.70892
38.91445
38.25237
37.74801
37.40456
37.14172
36.88075
36.8113
36.95929
37.30636
37.79111
38.346
38.94159
39.57252
40.25577
40.97843
41.72875
42.50046
43.29092
44.09692
44.91405
45.73503
46.56167
47.40273
48.27386
49.14978
50.04634
51.00656
51.95428
52.81904
53.53486
54.01548
54.35135
54.46813
54.36741
54.06645
53.58251
52.93671
52.15347
51.25755
50.2731
49.22205
48.12326
46.99523
45.85562
44.72131
43.60685
42.52309
41.47645
40.47046
39.5036
38.57472
37.68243
36.83662
36.03737
35.28523
34.58028
33.92236
33.30714
32.72729
32.17668
31.64928
31.14078
30.64969
30.1774
29.72716
29.30174
28.90123
28.52164
28.15703
27.80184
27.45205
27.10705
26.77022
26.44742
26.14411
25.86208
25.59846
25.34657
25.09846
24.84833
24.59487
24.34163
24.09541
23.86215
23.64362
23.43603
23.23261
23.02686
22.81565
22.60118
22.38954
22.18721
21.99763
21.81837
21.6428
21.46418
21.27933
21.09046
20.90372
20.7261
20.56202
20.40983
20.26254
20.11267
19.9562
19.79451
19.63375
19.48163
19.34322
19.21739
19.09757
18.97616
18.84826
18.71385
18.57822
18.44966
18.33432
18.2327
18.14024
18.04938
17.95385
17.85156
17.74577
17.6439
17.55393
17.48003
17.42014
17.36517
17.30496
17.23443
17.15394
17.07017
16.99259
16.92771
16.87636
16.8332
16.78874
16.73557
16.67141
16.59924
16.52552
16.45782
16.40179
16.35837
16.32343
16.29053
16.25381
16.20949
16.15836
16.10533
16.0573
16.01999
15.99506
15.97883
15.96311
15.94141
15.91142
15.87452
15.83462
15.79724
15.76788
15.7493
15.74021
15.73618
15.73205
15.72311
15.7071
15.68588
15.66419
15.64779
15.64086
15.64393
15.65397
15.66642
15.6776
15.68766
15.70329
15.73333
15.78409
15.85749
15.95133
16.06135
16.18288
16.31207
16.4474
16.58958
16.73964
16.89664
17.05685
17.21496
17.36596
17.50655
17.63512
17.75499
17.87064
17.98451
18.09566
18.201
18.29688
18.3802
18.44972
18.50749
18.55831
18.60701
18.65589
18.70449
18.75124
18.79483
18.83458
18.87057
18.9034
18.93353
18.96078
18.9846
19.00477
19.02168
19.03597
19.04848
19.06076
19.0756
19.09697
19.13006
19.18375
19.28131
19.42611
19.61143
19.82291
20.03548
20.21533
20.3285
20.35061
20.27582
20.14405
19.97648
19.77411
19.54504
19.30294
19.0656
18.85139
18.67182
18.527
18.41252
18.32144
18.24569
18.17715
18.1088
18.03513
17.95202
17.85647
17.74657
17.62159
17.4824
17.33176
17.17435
17.01609
16.86378
16.72533
16.60846
16.51812
16.45724
16.4279
16.42966
16.45959
16.51322
16.58589
16.67418
16.77658
16.89357
17.02695
17.17879
17.35021
17.54052
17.74666
17.96312
18.18233
18.39517
18.59164
18.76167
18.8955
18.98444
19.02145
19.00166
18.92278
18.78531
18.5926
18.35045
18.0666
17.75039
17.41277
17.06877
16.72261
16.37691
16.03657
15.70537
15.38603
15.08034
14.78931
14.51334
14.25238
14.00606
13.77394
13.55551
13.35038
13.15823
12.97904
12.81283
12.65976
12.51989
12.39305
12.27875
12.17601
12.08336
11.99896
11.92076
11.84683
11.77534
11.70485
11.63415
11.5623
11.48872
11.41325
11.33614
11.25793
11.17938
11.10125
11.02427
10.94915
10.87664
10.80756
10.74281
10.68345
10.6304
10.58382
10.54381
10.51046
10.48384
10.464
10.4509
10.44442
10.44433
10.45031
10.46199
10.47914
10.50178
10.53046
10.56643
10.61182
10.66968
10.74403
10.83983
10.96294
11.11994
11.318
11.56459
11.86741
12.23392
12.67022
13.17922
13.7594
14.40508
15.10746
15.85557
16.63731
17.44056
18.25193
19.05917
19.84554
20.58803
21.25889
21.82777
22.26776
22.56262
22.7093
22.71607
22.59843
22.37427
22.06008
21.66795
21.20356
20.66718
20.08188
19.471
18.85307
18.24205
17.6476
17.07579
16.52977
16.01087
15.51954
15.05507
14.61512
14.19723
13.79942
13.42029
13.05858
12.7133
12.38368
12.06908
11.76893
11.4827
11.21005
10.95077
10.70479
10.47206
10.25246
10.04572
9.851372
9.668809
9.497266
9.335873
9.183702
9.039824
8.903382
8.773667
8.650172
8.532561
8.420581
8.313965
8.212397
8.115507
8.022861
7.933938
7.848173
7.765076
7.68426
7.605413
7.528319
7.452866
7.379035
7.30689
7.236563
7.168239
7.102136
7.038497
6.977565
6.919574
6.864738
6.813248
6.765261
6.720895
6.680219
6.643251
6.609952
6.580238
6.55399
6.531062
6.511308
6.49462
6.480965
6.470412
6.463116
6.459273
6.459104
6.462858
6.470847
6.483525
6.501545
6.525981
6.558311
6.600758
6.655774
6.721914
68.76195
50.92369
49.0439
46.56004
45.50766
44.24719
43.25563
42.43384
41.75361
40.67653
37.99684
37.89739
37.81802
37.75092
37.66274
37.54044
37.42114
37.33475
37.29194
37.27839
37.14513
36.76662
36.38969
36.01958
35.66453
35.33114
35.04463
34.82418
34.6809
34.61819
34.62761
34.70034
34.85644
35.12638
35.52306
36.03292
36.61894
37.24284
37.88532
38.56864
39.28378
40.02696
40.7977
41.59107
42.40625
43.24276
44.10223
44.96231
45.82274
46.70093
47.66891
48.58944
49.48966
50.31999
51.01486
51.52783
51.81242
51.85637
51.66359
51.23528
50.59033
49.75593
48.76235
47.64266
46.43104
45.15898
43.85306
42.53554
41.22432
39.93476
38.6808
37.47684
36.33572
35.26757
34.27651
33.36395
32.5245
31.74955
31.03086
30.36347
29.74507
29.17451
28.64996
28.16753
27.72445
27.31397
26.92751
26.55677
26.19608
25.8439
25.50265
25.1776
24.87421
24.59411
24.33335
24.08446
23.83966
23.59346
23.34468
23.09722
22.85829
22.63594
22.43476
22.25275
22.08209
21.91292
21.73716
21.55204
21.36162
21.17478
21.00026
20.84232
20.69768
20.55724
20.41211
20.25751
20.0954
19.93369
19.78157
19.64444
19.52012
19.40022
19.27548
19.14069
18.99744
18.85387
18.72046
18.60325
18.50017
18.40259
18.30091
18.18957
18.06969
17.94907
17.83852
17.74457
17.66508
17.59165
17.51507
17.42947
17.33477
17.23754
17.1485
17.07569
17.01875
16.9704
16.92143
16.86475
16.7984
16.72716
16.6616
16.61219
16.58179
16.56429
16.54753
16.51977
16.47664
16.42185
16.36659
16.32372
16.30018
16.2926
16.2889
16.27592
16.24733
16.20643
16.15932
16.11393
16.07991
16.0641
16.0648
16.07055
16.07076
16.06278
16.04636
16.02424
16.00395
15.99367
15.9993
16.01764
16.04213
16.06283
16.07393
16.07606
16.07375
16.07317
16.081
16.10167
16.13507
16.17624
16.21796
16.25465
16.28443
16.30901
16.33339
16.36493
16.41121
16.4766
16.56085
16.66124
16.776
16.90775
17.07161
17.29416
17.58842
17.94676
18.35043
18.78051
19.22315
19.67139
20.1243
20.58076
21.03601
21.48344
21.90903
22.29573
22.63119
22.91249
23.14685
23.35078
23.54266
23.73206
23.91607
24.08238
24.21671
24.30973
24.36092
24.38067
24.38709
24.39629
24.41491
24.44053
24.46647
24.48729
24.50057
24.50654
24.50695
24.50332
24.49556
24.48281
24.46497
24.44354
24.42098
24.39976
24.3833
24.37705
24.38883
24.42909
24.51037
24.64779
24.86827
25.17901
25.57035
26.01287
26.44957
26.80861
27.02726
27.05758
26.86265
26.4437
25.88535
25.22678
24.51043
23.7775
23.06553
22.40605
21.81665
21.29483
20.83249
20.42227
20.06122
19.74006
19.44933
19.18214
18.93341
18.69921
18.47641
18.26285
18.0577
17.86153
17.67643
17.5054
17.35208
17.22013
17.11203
17.02783
16.96624
16.92554
16.90073
16.88475
16.87192
16.85823
16.84201
16.82419
16.80789
16.79768
16.79837
16.81388
16.84636
16.89576
16.95981
17.03432
17.11355
17.19073
17.25857
17.30972
17.33713
17.33455
17.29689
17.22067
17.10433
16.94842
16.75553
16.53011
16.27802
16.00623
15.72298
15.43893
15.15657
14.87925
14.60993
14.3508
14.10339
13.86855
13.64665
13.4377
13.24148
13.05768
12.886
12.72626
12.57843
12.44263
12.31913
12.20823
12.11003
12.02429
11.95022
11.88634
11.83058
11.78041
11.73317
11.68646
11.63844
11.58782
11.5337
11.47548
11.41301
11.34656
11.27677
11.20449
11.13063
11.05601
10.98132
10.90711
10.83388
10.76211
10.69241
10.62547
10.56153
10.5008
10.44346
10.38967
10.33959
10.29335
10.25109
10.21293
10.17894
10.14907
10.12326
10.10144
10.08372
10.07044
10.06235
10.0607
10.06724
10.08432
10.11484
10.16236
10.23106
10.32562
10.45113
10.613
10.81686
11.06812
11.3712
11.72886
12.14192
12.60918
13.12734
13.69162
14.29668
14.93655
15.60322
16.28495
16.96527
17.62268
18.23561
18.78073
19.23536
19.58118
19.8067
19.90782
19.88701
19.75198
19.51439
19.18927
18.78797
18.32242
17.81851
17.29879
16.78093
16.2772
15.79489
15.33714
14.90401
14.49374
14.10447
13.73432
13.38112
13.04325
12.71935
12.40828
12.10927
11.82183
11.54555
11.28005
11.02499
10.78015
10.54548
10.32111
10.10716
9.903681
9.710533
9.527403
9.353834
9.18926
9.033018
8.884395
8.742677
8.60721
8.477478
8.35316
8.234113
8.120285
8.011621
7.908008
7.809259
7.715119
7.625298
7.539487
7.457378
7.378692
7.303198
7.23072
7.161147
7.094425
7.030554
6.969578
6.911574
6.856645
6.804902
6.756464
6.711446
6.669951
6.632057
6.597812
6.567223
6.540244
6.516771
6.49665
6.47968
6.465622
6.454214
6.445222
6.438544
6.434268
6.432652
6.433993
6.438476
6.446116
6.456779
6.470214
6.486161
6.50441
6.525003
6.548299
6.575179
6.606888
6.642936
93.42048
39.3807
32.87296
31.53048
30.84901
30.56532
30.58531
30.78259
31.11098
31.53153
31.88494
32.05365
32.2243
32.38144
32.52734
32.65458
32.77117
32.87832
32.9631
33.00308
32.97325
32.89084
32.81015
32.73841
32.68364
32.65179
32.65587
32.70265
32.79228
32.92555
33.10324
33.32773
33.60914
33.95396
34.36927
34.84772
35.37074
35.91904
36.53619
37.20982
37.93513
38.71322
39.54249
40.39574
41.27295
42.1732
43.12744
44.05926
44.97954
45.89975
46.82176
47.67324
48.38938
48.91899
49.21469
49.25179
49.02764
48.55739
47.82949
46.87508
45.7312
44.43948
43.04273
41.58363
40.10304
38.63627
37.20931
35.83846
34.53278
33.29756
32.13832
31.06326
30.08847
29.21905
28.45139
27.77379
27.17138
26.62854
26.1317
25.66586
25.22864
24.82236
24.45108
24.11683
23.81705
23.5438
23.28609
23.03346
22.77957
22.52423
22.27253
22.0327
21.81253
21.61483
21.43548
21.26573
21.09643