/*--------------------------------*- C++ -*----------------------------------*\
| =========                 |                                                 |
| \\      /  F ield         | foam-extend: Open Source CFD                    |
|  \\    /   O peration     | Version:     3.1                                |
|   \\  /    A nd           | Web:         http://www.extend-project.de       |
|    \\/     M anipulation  |                                                 |
\*---------------------------------------------------------------------------*/
FoamFile
{
    version     2.0;
    format      ascii;
    class       volScalarField;
    location    "19";
    object      p;
}
// * * * * * * * * * * * * * * * * * * * * * * * * * * * * * * * * * * * * * //

dimensions      [1 -1 -2 0 0 0 0];

internalField   nonuniform List<scalar> 
119952
(
4970.289
3198.605
2943.263
3178.954
3431.522
3196.272
3118.662
3054.226
3009.218
2972.969
2941.755
2914.68
2890.644
2868.74
2846.858
2826.073
2803.494
2777.213
2732.316
2604.929
3011.67
2771.205
2646.574
3199.479
3151.489
3183.378
3232.223
3371.05
3846.991
7672.618
2893.856
2834.896
2831.282
2820.812
2811.458
2805.403
2797.077
2795.419
2790.378
2758.717
2728.59
2740.469
2728.847
2719.876
2712.265
2706.634
2702.247
2698.042
2694.425
2681.382
2675.261
2650.374
2642.296
2640.667
2638.835
2638.194
2638.691
2638.586
2646.678
2642.011
2639.785
2649.644
2659.81
2670.031
2681.913
2696.045
2721.59
2810.624
3000.112
2843.658
2777.52
2868.652
2906.153
2872.077
2807.158
2759.604
2722.35
2689.224
2660.237
2635.419
2613.314
2592.784
2573.212
2553.932
2534.175
2513.393
2493.08
2480.786
2504.089
2531.454
2522.854
2642.801
2828.96
2865.934
2877.27
2890.115
2795.39
2455.285
2367.081
2447.549
2471.327
2491.007
2513.21
2530.059
2544.717
2559.073
2573.296
2587.499
2601.663
2615.68
2629.518
2643.249
2657.013
2670.946
2685.113
2699.478
2713.914
2728.262
2742.379
2756.167
2769.602
2782.743
2795.673
2808.465
2821.193
2833.956
2846.894
2860.202
2874.144
2889.009
2905.016
2922.259
2940.689
2960.151
2980.437
3001.36
3022.824
3044.859
3067.598
3091.196
3115.779
3141.416
3168.094
3195.682
3223.925
3253.116
3286.701
3329.342
3371.884
3405.575
3440.415
3478.653
3518.835
3560.731
3604.44
3649.875
3696.827
3745.003
3794.027
3843.438
3892.704
3941.182
3988.174
4032.943
4074.741
4112.943
4147.129
4175.785
4199.662
4218.284
4231.747
4240.597
4245.728
4248.357
4249.934
4251.732
4255.413
4262.309
4273.485
4289.664
4311.175
4337.987
4369.764
4405.95
4445.924
4489.069
4534.921
4583.144
4633.443
4685.451
4738.655
4792.479
4846.344
4899.73
4952.052
5002.515
5053.273
5136.493
5187.949
5235.376
5282.406
5329.493
5374.448
5420.386
5465.424
5510.112
5554.107
5596.876
5637.905
5676.988
5714.551
5751.486
5788.678
5826.424
5864.167
5901.118
5936.957
5971.857
6006.117
6040.001
6073.742
6107.604
6141.428
6174.92
6208.131
6240.555
6272.058
6302.544
6331.831
6359.632
6385.332
6407.473
6425.622
6463.009
6496.989
6526.386
6554.194
6579.758
6603.371
6625.174
6645.139
6663.384
6679.912
6694.787
6708.05
6719.76
6729.979
6738.778
6746.239
6752.452
6757.524
6761.571
6764.724
6767.124
6768.93
6770.31
6771.44
6772.503
6773.666
6775.092
6776.916
6779.25
6782.169
6785.717
6789.905
6794.712
6799.083
6806.675
6799.215
6782.896
6790.209
6796.424
6799.38
6803.505
6808.55
6813.491
6818.64
6823.958
6829.487
6835.157
6840.903
6846.504
6851.761
6856.229
6859.692
6862.068
6863.098
6864.939
6868.119
6872.077
6876.657
6881.956
6887.621
6893.17
6898.309
6902.523
6905.276
6906.508
6906.902
6907.478
6908.625
6909.928
6910.37
6909.539
6907.53
6904.795
6902.007
6899.598
6897.504
6895.44
6893.081
6890.052
6885.609
6878.588
6870.07
6860.853
6851.18
6841.754
6833.467
6827.22
6821.219
6819.304
6826.291
6836.04
6849
6865.938
6886.164
6908.764
6932.719
6957.029
6980.802
7003.307
7024.001
7042.519
7058.656
7072.331
7083.558
7092.439
7099.162
7103.97
7107.129
7108.911
7109.569
7109.329
7108.387
7106.909
7105.035
7102.876
7100.537
7098.091
7095.587
7093.065
7090.55
7088.063
7085.621
7083.238
7080.931
7078.718
7076.629
7074.664
7072.815
7071.174
7069.68
7068.303
7067.064
7065.981
7065.046
7064.232
7063.532
7062.947
7062.475
7062.115
7061.865
7061.719
7061.67
7061.706
7061.814
7061.971
7062.152
7062.328
7062.463
7062.522
7062.467
7062.262
7061.873
7061.265
7060.415
7059.295
7057.896
7056.199
7054.201
7051.853
7049.093
7045.852
7042.163
7037.996
7033.186
7027.94
7020.726
7010.686
6997.051
6981.287
6963.469
6946.268
6958.098
7041.996
5657.586
5505.157
5323.756
5150.589
4981.735
4818.599
4662.062
4512.141
4369.022
4208.49
4072.988
3956.106
3838.353
3730.949
3631.228
3539.18
3455.718
3375.322
3257.703
3214.254
3145.113
3078.403
3024.519
2976.051
2931.697
2891.761
2854.752
2822.444
2796.764
2755.016
2727.188
2703.325
2679.56
2658.721
2639.342
2621.368
2606.845
2600.758
2569.924
2547.944
2537.025
2526.682
2515.884
2506.412
2497.522
2489.135
2481.195
2466.436
2460.263
2454.34
2446.466
2438.568
2431.814
2426.047
2421.742
2425.706
2337.059
2333.624
2335.078
2335.156
2332.952
2330.236
2328.549
2328.135
2328.615
2328.946
2332.583
2339.457
2346.695
2354.511
2364.786
2379.541
2401.159
2433.307
2472.779
2506.407
2510.182
2495.823
2493.625
2493.321
2480.475
2452.705
2418.565
2385.918
2357.967
2334.349
2313.62
2294.528
2276.489
2259.419
2243.248
2228.641
2216.83
2210.343
2212.712
2226.721
2253.588
2294.088
2348.008
2408.464
2448.838
2452.037
2418.569
2351.191
2259.253
2189.907
2175.073
2186.693
2204.018
2219.832
2232.715
2244.723
2257.482
2271.111
2285.203
2299.432
2313.473
2327.2
2340.785
2354.477
2368.473
2382.844
2397.48
2412.149
2426.644
2440.82
2454.521
2467.726
2480.578
2493.206
2505.645
2517.917
2530.178
2542.644
2555.519
2569.178
2584.019
2600.297
2618.059
2637.134
2657.227
2678.049
2699.332
2720.971
2743.097
2765.946
2789.735
2814.622
2840.711
2868.072
2896.778
2927.02
2959.215
2993.582
3029.96
3067.288
3104.139
3141.58
3180.501
3221.173
3263.709
3308.184
3354.521
3402.494
3451.787
3502.016
3552.699
3603.229
3652.905
3700.908
3746.344
3788.341
3826.052
3858.762
3886.091
3907.53
3922.897
3932.583
3937.335
3938.244
3936.74
3934.571
3933.549
3935.336
3941.343
3952.656
3969.9
3993.297
4022.64
4057.496
4097.197
4141.028
4188.232
4238.163
4290.171
4343.78
4398.344
4453.44
4508.435
4562.961
4616.859
4669.861
4723.014
4773.64
4877.115
4924.785
4970.568
5014.581
5059.316
5103.482
5147.36
5191.204
5234.733
5277.799
5320.138
5361.531
5401.955
5441.638
5480.974
5520.155
5559.286
5597.977
5635.664
5672.072
5707.365
5741.888
5775.783
5809.338
5842.697
5875.915
5908.79
5941.162
5972.805
6003.6
6033.421
6062.196
6089.738
6115.849
6140.711
6166.4
6195.451
6226.213
6254.458
6280.861
6305.586
6328.44
6349.526
6368.881
6386.534
6402.518
6416.874
6429.647
6440.893
6450.673
6459.059
6466.133
6471.987
6476.729
6480.478
6483.369
6485.554
6487.196
6488.474
6489.57
6490.673
6491.956
6493.582
6495.683
6498.359
6501.665
6505.633
6510.218
6515.5
6524.531
6467.526
6479.23
6485.15
6485.595
6487.023
6491.173
6496.341
6501.804
6507.09
6512.49
6517.912
6523.373
6528.92
6534.426
6539.668
6544.436
6548.7
6551.957
6554.49
6556.651
6559.181
6562.413
6566.242
6570.567
6575.355
6580.433
6585.621
6590.492
6594.533
6597.482
6599.625
6601.732
6604.58
6607.916
6610.217
6610.36
6608.205
6604.429
6600.301
6596.753
6594.148
6592.213
6590.42
6588.212
6585.106
6580.464
6573.804
6565.369
6555.722
6545.479
6535.391
6526.386
6519.495
6515.546
6514.024
6517.674
6525.847
6538.445
6555.087
6575.069
6597.438
6621.149
6645.193
6668.678
6690.886
6711.301
6729.586
6745.561
6759.158
6770.332
6779.169
6785.896
6790.776
6794.067
6796.025
6796.888
6796.871
6796.161
6794.92
6793.285
6791.373
6789.28
6787.08
6784.829
6782.568
6780.327
6778.13
6775.994
6773.936
6771.965
6770.088
6768.33
6766.688
6765.166
6763.769
6762.538
6761.311
6760.25
6759.372
6758.497
6757.702
6757.004
6756.389
6755.867
6755.439
6755.108
6754.873
6754.733
6754.678
6754.696
6754.766
6754.865
6754.959
6755.017
6754.994
6754.859
6754.566
6754.084
6753.374
6752.411
6751.169
6749.629
6747.773
6745.58
6743.028
6740.095
6736.712
6732.848
6728.505
6723.411
6717.145
6710.393
6702.065
6692.824
6683.15
6676.458
6672.067
6675.182
6685.036
2880.514
2933.443
3008.922
3103.081
3214.842
3343.48
3488.173
3648.62
3823.799
4009.155
4189.005
4394.199
4604.846
4820.438
5038.904
5257.359
5470.733
5677.834
5876.203
6050.857
6217.632
6367.582
6495.736
6599.229
6676.344
6725.692
6746.182
6737.517
6704.963
6642.488
6554.611
6444.757
6316.578
6172.837
6016.645
5851.039
5679.265
5504.518
5316.044
5139.987
4963.324
4789.782
4621.018
4457.74
4301.164
4152.04
4011.348
3878.022
3748.24
3629.959
3518.156
3413.249
3316.23
3226.577
3144.925
3080.222
2905.002
2841.793
2790.035
2738.986
2688.857
2641.846
2599.16
2560.802
2526.161
2493.796
2463.195
2435.957
2410.189
2385.016
2361.385
2340.196
2321.348
2304.388
2288.452
2272.614
2257.843
2243.596
2229.579
2216.594
2205.191
2195.243
2186.145
2177.114
2167.727
2158.999
2150.667
2142.132
2134.087
2127.077
2120.867
2114.989
2108.683
2102.166
2095.539
2091.714
2089.402
2086.034
2082.38
2079.484
2077.708
2076.926
2076.929
2078.32
2081.709
2086.616
2093.055
2101.355
2112.118
2126.079
2143.584
2164.333
2187.17
2209.723
2220.513
2214.472
2205.964
2201.811
2192.903
2173.028
2145.761
2118.376
2094.746
2074.871
2057.354
2041.043
2025.466
2010.902
1997.543
1986.48
1978.401
1975.746
1980.431
1993.67
2016.015
2044.788
2078.939
2115.066
2139.114
2140.432
2118.758
2079.859
2026.481
1976.33
1954.325
1957.346
1970.012
1982.215
1992.118
2002.142
2013.837
2027.053
2040.987
2055.245
2069.293
2082.866
2096.246
2109.784
2123.767
2138.326
2153.305
2168.322
2183.08
2197.481
2211.234
2224.255
2236.774
2249.002
2260.977
2272.654
2284.231
2295.94
2307.915
2320.89
2335.412
2351.707
2369.76
2389.303
2409.914
2431.238
2452.807
2474.402
2496.292
2518.872
2542.469
2567.322
2593.596
2621.413
2650.807
2681.701
2713.973
2747.605
2782.685
2819.301
2856.738
2894.488
2933.185
2973.604
3016.155
3060.987
3108.018
3156.987
3207.564
3259.376
3311.937
3364.6
3416.576
3466.896
3514.453
3558.137
3596.999
3630.186
3656.962
3676.744
3689.507
3695.502
3695.557
3691.046
3683.868
3676.235
3670.308
3668.031
3671.059
3680.633
3697.417
3721.552
3752.676
3790.158
3833.177
3880.806
3932.15
3986.312
4042.491
4099.955
4157.974
4215.93
4273.234
4329.407
4384.248
4437.191
4487.83
4535.227
4582.359
4630.781
4677.053
4720.892
4762.835
4803.826
4844.642
4885.587
4926.61
4967.666
5008.761
5049.883
5091.043
5132.277
5173.645
5215.096
5256.385
5297.156
5337.104
5375.977
5413.787
5450.569
5486.557
5521.846
5556.433
5590.322
5623.405
5655.626
5686.905
5717.181
5746.444
5774.616
5801.718
5828.332
5854.58
5881.084
5908.148
5935.389
5961.792
5986.718
6009.955
6031.488
6051.358
6069.589
6086.194
6101.185
6114.589
6126.447
6136.809
6145.734
6153.29
6159.556
6164.622
6168.597
6171.603
6173.781
6175.291
6176.315
6177.046
6177.69
6178.45
6179.525
6181.082
6183.261
6186.137
6189.759
6194.075
6199.061
6204.586
6210.649
6216.164
6219.913
6223.291
6228.012
6233.932
6240.505
6247.125
6252.784
6258.897
6264.67
6270.349
6275.92
6281.418
6286.868
6292.074
6296.739
6300.794
6304.3
6307.313
6309.918
6312.548
6315.479
6318.767
6322.459
6326.49
6330.778
6335.284
6339.823
6344.108
6347.887
6351.147
6354.096
6356.882
6359.379
6361.205
6361.962
6361.683
6360.824
6359.122
6356.493
6353.693
6351.266
6349.043
6346.508
6343.107
6338.329
6331.754
6323.299
6313.348
6302.534
6291.624
6281.524
6273.221
6267.697
6265.665
6268.175
6275.278
6287.08
6303.201
6322.862
6345.076
6368.757
6392.84
6416.383
6438.637
6459.082
6477.405
6493.47
6507.29
6518.758
6527.84
6534.77
6539.857
6543.366
6545.548
6546.634
6546.835
6546.334
6545.291
6543.846
6542.117
6540.202
6538.177
6536.105
6534.031
6531.991
6530.01
6528.107
6526.299
6524.597
6523.006
6521.534
6520.18
6518.939
6517.793
6516.743
6515.753
6514.92
6514.16
6513.375
6512.637
6511.961
6511.339
6510.781
6510.294
6509.889
6509.572
6509.345
6509.204
6509.141
6509.138
6509.171
6509.208
6509.214
6509.147
6508.968
6508.637
6508.108
6507.352
6506.329
6505.024
6503.4
6501.457
6499.166
6496.543
6493.551
6490.16
6486.354
6482.066
6477.341
6471.987
6466.23
6459.833
6452.688
6446.163
6440.842
6438.957
6440.558
6444.375
2701.08
2673.011
2642.572
2599.968
2573.584
2525.918
2523.546
2539.215
2569.271
2579.163
2571.348
2580.816
2612.957
2664.506
2734.81
2822.975
2927.805
3048.893
3186.479
3337.107
3502.66
3680.905
3869.165
4066.76
4271.509
4481.187
4693.464
4905.752
5115.633
5320.522
5517.3
5678.361
5850.698
5996.402
6119.308
6218.138
6290.209
6334.066
6349.292
6336.567
6297.317
6231.515
6140.46
6027.3
5895.592
5748.834
5590.498
5423.655
5251.093
5075.255
4898.256
4722.239
4548.184
4377.393
4211.412
4051.618
3898.96
3754.041
3617.204
3488.077
3366.058
3251.227
3143.686
3043.328
2950.149
2864.037
2784.774
2711.108
2639.255
2577.501
2524.828
2474.058
2424.45
2378.211
2336.537
2299.368
2265.766
2235.103
2207.041
2180.315
2154.339
2129.672
2106.869
2086.399
2068.195
2051.669
2036.314
2022.088
2007.993
1993.136
1978.788
1966.176
1955.289
1945.87
1937.259
1928.757
1920.066
1910.914
1901.641
1893.072
1885.508
1879.021
1873.141
1867.304
1861.108
1854.895
1848.777
1843.273
1838.552
1834.837
1832.136
1830.135
1828.585
1827.349
1826.633
1827.036
1829.19
1833.43
1839.725
1847.65
1857.238
1868.299
1880.488
1893.772
1908.05
1922.103
1931.249
1931.101
1925.228
1918.736
1909.065
1892.788
1871.367
1849.39
1830.227
1814.283
1800.323
1787.06
1774.261
1761.602
1750.204
1740.71
1735.269
1735.025
1740.643
1751.781
1768.937
1791.072
1813.908
1834.267
1847.401
1847.839
1834.507
1810.457
1777.896
1747.054
1729.813
1727.33
1734.218
1742.341
1749.362
1757.847
1768.819
1781.83
1795.611
1810.41
1824.863
1838.086
1851.012
1864.251
1878.262
1893.231
1908.836
1924.439
1939.621
1954.441
1968.232
1981.013
1993.242
2005.113
2016.479
2026.963
2037.315
2048.28
2058.903
2070.618
2084.538
2100.94
2119.635
2139.982
2161.236
2183.17
2205.021
2226.395
2247.843
2269.961
2293.13
2317.676
2343.896
2371.99
2401.881
2433.159
2465.619
2499.311
2534.237
2570.284
2607.021
2644.272
2682.609
2722.794
2765.399
2810.722
2858.7
2909.035
2961.416
3015.509
3070.825
3126.659
3182.09
3235.975
3286.958
3333.633
3374.731
3409.066
3435.679
3453.964
3463.538
3464.602
3458.114
3445.711
3429.897
3413.801
3400.22
3391.515
3389.484
3395.811
3411.377
3436.178
3469.542
3510.479
3557.824
3610.383
3667.013
3726.636
3788.205
3850.782
3913.436
3975.43
4036.051
4094.797
4151.199
4204.857
4255.584
4303.666
4350.296
4395.785
4438.96
4479.32
4517.685
4555.165
4592.517
4630.24
4668.603
4707.768
4747.882
4788.954
4830.92
4873.669
4917.035
4960.793
5004.644
5048.208
5091.079
5132.948
5173.708
5213.335
5251.824
5289.166
5325.337
5360.318
5394.124
5426.749
5458.142
5488.308
5517.348
5545.336
5572.399
5598.924
5624.973
5650.776
5676.404
5701.916
5726.759
5750.337
5772.375
5792.823
5811.698
5829.018
5844.78
5858.985
5871.648
5882.8
5892.483
5900.745
5907.647
5913.258
5917.662
5920.96
5923.273
5924.746
5925.549
5925.88
5925.958
5926.019
5926.298
5927.021
5928.379
5930.521
5933.523
5937.408
5942.096
5947.498
5953.331
5959.359
5965.15
5971.057
5977.618
5984.265
5990.346
5995.997
6001.602
6007.929
6012.396
6017.724
6023.25
6028.712
6034.084
6039.296
6044.205
6048.692
6052.714
6056.216
6059.177
6061.732
6064.167
6066.688
6069.387
6072.322
6075.522
6079.005
6082.748
6086.623
6090.419
6093.964
6097.261
6100.477
6103.737
6107.091
6110.349
6112.797
6113.637
6112.77
6110.874
6108.952
6107.893
6107.718
6107.141
6105.138
6101.47
6096.175
6089.14
6080.309
6069.948
6058.624
6047.108
6036.32
6027.281
6021.028
6018.377
6020.224
6026.704
6038.063
6053.921
6073.538
6095.909
6119.886
6144.326
6168.21
6190.728
6211.323
6229.655
6245.618
6259.256
6270.475
6279.323
6286.124
6291.15
6294.643
6296.839
6297.96
6298.21
6297.766
6296.786
6295.409
6293.753
6291.914
6289.971
6287.984
6286.004
6284.069
6282.206
6280.437
6278.786
6277.265
6275.876
6274.622
6273.503
6272.512
6271.631
6270.837
6270.099
6269.43
6268.813
6268.196
6267.52
6266.91
6266.323
6265.768
6265.264
6264.829
6264.472
6264.204
6264.025
6263.931
6263.904
6263.923
6263.954
6263.958
6263.89
6263.706
6263.366
6262.82
6262.031
6260.958
6259.584
6257.879
6255.836
6253.444
6250.727
6247.676
6244.281
6240.573
6236.524
6232.179
6227.432
6222.427
6217.178
6211.85
6207.161
6203.574
6201.882
6202.458
6204.335
2980.905
2947.528
2917.555
2860.98
2811.765
2728.226
2678.608
2628.645
2579.462
2530.881
2483.796
2439.575
2397.242
2358.607
2325.158
2296.69
2212.988
2203.005
2202.103
2206.007
2210.93
2222.199
2245.994
2285.492
2341.719
2413.808
2502.459
2608.684
2731.392
2869.889
3023.102
3189.8
3368.863
3558.757
3757.494
3962.934
4172.811
4385.026
4597.697
4807.365
5009.346
5201.062
5371.083
5535.852
5680.132
5802.933
5901.451
5972.973
6016.078
6030.342
6016.145
5974.77
5907.359
5815.376
5701.478
5569.136
5422.004
5263.669
5097.375
4925.988
4751.78
4576.417
4401.887
4230.079
4061.768
3897.888
3739.784
3588.774
3445.713
3310.937
3184.419
3065.721
2954.435
2850.22
2752.815
2662.05
2578.187
2500.774
2430.113
2365.67
2307.381
2254.632
2204.996
2157.645
2113.473
2073.477
2037.909
2006.066
1977.182
1950.336
1924.463
1899.324
1875.322
1852.975
1833.007
1815.419
1799.8
1785.476
1771.752
1757.647
1743.023
1729.045
1717.052
1706.337
1697.474
1689.789
1681.828
1673.047
1663.481
1653.914
1645.33
1637.682
1631.398
1626.17
1620.788
1614.54
1607.583
1600.292
1593.793
1588.512
1585.073
1583.475
1582.041
1580.102
1577.668
1575.15
1573.349
1573.961
1578.884
1584.628
1591.58
1599.214
1606.954
1614.419
1622.018
1630.158
1638.239
1646.096
1650.01
1646.536
1639.387
1629.057
1614.307
1596.544
1579.119
1564.473
1552.753
1542.649
1532.305
1521.833
1510.658
1499.892
1491.083
1487.112
1487.642
1494.271
1505.794
1519.27
1534.425
1549.336
1560.4
1566.751
1565.934
1558.693
1544.792
1525.425
1507.932
1496.999
1492.075
1493.606
1498.61
1503.627
1511.258
1522.338
1536.096
1549.875
1564.812
1580.119
1593.039
1605.097
1617.724
1631.748
1647.507
1664.195
1680.427
1695.811
1711.944
1726.029
1738.26
1750.153
1761.884
1772.745
1782.509
1790.704
1798.772
1807.638
1817.835
1830.958
1847.528
1867.29
1889.04
1911.239
1934.423
1956.649
1977.172
1997.687
2019.065
2041.682
2065.811
2091.699
2119.799
2150.183
2181.913
2214.749
2248.819
2283.851
2319.408
2355.169
2391.374
2428.866
2468.474
2510.994
2556.924
2606.104
2658.113
2712.724
2769.749
2828.766
2889.023
2949.418
3008.5
3064.515
3115.727
3160.539
3197.312
3224.66
3241.524
3247.253
3241.905
3226.499
3203.023
3174.9
3146.574
3121.77
3103.767
3094.291
3095.746
3109.503
3135.334
3171.962
3217.718
3270.898
3329.928
3393.391
3459.993
3528.474
3597.662
3666.427
3733.824
3799.026
3861.408
3920.468
3975.912
4027.671
4075.95
4121.079
4163.188
4202.217
4238.373
4272.486
4305.549
4338.732
4372.698
4407.55
4443.857
4482.339
4522.994
4565.623
4609.946
4655.58
4702.077
4748.945
4795.673
4841.808
4887.016
4931.078
4973.837
5015.197
5055.103
5093.507
5130.384
5165.727
5199.522
5231.783
5262.576
5292.016
5320.23
5347.387
5373.691
5399.286
5424.257
5448.739
5472.659
5495.855
5517.927
5538.606
5557.806
5575.52
5591.752
5606.493
5619.739
5631.494
5641.78
5650.626
5658.071
5664.16
5668.949
5672.512
5674.941
5676.35
5676.882
5676.72
5676.085
5675.229
5674.43
5673.975
5674.137
5675.146
5677.174
5680.293
5684.49
5689.652
5695.605
5702.089
5708.868
5715.799
5722.805
5729.568
5735.699
5741.34
5746.871
5752.411
5757.382
5763.933
5769.718
5775.297
5780.77
5786.088
5791.21
5796.047
5800.486
5804.422
5807.809
5810.663
5813.086
5815.215
5817.211
5819.19
5821.255
5823.499
5825.983
5828.727
5831.696
5834.83
5838.104
5841.553
5845.235
5849.154
5853.166
5856.878
5859.762
5861.474
5862.224
5862.613
5862.811
5862.567
5861.872
5860.799
5859.162
5856.732
5852.989
5847.045
5838.736
5828.537
5817.147
5805.423
5794.34
5784.938
5778.266
5775.241
5776.423
5782.41
5793.257
5808.664
5827.961
5850.14
5874.029
5898.438
5922.295
5944.764
5965.331
5983.699
5999.554
6012.582
6023.066
6031.446
6037.982
6042.837
6046.225
6048.368
6049.471
6049.724
6049.3
6048.35
6047.011
6045.399
6043.608
6041.715
6039.781
6037.86
6035.995
6034.217
6032.553
6031.039
6029.691
6028.509
6027.491
6026.64
6025.941
6025.359
6024.847
6024.366
6023.954
6023.539
6023.038
6022.473
6021.937
6021.397
6020.854
6020.339
6019.878
6019.491
6019.193
6018.992
6018.885
6018.86
6018.892
6018.945
6018.977
6018.941
6018.786
6018.457
6017.912
6017.101
6015.982
6014.535
6012.743
6010.609
6008.132
6005.327
6002.22
5998.83
5995.207
5991.367
5987.366
5983.195
5978.921
5974.668
5970.521
5967.042
5964.439
5963.171
5963.507
5965.482
3173.69
3135.451
3093.223
3039.481
2999.931
2924.131
2884.431
2844.835
2804.323
2762.814
2720.84
2678.314
2633.554
2588.046
2539.452
2422.456
2372.705
2323.245
2274.019
2225.356
2177.648
2131.801
2088.165
2047.591
2010.967
1979.426
1953.805
1935.925
1925.424
1921.47
1924.45
1937.087
1961.672
2000.342
2054.591
2125.724
2213.481
2317.785
2438.499
2575.049
2726.434
2891.379
3068.448
3256.048
3452.437
3655.508
3862.821
4071.742
4280.042
4485.59
4685.128
4876.16
5053.061
5215.348
5357.654
5477.215
5571.438
5638.209
5676.388
5685.815
5667.017
5621.192
5549.919
5455.019
5339.039
5205.245
5057.37
4899.034
4733.66
4564.214
4392.674
4220.908
4050.429
3882.86
3719.07
3559.574
3405.474
3257.991
3118.343
2987.436
2865.421
2751.747
2645.448
2545.71
2452.177
2364.805
2284.126
2210.614
2144.685
2085.242
2030.612
1979.898
1932.25
1887.124
1844.853
1806.504
1772.803
1743.06
1716.241
1691.164
1666.741
1642.559
1618.981
1596.856
1577.977
1561.3
1546.569
1533.441
1520.67
1506.941
1492.35
1477.982
1466.33
1456.639
1448.343
1442.109
1434.989
1426.152
1416.083
1404.748
1394.914
1388.912
1383.809
1379.264
1374.623
1368.055
1359.927
1351.059
1342.574
1337.601
1335.611
1334.617
1333.549
1330.968
1326.949
1322.128
1317.82
1316.272
1321.091
1328.333
1334.026
1339.232
1343.967
1346.818
1348.918
1351.843
1356.702
1365.084
1369.854
1367.738
1361.633
1351.549
1337.082
1320.708
1304.316
1295.319
1290.536
1283.561
1276.196
1268.624
1258.402
1247.663
1238.948
1234.543
1235.499
1243.212
1256.027
1268.079
1277.464
1286.323
1291.262
1292.629
1290.134
1285.417
1281.405
1272.362
1262.946
1257.013
1252.306
1250.566
1252.056
1255.261
1262.1
1273.412
1289.25
1306.253
1320.15
1334.036
1347.089
1358.17
1369.922
1384.066
1401.292
1420.055
1438.173
1453.571
1469.607
1484.637
1496.495
1508.094
1519.897
1530.197
1538.796
1544.273
1547.453
1553.094
1561.363
1573.814
1591.317
1613.202
1637.137
1659.991
1684.465
1708.3
1727.006
1745.737
1765.678
1787.016
1810.381
1835.991
1864.354
1895.792
1927.93
1961.054
1995.611
2030.949
2066.224
2100.893
2135.49
2171.422
2209.627
2251.472
2297.987
2348.703
2402.767
2460.083
2520.726
2584.399
2650.377
2717.464
2783.9
2847.202
2904.9
2955.185
2996.221
3025.859
3041.952
3043.375
3030.222
3003.146
2964.369
2919.093
2874.024
2834.498
2802.73
2782.549
2777.17
2788.645
2816.213
2857.666
2910.204
2971.171
3038.464
3110.445
3185.692
3262.757
3340.208
3416.667
3490.939
3562.037
3629.229
3691.975
3749.936
3802.957
3851.073
3894.483
3933.484
3968.4
3999.794
4028.688
4055.581
4082.524
4111.589
4142.51
4174.963
4211.034
4250.958
4294.343
4340.64
4389.144
4439.075
4489.681
4540.3
4590.397
4639.56
4687.479
4733.929
4778.753
4821.837
4863.091
4902.452
4939.889
4975.401
5009.019
5040.823
5070.935
5099.504
5126.694
5152.688
5177.673
5201.772
5225.013
5247.414
5268.915
5289.342
5308.478
5326.228
5342.568
5357.494
5370.997
5383.072
5393.717
5402.945
5410.773
5417.221
5422.317
5426.097
5428.612
5429.938
5430.175
5429.464
5428.003
5426.045
5423.894
5421.891
5420.391
5419.74
5420.24
5422.1
5425.395
5430.079
5435.976
5442.831
5450.343
5458.178
5466.046
5473.625
5480.681
5487.228
5493.486
5499.553
5505.416
5511.213
5516.704
5522.236
5527.705
5533.111
5538.417
5543.54
5548.366
5552.765
5556.629
5559.9
5562.552
5564.624
5566.225
5567.505
5568.589
5569.61
5570.717
5572.053
5573.729
5575.835
5578.37
5581.352
5584.777
5588.6
5592.727
5597.009
5601.223
5605.092
5608.394
5611.068
5613.12
5614.508
5615.169
5615.388
5615.462
5614.913
5613.021
5609.516
5604.26
5597.13
5588.273
5578.169
5567.535
5557.267
5548.377
5541.914
5538.829
5539.732
5545.214
5555.372
5570.021
5588.526
5609.896
5632.981
5656.612
5679.73
5701.477
5721.174
5738.523
5753.642
5765.808
5775.686
5783.684
5789.921
5794.558
5797.803
5799.856
5800.912
5801.151
5800.732
5799.798
5798.486
5796.909
5795.158
5793.303
5791.406
5789.522
5787.706
5785.996
5784.428
5783.045
5781.871
5780.904
5780.147
5779.609
5779.258
5779.032
5778.866
5778.711
5778.476
5778.241
5777.982
5777.586
5777.074
5776.549
5775.999
5775.457
5774.958
5774.533
5774.206
5773.992
5773.895
5773.901
5773.985
5774.107
5774.218
5774.264
5774.184
5773.912
5773.398
5772.592
5771.453
5769.952
5768.07
5765.82
5763.227
5760.321
5757.137
5753.725
5750.166
5746.523
5742.851
5739.171
5735.511
5732.021
5728.758
5726.11
5724.182
5723.381
5723.852
5726.184
3160.899
3112.916
3065.81
3006.812
2948.111
2895.487
2847.119
2802.712
2761.594
2720.464
2613.734
2574.733
2535.797
2496.137
2455.4
2413.543
2370.412
2325.646
2279.322
2232.177
2185.138
2136.169
2086.801
2037.25
1987.9
1939.045
1891.04
1843.994
1798.789
1756.698
1719.04
1687.858
1663.519
1646.945
1639.162
1640.767
1653.436
1678.678
1717.668
1771.719
1841.605
1927.758
2030.288
2149.071
2283.587
2432.912
2595.812
2770.891
2956.248
3150.011
3349.859
3552.479
3756.698
3960.346
4161.612
4358.042
4545.409
4719.039
4875.507
5011.636
5124.071
5210.309
5268.717
5298.59
5300.22
5274.502
5222.761
5146.662
5048.148
4929.831
4794.623
4646.35
4488.655
4324.869
4158.561
3991.718
3825.672
3661.969
3500.923
3342.715
3188.734
3040.133
2897.96
2764.02
2639.904
2525.482
2419.467
2320.19
2226.474
2138.01
2055.045
1978.486
1909.634
1849.071
1795.11
1745.349
1698.416
1653.658
1610.76
1570.194
1533.911
1503.144
1475.679
1451.579
1429.334
1406.793
1383.402
1359.706
1336.215
1316.833
1304.494
1291.77
1280.026
1269.086
1255.821
1240.835
1225.585
1212.151
1204.634
1199.753
1194.805
1188.517
1179.275
1167.686
1154.823
1143.89
1138.239
1135.756
1133.367
1129.194
1121.842
1111.981
1100.831
1090.075
1084.575
1085.024
1086.047
1085.3
1081.837
1075.744
1067.708
1059.632
1055.848
1060.783
1070.825
1076.673
1080.015
1081.463
1079.062
1074.58
1071.306
1072.888
1086.69
1093.928
1091.238
1085.841
1075.195
1059.071
1042.424
1026.686
1023.355
1026.563
1025.945
1022.105
1016.028
1005.374
992.8342
982.3096
976.8206
978.3654
988.3956
1002.971
1014.118
1022.963
1026.315
1025.016
1021.591
1017.738
1014.764
1017.844
1018.996
1016.928
1014.866
1010.562
1005.734
1002.553
1003.096
1009.316
1022.773
1041.951
1061.584
1076.157
1088.967
1100.747
1109.875
1119.761
1134.403
1154.55
1175.82
1196.113
1213.966
1227.426
1241.478
1254.107
1266.549
1280.275
1291.07
1296.46
1297.061
1295.368
1295.51
1299.908
1311.09
1330.842
1357.573
1385.777
1411.982
1435.672
1458.122
1474.702
1491.283
1509.962
1529.716
1551.333
1575.267
1603.293
1637.988
1670.578
1704.233
1740.472
1776.908
1811.94
1844.692
1876.39
1909.986
1945.999
1986.748
2033.898
2086.163
2142.111
2202.291
2267.318
2336.969
2410.373
2486.035
2561.898
2635.091
2702.191
2760.396
2807.668
2841.191
2857.398
2854.451
2832.09
2789.854
2729.982
2660.891
2593.139
2533.241
2483.895
2449.226
2434.697
2444.421
2475.955
2524.962
2586.89
2658.005
2735.619
2817.91
2903.512
2990.896
3078.366
3164.216
3246.933
3325.334
3398.577
3466.051
3527.329
3582.157
3630.415
3672.219
3708.094
3738.706
3764.558
3786.672
3807.019
3827.063
3847.546
3871.107
3899.288
3932.602
3971.718
4016.268
4065.311
4117.656
4172.071
4227.441
4282.873
4337.71
4391.48
4443.828
4494.481
4543.227
4589.902
4634.38
4676.575
4716.445
4753.987
4789.241
4822.289
4853.254
4882.288
4909.57
4935.293
4959.638
4982.766
5004.782
5025.713
5045.512
5064.188
5081.63
5097.755
5112.539
5125.974
5138.056
5148.775
5158.133
5166.136
5172.783
5178.074
5182.02
5184.632
5185.928
5185.946
5184.748
5182.458
5179.319
5175.61
5171.707
5168.069
5165.171
5163.435
5163.257
5164.917
5168.483
5173.869
5180.883
5189.119
5198.078
5207.252
5216.197
5224.611
5232.407
5239.608
5246.255
5252.408
5258.269
5263.769
5269.254
5274.732
5280.178
5285.598
5290.984
5296.22
5301.141
5305.597
5309.443
5312.597
5315.005
5316.629
5317.548
5317.931
5317.927
5317.72
5317.537
5317.61
5318.128
5319.247
5321.051
5323.58
5326.812
5330.706
5335.192
5340.137
5345.289
5350.3
5354.852
5358.788
5362.103
5364.86
5367.059
5368.824
5370.076
5370.372
5369.215
5366.615
5362.722
5357.339
5350.4
5342.264
5333.528
5324.976
5317.515
5312.084
5309.578
5310.727
5315.939
5325.552
5339.223
5356.396
5376.17
5397.486
5419.277
5440.581
5460.62
5478.71
5494.415
5507.979
5519.425
5528.751
5536.236
5542.058
5546.398
5549.446
5551.371
5552.339
5552.532
5552.094
5551.148
5549.834
5548.268
5546.532
5544.688
5542.799
5540.932
5539.147
5537.504
5536.038
5534.79
5533.792
5533.053
5532.578
5532.381
5532.433
5532.635
5532.875
5533.064
5533.113
5533.121
5533.036
5532.757
5532.282
5531.748
5531.166
5530.571
5530.01
5529.529
5529.166
5528.944
5528.871
5528.937
5529.112
5529.347
5529.584
5529.76
5529.814
5529.676
5529.269
5528.525
5527.397
5525.857
5523.892
5521.501
5518.729
5515.66
5512.353
5508.865
5505.311
5501.816
5498.429
5495.165
5492.032
5489.156
5486.562
5484.512
5483.116
5482.726
5483.452
5486.182
2900.977
2837.034
2707.284
2656.881
2608.065
2562.911
2520.866
2481.189
2443.048
2406.016
2369.942
2332.944
2295.243
2256.462
2216.55
2175.19
2132.252
2087.58
2041.015
1992.997
1944.919
1895.95
1846.343
1796.294
1745.524
1693.867
1642.058
1591.031
1541.759
1495.797
1454.971
1420.581
1393.411
1374.364
1364.568
1365.018
1376.988
1401.557
1440.014
1493.162
1561.742
1646.283
1747.027
1863.851
1996.271
2143.394
2303.951
2476.442
2658.476
2847.207
3040.628
3237.364
3436.611
3636.347
3833.288
4024.137
4204.85
4371.004
4518.711
4644.796
4746.237
4820.897
4867.632
4886.305
4877.825
4843.55
4785.021
4704.024
4602.208
4482.219
4346.687
4198.94
4043.025
3882.366
3720.207
3559.34
3401.216
3246.16
3093.138
2941.728
2793.935
2651.547
2516.151
2389.906
2274.608
2169.678
2072.975
1982.173
1895.674
1813.044
1734.681
1662.287
1598.412
1544.274
1497.559
1454.36
1412.056
1370.52
1329.513
1289.51