/*--------------------------------*- C++ -*----------------------------------*\
| =========                 |                                                 |
| \\      /  F ield         | foam-extend: Open Source CFD                    |
|  \\    /   O peration     | Version:     3.1                                |
|   \\  /    A nd           | Web:         http://www.extend-project.de       |
|    \\/     M anipulation  |                                                 |
\*---------------------------------------------------------------------------*/
FoamFile
{
    version     2.0;
    format      ascii;
    class       volScalarField;
    location    "20";
    object      alpha1;
}
// * * * * * * * * * * * * * * * * * * * * * * * * * * * * * * * * * * * * * //

dimensions      [0 0 0 0 0 0 0];

internalField   nonuniform List<scalar> 
119952
(
1
1
1
1
0.9999999
1
1
0.9999999
1
0.9999999
1
0.9999999
0.9999999
1
0.9999997
1
0.9999998
1
0.9999997
1
1
0.9999998
0.9999999
1
0.9999999
1
1
1
1
1
1
1
1
1
1
1
1
1
1
1
1
1
1
1
1
1
1
1
1
1
1
1
1
1
1
1
1
1
1
1
1
1
1
1
1
1
1
1
1
1
1
1
1
1
1
1
1
1
1
1
1
1
1
1
1
1
0.9999999
1
1
0.9999999
0.9999999
1
1
1
1
0.9999998
0.9999962
0.9999969
1
1
1
1
1
1
0.9999999
0.9999997
1
1
0.9999999
1
1
1
0.9999999
0.9999999
1
0.9999998
0.9999999
1
1
1
0.9999998
0.9999999
1
1
1
1
1
1
1
1
1
1
1
1
1
1
1
1
1
1
1
1
1
1
1
1
1
1
1
1
1
1
1
1
1
1
1
1
1
1
1
1
1
1
1
1
1
1
1
1
1
1
1
1
1
1
1
1
1
1
1
1
1
1
1
1
1
1
1
1
1
1
1
1
1
1
1
1
1
1
1
1
1
1
1
1
1
1
1
1
1
1
1
1
1
1
1
1
1
1
1
1
1
1
1
1
1
1
1
1
1
1
1
1
1
1
1
1
1
1
1
1
1
1
1
1
1
1
1
1
1
1
1
1
1
1
1
1
1
1
1
1
1
1
1
1
1
1
1
1
1
1
1
1
1
1
1
1
1
1
1
1
1
1
1
1
1
1
1
1
1
1
1
1
1
1
1
1
1
1
1
1
1
1
1
1
1
1
1
1
1
1
1
1
1
1
1
1
1
1
1
1
1
1
1
1
1
1
1
1
1
1
1
1
1
1
1
1
0.9999999
0.9999999
1
1
1
1
1
1
1
1
1
0.9999999
0.9999993
0.9999994
1
1
1
1
1
1
1
1
1
1
1
1
1
1
1
1
1
1
1
1
1
1
1
1
1
1
1
1
1
1
1
1
1
1
1
1
1
1
1
1
1
1
1
1
1
1
1
1
1
0.9999993
0.9999982
0.9999998
1
1
1
1
1
0.9999998
1
1
1
1
1
1
1
0.9999998
1
1
0.9999998
1
1
1
0.9999998
1
1
1
1
1
1
1
1
1
1
1
1
1
1
1
1
1
1
1
1
1
1
1
1
1
1
1
1
1
1
1
1
1
1
1
1
1
1
1
1
0.9999998
0.9999996
0.9999995
0.9999996
0.9999998
1
1
1
1
1
1
1
1
1
1
1
1
1
1
1
1
1
1
1
1
0.9999999
0.9999997
0.9999986
0.9999962
0.999994
0.9999947
0.9999981
0.9999998
1
1
0.9999999
0.9999997
0.9999991
0.9999961
0.999979
0.9998678
0.9995854
0.9995694
0.9997934
0.9999696
0.9999989
0.9999997
0.9999993
0.999996
0.9999757
0.9999629
0.9999715
0.9999924
0.9999995
1
1
1
1
1
1
1
1
1
1
1
1
1
1
1
1
1
1
0.9999999
0.9999996
0.9999989
0.9999988
0.9999993
0.9999999
1
1
1
1
1
1
1
1
1
1
1
1
1
1
1
1
1
1
1
1
1
1
1
1
1
0.9999999
0.9999998
0.9999998
0.9999999
1
1
1
1
1
1
1
1
1
1
1
1
1
1
1
1
1
1
1
1
1
1
1
1
1
1
1
1
1
1
1
1
1
1
1
1
1
1
1
1
1
1
1
1
1
1
1
1
1
1
1
1
1
1
1
1
1
1
1
1
1
1
1
1
1
1
1
1
1
1
1
1
1
1
1
1
1
1
1
1
1
1
1
1
1
1
1
1
1
1
1
1
1
1
1
1
1
1
1
1
1
1
1
1
1
1
1
0.9999973
0.9999811
0.9999924
0.9999874
0.9999798
0.9999828
0.9999945
0.9999995
1
1
0.9999999
1
1
1
1
1
1
1
1
1
1
1
1
1
1
1
0.9999999
0.9999995
0.9999985
0.9999965
0.9999964
0.9999984
0.9999998
1
1
1
1
1
1
1
1
1
1
1
1
1
0.9999999
0.9999998
0.9999997
0.9999997
0.9999999
1
1
1
1
1
1
1
1
1
1
1
0.9999999
0.9999999
0.9999999
0.9999997
0.999999
0.9999967
0.9999874
0.999962
0.9999584
0.99998
0.9999971
0.9999999
1
0.9999999
0.9999997
0.9999993
0.9999993
0.9999996
0.9999998
0.9999992
0.9999879
0.9999733
0.9999733
0.9999862
0.9999979
0.9999999
1
0.9999993
0.9999981
0.9999982
0.9999992
0.9999999
1
1
1
1
1
1
1
1
0.9999999
0.9999996
0.999999
0.9999979
0.9999976
0.9999981
0.9999994
1
0.9999999
0.9999995
0.9999962
0.9999947
0.999996
0.9999989
0.9999999
1
1
1
1
1
1
1
1
1
1
0.9999999
0.9999995
0.9999991
0.9999991
0.9999995
0.9999998
0.9999992
0.9999898
0.9999724
0.9999824
0.9999955
0.9999996
0.9999999
1
1
1
1
1
1
1
1
1
1
1
1
1
1
1
1
1
1
1
1
1
1
1
1
1
1
1
1
1
1
1
1
1
1
1
1
1
1
1
1
1
1
1
1
1
1
1
1
1
1
1
1
1
1
1
1
1
1
1
1
1
1
1
1
1
1
1
1
1
1
1
1
1
1
1
1
1
1
1
1
1
1
1
1
1
1
1
0.9999999
0.9999995
0.9999982
0.9999962
0.999997
0.9999987
0.9999992
0.9999987
0.9999941
0.9999728
0.9999469
0.9999444
0.9999511
0.9999753
0.9999934
0.9999989
0.9999998
0.9999999
0.9999999
0.9999999
1
1
1
1
1
1
0.9999999
1
1
0.9999999
0.9999999
0.9999998
0.9999996
0.9999992
0.9999976
0.9999884
0.9999583
0.9999021
0.9999129
0.9999694
0.9999963
0.9999997
0.9999997
0.9999995
0.9999985
0.9999931
0.9999594
0.9996906
0.998043
0.9970502
0.9977504
0.9993917
0.999944
0.9999929
0.9999944
0.9999916
0.9999463
0.9998053
0.9998065
0.9999172
0.9999856
0.9999985
0.9999998
1
1
1
1
1
1
1
1
1
1
1
1
1
0.9999999
0.9999999
0.9999994
0.9999964
0.9999773
0.9999035
0.999891
0.9999426
0.9999917
0.9999997
1
1
1
1
1
1
1
1
1
1
1
1
1
1
1
1
1
1
1
1
1
1
1
0.9999999
0.9999993
0.9999967
0.9999958
0.9999973
0.9999995
1
1
1
1
1
1
1
1
1
1
1
1
1
1
1
1
1
1
1
1
1
1
1
1
1
1
1
1
1
1
1
1
1
1
1
1
1
1
1
1
1
1
1
1
1
1
1
1
1
1
1
1
1
1
1
1
1
1
1
1
1
1
1
1
1
1
0.9999999
0.9999992
0.9999991
0.9999994
0.9999999
1
1
1
1
1
1
1
0.9999993
0.9999985
0.9999986
0.9999995
0.9999999
1
1
1
1
1
1
1
1
1
1
1
0.9999999
0.9999993
0.9999975
0.9999967
0.9999972
0.9999972
0.999977
0.9998642
0.9998474
0.9998884
0.9999749
0.9999986
1
1
0.9999999
0.9999991
0.999995
0.9999807
0.9999709
0.9999807
0.9999958
0.9999997
0.9999997
0.9999989
0.9999955
0.9999947
0.9999963
0.9999992
1
1
1
1
1
1
1
1
1
0.9999999
0.9999998
0.9999987
0.9999941
0.9999793
0.9999519
0.9999434
0.9999632
0.9999921
0.9999996
1
1
1
1
0.9999999
0.9999998
0.9999997
0.9999997
0.9999998
0.9999999
0.9999998
0.9999995
0.9999982
0.9999928
0.9999835
0.9999858
0.9999953
0.9999996
1
1
1
1
1
1
1
1
0.9999997
0.9999982
0.9999934
0.9999834
0.9999783
0.9999809
0.9999929
0.9999952
0.9999762
0.9998346
0.9998002
0.9998033
0.9999215
0.9999904
0.9999996
0.9999997
0.9999994
0.9999981
0.9999867
0.9999687
0.9999687
0.9999821
0.9999969
0.9999998
0.9999999
0.9999999
0.9999999
0.9999999
0.9999998
0.9999999
1
0.9999999
0.9999999
0.9999999
0.9999999
0.9999997
0.9999989
0.9999977
0.9999973
0.9999975
0.9999979
0.9999989
0.9999999
0.9999998
0.9999984
0.9999821
0.9999732
0.9999732
0.9999791
0.9999948
0.9999996
0.9999996
0.9999987
0.999995
0.9999916
0.9999953
0.999999
0.9999999
1
1
1
1
1
0.9999999
0.9999998
0.9999997
0.9999997
0.9999998
0.9999998
0.9999997
0.999997
0.9999775
0.9999694
0.9999827
0.9999963
0.9999986
0.9999961
0.9999774
0.9999636
0.9999756
0.9999938
0.9999996
1
1
1
1
1
1
1
0.9999999
0.9999999
1
1
1
0.9999999
1
1
1
1
1
1
1
1
1
1
1
1
1
1
1
1
1
1
1
1
1
1
1
1
1
1
1
1
1
1
1
1
1
1
1
1
1
1
1
1
1
1
1
1
1
1
1
1
1
1
1
1
1
1
1
1
1
1
1
1
1
1
1
1
1
1
1
1
1
1
1
0.9999999
0.9999999
0.9999998
0.9999998
0.9999997
0.9999997
0.9999997
0.9999996
0.9999987
0.9999929
0.9999783
0.9999737
0.9999785
0.9999832
0.9999772
0.9999205
0.9997022
0.9996215
0.9996989
0.9998773
0.9999481
0.9999277
0.9997682
0.9993969
0.9989085
0.9990121
0.9995223
0.9998658
0.9999331
0.9999342
0.9999245
0.9999074
0.9999456
0.9999895
0.9999992
0.9999992
0.9999987
0.9999967
0.9999896
0.9999856
0.9999922
0.9999987
0.9999997
0.9999995
0.9999981
0.9999947
0.9999907
0.9999838
0.9999508
0.9998143
0.9993584
0.9992775
0.9996188
0.9999361
0.9999954
0.9999965
0.999996
0.9999942
0.9999871
0.9999423
0.9994266
0.9940166
0.9867789
0.9921837
0.9982466
0.9998409
0.9999783
0.9999806
0.9999615
0.9997123
0.9994533
0.9995427
0.9998386
0.9999742
0.9999961
0.9999997
1
1
1
1
1
1
0.9999999
0.9999999
0.9999997
0.9999994
0.9999994
0.9999997
0.9999999
0.9999998
0.9999995
0.9999971
0.9999785
0.9998227
0.9991764
0.9990842
0.9995311
0.9999279
0.9999963
0.9999999
1
1
1
1
1
1
1
1
1
1
1
1
1
0.9999999
0.9999999
0.9999999
0.9999999
0.9999999
1
1
0.9999999
0.9999998
0.9999989
0.9999908
0.9999663
0.9999657
0.9999854
0.9999977
0.9999999
0.9999999
0.9999999
0.9999996
0.9999982
0.9999978
0.9999985
0.9999997
1
1
1
1
1
1
1
1
1
1
1
1
1
1
1
1
1
0.9999999
0.9999995
0.9999984
0.9999983
0.9999991
0.9999998
1
1
1
1
1
1
1
1
1
1
1
1
1
0.9999999
0.9999998
0.9999998
0.9999999
1
1
1
1
1
1
1
1
1
1
1
1
0.9999999
0.9999996
0.9999971
0.9999896
0.9999884
0.9999928
0.9999986
0.9999999
0.9999999
0.9999998
0.9999998
0.9999998
0.9999999
0.9999997
0.9999949
0.9999818
0.9999814
0.9999914
0.9999986
0.9999999
0.9999999
0.9999999
0.9999999
0.9999999
1
1
1
1
1
1
0.9999999
0.9999999
0.9999999
0.9999999
0.9999996
0.9999985
0.9999938
0.9999689
0.9998004
0.9996666
0.9996767
0.9998641
0.9999814
0.9999986
0.9999987
0.9999987
0.9999988
0.9999993
0.9999994
0.999999
0.9999966
0.9999828
0.9999101
0.9998492
0.9998832
0.9999628
0.9999963
0.9999975
0.9999937
0.999988
0.9999914
0.9999979
0.9999998
1
1
1
1
1
1
1
0.9999998
0.9999996
0.9999992
0.999998
0.999993
0.999969
0.9998367
0.9994044
0.9994157
0.9997257
0.999956
0.9999984
1
1
0.9999999
0.9999995
0.9999974
0.9999872
0.9999479
0.999918
0.9999501
0.9999899
0.9999995
0.9999996
0.9999945
0.9999414
0.9999169
0.9999295
0.9999786
0.9999983
1
1
1
1
1
0.9999999
0.9999998
0.9999995
0.9999992
0.9999983
0.9999814
0.9996756
0.9993877
0.9994063
0.999748
0.9999638
0.9999809
0.999965
0.9999591
0.9999784
0.999993
0.9999975
0.9999974
0.999995
0.9999769
0.9999324
0.9999276
0.9999523
0.99999
0.9999993
1
1
1
1
1
1
1
1
1
0.9999998
0.999998
0.9999923
0.9999894
0.9999916
0.9999954
0.9999857
0.9999201
0.9999094
0.9999106
0.999965
0.9999959
0.9999998
0.9999999
0.9999995
0.9999972
0.9999941
0.9999946
0.9999974
0.9999994
0.9999984
0.9999744
0.9999428
0.9999443
0.9999754
0.9999963
0.9999999
1
1
1
1
1
0.9999998
0.9999983
0.9999931
0.999982
0.9999744
0.9999753
0.9999814
0.9999888
0.9999875
0.9999599
0.9999546
0.9999546
0.9999686
0.9999719
0.9999632
0.99992
0.9998951
0.9999416
0.9999891
0.9999991
1
1
1
1
1
1
1
1
1
1
1
1
1
0.9999999
0.9999999
0.9999999
0.9999999
0.9999999
0.9999999
0.9999999
0.9999999
0.9999999
0.9999999
0.9999999
1
1
1
1
1
1
1
1
1
1
1
1
1
1
1
1
1
1
1
1
1
1
1
1
1
1
1
1
0.9999999
0.9999999
0.9999999
0.9999999
0.9999999
0.9999998
0.9999997
0.9999996
0.9999995
0.9999996
0.9999996
0.9999996
0.9999995
0.9999992
0.9999986
0.9999979
0.9999978
0.9999983
0.9999987
0.9999986
0.9999972
0.9999924
0.999986
0.999987
0.9999923
0.9999967
0.999997
0.9999955
0.9999906
0.9999881
0.9999897
0.9999936
0.9999959
0.9999958
0.9999942
0.9999906
0.9999896
0.9999907
0.9999936
0.9999953
0.9999952
0.9999942
0.9999907
0.999981
0.9999621
0.9999412
0.9999349
0.9999385
0.9999532
0.9999575
0.9999328
0.9996962
0.9987062
0.9983076
0.9986459
0.9991402
0.9989867
0.9973527
0.9931472
0.9917562
0.9952761
0.9990023
0.9995136
0.9991178
0.9973351
0.9922925
0.9921335
0.9958893
0.9984252
0.9985132
0.9981905
0.9959886
0.9956608
0.9979108
0.9997165
0.9999838
0.9999893
0.999984
0.9999428
0.9997492
0.9996292
0.9998071
0.9999686
0.9999976
0.9999975
0.9999943
0.9999798
0.9999309
0.9998461
0.9997541
0.9994408
0.9978711
0.9966611
0.9974488
0.9991966
0.9998498
0.9998455
0.9998414
0.9998709
0.9998796
0.9998537
0.9995641
0.9958916
0.980342
0.9772865
0.9827989
0.9956345
0.9997217
0.9999335
0.9998343
0.9989792
0.9986794
0.9991246
0.9997922
0.999968
0.9999953
0.9999969
0.9999969
0.9999971
0.9999988
0.9999998
0.9999999
0.9999998
0.9999997
0.9999988
0.9999946
0.9999933
0.9999961
0.9999993
0.9999995
0.9999995
0.9999989
0.9999944
0.9999542
0.9995384
0.9972985
0.996499
0.997775
0.9995368
0.9999637
0.9999988
1
1
1
1
1
1
1
1
0.9999999
0.9999999
0.9999998
0.9999996
0.9999992
0.9999979
0.9999936
0.9999791
0.9999458
0.9999357
0.9999668
0.9999948
0.9999985
0.9999976
0.9999897
0.9999335
0.9998602
0.9998838
0.9999588
0.9999941
0.9999993
0.9999995
0.9999994
0.9999973
0.9999873
0.9999858
0.9999919
0.9999986
0.9999998
0.9999998
0.9999996
0.9999995
0.9999995
0.9999998
1
1
1
1
1
1
1
1
1
0.9999998
0.9999992
0.9999947
0.9999824
0.9999813
0.9999898
0.9999981
0.9999999
1
1
1
1
0.9999999
0.9999999
0.9999999
0.9999999
0.9999999
0.9999998
0.9999981
0.9999945
0.9999944
0.9999973
0.9999995
1
1
1
1
1
1
1
1
1
1
1
1
1
1
0.9999998
0.9999947
0.9999445
0.9999235
0.9999421
0.9999855
0.9999986
0.9999987
0.9999986
0.9999975
0.9999886
0.9999158
0.9998486
0.9998658
0.9999513
0.9999947
0.9999989
0.9999988
0.9999981
0.999998
0.9999982
0.9999985
0.9999987
0.9999988
0.9999992
0.9999998
0.9999997
0.9999994
0.9999986
0.9999969
0.9999923
0.9999815
0.9999758
0.9999854
0.9999968
0.999996
0.9999803
0.9998208
0.9990596
0.9989208
0.9993653
0.9998871
0.9999934
0.999999
0.999999
0.9999989
0.9999986
0.9999982
0.9999978
0.9999973
0.9999902
0.9997834
0.998694
0.9985484
0.9990529
0.9998134
0.9999809
0.9999815
0.9999742
0.9999439
0.9999309
0.9999535
0.9999895
0.9999994
1
0.9999999
0.9999997
0.9999986
0.9999967
0.9999964
0.9999972
0.9999973
0.9999899
0.9999557
0.9998865
0.999844
0.9997571
0.9991558
0.9989
0.9989
0.9989
0.9991317
0.9997857
0.9999877
0.9999998
1
0.9999997
0.9999943
0.9998948
0.9995547
0.9995263
0.9997876
0.9999688
0.9999989
0.9999998
0.9999997
0.9999968
0.9999668
0.9999438
0.9999681
0.9999936
0.9999997
1
1
1
0.9999998
0.9999989
0.9999936
0.9999565
0.999682
0.9993473
0.9993802
0.9997448
0.9999604
0.9999938
0.9999967
0.9999959
0.9999516
0.9996394
0.9995676
0.9996853
0.999928
0.9999953
0.9999969
0.99998
0.9998473
0.9997712
0.9998864
0.9999821
0.9999993
1
1
1
0.9999998
0.9999989
0.9999957
0.9999919
0.9999915
0.9999929
0.9999966
0.9999995
0.9999995
0.9999947
0.9998974
0.9997556
0.999766
0.9999026
0.9999869
0.9999985
0.9999979
0.9999958
0.9999943
0.999996
0.9999991
0.9999999
0.9999999
0.9999999
0.9999999
0.9999999
0.9999999
0.9999999
0.9999999
0.9999998
0.9999997
0.9999991
0.9999959
0.9999904
0.9999873
0.9999877
0.9999897
0.999993
0.9999971
0.9999997
0.9999995
0.9999953
0.9999291
0.9997148
0.9997054
0.9997054
0.9997054
0.9997054
0.9998797
0.9999869
0.9999976
0.9999908
0.9999384
0.9996719
0.9990986
0.999151
0.99969
0.999967
0.9999988
0.9999948
1
1
1
1
1
1
1
1
1
1
1
1
1
1
1
0.9999999
0.9999999
0.9999999
0.9999999
0.9999999
0.9999999
1
1
1
1
1
1
1
1
1
1
1
1
1
1
1
1
1
1
1
1
1
1
1
1
1
1
1
1
1
1
0.9999998
0.9999995
0.9999988
0.999998
0.9999976
0.9999971
0.999996
0.9999925
0.9999821
0.9999598
0.9999349
0.9999268
0.9999284
0.999938
0.9999395
0.9999237
0.9998504
0.9997144
0.9996626
0.9996986
0.9998062
0.9998491
0.9998339
0.9997427
0.9995138
0.9992113
0.9991706
0.9993867
0.9996492
0.9996665
0.9995311
0.998869
0.9980192
0.9981357
0.9988233
0.9994527
0.9994894
0.9993013
0.9985962
0.9981934
0.9983714
0.9990132
0.9994429
0.9994564
0.9993588
0.9990529
0.9989218
0.9990937
0.9994192
0.9995106
0.9995002
0.9995136
0.9996057
0.9996405
0.9994678
0.9986816
0.9974443
0.9973234
0.9979283
0.9986361
0.9983187
0.9954192
0.9845416
0.9765102
0.9839286
0.9927455
0.9909581
0.9743065
0.9393993
0.9511235
0.9834494
0.9967447
0.9964524
0.9910954
0.9706303
0.966399
0.9791728
0.9886283
0.9847305
0.9710763
0.9408052
0.9456298
0.980236
0.997207
0.9997915
0.9998673
0.999857
0.9996352
0.9980062
0.9966408
0.9976291
0.9994246
0.9999639
0.9999916
0.9999853
0.9998991
0.9993827
0.9989163
0.9990635
0.9988413
0.996334
0.9886985
0.9901433
0.9963473
0.9991582
0.9989687
0.9970534
0.9950904
0.9961055
0.9989748
0.9994348
0.9974478
0.9806476
0.9754247
0.9754247
0.9839274
0.9964953
0.9996138
0.9995704
0.9981611
0.9976142
0.9984715
0.9996335
0.9999208
0.9999218
0.9999104
0.999847
0.9998704
0.9999553
0.9999947
0.9999989
0.9999987
0.9999977
0.9999924
0.999965
0.999959
0.9999807
0.9999967
0.9999991
0.9999991
0.9999982
0.9999904
0.9999314
0.9994143
0.9953084
0.990992
0.9932006
0.99793
0.9997471
0.9999881
0.9999998
1
1
1
1
1
0.9999998
0.9999991
0.9999965
0.999992
0.9999886
0.9999886
0.9999904
0.9999786
0.9997671
0.9974668
0.9957698
0.9971146
0.9989576
0.9998376
0.9999807
0.9999773
0.9999187
0.9995366
0.9991273
0.9994663
0.9998732
0.9999873
0.9999982
0.9999986
0.9999978
0.9999882
0.9999631
0.9999658
0.9999866
0.9999979
0.9999989
0.9999976
0.9999964
0.9999966
0.9999986
0.9999998
1
1
1
1
1
0.9999999
0.9999995
0.9999979
0.9999898
0.9999472
0.9997513
0.9996174
0.9996868
0.9999005
0.9999898
0.9999986
0.999998
0.999998
0.9999993
0.9999999
1
1
1
0.9999999
0.9999997
0.9999981
0.9999809
0.9999659
0.99997
0.9999894
0.9999988
0.9999999
1
1
1
1
1
0.9999999
0.9999999
0.9999999
0.9999996
0.999999
0.999997
0.9999798
0.999902
0.9998835
0.999915
0.9999797
0.9999979
0.9999962
0.9999889
0.9999835
0.9999848
0.9999926
0.9999948
0.9999616
0.9994746
0.9991169
0.9992479
0.9997577
0.999977
0.9999956
0.9999954
0.9999957
0.9999966
0.9999969
0.9999866
0.9998045
0.999648
0.9996919
0.999894
0.9999894
0.9999997
0.9999997
0.9999983
0.9999834
0.999851
0.9992022
0.9989464
0.9994248
0.9998999
0.9999938
0.9999899
0.9999318
0.999391
0.9975264
0.9978622
0.9993486
0.9999211
0.9999411
0.99993
0.9999247
0.9999366
0.9999417
0.9996203
0.9966659
0.9956852
0.99619
0.9987621
0.9998637
0.9999069
0.9999064
0.9999071
0.9998705
0.9996236
0.9996173
0.9996173
0.9996173
0.9996744
0.9999082
0.9999939
0.9999999
0.9999999
0.9999987
0.9999815
0.9998692
0.9996754
0.9996865
0.9998352
0.9999712
0.9999472
0.9995123
0.9973593
0.9969221
0.9973572
0.9992086
0.9999332
0.9999789
0.9999765
0.9999219
0.9997732
0.9998539
0.9999663
0.9999981
0.9999992
0.9999901
0.9998308
0.9995267
0.9995256
0.9997738
0.9999663
0.9999988
0.9999997
0.9999994
0.999998
0.9999939
0.9999885
0.9999913
0.9999975
0.9999998
1
0.9999999
0.9999989
0.9999911
0.9999347
0.9995383
0.9982067
0.9983385
0.999453
0.9999403
0.9999961
0.9999972
0.9999972
0.9999972
0.9999972
0.999995
0.9999513
0.9998256
0.999834
0.9999181
0.9999862
0.9999753
0.9997799
0.9996472
0.9996604
0.9998631
0.9999834
0.9999994
0.9999994
0.9999977
0.9999958
0.9999944
0.9999703
0.9997381
0.9996434
0.9997066
0.9999144
0.999989
0.9999907
0.9999921
0.9999933
0.9999853
0.9999431
0.9999123
0.9999407
0.9999853
0.999999
0.9999995
0.9999994
0.9999993
0.9999994
0.9999997
0.9999999
0.9999999
0.9999999
0.9999999
1
1
1
1
1
0.9999999
0.9999981
0.9999679
0.9996102
0.9983216
0.9982191
0.9989541
0.9997223
0.9999747
0.9999993
0.9999996
0.999999
0.9999895
0.9998998
0.9997884
0.9998674
0.9999622
0.9999958
0.9999997
0.9999998
0.9999981
0.9999573
0.9991595
0.9952801
0.9959717
0.9987247
0.9998868
0.9999982
0.9999996
0.999957
1
1
1
1
0.9999999
0.9999999
1
1
1
1
1
1
1
1
1
1
1
0.9999999
0.9999999
1
0.9999999
0.9999998
0.9999998
0.9999998
0.9999999
1
1
1
1
1
1
1
1
1
1
1
1
1
1
1
1
1
1
1
1
1
1
1
1
1
1
0.9999999
0.9999996
0.9999979
0.999991
0.9999652
0.9998822
0.9996782
0.9993323
0.9989323
0.9987944
0.9988134
0.9987959
0.9984798
0.9970354
0.9932493
0.9894374
0.9890367
0.9904772
0.9938425
0.9947226
0.9927128
0.9817515
0.969841
0.9713855
0.9813132
0.992295
0.9933444
0.989563
0.9750864
0.9559682
0.9552663
0.9701539
0.99139
0.99236
0.9870028
0.966712
0.9420004
0.9471016
0.9766453
0.9918266
0.9890741
0.9783691
0.9498637
0.9374501
0.9609184
0.9906596
0.9925701
0.9885823
0.9688947
0.9592066
0.9776421
0.9946642
0.9955969
0.9927424
0.98258
0.9810981
0.9871554
0.9939269
0.9964861
0.9955564
0.9876643
0.9739098
0.9759945
0.9851537
0.9828096
0.954672
0.8606251
0.8561124
0.9391394
0.9766003
0.9619699
0.8217028
0.7286661
0.8658131
0.9716355
0.9699385
0.9570304
0.8680091
0.7909014
0.8754029
0.9658298
0.947637
0.8886857
0.6406608
0.5593881
0.7967567
0.9706172
0.9968772
0.9982966
0.9985587
0.9975368
0.9823413
0.9744842
0.9839181
0.9966309
0.9997094
0.9999665
0.999964
0.9998364
0.9993171
0.9988759
0.9990783
0.9990661
0.9921824
0.9642317
0.9627001
0.9803355
0.9969464
0.9986076
0.9977318
0.9929161
0.9745056
0.9746326
0.9883957
0.9978045
0.9991738
0.9989868
0.9939879
0.9907526
0.9941851
0.9984181
0.9989391
0.9980572
0.9949608
0.996719
0.9991774
0.9996937
0.9996667
0.9991
0.9983516
0.9986515
0.9995525
0.9999529
0.9999921
0.999992
0.999964
0.9997161
0.9995503
0.9997525
0.9999152
0.9999529
0.9999701
0.9999855
0.999993
0.9999915
0.9999496
0.9994418
0.9935754
0.9704707
0.9726538
0.9909894
0.9987998
0.9999323
0.9999947
0.9999943
0.9999789
0.9999746
0.9999871
0.9999978
0.9999993
0.9999989
0.9999953
0.999974
0.9998513
0.9991844
0.9972157
0.9968754
0.9981243
0.9996844
0.9997389
0.9991407
0.993906
0.9840473
0.9895628
0.9976085
0.9998058
0.9993939
0.9967573
0.9968218
0.9988151
0.9998375
0.9999916
0.9999955
0.9999936
0.9999531
0.9998925
0.9999036
0.9999583
0.9999841
0.9999912
0.9999954
0.9999983
0.9999995
0.9999997
0.9999998
0.9999999
0.9999999
0.9999999
0.9999999
0.9999997
0.9999991
0.9999965
0.999979
0.9995709
0.9948743
0.9924555
0.9938748
0.9981789
0.9998088
0.999964
0.9999841
0.9999951
0.9999993
0.9999996
0.9999996
0.9999997
0.9999997
0.9999996
0.9999992
0.9999941
0.9999369
0.9998973
0.9999135
0.999972
0.9999966
0.9999994
0.9999997
0.9999998
0.9999998
0.9999996
0.9999992
0.9999992
0.9999992
0.9999988
0.9999967
0.9999917
0.9999872
0.9999524
0.9997144
0.9996497
0.9996943
0.9999045
0.9999875
0.9999911
0.999992
0.9999919
0.999967
0.9994116
0.9986949
0.9988119
0.9995368
0.9999408
0.9999583
0.999897
0.9997776
0.9997638
0.999831
0.9999622
0.9999536
0.9995531
0.998315
0.9982703
0.9991223
0.9998594
0.9999777
0.9999759
0.9999667
0.999967
0.9999745
0.9999885
0.9999937
0.9999757
0.999742
0.9985269
0.9973508
0.9978846
0.9991939
0.9999115
0.9999902
0.9999139
0.9982076
0.9943137
0.9942718
0.9972462
0.9995706
0.999772
0.9995887
0.9976627
0.99086
0.9903385
0.9949689
0.9991716
0.9998521
0.9998369
0.9998727
0.9998904
0.9994312
0.9990692
0.9991224
0.9996602
0.9999547
0.9999542
0.999842
0.9997925
0.9998688
0.9999622
0.9999963
0.9999999
0.9999999
0.9999997
0.9999958
0.9999339
0.9994343
0.9984217
0.9985047
0.9992122
0.9998572
0.9998125
0.9984269
0.9969221
0.9973205
0.9990066
0.9998934
0.9999756
0.9999409
0.9995621
0.9994313
0.9994644
0.9997996
0.9999785
0.9999993
0.9999994
0.9999958
0.999984
0.9999705
0.9999685
0.9999726
0.999987
0.9999896
0.9999839
0.9999521
0.9998331
0.9997591
0.9998637
0.9999744
0.9999988
1
0.9999999
0.9999987
0.9999828
0.9997958
0.997744
0.9919806
0.9941918
0.9985232
0.9998937
0.9999968
0.9999971
0.9999964
0.9999949
0.9999949
0.9999948
0.999968
0.99956
0.9991983
0.9991983
0.9993959
0.9998508
0.9999788
0.9999802
0.9999752
0.9999641
0.9999686
0.9999787
0.9999916
0.9999932
0.999953
0.9996796
0.9996144
0.9997169
0.999937
0.9999665
0.9999581
0.9999169
0.9997565
0.9995898
0.9997365
0.9999396
0.9999962
0.9999995
0.9999995
0.9999995
0.9999994
0.9999993
0.9999993
0.9999993
0.9999993
0.9999991
0.9999986
0.9999973
0.9999963
0.9999975
0.9999995
0.9999998
0.9999998
0.9999985
0.9999914
0.9999888
0.9999933
0.999994
0.9999553
0.9993204
0.9961806
0.9957575
0.9957575
0.9965176
0.9990781
0.9999442
0.9999961
0.9999941
0.9999831
0.9999473
0.999919
0.9999531
0.99999
0.9999994
0.9999998
0.9999997
0.9999952
0.9998974
0.9981577
0.9949299
0.9951051
0.9979513
0.9997272
0.9999899
0.9999979
0.9998602
1
1
1
1
1
1
1
1
1
1
1
0.9999999
0.9999999
0.9999999
1
1
0.9999999
0.9999998
0.9999998
0.9999999
1
1
0.9999999
0.9999999
0.9999999
1
1
1
1
1
1
1
1
1
1
1
1
1
1
1
1
1
1
1
1
1
1
0.9999999
0.9999993
0.9999952
0.9999771
0.9999188
0.9997458
0.9992711
0.9980415
0.9951726
0.9883516
0.9748585
0.9562095
0.9370595
0.93498
0.939709
0.9462953
0.9424246
0.9102643
0.821556
0.7545076
0.7668245
0.8360561
0.90519
0.9108735
0.8678568
0.6538665
0.5626517
0.6743924
0.8554001
0.9325536
0.9399976
0.8733889
0.4686912
0.3959802
0.6775455
0.930286
0.9659499
0.938766
0.5923588
0.2900556
0.4888427
0.8305216
0.931634
0.9420006
0.8067845
0.3803206
0.4209729
0.755241
0.9579445
0.9618152
0.7892662
0.5736183
0.7078697
0.913032
0.9728349
0.958993
0.8655412
0.8710574
0.9280644
0.9523893
0.9383583
0.9295654
0.9640999
0.9648134
0.9157856
0.897579
0.9221797
0.9221245
0.7673198
0.4897347
0.5240772
0.7834127
0.8849548
0.7016514
0.2349026
0.2115932
0.5608277
0.8805361
0.8548801
0.47112
0.1470342
0.1462507
0.488727
0.8744468
0.8499918
0.4310788
0.1434046
0.1581325
0.4912944
0.9034461
0.9611815
0.9415265
0.8550505
0.8233487
0.8732381
0.9645812
0.9948698
0.9984361
0.9996096
0.9998579
0.9998429
0.999725
0.9982834
0.9814444
0.967276
0.9746515
0.9921738
0.9986293
0.999118
0.999118
0.999118
0.999118
0.9984053
0.9830061
0.9475318
0.9479596
0.9536508
0.9682218
0.9793148
0.9830953
0.985799
0.9869293
0.988458
0.9911233
0.9918198
0.9910792
0.9910846
0.9932931
0.9969547
0.9978513
0.9958802
0.9922908
0.9947603
0.9985044
0.9998324
0.9999821
0.9999863
0.999971
0.9998748
0.9996201
0.999361
0.9993914
0.9996313
0.9992278
0.9905097
0.9841834
0.9890022
0.9976137
0.9996623
0.9984042
0.9766272
0.9246751
0.9397088
0.9800849
0.9978146
0.9999498
0.9999934
0.9999897
0.9999649
0.9999623
0.9999734
0.9999855
0.9999869
0.9999787
0.9998791
0.9968888
0.9503799
0.9217172
0.9380033
0.9836497
0.9989661
0.9998104
0.9997774
0.9982064
0.9801515
0.9676495
0.9726169
0.9911314
0.9990316
0.9993499
0.9966035
0.9959975
0.9972131
0.9993521
0.9999494
0.9999623
0.9998195
0.9997909
0.9998954
0.9999717
0.9999375
0.9999223
0.9999436
0.9999859
0.9999984
0.999999
0.9999992
0.9999993
0.9999992
0.9999989
0.9999974
0.999976
0.9994258
0.9891867
0.9767173
0.9789294
0.9923977
0.9991748
0.9997718
0.9995261
0.9978058
0.9970219
0.9970219
0.9978238
0.9995186
0.9999761
0.9999994
0.9999996
0.9999993
0.999998
0.9999844
0.9998684
0.9997954
0.9998329
0.9999471
0.9999911
0.9999971
0.999999
0.9999994
0.9999994
0.9999993
0.9999975
0.9999609
0.9999009
0.9999103
0.9999585
0.9999665
0.9999503
0.9998157
0.9994135
0.9993564
0.9995086
0.9998841
0.9999627
0.9999615
0.9999451
0.9997468
0.9980398
0.9969367
0.9974262
0.9991946
0.999851
0.999852
0.9998389
0.9998585
0.9999012
0.9998233
0.9979677
0.9959729
0.996313
0.9985807
0.9998361
0.9999527
0.9998265
0.9994638
0.9997006
0.9999355
0.9999777
0.9999777
0.9999777
0.9999305
0.9995773
0.9993585
0.9993986
0.9996341
0.9997949
0.9991498
0.9931851
0.9913241
0.9917806
0.9969867
0.9996769
0.9998924
0.9997284
0.9993507
0.9993063
0.9995387
0.9996201
0.9992871
0.9924721
0.9841257
0.9841257
0.985564
0.9948703
0.9994597
0.9999831
0.9999924
0.9999924
0.9999917
0.9999148
0.9992862
0.9990692
0.9994362
0.9998954
0.9999906
0.999994
0.9999929
0.9999926
0.9999937
0.9999955
0.9999954
0.9999944
0.9999917
0.9999845
0.9999698
0.9998743
0.9983457
0.9952179
0.9952068
0.9954426
0.9983596
0.9998344
0.9999785
0.9999744
0.9999192
0.9992043
0.9990139
0.9994007
0.9998937
0.999994
0.9999989
0.999999
0.999999
0.999999
0.9999984
0.9999952
0.9999864
0.9999726
0.9999695
0.9999752
0.9999871
0.9999852
0.9998554
0.9986051
0.9980778
0.9985356
0.999487
0.9998949
0.999983
0.9999979
0.9999997
0.9999994
0.9999906
0.9997758
0.9951015
0.9871271
0.9871271
0.9940882
0.9990994
0.9999664
0.9999971
0.9999804
0.9996641
0.9986251
0.9985678
0.9992602
0.9998874
0.9999626
0.9999626
0.9999323
0.9997703
0.9995803
0.9996804
0.9999163
0.9999791
0.9999791
0.9999144
0.9995935
0.9996611
0.9998895
0.9999107
0.9998201
0.999728
0.9997453
0.9998653
0.9998737
0.9989398
0.9978466
0.9978569
0.9990252
0.9998448
0.9999937
0.9999995
0.9999995
0.9999995
0.9999995
0.9999986
0.9999851
0.9999221
0.9997389
0.9993125
0.9989453
0.9990852
0.9996767
0.9999692
0.999999
0.999999
0.9999927
0.9998206
0.9982273
0.9976304
0.9980564
0.9994407
0.9999491
0.999962
0.9999078
0.9997527
0.9996826
0.9997823
0.9998931
0.9998956
0.9998108
0.9994441
0.9981002
0.9967282
0.9975803
0.9993609
0.9999553
0.9999994
0.9999998
0.9999998
0.9999997
0.9999978
0.9999935
0.9999886
0.9999842
0.9999769
0.9999211
0.9995592
0.9994572
0.9996918
0.9997521
1
1
1
1
1
1
1
1
1
1
1
1
1
1
1
1
1
1
1
1
1
1
1
1
1
1
1
1
1
0.9999999
0.9999999
0.9999998
0.9999998
0.9999998
0.9999998
0.9999998
0.9999998
0.9999999
1
1
1
1
1
1
1
1
1
1
1
1
1
1
1
1
1
1
1
1
1
1
1
1
0.9999999
0.9999985
0.9999778
0.9997885
0.9987849
0.9958025
0.9897389
0.9779422
0.957247
0.9218642
0.8650242
0.7732291
0.6503425
0.5328037
0.451529
0.4517802
0.4897865
0.5416875
0.4997301
0.2912297
0.1098269
0.09988207
0.1943812
0.4332387
0.4176984
0.2249584
0.05991015
0.04940927
0.1075428
0.3892657
0.37538
0.1884466
0.0666053
0.06463531
0.1745766
0.3197571
0.2407812
0.09586971
0.05462349
0.07548077
0.2620353
0.2907269
0.1593233
0.0595523
0.05892821
0.2827063
0.4114798
0.1861555
0.04692531
0.04425036
0.04479259
0.1425571
0.5659381
0.4700213
0.1805368
0.1574698
0.2903309
0.7365425
0.8623996
0.722316
0.3722572
0.3706848
0.501606
0.837054
0.9559888
0.9331253
0.8575742
0.6218261
0.226462
0.04975767
0.1619134
0.5161153
0.3737266
0.1061804
0.03736401
0.03729819
0.08254534
0.4524011
0.3557843
0.1250073
0.1200196
0.2899106
0.3347278
0.2867669
0.113896
0.09865122
0.1110868
0.5379458
0.9161878
0.9422799
0.9422835
0.7512158
0.2036166
0.14982
0.1405329
0.2281884
0.681236
0.9588852
0.9949603
0.9974668
0.9989924
0.9989874
0.9973994
0.9777408
0.9377821
0.9614427
0.9900421
0.995595
0.995595
0.9875757
0.9607689
0.9636906
0.9829066
0.9958794
0.994787
0.976218
0.8968308
0.6712999
0.6013622
0.715235
0.8129799
0.7884483
0.5869927
0.3695606
0.4002835
0.6420781
0.9059401
0.9773263
0.9776119
0.975842
0.9733987
0.9649327
0.9679082
0.989194
0.9988003
0.999954
0.9999881
0.9999869
0.9999618
0.9998009
0.9985597
0.9862209
0.9335484
0.9287121
0.9685459
0.9942986
0.9936983
0.9887003
0.9936812
0.9989265
0.9978778
0.9700845
0.9186991
0.9192732
0.9632198
0.9942923
0.9998076
0.9999919
0.999987
0.9999655
0.999944
0.999914
0.9995682
0.988276
0.909076
0.8985245
0.9465293
0.991308
0.9924579
0.9848395
0.9844491
0.9920569
0.998912
0.9998104
0.9994455
0.989736
0.9673195
0.9716976
0.9893206
0.9987215
0.9998577
0.998925
0.9959723
0.9970613
0.9991452
0.9999251
0.9999647
0.9997379
0.9996172
0.999639
0.9998669
0.9999819
0.9999861
0.9999804
0.9999835
0.9999859
0.9999835
0.9999495
0.9995198
0.9928207
0.9760498
0.9782926
0.991519
0.9991521
0.9991946
0.9936972
0.9837679
0.989442
0.9974181
0.9998236
0.9998502
0.9986165
0.9970219
0.9970219
0.9980551
0.9995702
0.9999701
0.999999
0.9999994
0.9999948
0.9999255
0.99965
0.9996142
0.9997747
0.9999533
0.9999932
0.9999983
0.9999985
0.9999982
0.9999954
0.9999705
0.9998391
0.999798
0.9999052
0.9999666
0.9999666
0.9999631
0.9998949
0.9994491
0.9980827
0.998102
0.9992973
0.9998992
0.99991
0.9998596
0.9993482
0.9950932
0.9918235
0.99259
0.9972377
0.9996353
0.9998468
0.9998462
0.999852
0.9998013
0.9971636
0.9908381
0.9908779
0.9959974
0.9993219
0.9998228
0.9998334
0.9998304
0.9998854
0.9999459
0.9998496
0.9988032
0.9984042
0.9987938
0.9996616
0.9998471
0.9998527
0.9998457
0.9993963
0.990169
0.9805007
0.9805007
0.9911628
0.9985875
0.9996662
0.9995665
0.9995745
0.9996402
0.9996357
0.998584
0.9843016
0.9747622
0.9770387
0.9918292
0.9991352
0.9999689
0.9999663
0.9999299
0.9998863
0.9998912
0.9999411
0.9999834
0.9999924
0.9999924
0.9999924
0.9999924