/*--------------------------------*- C++ -*----------------------------------*\
| =========                 |                                                 |
| \\      /  F ield         | foam-extend: Open Source CFD                    |
|  \\    /   O peration     | Version:     3.1                                |
|   \\  /    A nd           | Web:         http://www.extend-project.de       |
|    \\/     M anipulation  |                                                 |
\*---------------------------------------------------------------------------*/
FoamFile
{
    version     2.0;
    format      ascii;
    class       volScalarField;
    location    "20";
    object      k;
}
// * * * * * * * * * * * * * * * * * * * * * * * * * * * * * * * * * * * * * //

dimensions      [0 2 -2 0 0 0 0];

internalField   nonuniform List<scalar> 
119952
(
0.04367794
0.0410881
0.04061522
0.04025241
0.03990777
0.03961472
0.03993333
0.04060264
0.04147957
0.04248215
0.04355055
0.04463547
0.04569672
0.04669559
0.04759051
0.04833463
0.04888671
0.04923213
0.04937587
0.04948535
0.04985937
0.04802063
0.04721565
0.0473112
0.04481971
0.04316741
0.04177572
0.04050447
0.03858694
0.01481087
0.07238135
0.07121857
0.07018876
0.06985193
0.07019884
0.07103941
0.07212581
0.07325517
0.07427302
0.07515333
0.07080867
0.07020639
0.07145005
0.0734273
0.07557101
0.07763934
0.07954642
0.08130463
0.0828941
0.09196164
0.09250304
0.09268273
0.09248964
0.09199623
0.09123967
0.09016175
0.08882885
0.08733186
0.08590579
0.08468871
0.08345066
0.08230257
0.08128615
0.0804131
0.07969845
0.07915385
0.07879096
0.07875049
0.08017922
0.08029454
0.08043559
0.0811326
0.08196733
0.08272836
0.08340231
0.08407545
0.08477616
0.08551124
0.08627156
0.0870419
0.0878044
0.08852607
0.08914913
0.08957702
0.08975581
0.0897225
0.08947661
0.0890632
0.08865047
0.08796843
0.0871661
0.08652083
0.08586717
0.08468981
0.08325871
0.08173684
0.08001333
0.0774509
0.07544058
0.07367212
0.07210838
0.07068432
0.06932464
0.06799386
0.06666806
0.06533833
0.06400816
0.06268192
0.06135822
0.06003061
0.05869186
0.057344
0.05601166
0.05475155
0.05363599
0.05269817
0.05189777
0.05114768
0.05037211
0.04954745
0.04869653
0.04786124
0.04706314
0.04631696
0.04564624
0.04507649
0.04463037
0.04432572
0.04417361
0.04418274
0.04432875
0.04454621
0.04476284
0.04491427
0.04494293
0.0448135
0.04448566
0.04391904
0.04309341
0.04201634
0.04072775
0.03935555
0.03815763
0.03734516
0.03693636
0.03681439
0.03682816
0.0368622
0.03681859
0.0366064
0.03625854
0.03579165
0.03523676
0.03462599
0.03398447
0.03333212
0.03268036
0.03204235
0.03143
0.03085181
0.03031232
0.02981446
0.02936138
0.02895337
0.02858819
0.02826222
0.02796981
0.02770274
0.02745425
0.02721718
0.02698171
0.02673844
0.02647641
0.02618863
0.02587917
0.02555664
0.02523289
0.02492131
0.02463409
0.02437943
0.02415958
0.02397029
0.02380192
0.02364199
0.02347853
0.0233029
0.02311121
0.02290441
0.02268691
0.02246523
0.02224684
0.02203855
0.0218465
0.02167797
0.02153302
0.021409
0.0213127
0.02134032
0.02142539
0.02141599
0.02133664
0.02121498
0.02107623
0.02093349
0.02079177
0.02065266
0.02051699
0.02038531
0.02025837
0.02013341
0.02000922
0.01989
0.0197767
0.01967003
0.01957088
0.01948009
0.01939853
0.01932691
0.01926557
0.01921447
0.01917326
0.01914138
0.01911803
0.01910229
0.01909359
0.01909151
0.01909611
0.01910767
0.01912675
0.019154
0.01918915
0.01922381
0.01919505
0.01932793
0.01950573
0.01966998
0.01981682
0.0199449
0.02005475
0.02014713
0.02022302
0.02028366
0.02033066
0.02036621
0.02039291
0.02041303
0.02042533
0.02043032
0.0204283
0.02041808
0.02039804
0.02036766
0.0203283
0.02027445
0.02021101
0.02014454
0.02007869
0.02001635
0.01995913
0.01990716
0.01985923
0.01981351
0.01976746
0.01971748
0.01965873
0.01958634
0.0194993
0.01918569
0.01917623
0.01908217
0.0188991
0.01867514
0.01842658
0.01816902
0.01791356
0.01766756
0.01743821
0.01723133
0.01705195
0.01690402
0.01679014
0.0167112
0.01666614
0.01665196
0.01666381
0.01669556
0.01674086
0.01679441
0.01685222
0.01691112
0.01696828
0.01702114
0.01706757
0.01710572
0.01713419
0.01715172
0.01715734
0.01715064
0.0171319
0.017102
0.01706204
0.01701228
0.01695629
0.01689627
0.01683254
0.01676632
0.01669861
0.01663022
0.01656212
0.01649556
0.01643204
0.01637383
0.0163236
0.0162724
0.01622445
0.01618284
0.0161465
0.01611305
0.01608108
0.0160494
0.01602992
0.01604975
0.01599078
0.01592854
0.01586197
0.01579207
0.01571986
0.01564719
0.01557609
0.01550807
0.01544474
0.01538596
0.0153315
0.01528098
0.01523371
0.01518853
0.01514412
0.01509891
0.01505134
0.01500019
0.01494474
0.01488477
0.01482043
0.01475228
0.01468108
0.01460795
0.01453409
0.01446082
0.0143893
0.01432065
0.01425593
0.0141959
0.01414062
0.01408951
0.01404152
0.01399531
0.01394944
0.01390249
0.0138532
0.01380042
0.01374326
0.01368123
0.01361454
0.01354416
0.01347161
0.01339858
0.01332657
0.0132568
0.01319027
0.01312784
0.0130703
0.01301826
0.01297198
0.01293136
0.01289592
0.0128647
0.0128364
0.01280945
0.01278262
0.01275509
0.01272642
0.01269647
0.01266523
0.01263233
0.01259702
0.01255842
0.01251615
0.01247089
0.01242455
0.01237988
0.01233987
0.01230711
0.0122835
0.0122699
0.01226599
0.01227029
0.01228066
0.01229452
0.01231003
0.01232622
0.0123432
0.01235995
0.0123733
0.01237312
0.01237368
0.01262317
0.1069123
0.1001546
0.09748633
0.09709291
0.09791672
0.09925198
0.1006401
0.1018468
0.1028712
0.1013169
0.1020316
0.1057176
0.110458
0.1151705
0.1193749
0.122938
0.1258626
0.1281823
0.1451392
0.1451935
0.1450243
0.1443573
0.1434725
0.1425723
0.1418092
0.1412312
0.1408463
0.1405839
0.1407725
0.1409935
0.1411444
0.1414338
0.14196
0.1427299
0.1436976
0.1448174
0.1460636
0.1475854
0.1492228
0.1507986
0.1524052
0.1540694
0.1556905
0.1571156
0.158202
0.1588645
0.159132
0.1591437
0.1589394
0.1585441
0.1579479
0.1571813
0.156364
0.1556286
0.1550287
0.154517
0.1684611
0.1673898
0.1660782
0.1644166
0.1623171
0.1597922
0.1570224
0.1542865
0.1515178
0.1486404
0.1457135
0.1428315
0.1400432
0.1373747
0.1348399
0.132486
0.1303692
0.1285576
0.1271407
0.1260741
0.1253688
0.1251639
0.1253999
0.1259588
0.1267915
0.1279041
0.1292506
0.1307542
0.1323543
0.1339915
0.1356034
0.1371069
0.138385
0.139312
0.1398261
0.1400227
0.1400364
0.1399213
0.1397047
0.1393656
0.138864
0.1382415
0.1373892
0.1360938
0.1344082
0.1324238
0.1301859
0.1278509
0.125705
0.1237218
0.1217089
0.1196614
0.1175356
0.115309
0.1129779
0.1105474
0.1080308
0.1054454
0.1028083
0.1001335
0.09743154
0.09471487
0.09200419
0.089333
0.0867423
0.08426695
0.08192492
0.07971914
0.07764867
0.0757184
0.07394116
0.07233491
0.07091906
0.06971373
0.06873949
0.06801331
0.06754446
0.06733267
0.06736592
0.0676163
0.06803729
0.06859425
0.06923402
0.06986218
0.0703954
0.07075654
0.07086765
0.07068421
0.07019471
0.06938396
0.06825987
0.06686046
0.06525124
0.06350188
0.06167034
0.05980792
0.05796499
0.05618934
0.05451945
0.0529745
0.05157548
0.0503235
0.049208
0.04821352
0.04732373
0.04652364
0.04580199
0.0451522
0.04457123
0.04405822
0.04361331
0.04323682
0.0429287
0.04268761
0.04251
0.04239008
0.04231905
0.04228492
0.04227541
0.0422782
0.04227959
0.0422644
0.04221672
0.04212233
0.04197007
0.04175228
0.04146495
0.04110781
0.04068404
0.04019988
0.03966404
0.03908711
0.03848096
0.0378583
0.03723226
0.03661606
0.0360224
0.03546301
0.03494791
0.03448511
0.03408013
0.03373641
0.03345507
0.03323567
0.03307579
0.03297237
0.03292114
0.03291581
0.03224255
0.03154671
0.0311576
0.03096064
0.03088195
0.03087106
0.03089422
0.03092987
0.03096495
0.03099214
0.03100771
0.03101025
0.03099934
0.03097509
0.03093821
0.03088988
0.03083162
0.03076528
0.03069287
0.03061629
0.03053711
0.03045635
0.03037434
0.03029088
0.03020536
0.0301171
0.03002549
0.02992996
0.02982994
0.02972492
0.02961467
0.0294996
0.02938122
0.02926292
0.02915109
0.02905627
0.02898044
0.02891276
0.02885085
0.02879342
0.02873934
0.02868753
0.02863712
0.02858768
0.02853947
0.02849335
0.02844988
0.02840829
0.02836606
0.02831933
0.0282639
0.02819625
0.02811416
0.02801662
0.02790324
0.02777391
0.02762866
0.02746785
0.02729251
0.02710362
0.02690141
0.0266853
0.02645503
0.02621209
0.0259591
0.02569982
0.02543755
0.02517483
0.02491458
0.02465957
0.02638507
0.02613271
0.02590131
0.02568844
0.02549234
0.0253127
0.02514992
0.02500545
0.02488206
0.02478334
0.02471267
0.02467238
0.02466324
0.02468412
0.02473175
0.02480082
0.02488439
0.02497494
0.02506558
0.025151
0.02522761
0.02529297
0.02534512
0.02538244
0.02540368
0.02540804
0.02539498
0.02536418
0.02531576
0.02525055
0.02517003
0.02507612
0.02497098
0.02485686
0.02473612
0.02461098
0.02448339
0.02435512
0.02422817
0.02410471
0.0239853
0.02387064
0.0237616
0.02365893
0.02356309
0.02347406
0.02339148
0.0233147
0.0232426
0.02317375
0.02310684
0.02304092
0.02297561
0.02291164
0.02284918
0.02278557
0.02272089
0.02265514
0.02258852
0.02252127
0.02245374
0.02238664
0.02232053
0.02225391
0.02218548
0.02211417
0.02203893
0.02195848
0.02187134
0.02177596
0.02167106
0.02155591
0.02143057
0.02129582
0.02115304
0.02100405
0.02085092
0.02069602
0.02054185
0.02039084
0.02024499
0.02010592
0.01997478
0.01985198
0.01973689
0.01962787
0.0195226
0.01941829
0.01931205
0.01920122
0.01908353
0.01895733
0.01882181
0.01867738
0.01852588
0.01837063
0.01821598
0.01806655
0.01792637
0.01779643
0.01767682
0.01756762
0.01746892
0.01738115
0.01730508
0.01723926
0.01718159
0.01712951
0.01708025
0.01703118
0.01698028
0.01692637
0.01686886
0.01680774
0.01674325
0.01667558
0.01660485
0.01653154
0.01645695
0.01638332
0.01631348
0.01625026
0.01619616
0.01615316
0.01612253
0.01610449
0.0160982
0.0161017
0.01611258
0.01612832
0.01614737
0.01616893
0.01619372
0.01622192
0.01625388
0.01628838
0.01632452
0.01636183
0.01639232
0.076028
0.08538787
0.09663978
0.1076599
0.1180004
0.1285048
0.1388658
0.1489584
0.1583167
0.1721311
0.2465146
0.2829632
0.3010367
0.3126774
0.3213658
0.328309
0.3339573
0.3384763
0.3416318
0.3860498
0.3858758
0.3842635
0.381955
0.3792063
0.3760444
0.3724967
0.3686353
0.3645705
0.3603275
0.3558724
0.3507447
0.345118
0.3392992
0.3336262
0.3284038
0.3236804
0.3192372
0.3149319
0.3102857
0.3054148
0.3005699
0.2960477
0.2918195
0.2877869
0.2837849
0.2797065
0.2755868
0.2715809
0.2677355
0.2641793
0.2608758
0.2576556
0.2544011
0.2510676
0.247677
0.2443044
0.2585147
0.2549198
0.251325
0.2476974
0.2440568
0.2404805
0.2370522
0.2338283
0.230847
0.2281343
0.225716
0.2236518
0.2220014
0.2208161
0.2201073
0.2198162
0.2198661
0.2202273
0.2209045
0.2219054
0.2232747
0.225052
0.2271274
0.2292599
0.231192
0.2327289
0.2337868
0.2344452
0.2348207
0.2349159
0.2346466
0.2339384
0.2328448
0.2316141
0.2304752
0.2294832
0.2285347
0.2275455
0.2262452
0.2246156
0.2225096
0.2197879
0.2163943
0.212569
0.2087471
0.2047318
0.2005761
0.1963471
0.1921167
0.187968
0.1839896
0.1802533
0.1768297
0.1737515
0.1710626
0.1687331
0.1667354
0.164976
0.1636458
0.1629517
0.1628849
0.1633713
0.1643612
0.1658229
0.167667
0.1697686
0.1720333
0.1743706
0.1766708
0.1787648
0.1804148
0.1814067
0.1817164
0.181616
0.1813262
0.1809554
0.1805191
0.1799517
0.1791607
0.1781532
0.1768695
0.1751816
0.1731241
0.170822
0.1683364
0.1658155
0.1633774
0.1609789
0.1584597
0.1557739
0.1529201
0.1499087
0.1467674
0.1435225
0.1401932
0.1367964
0.1333477
0.129861
0.1263493
0.1228288
0.1193266
0.115884
0.1125493
0.1093629
0.1063463
0.1035046
0.1008397
0.09836107
0.09608687
0.09404061
0.09224925
0.09074212
0.0895477
0.08868841
0.0881743
0.08799649
0.08812308
0.08850056
0.08905778
0.08970341
0.09036502
0.09097689
0.09144441
0.09168793
0.09163743
0.09124192
0.09049924
0.089425
0.08804959
0.08641629
0.08457184
0.08255458
0.08039675
0.07813541
0.07581627
0.07349047
0.07120819
0.06901275
0.06694651
0.06503776
0.0633016
0.06174409
0.06036301
0.05915058
0.05809688
0.05719208
0.05642693
0.0557926
0.05528053
0.05488227
0.0545889
0.05439
0.0542733
0.05422498
0.05422971
0.05427162
0.05433549
0.05440563
0.05446438
0.05449304
0.05447472
0.05439603
0.05424714
0.0540215
0.0537158
0.05333002
0.05286717
0.05233299
0.05173559
0.05108502
0.05039302
0.04967285
0.04893898
0.04820676
0.04749166
0.04680867
0.04617116
0.04559059
0.04507557
0.04463231
0.04426391
0.04397135
0.04375272
0.04360461
0.04352088
0.04348983
0.04342676
0.04344426
0.04351923
0.04362907
0.04375213
0.04387342
0.04398174
0.04407053
0.04414031
0.0441969
0.04424299
0.04427886
0.04430477
0.04432135
0.04432983
0.04433209
0.04433023
0.04432602
0.04432051
0.04431374
0.0443046
0.04429102
0.04427045
0.04424049
0.04419945
0.04414641
0.04408093
0.0440028
0.04391219
0.04380994
0.04369794
0.04357934
0.04345846
0.04334026
0.04322925
0.04312618
0.04302561
0.04292217
0.04281235
0.04269662
0.04257578
0.04245088
0.0423237
0.04219684
0.0420728
0.0419523
0.04183366
0.04171323
0.0415863
0.04144817
0.04129504
0.04112422
0.04093359
0.04072115
0.04048518
0.04022486
0.03994109
0.03963643
0.03931387
0.03897538
0.03862033
0.03824931
0.03786431
0.03747008
0.03707235
0.03667635
0.03628667
0.03590713
0.03553996
0.03518944
0.03483835
0.03450576
0.03418884
0.03388559
0.03359764
0.03332695
0.0330764
0.03285016
0.03265292
0.03248888
0.03236067
0.03226887
0.03221218
0.0321874
0.03218925
0.0322105
0.03224275
0.03227794
0.03230987
0.03233496
0.03235156
0.03235855
0.03235457
0.03233814
0.03230813
0.0322639
0.03220507
0.03213144
0.03204342
0.0319421
0.031829
0.03170563
0.03157344
0.03143412
0.03128968
0.03114246
0.03099407
0.03084414
0.03069331
0.03054274
0.03039551
0.03025407
0.03011993
0.02999348
0.0298742
0.02976066
0.02965139
0.02954468
0.02943848
0.02933079
0.02922139
0.02911137
0.02900282
0.02889599
0.02878666
0.02867631
0.02856525
0.02845452
0.02834541
0.02823888
0.02813515
0.02803334
0.02793214
0.02783203
0.02773293
0.02763263
0.02752864
0.02741826
0.02729871
0.02716759
0.0270233
0.02686537
0.02669443
0.02651205
0.02632034
0.02612175
0.02591899
0.02571524
0.02551393
0.02531806
0.0251298
0.02495087
0.02478233
0.02462396
0.024474
0.02432965
0.02418745
0.02404369
0.02389485
0.02373795
0.02357079
0.02339203
0.02320159
0.02300111
0.02279421
0.02258633
0.02238385
0.02219296
0.02201556
0.02185319
0.0217071
0.02157729
0.02146254
0.02136024
0.02126697
0.02118194
0.02110387
0.02102927
0.02095478
0.02087771
0.02079644
0.02071046
0.02061983
0.02052517
0.020427
0.02032544
0.0202209
0.02011491
0.0200107
0.01991282
0.0198246
0.019747
0.01968051
0.01962526
0.01958157
0.0195506
0.01953145
0.01952129
0.01951742
0.01951762
0.0195213
0.01952881
0.01954155
0.01955896
0.01958006
0.01959975
0.01961654
0.01962158
0.01961614
0.05572314
0.06557765
0.07480184
0.1219794
0.1662014
0.2221061
0.2564706
0.2900282
0.3208094
0.3501378
0.3765003
0.3996037
0.4196297
0.4375607
0.4539841
0.468842
0.4818772
0.4930847
0.502344
0.5103589
0.5175325
0.5245051
0.5319983
0.5396633
0.5473645
0.5547808
0.561525
0.5672979
0.5717227
0.5740956
0.5733134
0.5906368
0.5848401
0.5773447
0.568697
0.5593803
0.5497082
0.5398698
0.5300582
0.5205215
0.5114003
0.5026337
0.4939976
0.4852171
0.4762904
0.4675541
0.459347
0.4517299
0.4445164
0.4373793
0.4301232
0.4228998
0.4159477
0.4094126
0.4032983
0.3974475
0.391642
0.3857543
0.379813
0.3739772
0.3684455
0.3633243
0.3585223
0.35382
0.3490355
0.344042
0.338856
0.3337459
0.328634
0.3236025
0.3185369
0.3133936
0.3082556
0.3032524
0.2985001
0.2940745
0.290026
0.2863841
0.2831824
0.280486
0.2783947
0.2769974
0.2762838
0.276116
0.2763786
0.2770629
0.2782032
0.2798648
0.2821837
0.2851872
0.2885986
0.2919946
0.294987
0.2973018
0.2989587
0.300311
0.3015453
0.3023778
0.3024493
0.3015529
0.299901
0.2981779
0.2968459
0.295866
0.2948853
0.2936344
0.2919835
0.2897209
0.2865396
0.2821234
0.2764146
0.2701496
0.263754
0.2574729
0.2513589
0.2453869
0.2395469
0.2338821
0.2284831
0.2234591
0.2189151
0.2149161
0.2114975
0.208648
0.2063548
0.2045767
0.2033303
0.2026373
0.2026887
0.2034941
0.2050365
0.2072922
0.2101354
0.2133805
0.2168769
0.2205
0.2240677
0.2272335
0.2294994
0.2304717
0.2302421
0.2294764
0.228564
0.2276602
0.2266885
0.2254782
0.2239386
0.2221212
0.2200751
0.2177574
0.2151632
0.2123635
0.2094159
0.206379
0.2032815
0.2000738
0.1966365
0.1929214
0.1889744
0.1848793
0.1807081
0.1765013
0.1722648
0.1679977
0.1637033
0.1593787
0.1550434
0.1507168
0.1464312
0.1422424
0.1382224
0.134433
0.1308985
0.1276058
0.1245355
0.1216871
0.1190813
0.1167514
0.1147365
0.1130729
0.1117895
0.1109069
0.1104298
0.1103305
0.1105412
0.1109731
0.1115382
0.1121475
0.1126961
0.1131025
0.1132963
0.1132003
0.1127576
0.1119429
0.1107729
0.1092964
0.1075597
0.1056
0.1034443
0.101114
0.09863594
0.09604627
0.09338908
0.09071227
0.08806397
0.0854893
0.08303135
0.08072669
0.07860053
0.07666728
0.07493174
0.0733921
0.07204339
0.07087964
0.06989421
0.069079
0.068424
0.06791745
0.06754523
0.06728976
0.06713016
0.06704451
0.0670128
0.06701846
0.06704622
0.06707756
0.06708932
0.06705837
0.06696728
0.06680522
0.06656573
0.06624514
0.06584264
0.06536064
0.06480436
0.0641813
0.06350073
0.0627733
0.06201072
0.06122571
0.06043182
0.0596432
0.05887388
0.05813731
0.0574455
0.0568088
0.05623531
0.05573125
0.05530044
0.05494496
0.05466449
0.05445676
0.05431654
0.05423484
0.05419693
0.05419622
0.0542249
0.05426758
0.05431138
0.05434553
0.05436361
0.05436494
0.05435291
0.05433108
0.05430758
0.05428419
0.05425996
0.05423489
0.05421075
0.05419072
0.0541779
0.05417386
0.05417806
0.05418789
0.05419879
0.05420471
0.0541995
0.05417847
0.05413939
0.05408248
0.05400869
0.05391891
0.05381427
0.05369669
0.05356954
0.0534376
0.05330609
0.05317972
0.05306124
0.05295007
0.05284037
0.05272554
0.05260243
0.05247064
0.0523305
0.05218267
0.05202914
0.05187346
0.05171862
0.05156435
0.05140657
0.05123965
0.05105918
0.05086053
0.05063975
0.05039486
0.05012358
0.04982281
0.04949034
0.04912658
0.04873587
0.04832608
0.04789927
0.04745383
0.04698912
0.04650707
0.04601488
0.04552335
0.04504225
0.04457811
0.0441344
0.0437135
0.04331565
0.04293974
0.04257816
0.04222243
0.0418686
0.04151772
0.04117172
0.04083666
0.04052108
0.04023255
0.03997798
0.03976211
0.03958622
0.03944829
0.03934449
0.03926977
0.03921731
0.03917836
0.03914353
0.03910501
0.03905857
0.03900394
0.03894288
0.03887639
0.03880379
0.03872358
0.03863459
0.0385362
0.03842818
0.03831061
0.03818419
0.03805021
0.03790976
0.0377632
0.03761054
0.03745229
0.03728977
0.03712123
0.03694584
0.03676693
0.03658841
0.03641432
0.03624808
0.03609179
0.0359462
0.03581069
0.03568318
0.03556036
0.03543823
0.03531259
0.03517969
0.03503742
0.0348868
0.03473128
0.03457481
0.03441928
0.03426441
0.03411058
0.03395793
0.03380715
0.03365987
0.03351808
0.03338276
0.03325308
0.03312694
0.03300182
0.03287615
0.03274972
0.03261872
0.03247875
0.03232572
0.03215648
0.03196944
0.03176489
0.03154475
0.03131193
0.03106964
0.03082096
0.03056919
0.03031847
0.03007344
0.02983786
0.02961405
0.02940351
0.02920687
0.02902257
0.02884692
0.02867539
0.02850292
0.02832456
0.02813616
0.0279347
0.02771843
0.02748687
0.02724108
0.0269844
0.02672285
0.02646467
0.02621874
0.02599152
0.02578519
0.02560158
0.02544072
0.02530096
0.02517916
0.02507121
0.02497254
0.02487808
0.02478477
0.0246903
0.02459108
0.02448485
0.02437105
0.02425029
0.02412379
0.02399327
0.02385937
0.02372164
0.02358053
0.02343878
0.02330217
0.02317704
0.02306666
0.02297347
0.02289752
0.02283725
0.02279009
0.02275244
0.02272373
0.02270139
0.02268253
0.02266554
0.02265097
0.02264081
0.02263683
0.02263763
0.02263969
0.02263783
0.0226283
0.02260641
0.02257445
0.02986876
0.03370413
0.03753997
0.05169139
0.06946492
0.09988745
0.1204076
0.1415202
0.1635164
0.185441
0.2077362
0.231549
0.2567306
0.2819992
0.3075556
0.335317
0.3780184
0.3976398
0.4164357
0.4332432
0.4494431
0.4649447
0.4774628
0.4871967
0.4942902
0.4988114
0.5011356
0.5024664
0.5040508
0.5071173
0.5123603
0.5204094
0.5314521
0.5452005
0.5609582
0.57774
0.594433
0.609911
0.6231725
0.6337059
0.6401742
0.643163
0.6424303
0.6396388
0.6349983
0.6287961
0.6215154
0.6135369
0.6051227
0.5965712
0.58827
0.5805138
0.5732018
0.5658762
0.5581276
0.550054
0.5422314
0.5351446
0.5287257
0.5225073
0.5158975
0.508755
0.5014565
0.4944418
0.4880021
0.4821509
0.4765899
0.4709341
0.4649877
0.4588527
0.4528724
0.4474487
0.442722
0.4383792
0.4338563
0.4287089
0.4227238
0.4162456
0.4099171
0.4038377
0.3977
0.3912806
0.3846571
0.3782118
0.3720514
0.3661814
0.3607076
0.3558144
0.3514915
0.3477553
0.344763
0.342769
0.3419527
0.3421726
0.3429954
0.3442489
0.3460309
0.3484375
0.3516742
0.356138
0.3617784
0.3678469
0.3736018
0.3784447
0.3819663
0.3846375
0.38755
0.3908436
0.3933427
0.3939032
0.3921496
0.3888217
0.3857485
0.3839078
0.3830505
0.3823298
0.381195
0.3793829
0.3763681
0.3713873
0.3637883
0.3534546
0.3419397
0.3305906
0.3200849
0.3104896
0.3015427
0.2930515
0.284975
0.2773905
0.2704624
0.264364
0.2591917
0.2549552
0.2516201
0.2491665
0.2475622
0.2467559
0.2467057
0.2474172
0.2491702
0.2520181
0.2559703
0.2608446
0.2663216
0.2721248
0.2780979
0.2839446
0.2889405
0.2920609
0.2926072
0.2909978
0.2886532
0.2862935
0.2841224
0.2818634
0.2792038
0.2761134
0.2728082
0.2694807
0.2661244
0.2626338
0.2589526
0.2550711
0.2509982
0.2467089
0.2421205
0.2371469
0.2318085
0.2262129
0.2205336
0.2149177
0.2094073
0.2039694
0.1985688
0.1932092
0.1879018
0.1826564
0.177475
0.1723813
0.1674472
0.1627842
0.1584892
0.1545814
0.1509944
0.1476664
0.1445855
0.1417902
0.1393365
0.1372756
0.1356409
0.1344469
0.1337005
0.1333968
0.1334797
0.1338214
0.1342795
0.1347661
0.1352193
0.1355499
0.135634
0.1354027
0.1348073
0.1338121
0.1324192
0.1306819
0.1286875
0.1264916
0.1241158
0.1215647
0.118844
0.1159932
0.1130616
0.1100952
0.1071348
0.1042196
0.1013897
0.09868455
0.09613802
0.09377434
0.09160869
0.08964846
0.0878939
0.08634194
0.08498981
0.08383542
0.08287415
0.08209668
0.08148925
0.0810338
0.0807059
0.08047506
0.08031091
0.08019111
0.08010335
0.08003729
0.07997212
0.07987558
0.07971728
0.07948013
0.07915937
0.07875521
0.07826889
0.07770384
0.07706687
0.07636738
0.07561628
0.07482531
0.07400631
0.07317087
0.07233042
0.07149624
0.07067918
0.06988929
0.06913552
0.06842552
0.06776587
0.06716212
0.0666192
0.06614152
0.065733
0.06539631
0.06513156
0.06493442
0.06479525
0.06470156
0.06464157
0.06460042
0.06456115
0.06451001
0.06443733
0.06434195
0.06423181
0.0641188
0.06401178
0.06391394
0.06382573
0.06374404
0.06366848
0.063603
0.06355414
0.06352705
0.06352237
0.06353606
0.06356082
0.06358707
0.06360351
0.06359984
0.06356887
0.0635097
0.06342686
0.06332524
0.06320806
0.06307738
0.06293561
0.06278714
0.06263815
0.06249474
0.06236113
0.06223852
0.06212374
0.06200849
0.06188356
0.06174451
0.06159199
0.06142782
0.06125321
0.06107124
0.06088847
0.06071068
0.0605362
0.06035512
0.06015423
0.05992196
0.05965464
0.05935482
0.05902341
0.05865784
0.05825331
0.05780783
0.0573252
0.05681657
0.05629022
0.05574975
0.05519439
0.05462144
0.05403359
0.05344413
0.0528723
0.05233311
0.05183285
0.05137094
0.05094375
0.05054408
0.05016078
0.04978186
0.04939906
0.04900832
0.04860912
0.04820495
0.04780476
0.04742128
0.04706928
0.04675877
0.04649292
0.04627146
0.04608909
0.04593781
0.04581076
0.04570004
0.04559565
0.04548738
0.04536799
0.04523586
0.04509502
0.04495166
0.04480941
0.04466819
0.04452601
0.04438115
0.04423271
0.04408037
0.04392427
0.0437654
0.04360506
0.04344344
0.04327881
0.04310877
0.04293191
0.04274488
0.04254857
0.04234632
0.04214257
0.04194286
0.04175265
0.04157578
0.04141381
0.04126639
0.04113139
0.04100462
0.04087999
0.0407503
0.04060846
0.04044899
0.04026999
0.04007479
0.03987126
0.03966774
0.03946742
0.03926753
0.0390657
0.0388635
0.03866554
0.03847711
0.03830205
0.03814098
0.03799109
0.03784785
0.03770689
0.03756461
0.03741768
0.03726273
0.03709391
0.03690611
0.03669575
0.03646173
0.03620577
0.0359319
0.03564518
0.03535019
0.03505039
0.03474935
0.0344523
0.03416576
0.03389485
0.03364193
0.03340794
0.03319251
0.03299199
0.03279999
0.0326095
0.03241329
0.0322049
0.03197957
0.03173467
0.03146951
0.03118497
0.03088367
0.03057085
0.0302553
0.02994883
0.02966368
0.02940686
0.02918118
0.02898694
0.02882217
0.02868278
0.02856278
0.02845533
0.02835381
0.02825244
0.02814602
0.02803199
0.02790717
0.02777025
0.02762194
0.02746424
0.02730039
0.02713332
0.02696307
0.02678805
0.02660855
0.02642876
0.02625774
0.02610475
0.02597612
0.02587289
0.02579243
0.02573042
0.02568192
0.02564193
0.02560608
0.02557258
0.02553877
0.02550388
0.02546974
0.02544004
0.02541708
0.02539831
0.02537821
0.0253516
0.02531435
0.02526455
0.02520769
0.01424151
0.01636613
0.0180727
0.02693128
0.03709678
0.05045449
0.06108078
0.07286665
0.08531806
0.09837678
0.1123125
0.1284983
0.1458539
0.1647811
0.1868618
0.2205681
0.2385269
0.2572371
0.2761654
0.2952643
0.314488
0.3337881
0.352871
0.3715126
0.3894644
0.405924
0.4201094
0.4335308
0.4446105
0.4539572
0.4617314
0.467655
0.4708926
0.4706681
0.4677024
0.4632655
0.4586565
0.4552659
0.4546807
0.458106
0.4664391
0.4802236
0.4993742
0.5231943
0.5503411
0.5787972
0.6064241
0.6311234
0.6509915
0.6670636
0.6794173
0.6881293
0.6934916
0.696088
0.6961998
0.6942687
0.6907939
0.6861268
0.6806342
0.6749661
0.6699647
0.6661489
0.6630015
0.6592781
0.6542756
0.6486054
0.6438632
0.6406668
0.6378873
0.634015
0.6280278
0.6203748
0.6123797
0.6051121
0.5991898
0.5945407
0.590293
0.5855545
0.5799152
0.5735827
0.5674671
0.5626847
0.5594491
0.5567859
0.5531205
0.5471889
0.5387121
0.5291955
0.5205998
0.5125947
0.5041928
0.4950614
0.4859068
0.4771745
0.4690034
0.4614125
0.4543718
0.4478543
0.4419539
0.4368231
0.4328615
0.4308607
0.4313229
0.433647
0.43635
0.4392382
0.4428002
0.4472198
0.4529827
0.4608712
0.4705324
0.4802747
0.4891086
0.4962107
0.5007665
0.5043249
0.5099149
0.5173276
0.5228734
0.5235717
0.5190981
0.5116489
0.5056888
0.5031526
0.5029028
0.502939
0.5025612
0.5014129
0.4976792
0.4893635
0.4758813
0.4570651
0.4360495
0.4160589
0.3986681
0.3838141
0.3704485
0.3578362
0.3458779
0.3348075
0.324973
0.3166669
0.3099799
0.3047976
0.3009648
0.2984466
0.2972455
0.2972616
0.2983585
0.3004631
0.3039135
0.3092476
0.3165673
0.3252281
0.3342983
0.3433748
0.3524742
0.3612597
0.3683492
0.3718779
0.3708193
0.3662757
0.3608684
0.3559387
0.3516762
0.3473003
0.3422227
0.3366029
0.331023
0.3258874
0.3211264
0.3163806
0.3113766
0.306029
0.3002963
0.2941317
0.2874558
0.2802244
0.2725553
0.2646723
0.2568866
0.2494497
0.2423629
0.2354927
0.2287372
0.2221051
0.2156578
0.2093902
0.2032622
0.1972719
0.1915148
0.1861702
0.181391
0.1771833
0.1733968
0.1699009
0.1666923
0.1638461
0.1614379
0.1595159
0.1580927
0.1571471
0.1566624
0.1566369
0.1569997
0.1575485
0.1580601
0.1584424
0.1586928
0.15875
0.1584643
0.1577147
0.1564978
0.1548158
0.1526934
0.1502409
0.1475852
0.1447835
0.1418365
0.1387406
0.1355202
0.1322311
0.12893
0.1256577
0.12244
0.119295
0.11626
0.1133715
0.1106592
0.1081453
0.105845
0.103764
0.1018974
0.100237
0.0987799
0.09752969
0.09648701
0.09564284
0.09498
0.09447618
0.09410004
0.09380977
0.09356507
0.09334235
0.09313831
0.0929538
0.09276682
0.09253051
0.09220324
0.09176928
0.09123347
0.09060717
0.08990093
0.0891254
0.08829311
0.08741931
0.08651962
0.08560868
0.08469885
0.08380008
0.08292061
0.08206717
0.0812449
0.0804573
0.07970653
0.07899402
0.07832157
0.07769209
0.07711028
0.07658296
0.07611865
0.07572565
0.07540833
0.07516259
0.07497483
0.07482715
0.07470345
0.07458201
0.07444589
0.07427964
0.07407549
0.0738411
0.0735988
0.07337299
0.07317603
0.07300577
0.07285373
0.07271324
0.07258454
0.07247658
0.07240245
0.07237021
0.07237675
0.07241029
0.07245559
0.07249658
0.07251667
0.07249995
0.07243777
0.0723343
0.07220265
0.07205556
0.07190044
0.07173953
0.07157365
0.07140661
0.07124574
0.07109828
0.0709678
0.07085267
0.07074539
0.07063269
0.07050084
0.07034452
0.07016813
0.06997738
0.06977418
0.0695616
0.06934905
0.06914524
0.06894584
0.06873386
0.06848964
0.0681987
0.06785522
0.06746267
0.06702807
0.06655074
0.06602457
0.06544926
0.06483533
0.06419966
0.06355471
0.06290237
0.06223827
0.06155819
0.06086884
0.06019379
0.05956317
0.05899688
0.05849752
0.05805484
0.05765376
0.05727704
0.05690548
0.05652136
0.0561116
0.05566931
0.0551954
0.05470009
0.05420274
0.0537275
0.0532972
0.05292618
0.0526162
0.05235697
0.05213636
0.05194103
0.0517631
0.05159452
0.05142444
0.05124217
0.05104137
0.05082353
0.05059774
0.05037515
0.05016247
0.04996014
0.04976511
0.04957435
0.04938617
0.04919974
0.04901487
0.04883248
0.04865388
0.04847796
0.04829973
0.04811312
0.04791209
0.04769754
0.04747361
0.047245
0.04701799
0.04680027
0.04659875
0.04641711
0.04625555
0.04611219
0.0459833
0.04586226
0.04573953
0.04560415
0.04544588
0.0452575
0.04503764
0.04479264
0.04453555
0.04427939
0.04402763
0.04377531
0.04352002
0.0432672
0.04302614
0.04280513
0.04260835
0.04243405
0.04227557
0.04212461
0.04197404
0.04181826
0.04165196
0.04147093
0.04126938
0.04104191
0.04078498
0.0404982
0.04018517
0.03985278
0.03950898
0.03915982
0.03880845
0.03845785
0.03811445
0.03778778
0.03748553
0.0372101
0.03696123
0.03673698
0.0365306
0.03633197
0.03613081
0.03591715
0.03568279
0.03542262
0.03513496
0.03482101
0.03448377
0.03412767
0.0337597
0.03339131
0.03303859
0.03271817
0.03243871
0.03220222
0.03200662
0.03184743
0.03171731
0.03160633
0.03150392
0.0314011
0.03129135
0.03116992
0.03103373
0.03088068
0.03071073
0.03052608
0.0303306
0.03012967
0.02992726
0.0297218
0.02951002
0.02929205
0.02907347
0.02886748
0.02868948
0.02854715
0.02843885
0.02835817
0.02829749
0.0282493
0.02820674
0.028164
0.02811859
0.02806884
0.02801527
0.02796122
0.02791177
0.02786931
0.02782991
0.02778683
0.02773494
0.02767055
0.02759311
0.02751275
0.003916243
0.01431239
0.02095177
0.02861898
0.0368684
0.04606077
0.05634133
0.06731283
0.07932109
0.09344147
0.1142912
0.1266857
0.1399201
0.1536254
0.1678746
0.1826156
0.1977718
0.2132101
0.2287669
0.244241
0.2595058
0.2764941
0.2936326
0.3107822
0.3278211
0.3446736
0.3612437
0.3772577
0.3923181
0.4060282
0.417808
0.4273177
0.435605
0.4417733
0.445774
0.4473752
0.4459847
0.4416565
0.4348383
0.4263727
0.4177135
0.4105862
0.4068705
0.4086483
0.4174505
0.4342703
0.4594393
0.4923434
0.5318009
0.5755823
0.6203063
0.6625377
0.7000524
0.7321734
0.7589002
0.7799841
0.7960612
0.8085827
0.8183641
0.8253557
0.8295879
0.8312325
0.8303829
0.8275484
0.8242854
0.8230176
0.8251683
0.8288759
0.8305786
0.8293592
0.8273723
0.8285827
0.8329665
0.8354897
0.8320387
0.8222672
0.8100048
0.7986918