/*--------------------------------*- C++ -*----------------------------------*\
| =========                 |                                                 |
| \\      /  F ield         | foam-extend: Open Source CFD                    |
|  \\    /   O peration     | Version:     3.1                                |
|   \\  /    A nd           | Web:         http://www.extend-project.de       |
|    \\/     M anipulation  |                                                 |
\*---------------------------------------------------------------------------*/
FoamFile
{
    version     2.0;
    format      ascii;
    class       volScalarField;
    location    "20";
    object      p;
}
// * * * * * * * * * * * * * * * * * * * * * * * * * * * * * * * * * * * * * //

dimensions      [1 -1 -2 0 0 0 0];

internalField   nonuniform List<scalar> 
119952
(
5144.367
4419.598
4325.455
4450.87
4581.122
4494.074
4472.198
4449.474
4427.455
4404.587
4380.599
4356.409
4333.073
4312.229
4295.09
4282.713
4275.539
4272.321
4263.305
4215.762
4472.874
4364.545
4336.168
4652.456
4642.527
4698.824
4744.97
4839.908
5081.106
5745.942
3228.413
3199.516
3212.784
3220.829
3230.012
3238.186
3246.323
3255.13
3268.96
3256.639
3237.646
3251.748
3248.918
3247.813
3247.278
3247.462
3248.719
3249.515
3249.859
3241.178
3235.82
3225.713
3234.742
3253.027
3275.116
3313.759
3360.271
3416.054
3478.707
3531.604
3593.288
3658.33
3719.703
3778.828
3835.839
3890.841
3947.612
4028.46
4145.324
4103.442
4110.106
4172.222
4206.333
4205.294
4183.562
4164.384
4144.519
4121.72
4097.675
4073.697
4050.955
4030.88
4014.954
4004.193
3999.834
4002.157
4010.5
4028.884
4071.874
4115.541
4142.255
4238.117
4356.452
4402.789
4440.19
4475.666
4462.683
4336.428
4338.153
4395.068
4427.867
4460.257
4491.26
4520.329
4549.008
4577.536
4606.016
4634.46
4662.803
4690.929
4718.627
4745.651
4771.787
4797.045
4821.833
4846.717
4871.881
4896.975
4921.462
4945.008
4967.545
4989.111
5009.659
5028.952
5046.855
5063.316
5078.316
5091.847
5103.945
5114.633
5124
5132.18
5139.388
5145.757
5151.424
5156.757
5161.984
5167.171
5172.449
5177.717
5182.45
5186.11
5189.598
5195.163
5203.014
5211.831
5221.776
5234.639
5245.619
5253.024
5261.696
5270.509
5279.39
5288.262
5297.067
5305.695
5313.956
5321.781
5329.132
5335.938
5342.195
5347.823
5352.859
5357.275
5361.057
5364.273
5366.919
5369.085
5370.847
5372.224
5373.331
5374.309
5375.178
5375.913
5376.62
5377.333
5378.075
5378.863
5379.713
5380.639
5381.655
5382.764
5383.952
5385.191
5386.442
5387.667
5388.835
5389.929
5390.94
5391.86
5392.689
5393.423
5394.01
5394.484
5394.791
5394.728
5394.93
5429.281
5429.977
5429.725
5429.49
5429.223
5428.866
5428.41
5427.882
5427.314
5426.72
5426.105
5425.423
5424.753
5424.11
5423.363
5422.537
5421.617
5420.585
5419.421
5418.112
5416.646
5415.016
5413.217
5411.25
5409.117
5406.821
5404.365
5401.743
5398.934
5395.896
5392.555
5388.786
5384.339
5378.668
5370.679
5361.203
5367.996
5372.066
5374.246
5375.566
5376.446
5377.04
5377.467
5377.816
5378.138
5378.471
5378.843
5379.272
5379.772
5380.354
5381.035
5381.84
5382.802
5383.958
5385.328
5386.767
5388.785
5390.976
5393.441
5396.193
5399.226
5402.516
5406.036
5409.744
5413.597
5417.549
5421.559
5425.587
5429.554
5433.521
5424.778
5418.858
5413.282
5417.323
5419.979
5422.216
5424.669
5427.199
5429.496
5431.661
5433.686
5435.565
5437.263
5438.746
5439.989
5440.969
5441.675
5442.102
5442.254
5442.146
5441.796
5441.227
5440.463
5439.523
5438.419
5437.165
5435.774
5434.259
5432.63
5430.899
5429.075
5427.162
5425.181
5423.127
5421.038
5418.94
5416.764
5414.572
5412.382
5410.215
5408.084
5406.009
5404.021
5402.176
5400.475
5398.484
5395.414
5391.992
5388.931
5386.029
5383.222
5380.685
5378.059
5373.238
5365.801
5367.027
5366.673
5364.468
5362.666
5361.014
5359.35
5357.828
5356.446
5355.126
5353.912
5352.776
5351.721
5350.74
5349.812
5348.948
5348.146
5347.405
5346.728
5346.121
5345.589
5345.141
5344.768
5344.504
5344.317
5344.215
5344.189
5344.226
5344.311
5344.426
5344.55
5344.661
5344.734
5344.753
5344.702
5344.575
5344.368
5344.086
5343.738
5343.334
5342.889
5342.42
5341.94
5341.462
5340.99
5340.518
5340.034
5339.517
5338.947
5338.298
5337.536
5336.647
5335.625
5334.451
5333.12
5331.628
5329.97
5328.163
5326.219
5324.145
5321.956
5319.669
5317.295
5314.844
5312.325
5309.74
5307.112
5304.44
5301.723
5298.954
5296.118
5293.198
5290.165
5286.989
5283.633
5280.05
5276.163
5271.873
5267.043
5261.395
5254.491
5245.994
5237.74
5241.661
5280.643
2192.966
2210.782
2225.098
2241.701
2261.96
2288.425
2315.164
2345.215
2366.555
2340.371
2378.636
2396.975
2412.396
2426.646
2439.682
2452.794
2466.613
2481.197
2487.501
2524.751
2525.688
2549.985
2580.918
2613.458
2648.864
2685.057
2721.657
2757.402
2790.322
2812.493
2841.441
2866.701
2886.983
2902.514
2914.257
2922.785
2931.12
2943.876
2936.516
2935.815
2941.158
2946.671
2951.981
2957.593
2963.425
2969.151
2974.298
2972.737
2974.193
2974.298
2972.721
2972.357
2973.998
2976.085
2977.345
2977.247
2905.658
2904.763
2907.249
2914.028
2929.122
2956.721
2998.083
3049.865
3111.562
3177.725
3245.345
3311.205
3375.289
3437.967
3499.363
3559.365
3618.677
3677.152
3732.801
3782.005
3815.324
3836.341
3856.913
3873.085
3877.465
3866.297
3848.28
3827.05
3801.998
3774.945
3748.19
3723.401
3702.005
3685.784
3677.066
3677.806
3688.669
3709.672
3740.687
3780.752
3828.329
3882.753
3945.474
4010.445
4061.807
4095.626
4112.536
4111.258
4096.43
4097.801
4118.171
4143.842
4170.659
4197.411
4224.247
4251.809
4280.03
4308.503
4336.955
4365.253
4393.252
4420.791
4447.783
4474.284
4500.458
4526.507
4552.524
4578.389
4603.791
4628.377
4651.938
4674.396
4695.682
4715.734
4734.432
4751.655
4767.317
4781.369
4793.777
4804.59
4813.97
4821.844
4828.542
4834.738
4840.133
4844.479
4848.874
4853.473
4857.797
4862.465
4867.46
4872.69
4878.173
4884.218
4891.467
4900.104
4909.807
4920.169
4930.786
4941.255
4950.86
4960.282
4969.599
4978.789
4987.759
4996.44
5004.781
5012.705
5020.138
5027.053
5033.415
5039.21
5044.406
5048.993
5052.951
5056.32
5059.099
5061.314
5063.131
5064.593
5065.633
5066.477
5067.216
5067.891
5068.54
5069.236
5070.022
5070.919
5071.937
5073.073
5074.316
5075.649
5077.047
5078.48
5079.911
5081.303
5082.62
5083.837
5084.934
5085.908
5086.757
5087.491
5088.111
5088.647
5089.056
5089.53
5089.955
5090.665
5152.88
5153.244
5153.151
5152.934
5152.627
5152.188
5151.665
5151.108
5150.541
5149.976
5149.42
5148.853
5148.276
5147.667
5146.99
5146.231
5145.373
5144.396
5143.28
5142.007
5140.562
5138.938
5137.133
5135.151
5133
5130.693
5128.236
5125.623
5122.834
5119.836
5116.573
5112.965
5108.91
5104.389
5099.858
5096.576
5096.724
5098.721
5099.948
5100.793
5101.414
5101.843
5102.164
5102.442
5102.715
5103.015
5103.357
5103.749
5104.202
5104.731
5105.364
5106.133
5107.073
5108.213
5109.587
5111.214
5113.119
5115.329
5117.835
5120.634
5123.717
5127.067
5130.664
5134.46
5138.421
5142.493
5146.627
5150.791
5155.018
5159.51
5108.204
5113.463
5113.481
5113.05
5114.812
5117.284
5119.726
5122.08
5124.293
5126.362
5128.318
5130.132
5131.741
5133.097
5134.178
5134.976
5135.49
5135.728
5135.705
5135.443
5134.968
5134.308
5133.481
5132.497
5131.364
5130.09
5128.691
5127.181
5125.566
5123.851
5122.048
5120.165
5118.212
5116.201
5114.134
5112.036
5109.899
5107.746
5105.581
5103.444
5101.319
5099.218
5097.13
5095.023
5092.825
5090.417
5087.697
5084.737
5081.726
5078.766
5075.85
5072.879
5069.595
5065.801
5062.001
5059.558
5058.293
5057.267
5055.931
5054.32
5052.687
5051.187
5049.786
5048.514
5047.276
5046.12
5045.038
5044.025
5043.071
5042.174
5041.335
5040.561
5039.863
5039.252
5038.731
5038.308
5037.984
5037.756
5037.622
5037.579
5037.613
5037.701
5037.827
5037.971
5038.103
5038.196
5038.232
5038.197
5038.083
5037.887
5037.615
5037.278
5036.893
5036.479
5036.054
5035.636
5035.236
5034.863
5034.509
5034.149
5033.76
5033.314
5032.787
5032.174
5031.342
5030.396
5029.295
5028.027
5026.593
5024.997
5023.251
5021.359
5019.368
5017.231
5014.994
5012.676
5010.284
5007.83
5005.327
5002.778
5000.191
4997.574
4994.915
4992.186
4989.375
4986.461
4983.423
4980.234
4976.874
4973.309
4969.523
4965.448
4961.104
4956.521
4952.097
4948.485
4947.122
4948.27
4952.492
3868.59
4140.873
4411.249
4665.786
4897.611
5089.756
5232.582
5317.277
5339.431
5291.993
5165.233
5012.683
4820.531
4599.205
4358.64
4108.825
3858.978
3615.722
3388.932
3100.025
2911.541
2738.689
2586.708
2456.574
2346.534
2255.053
2180.629
2122.161
2082.634
2044.084
2015.437
1996.954
1981.451
1967.416
1954.775
1944.33
1937.497
1939.971
1939.179
1932.989
1945.363
1963.373
1983.57
2006.645
2030.992
2054.719
2076.698
2095.82
2112.195
2130.258
2144.889
2157.247
2168.446
2179.884
2192.454
2208.444
2168.984
2191.795
2218.564
2248.221
2280.315
2315.283
2352.853
2391.614
2429.574
2464.887
2497.746
2528.911
2556.326
2579.508
2597.965
2610.26
2617.002
2621.501
2625.738
2629.624
2633.317
2636.372
2638.356
2640.29
2643.699
2648.877
2656.071
2662.937
2667.798
2670.138
2668.762
2664.782
2662.056
2662.513
2667.187
2672.44
2673.817
2670.199
2661.377
2652.523
2644.392
2642.784
2652.692
2678.741
2720.47
2779.518
2847.938
2920.789
2994.301
3066.014
3134.954
3201.159
3264.839
3326.255
3384.891
3440.953
3493.334
3539.738
3573.465
3596.61
3614.379
3627.44
3631.76
3622.832
3604.194
3579.974
3551.282
3520.155
3489.228
3460.493
3435.619
3417.043
3407.952
3411.092
3427.104
3454.72
3491.531
3535.609
3585.668
3638.847
3694.101
3749.63
3797.419
3831.239
3852.768
3863.189
3866.89
3872.496
3887.112
3908.471
3931.985
3956.226
3981.542
4008.346
4036.329
4064.819
4093.331
4121.723
4149.875
4177.612
4204.873
4231.791
4258.601
4285.503
4312.501
4339.346
4365.613
4390.889
4414.946
4437.726
4459.183
4479.266
4497.85
4514.805
4530.035
4543.464
4555.057
4564.891
4573.165
4580.019
4585.848
4590.951
4595.248
4598.637
4602.154
4605.958
4609.685
4613.927
4618.872
4624.491
4630.706
4637.625
4645.602
4654.768
4664.842
4675.476
4686.467
4697.601
4708.314
4718.487
4728.275
4737.767
4746.897
4755.62
4763.876
4771.618
4778.823
4785.478
4791.569
4797.081
4801.986
4806.261
4809.901
4812.915
4815.325
4817.242
4818.73
4819.807
4820.594
4821.204
4821.698
4822.153
4822.658
4823.292
4824.097
4825.089
4826.268
4827.62
4829.115
4830.711
4832.365
4834.03
4835.657
4837.203
4838.63
4839.91
4841.03
4841.985
4842.787
4843.454
4844.003
4844.469
4844.858
4845.248
4845.568
4845.831
4846.106
4846.426
4846.424
4846.068
4845.587
4845.025
4844.412
4843.809
4843.238
4842.716
4842.23
4841.761
4841.277
4840.751
4840.156
4839.476
4838.692
4837.781
4836.713
4835.465
4834.021
4832.374
4830.53
4828.497
4826.292
4823.942
4821.474
4818.888
4816.165
4813.289
4810.247
4807.051
4803.767
4800.576
4797.807
4795.919
4795.189
4795.32
4795.671
4795.94
4796.103
4796.215
4796.321
4796.448
4796.613
4796.834
4797.115
4797.447
4797.837
4798.291
4798.85
4799.552
4800.44
4801.551
4802.911
4804.55
4806.483
4808.73
4811.308
4814.217
4817.435
4820.938
4824.692
4828.648
4832.801
4837.107
4841.465
4845.78
4849.86
4853.328
4855.622
4857.542
4860.669
4864.375
4868.031
4871.36
4874.267
4876.919
4879.387
4881.675
4883.775
4885.663
4887.29
4888.616
4889.625
4890.323
4890.722
4890.845
4890.715
4890.359
4889.804
4889.091
4888.24
4887.251
4886.122
4884.856
4883.477
4881.998
4880.421
4878.744
4876.978
4875.132
4873.213
4871.233
4869.211
4867.192
4864.995
4862.829
4860.68
4858.522
4856.383
4854.245
4852.091
4849.886
4847.578
4845.108
4842.414
4839.512
4836.512
4833.523
4830.608
4827.841
4825.405
4823.418
4821.742
4819.579
4816.993
4814.359
4811.948
4809.824
4807.953
4806.292
4804.85
4803.606
4802.221
4801
4799.877
4798.821
4797.817
4796.86
4795.962
4795.137
4794.4
4793.762
4793.231
4792.808
4792.498
4792.299
4792.204
4792.2
4792.287
4792.424
4792.589
4792.766
4792.93
4793.032
4793.057
4792.997
4792.846
4792.605
4792.287
4791.911
4791.502
4791.086
4790.685
4790.318
4789.992
4789.728
4789.474
4789.229
4788.948
4788.59
4788.117
4787.475
4786.755
4785.827
4784.683
4783.364
4781.873
4780.222
4778.422
4776.467
4774.436
4772.265
4769.987
4767.653
4765.258
4762.824
4760.368
4757.864
4755.305
4752.744
4750.145
4747.481
4744.717
4741.843
4738.833
4735.692
4732.401
4728.969
4725.396
4721.704
4717.935
4714.273
4710.949
4708.271
4706.469
4706.266
4707.527
2008.287
2053.505
2105.811
2159.077
2238.5
2315.617
2435.997
2578.897
2746.777
2915.531
3097.88
3312.829
3543.914
3790.129
4038.697
4276.849
4491.565
4668.776
4795.609
4864.063
4871.197
4820.944
4717.76
4562.553
4367.856
4145.257
3905.334
3657.897
3412.739
3178.694
2967.066
2609.071
2441.465
2297.587
2164.844
2048.935
1952.089
1872.723
1809.041
1760.169
1724.918
1701.474
1685.239
1672.615
1660.169
1647.298
1634.495
1623.024
1615.161
1612.325
1613.285
1621.44
1635.725
1654.796
1678.603
1705.629
1732.581
1757.133
1778.716
1797.746
1815.364
1832.147
1846.735
1855.547
1862.856
1872.384
1879.432
1893.542
1917.803
1943.336
1968.238
1996.557
2029.391
2066.809
2108.056
2150.659
2191.828
2229.849
2264.526
2296.282
2325.289
2350.493
2369.501
2378.963
2380.52
2380.431
2382.153
2385.661
2389.353
2391.484
2391.283
2391.588
2395.788
2402.152
2410.719
2419.761
2426.257
2429.325
2425.279
2416.422
2411.779
2412.956
2421.749
2432.261
2436.205
2430.457
2414.565
2393.57
2372.851
2360.995
2364.177
2385.701
2430.36
2494.368
2571.466
2654.443
2737.086
2815.759
2889.435
2958.78
3024.728
3087.735
3147.326
3203.155
3254.144
3298.849
3334.874
3361.571
3380.494
3391.94
3394.438
3385.867
3366.716
3338.954
3304.908
3267.823
3230.929
3196.411
3165.855
3142.273
3130.364
3134.45
3154.896
3188.974
3232.437
3281.975
3334.631
3388.469
3442.551
3495.048
3541.139
3576.791
3602.343
3619.457
3630.594
3640.03
3652.732
3669.534
3689.706
3711.719
3735.604
3761.879
3789.843
3818.484
3847.113
3875.533
3903.712
3931.505
3958.861
3985.981
4013.214
4040.821
4068.753
4096.676
4124.057
4150.336
4175.219
4198.756
4220.898
4241.471
4260.308
4277.34
4292.473
4305.612
4316.747
4325.959
4333.395
4339.28
4344.036
4348.056
4351.536
4354.068
4356.312
4359.18
4362.354
4366.112
4370.863
4376.61
4383.233
4390.693
4399.088
4408.44
4418.613
4429.421
4440.646
4452.047
4463.301
4474.295
4484.873
4495.053
4504.737
4513.841
4522.321
4530.158
4537.359
4543.942
4549.916
4555.277
4560.002
4564.062
4567.439
4570.142
4572.215
4573.744
4574.815
4575.52
4575.976
4576.266
4576.455
4576.639
4576.946
4577.478
4578.279
4579.348
4580.674
4582.226
4583.948
4585.775
4587.644
4589.491
4591.26
4592.904
4594.385
4595.683
4596.787
4597.707
4598.46
4599.076
4599.584
4600.017
4600.39
4600.728
4600.997
4601.197
4601.35
4601.371
4601.148
4600.684
4600.074
4599.387
4598.678
4598.007
4597.422
4596.947
4596.56
4596.208
4595.84
4595.427
4594.944
4594.378
4593.708
4592.905
4591.927
4590.744
4589.336
4587.695
4585.843
4583.788
4581.557
4579.194
4576.749
4574.23
4571.623
4568.921
4566.133
4563.298
4560.505
4557.882
4555.597
4553.834
4552.769
4552.324
4552.171
4552.054
4551.918
4551.8
4551.732
4551.723
4551.777
4551.906
4552.113
4552.377
4552.7
4553.03
4553.468
4554.042
4554.801
4555.794
4557.059
4558.652
4560.571
4562.796
4565.357
4568.27
4571.548
4575.168
4579.071
4583.205
4587.568
4592.105
4596.696
4601.193
4605.496
4609.742
4614.072
4618.248
4621.69
4624.34
4626.635
4628.843
4630.983
4633.262
4635.531
4637.695
4639.722
4641.576
4643.169
4644.436
4645.363
4645.964
4646.26
4646.273
4646.03
4645.561
4644.902
4644.121
4643.241
4642.248
4641.135
4639.895
4638.526
4637.047
4635.479
4633.811
4632.051
4630.208
4628.285
4626.286
4624.215
4622.016
4619.945
4617.819
4615.672
4613.506
4611.341
4609.172
4606.976
4604.718
4602.354
4599.838
4597.135
4594.255
4591.259
4588.233
4585.249
4582.368
4579.606
4576.915
4574.273
4571.713
4569.371
4567.311
4565.478
4563.788
4562.198
4560.697
4559.297
4557.89
4556.781
4555.65
4554.55
4553.488
4552.457
4551.46
4550.515
4549.642
4548.862
4548.197
4547.649
4547.221
4546.918
4546.74
4546.674
4546.714
4546.872
4547.085
4547.315
4547.55
4547.776
4547.921
4547.965
4547.902
4547.728
4547.449
4547.082
4546.659
4546.213
4545.773
4545.369
4545.021
4544.737
4544.516
4544.37
4544.246
4544.09
4543.849
4543.478
4542.942
4542.233
4541.302
4540.177
4538.829
4537.293
4535.581
4533.73
4531.743
4529.589
4527.343
4525.04
4522.689
4520.279
4517.845
4515.463
4512.839
4510.33
4507.831
4505.302
4502.715
4500.037
4497.234
4494.304
4491.243
4488.061
4484.781
4481.435
4478.053
4474.693
4471.55
4468.793
4466.501
4464.854
4464.082
4464.071
1882.102
1862.232
1846.909
1810.603
1785.496
1734.144
1719.471
1709.444
1705.923
1709.399
1720.776
1738.973
1769.694
1812.163
1866.928
1939.125
1984.139
2098.586
2227.134
2374.499
2543.061
2737.263
2954.746
3190.574
3438.649
3689.529
3925.046
4131.303
4294.257
4402.461
4448.974
4432.414
4356.796
4229.195
4057.642
3851.576
3621.966
3379.987
3135.384
2895.854
2664.195
2445.185
2242.902
2075.6
1939.176
1821.769
1721.051
1636.318
1565.764
1508.743
1466.52
1440.777
1428.488
1420.249
1415.389
1405.681
1392.916
1379.177
1364.773
1352.063
1346.998
1346.153
1356.789
1376.503
1399.65
1426.823
1458.643
1490.205
1517.979
1540.485
1557.93
1573.701
1592.209
1609.376
1617.982
1617.471
1619.758
1619.778
1631.551
1657.5
1684.718
1709.527
1737.837
1770.66
1810.834
1858.658
1908.717
1955.111
1994.783
2029.85
2063.903
2097.711
2128.209
2149.427
2153.646
2146.196
2140.143
2138.88
2140.777
2144.984
2148.161
2144.927
2141.472
2146.592
2154.662
2167.161
2180.485
2189.109
2193.035
2187.367
2170.581
2159.427
2159.96
2174.661
2194.893
2206.03
2198.607
2171.624
2133.889
2093.71
2066.625
2060.176
2075.805
2120.105
2190.468
2278.757
2375.447
2470.803
2558.531
2637.756
2710.741
2779.707
2845.365
2907.064
2964.167
3016.025
3062.001
3100.879
3131.157
3152.308
3164.421
3167.219
3159.236
3139.082
3106.314
3064.014
3017.92
2972.846
2930.705
2891.732
2859.557
2841.45
2845.569
2870.613
2913.536
2967.191
3024.211
3080.136
3135.055
3190.441
3244.201
3291.859
3329.963
3358.268
3378.428
3392.471
3403.481
3414.626
3427.28
3443.556
3463.473
3486.351
3512.685
3541.261
3570.585
3599.82
3628.721
3657.217
3685.188
3712.598
3739.762
3767.219
3795.405
3824.292
3853.436
3882.128
3909.612
3935.574
3959.958
3982.686
4003.703
4022.89
4040.111
4055.227
4068.152
4078.907
4087.544
4094.124
4098.902
4102.605
4105.73
4108.376
4110.024
4111.142
4113.069
4115.471
4118.526
4122.964
4128.845
4135.858
4143.676
4152.315
4161.869
4172.263
4183.328
4194.863
4206.645
4218.388
4229.881
4240.987
4251.65
4261.773
4271.246
4280.017
4288.068
4295.407
4302.068
4308.075
4313.433
4318.105
4322.052
4325.251
4327.698
4329.428
4330.542
4331.145
4331.401
4331.484
4331.448
4331.306
4331.163
4331.215
4331.611
4332.398
4333.548
4335.04
4336.824
4338.806
4340.893
4342.999
4345.044
4346.958
4348.691
4350.205
4351.484
4352.53
4353.361
4354.014
4354.532
4354.961
4355.338
4355.685
4356.011
4356.287
4356.475
4356.523
4356.359
4356.024
4355.45
4354.716
4353.897
4353.073
4352.33
4351.743
4351.33
4351.055
4350.832
4350.596
4350.308
4349.943
4349.491
4348.938
4348.251
4347.373
4346.257
4344.877
4343.216
4341.34
4339.231
4336.921
4334.519
4332.094
4329.656
4327.173
4324.632
4322.046
4319.459
4316.962
4314.646
4312.602
4310.924
4309.699
4308.892
4308.333
4307.858
4307.432
4307.09
4306.851
4306.699
4306.616
4306.634
4306.785
4307.023
4307.25
4307.524
4307.848
4308.253
4308.849
4309.709
4310.904
4312.443
4314.322
4316.44
4318.961
4321.88
4325.258
4329.057
4333.162
4337.473
4342.093
4346.958
4351.92
4356.751
4361.348
4365.659
4369.53
4372.824
4375.644
4378.24
4380.786
4383.326
4386.015
4388.6
4391.025
4393.313
4395.446
4397.411
4399.071
4400.34
4401.224
4401.772
4402.002
4401.932
4401.583
4400.986
4400.184
4399.34
4398.469
4397.549
4396.485
4395.266
4393.889
4392.37
4390.75
4389.057
4387.283
4385.428
4383.495
4381.485
4379.378
4377.219
4375.059
4372.875
4370.675
4368.469
4366.271
4364.074
4361.854
4359.572
4357.182
4354.643
4351.922
4349.021
4345.981
4342.866
4339.748
4336.699
4333.747
4330.949
4328.45
4326.241
4324.15
4322.119
4320.198
4318.439
4316.836
4315.357
4313.974
4312.666
4311.474
4310.318
4309.196
4308.106
4307.045
4306.014
4305.023
4304.1
4303.272
4302.561
4301.978
4301.536
4301.236
4301.073
4301.034
4301.109
4301.339
4301.674
4302.009
4302.34
4302.655
4302.871
4302.957
4302.91
4302.726
4302.416
4302.003
4301.52
4301.01
4300.521
4300.09
4299.739
4299.483
4299.314
4299.268
4299.284
4299.279
4299.18
4298.934
4298.5
4297.849
4296.956
4295.819
4294.446
4292.871
4291.115
4289.201
4287.153
4284.883
4282.5
4280.156
4277.796
4275.353
4272.858
4270.348
4267.871
4265.37
4262.923
4260.489
4257.999
4255.414
4252.702
4249.855
4246.879
4243.8
4240.654
4237.487
4234.315
4231.171
4228.4
4226.037
4224.017
4222.44
4221.474
4220.981
2098.608
2045.194
1993.704
1930.53
1884.816
1805.13
1764.58
1726.128
1690.155
1655.326
1622.517
1591.584
1562.462
1536.015
1511.441
1428.838
1413.91
1403.612
1399.071
1400.973
1410.187
1427.812
1455.374
1493.871
1544.704
1610.807
1687.736
1787.031
1904.136
2042.128
2203.292
2389.464
2600.041
2834.273
3076.131
3318.176
3544.618
3740.944
3892.263
3986.922
4017.645
3982.981
3888.886
3744.771
3561.673
3350.387
3121.623
2882.729
2643.385
2413.042
2191.302
1987.339
1809.729
1662.765
1543.139
1444.688
1362.955
1295.362
1239.161
1193.823
1162.683
1149.751
1153.083
1156.969
1160.344
1158.037
1142.483
1122.61
1104.796
1085.618
1073.098
1068.568
1079.471
1104.76
1136.793
1173.754
1215.8
1250.179
1277.473
1299.522
1318.974
1335.536
1357.88
1376.397
1383.716
1374.484
1359.114
1347.438
1356.373
1388.642
1420.361
1444.157
1476.336
1507.618
1547.889
1602.925
1663.261
1718.99
1761.499
1795.615
1830.267
1871.041
1912.455
1940.575
1934.397
1911.082
1898.756
1895.781
1895.757
1899.484
1904.257
1896.741
1888.836
1898.445
1907.496
1922.396
1947.214
1964.91
1972.399
1961.186
1926.575
1898.491
1900.952
1928.869
1968.242
1993.087
1983.093
1942.028
1881.982
1806.623
1760.879
1747.727
1750.576
1791.355
1871.602
1976.224
2090.819
2201.14
2298.878
2383.883
2460.161
2531.798
2600.397
2664.779
2724.018
2778.158
2827.444
2870.613
2905.111
2929.183
2943.26
2948.829
2943.44
2921.809
2881.38
2827.438
2769.168
2713.591
2662.512
2612.655
2568.896
2540.716
2547.469
2580.235
2634.566
2699.683
2764.458
2823.74
2881.074
2939.993
2998.296
3050.024
3090.672
3120.255
3141.077
3155.263
3165.132
3173.328
3182.447
3194.356
3211.415
3233.821
3260.735
3290.412
3320.783
3350.817
3380.273
3409.125
3437.279
3464.612
3491.586
3518.958
3547.467
3577.288
3608.023
3639.183
3668.676
3695.52
3720.398
3743.734
3765.381
3785.137
3802.802
3818.078
3830.849
3841.451
3849.795
3855.559
3859.049
3861.647
3864.018
3865.914
3866.576
3866.525
3867.382
3868.821
3871.072
3875.024
3880.756
3888.212
3896.52
3905.428
3915.187
3925.84
3937.257
3949.15
3961.267
3973.406
3985.368
3996.982
4008.147
4018.729
4028.6
4037.678
4045.925
4053.375
4060.102
4066.16
4071.571
4076.267
4080.168
4083.265
4085.524
4086.939
4087.623
4087.692
4087.425
4087.137
4086.792
4086.253
4085.638
4085.348
4085.616
4086.46
4087.727
4089.403
4091.446
4093.722
4096.101
4098.464
4100.709
4102.757
4104.552
4106.059
4107.269
4108.195
4108.877
4109.371
4109.747
4110.066
4110.378
4110.71
4111.064
4111.397
4111.634
4111.688
4111.508
4111.014
4110.303
4109.43
4108.466
4107.504
4106.662
4106.053
4105.723
4105.613
4105.572
4105.505
4105.362
4105.123
4104.792
4104.367
4103.812
4103.041
4101.999
4100.633
4098.959
4097.056
4094.872
4092.48
4090.008
4087.551
4085.151
4082.775
4080.374
4077.929
4075.478
4073.16
4071.039
4069.145
4067.507
4066.17
4065.123
4064.268
4063.484
4062.782
4062.229
4061.84
4061.551
4061.31
4061.251
4061.396
4061.622
4061.805
4061.945
4062.052
4062.266
4062.701
4063.538
4064.775
4066.127
4067.725
4069.711
4072.16
4075.027
4078.604
4082.758
4087.239
4091.962
4096.973
4102.159
4107.372
4112.458
4117.295
4121.716
4125.652
4129.132
4132.27
4135.104
4137.701
4140.066
4142.216
4144.537
4146.88
4149.115
4151.234
4153.361
4155.142
4156.44
4157.296
4157.817
4158.004
4157.877
4157.44
4156.746
4155.912
4155.035
4154.129
4153.153
4152.058
4150.819
4149.423
4147.887
4146.234
4144.505
4142.691
4140.81
4138.863
4136.81
4134.665
4132.466
4130.23
4127.959
4125.678
4123.41
4121.161
4118.934
4116.698
4114.404
4112.011
4109.469
4106.736
4103.8
4100.69
4097.465
4094.179
4090.961
4087.795
4084.866
4082.509
4080.448
4078.308
4076.202
4074.26
4072.53
4070.999
4069.625
4068.353
4067.146
4065.989
4064.856
4063.737
4062.632
4061.559
4060.508
4059.488
4058.522
4057.628
4056.838
4056.196
4055.738
4055.451
4055.302
4055.274
4055.382
4055.7
4056.202
4056.693
4057.155
4057.574
4057.882
4058.036
4058.028
4057.847
4057.509
4057.044
4056.488
4055.9
4055.344
4054.866
4054.48
4054.175
4054.04
4054.113
4054.31
4054.491
4054.56
4054.463
4054.153
4053.584
4052.733
4051.592
4050.205
4048.603
4046.808
4044.824
4042.701
4040.384
4037.892
4035.5
4033.097
4030.605
4028.073
4025.602
4022.953
4020.358
4017.948
4015.634
4013.269
4010.786
4008.17
4005.418
4002.534
3999.557
3996.538
3993.531
3990.567
3987.729
3985.177
3982.938
3981.002
3979.43
3978.394
3977.698
2244.476
2162.632
2071.582
1976.211
1890.173
1818.649
1756.03
1700.698
1651.782
1605.021
1494.509
1454.883
1417.303
1381.529
1347.299
1314.801
1284.001
1254.627
1227.747
1204.174
1183.345
1166.995
1154.69
1147.37
1145.881
1150.679
1162.682
1183.783
1215.865
1260.786
1319.315
1391.193
1480.776
1589.445
1720.53
1876.106
2056.975
2260.893
2483.58
2713.69
2939.958
3148.251
3324.029
3452.707
3523.016
3527.214
3465.825
3345.673
3180.771
2983.606
2767.867
2539.714
2303.33
2071.248
1856.891
1659.205
1484.416
1336.107
1213.385
1115.976
1041.312
979.9467
926.9709
881.3722
847.9331
833.0492
844.2733
880.2612
902.7864
903.6839
916.2808
906.5495
873.5632
844.0573
810.3889
780.1434
782.5021
805.4071
822.9224
848.8494
901.443
981.9961
1027.407
1054.103
1061.633
1061.023
1086.378
1142.754
1175.253
1174.156
1143.951
1081.671
1039.257
1068.44
1135.187
1170.072
1181.605
1198.042
1225.611
1280.058
1358.127
1429.508
1485.359
1524.245
1562.966
1601.987
1652.559
1707.963
1750.141
1723.913
1671.818
1651.757
1649.923
1653.149
1660.762
1662.954
1641.571
1642.34
1668.553
1679.599
1662.813
1698.354
1770.038
1803.154
1758.774
1676.003
1601.243
1599.895
1682.205
1788.15
1823.551
1791.372
1726.238
1678.487
1601.451
1523.288
1460.547
1423.385
1444.513
1534.679
1659.913
1802.735
1937.447
2045.105
2131.914
2208.613
2282.092
2353.967
2421.511
2483.212
2539.59
2592.759
2641.861
2682.651
2712.072
2730.692
2739.332
2736.587
2713.044
2663.796
2595.519
2523.747
2457.591
2395.467
2329.848
2271.195
2244.534
2240.987
2282.419
2353.711
2433.393
2506.054
2567.672
2628.319
2692.347
2756.932
2814.078
2857.285
2887.216
2907.541
2920.306
2927.44
2931.635
2936.058
2943.288
2957.188
2979.286
3007.703
3039.58
3071.554
3102.204
3131.586
3160.435
3188.649
3215.576
3241.851
3268.347
3296.378
3327.542
3362.319
3396.265
3426.164
3453.082
3478.573
3503.004
3525.767
3546.39
3564.725
3580.355
3593.238
3604.42
3613.105
3617.798
3618.761
3619.979
3622.547
3624.712
3624.33
3622.696
3622.012
3622.256
3623.462
3627.335
3633.608
3641.148
3649.172
3657.988
3667.882
3678.925
3690.789
3703.097
3715.58
3728.117
3740.531
3752.602
3764.255
3775.311
3785.578
3794.973
3803.426
3810.996
3817.809
3823.944
3829.461
3834.273
3838.243
3841.407
3843.636
3844.801
3844.979
3844.246
3843.228
3842.72
3842.367
3841.561
3840.764
3840.162
3839.958
3840.465
3841.714
3843.611
3845.987
3848.611
3851.327
3853.979
3856.438
3858.611
3860.445
3861.907
3862.997
3863.749
3864.226
3864.506
3864.689
3864.864
3865.098
3865.427
3865.851
3866.315
3866.698
3866.839
3866.637
3866.075
3865.243
3864.238
3863.126
3861.992
3860.993
3860.328
3860.119
3860.245
3860.439
3860.581
3860.603
3860.486
3860.269
3859.999
3859.646
3859.066
3858.146
3856.768
3855.021
3853.002
3850.732
3848.199
3845.56
3843.023
3840.659
3838.398
3836.15
3833.865
3831.556
3829.315
3827.213
3825.326
3823.661
3822.21
3820.991
3819.919
3818.846
3817.864
3817.14
3816.663
3816.262
3815.828
3815.736
3815.882
3816.089
3816.195
3816.249
3816.226
3816.321
3816.762
3817.652
3818.622
3819.637
3820.773
3822.624
3825.334
3828.674
3832.603
3836.76
3841.293
3846.346
3851.76
3857.367
3862.937
3868.339
3873.421
3878.026
3882.104
3885.663
3888.753
3891.41
3893.746
3895.922
3898.003
3900.072
3902.291
3904.609
3906.872
3909.363
3911.395
3912.797
3913.679
3914.196
3914.32
3914.15
3913.661
3912.946
3912.118
3911.107
3910.003
3908.887
3907.762
3906.534
3905.151
3903.625
3901.967
3900.175
3898.278
3896.349
3894.378
3892.279
3890.044
3887.754
3885.437
3883.084
3880.709
3878.345
3876.008
3873.747
3871.518
3869.236
3866.849
3864.318
3861.591
3858.626
3855.449
3852.117
3848.608
3845.21
3841.9
3839.106
3836.715
3834.545
3832.224
3830.053
3828.117
3826.426
3824.973
3823.729
3822.597
3821.5
3820.411
3819.331
3818.226
3817.106
3816.003
3814.936
3813.894
3812.871
3811.891
3811.004
3810.282
3809.816
3809.563
3809.438
3809.421
3809.546
3809.93
3810.608
3811.33
3811.969
3812.527
3812.978
3813.257
3813.307
3813.121
3812.742
3812.205
3811.555
3810.878
3810.25
3809.719
3809.281
3808.874
3808.672
3808.87
3809.306
3809.727
3809.995
3810.077
3809.925
3809.468
3808.671
3807.521
3806.114
3804.499
3802.686
3800.65
3798.483
3796.18
3793.739
3791.387
3788.972
3786.371
3783.636
3780.925
3778.007
3775.227
3772.818
3770.668
3768.477
3766.112
3763.601
3760.953
3758.17
3755.294
3752.394
3749.554
3746.879
3744.426
3741.95
3739.56
3737.519
3735.913
3734.837
3734.034
1948.753
1855.125
1681.638
1607.836
1539.763
1479.427
1425.422
1376.414
1331.203
1289.231
1249.929
1211.821
1175.117
1139.648
1105.473
1072.575
1041.033
1011.019
983.0727
957.5647
935.8537
918.0889
903.8593
893.5462
887.9667
888.4479
896.3138
913.0646
940.5735
980.132
1031.849
1097.42
1181.141
1285.231
1411.152
1560.855
1734.119
1928.032
2135.886
2346.98
2548.735
2728.461
2873.088
2969.395
3007.171
2978.833
2887.138
2739.433
2547.726
2325.489
2097.786
1866.908
1638.087
1428.148
1229.979
1051.137
912.4746
806.559
721.8038
660.2949
624.7492
597.197
561.8457
510.7507
467.1623
464.2841
521.8895
628.4077
688.8031
670.2682
663.957
684.3356
685.5146
671.6248
579.5983
460.4822
439.5822
511.1747
616.89
674.9517
714.9447
743.1497
771.0959
829.1424
895.8972
906.1566
903.0842
915.6266
948.571
1003.174
992.4417
868.0387
788.8912
800.7746
863.331
899.3813
959.6437