/*--------------------------------*- C++ -*----------------------------------*\
| =========                 |                                                 |
| \\      /  F ield         | foam-extend: Open Source CFD                    |
|  \\    /   O peration     | Version:     3.1                                |
|   \\  /    A nd           | Web:         http://www.extend-project.de       |
|    \\/     M anipulation  |                                                 |
\*---------------------------------------------------------------------------*/
FoamFile
{
    version     2.0;
    format      ascii;
    class       volScalarField;
    location    "20";
    object      pd;
}
// * * * * * * * * * * * * * * * * * * * * * * * * * * * * * * * * * * * * * //

dimensions      [1 -1 -2 0 0 0 0];

internalField   nonuniform List<scalar> 
119952
(
5175.062
4457.013
4362.249
4484.396
4611.834
4525.425
4504.163
4482.052
4460.646
4438.391
4415.016
4391.44
4368.716
4348.485
4331.959
4320.196
4313.635
4311.03
4302.627
4255.697
4508.163
4400.095
4371.976
4683.118
4673.189
4729.486
4775.632
4870.57
5111.801
5776.637
3518.899
3486.461
3496.461
3501.239
3507.155
3512.057
3516.931
3522.471
3533.033
3518.564
3513.552
3527.654
3524.825
3523.719
3523.184
3523.368
3524.626
3525.422
3525.765
3547.74
3542.382
3532.275
3541.305
3559.59
3581.678
3620.322
3666.833
3722.617
3785.269
3838.167
3899.851
3964.893
4026.265
4085.391
4142.402
4197.403
4254.174
4335.022
4451.886
4410.004
4416.668
4478.784
4512.896
4511.857
4490.125
4470.946
4451.081
4428.282
4404.238
4380.26
4357.517
4337.442
4321.517
4310.755
4306.396
4308.719
4317.063
4335.447
4378.436
4422.103
4448.818
4544.679
4663.014
4709.352
4746.752
4782.229
4769.244
4642.989
4644.715
4701.63
4734.43
4766.819
4797.822
4826.891
4855.57
4884.098
4912.579
4941.022
4969.366
4997.491
5025.19
5052.214
5078.349
5103.608
5128.396
5153.279
5178.443
5203.538
5228.024
5251.571
5274.107
5295.673
5316.221
5335.515
5353.417
5369.878
5384.878
5398.409
5410.508
5421.195
5430.563
5438.742
5445.95
5452.319
5457.987
5463.32
5468.547
5473.734
5479.012
5484.28
5489.012
5492.672
5496.161
5501.725
5509.577
5518.394
5528.339
5541.202
5552.182
5559.586
5568.259
5577.072
5585.952
5594.825
5603.629
5612.257
5620.519
5628.343
5635.695
5642.5
5648.758
5654.385
5659.422
5663.837
5667.619
5670.835
5673.482
5675.647
5677.409
5678.787
5679.894
5680.872
5681.74
5682.476
5683.183
5683.896
5684.638
5685.426
5686.275
5687.202
5688.218
5689.326
5690.515
5691.754
5693.005
5694.229
5695.398
5696.492
5697.502
5698.422
5699.252
5699.985
5700.573
5701.047
5701.354
5701.29
5701.493
5705.187
5705.883
5705.631
5705.397
5705.129
5704.772
5704.317
5703.788
5703.22
5702.627
5702.012
5701.329
5700.66
5700.016
5699.269
5698.443
5697.524
5696.491
5695.328
5694.019
5692.553
5690.922
5689.124
5687.156
5685.023
5682.727
5680.272
5677.649
5674.84
5671.802
5668.462
5664.692
5660.246
5654.575
5646.585
5637.109
5643.902
5647.973
5650.152
5651.473
5652.352
5652.946
5653.373
5653.723
5654.045
5654.377
5654.749
5655.178
5655.679
5656.26
5656.941
5657.746
5658.708
5659.864
5661.234
5662.673
5664.691
5666.882
5669.348
5672.099
5675.132
5678.423
5681.943
5685.651
5689.503
5693.455
5697.465
5701.494
5705.46
5709.427
5731.34
5725.42
5719.845
5723.885
5726.542
5728.779
5731.231
5733.762
5736.059
5738.223
5740.248
5742.128
5743.826
5745.309
5746.551
5747.531
5748.238
5748.665
5748.817
5748.709
5748.358
5747.789
5747.026
5746.085
5744.982
5743.727
5742.337
5740.821
5739.193
5737.462
5735.638
5733.725
5731.744
5729.69
5727.6
5725.503
5723.326
5721.134
5718.944
5716.778
5714.647
5712.571
5710.584
5708.739
5707.037
5705.047
5701.976
5698.554
5695.493
5692.591
5689.784
5687.248
5684.622
5679.801
5672.364
5673.59
5673.235
5671.031
5669.229
5667.576
5665.913
5664.39
5663.009
5661.689
5660.474
5659.338
5658.284
5657.302
5656.374
5655.51
5654.709
5653.968
5653.291
5652.683
5652.152
5651.704
5651.331
5651.067
5650.88
5650.778
5650.751
5650.788
5650.873
5650.988
5651.113
5651.223
5651.297
5651.315
5651.265
5651.137
5650.931
5650.649
5650.3
5649.896
5649.452
5648.982
5648.503
5648.024
5647.552
5647.081
5646.596
5646.08
5645.51
5644.861
5644.099
5643.21
5642.188
5641.013
5639.683
5638.191
5636.533
5634.726
5632.782
5630.708
5628.519
5626.232
5623.857
5621.406
5618.887
5616.303
5613.675
5611.003
5608.285
5605.516
5602.681
5599.76
5596.728
5593.551
5590.195
5586.613
5582.726
5578.435
5573.606
5567.957
5561.053
5552.556
5544.302
5548.223
5587.206
2726.809
2741.343
2752.392
2765.727
2782.719
2805.916
2829.388
2856.172
2874.407
2861.527
2899.792
2918.131
2933.552
2947.802
2960.839
2973.95
2987.769
3002.353
3039.313
3076.563
3077.5
3101.798
3132.73
3165.27
3200.677
3236.869
3273.469
3309.214
3342.134
3364.305
3393.253
3418.514
3438.795
3454.326
3466.07
3474.597
3482.933
3495.688
3488.329
3487.627
3492.971
3498.484
3503.794
3509.405
3515.237
3520.964
3526.11
3524.549
3526.006
3526.111
3524.533
3524.17
3525.811
3527.898
3529.158
3529.06
3518.783
3517.888
3520.374
3527.153
3542.246
3569.845
3611.208
3662.99
3724.687
3790.85
3858.47
3924.33
3988.414
4051.092
4112.488
4172.49
4231.802
4290.277
4345.926
4395.13
4428.449
4449.466
4470.038
4486.21
4490.59
4479.422
4461.405
4440.175
4415.123
4388.07
4361.314
4336.523
4315.126
4298.906
4290.19
4290.931
4301.794
4322.797
4353.812
4393.877
4441.454
4495.876
4558.586
4623.489
4674.678
4708.487
4725.535
4724.365
4709.554
4710.926
4731.296
4756.965
4783.769
4810.513
4837.354
4864.929
4893.155
4921.628
4950.08
4978.378
5006.377
5033.916
5060.908
5087.409
5113.583
5139.632
5165.649
5191.514
5216.916
5241.502
5265.063
5287.521
5308.807
5328.859
5347.557
5364.78
5380.442
5394.493
5406.901
5417.714
5427.095
5434.969
5441.667
5447.863
5453.258
5457.604
5461.999
5466.598
5470.922
5475.59
5480.585
5485.815
5491.298
5497.343
5504.592
5513.229
5522.932
5533.294
5543.911
5554.38
5563.985
5573.407
5582.724
5591.914
5600.884
5609.565
5617.906
5625.83
5633.263
5640.178
5646.54
5652.335
5657.531
5662.118
5666.076
5669.445
5672.224
5674.439
5676.256
5677.718
5678.758
5679.602
5680.341
5681.016
5681.665
5682.361
5683.147
5684.044
5685.062
5686.198
5687.441
5688.774
5690.172
5691.605
5693.036
5694.428
5695.745
5696.962
5698.059
5699.033
5699.882
5700.616
5701.236
5701.772
5702.181
5702.655
5703.08
5703.791
5704.692
5705.056
5704.964
5704.746
5704.439
5704.001
5703.478
5702.92
5702.354
5701.788
5701.232
5700.666
5700.088
5699.479
5698.803
5698.044
5697.186
5696.209
5695.093
5693.819
5692.375
5690.75
5688.945
5686.963
5684.813
5682.506
5680.049
5677.435
5674.647
5671.648
5668.385
5664.777
5660.723
5656.202
5651.67
5648.389
5648.537
5650.534
5651.76
5652.606
5653.227
5653.656
5653.977
5654.254
5654.528
5654.827
5655.169
5655.561
5656.014
5656.544
5657.176
5657.946
5658.885
5660.026
5661.399
5663.026
5664.931
5667.142
5669.647
5672.446
5675.53
5678.879
5682.476
5686.272
5690.234
5694.305
5698.439
5702.604
5706.83
5711.321
5721.317
5726.584
5726.598
5726.162
5727.927
5730.406
5732.851
5735.204
5737.418
5739.487
5741.443
5743.257
5744.866
5746.222
5747.303
5748.101
5748.615
5748.853
5748.83
5748.568
5748.093
5747.433
5746.606
5745.622
5744.489
5743.215
5741.816
5740.305
5738.689
5736.974
5735.172
5733.29
5731.337
5729.326
5727.259
5725.161
5723.024
5720.871
5718.706
5716.569
5714.444
5712.343
5710.255
5708.148
5705.95
5703.542
5700.822
5697.861
5694.851
5691.891
5688.975
5686.004
5682.72
5678.926
5675.126
5672.683
5671.418
5670.392
5669.056
5667.445
5665.812
5664.312
5662.911
5661.639
5660.4
5659.244
5658.161
5657.143
5656.173
5655.274
5654.448
5653.684
5652.988
5652.377
5651.856
5651.433
5651.108
5650.88
5650.747
5650.704
5650.737
5650.819
5650.936
5651.08
5651.219
5651.32
5651.357
5651.322
5651.208
5651.011
5650.739
5650.402
5650.018
5649.604
5649.179
5648.761
5648.361
5647.988
5647.634
5647.274
5646.885
5646.439
5645.911
5645.298
5644.465
5643.52
5642.418
5641.152
5639.718
5638.122
5636.375
5634.482
5632.49
5630.354
5628.118
5625.801
5623.409
5620.955
5618.452
5615.903
5613.316
5610.699
5608.04
5605.311
5602.5
5599.586
5596.548
5593.359
5589.998
5586.434
5582.648
5578.573
5574.228
5569.64
5565.205
5561.599
5560.244
5561.395
5565.617
4649.575
4918.318
5185.426
5436.696
5665.253
5854.127
5993.69
6075.117
6094.004
6044.417
5931.639
5779.089
5586.938
5365.611
5125.046
4875.231
4625.385
4382.129
4155.338
3897.087
3708.604
3535.752
3383.771
3253.636
3143.597
3052.115
2977.691
2919.224
2879.697
2841.146
2812.5
2794.016
2778.514
2764.479
2751.838
2741.392
2734.559
2737.033
2736.242
2730.051
2742.425
2760.435
2780.632
2803.707
2828.054
2851.782
2873.76
2892.882
2909.257
2927.32
2941.951
2954.309
2965.508
2976.947
2989.516
3005.507
3027.359
3050.17
3076.939
3106.596
3138.69
3173.658
3211.228
3249.989
3287.949
3323.262
3356.121
3387.286
3414.701
3437.883
3456.34
3468.635
3475.377
3479.876
3484.113
3487.999
3491.692
3494.747
3496.731
3498.665
3502.074
3507.252
3514.446
3521.312
3526.173
3528.513
3527.137
3523.156
3520.431
3520.886
3525.559
3530.813
3532.191
3528.573
3519.751
3510.893
3502.744
3501.114
3511.019
3537.074
3578.823
3637.887
3706.312
3779.164
3852.676
3924.388
3993.329
4059.534
4123.214
4184.63
4243.266
4299.328
4351.709
4398.113
4431.84
4454.985
4472.754
4485.815
4490.134
4481.207
4462.568
4438.347
4409.647
4378.494
4347.52
4318.793
4293.968
4275.415
4266.327
4269.467
4285.479
4313.094
4349.9
4393.949
4443.777
4495.544
4549.947
4606.077
4655.273
4689.566
4711.137
4721.559
4725.258
4730.824
4745.32
4766.68
4790.289
4814.589
4839.916
4866.721
4894.704
4923.194
4951.706
4980.098
5008.25
5035.987
5063.248
5090.166
5116.976
5143.878
5170.876
5197.721
5223.988
5249.264
5273.32
5296.1
5317.555
5337.622
5356.142
5373.087
5388.36
5401.832
5413.432
5423.266
5431.54
5438.394
5444.223
5449.326
5453.623
5457.012
5460.529
5464.333
5468.06
5472.302
5477.247
5482.866
5489.081
5496
5503.977
5513.143
5523.217
5533.851
5544.842
5555.976
5566.689
5576.862
5586.649
5596.142
5605.269
5613.991
5622.248
5629.993
5637.198
5643.853
5649.944
5655.456
5660.361
5664.636
5668.276
5671.29
5673.7
5675.617
5677.105
5678.182
5678.969
5679.579
5680.073
5680.528
5681.033
5681.667
5682.472
5683.464
5684.643
5685.995
5687.49
5689.086
5690.74
5692.405
5694.032
5695.578
5697.005
5698.285
5699.405
5700.36
5701.162
5701.829
5702.378
5702.844
5703.233
5703.623
5703.943
5704.206
5704.481
5704.801
5704.799
5704.443
5703.962
5703.4
5702.787
5702.184
5701.613
5701.091
5700.605
5700.136
5699.652
5699.126
5698.531
5697.851
5697.067
5696.156
5695.088
5693.84
5692.396
5690.749
5688.905
5686.872
5684.667
5682.317
5679.849
5677.262
5674.539
5671.664
5668.622
5665.426
5662.142
5658.951
5656.182
5654.294
5653.564
5653.695
5654.046
5654.313
5654.477
5654.59
5654.696
5654.823
5654.988
5655.209
5655.49
5655.822
5656.212
5656.666
5657.225
5657.927
5658.815
5659.926
5661.286
5662.924
5664.856
5667.102
5669.681
5672.589
5675.791
5679.197
5682.936
5686.927
5691.154
5695.481
5699.84
5704.155
5708.235
5711.702
5713.993
5715.9
5719.019
5722.733
5726.403
5729.734
5732.642
5735.293
5737.758
5740.046
5742.147
5744.037
5745.665
5746.991
5748
5748.698
5749.097
5749.22
5749.09
5748.733
5748.179
5747.466
5746.614
5745.624
5744.492
5743.213
5741.81
5740.324
5738.764
5737.112
5735.352
5733.507
5731.588
5729.608
5727.586
5725.567
5723.37
5721.204
5719.055
5716.897
5714.758
5712.62
5710.465
5708.259
5705.946
5703.469
5700.777
5697.883
5694.886
5691.898
5688.983
5686.216
5683.78
5681.793
5680.117
5677.954
5675.368
5672.734
5670.321
5668.193
5666.314
5664.648
5663.209
5661.975
5660.592
5659.355
5658.11
5657.025
5656.023
5655.168
5654.329
5653.512
5652.774
5652.137
5651.604
5651.172
5650.846
5650.647
5650.563
5650.572
5650.662
5650.799
5650.964
5651.141
5651.305
5651.407
5651.432
5651.372
5651.221
5650.98
5650.662
5650.286
5649.877
5649.46
5649.058
5648.691
5648.365
5648.101
5647.848
5647.604
5647.323
5646.963
5646.477
5645.827
5645.107
5644.184
5643.053
5641.739
5640.248
5638.596
5636.793
5634.835
5632.807
5630.639
5628.362
5626.028
5623.633
5621.199
5618.743
5616.239
5613.68
5611.118
5608.519
5605.856
5603.092
5600.217
5597.208
5594.064
5590.757
5587.318
5583.756
5580.075
5576.309
5572.644
5569.305
5566.615
5564.824
5564.635
5565.902
3025.491
3059.155
3107.988
3170.734
3250.156
3357.93
3478.309
3621.209
3789.089
3957.844
4140.193
4355.142
4586.226
4832.442
5081.009
5319.161
5533.877
5711.089
5837.922
5906.376
5913.509
5863.256
5760.073
5604.866
5410.169
5187.569
4947.647
4700.209
4455.052
4221.006
4009.379
3712.696
3545.09
3401.212
3268.469
3152.56
3055.714
2976.348
2912.666
2863.794
2828.543
2805.099
2788.864
2776.24
2763.794
2750.923
2738.12
2726.649
2718.786
2715.95
2716.91
2725.065
2739.35
2758.421
2782.228
2809.254
2836.206
2860.758
2882.341
2901.371
2918.989
2935.772
2950.36
2959.172
2966.481
2976.009
2983.057
2997.167
3021.428
3046.961
3071.863
3100.182
3133.016
3170.434
3211.681
3254.284
3295.453
3333.474
3368.151
3399.907
3428.914
3454.118
3473.126
3482.588
3484.145
3484.056
3485.778
3489.285
3492.978
3495.109
3494.908
3495.213
3499.411
3505.77
3514.32
3523.357
3529.858
3532.931
3528.879
3519.96
3515.076
3516.164
3525.042
3535.751
3539.772
3534.003
3517.934
3496.53
3475.272
3463.531
3467.276
3489.178
3533.911
3597.92
3675.008
3757.966
3840.652
3919.372
3993.059
4062.404
4128.352
4191.356
4250.94
4306.764
4357.76
4402.472
4438.498
4465.196
4484.116
4495.559
4498.053
4489.474
4470.287
4442.374
4407.826
4370.652
4334.133
4299.965
4269.475
4245.894
4233.985
4238.069
4258.506
4292.535
4335.43
4379.005
4423.683
4483.478
4544.244
4598.497
4644.74
4680.394
4705.925
4722.765
4733.616
4743.151
4756.179
4773.13
4793.327
4815.344
4839.229
4865.504
4893.468
4922.109
4950.738
4979.158
5007.337
5035.13
5062.486
5089.605
5116.839
5144.445
5172.378
5200.301
5227.681
5253.958
5278.82
5302.186
5323.615
5344.087
5363.416
5380.885
5396.094
5409.237
5420.372
5429.584
5437.02
5442.905
5447.661
5451.681
5455.161
5457.693
5459.937
5462.805
5465.979
5469.737
5474.488
5480.235
5486.858
5494.318
5502.713
5512.065
5522.238
5533.046
5544.271
5555.672
5566.925
5577.91
5588.461
5598.641
5608.346
5617.463
5625.946
5633.783
5640.984
5647.567
5653.539
5658.899
5663.626
5667.687
5671.064
5673.767
5675.84
5677.369
5678.439
5679.145
5679.601
5679.891
5680.08
5680.264
5680.571
5681.103
5681.904
5682.973
5684.299
5685.851
5687.573
5689.4
5691.269
5693.115
5694.883
5696.528
5698.01
5699.308
5700.412
5701.332
5702.085
5702.701
5703.209
5703.642
5704.015
5704.353
5704.622
5704.822
5704.975
5704.996
5704.773
5704.309
5703.699
5703.012
5702.303
5701.632
5701.047
5700.572
5700.185
5699.833
5699.465
5699.052
5698.569
5698.003
5697.333
5696.53
5695.552
5694.369
5692.958
5691.309
5689.455
5687.405
5685.18
5682.819
5680.374
5677.855
5675.247
5672.546
5669.758
5666.923
5664.124
5661.487
5659.202
5657.449
5656.392
5655.949
5655.796
5655.679
5655.543
5655.425
5655.357
5655.348
5655.402
5655.531
5655.738
5656.002
5656.325
5656.655
5657.093
5657.666
5658.426
5659.417
5660.678
5662.243
5663.976
5666.053
5668.626
5671.745
5675.152
5678.792
5682.695
5686.828
5691.191
5695.729
5700.32
5704.817
5709.117
5713.348
5717.598
5721.707
5725.187
5727.924
5730.256
5732.466
5734.601
5736.874
5739.147
5741.317
5743.347
5745.201
5746.794
5748.061
5748.988
5749.589
5749.885
5749.898
5749.655
5749.186
5748.526
5747.743
5746.858
5745.839
5744.58
5742.864
5741.507
5740.369
5739.056
5737.434
5735.676
5733.833
5731.91
5729.911
5727.837
5725.627
5723.513
5721.354
5719.242
5717.12
5714.966
5712.797
5710.595
5708.279
5705.887
5703.386
5700.737
5697.878
5694.884
5691.858
5688.874
5685.993
5683.231
5680.54
5677.898
5675.337
5672.995
5670.935
5669.083
5667.055
5665.148
5663.668
5662.644
5661.475
5660.385
5659.236
5658.13
5657.09
5656.074
5655.082
5654.138
5653.261
5652.462
5651.748
5651.194
5650.793
5650.532
5650.364
5650.299
5650.339
5650.497
5650.71
5650.94
5651.175
5651.4
5651.546
5651.59
5651.527
5651.351
5651.066
5650.695
5650.275
5649.833
5649.383
5648.906
5648.546
5648.264
5648.102
5647.991
5647.871
5647.714
5647.473
5647.1
5646.56
5645.852
5644.924
5643.801
5642.453
5640.89
5639.143
5637.293
5635.341
5633.21
5630.968
5628.665
5626.314
5623.904
5621.47
5619.088
5616.464
5613.953
5611.448
5608.907
5606.312
5603.635
5600.838
5597.916
5594.854
5591.642
5588.356
5585.01
5581.644
5578.287
5575.134
5572.33
5570.011
5568.414
5567.695
5567.695
3150.447
3118.86
3092.512
3067.509
3042.402
3021.707
3007.034
2997.007
2993.486
2996.962
3008.338
3026.536
3057.257
3099.726
3154.49
3226.688
3333.014
3447.461
3576.009
3723.373
3891.936
4086.138
4303.621
4539.449
4787.524
5038.404
5273.921
5480.178
5643.132
5751.336
5797.849
5781.289
5705.671
5578.07
5406.517
5200.451
4970.841
4728.862
4484.259
4244.729
4013.07
3794.06
3591.777
3424.475
3288.051
3170.644
3069.926
2985.193
2914.639
2857.618
2815.395
2789.652
2777.363
2769.124
2764.264
2754.556
2741.791
2728.051
2713.647
2700.938
2695.872
2695.027
2705.664
2725.377
2748.524
2775.697
2807.516
2839.077
2866.851
2889.358
2906.803
2922.574
2941.081
2958.241
2966.839
2966.329
2968.623
2968.648
2980.422
3006.369
3033.58
3058.386
3086.698
3119.526
3159.703
3207.528
3257.584
3303.973
3343.644
3378.712
3412.769
3446.58
3477.078
3498.294
3502.508
3495.046
3488.967
3487.676
3489.565
3493.776
3496.973
3493.744
3490.256
3495.058
3501.794
3513.756
3527.536
3536.826
3540.545
3532.675
3510.223
3497.195
3502.471
3522.191
3543.113
3553.716
3543.892
3510.115
3472.166
3437.046
3413.379
3407.048
3422.242
3463.576
3533.497
3624.818
3723.941
3819.656
3907.392
3986.609
4059.539
4128.244
4193.74
4255.679
4313
4364.896
4410.872
4449.746
4480.005
4501.09
4513.089
4515.763
4507.358
4485.088
4450.691
4409.452
4365.713
4321.518
4279.371
4240.393
4208.258
4190.162
4194.247
4218.9
4256.876
4289.582
4342.485
4405.837
4478.049
4538.941
4592.986
4640.511
4677.463
4705.364
4726.124
4741.066
4752.313
4763.495
4776.151
4792.427
4812.344
4835.224
4861.56
4890.136
4919.46
4948.695
4977.595
5006.084
5034.054
5061.468
5088.636
5116.094
5144.279
5173.165
5202.304
5230.941
5257.865
5280.809
5304.116
5328.563
5351.954
5371.716
5388.984
5404.102
5417.027
5427.782
5436.419
5442.999
5447.777
5451.48
5454.605
5457.251
5458.899
5460.017
5461.944
5464.345
5467.398
5471.83
5477.692
5484.66
5492.464
5501.145
5510.737
5521.136
5532.2
5543.725
5555.431
5567.075
5578.6
5589.807
5600.517
5610.647
5620.12
5628.892
5636.939
5644.265
5650.924
5656.939
5662.306
5666.98
5670.926
5674.126
5676.572
5678.302
5679.417
5680.02
5680.276
5680.359
5680.323
5680.181
5680.038
5680.09
5680.486
5681.273
5682.423
5683.913
5685.692
5687.657
5689.743
5691.861
5693.916
5695.833
5697.566
5699.08
5700.359
5701.405
5702.236
5702.889
5703.407
5703.836
5704.213
5704.56
5704.884
5705.155
5705.342
5705.394
5705.234
5704.899
5704.325
5703.591
5702.772
5701.948
5701.205
5700.618
5700.205
5699.93
5699.707
5699.471
5699.183
5698.818
5698.366
5697.813
5697.119
5696.173
5695.029
5693.674
5692.071
5690.213
5688.105
5685.794
5683.39
5680.954
5678.417
5675.844
5673.326
5670.856
5668.327
5665.836
5663.519
5661.475
5659.796
5658.571
5657.765
5657.207
5656.731
5656.306
5655.964
5655.725
5655.573
5655.489
5655.505
5655.649
5655.873
5656.092
5656.379
5656.719
5657.122
5657.697
5658.342
5658.512
5659.864
5662.342
5665.163
5667.827
5670.753
5674.132
5677.931
5682.035
5686.345
5690.965
5695.829
5700.782
5705.334
5708.463
5712.578
5717.129
5721.447
5724.493
5727.09
5729.626
5732.125
5734.797
5737.413
5739.885
5742.187
5744.321
5746.286
5747.945
5749.213
5750.094
5750.642
5750.873
5750.804
5750.445
5749.801
5748.906
5748.005
5747.017
5745.287
5743.878
5742.659
5741.282
5740.075
5739.336
5737.915
5736.158
5734.303
5732.369
5730.352
5728.111
5725.494
5723.296
5721.464
5719.508
5717.343
5715.146
5712.949
5710.725
5708.402
5705.981
5703.475
5700.788
5697.896
5694.856
5691.741
5688.623
5685.574
5682.621
5679.815
5677.267
5674.688
5672.146
5670.159
5668.729
5667.261
5665.703
5664.227
5662.843
5661.476
5659.864
5658.61
5657.647
5656.884
5655.914
5654.885
5653.871
5652.769
5651.839
5651.283
5650.829
5650.41
5650.111
5649.948
5649.909
5649.984
5650.212
5650.544
5650.873
5651.203
5651.52
5651.742
5651.832
5651.784
5651.594
5651.153
5650.549
5650.079
5649.754
5649.378
5648.963
5648.611
5648.352
5648.181
5648.138
5648.158
5648.154
5648.055
5647.809
5647.375
5646.724
5645.831
5644.694
5643.32
5641.746
5639.989
5638.075
5636.023
5633.745
5631.358
5629.014
5626.657
5624.219
5621.729
5619.223
5616.746
5614.238
5611.703
5608.98
5606.477
5603.892
5601.18
5598.333
5595.592
5592.657
5589.526
5586.35
5583.107
5579.604
5576.06
5573.768
5572.474
5571.27
5570.347
5569.849
3606.243
3541.28
3486.341
3432.686
3386.972
3337.943
3297.393
3258.941
3222.968
3188.139
3155.329
3124.397
3095.275
3068.827
3044.254
3022.963
3008.035
2997.737
2993.196
2995.097
3004.311
3021.937
3049.499
3087.996
3138.829
3204.932
3281.861
3381.156
3498.261
3636.253
3797.417
3983.589
4194.166
4428.398
4670.256
4912.301
5138.743
5335.069
5486.388
5581.047
5611.77
5577.106
5483.011
5338.896
5155.798
4944.512
4715.748
4476.854
4237.51
4007.167
3785.427
3581.463
3403.853
3256.888
3137.261
3038.809
2957.076
2889.481
2833.274
2787.92
2756.744
2743.773
2747.091
2750.98
2754.37
2752.065
2736.486
2716.497
2698.466
2679.206
2666.743
2662.384
2673.356
2698.621
2730.508
2767.105
2808.67
2842.984
2870.622
2893.088
2912.568
2928.914
2950.205
2967.368
2974.873
2966.736
2952.367
2940.75
2949.385
2980.532
3011.609
3035.689
3068.89
3100.856
3141.148
3196.029
3255.878
3311.398
3354.181
3388.815
3423.613
3464.37
3505.806
3534.072
3527.95
3504.36
3490.782
3485.837
3485.62
3490.31
3496.21
3488.189
3475.667
3467.957
3464.22
3490.932
3529.788
3544.638
3525.615
3458.822
3442.878
3466.264
3489.894
3517.345
3548.189
3540.45
3523.718
3502.992
3458.001
3376.436
3308.951
3247.602
3258.132
3354.011
3461.28
3570.017
3684.733
3795.037
3892.423
3974.833
4048.937
4122.148
4193.606
4258.846
4318.13
4372.26
4421.408
4463.755
4497.51
4521.816
4535.541
4537.117
4519.57
4500.24
4469.69
4420.223
4361.651
4303.024
4248.82
4200.58
4161.389
4133.942
4137.531
4143.546
4189.562
4254.679
4332.992
4412.285
4474.584
4533.434
4589.493
4640.35
4682.363
4713.797
4735.075
4749.264
4759.115
4767.21
4776.365
4788.409
4805.532
4827.944
4854.858
4884.534
4914.896
4944.886
4974.332
5003.219
5031.398
5058.736
5085.709
5113.08
5141.576
5171.303
5201.216
5225.838
5248.458
5278.818
5311.227
5337.457
5359.487
5379.261
5396.927
5412.203
5424.974
5435.576
5443.92
5449.684
5453.173
5455.766
5458.13
5460.021
5460.682
5460.634
5461.473
5462.575
5461.164
5462.414
5470.286
5480.677
5490.386
5499.523
5509.276
5519.836
5530.644
5541.885
5554.542
5567.329
5579.473
5591.105
5602.269
5612.851
5622.707
5631.745
5639.996
5647.479
5654.224
5660.283
5665.692
5670.386
5674.287
5677.388
5679.649
5681.064
5681.748
5681.817
5681.55
5681.262
5680.917
5680.377
5679.76
5679.457
5679.657
5680.189
5681.243
5683.03
5685.413
5687.831
5690.223
5692.586
5694.831
5696.881
5698.677
5700.184
5701.394
5702.32
5703.002
5703.496
5703.869
5704.161
5704.448
5704.788
5705.172
5705.52
5705.759
5705.813
5705.633
5705.138
5704.428
5703.555
5702.591
5701.628
5700.787
5700.177
5699.846
5699.733
5699.664
5699.474
5699.301
5699.113
5698.885
5698.488
5697.931
5697.149
5696.098
5694.734
5693.073
5691.172
5688.935
5685.768
5682.727
5680.479
5678.89
5676.864
5674.492
5672.047
5669.597
5667.279
5665.159
5663.248
5661.321
5659.735
5658.758
5658.225
5657.592
5656.906
5656.354
5655.963
5655.65
5655.198
5654.105
5653.844
5654.831
5655.771
5656.06
5656.161
5656.282
5655.856
5653.725
5655.496
5659.215
5661.724
5663.742
5666.173
5669.032
5672.629
5676.79
5680.76
5680.778
5684.228
5690.218
5699.526
5706.366
5711.272
5715.692
5719.629
5723.051
5725.796
5728.619
5731.217
5733.582
5735.822
5738.516
5740.996
5743.24
5745.359
5747.484
5749.238
5750.357
5750.904
5751.443
5751.867
5751.956
5751.481
5750.095
5745.832
5744.259
5744.046
5746.018
5746.077
5744.911
5743.51
5741.888
5739.998
5738.397
5736.763
5734.932
5732.987
5730.919
5728.521
5725.837
5723.599
5721.724
5719.749
5717.533
5715.286
5713.058
5710.819
5708.52
5706.118
5703.58
5700.857
5697.925
5694.815
5691.59
5688.303
5685.072
5681.816
5678.256
5673.779
5671.927
5671.562
5670.232
5668.379
5666.65
5665.12
5663.746
5662.474
5661.263
5660.037
5658.703
5657.598
5656.626
5655.662
5654.593
5653.263
5652.086
5651.213
5650.745
5650.294
5649.862
5649.575
5649.424
5649.392
5649.498
5649.778
5649.91
5650.25
5650.813
5651.563
5651.989
5652.146
5652.141
5651.961
5651.611
5651.079
5650.474
5649.931
5649.445
5648.989
5648.604
5648.299
5648.164
5648.237
5648.435
5648.616
5648.685
5648.588
5648.277
5647.709
5646.858
5645.717
5644.33
5642.728
5640.932
5638.946
5636.775
5633.888
5629.345
5626.789
5625.556
5624.288
5622.158
5619.725
5617.078
5614.482
5612.056
5609.6
5607.058
5604.7
5602.235
5599.537
5596.659
5593.682
5590.66
5587.588
5583.353
5574.339
5572.888
5575.032
5574.947
5573.552
5572.519
5571.755
3992.724
3940.695
3849.644
3754.274
3668.236
3596.712
3534.092
3478.761
3429.844
3383.083
3333.884
3294.258
3256.678
3220.904
3186.674
3154.176
3123.376
3094.002
3067.122
3043.549
3022.72
3006.37
2994.064
2986.744
2985.255
2990.053
3002.057
3023.158
3055.24
3100.161
3158.69
3230.568
3320.151
3428.82
3559.905
3715.481
3896.35
4100.268
4322.955
4553.065
4779.333
4987.626
5163.404
5292.082
5362.391
5366.589
5305.2
5185.048
5020.146
4822.981
4607.242
4379.089
4142.704
3910.619
3696.249
3498.516
3323.575
3174.891
3051.533
2953.39
2878.472
2817.142
2764.134
2717.954
2681.862
2660.022
2664.243
2699.495
2724.666
2731.746
2745.96
2732.537
2679.413
2628.025
2597.194
2585.188
2607.722
2632.555
2643.123
2642.454
2659.924
2739.188
2811.95
2877.66
2886.972
2876.52
2864.597
2875.574
2917.445
2970.625
2968.31
2900.973
2838.892
2815.707
2859.647
2937.647
3003.82
3023.767
3044.01
3062.288
3122.558
3227.808
3314.931
3355.531
3389.007
3409.359
3457.208
3523.74
3578.359
3556.832
3503.03
3468.469
3441.366
3448.421
3472.862
3470.748
3397.671
3225.66
3243.582
3407.162
3459.198
3467.861
3281.851
3144.043
3351.626
3463.267
3385.39
3360.327
3279.091
3243.375
3434.02
3567.971
3469.413
3313.359
2780.66
2553.185
2926.53
3208.779
3278.151
3370.924
3496.64
3637.585
3744.38
3837.603
3941.744
4041.799
4120.933
4193.281
4260.819
4322.286
4377.71
4430.069
4479.543
4520.311
4537.085
4504.354
4510.181
4539.835
4546.809
4500.613
4430.727
4350.108
4250.129
4188.238
4147.904
4106.536
4082.391
4078.501
4110.749
4176.097
4262.085
4342.523
4405.098
4464.125
4522.464
4590.28
4651.941
4696.097
4725.978
4745.263
4756.653
4764.338
4770.188
4775.346
4782.649
4796.548
4818.595
4846.557
4878.129
4910.474
4941.423
4970.874
4999.755
5027.998
5054.939
5081.21
5107.629
5134.727
5155.114
5147.444
5185.401
5248.985
5290.252
5317.823
5342.369
5365.132
5385.726
5404.053
5419.706
5432.609
5443.794
5452.478
5457.165
5458.088
5459.081
5460.424
5458.972
5457.964
5458.625
5460.807
5461.151
5461.258
5455.514
5443.675
5461.348
5484.153
5497.006
5506.144
5512.343
5524.325
5540.295
5554.657
5567.476
5579.898
5591.965
5603.544
5614.489
5624.776
5634.272
5642.772
5650.355
5657.176
5663.316
5668.835
5673.648
5677.617
5680.782
5683.011
5684.176
5684.354
5683.621
5682.601
5682.088
5681.704
5680.147
5670.722
5665.677
5668.08
5676.494
5680.738
5682.919
5685.332
5687.977
5690.7
5693.354
5695.812
5697.985
5699.819
5701.281
5702.37
5703.113
5703.485
5703.693
5703.905
5704.188
5704.467
5704.801
5705.226
5705.689
5706.072
5706.213
5706.01
5705.449
5704.617
5703.611
5702.495
5701.351
5700.345
5699.616
5698.969
5698.976
5699.252
5699.78
5699.955
5699.844
5699.629
5699.359
5698.96
5697.36
5695.123
5693.96
5693.545
5692.268
5690.03
5687.384
5684.526
5681.964
5679.723
5677.703
5675.44
5672.419
5667.835
5665.512
5664.976
5664.443
5662.995
5661.541
5660.305
5659.233
5658.174
5657.218
5656.503
5655.993
5655.163
5652.497
5650.244
5651.371
5653.983
5655.408
5655.606
5655.442
5652.404
5645.691
5646.504
5652.938
5658.224
5659.729
5661.243
5660.415
5651.257
5654.229
5666.892
5679.146
5685.45
5690.836
5696.508
5702.111
5706.669
5711.086
5715.789
5720.854
5724.955
5728.043
5730.494
5732.74
5735.056
5737.309
5739.44
5741.666
5743.983
5746.246
5748.73
5750.649
5751.133
5750.155
5750.824
5752.247
5753.263
5752.692
5749.431
5745.838
5745.559
5747.553
5748.066
5747.092
5745.8
5743.721
5741.956
5740.358
5739.182
5737.613
5735.723
5733.752
5731.647
5729.389
5727.074
5724.754
5722.409
5720.06
5717.701
5715.353
5713.034
5710.586
5708.169
5705.974
5703.646
5700.964
5698.001
5694.824
5691.489
5687.951
5684.21
5677.13
5663.748
5665.419
5671.207
5671.404
5669.422
5667.486
5665.795
5664.338
5663.094
5661.963
5660.816
5658.978
5657.233
5656.128
5655.371
5655.104
5654.272
5653.233
5652.2
5651.2
5650.321
5649.618
5649.176
5648.925
5648.727
5648.207
5648.212
5648.785
5649.867
5650.643
5651.267
5651.75
5651.906
5651.878
5652.198
5652.385
5652.109
5651.579
5650.929
5650.252
5649.624
5649.092
5648.655
5648.247
5648.046
5648.243
5648.679
5649.097
5649.363
5649.447
5649.299
5648.843
5648.046
5646.894
5645.473
5643.854
5642.049
5640.014
5637.776
5634.306
5626.097
5622.968
5620.553
5619.348
5621.318
5620.197
5617.375
5614.591
5612.162
5609.946
5607.703
5605.401
5602.958
5600.327
5597.544
5594.668
5591.76
5588.74
5582.869
5574.487
5572.333
5575.172
5576.393
5575.269
5574.209
5573.152
3941.406
3878.438
3766.263
3692.461
3624.388
3564.052
3510.047
3461.039
3415.828
3373.856
3334.554
3296.446
3259.742
3224.273
3190.098
3157.2
3125.658
3095.644
3067.697
3042.189
3020.479
3002.714
2988.484
2978.171
2972.592
2973.073
2980.939
2997.69
3025.198
3064.757
3116.474
3182.045
3265.766
3369.856
3495.777
3645.48
3818.744
4012.657
4220.511
4431.604
4633.36
4813.086
4957.713
5054.02
5091.796
5063.458
4971.763
4824.058
4632.35
4410.104
4182.363
3951.364
3722.183
3511.255
3310.527
3125.711
2972.846
2838.836
2715.251
2613.87
2573.994
2556.289
2534.651
2475.497
2364.946
2177.367
2095.369
2227.533
2432.077
2557.487
2563.01
2493.822
2049.447
1845.637
1986.268
2244.032
2383.776
2470.867
2437.895
1653.326
1541.926
2156.384
2710.568
2842.871
2853.025
2142.022
1509.517
1935.959
2680.321
2945.453
2956.305
2550.365
1583.267
1679.794
2438.338
2896.442