/*--------------------------------*- C++ -*----------------------------------*\
| =========                 |                                                 |
| \\      /  F ield         | foam-extend: Open Source CFD                    |
|  \\    /   O peration     | Version:     3.1                                |
|   \\  /    A nd           | Web:         http://www.extend-project.de       |
|    \\/     M anipulation  |                                                 |
\*---------------------------------------------------------------------------*/
FoamFile
{
    version     2.0;
    format      ascii;
    class       surfaceScalarField;
    location    "20";
    object      phi;
}
// * * * * * * * * * * * * * * * * * * * * * * * * * * * * * * * * * * * * * //

dimensions      [0 3 -1 0 0 0 0];

internalField   nonuniform List<scalar> 
275122
(
-0.000268398
0.0002720806
-1.917736e-07
-3.4908e-06
-0.0002404774
0.0002297646
9.317989e-07
9.781031e-06
-0.0002397172
0.0002460914
-2.616228e-07
-6.112646e-06
-0.00026965
0.0002773528
-2.702332e-07
-7.432607e-06
-0.0002977319
0.0003009156
-2.818515e-07
-2.901878e-06
-0.0003035722
0.0003040794
-3.193887e-07
-1.877673e-07
-0.0003047592
0.0003047428
-2.889986e-07
3.054336e-07
-0.0003043699
0.0003041218
-2.639595e-07
5.121295e-07
-0.0003031978
0.0003028341
-2.390838e-07
6.028293e-07
-0.0003016041
0.0003011346
-2.138228e-07
6.832777e-07
-0.0002995431
0.0002989411
-1.900722e-07
7.920799e-07
-0.0002969237
0.0002961747
-1.68888e-07
9.179227e-07
-0.0002936689
0.0002927397
-1.537696e-07
1.08293e-06
-0.0002896724
0.0002885493
-1.418354e-07
1.264949e-06
-0.0002848696
0.0002835326
-1.302582e-07
1.46732e-06
-0.0002791928
0.0002776304
-1.192628e-07
1.681739e-06
-0.0002726239
0.0002708695
-1.117064e-07
1.866107e-06
-0.0002652771
0.0002633483
-1.207732e-07
2.049631e-06
-0.000257604
0.0002558128
-1.236747e-07
1.914928e-06
-0.0002516196
0.0002515836
-4.065907e-07
4.42626e-07
-0.0002769582
0.0002873546
-9.516738e-07
-9.444772e-06
-0.0002873989
0.0002859608
-1.120437e-07
1.550156e-06
-0.0002855168
0.0002864609
-9.616994e-08
-8.4789e-07
-0.0003145435
0.0003249897
3.165525e-07
-1.076282e-05
-0.0003229326
0.0003206936
4.920541e-07
1.746905e-06
-0.0003191441
0.0003183027
-1.081848e-07
9.496024e-07
-0.0003150554
0.0003129626
-1.198748e-07
2.212693e-06
-0.0003068826
0.0003031099
-1.123838e-07
3.885079e-06
-0.0002827993
0.000263597
-1.663421e-07
1.936862e-05
-0.0001632538
0.0001675458
3.47488e-09
-4.295554e-06
-0.0002233755
0.0002353154
-5.884304e-08
-1.188097e-05
-0.0002684804
0.0002796472
6.874517e-09
-1.117371e-05
-0.000313762
0.0003254411
7.64573e-09
-1.168673e-05
-0.000360829
0.0003729773
8.612535e-09
-1.215694e-05
-0.0004101548
0.0004227997
8.244079e-09
-1.265314e-05
-0.0004613628
0.0004744084
8.184663e-09
-1.305377e-05
-0.000513945
0.0005272693
8.134468e-09
-1.333237e-05
-0.0005674635
0.0005809877
8.194645e-09
-1.353242e-05
-0.0006214541
0.0006349528
7.39306e-09
-1.350607e-05
-0.0006751396
0.0006895073
2.035572e-07
-1.457123e-05
1.141695e-05
-0.0004677555
0.0004696441
7.388631e-10
-1.330632e-05
1.160853e-05
-0.0004753217
0.0004770424
-3.522935e-10
-1.332887e-05
1.184374e-05
-0.0004817814
0.0004831897
-1.078763e-09
-1.3251e-05
1.205398e-05
-0.0004869336
0.0004880062
-1.315253e-09
-1.312528e-05
1.228341e-05
-0.0004907
0.0004914586
-1.089167e-09
-1.304083e-05
1.244121e-05
-0.0004934244
0.0004939672
-1.203317e-09
-1.298281e-05
1.258969e-05
-0.0004954129
0.0004958178
-1.468277e-09
-1.299311e-05
1.272169e-05
-0.0004969625
0.0004973138
-9.92681e-10
-1.307205e-05
1.299019e-05
-0.0004982284
0.0004979787
-5.740714e-10
-1.273992e-05
1.150836e-05
-0.002016568
0.002021455
-4.588679e-11
-5.128864e-05
1.173226e-05
1.14739e-05
1.168681e-05
1.214295e-05
-0.002024186
0.002025908
-5.912143e-11
-5.101801e-05
1.253053e-05
1.212147e-05
1.250177e-05
1.203355e-05
-0.002026875
0.002026976
-5.436896e-11
-4.844718e-05
1.216335e-05
1.200849e-05
1.214095e-05
1.167044e-05
-0.002026806
0.00202505
-4.307744e-11
-4.479392e-05
1.162701e-05
1.164679e-05
1.160503e-05
1.068733e-05
-0.002023221
0.002020189
-3.393733e-11
-3.99261e-05
1.081683e-05
1.066568e-05
1.078859e-05
1.011485e-05
-0.002015674
0.002009782
-2.659083e-11
-3.431249e-05
1.000886e-05
1.00941e-05
9.986883e-06
9.03126e-06
-0.002003052
0.001994652
-2.462527e-11
-2.755601e-05
8.966865e-06
9.010224e-06
8.947657e-06
7.964986e-06
-0.001985347
0.001974543
-3.223542e-11
-2.100027e-05
7.954698e-06
7.94583e-06
7.938405e-06
7.095241e-06
-0.001962819
0.001948874
-2.796124e-11
-1.503053e-05
7.407012e-06
7.080067e-06
7.392931e-06
5.592598e-06
-0.001934647
0.001923425
-3.406796e-11
-1.17071e-05
5.884144e-06
5.582358e-06
5.870355e-06
6.093446e-06
-0.001909636
0.001894266
-1.447241e-11
-8.851474e-06
6.025938e-06
6.083948e-06
6.017447e-06
5.855601e-06
-0.001878998
0.001864257
-2.121586e-12
-8.452948e-06
5.748503e-06
5.849109e-06
5.74145e-06
5.873183e-06
-0.00184983
0.001835961
9.021345e-12
-9.50556e-06
5.823886e-06
5.863366e-06
5.814059e-06
6.072514e-06
-0.001822367
0.001809409
2.0689e-11
-1.13005e-05
6.063583e-06
6.064046e-06
6.058553e-06
6.406748e-06
-0.001796813
0.001784923
1.371333e-11
-1.377825e-05
6.433878e-06
6.397088e-06
6.430813e-06
6.909343e-06
-0.001773442
0.001762628
-1.121353e-11
-1.688761e-05
6.960242e-06
6.879833e-06
6.952689e-06
7.655849e-06
-0.001752311
0.001742672
-1.735466e-11
-2.087081e-05
7.71445e-06
7.507951e-06
7.631853e-06
9.169491e-06
-0.001733367
0.001723563
-1.538283e-11
-2.602086e-05
9.413433e-06
8.491812e-06
8.750032e-06
1.3241e-05
-0.001711291
0.001692062
-1.163669e-11
-3.062275e-05
1.421145e-05
1.141551e-05
1.098383e-05
1.494123e-05
-0.001671296
0.001680249
-1.536142e-11
-2.389415e-05
1.448549e-05
-0.001686909
0.001685944
-1.270833e-11
-1.352098e-05
3.073165e-05
-0.001678328
0.001673684
-9.389015e-12
-2.608824e-05
3.027849e-05
-0.001670508
0.001668119
-7.779385e-12
-2.788918e-05
2.236524e-05
-0.001666184
0.00166744
-1.35875e-12
-2.362099e-05
1.368254e-05
-0.00167155
0.001676939
3.77087e-12
-1.907154e-05
1.256749e-05
-0.001682167
0.001687776
1.48301e-11
-1.817696e-05
1.18757e-05
-0.00169366
0.001699879
2.638522e-11
-1.809499e-05
1.136253e-05
-0.001706221
0.001712783
3.19699e-11
-1.792462e-05
1.075014e-05
-0.001719399
0.001726102
3.395171e-11
-1.745264e-05
9.77436e-06
-0.001732763
0.001739357
2.981547e-11
-1.636845e-05
8.339741e-06
-0.001745797
0.001752043
1.703108e-11
-1.458585e-05
6.504426e-06
-0.001758062
0.001763759
-2.005862e-12
-1.220089e-05
4.319539e-06
-0.00176916
0.001774108
-2.310926e-11
-9.268028e-06
1.72716e-06
-0.001778705
0.001782719
-3.768691e-11
-5.741138e-06
-1.135192e-06
-0.001786363
0.001789228
-4.16603e-11
-1.729661e-06
-4.047119e-06
-0.001791539
0.001793017
-3.361241e-11
2.568396e-06
-6.580559e-06
-0.001793986
0.001794085
-1.690287e-11
6.481672e-06
-7.779915e-06
-0.001793801
0.001792538
1.955773e-12
9.043098e-06
-6.132715e-06
-0.001790657
0.001787342
1.529213e-11
9.447735e-06
-1.41352e-06
-0.001779874
0.001773213
2.01286e-11
8.075273e-06
-8.382174e-06
-0.001770092
0.001767818
2.301803e-11
1.065549e-05
1.140511e-06
-0.001763922
0.001755888
1.69638e-11
6.893815e-06
1.564979e-05
-0.001738725
0.001722842
5.233827e-12
2.331672e-07
-4.786966e-06
-0.001712198
0.00170523
-9.682742e-12
1.175471e-05
-1.759868e-05
-0.001699773
0.001692744
-2.431528e-11
2.462752e-05
-2.638541e-05
-0.001684993
0.001677644
-3.59734e-11
3.373423e-05
-4.122463e-05
-0.001671256
0.00166683
-4.075423e-11
4.565113e-05
-7.462383e-05
-0.001663283
0.001675312
-3.513663e-11
6.259493e-05
-1.604367e-05
-0.001692283
0.001687261
-1.517734e-11
6.037374e-05
-1.174721e-05
-1.597422e-05
-1.158637e-05
-7.965974e-06
-0.001676197
0.001669914
1.055284e-11
3.801982e-05
-8.15461e-06
-7.737186e-06
-7.879424e-06
-6.904779e-06
-0.001664493
0.001657586
3.5856e-11
3.353897e-05
-6.585317e-06
-6.723709e-06
-6.417864e-06
-5.738021e-06
-0.001649943
0.001642453
5.364774e-11
2.989155e-05
-5.60945e-06
-5.587569e-06
-5.466665e-06
-5.452027e-06
-0.001635435
0.001628637
5.897093e-11
2.834201e-05
-5.450775e-06
-5.320943e-06
-5.320361e-06
-5.420361e-06
-0.001621946
0.00161517
5.248872e-11
2.822172e-05
-5.416428e-06
-5.304802e-06
-5.30355e-06
-5.46843e-06
-0.001608301
0.001601269
3.881797e-11
2.873341e-05
-5.483152e-06
-5.366816e-06
-5.382905e-06
-5.601499e-06
-0.001594091
0.001586664
2.498473e-11
2.970768e-05
-5.62465e-06
-5.514366e-06
-5.540285e-06
-5.730905e-06
-0.001579017
0.001571077
1.611535e-11
3.075612e-05
-5.748277e-06
-5.65918e-06
-5.678379e-06
-5.827545e-06
-0.001562903
0.001554453
1.393604e-11
3.166467e-05
-5.838176e-06
-5.768111e-06
-5.780708e-06
-5.890467e-06
-0.001545783
0.001536879
1.690908e-11
3.238185e-05
-5.899857e-06
-5.83882e-06
-5.848629e-06
-5.940084e-06
-0.001527787
0.001518526
2.174217e-11
3.293924e-05
-5.950752e-06
-5.889116e-06
-5.898361e-06
-6.001928e-06
-0.001509132
0.001499645
2.550038e-11
3.341004e-05
-6.020116e-06
-5.942999e-06
-5.957587e-06
-6.094014e-06
-0.001490082
0.0014805
2.785895e-11
3.385684e-05
-6.120346e-06
-6.019362e-06
-6.040741e-06
-6.210014e-06
-0.001470899
0.001461332
2.886831e-11
3.427862e-05
-6.237429e-06
-6.12034e-06
-6.143546e-06
-6.285522e-06
-0.001451776
0.001442271
2.812577e-11
3.450371e-05
-6.293003e-06
-6.205311e-06
-6.214637e-06
-6.188647e-06
-0.001432757
0.001423252
2.131564e-11
3.412674e-05
-6.145501e-06
-6.159487e-06
-6.127765e-06
-5.813557e-06
-0.001413654
0.001403986
1.010382e-11
3.283615e-05
-5.713311e-06
-5.861706e-06
-5.778823e-06
-5.217282e-06
-0.001394155
0.001384272
1.072519e-12
3.074944e-05
-5.097028e-06
-5.331764e-06
-5.220777e-06
-4.586743e-06
-0.001374285
0.001364393
-4.613412e-12
2.828329e-05
-4.482222e-06
-4.714598e-06
-4.60806e-06
-4.049058e-06
-0.001354553
0.001345013
-4.914053e-12
2.577769e-05
-3.971636e-06
-4.151059e-06
-4.065504e-06
-3.608623e-06
-0.001335692
0.001326829
-1.653336e-12
2.328287e-05
-3.544656e-06
-3.670056e-06
-3.596398e-06
-3.188913e-06
-0.001318269
0.001310232
3.337793e-12
2.070727e-05
-3.122393e-06
-3.215835e-06
-3.143007e-06
-2.747453e-06
-0.001302526
0.001295367
8.484942e-12
1.801371e-05
-2.67225e-06
-2.756009e-06
-2.679774e-06
-2.267887e-06
-0.001288519
0.001282186
1.297502e-11
1.526376e-05
-2.192851e-06
-2.273842e-06
-2.195887e-06
-1.842247e-06
0.001270756
1.516864e-11
1.26704e-05
-1.782613e-06
-1.839757e-06
-1.779766e-06
-0.001276182
-1.466772e-06
-0.001265698
0.001261237
1.428161e-11
1.021573e-05
-1.413367e-06
-1.463657e-06
-1.410675e-06
-1.124159e-06
-0.001257153
0.001253671
1.023387e-11
7.879126e-06
-1.076458e-06
-1.121826e-06
-1.074554e-06
-8.163897e-07
-0.001250566
0.001248061
4.06238e-12
5.685239e-06
-7.754123e-07
-8.144348e-07
-7.738256e-07
-5.501089e-07
-0.001245926
0.001244381
-2.750967e-12
3.67647e-06
-5.165493e-07
-5.484143e-07
-5.155499e-07
-3.289359e-07
-0.001243205
0.001242582
-8.349734e-12
1.885454e-06
-3.030263e-07
-3.279169e-07
-3.021864e-07
-1.598107e-07
-0.001242329
0.001242573
-1.167565e-11
3.598692e-07
-1.427168e-07
-1.593345e-07
-1.423374e-07
-4.904256e-08
-0.001243164
0.0012442
-1.253356e-11
-8.547838e-07
-4.149468e-08
-4.893774e-08
-4.142513e-08
6.95369e-09
-0.001245543
0.001247259
-1.139876e-11
-1.742995e-06
6.632357e-09
6.833304e-09
6.497883e-09
-1.237687e-08
-0.001249192
0.001251359
-9.442108e-12
-2.095056e-06
-2.39351e-08
-1.250528e-08
-2.402107e-08
-1.057848e-07
-0.00125367
0.001256107
-7.154808e-12
-1.966554e-06
-1.291101e-07
-1.059277e-07
-1.2936e-07
-2.598329e-07
-0.001258635
0.001261189
-5.023751e-12
-1.450599e-06
-2.914509e-07
-2.600105e-07
-2.917952e-07
-4.713803e-07
-0.001263759
0.001266211
-3.393403e-12
-4.868618e-07
-5.116195e-07
-4.707786e-07
-5.115616e-07
-7.830079e-07
-0.001268587
0.001270745
-1.388694e-12
1.105195e-06
-8.503619e-07
-7.807522e-07
-8.48548e-07
-1.253817e-06
-0.00127283
0.001274626
7.903753e-13
3.397163e-06
-1.349887e-06
-1.246351e-06
-1.343367e-06
-1.874806e-06
-0.001276263
0.001277473
2.989266e-12
6.492157e-06
-1.996379e-06
-1.854606e-06
-1.976789e-06
-2.64995e-06
-0.001278443
0.001278912
5.190094e-12
1.033301e-05
-2.80262e-06
-2.601001e-06
-2.748727e-06
-3.574139e-06
-0.001279131
0.001278831
7.402339e-12
1.477229e-05
-3.758095e-06
-3.484447e-06
-3.655624e-06
-4.588491e-06
-0.001278282
0.001277253
8.823071e-12
1.952583e-05
-4.787709e-06
-4.470978e-06
-4.649358e-06
-5.355575e-06
-0.001275984
0.0012741
5.322535e-12
2.325141e-05
-5.389314e-06
-5.269716e-06
-5.352285e-06
-5.248635e-06
-0.001271546
0.001267909
-4.128713e-12
2.4594e-05
-5.100286e-06
-5.355315e-06
-5.253126e-06
-4.682281e-06
-0.001263225
0.001257401
-8.481855e-12
2.45314e-05
-4.531984e-06
-4.833352e-06
-4.659917e-06
-4.256313e-06
-0.001250685
0.001243163
-5.862763e-12
2.437371e-05
-4.1208e-06
-4.32079e-06
-4.154482e-06
-3.986404e-06
-0.001235046
0.001226392
-6.437097e-13
2.415222e-05
-3.762066e-06
-3.996828e-06
-3.753564e-06
-3.680923e-06
-0.001217234
0.001206971
6.078199e-12
2.357125e-05
-2.97646e-06
-3.68717e-06
-2.963363e-06
-3.009918e-06
-0.001196969
0.001186395
1.226137e-11
2.264872e-05
-3.039306e-06
-2.998199e-06
-3.027164e-06
-3.444392e-06
-0.001177313
0.001168069
1.666053e-11
2.296292e-05
-3.401412e-06
-3.453774e-06
-3.419584e-06
-2.964676e-06
-0.001158517
0.001149399
1.892403e-11
2.094055e-05
-2.938717e-06
-2.973645e-06
-2.946208e-06
-2.704783e-06
-0.001140705
0.001132439
1.936976e-11
1.899053e-05
-2.650419e-06
-2.711999e-06
-2.656729e-06
-2.370839e-06
-0.001124565
0.001117269
1.740127e-11
1.669399e-05
-2.325014e-06
-2.373798e-06
-2.327479e-06
-2.052233e-06
-0.001110403
0.001104155
1.386304e-11
1.436462e-05
-2.006238e-06
-2.052258e-06
-2.005725e-06
-1.754784e-06
-0.00109836
0.001093194
9.144268e-12
1.209386e-05
-1.711767e-06
-1.752344e-06
-1.708885e-06
-1.485054e-06
-0.001088451
0.00108431
4.177981e-12
9.998609e-06
-1.448497e-06
-1.4804e-06
-1.443345e-06
-1.279761e-06
-0.001080573
0.001077434
-1.061613e-12
8.193762e-06
-1.253124e-06
-1.274462e-06
-1.248007e-06
-1.114267e-06
-0.001074658
0.001072401
-6.00825e-12
6.662892e-06
-1.092686e-06
-1.110262e-06
-1.088841e-06
-9.731053e-07
-0.001070452
0.001068945
-9.70614e-12
5.361475e-06
-9.570036e-07
-9.701103e-07
-9.541177e-07
-8.653278e-07
-0.001067707
0.001066858
-1.241148e-11
4.276716e-06
-8.512362e-07
-8.629051e-07
-8.489091e-07
-7.780264e-07
-0.001066245
0.00106596
-1.334568e-11
3.374659e-06
-7.685473e-07
-7.759995e-07
-7.665893e-07
-7.123277e-07
-0.00106587
0.001066037
-1.318736e-11
2.664843e-06
-7.052859e-07
-7.106183e-07
-7.036273e-07
-6.706299e-07
-0.00106637
0.001066934
-1.252992e-11
2.106895e-06
-6.66536e-07
-6.691785e-07
-6.651059e-07
-6.430676e-07
-0.001067633
0.001068513
-1.178158e-11
1.685956e-06
-6.410853e-07
-6.418429e-07
-6.39907e-07
-6.313826e-07
-0.001069504
0.00107065
-1.091036e-11
1.376486e-06
-6.305538e-07
-6.303509e-07
-6.295325e-07
-6.343861e-07
-0.001071884
0.001073211
-1.02015e-11
1.212775e-06
-6.3654e-07
-6.335035e-07
-6.356604e-07
-6.551444e-07
-0.001074612
0.001076084
-9.501419e-12
1.155119e-06
-6.58902e-07
-6.54385e-07
-6.581643e-07
-6.925239e-07
-0.001077604
0.001079145
-8.702385e-12
1.23972e-06
-6.987914e-07
-6.918721e-07
-6.981568e-07
-7.488123e-07
-0.001080698
0.001082238
-7.774177e-12
1.469864e-06
-7.569207e-07
-7.482183e-07
-7.563643e-07
-8.140941e-07
-0.001083775
0.00108528
-6.808671e-12
1.767732e-06
-8.228786e-07
-8.135768e-07
-8.224052e-07
-8.940555e-07
-0.001086765
0.001088195
-5.743559e-12
2.170168e-06
-9.061617e-07
-8.936143e-07
-9.058033e-07
-9.745921e-07
-0.001089584
0.001090848
-4.66071e-12
2.643753e-06
-9.789785e-07
-9.746297e-07
-9.79044e-07
-1.073974e-06
-0.001092019
0.001093115
-4.746247e-12
3.242685e-06
-1.096581e-06
-1.07244e-06
-1.095476e-06
-1.228792e-06
0.001095054
-3.614744e-12
4.054145e-06
-0.001094153
-1.249503e-06
-1.22811e-06
-1.248841e-06
-1.392181e-06
-0.001095858
0.001096496
-2.779515e-12
4.975907e-06
-1.415406e-06
-1.391541e-06
-1.414779e-06
-1.560789e-06
-0.001097016
0.001097347
-2.083938e-12
5.958657e-06
-1.584649e-06
-1.560032e-06
-1.58387e-06
-1.723606e-06
-0.001097542
0.001097531
-1.590089e-12
6.949014e-06
-1.746152e-06
-1.72258e-06
-1.745094e-06
-1.867476e-06
-0.00109737
0.001096988
-1.261846e-12
7.887025e-06
-1.886393e-06
-1.866291e-06
-1.885206e-06
-1.978963e-06
-0.001096446
0.001095675
-9.447877e-13
8.710623e-06
-1.992147e-06
-1.977838e-06
-1.991045e-06
-2.048017e-06
-0.001094736
0.001093571
-3.383368e-13
9.368411e-06
-2.054121e-06
-2.0472e-06
-2.053407e-06
-2.070225e-06
-0.001092236
0.001090686
7.294477e-13
9.827922e-06
-2.068927e-06
-2.069893e-06
-2.068726e-06
-2.047741e-06
-0.001088975
0.001087071
2.272844e-12
1.007938e-05
-2.039881e-06
-2.04792e-06
-2.040157e-06
-1.988659e-06
-0.001085024
0.00108282
3.898161e-12
1.01344e-05
-1.976012e-06
-1.989262e-06
-1.976691e-06
-1.904596e-06
-0.001080501
0.001078071
5.648509e-12
1.001911e-05
-1.889196e-06
-1.905441e-06
-1.890085e-06
-1.807124e-06
-0.001075562
0.001072996
7.684632e-12
9.76312e-06
-1.7907e-06
-1.807993e-06
-1.791553e-06
-1.704789e-06
-0.001070392
0.001067788
9.491238e-12
9.392967e-06
-1.688672e-06
-1.705532e-06
-1.689337e-06
-1.602669e-06
-0.001065188
0.001062642
9.865245e-12
8.927058e-06
-1.587691e-06
-1.603252e-06
-1.588131e-06
-1.503971e-06
-0.001060143
0.001057748
9.049654e-12
8.382984e-06
-1.489818e-06
-1.504245e-06
-1.490013e-06
-1.409828e-06
-0.001055439
0.001053279
7.509689e-12
7.773155e-06
-1.396925e-06
-1.409723e-06
-1.396845e-06
-1.321376e-06
-0.001051232
0.001049373
4.874573e-12
7.122092e-06
-1.310438e-06
-1.321124e-06
-1.310195e-06
-1.243335e-06
-0.001047653
0.001046146
3.368306e-12
6.459067e-06
-1.232911e-06
-1.243215e-06
-1.232714e-06
-1.175318e-06
-0.001044785
0.001043659
2.515435e-14
5.812365e-06
-1.168071e-06
-1.175368e-06
-1.167689e-06
-1.117062e-06
-0.001042676
0.001041929
1.136302e-12
5.196195e-06
-1.107983e-06
-1.116378e-06
-1.10859e-06
-1.05927e-06
-0.001041315
0.00104096
5.858976e-12
4.608131e-06
-1.068511e-06
-1.058385e-06
-1.066952e-06
-1.015613e-06
-0.001040767
0.00104081
-1.664512e-12
4.031915e-06
-1.021807e-06
-1.015343e-06
-1.021559e-06
-9.634053e-07
-0.001040929
0.001041267
-1.344306e-12
3.535424e-06
-9.73419e-07
-9.632137e-07
-9.730422e-07
-9.072675e-07
-0.00104173
0.001042522
-1.732938e-11
2.855821e-06
-9.171317e-07
-9.066481e-07
-9.162054e-07
-7.0557e-07
-0.001043345
0.001043741
-3.776947e-11
1.993253e-06
-4.883686e-07
-7.054578e-07
-4.894754e-07
-5.55934e-08
-0.0002602046
0.0002595397
3.050726e-10
7.20186e-07
-5.836436e-07
-0.0002586089
0.0002583659
-1.461088e-10
8.267381e-07
-6.877848e-07
-0.0002579089
0.0002578283
-9.042172e-11
7.685218e-07
-7.764461e-07
-0.0002577599
0.000257782
-6.394638e-11
7.543886e-07
-8.350229e-07
-0.000257959
0.0002580439
-4.580855e-11
7.501491e-07
-8.946279e-07
-0.0002583551
0.0002584718
-3.375124e-11
7.779847e-07
-9.49823e-07
-0.0002588472
0.0002589761
-2.462198e-11
8.209327e-07
-1.002505e-06
-0.0002593666
0.0002594938
7.652478e-12
8.752814e-07
-1.052972e-06
-0.0002598648
0.0002599818
4.902116e-11
9.359203e-07
-1.10002e-06
-0.0002603151
0.0002604176
4.184783e-11
9.97467e-07
-1.143177e-06
-0.0002607032
0.0002607889
1.189452e-11
1.057449e-06
-1.171358e-06
-0.0002610294
0.0002610935
-3.171703e-12
1.107187e-06
-1.201848e-06
-0.000261273
0.0002613199
-3.084643e-12
1.154924e-06
-1.236719e-06
-0.0002614396
0.0002614708
-9.037e-13
1.205548e-06
-1.264455e-06
-0.0002615458
0.0002615608
5.802227e-13
1.24941e-06
-1.287197e-06
-0.0002615873
0.0002615873
-1.330949e-12
1.287183e-06
-1.305806e-06
-0.000261569
0.000261556
-3.013588e-12
1.318812e-06
-1.31969e-06
-0.0002614978
0.0002614733
-5.549775e-12
1.344136e-06
-1.328212e-06
-0.0002613817
0.0002613469
-1.199138e-11
1.362925e-06
-1.331662e-06
-0.0002612288
0.0002611851
-1.743881e-11
1.375453e-06
-1.331409e-06
-0.0002610471
0.0002609959
-2.025182e-11
1.382669e-06
-1.329393e-06
-0.0002608431
0.0002607863
-2.541115e-11
1.386196e-06
-1.326774e-06
-0.000260622
0.0002605611
-2.985109e-11
1.387748e-06
-1.32403e-06
-0.0002603867
0.0002603219
-3.023041e-11
1.388809e-06
-1.321377e-06
-0.0002601375
0.0002600686
-2.849192e-11
1.390287e-06
-1.318975e-06
-0.0002598735
0.0002598001
-2.782877e-11
1.392466e-06
-1.316595e-06
-0.0002595934
0.0002595153
-4.298197e-11
1.394734e-06
-1.313971e-06
-0.000259298
0.0002592156
-4.736468e-11
1.396396e-06
-1.310784e-06
-0.0002589895
0.0002589035
-4.107081e-11
1.39675e-06
-1.306692e-06
-0.0002586719
0.0002585837
-3.781448e-11
1.394941e-06
-1.300559e-06
-0.0002583515
0.0002582631
-3.501265e-11
1.388996e-06
-1.290629e-06
-0.0002580396
0.0002579551
-3.428041e-11
1.37516e-06
-1.273416e-06
-0.0002577586
0.0002576867
-3.049124e-11
1.345425e-06
-1.235884e-06
-0.0002575613
0.0002575244
-2.659913e-11
1.272853e-06
-1.118651e-06
-0.000257558
0.0002576419
-2.852716e-11
1.034805e-06
1.617519e-07
-0.0002580195
0.0002577886
-6.793295e-12
6.91498e-08
8.692287e-07
-0.0002571079
0.0002569922
-3.133564e-11
-7.534788e-07
1.001301e-06
-0.0002566024
0.0002564904
-1.784072e-11
-8.892545e-07
1.052155e-06
-0.0002562263
0.0002561506
-2.032722e-11
-9.76489e-07
1.085237e-06
-0.0002559428
0.0002558786
-1.970493e-11
-1.021069e-06
1.106819e-06
-0.0002556977
0.000255641
-2.012682e-11
-1.050044e-06
1.124007e-06
-0.0002554778
0.0002554257
-2.208384e-11
-1.071814e-06
1.136827e-06
-0.0002552724
0.0002552224
-1.920985e-11
-1.086843e-06
1.146287e-06
-0.0002550737
0.0002550246
-1.931013e-11
-1.097156e-06
1.153248e-06
-0.0002548775
0.0002548287
-2.996169e-11
-1.10441e-06
1.158638e-06
-0.0002546827
0.0002546347
-3.765813e-11
-1.110521e-06
1.162689e-06
-0.0002544925
0.0002544463
-2.944695e-11
-1.116513e-06
1.164858e-06
-0.0002543119
0.000254269
-2.688203e-11
-1.121902e-06
1.164065e-06
-0.0002541449
0.0002541055
-2.195012e-11
-1.12468e-06
1.159707e-06
-0.0002539921
0.0002539557
-2.069325e-11
-1.123233e-06
1.152897e-06
-0.0002538479
0.0002538119
-1.798798e-11
-1.116878e-06
1.145049e-06
-0.0002537013
0.0002536627
-1.332073e-11
-1.106458e-06
1.137124e-06
-0.000253541
0.0002534971
-1.372714e-11
-1.093168e-06
1.128995e-06
-0.0002533567
0.000253305
-1.17903e-11
-1.077288e-06
1.114638e-06
-0.0002531451
0.0002530894
-7.254181e-11
-1.058866e-06
1.111471e-06
-0.0002529082
0.0002528389
-6.587223e-11
-1.04212e-06
1.094521e-06
-0.0002526118
0.0002525302
-1.846388e-11
-1.012909e-06
1.0704e-06
-0.0002522719
0.0002521797
-1.926165e-11
-9.781815e-07
1.042105e-06
-0.0002518867
0.0002517823
-1.559862e-11
-9.376351e-07
1.011267e-06
-0.0002514509
0.0002513334
-1.284028e-11
-8.938003e-07
9.78097e-07
-0.0002509635
0.0002508335
-2.15145e-11
-8.48149e-07
9.428073e-07
-0.0002504265
0.000250284
-2.338487e-11
-8.003619e-07
9.054746e-07
-0.0002498399
0.0002496852
-1.522075e-11
-7.507387e-07
8.695927e-07
-0.0002492037
0.000249037
-1.228729e-11
-7.028559e-07
8.393939e-07
-0.0002485214
0.0002483446
-1.001224e-11
-6.626404e-07
8.199645e-07
-0.0002478038
0.000247621
-1.52352e-11
-6.371814e-07
8.15663e-07
-0.0002470685
0.000246885
-1.776941e-11
-6.320983e-07
8.298085e-07
-0.0002463363
0.0002461578
-1.534178e-11
-6.512763e-07
8.624525e-07
-0.0002456301
0.0002454656
4.983535e-12
-6.979715e-07
9.076002e-07
-0.0002450109
0.0002448014
1.661906e-10
-6.983214e-07
1.045134e-06
-0.0002421354
0.0009941099
4.595707e-12
-2.827938e-06
-6.918138e-08
1.048948e-06
-8.347545e-08
-0.0002421459
-0.0002544682
-0.0002544738
5.190393e-07
-0.0009964109
0.00099583
6.777827e-12
-2.27097e-06
9.271893e-07
4.97294e-07
9.082918e-07
7.666275e-07
-0.0009953171
0.0009950052
9.13368e-12
-2.847334e-06
8.287029e-07
7.505264e-07
8.133922e-07
9.097047e-07
-0.0009951021
0.0009950475
1.096052e-11
-3.695284e-06
9.793143e-07
8.954675e-07
9.653884e-07
1.032147e-06
-0.0009949263
0.0009946872
1.149269e-11
-3.954952e-06
1.077849e-06
1.019027e-06
1.064978e-06
1.10322e-06
-0.0009944573
0.0009942388
1.068666e-11
-4.227447e-06
1.131721e-06
1.091166e-06
1.119834e-06
1.150121e-06
-0.0009941198
0.0009940611
8.134555e-12
-4.55426e-06
1.168195e-06
1.137818e-06
1.156842e-06
1.197993e-06
-0.000994076
0.0009941299
4.871298e-12
-4.846578e-06
1.209876e-06
1.185611e-06
1.199127e-06
1.243877e-06
-0.0009942223
0.0009943548
3.626668e-12
-5.10665e-06
1.253192e-06
1.233738e-06
1.243296e-06
1.286153e-06
-0.0009945378
0.0009947702
3.897215e-12
-5.377978e-06
1.295681e-06
1.277051e-06
1.286735e-06
1.331782e-06
-0.0009950418
0.0009953736
2.359188e-12
-5.659465e-06
1.340131e-06
1.323537e-06
1.332147e-06
1.377231e-06
-0.000995748
0.0009961925
6.015337e-13
-5.954e-06
1.384753e-06
1.369909e-06
1.377617e-06
1.421189e-06
-0.0009966831
0.0009972516
2.853447e-13
-6.254032e-06
1.428e-06
1.414674e-06
1.421644e-06
1.460981e-06
-0.0009978698
0.0009985707
5.753714e-13
-6.544574e-06
1.466583e-06
1.45517e-06
1.460916e-06
1.49394e-06
-0.0009993228
0.001000157
6.859768e-13
-6.808241e-06
1.498206e-06
1.488763e-06
1.493111e-06
1.517791e-06
-0.001001041
0.001001999
3.408378e-13
-7.0262e-06
1.520632e-06
1.513164e-06
1.51611e-06
1.531211e-06
-0.001003002
0.001004065
-4.926089e-13
-7.182142e-06
1.532465e-06
1.527053e-06
1.52837e-06
1.533781e-06
-0.001005162
0.001006297
-1.812963e-12
-7.262683e-06
1.533599e-06
1.530025e-06
1.52989e-06
1.525191e-06
-0.001007452
0.001008617
-2.54691e-12
-7.255932e-06
1.5235e-06
1.521802e-06
1.520154e-06
1.505736e-06
-0.001009783
0.001010932
-3.032436e-12
-7.159515e-06
1.502766e-06
1.502667e-06
1.499734e-06
1.478465e-06
-0.001012064
0.001013157
-3.606489e-12
-6.994305e-06
1.47468e-06
1.475663e-06
1.471878e-06
1.446823e-06
-0.001014222
0.001015236
-3.104461e-12
-6.788149e-06
1.442705e-06
1.44429e-06
1.440192e-06
1.412188e-06
-0.001016216
0.001017136
-3.180949e-12
-6.555294e-06
1.407858e-06
1.409911e-06
1.405574e-06
1.375853e-06
-0.001018017
0.001018833
-4.067626e-12
-6.305272e-06
1.370862e-06
1.373813e-06
1.368837e-06
1.337928e-06
-0.001019607
0.00102031
-3.30928e-12
-6.040109e-06
1.332489e-06
1.335929e-06
1.330365e-06
1.29856e-06
-0.00102097
0.001021555
-3.804743e-12
-5.76587e-06
1.293658e-06
1.29656e-06
1.291624e-06
1.259264e-06
-0.001022096
0.001022563
-2.877616e-12
-5.49016e-06
1.254258e-06
1.257426e-06
1.252485e-06
1.221387e-06
-0.001022985
0.001023331
-3.60762e-12
-5.217758e-06
1.21641e-06
1.21979e-06
1.214808e-06
1.184943e-06
-0.001023629
0.001023847
-3.108158e-12
-4.94522e-06
1.180156e-06
1.183468e-06
1.178901e-06
1.149636e-06
-0.001024014
0.001024097
-1.820582e-12
-4.668459e-06
1.144532e-06
1.148305e-06
1.143555e-06
1.114419e-06
-0.001024126
0.001024069
1.261906e-14
-4.391117e-06
1.111018e-06
1.113437e-06
1.109388e-06
1.082926e-06
-0.001023956
0.001023757
-5.515502e-12
-4.122487e-06
1.078846e-06
1.082046e-06
1.077702e-06
1.05409e-06
-0.001023503
0.001023166
1.34002e-13
-3.86953e-06
1.050243e-06
1.052904e-06
1.04956e-06
1.027366e-06
-0.001022779
0.001022311
-6.16753e-12
-3.632041e-06
1.023386e-06
1.026357e-06
1.022479e-06
1.007211e-06
-0.001021788
0.001021182
3.228263e-12
-3.410983e-06
1.003062e-06
1.005407e-06
1.002057e-06
9.819611e-07
-0.00102053
0.00101983
-3.229315e-12
-3.223611e-06
9.784672e-07
9.836591e-07
9.793537e-07
9.630815e-07
-0.001019094
0.001018303
6.691787e-14
-3.057874e-06
9.619687e-07
9.627365e-07
9.615145e-07
9.492923e-07
-0.001017476
0.001016601
-6.705075e-12
-2.91855e-06
9.482248e-07
9.487792e-07
9.477112e-07
9.379106e-07
-0.001015699
0.001014758
-8.530175e-12
-2.807919e-06
9.36968e-07
9.37438e-07
9.365138e-07
9.29086e-07
-0.001013796
0.001012799
-5.688595e-12
-2.716935e-06
9.283967e-07
9.286218e-07
9.281132e-07
9.228517e-07
-0.001011785
0.00101074
-4.168115e-12
-2.645234e-06
9.225638e-07
9.223864e-07
9.221062e-07
9.195115e-07
-0.001009684
0.0010086
-4.41671e-12
-2.595563e-06
9.206302e-07
9.191429e-07
9.200961e-07
9.167991e-07
-0.00100751
0.001006397
-1.241367e-12
-2.559483e-06
9.197034e-07
9.163883e-07
9.193015e-07
9.096263e-07
-0.001005276
0.001004129
-8.201816e-13
-2.501644e-06
9.148339e-07
9.094105e-07
9.146928e-07
8.761212e-07
-0.001002968
0.001001823
-1.255523e-12
-2.357538e-06
8.750874e-07
8.759417e-07
8.749177e-07
7.473056e-07
-0.001000782
0.0009999746
-1.598385e-12
-2.038726e-06
6.761305e-07
7.47004e-07
6.758367e-07
6.121298e-07
-0.0009992633
0.0009985159
-1.185796e-12
-1.698725e-06
6.111165e-07
6.119364e-07
6.109588e-07
6.103188e-07
-0.0009977627
0.0009970273
-1.382129e-12
-1.706968e-06
6.111527e-07
6.100804e-07
6.10894e-07
6.036048e-07
-0.0009963397
0.0009956646
-3.909245e-13
-1.737295e-06
6.028309e-07
6.033908e-07
6.026185e-07
5.937023e-07
-0.0009950377
0.0009943943
2.309417e-13
-1.728021e-06
5.922683e-07
5.934153e-07
5.920663e-07
5.812748e-07
-0.0009937932
0.0009931004
-4.317619e-12
-1.629762e-06
5.805113e-07
5.807559e-07
5.800307e-07
5.5034e-07
-0.0009924796
0.0009917139
1.526376e-11
-1.443672e-06
5.542785e-07
5.504071e-07
5.542609e-07
4.974242e-07
-0.0009910685
0.0009903921
3.063971e-11
-1.325149e-06
5.03715e-07
4.970349e-07
5.032883e-07
2.409277e-07
-0.0009905238
0.0009910023
1.571377e-11
-1.686782e-06
3.625473e-07
2.40859e-07
3.639584e-07
6.068483e-07
-0.0009910417
0.0009889373
-3.514543e-11
-1.627147e-07
5.224416e-07
6.116221e-07
5.262373e-07
4.691707e-07
-0.0009874297
0.0009866757
-1.555618e-11
-9.609289e-07
3.8117e-07
4.764369e-07
3.881216e-07
4.262737e-07
-0.0009859077
0.0009852277
-4.636558e-12
-9.629113e-07
3.892651e-07
4.324126e-07
3.95042e-07
4.026905e-07
-0.0009844435
0.0009838395
7.861691e-13
-9.578137e-07
3.731017e-07
4.079413e-07
3.780735e-07
3.894734e-07
-0.0009832456
0.0009827504
3.180756e-12
-1.040553e-06
3.740151e-07
3.939673e-07
3.782822e-07
3.980913e-07
-0.0009822407
0.0009817725
4.060699e-12
-1.119396e-06
3.917933e-07
4.020969e-07
3.956292e-07
4.111537e-07
-0.0009812977
0.0009808682
4.180184e-12
-1.216944e-06
4.083149e-07
4.149227e-07
4.120082e-07
4.324688e-07
-0.0009804416
0.0009800409
3.989529e-12
-1.340569e-06
4.356036e-07
4.350623e-07
4.381108e-07
4.51531e-07
-0.0009796599
0.0009793384
3.906907e-12
-1.493071e-06
4.52901e-07
4.544516e-07
4.556709e-07
4.796866e-07
-0.000979034
0.0009787736
3.902298e-12
-1.671014e-06
4.834206e-07
4.823589e-07
4.859936e-07
5.069154e-07
-0.0009785332
0.0009783318
4.009661e-12
-1.839744e-06
5.112561e-07
5.093515e-07
5.135783e-07
5.329788e-07
-0.0009781477
0.0009780023
4.141047e-12
-2.000111e-06
5.37586e-07
5.352368e-07
5.397334e-07
5.577247e-07
-0.0009778735
0.0009777819
4.411329e-12
-2.152512e-06
5.622854e-07
5.597396e-07
5.643175e-07
5.803104e-07
-0.0009777081
0.0009776728
4.997221e-12
-2.297059e-06
5.840999e-07
5.820953e-07