/*--------------------------------*- C++ -*----------------------------------*\
| =========                 |                                                 |
| \\      /  F ield         | foam-extend: Open Source CFD                    |
|  \\    /   O peration     | Version:     3.1                                |
|   \\  /    A nd           | Web:         http://www.extend-project.de       |
|    \\/     M anipulation  |                                                 |
\*---------------------------------------------------------------------------*/
FoamFile
{
    version     2.0;
    format      ascii;
    class       volScalarField;
    location    "32";
    object      H;
}
// * * * * * * * * * * * * * * * * * * * * * * * * * * * * * * * * * * * * * //

dimensions      [0 1 0 0 0 0 0];

internalField   nonuniform List<scalar> 
2539
(
0.857519
0.856817
0.855885
0.854963
0.85404
0.853117
0.852194
0.85127
0.850346
0.849422
0.848498
0.847574
0.846649
0.845724
0.844799
0.843874
0.842948
0.842022
0.841096
0.84017
0.839243
0.838317
0.83739
0.836462
0.835535
0.834607
0.833679
0.832751
0.831823
0.830894
0.829965
0.829036
0.828106
0.827177
0.826247
0.825316
0.824386
0.823455
0.822524
0.821593
0.820662
0.81973
0.818798
0.817865
0.816933
0.816
0.815067
0.814133
0.8132
0.812266
0.811332
0.810397
0.809462
0.808527
0.807592
0.806656
0.80572
0.804784
0.803848
0.802911
0.801974
0.801036
0.800099
0.799161
0.798222
0.797284
0.796345
0.795406
0.794466
0.793526
0.792586
0.791646
0.790705
0.789764
0.788823
0.787881
0.786939
0.785997
0.785054
0.784111
0.783168
0.782224
0.78128
0.780336
0.779391
0.778446
0.777501
0.776555
0.775609
0.774663
0.773716
0.772769
0.771821
0.770874
0.769925
0.768977
0.768028
0.767079
0.766129
0.765179
0.764229
0.763278
0.762327
0.761376
0.760424
0.759472
0.758519
0.757566
0.756613
0.755659
0.754705
0.75375
0.752795
0.75184
0.750884
0.749928
0.748971
0.748014
0.747057
0.746099
0.745141
0.744182
0.743223
0.742264
0.741304
0.740343
0.739383
0.738421
0.73746
0.736497
0.735535
0.734572
0.733608
0.732644
0.73168
0.730715
0.72975
0.728784
0.727818
0.726851
0.725884
0.724916
0.723948
0.722979
0.72201
0.72104
0.72007
0.719099
0.718128
0.717156
0.716184
0.715211
0.714238
0.713264
0.71229
0.711315
0.71034
0.709364
0.708387
0.70741
0.706433
0.705455
0.704476
0.703497
0.702517
0.701537
0.700556
0.699574
0.698592
0.69761
0.696626
0.695642
0.694658
0.693673
0.692687
0.691701
0.690714
0.689726
0.688738
0.687749
0.68676
0.68577
0.684779
0.683788
0.682567
0.681213
0.680413
0.680096
0.679804
0.679513
0.679222
0.678931
0.67864
0.678349
0.678058
0.677767
0.677476
0.677185
0.676893
0.676602
0.676311
0.676019
0.675728
0.675436
0.675144
0.674852
0.674561
0.674269
0.673977
0.673685
0.673393
0.673101
0.672809
0.672516
0.672224
0.671932
0.671639
0.671347
0.671054
0.670761
0.670469
0.670176
0.669883
0.66959
0.669297
0.669004
0.668711
0.668418
0.668125
0.667831
0.667538
0.667245
0.666951
0.666658
0.666364
0.66607
0.665777
0.665483
0.665189
0.664895
0.664601
0.664307
0.664013
0.663718
0.663424
0.66313
0.662835
0.662541
0.662246
0.661951
0.661657
0.661362
0.661067
0.660772
0.660477
0.660182
0.659887
0.659592
0.659296
0.659001
0.658706
0.65841
0.658114
0.657819
0.657523
0.657227
0.656931
0.656636
0.656339
0.656043
0.655747
0.655451
0.655155
0.654858
0.654562
0.654265
0.653969
0.653672
0.653375
0.653078
0.652782
0.652485
0.652188
0.65189
0.651593
0.651296
0.650999
0.650701
0.650404
0.650106
0.649808
0.649511
0.649213
0.648915
0.648617
0.648319
0.648021
0.647723
0.647424
0.647126
0.646827
0.646529
0.64623
0.645932
0.645633
0.645334
0.645035
0.644736
0.644437
0.644138
0.643839
0.643539
0.64324
0.64294
0.642641
0.642341
0.642041
0.641741
0.641442
0.641142
0.640841
0.640541
0.640241
0.639941
0.63964
0.63934
0.639039
0.638739
0.638438
0.638137
0.637836
0.637535
0.637234
0.636933
0.636631
0.63633
0.636029
0.635727
0.635426
0.635124
0.634822
0.63452
0.634218
0.633916
0.633614
0.633312
0.633009
0.632707
0.632404
0.632102
0.631799
0.631496
0.631193
0.630891
0.630587
0.630284
0.629981
0.629678
0.629374
0.629071
0.628767
0.628463
0.62816
0.627856
0.627552
0.627248
0.626944
0.626639
0.626335
0.62603
0.625726
0.625421
0.625116
0.624812
0.624507
0.624202
0.623896
0.623591
0.623286
0.62298
0.622675
0.622369
0.622069
0.621646
0.623704
0.598428
0.572794
0.54428
0.527655
0.517138
0.509629
0.503734
0.498779
0.494419
0.490465
0.486808
0.483379
0.480134
0.477044
0.474084
0.471238
0.468494
0.465839
0.463266
0.460766
0.458334
0.455964
0.453651
0.451391
0.449181
0.447017
0.444896
0.442815
0.440773
0.438767
0.436796
0.434856
0.432948
0.431068
0.429217
0.427392
0.425592
0.423816
0.422064
0.420334
0.418625
0.416936
0.415268
0.413617
0.411985
0.410371
0.408773
0.407191
0.405625
0.404074
0.402537
0.401014
0.399504
0.398008
0.396523
0.395051
0.39359
0.392139
0.3907
0.389271
0.387851
0.38644
0.385039
0.383646
0.382261
0.380883
0.379512
0.378148
0.37679
0.375438
0.374091
0.372748
0.371409
0.370074
0.368741
0.36741
0.366079
0.364749
0.363418
0.362085
0.360748
0.359405
0.358056
0.356697
0.355326
0.35394
0.352534
0.351104
0.349642
0.348141
0.34659
0.344977
0.343284
0.341492
0.339575
0.337507
0.335258
0.332799
0.330111
0.327199
0.319637
0.316419
0.31346
0.310719
0.308164
0.305769
0.303514
0.301382
0.299358
0.297432
0.295593
0.293833
0.292144
0.290521
0.288959
0.287451
0.285995
0.284586
0.283221
0.281897
0.280611
0.279362
0.278146
0.276962
0.275808
0.274683
0.273585
0.272512
0.271463
0.270437
0.269434
0.268451
0.267488
0.266545
0.265619
0.264712
0.263821
0.262947
0.262088
0.261244
0.260414
0.259599
0.258796
0.258007
0.25723
0.256466
0.255713
0.254971
0.254241
0.25352
0.252811
0.252111
0.251421
0.25074
0.250069
0.249406
0.248752
0.248107
0.247469
0.24684
0.246219
0.245605
0.244998
0.244399
0.243806
0.243221
0.242642
0.24207
0.241504
0.240944
0.240391
0.239843
0.239301
0.238765
0.238235
0.23771
0.23719
0.236676
0.236167
0.235663
0.235163
0.234669
0.234179
0.233695
0.233214
0.232738
0.232267
0.231799
0.231337
0.230878
0.230423
0.229973
0.229526
0.229083
0.228643
0.228204
0.227766
0.227335
0.226932
0.226583
0.22629
0.226018
0.225748
0.225479
0.225212
0.224947
0.224682
0.224419
0.224158
0.223898
0.223639
0.223381
0.223125
0.222871
0.222617
0.222365
0.222114
0.221865
0.221616
0.221369
0.221123
0.220879
0.220635
0.220393
0.220152
0.219912
0.219674
0.219436
0.2192
0.218965
0.218731
0.218498
0.218266
0.218035
0.217806
0.217577
0.217349
0.217123
0.216898
0.216673
0.21645
0.216228
0.216006
0.215786
0.215567
0.215349
0.215131
0.214915
0.2147
0.214485
0.214272
0.214059
0.213848
0.213637
0.213427
0.213218
0.21301
0.212803
0.212597
0.212392
0.212187
0.211984
0.211781
0.211579
0.211378
0.211178
0.210979
0.21078
0.210583
0.210386
0.21019
0.209995
0.2098
0.209606
0.209414
0.209221
0.20903
0.20884
0.20865
0.208461
0.208272
0.208085
0.207898
0.207712
0.207527
0.207342
0.207158
0.206975
0.206792
0.206611
0.20643
0.206249
0.20607
0.20589
0.205712
0.205534
0.205358
0.205181
0.205006
0.20483
0.204656
0.204482
0.204309
0.204137
0.203965
0.203794
0.203623
0.203453
0.203284
0.203115
0.202947
0.20278
0.202613
0.202447
0.202281
0.202116
0.201952
0.201788
0.201624
0.201461
0.201299
0.201138
0.200977
0.200816
0.200656
0.200497
0.200338
0.20018
0.200022
0.199865
0.199708
0.199552
0.199396
0.199241
0.199087
0.198933
0.198779
0.198626
0.198474
0.198322
0.19817
0.198019
0.197869
0.197719
0.197569
0.19742
0.197272
0.197124
0.196976
0.196829
0.196682
0.196536
0.196391
0.196246
0.196101
0.195957
0.195813
0.195669
0.195527
0.195384
0.195242
0.195101
0.19496
0.194819
0.194679
0.194539
0.1944
0.194261
0.194123
0.193985
0.193847
0.19371
0.193573
0.193437
0.193301
0.193165
0.19303
0.192896
0.192761
0.192627
0.192494
0.192361
0.192228
0.192096
0.191964
0.191833
0.191702
0.191571
0.191441
0.191311
0.191181
0.191052
0.190924
0.190795
0.190667
0.19054
0.190412
0.190285
0.190159
0.190033
0.189907
0.189782
0.189657
0.189532
0.189408
0.189284
0.18916
0.189037
0.188914
0.188791
0.188669
0.188547
0.188426
0.188304
0.188183
0.188063
0.187943
0.187823
0.187703
0.187584
0.187465
0.187347
0.187229
0.187111
0.186993
0.186876
0.186759
0.186643
0.186526
0.18641
0.186295
0.18618
0.186065
0.18595
0.185836
0.185721
0.185608
0.185494
0.185381
0.185268
0.185156
0.185044
0.184932
0.18482
0.184709
0.184598
0.184487
0.184376
0.184266
0.184156
0.184047
0.183937
0.183828
0.18372
0.183611
0.183503
0.183395
0.183287
0.18318
0.183073
0.182966
0.18286
0.182754
0.182648
0.182542
0.182437
0.182331
0.182227
0.182122
0.182018
0.181913
0.18181
0.181706
0.181603
0.1815
0.181397
0.181294
0.181192
0.18109
0.180988
0.180887
0.180786
0.180685
0.180584
0.180483
0.180383
0.180283
0.180183
0.180084
0.179985
0.179886
0.179787
0.179688
0.17959
0.179492
0.179394
0.179297
0.179199
0.179102
0.179005
0.178909
0.178812
0.178716
0.17862
0.178524
0.178429
0.178334
0.178239
0.178144
0.178049
0.177955
0.177861
0.177767
0.177673
0.17758
0.177486
0.177393
0.177301
0.177208
0.177116
0.177024
0.176932
0.17684
0.176748
0.176657
0.176566
0.176475
0.176384
0.176294
0.176204
0.176114
0.176024
0.175934
0.175845
0.175756
0.175667
0.175578
0.175489
0.175401
0.175313
0.175225
0.175137
0.175049
0.174962
0.174874
0.174787
0.174701
0.174617
0.174533
0.174439
0.17433
0.174216
0.174102
0.173988
0.173875
0.173761
0.173649
0.173536
0.173424
0.173312
0.173201
0.17309
0.172979
0.172868
0.172758
0.172648
0.172538
0.172429
0.172319
0.172211
0.172102
0.171994
0.171886
0.171778
0.171671
0.171564
0.171457
0.171351
0.171244
0.171138
0.171033
0.170927
0.170822
0.170717
0.170613
0.170509
0.170405
0.170301
0.170198
0.170094
0.169991
0.169889
0.169786
0.169684
0.169583
0.169481
0.16938
0.169279
0.169178
0.169077
0.168977
0.168877
0.168777
0.168678
0.168579
0.16848
0.168381
0.168282
0.168184
0.168086
0.167988
0.167891
0.167794
0.167697
0.1676
0.167503
0.167407
0.167311
0.167215
0.16712
0.167024
0.166929
0.166834
0.16674
0.166646
0.166551
0.166457
0.166364
0.16627
0.166177
0.166084
0.165991
0.165899
0.165807
0.165714
0.165623
0.165531
0.16544
0.165348
0.165257
0.165167
0.165076
0.164986
0.164896
0.164806
0.164716
0.164627
0.164538
0.164449
0.16436
0.164271
0.164183
0.164095
0.164007
0.163919
0.163831
0.163744
0.163657
0.16357
0.163483
0.163397
0.16331
0.163224
0.163138
0.163053
0.162967
0.162882
0.162797
0.162712
0.162627
0.162542
0.162458
0.162374
0.16229
0.162206
0.162123
0.162039
0.161956
0.161873
0.16179
0.161708
0.161625
0.161543
0.161461
0.161379
0.161298
0.161216
0.161135
0.161054
0.160973
0.160892
0.160812
0.160731
0.160651
0.160571
0.160491
0.160411
0.160332
0.160253
0.160173
0.160094
0.160016
0.159937
0.159859
0.15978
0.159702
0.159624
0.159547
0.159469
0.159392
0.159314
0.159237
0.159161
0.159084
0.159007
0.158931
0.158855
0.158779
0.158703
0.158627
0.158551
0.158476
0.158401
0.158327
0.158253
0.158173
0.158085
0.157999
0.157971
0.158052
0.158108
0.158118
0.158096
0.158079
0.158062
0.158048
0.158041
0.158041
0.158046
0.158052
0.15806
0.158074
0.158094
0.158119
0.158147
0.15818
0.158217
0.15826
0.158307
0.158358
0.158412
0.15847
0.158532
0.158599
0.158673
0.158752
0.158835
0.158921
0.159012
0.159109
0.159211
0.159318
0.159428
0.159541
0.159659
0.159782
0.159909
0.160044
0.160182
0.160324
0.160473
0.160629
0.160788
0.160952
0.16112
0.161293
0.16147
0.161654
0.161842
0.162034
0.162232
0.162437
0.162648
0.162865
0.163086
0.163312
0.163544
0.163779
0.164021
0.164271
0.164529
0.164792
0.165059
0.16533
0.165606
0.165889
0.16618
0.16648
0.166786
0.167097
0.167416
0.167741
0.168072
0.168409
0.168753
0.169103
0.169461
0.169831
0.170211
0.170598
0.170991
0.171386
0.171785
0.172187
0.172598
0.173029
0.173496
0.173998
0.174508
0.174966
0.1753
0.175496
0.175693
0.176223
0.177491
0.179612
0.181898
0.182544
0.179242
0.171366
0.162831
0.155366
0.155296
0.155225
0.155155
0.155085
0.155015
0.154945
0.154876
0.154806
0.154737
0.154668
0.154599
0.15453
0.154461
0.154393
0.154324
0.154256
0.154188
0.15412
0.154052
0.153984
0.153916
0.153849
0.153782
0.153714
0.153647
0.15358
0.153514
0.153447
0.15338
0.153314
0.153248
0.153182
0.153116
0.15305
0.152984
0.152918
0.152853
0.152788
0.152722
0.152657
0.152592
0.152528
0.152463
0.152398
0.152334
0.15227
0.152206
0.152141
0.152078
0.152014
0.15195
0.151887
0.151823
0.15176
0.151697
0.151634
0.151571
0.151508
0.151445
0.151383
0.151321
0.151258
0.151196
0.151134
0.151072
0.15101
0.150949
0.150887
0.150826
0.150764
0.150703
0.150642
0.150581
0.15052
0.150459
0.150399
0.150338
0.150278
0.150218
0.150158
0.150098
0.150038
0.149978
0.149917
0.149853
0.149792
0.149753
0.149744
0.149748
0.149751
0.149755
0.149758
0.149761
0.149765
0.149768
0.149772
0.149775
0.149778
0.149782
0.149785
0.149789
0.149792
0.149796
0.149799
0.149802
0.149806
0.149809
0.149812
0.149816
0.149819
0.149823
0.149826
0.149829
0.149833
0.149836
0.14984
0.149843
0.149846
0.14985
0.149853
0.149856
0.14986
0.149863
0.149866
0.14987
0.149873
0.149877
0.14988
0.149883
0.149887
0.14989
0.149893
0.149897
0.1499
0.149903
0.149907
0.14991
0.149913
0.149917
0.14992
0.149923
0.149927
0.14993
0.149933
0.149937
0.14994
0.149943
0.149947
0.14995
0.149953
0.149956
0.14996
0.149963
0.149966
0.14997
0.149973
0.149976
0.14998
0.149983
0.149986
0.149989
0.149993
0.149996
0.149999
0.150003
0.150006
0.150009
0.150012
0.150016
0.150019
0.150022
0.150026
0.150029
0.150032
0.150035
0.150039
0.150042
0.150045
0.150048
0.150052
0.150055
0.150058
0.150061
0.150065
0.150068
0.150071
0.150074
0.150078
0.150081
0.150084
0.150087
0.150091
0.150094
0.150097
0.1501
0.150104
0.150107
0.15011
0.150113
0.150117
0.15012
0.150123
0.150126
0.150129
0.150133
0.150136
0.150139
0.150142
0.150145
0.150149
0.150152
0.150155
0.150158
0.150161
0.150165
0.150168
0.150171
0.150174
0.150177
0.150181
0.150184
0.150187
0.15019
0.150193
0.150197
0.1502
0.150203
0.150206
0.150209
0.150212
0.150216
0.150219
0.150222
0.150225
0.150228
0.150231
0.150235
0.150238
0.150241
0.150244
0.150247
0.15025
0.150253
0.150257
0.15026
0.150263
0.150266
0.150269
0.150272
0.150275
0.150279
0.150282
0.150285
0.150288
0.150291
0.150294
0.150297
0.1503
0.150304
0.150307
0.15031
0.150313
0.150316
0.150319
0.150322
0.150325
0.150328
0.150332
0.150335
0.150338
0.150341
0.150344
0.150347
0.15035
0.150353
0.150356
0.150359
0.150363
0.150366
0.150369
0.150372
0.150375
0.150378
0.150381
0.150384
0.150387
0.15039
0.150393
0.150396
0.150399
0.150403
0.150406
0.150409
0.150412
0.150415
0.150418
0.150421
0.150424
0.150427
0.15043
0.150433
0.150436
0.150439
0.150442
0.150445
0.150448
0.150451
0.150454
0.150457
0.15046
0.150463
0.150467
0.15047
0.150473
0.150476
0.150479
0.150482
0.150485
0.150487
0.15049
0.150494
0.150499
0.150505
0.150504
0.15048
0.150442
0.15049
0.150816
0.151339
0.150876
0.147074
0.140842
0.145099
0.188618
0.324422
0.552917
0.656485
0.662889
0.663155
0.663458
0.663761
0.664063
0.664366
0.664668
0.66497
0.665273
0.665575
0.665877
0.666179
0.666481
0.666783
0.667085
0.667387
0.667689
0.66799
0.668292
0.668594
0.668895
0.669197
0.669498
0.669799
0.670101
0.670402
0.670703
0.671004
0.671305
0.671607
0.671908
0.672208
0.672509
0.67281
0.673111
0.673412
0.673712
0.674013
0.674314
0.674614
0.674915
0.675215
0.675515
0.675816
0.676116
0.676416
0.676717
0.677017
0.677317
0.677618
0.677912
0.67812
0.678182
0.678178
0.678176
0.678173
0.678171
0.678168
0.678166
0.678164
0.678161
0.678159
0.678156
0.678154
0.678151
0.678149
0.678147
0.678144
0.678142
0.678139
0.678137
0.678135
0.678132
0.67813
0.678128
0.678125
0.678123
0.678121
0.678118
0.678116
0.678113
0.678111
0.678109
0.678106
0.678104
0.678102
0.678099
0.678097
0.678095
0.678092
0.67809
0.678088
0.678085
0.678083
0.678081
0.678079
0.678076
0.678074
0.678072
0.678069
0.678067
0.678065
0.678062
0.67806
0.678058
0.678055
0.678053
0.678051
0.678048
0.678046
0.678044
0.678042
0.678039
0.678037
0.678035
0.678032
0.67803
0.678028
0.678026
0.678023
0.678021
0.678019
0.678017
0.678014
0.678012
0.67801
0.678008
0.678006
0.678003
0.678001
0.677999
0.677997
0.677995
0.677993
0.67799
0.677988
0.677986
0.677984
0.677982
0.67798
0.677978
0.677976
0.677974
0.677972
0.67797
0.677968
0.677966
0.677964
0.677962
0.67796
0.677958
0.677956
0.677954
0.677952
0.677951
0.677949
0.677947
0.677945
0.677943
0.677941
0.67794
0.677938
0.677936
0.677934
0.677933
0.677931
0.677929
0.677928
0.677926
0.677924
0.677923
0.677921
0.677919
0.677918
0.677916
0.677914
0.677913
0.677911
0.67791
0.677908
0.677907
0.677905
0.677903
0.677902
0.6779
0.677899
0.677897
0.677896
0.677894
0.677893
0.677891
0.67789
0.677888
0.677887
0.677885
0.677884
0.677882
0.677881
0.677879
0.677878
0.677876
0.677875
0.677873
0.677872
0.677871
0.677869
0.677868
0.677866
0.677865
0.677863
0.677862
0.67786
0.677859
0.677857
0.677856
0.677855
0.677853
0.677852
0.67785
0.677849
0.677847
0.677846
0.677844
0.677843
0.677841
0.67784
0.677838
0.677837
0.677836
0.677834
0.677833
0.677831
0.67783
0.677828
0.677827
0.677825
0.677824
0.677822
0.677821
0.677819
0.677818
0.677816
0.677815
0.677813
0.677812
0.677811
0.677809
0.677808
0.677806
0.677805
0.677803
0.677802
0.6778
0.677798
0.677797
0.677795
0.677794
0.677792
0.677791
0.677789
0.677788
0.677786
0.677785
0.677783
0.677782
0.67778
0.677778
0.677777
0.677775
0.677774
0.677772
0.67777
0.677769
0.677767
0.677765
0.677764
0.677762
0.67776
0.677759
0.677757
0.677755
0.677754
0.677752
0.67775
0.677748
0.677747
0.677745
0.677743
0.677741
0.677739
0.677738
0.677736
0.677734
0.677732
0.67773
0.677728
0.677727
0.677725
0.677723
0.677721
0.677719
0.677717
0.677715
0.677713
0.677711
0.677709
0.677707
0.677705
0.677703
0.677701
0.677699
0.677697
0.677695
0.677693
0.677691
0.677689
0.677687
0.677685
0.677683
0.677681
0.677679
0.677677
0.677675
0.677673
0.67767
0.677668
0.677666
0.677664
0.677662
0.67766
0.677658
0.677656
0.677653
0.677651
0.677649
0.677647
0.677645
0.677643
0.677641
0.677638
0.677636
0.677634
0.677632
0.67763
0.677627
0.677625
0.677623
0.677621
0.677619
0.677616
0.677614
0.677612
0.67761
0.677608
0.677605
0.677603
0.677601
0.677599
0.677596
0.677594
0.677592
0.67759
0.677587
0.677585
0.677583
0.677581
0.677578
0.677576
0.677574
0.677571
0.677569
0.677567
0.677564
0.677562
0.67756
0.677557
0.677555
0.677553
0.67755
0.677548
0.677545
0.677543
0.677541
0.677538
0.677536
0.677533
0.677531
0.677528
0.677526
0.677523
0.677521
0.677518
0.677516
0.677513
0.677511
0.677508
0.677506
0.677503
0.677501
0.677498
0.677495
0.677493
0.67749
0.677488
0.677485
0.677482
0.67748
0.677477
0.677474
0.677472
0.677469
0.677466
0.677463
0.677461
0.677458
0.677455
0.677452
0.67745
0.677447
0.677444
0.677441
0.677438
0.677436
0.677433
0.67743
0.677427
0.677424
0.677421
0.677418
0.677415
0.677412
0.67741
0.677407
0.677404
0.677401
0.677398
0.677395
0.677392
0.677389
0.677386
0.677383
0.67738
0.677377
0.677374
0.677371
0.677368
0.677365
0.677361
0.677358
0.677355
0.677352
0.677349
0.677346
0.677343
0.67734
0.677336
0.677333
0.67733
0.677327
0.677324
0.67732
0.677317
0.677314
0.677311
0.677307
0.677304
0.677301
0.677297
0.677294
0.677291
0.677287
0.677284
0.677281
0.677277
0.677274
0.67727
0.677267
0.677264
0.67726
0.677257
0.677253
0.67725
0.677246
0.677243
0.677239
0.677235
0.677232
0.677228
0.677225
0.677221
0.677217
0.677214
0.67721
0.677206
0.677203
0.677199
0.677195
0.677192
0.677188
0.677184
0.67718
0.677177
0.677173
0.677169
0.677165
0.677161
0.677158
0.677154
0.67715
0.677146
0.677142
0.677138
0.677134
0.67713
0.677127
0.677123
0.677119
0.677115
0.677111
0.677107
0.677103
0.677099
0.677095
0.677091
0.677087
0.677083
0.677079
0.677075
0.677071
0.677067
0.677063
0.677059
0.677054
0.67705
0.677046
0.677042
0.677038
0.677034
0.67703
0.677026
0.677022
0.677017
0.677013
0.677009
0.677005
0.677001
0.676997
0.676993
0.676988
0.676984
0.67698
0.676976
0.676972
0.676967
0.676963
0.676959
0.676955
0.676951
0.676946
0.676942
0.676938
0.676934
0.676929
0.676925
0.676921
0.676917
0.676912
0.676908
0.676904
0.676899
0.676895
0.676891
0.676886
0.676882
0.676878
0.676873
0.676869
0.676865
0.67686
0.676856
0.676852
0.676847
0.676843
0.676839
0.676834
0.67683
0.676825
0.676821
0.676817
0.676812
0.676808
0.676803
0.676799
0.676794
0.67679
0.676785
0.676781
0.676776
0.676772
0.676768
0.676763
0.676759
0.676754
0.67675
0.676745
0.676741
0.676736
0.676732
0.676727
0.676723
0.676718
0.676714
0.676709
0.676704
0.6767
0.676695
0.676691
0.676686
0.676682
0.676677
0.676673
0.676668
0.676664
0.676659
0.676655
0.67665
0.676645
0.676641
0.676636
0.676632
0.676627
0.676623
0.676618
0.676614
0.676609
0.676604
0.6766
0.676595
0.676591
0.676586
0.676582
0.676577
0.676573
0.676568
0.676563
0.676559
0.676554
0.67655
0.676545
0.676541
0.676536
0.676531
0.676527
0.676522
0.676518
0.676513
0.676509
0.676504
0.676499
0.676495
0.67649
0.676486
0.676481
0.676476
0.676472
0.676467
0.676463
0.676458
0.676453
0.676449
0.676444
0.67644
0.676435
0.67643
0.676426
0.676421
0.676417
0.676412
0.676407
0.676403
0.676398
0.676393
0.676389
0.676384
0.67638
0.676375
0.67637
0.676366
0.676361
0.676356
0.676352
0.676347
0.676342
0.676338
0.676333
0.676328
0.676324
0.676319
0.676315
0.67631
0.676305
0.676301
0.676296
0.676291
0.676287
0.676282
0.676277
0.676273
0.676268
0.676263
0.676259
0.676254
0.67625
0.676245
0.67624
0.676236
0.676231
0.676226
0.676222
0.676217
0.676212
0.676208
0.676203
0.676199
0.676194
0.676189
0.676185
0.67618
0.676175
0.676171
0.676166
0.676162
0.676157
0.676152
0.676148
0.676143
0.676139
0.676134
0.676129
0.676125
0.67612
0.676115
0.676111
0.676106
0.676102
0.676097
0.676092
0.676088
0.676083
0.676079
0.676074
0.676069
0.676065
0.67606
0.676056
0.676051
0.676046
0.676042
0.676037
0.676033
0.676028
0.676023
0.676019
0.676014
0.67601
0.676005
0.676
0.675996
0.675991
0.675986
0.675982
0.675977
0.675973
0.675968
0.675963
0.675959
0.675954
0.67595
0.675945
0.67594
0.675936
0.675931
0.675927
0.675922
0.675917
0.675913
0.675908
0.675904
0.675899
0.675894
0.67589
0.675885
0.675881
0.675876
0.675871
0.675867
0.675862
0.675858
0.675853
0.675848
0.675844
0.675839
0.675835
0.67583
0.675826
0.675821
0.675816
0.675812
0.675807
0.675803
0.675798
0.675794
0.675789
0.675784
0.67578
0.675775
0.675771
0.675766
0.675762
0.675757
0.675753
0.675748
0.675743
0.675739
0.675734
0.67573
0.675725
0.675721
0.675716
0.675712
0.675707
0.675703
0.675698
0.675694
0.675689
0.675684
0.67568
0.675675
0.675671
0.675666
0.675662
0.675657
0.675653
0.675648
0.675644
0.675639
0.675635
0.67563
0.675626
0.675621
0.675616
0.675612
0.675607
0.675603
0.675598
0.675594
0.675589
0.675585
0.67558
0.675576
0.675571
0.675567
0.675562
0.675558
0.675553
0.675549
0.675544
0.675539
0.675535
0.67553
0.675526
0.675521
0.675517
0.675512
0.675508
0.675503
0.675499
0.675494
0.67549
0.675485
0.675481
0.675476
0.675472
0.675467
0.675463
0.675458
0.675454
0.675449
0.675445
0.67544
0.675436
0.675431
0.675427
0.675422
0.675418
0.675413
0.675409
0.675404
0.6754
0.675395
0.675391
0.675386
0.675382
0.675377
0.675373
0.675368
0.675364
0.675359
0.675355
0.675351
0.675346
0.675342
0.675337
0.675333
0.675328
0.675324
0.675319
0.675315
0.67531
0.675306
0.675301
0.675297
0.675292
0.675288
0.675283
0.675279
0.675274
0.67527
0.675265
0.675261
0.675256
0.675252
0.675247
0.675243
0.675238
0.675234
0.67523
0.675225
0.675221
0.675216
0.675212
0.675207
0.675203
0.675198
0.675194
0.675189
0.675185
0.67518
0.675176
0.675171
0.675167
0.675162
0.675158
0.675153
0.675149
0.675144
0.67514
0.675135
0.675131
0.675126
0.675122
0.675117
0.675113
0.675108
0.675104
0.675099
0.675095
0.675091
0.675086
0.675082
0.675077
0.675073
0.675068
0.675064
0.675059
0.675055
0.67505
0.675046
0.675041
0.675037
0.675032
0.675028
0.675023
0.675019
0.675014
)
;

boundaryField
{
    inlet
    {
        type            criticalFlowDepthInlet;
        criticalH       0.38;
        value           uniform 0.857519;
    }
    outlet
    {
        type            zeroGradient;
    }
    right
    {
        type            empty;
    }
    left
    {
        type            empty;
    }
    atmosphere
    {
        type            empty;
    }
    bottomWall
    {
        type            empty;
    }
}


// ************************************************************************* //
