/*--------------------------------*- C++ -*----------------------------------*\
| =========                 |                                                 |
| \\      /  F ield         | foam-extend: Open Source CFD                    |
|  \\    /   O peration     | Version:     3.1                                |
|   \\  /    A nd           | Web:         http://www.extend-project.de       |
|    \\/     M anipulation  |                                                 |
\*---------------------------------------------------------------------------*/
FoamFile
{
    version     2.0;
    format      ascii;
    class       volScalarField;
    location    "32";
    object      nut;
}
// * * * * * * * * * * * * * * * * * * * * * * * * * * * * * * * * * * * * * //

dimensions      [0 2 -1 0 0 0 0];

internalField   nonuniform List<scalar> 
2539
(
0.0351367
0.0351317
0.0351385
0.0351447
0.035151
0.0351573
0.0351637
0.03517
0.0351763
0.0351827
0.035189
0.0351954
0.0352018
0.0352082
0.0352146
0.035221
0.0352274
0.0352338
0.0352403
0.0352467
0.0352532
0.0352596
0.0352661
0.0352726
0.0352791
0.0352856
0.0352921
0.0352986
0.0353052
0.0353117
0.0353183
0.0353248
0.0353314
0.035338
0.0353446
0.0353512
0.0353578
0.0353645
0.0353711
0.0353778
0.0353844
0.0353911
0.0353978
0.0354045
0.0354112
0.0354179
0.0354246
0.0354313
0.0354381
0.0354448
0.0354516
0.0354584
0.0354652
0.035472
0.0354788
0.0354856
0.0354925
0.0354993
0.0355062
0.035513
0.0355199
0.0355268
0.0355337
0.0355406
0.0355476
0.0355545
0.0355615
0.0355684
0.0355754
0.0355824
0.0355894
0.0355964
0.0356034
0.0356105
0.0356175
0.0356246
0.0356316
0.0356387
0.0356458
0.0356529
0.03566
0.0356672
0.0356743
0.0356815
0.0356886
0.0356958
0.035703
0.0357102
0.0357175
0.0357247
0.0357319
0.0357392
0.0357465
0.0357538
0.0357611
0.0357684
0.0357757
0.035783
0.0357904
0.0357977
0.0358051
0.0358125
0.0358199
0.0358273
0.0358348
0.0358422
0.0358497
0.0358572
0.0358646
0.0358722
0.0358797
0.0358872
0.0358947
0.0359023
0.0359099
0.0359175
0.0359251
0.0359327
0.0359403
0.035948
0.0359556
0.0359633
0.035971
0.0359787
0.0359864
0.0359941
0.0360019
0.0360097
0.0360174
0.0360252
0.0360331
0.0360409
0.0360487
0.0360566
0.0360645
0.0360723
0.0360803
0.0360882
0.0360961
0.0361041
0.036112
0.03612
0.036128
0.036136
0.0361441
0.0361521
0.0361602
0.0361683
0.0361764
0.0361845
0.0361926
0.0362008
0.036209
0.0362171
0.0362254
0.0362336
0.0362418
0.0362501
0.0362583
0.0362666
0.0362749
0.0362833
0.0362916
0.0363
0.0363084
0.0363168
0.0363252
0.0363336
0.0363421
0.0363506
0.0363591
0.0363676
0.0363761
0.0363847
0.0363932
0.0364018
0.0364104
0.0364191
0.0364277
0.0364364
0.0364451
0.0364538
0.0364625
0.0364713
0.0364698
0.0243246
0.0243458
0.0243485
0.0243503
0.024352
0.0243538
0.0243555
0.0243573
0.024359
0.0243607
0.0243625
0.0243642
0.024366
0.0243677
0.0243694
0.0243712
0.0243729
0.0243747
0.0243764
0.0243782
0.0243799
0.0243817
0.0243835
0.0243852
0.024387
0.0243887
0.0243905
0.0243922
0.024394
0.0243958
0.0243975
0.0243993
0.0244011
0.0244028
0.0244046
0.0244064
0.0244082
0.0244099
0.0244117
0.0244135
0.0244153
0.024417
0.0244188
0.0244206
0.0244224
0.0244242
0.024426
0.0244278
0.0244295
0.0244313
0.0244331
0.0244349
0.0244367
0.0244385
0.0244403
0.0244421
0.0244439
0.0244457
0.0244475
0.0244493
0.0244511
0.0244529
0.0244547
0.0244565
0.0244583
0.0244602
0.024462
0.0244638
0.0244656
0.0244674
0.0244692
0.0244711
0.0244729
0.0244747
0.0244765
0.0244783
0.0244802
0.024482
0.0244838
0.0244857
0.0244875
0.0244893
0.0244912
0.024493
0.0244948
0.0244967
0.0244985
0.0245004
0.0245022
0.0245041
0.0245059
0.0245077
0.0245096
0.0245114
0.0245133
0.0245152
0.024517
0.0245189
0.0245207
0.0245226
0.0245244
0.0245263
0.0245282
0.02453
0.0245319
0.0245338
0.0245356
0.0245375
0.0245394
0.0245413
0.0245431
0.024545
0.0245469
0.0245488
0.0245507
0.0245525
0.0245544
0.0245563
0.0245582
0.0245601
0.024562
0.0245639
0.0245658
0.0245677
0.0245696
0.0245715
0.0245734
0.0245753
0.0245772
0.0245791
0.024581
0.0245829
0.0245848
0.0245867
0.0245886
0.0245905
0.0245924
0.0245944
0.0245963
0.0245982
0.0246001
0.0246021
0.024604
0.0246059
0.0246078
0.0246098
0.0246117
0.0246136
0.0246156
0.0246175
0.0246194
0.0246214
0.0246233
0.0246253
0.0246272
0.0246292
0.0246311
0.0246331
0.024635
0.024637
0.0246389
0.0246409
0.0246428
0.0246448
0.0246467
0.0246487
0.0246507
0.0246526
0.0246546
0.0246566
0.0246586
0.0246605
0.0246625
0.0246645
0.0246665
0.0246684
0.0246704
0.0246724
0.0246744
0.0246764
0.0246784
0.0246804
0.0246823
0.0246843
0.0246863
0.0246883
0.0246903
0.0246923
0.0246943
0.0246963
0.0246983
0.0247004
0.0247024
0.0247044
0.0247064
0.0247084
0.0247104
0.0247126
0.0247103
0.0248005
0.0167864
0.0171214
0.0174979
0.0177204
0.017845
0.0179231
0.0179775
0.0180192
0.0180536
0.0180834
0.0181102
0.0181349
0.018158
0.0181798
0.0182007
0.0182207
0.01824
0.0182586
0.0182767
0.0182944
0.0183115
0.0183283
0.0183447
0.0183608
0.0183766
0.0183921
0.0184073
0.0184223
0.0184371
0.0184517
0.0184661
0.0184802
0.0184943
0.0185081
0.0185218
0.0185354
0.0185488
0.0185621
0.0185752
0.0185883
0.0186012
0.018614
0.0186268
0.0186394
0.0186519
0.0186644
0.0186768
0.0186891
0.0187013
0.0187134
0.0187255
0.0187375
0.0187495
0.0187614
0.0187732
0.018785
0.0187968
0.0188084
0.0188201
0.0188317
0.0188433
0.0188548
0.0188663
0.0188778
0.0188893
0.0189007
0.0189121
0.0189235
0.0189349
0.0189462
0.0189576
0.0189689
0.0189803
0.0189916
0.019003
0.0190144
0.0190257
0.0190372
0.0190486
0.0190601
0.0190716
0.0190831
0.0190947
0.0191064
0.0191182
0.01913
0.019142
0.019154
0.0191662
0.0191786
0.0191912
0.0192039
0.019217
0.0192304
0.0192442
0.0192587
0.0192741
0.0192908
0.0193094
0.0193308
0.0193938
0.0194342
0.0194711
0.0195051
0.0195368
0.0195664
0.0195942
0.0196205
0.0196455
0.0196692
0.019692
0.0197137
0.0197347
0.0197548
0.0197743
0.0197931
0.0198113
0.0198289
0.0198461
0.0198628
0.019879
0.0198948
0.0199103
0.0199254
0.0199401
0.0199546
0.0199687
0.0199825
0.0199961
0.0200094
0.0200225
0.0200353
0.0200479
0.0200603
0.0200725
0.0200845
0.0200963
0.0201079
0.0201193
0.0201306
0.0201417
0.0201527
0.0201635
0.0201742
0.0201847
0.0201951
0.0202054
0.0202155
0.0202255
0.0202354
0.0202452
0.0202549
0.0202644
0.0202739
0.0202833
0.0202925
0.0203017
0.0203107
0.0203197
0.0203286
0.0203374
0.0203461
0.0203547
0.0203633
0.0203717
0.0203801
0.0203884
0.0203967
0.0204049
0.020413
0.020421
0.0204289
0.0204368
0.0204447
0.0204524
0.0204601
0.0204678
0.0204754
0.0204829
0.0204904
0.0204978
0.0205051
0.0205124
0.0205197
0.0205269
0.020534
0.0205411
0.0205481
0.0205551
0.0205621
0.020569
0.0205758
0.0205826
0.0205894
0.020596
0.0206026
0.0206092
0.0206163
0.0206242
0.0206326
0.020639
0.0206432
0.0206473
0.0206515
0.0206556
0.0206597
0.0206638
0.0206679
0.020672
0.020676
0.0206801
0.0206841
0.0206881
0.0206921
0.020696
0.0207
0.0207039
0.0207079
0.0207118
0.0207157
0.0207196
0.0207234
0.0207273
0.0207311
0.0207349
0.0207388
0.0207425
0.0207463
0.0207501
0.0207539
0.0207576
0.0207613
0.020765
0.0207687
0.0207724
0.0207761
0.0207798
0.0207834
0.020787
0.0207907
0.0207943
0.0207979
0.0208015
0.020805
0.0208086
0.0208122
0.0208157
0.0208192
0.0208227
0.0208262
0.0208297
0.0208332
0.0208367
0.0208401
0.0208436
0.020847
0.0208505
0.0208539
0.0208573
0.0208607
0.020864
0.0208674
0.0208708
0.0208741
0.0208775
0.0208808
0.0208841
0.0208874
0.0208907
0.020894
0.0208973
0.0209005
0.0209038
0.0209071
0.0209103
0.0209135
0.0209167
0.0209199
0.0209231
0.0209263
0.0209295
0.0209327
0.0209359
0.020939
0.0209421
0.0209453
0.0209484
0.0209515
0.0209546
0.0209577
0.0209608
0.0209639
0.020967
0.02097
0.0209731
0.0209761
0.0209792
0.0209822
0.0209852
0.0209882
0.0209913
0.0209942
0.0209972
0.0210002
0.0210032
0.0210062
0.0210091
0.0210121
0.021015
0.0210179
0.0210209
0.0210238
0.0210267
0.0210296
0.0210325
0.0210354
0.0210382
0.0210411
0.021044
0.0210468
0.0210497
0.0210525
0.0210554
0.0210582
0.021061
0.0210638
0.0210666
0.0210694
0.0210722
0.021075
0.0210778
0.0210805
0.0210833
0.0210861
0.0210888
0.0210915
0.0210943
0.021097
0.0210997
0.0211024
0.0211051
0.0211079
0.0211105
0.0211132
0.0211159
0.0211186
0.0211213
0.0211239
0.0211266
0.0211292
0.0211319
0.0211345
0.0211371
0.0211398
0.0211424
0.021145
0.0211476
0.0211502
0.0211528
0.0211554
0.021158
0.0211605
0.0211631
0.0211657
0.0211682
0.0211708
0.0211733
0.0211759
0.0211784
0.0211809
0.0211835
0.021186
0.0211885
0.021191
0.0211935
0.021196
0.0211985
0.021201
0.0212034
0.0212059
0.0212084
0.0212108
0.0212133
0.0212157
0.0212182
0.0212206
0.0212231
0.0212255
0.0212279
0.0212303
0.0212327
0.0212351
0.0212375
0.0212399
0.0212423
0.0212447
0.0212471
0.0212495
0.0212519
0.0212542
0.0212566
0.0212589
0.0212613
0.0212636
0.021266
0.0212683
0.0212706
0.021273
0.0212753
0.0212776
0.0212799
0.0212822
0.0212845
0.0212868
0.0212891
0.0212914
0.0212937
0.021296
0.0212982
0.0213005
0.0213028
0.021305
0.0213073
0.0213095
0.0213118
0.021314
0.0213163
0.0213185
0.0213207
0.0213229
0.0213252
0.0213274
0.0213296
0.0213318
0.021334
0.0213362
0.0213384
0.0213406
0.0213428
0.0213449
0.0213471
0.0213493
0.0213515
0.0213536
0.0213558
0.0213579
0.0213601
0.0213622
0.0213644
0.0213665
0.0213686
0.0213708
0.0213729
0.021375
0.0213771
0.0213792
0.0213813
0.0213834
0.0213855
0.0213876
0.0213897
0.0213918
0.0213939
0.021396
0.0213981
0.0214001
0.0214022
0.0214043
0.0214063
0.0214084
0.0214104
0.0214125
0.0214145
0.0214166
0.0214186
0.0214207
0.0214227
0.0214247
0.0214267
0.0214287
0.0214308
0.0214328
0.0214348
0.0214368
0.0214388
0.0214408
0.0214428
0.0214448
0.0214468
0.0214487
0.0214507
0.0214527
0.0214547
0.0214566
0.0214586
0.0214606
0.0214625
0.0214645
0.0214664
0.0214684
0.0214703
0.0214722
0.0214742
0.0214761
0.021478
0.02148
0.0214819
0.0214838
0.0214857
0.0214876
0.0214895
0.0214915
0.0214934
0.0214953
0.0214971
0.021499
0.0215009
0.0215028
0.0215047
0.0215066
0.0215085
0.0215103
0.0215122
0.0215141
0.0215159
0.0215178
0.0215196
0.0215215
0.0215233
0.0215252
0.021527
0.0215289
0.0215307
0.0215325
0.0215344
0.0215362
0.021538
0.0215398
0.0215417
0.0215435
0.0215453
0.0215471
0.0215489
0.0215507
0.0215525
0.0215543
0.0215562
0.021558
0.0215596
0.0215605
0.021562
0.0215644
0.0215667
0.0215691
0.0215715
0.0215738
0.0215762
0.0215785
0.0215809
0.0215832
0.0215855
0.0215879
0.0215902
0.0215925
0.0215948
0.0215971
0.0215994
0.0216017
0.021604
0.0216063
0.0216086
0.0216109
0.0216131
0.0216154
0.0216177
0.0216199
0.0216222
0.0216244
0.0216267
0.0216289
0.0216312
0.0216334
0.0216356
0.0216379
0.0216401
0.0216423
0.0216445
0.0216467
0.0216489
0.0216511
0.0216533
0.0216555
0.0216577
0.0216599
0.0216621
0.0216643
0.0216664
0.0216686
0.0216708
0.0216729
0.0216751
0.0216772
0.0216794
0.0216815
0.0216837
0.0216858
0.0216879
0.0216901
0.0216922
0.0216943
0.0216964
0.0216985
0.0217006
0.0217027
0.0217048
0.0217069
0.021709
0.0217111
0.0217132
0.0217153
0.0217174
0.0217194
0.0217215
0.0217236
0.0217256
0.0217277
0.0217297
0.0217318
0.0217338
0.0217359
0.0217379
0.0217399
0.021742
0.021744
0.021746
0.0217481
0.0217501
0.0217521
0.0217541
0.0217561
0.0217581
0.0217601
0.0217621
0.0217641
0.0217661
0.0217681
0.02177
0.021772
0.021774
0.021776
0.0217779
0.0217799
0.0217819
0.0217838
0.0217858
0.0217877
0.0217897
0.0217916
0.0217936
0.0217955
0.0217974
0.0217994
0.0218013
0.0218032
0.0218051
0.021807
0.021809
0.0218109
0.0218128
0.0218147
0.0218166
0.0218185
0.0218204
0.0218223
0.0218242
0.021826
0.0218279
0.0218298
0.0218317
0.0218335
0.0218354
0.0218373
0.0218391
0.021841
0.0218428
0.0218447
0.0218466
0.0218484
0.0218502
0.0218521
0.0218539
0.0218558
0.0218576
0.0218594
0.0218612
0.0218631
0.0218649
0.0218667
0.0218685
0.0218703
0.0218721
0.0218739
0.0218757
0.0218775
0.0218793
0.0218811
0.0218829
0.0218847
0.0218865
0.0218882
0.02189
0.0218918
0.0218936
0.0218953
0.0218971
0.0218989
0.0219006
0.0219024
0.0219041
0.0219059
0.0219076
0.0219094
0.0219112
0.0219129
0.0219145
0.0219158
0.0219171
0.0219203
0.0219276
0.0266345
0.0266247
0.0266185
0.0266197
0.0266203
0.0266208
0.0266216
0.0266225
0.0266231
0.0266231
0.026623
0.0266231
0.0266233
0.0266232
0.0266228
0.0266224
0.0266218
0.0266212
0.0266205
0.0266194
0.0266183
0.0266171
0.0266157
0.0266145
0.0266131
0.0266115
0.0266097
0.0266076
0.0266055
0.0266035
0.0266013
0.0265988
0.0265962
0.0265933
0.0265906
0.0265876
0.0265845
0.0265816
0.0265783
0.0265747
0.0265712
0.0265678
0.0265638
0.0265597
0.0265556
0.0265513
0.0265469
0.0265425
0.0265379
0.0265331
0.0265282
0.0265233
0.0265183
0.0265131
0.0265075
0.0265018
0.0264961
0.0264902
0.0264842
0.0264783
0.0264722
0.0264658
0.0264591
0.0264522
0.0264453
0.0264383
0.0264315
0.0264243
0.026417
0.0264093
0.0264015
0.0263937
0.0263856
0.0263773
0.026369
0.0263604
0.0263518
0.0263432
0.0263345
0.0263253
0.0263158
0.0263059
0.0262959
0.0262859
0.0262759
0.0262663
0.0262576
0.0262488
0.0262383
0.0262243
0.026206
0.0261859
0.0261721
0.0261763
0.0262037
0.0262405
0.0262435
0.0261529
0.025936
0.0256524
0.0255142
0.0213225
0.0219821
0.0219838
0.0219854
0.0219871
0.0219888
0.0219904
0.0219921
0.0219937
0.0219954
0.021997
0.0219987
0.0220003
0.022002
0.0220036
0.0220053
0.0220069
0.0220085
0.0220102
0.0220118
0.0220134
0.022015
0.0220166
0.0220183
0.0220199
0.0220215
0.0220231
0.0220247
0.0220263
0.0220279
0.0220295
0.0220311
0.0220327
0.0220343
0.0220359
0.0220375
0.0220391
0.0220406
0.0220422
0.0220438
0.0220454
0.022047
0.0220485
0.0220501
0.0220517
0.0220532
0.0220548
0.0220563
0.0220579
0.0220595
0.022061
0.0220626
0.0220641
0.0220656
0.0220672
0.0220687
0.0220703
0.0220718
0.0220733
0.0220749
0.0220764
0.0220779
0.0220795
0.022081
0.0220825
0.022084
0.0220855
0.022087
0.0220885
0.0220901
0.0220916
0.0220931
0.0220946
0.0220961
0.0220976
0.0220991
0.0221006
0.022102
0.0221035
0.022105
0.0221065
0.022108
0.0221095
0.022111
0.0221124
0.0221137
0.0221151
0.0221173
0.0221208
0.0221228
0.0221227
0.0221227
0.0221226
0.0221225
0.0221224
0.0221223
0.0221222
0.0221222
0.0221221
0.022122
0.0221219
0.0221218
0.0221217
0.0221216
0.0221216
0.0221215
0.0221214
0.0221213
0.0221212
0.0221211
0.0221211
0.022121
0.0221209
0.0221208
0.0221207
0.0221206
0.0221206
0.0221205
0.0221204
0.0221203
0.0221202
0.0221201
0.0221201
0.02212
0.0221199
0.0221198
0.0221197
0.0221197
0.0221196
0.0221195
0.0221194
0.0221193
0.0221192
0.0221192
0.0221191
0.022119
0.0221189
0.0221188
0.0221187
0.0221187
0.0221186
0.0221185
0.0221184
0.0221183
0.0221183
0.0221182
0.0221181
0.022118
0.0221179
0.0221178
0.0221178
0.0221177
0.0221176
0.0221175
0.0221174
0.0221174
0.0221173
0.0221172
0.0221171
0.022117
0.0221169
0.0221169
0.0221168
0.0221167
0.0221166
0.0221165
0.0221165
0.0221164
0.0221163
0.0221162
0.0221161
0.0221161
0.022116
0.0221159
0.0221158
0.0221157
0.0221157
0.0221156
0.0221155
0.0221154
0.0221153
0.0221153
0.0221152
0.0221151
0.022115
0.0221149
0.0221149
0.0221148
0.0221147
0.0221146
0.0221145
0.0221145
0.0221144
0.0221143
0.0221142
0.0221141
0.0221141
0.022114
0.0221139
0.0221138
0.0221137
0.0221137
0.0221136
0.0221135
0.0221134
0.0221133
0.0221133
0.0221132
0.0221131
0.022113
0.022113
0.0221129
0.0221128
0.0221127
0.0221126
0.0221126
0.0221125
0.0221124
0.0221123
0.0221122
0.0221122
0.0221121
0.022112
0.0221119
0.0221119
0.0221118
0.0221117
0.0221116
0.0221115
0.0221115
0.0221114
0.0221113
0.0221112
0.0221112
0.0221111
0.022111
0.0221109
0.0221108
0.0221108
0.0221107
0.0221106
0.0221105
0.0221105
0.0221104
0.0221103
0.0221102
0.0221101
0.0221101
0.02211
0.0221099
0.0221098
0.0221098
0.0221097
0.0221096
0.0221095
0.0221095
0.0221094
0.0221093
0.0221092
0.0221091
0.0221091
0.022109
0.0221089
0.0221088
0.0221088
0.0221087
0.0221086
0.0221085
0.0221085
0.0221084
0.0221083
0.0221082
0.0221082
0.0221081
0.022108
0.0221079
0.0221078
0.0221078
0.0221077
0.0221076
0.0221075
0.0221075
0.0221074
0.0221073
0.0221072
0.0221072
0.0221071
0.022107
0.0221069
0.0221069
0.0221068
0.0221067
0.0221066
0.0221066
0.0221065
0.0221064
0.0221063
0.0221063
0.0221062
0.0221061
0.022106
0.022106
0.0221059
0.0221058
0.0221057
0.0221057
0.0221056
0.0221055
0.0221054
0.0221054
0.0221053
0.0221052
0.0221051
0.0221051
0.022105
0.0221049
0.0221048
0.0221048
0.0221047
0.0221046
0.0221045
0.0221045
0.0221045
0.0221045
0.0221043
0.0221033
0.0221016
0.0221029
0.0221142
0.0221338
0.022121
0.0219879
0.0217378
0.0218555
0.0234445
0.026138
0.0254782
0.0199171
0.0169552
0.0167722
0.0167718
0.0167704
0.0167689
0.0167675
0.016766
0.0167646
0.0167631
0.0167617
0.0167602
0.0167588
0.0167573
0.0167559
0.0167545
0.016753
0.0167516
0.0167501
0.0167487
0.0167472
0.0167458
0.0167444
0.0167429
0.0167415
0.0167401
0.0167386
0.0167372
0.0167357
0.0167343
0.0167329
0.0167314
0.01673
0.0167286
0.0167271
0.0167257
0.0167243
0.0167229
0.0167214
0.01672
0.0167186
0.0167172
0.0167157
0.0167143
0.0167129
0.0167115
0.0167101
0.0167086
0.0167072
0.0167058
0.0167044
0.016703
0.0167014
0.0166985
0.0166964
0.0166962
0.0166961
0.0166959
0.0166957
0.0166956
0.0166954
0.0166952
0.0166951
0.0166949
0.0166948
0.0166946
0.0166944
0.0166943
0.0166941
0.0166939
0.0166938
0.0166936
0.0166934
0.0166933
0.0166931
0.016693
0.0166928
0.0166926
0.0166925
0.0166923
0.0166921
0.016692
0.0166918
0.0166916
0.0166915
0.0166913
0.0166912
0.016691
0.0166908
0.0166907
0.0166905
0.0166903
0.0166902
0.01669
0.0166898
0.0166896
0.0166895
0.0166893
0.0166891
0.016689
0.0166888
0.0166886
0.0166885
0.0166883
0.0166881
0.0166879
0.0166878
0.0166876
0.0166874
0.0166872
0.0166871
0.0166869
0.0166867
0.0166865
0.0166863
0.0166862
0.016686
0.0166858
0.0166856
0.0166854
0.0166853
0.0166851
0.0166849
0.0166847
0.0166845
0.0166844
0.0166842
0.016684
0.0166838
0.0166836
0.0166834
0.0166833
0.0166831
0.0166829
0.0166827
0.0166825
0.0166823
0.0166821
0.016682
0.0166818
0.0166816
0.0166814
0.0166812
0.016681
0.0166808
0.0166807
0.0166805
0.0166803
0.0166801
0.0166799
0.0166797
0.0166795
0.0166794
0.0166792
0.016679
0.0166788
0.0166786
0.0166784
0.0166782
0.0166781
0.0166779
0.0166777
0.0166775
0.0166773
0.0166771
0.016677
0.0166768
0.0166766
0.0166764
0.0166762
0.016676
0.0166758
0.0166757
0.0166755
0.0166753
0.0166751
0.0166749
0.0166747
0.0166745
0.0166744
0.0166742
0.016674
0.0166738
0.0166736
0.0166734
0.0166732
0.016673
0.0166729
0.0166727
0.0166725
0.0166723
0.0166721
0.0166719
0.0166717
0.0166715
0.0166713
0.0166712
0.016671
0.0166708
0.0166706
0.0166704
0.0166702
0.01667
0.0166698
0.0166696
0.0166694
0.0166693
0.0166691
0.0166689
0.0166687
0.0166685
0.0166683
0.0166681
0.0166679
0.0166677
0.0166675
0.0166674
0.0166672
0.016667
0.0166668
0.0166666
0.0166664
0.0166662
0.016666
0.0166658
0.0166657
0.0166655
0.0166653
0.0166651
0.0166649
0.0166647
0.0166646
0.0166644
0.0166642
0.016664
0.0166638
0.0166637
0.0166635
0.0166633
0.0166631
0.016663
0.0166628
0.0166626
0.0166625
0.0166623
0.0166621
0.016662
0.0166618
0.0166616
0.0166615
0.0166613
0.0166611
0.016661
0.0166608
0.0166607
0.0166605
0.0166603
0.0166602
0.01666
0.0166599
0.0166597
0.0166596
0.0166594
0.0166593
0.0166592
0.016659
0.0166589
0.0166587
0.0166586
0.0166584
0.0166583
0.0166582
0.016658
0.0166579
0.0166577
0.0166576
0.0166575
0.0166573
0.0166572
0.0166571
0.016657
0.0166568
0.0166567
0.0166566
0.0166564
0.0166563
0.0166562
0.0166561
0.0166559
0.0166558
0.0166557
0.0166556
0.0166554
0.0166553
0.0166552
0.0166551
0.016655
0.0166548
0.0166547
0.0166546
0.0166545
0.0166544
0.0166543
0.0166541
0.016654
0.0166539
0.0166538
0.0166537
0.0166536
0.0166535
0.0166533
0.0166532
0.0166531
0.016653
0.0166529
0.0166528
0.0166527
0.0166526
0.0166525
0.0166524
0.0166523
0.0166521
0.016652
0.0166519
0.0166518
0.0166517
0.0166516
0.0166515
0.0166514
0.0166513
0.0166512
0.0166511
0.016651
0.0166509
0.0166508
0.0166507
0.0166506
0.0166505
0.0166504
0.0166503
0.0166502
0.0166501
0.01665
0.01665
0.0166499
0.0166498
0.0166497
0.0166496
0.0166495
0.0166494
0.0166493
0.0166492
0.0166491
0.016649
0.0166489
0.0166489
0.0166488
0.0166487
0.0166486
0.0166485
0.0166484
0.0166483
0.0166482
0.0166482
0.0166481
0.016648
0.0166479
0.0166478
0.0166477
0.0166476
0.0166476
0.0166475
0.0166474
0.0166473
0.0166472
0.0166471
0.016647
0.0166469
0.0166469
0.0166468
0.0166467
0.0166466
0.0166465
0.0166464
0.0166463
0.0166462
0.0166462
0.0166461
0.016646
0.0166459
0.0166458
0.0166457
0.0166456
0.0166455
0.0166454
0.0166453
0.0166452
0.0166451
0.0166451
0.016645
0.0166449
0.0166448
0.0166447
0.0166446
0.0166445
0.0166444
0.0166443
0.0166442
0.0166441
0.016644
0.0166439
0.0166438
0.0166437
0.0166436
0.0166435
0.0166434
0.0166433
0.0166432
0.0166431
0.016643
0.0166429
0.0166428
0.0166427
0.0166426
0.0166425
0.0166424
0.0166423
0.0166422
0.0166421
0.016642
0.0166419
0.0166418
0.0166417
0.0166415
0.0166414
0.0166413
0.0166412
0.0166411
0.016641
0.0166409
0.0166408
0.0166407
0.0166406
0.0166405
0.0166404
0.0166403
0.0166402
0.0166401
0.0166399
0.0166398
0.0166397
0.0166396
0.0166395
0.0166394
0.0166393
0.0166392
0.0166391
0.016639
0.0166389
0.0166387
0.0166386
0.0166385
0.0166384
0.0166383
0.0166382
0.0166381
0.016638
0.0166379
0.0166377
0.0166376
0.0166375
0.0166374
0.0166373
0.0166372
0.0166371
0.0166369
0.0166368
0.0166367
0.0166366
0.0166365
0.0166364
0.0166362
0.0166361
0.016636
0.0166359
0.0166358
0.0166356
0.0166355
0.0166354
0.0166353
0.0166351
0.016635
0.0166349
0.0166348
0.0166346
0.0166345
0.0166344
0.0166343
0.0166341
0.016634
0.0166339
0.0166338
0.0166336
0.0166335
0.0166334
0.0166332
0.0166331
0.016633
0.0166328
0.0166327
0.0166326
0.0166324
0.0166323
0.0166322
0.016632
0.0166319
0.0166318
0.0166316
0.0166315
0.0166313
0.0166312
0.0166311
0.0166309
0.0166308
0.0166307
0.0166305
0.0166304
0.0166302
0.0166301
0.01663
0.0166298
0.0166297
0.0166295
0.0166294
0.0166293
0.0166291
0.016629
0.0166288
0.0166287
0.0166285
0.0166284
0.0166283
0.0166281
0.016628
0.0166278
0.0166277
0.0166275
0.0166274
0.0166273
0.0166271
0.016627
0.0166268
0.0166267
0.0166265
0.0166264
0.0166262
0.0166261
0.016626
0.0166258
0.0166257
0.0166255
0.0166254
0.0166252
0.0166251
0.0166249
0.0166248
0.0166246
0.0166245
0.0166243
0.0166242
0.016624
0.0166239
0.0166237
0.0166236
0.0166234
0.0166233
0.0166231
0.016623
0.0166228
0.0166227
0.0166225
0.0166224
0.0166222
0.016622
0.0166219
0.0166217
0.0166216
0.0166214
0.0166213
0.0166211
0.0166209
0.0166208
0.0166206
0.0166205
0.0166203
0.0166202
0.01662
0.0166198
0.0166197
0.0166195
0.0166193
0.0166192
0.016619
0.0166189
0.0166187
0.0166185
0.0166184
0.0166182
0.016618
0.0166179
0.0166177
0.0166176
0.0166174
0.0166172
0.0166171
0.0166169
0.0166167
0.0166166
0.0166164
0.0166162
0.0166161
0.0166159
0.0166157
0.0166156
0.0166154
0.0166153
0.0166151
0.0166149
0.0166148
0.0166146
0.0166144
0.0166143
0.0166141
0.0166139
0.0166138
0.0166136
0.0166134
0.0166133
0.0166131
0.0166129
0.0166128
0.0166126
0.0166124
0.0166123
0.0166121
0.0166119
0.0166118
0.0166116
0.0166114
0.0166113
0.0166111
0.016611
0.0166108
0.0166106
0.0166105
0.0166103
0.0166101
0.01661
0.0166098
0.0166096
0.0166095
0.0166093
0.0166091
0.016609
0.0166088
0.0166086
0.0166085
0.0166083
0.0166081
0.016608
0.0166078
0.0166076
0.0166075
0.0166073
0.0166071
0.016607
0.0166068
0.0166066
0.0166065
0.0166063
0.0166061
0.016606
0.0166058
0.0166056
0.0166054
0.0166053
0.0166051
0.0166049
0.0166048
0.0166046
0.0166044
0.0166043
0.0166041
0.0166039
0.0166038
0.0166036
0.0166034
0.0166032
0.0166031
0.0166029
0.0166027
0.0166026
0.0166024
0.0166022
0.0166021
0.0166019
0.0166017
0.0166016
0.0166014
0.0166012
0.0166011
0.0166009
0.0166007
0.0166005
0.0166004
0.0166002
0.0166
0.0165999
0.0165997
0.0165995
0.0165994
0.0165992
0.016599
0.0165989
0.0165987
0.0165985
0.0165984
0.0165982
0.016598
0.0165979
0.0165977
0.0165975
0.0165974
0.0165972
0.016597
0.0165969
0.0165967
0.0165966
0.0165964
0.0165962
0.0165961
0.0165959
0.0165957
0.0165956
0.0165954
0.0165952
0.0165951
0.0165949
0.0165947
0.0165946
0.0165944
0.0165943
0.0165941
0.0165939
0.0165938
0.0165936
0.0165934
0.0165933
0.0165931
0.0165929
0.0165928
0.0165926
0.0165925
0.0165923
0.0165921
0.016592
0.0165918
0.0165916
0.0165915
0.0165913
0.0165912
0.016591
0.0165908
0.0165907
0.0165905
0.0165903
0.0165902
0.01659
0.0165898
0.0165897
0.0165895
0.0165894
0.0165892
0.016589
0.0165889
0.0165887
0.0165885
0.0165884
0.0165882
0.0165881
0.0165879
0.0165877
0.0165876
0.0165874
0.0165873
0.0165871
0.0165869
0.0165868
0.0165866
0.0165864
0.0165863
0.0165861
0.016586
0.0165858
0.0165856
0.0165855
0.0165853
0.0165852
0.016585
0.0165849
0.0165847
0.0165845
0.0165844
0.0165842
0.0165841
0.0165839
0.0165837
0.0165836
0.0165834
0.0165833
0.0165831
0.016583
0.0165828
0.0165826
0.0165825
0.0165823
0.0165822
0.016582
0.0165819
0.0165817
0.0165816
0.0165814
0.0165812
0.0165811
0.0165809
0.0165808
0.0165806
0.0165805
0.0165803
0.0165801
0.01658
0.0165798
0.0165797
0.0165795
0.0165794
0.0165792
0.0165791
0.0165789
0.0165788
0.0165786
0.0165784
0.0165783
0.0165781
0.016578
0.0165778
0.0165777
0.0165775
0.0165774
0.0165772
0.016577
0.0165769
0.0165767
0.0165766
0.0165764
0.0165763
0.0165761
0.016576
0.0165758
0.0165757
0.0165755
0.0165753
0.0165752
0.016575
0.0165749
0.0165747
0.0165746
0.0165744
0.0165743
0.0165741
0.016574
0.0165738
0.0165737
0.0165735
0.0165733
0.0165732
0.016573
0.0165729
0.0165727
0.0165726
0.0165724
0.0165723
0.0165721
0.016572
0.0165718
0.0165717
0.0165715
0.0165714
0.0165712
0.0165711
0.0165709
0.0165708
0.0165706
0.0165705
0.0165703
0.0165702
0.01657
0.0165699
0.0165697
0.0165696
0.0165694
0.0165693
0.0165691
0.016569
0.0165688
0.0165687
0.0165685
0.0165684
0.0165682
0.0165681
0.0165679
0.0165678
0.0165676
0.0165675
0.0165673
0.0165672
0.016567
0.0165669
0.0165667
0.0165666
0.0165664
0.0165663
0.0165661
0.016566
0.0165658
0.0165657
0.0165656
0.0165654
0.0165653
0.0165651
0.016565
0.0165648
0.0165647
0.0165645
0.0165644
0.0165642
0.0165641
0.0165639
0.0165638
0.0165636
0.0165635
0.0165633
0.0165632
0.016563
0.0165629
0.0165627
0.0165626
0.0165624
0.0165623
0.0165622
0.016562
0.0165619
0.0165617
0.0165616
0.0165614
0.0165613
0.0165611
0.016561
0.0165608
0.0165607
0.0165605
0.0165604
0.0165603
0.0165601
0.01656
0.0165598
0.0165597
0.0165595
0.0165594
0.0165592
0.0165591
0.016559
0.0165588
0.0165587
0.0165585
0.0165584
0.0165582
0.0165581
)
;

boundaryField
{
    inlet
    {
        type            zeroGradient;
    }
    outlet
    {
        type            zeroGradient;
    }
    right
    {
        type            empty;
    }
    left
    {
        type            empty;
    }
    atmosphere
    {
        type            empty;
    }
    bottomWall
    {
        type            empty;
    }
}


// ************************************************************************* //
