/*--------------------------------*- C++ -*----------------------------------*\
| =========                 |                                                 |
| \\      /  F ield         | foam-extend: Open Source CFD                    |
|  \\    /   O peration     | Version:     3.1                                |
|   \\  /    A nd           | Web:         http://www.extend-project.de       |
|    \\/     M anipulation  |                                                 |
\*---------------------------------------------------------------------------*/
FoamFile
{
    version     2.0;
    format      ascii;
    class       surfaceScalarField;
    location    "32";
    object      phi;
}
// * * * * * * * * * * * * * * * * * * * * * * * * * * * * * * * * * * * * * //

dimensions      [0 3 -1 0 0 0 0];

internalField   nonuniform List<scalar> 
2538
(
0.0728846
0.0729444
0.0730238
0.0731026
0.0731816
0.0732608
0.0733402
0.0734197
0.0734995
0.0735794
0.0736596
0.0737399
0.0738204
0.0739012
0.0739821
0.0740632
0.0741445
0.0742261
0.0743078
0.0743897
0.0744718
0.0745542
0.0746367
0.0747194
0.0748024
0.0748855
0.0749689
0.0750524
0.0751362
0.0752202
0.0753044
0.0753888
0.0754734
0.0755582
0.0756433
0.0757285
0.075814
0.0758997
0.0759856
0.0760717
0.0761581
0.0762446
0.0763314
0.0764184
0.0765057
0.0765931
0.0766808
0.0767687
0.0768569
0.0769453
0.0770339
0.0771227
0.0772118
0.0773011
0.0773906
0.0774803
0.0775703
0.0776606
0.0777511
0.0778418
0.0779327
0.0780239
0.0781154
0.0782071
0.078299
0.0783912
0.0784836
0.0785763
0.0786692
0.0787624
0.0788558
0.0789495
0.0790434
0.0791376
0.079232
0.0793267
0.0794217
0.0795169
0.0796124
0.0797081
0.0798041
0.0799004
0.0799969
0.0800937
0.0801908
0.0802882
0.0803858
0.0804837
0.0805819
0.0806803
0.080779
0.080878
0.0809773
0.0810769
0.0811767
0.0812768
0.0813772
0.0814779
0.0815789
0.0816802
0.0817818
0.0818836
0.0819858
0.0820883
0.082191
0.0822941
0.0823974
0.0825011
0.082605
0.0827093
0.0828138
0.0829187
0.0830239
0.0831294
0.0832352
0.0833413
0.0834478
0.0835545
0.0836616
0.083769
0.0838768
0.0839848
0.0840932
0.0842019
0.0843109
0.0844203
0.08453
0.08464
0.0847504
0.0848611
0.0849722
0.0850836
0.0851953
0.0853074
0.0854199
0.0855327
0.0856458
0.0857593
0.0858732
0.0859874
0.086102
0.0862169
0.0863322
0.0864479
0.0865639
0.0866804
0.0867971
0.0869143
0.0870319
0.0871498
0.0872681
0.0873868
0.0875058
0.0876253
0.0877452
0.0878654
0.0879861
0.0881071
0.0882286
0.0883504
0.0884727
0.0885953
0.0887184
0.0888419
0.0889658
0.0890901
0.0892149
0.0893401
0.0894656
0.0895917
0.0897181
0.089845
0.0899723
0.0901001
0.0902283
0.090357
0.0904861
0.0906156
0.0907457
0.0908761
0.0910071
0.0911384
0.0912703
0.0914026
0.0915662
0.0917482
0.091856
0.0918988
0.0919383
0.0919777
0.092017
0.0920565
0.0920959
0.0921354
0.092175
0.0922146
0.0922542
0.0922939
0.0923336
0.0923734
0.0924132
0.092453
0.0924929
0.0925329
0.0925728
0.0926129
0.0926529
0.092693
0.0927332
0.0927734
0.0928136
0.0928539
0.0928942
0.0929346
0.092975
0.0930154
0.0930559
0.0930965
0.0931371
0.0931777
0.0932184
0.0932591
0.0932999
0.0933407
0.0933815
0.0934224
0.0934634
0.0935044
0.0935454
0.0935865
0.0936276
0.0936688
0.09371
0.0937513
0.0937926
0.093834
0.0938754
0.0939168
0.0939583
0.0939998
0.0940414
0.0940831
0.0941247
0.0941665
0.0942083
0.0942501
0.0942919
0.0943339
0.0943758
0.0944178
0.0944599
0.094502
0.0945441
0.0945863
0.0946286
0.0946709
0.0947132
0.0947556
0.0947981
0.0948405
0.0948831
0.0949257
0.0949683
0.095011
0.0950537
0.0950965
0.0951393
0.0951822
0.0952251
0.0952681
0.0953111
0.0953542
0.0953973
0.0954405
0.0954837
0.095527
0.0955703
0.0956137
0.0956571
0.0957006
0.0957441
0.0957877
0.0958314
0.095875
0.0959188
0.0959625
0.0960064
0.0960503
0.0960942
0.0961382
0.0961822
0.0962263
0.0962705
0.0963147
0.0963589
0.0964032
0.0964476
0.096492
0.0965364
0.0965809
0.0966255
0.0966701
0.0967148
0.0967595
0.0968043
0.0968491
0.096894
0.0969389
0.0969839
0.097029
0.0970741
0.0971192
0.0971644
0.0972097
0.097255
0.0973004
0.0973458
0.0973913
0.0974368
0.0974824
0.097528
0.0975737
0.0976195
0.0976653
0.0977112
0.0977571
0.0978031
0.0978491
0.0978952
0.0979414
0.0979876
0.0980339
0.0980802
0.0981266
0.098173
0.0982195
0.098266
0.0983126
0.0983593
0.098406
0.0984528
0.0984997
0.0985466
0.0985935
0.0986405
0.0986876
0.0987347
0.0987819
0.0988292
0.0988765
0.0989239
0.0989713
0.0990188
0.0990663
0.099114
0.0991616
0.0992094
0.0992572
0.099305
0.0993529
0.0994009
0.0994489
0.099497
0.0995452
0.0995934
0.0996417
0.09969
0.0997384
0.0997869
0.0998354
0.099884
0.0999327
0.0999814
0.10003
0.100079
0.100128
0.100177
0.100226
0.100275
0.100324
0.100373
0.100423
0.100471
0.10054
0.100208
0.10444
0.109114
0.114831
0.118449
0.120858
0.122638
0.124073
0.125306
0.126411
0.12743
0.128387
0.129298
0.130172
0.131015
0.131833
0.132629
0.133406
0.134166
0.134912
0.135644
0.136363
0.137072
0.137771
0.138461
0.139142
0.139816
0.140482
0.141142
0.141796
0.142445
0.143088
0.143726
0.144359
0.144989
0.145614
0.146236
0.146854
0.14747
0.148082
0.148691
0.149298
0.149903
0.150505
0.151106
0.151704
0.152301
0.152897
0.153491
0.154083
0.154675
0.155265
0.155855
0.156444
0.157032
0.15762
0.158208
0.158795
0.159382
0.159969
0.160557
0.161144
0.161733
0.162321
0.162911
0.163501
0.164092
0.164685
0.165279
0.165875
0.166472
0.167072
0.167674
0.168278
0.168885
0.169496
0.17011
0.170728
0.171351
0.171978
0.172612
0.173251
0.173898
0.174554
0.175219
0.175895
0.176584
0.177288
0.17801
0.178754
0.179525
0.180328
0.181172
0.182065
0.183021
0.184053
0.185181
0.186424
0.187801
0.18933
0.191016
0.195535
0.197523
0.199388
0.201146
0.202814
0.204403
0.205921
0.207378
0.20878
0.210132
0.21144
0.212706
0.213935
0.215131
0.216294
0.217428
0.218536
0.219618
0.220676
0.221712
0.222728
0.223724
0.224702
0.225663
0.226607
0.227535
0.228449
0.229348
0.230234
0.231107
0.231968
0.232817
0.233655
0.234482
0.235299
0.236106
0.236903
0.237691
0.23847
0.23924
0.240002
0.240756
0.241503
0.242241
0.242973
0.243697
0.244415
0.245126
0.24583
0.246529
0.247221
0.247907
0.248587
0.249262
0.249931
0.250595
0.251254
0.251908
0.252557
0.2532
0.25384
0.254474
0.255104
0.25573
0.256351
0.256968
0.257581
0.25819
0.258795
0.259396
0.259994
0.260587
0.261177
0.261763
0.262346
0.262926
0.263502
0.264074
0.264644
0.26521
0.265773
0.266333
0.266889
0.267443
0.267994
0.268542
0.269087
0.26963
0.270169
0.270706
0.27124
0.271772
0.2723
0.272827
0.273352
0.273878
0.274405
0.274924
0.275413
0.275837
0.276194
0.276526
0.276857
0.277187
0.277516
0.277844
0.278171
0.278497
0.278822
0.279146
0.279469
0.279791
0.280112
0.280432
0.280751
0.28107
0.281387
0.281704
0.282019
0.282334
0.282648
0.282961
0.283273
0.283584
0.283895
0.284204
0.284513
0.284821
0.285128
0.285434
0.28574
0.286044
0.286348
0.286651
0.286953
0.287255
0.287555
0.287855
0.288154
0.288453
0.28875
0.289047
0.289343
0.289639
0.289933
0.290227
0.29052
0.290813
0.291105
0.291396
0.291686
0.291976
0.292264
0.292553
0.29284
0.293127
0.293413
0.293699
0.293984
0.294268
0.294551
0.294834
0.295116
0.295398
0.295679
0.295959
0.296238
0.296517
0.296796
0.297073
0.29735
0.297627
0.297903
0.298178
0.298453
0.298727
0.299
0.299273
0.299545
0.299817
0.300088
0.300358
0.300628
0.300898
0.301166
0.301434
0.301702
0.301969
0.302236
0.302501
0.302767
0.303032
0.303296
0.30356
0.303823
0.304085
0.304347
0.304609
0.30487
0.30513
0.30539
0.30565
0.305909
0.306167
0.306425
0.306682
0.306939
0.307196
0.307452
0.307707
0.307962
0.308216
0.30847
0.308723
0.308976
0.309228
0.30948
0.309732
0.309983
0.310233
0.310483
0.310733
0.310982
0.31123
0.311478
0.311726
0.311973
0.31222
0.312466
0.312712
0.312957
0.313202
0.313446
0.31369
0.313934
0.314177
0.31442
0.314662
0.314904
0.315145
0.315386
0.315626
0.315866
0.316106
0.316345
0.316584
0.316822
0.31706
0.317298
0.317535
0.317771
0.318008
0.318243
0.318479
0.318714
0.318948
0.319183
0.319416
0.31965
0.319883
0.320115
0.320347
0.320579
0.320811
0.321042
0.321272
0.321502
0.321732
0.321962
0.322191
0.32242
0.322648
0.322876
0.323103
0.32333
0.323557
0.323784
0.32401
0.324235
0.324461
0.324686
0.32491
0.325134
0.325358
0.325582
0.325805
0.326027
0.32625
0.326472
0.326693
0.326915
0.327136
0.327356
0.327577
0.327796
0.328016
0.328235
0.328454
0.328673
0.328891
0.329109
0.329326
0.329543
0.32976
0.329977
0.330193
0.330408
0.330624
0.330839
0.331054
0.331268
0.331482
0.331696
0.33191
0.332123
0.332336
0.332548
0.33276
0.332972
0.333184
0.333395
0.333606
0.333817
0.334027
0.334237
0.334446
0.334656
0.334865
0.335073
0.335282
0.33549
0.335698
0.335905
0.336112
0.336319
0.336526
0.336732
0.336938
0.337143
0.337349
0.337554
0.337759
0.337963
0.338167
0.338371
0.338575
0.338778
0.338981
0.339183
0.339386
0.339588
0.33979
0.339991
0.340193
0.340393
0.340594
0.340794
0.340995
0.341194
0.341394
0.341593
0.341792
0.341991
0.342189
0.342387
0.342585
0.342783
0.34298
0.343177
0.343374
0.34357
0.343766
0.343962
0.344158
0.344353
0.344548
0.344743
0.344938
0.345132
0.345326
0.34552
0.345713
0.345907
0.3461
0.346292
0.346485
0.346677
0.346869
0.347061
0.347252
0.347443
0.347634
0.347825
0.348015
0.348205
0.348395
0.348585
0.348774
0.348963
0.349152
0.34934
0.349529
0.349717
0.349905
0.350092
0.35028
0.350467
0.350654
0.35084
0.351027
0.351213
0.351399
0.351584
0.35177
0.351955
0.35214
0.352324
0.352509
0.352693
0.352877
0.353061
0.353244
0.353427
0.35361
0.353793
0.353976
0.354158
0.35434
0.354522
0.354703
0.354885
0.355066
0.355247
0.355427
0.355608
0.355788
0.355968
0.356147
0.356327
0.356506
0.356685
0.356864
0.357043
0.357221
0.3574
0.357578
0.357753
0.357925
0.358099
0.358293
0.358516
0.358751
0.358986
0.35922
0.359455
0.359689
0.359922
0.360156
0.360388
0.360621
0.360853
0.361085
0.361317
0.361548
0.361779
0.362009
0.362239
0.362469
0.362699
0.362928
0.363157
0.363385
0.363614
0.363841
0.364069
0.364296
0.364523
0.36475
0.364976
0.365202
0.365427
0.365653
0.365878
0.366102
0.366327
0.366551
0.366774
0.366998
0.367221
0.367443
0.367666
0.367888
0.36811
0.368331
0.368552
0.368773
0.368994
0.369214
0.369434
0.369654
0.369873
0.370092
0.370311
0.370529
0.370747
0.370965
0.371183
0.3714
0.371617
0.371833
0.37205
0.372266
0.372482
0.372697
0.372912
0.373127
0.373342
0.373556
0.37377
0.373984
0.374197
0.37441
0.374623
0.374836
0.375048
0.37526
0.375472
0.375683
0.375894
0.376105
0.376316
0.376526
0.376736
0.376946
0.377155
0.377364
0.377573
0.377782
0.37799
0.378198
0.378406
0.378613
0.378821
0.379028
0.379234
0.379441
0.379647
0.379853
0.380058
0.380264
0.380469
0.380674
0.380878
0.381082
0.381287
0.38149
0.381694
0.381897
0.3821
0.382303
0.382505
0.382707
0.382909
0.383111
0.383312
0.383513
0.383714
0.383915
0.384115
0.384315
0.384515
0.384715
0.384914
0.385113
0.385312
0.385511
0.385709
0.385907
0.386105
0.386302
0.3865
0.386697
0.386894
0.38709
0.387287
0.387483
0.387679
0.387874
0.38807
0.388265
0.388459
0.388654
0.388848
0.389043
0.389236
0.38943
0.389624
0.389817
0.39001
0.390202
0.390395
0.390587
0.390779
0.390971
0.391162
0.391353
0.391544
0.391735
0.391926
0.392116
0.392306
0.392496
0.392686
0.392875
0.393064
0.393253
0.393442
0.39363
0.393818
0.394007
0.394195
0.394382
0.394568
0.394752
0.394938
0.395136
0.395358
0.395572
0.395643
0.39544
0.395299
0.395274
0.395329
0.395372
0.395414
0.395449
0.395467
0.395466
0.395454
0.395439
0.395419
0.395385
0.395334
0.395273
0.395202
0.39512
0.395027
0.394921
0.394803
0.394676
0.39454
0.394397
0.394244
0.394075
0.393891
0.393696
0.39349
0.393278
0.393053
0.392814
0.392561
0.392298
0.392028
0.391748
0.391459
0.391159
0.390847
0.390519
0.390182
0.389836
0.389473
0.389096
0.38871
0.388315
0.387909
0.387495
0.387068
0.386629
0.38618
0.385722
0.385252
0.384766
0.384265
0.383753
0.383233
0.382702
0.382161
0.381612
0.381049
0.380469
0.379873
0.379267
0.378653
0.378032
0.377402
0.376758
0.376097
0.375421
0.374733
0.374034
0.373323
0.372599
0.371866
0.371121
0.370365
0.369598
0.368816
0.368014
0.367193
0.366358
0.365518
0.364674
0.363828
0.362977
0.362114
0.361211
0.36024
0.359201
0.358151
0.357213
0.356532
0.356134
0.355735
0.354664
0.352131
0.347973
0.343599
0.342383
0.348691
0.364717
0.383835
0.402276
0.402458
0.402641
0.402823
0.403005
0.403187
0.403368
0.403549
0.40373
0.403911
0.404092
0.404272
0.404453
0.404633
0.404812
0.404992
0.405171
0.40535
0.405529
0.405708
0.405887
0.406065
0.406243
0.406421
0.406599
0.406776
0.406954
0.407131
0.407307
0.407484
0.407661
0.407837
0.408013
0.408189
0.408364
0.40854
0.408715
0.40889
0.409065
0.40924
0.409414
0.409588
0.409762
0.409936
0.41011
0.410283
0.410456
0.410629
0.410802
0.410975
0.411147
0.411319
0.411491
0.411663
0.411835
0.412006
0.412178
0.412349
0.41252
0.41269
0.412861
0.413031
0.413201
0.413371
0.413541
0.41371
0.413879
0.414049
0.414217
0.414386
0.414555
0.414723
0.414891
0.415059
0.415227
0.415395
0.415562
0.415729
0.415896
0.416063
0.41623
0.416396
0.416561
0.416727
0.416898
0.417077
0.417246
0.417353
0.417378
0.417369
0.417359
0.41735
0.41734
0.417331
0.417321
0.417312
0.417302
0.417293
0.417283
0.417274
0.417264
0.417255
0.417245
0.417236
0.417226
0.417217
0.417208
0.417198
0.417189
0.417179
0.41717
0.41716
0.417151
0.417142
0.417132
0.417123
0.417113
0.417104
0.417095
0.417085
0.417076
0.417066
0.417057
0.417048
0.417038
0.417029
0.41702
0.41701
0.417001
0.416992
0.416982
0.416973
0.416964
0.416954
0.416945
0.416936
0.416927
0.416917
0.416908
0.416899
0.41689
0.41688
0.416871
0.416862
0.416853
0.416843
0.416834
0.416825
0.416816
0.416806
0.416797
0.416788
0.416779
0.41677
0.41676
0.416751
0.416742
0.416733
0.416724
0.416715
0.416705
0.416696
0.416687
0.416678
0.416669
0.41666
0.416651
0.416642
0.416632
0.416623
0.416614
0.416605
0.416596
0.416587
0.416578
0.416569
0.41656
0.416551
0.416542
0.416533
0.416524
0.416514
0.416505
0.416496
0.416487
0.416478
0.416469
0.41646
0.416451
0.416442
0.416433
0.416424
0.416415
0.416406
0.416397
0.416388
0.41638
0.416371
0.416362
0.416353
0.416344
0.416335
0.416326
0.416317
0.416308
0.416299
0.41629
0.416281
0.416272
0.416264
0.416255
0.416246
0.416237
0.416228
0.416219
0.41621
0.416201
0.416193
0.416184
0.416175
0.416166
0.416157
0.416148
0.41614
0.416131
0.416122
0.416113
0.416104
0.416096
0.416087
0.416078
0.416069
0.41606
0.416052
0.416043
0.416034
0.416025
0.416017
0.416008
0.415999
0.41599
0.415982
0.415973
0.415964
0.415956
0.415947
0.415938
0.41593
0.415921
0.415912
0.415903
0.415895
0.415886
0.415877
0.415869
0.41586
0.415852
0.415843
0.415834
0.415826
0.415817
0.415808
0.4158
0.415791
0.415783
0.415774
0.415765
0.415757
0.415748
0.41574
0.415731
0.415722
0.415714
0.415705
0.415697
0.415688
0.41568
0.415671
0.415663
0.415654
0.415646
0.415637
0.415628
0.41562
0.415611
0.415603
0.415594
0.415586
0.415577
0.415569
0.415561
0.415552
0.415544
0.415535
0.415527
0.415518
0.41551
0.415501
0.415493
0.415484
0.415476
0.415468
0.415459
0.415451
0.415442
0.415434
0.415426
0.415417
0.415409
0.4154
0.415392
0.415384
0.415375
0.415367
0.415359
0.41535
0.415342
0.415334
0.415325
0.415317
0.41531
0.4153
0.415286
0.415268
0.415273
0.415341
0.415446
0.415306
0.414398
0.412958
0.414277
0.425151
0.444068
0.430477
0.3295
0.189307
0.109877
0.0924661
0.0915796
0.0915419
0.0914991
0.0914565
0.0914139
0.0913713
0.0913288
0.0912863
0.0912439
0.0912015
0.0911592
0.0911169
0.0910747
0.0910325
0.0909903
0.0909482
0.0909061
0.0908641
0.0908221
0.0907802
0.0907383
0.0906964
0.0906546
0.0906128
0.0905711
0.0905294
0.0904878
0.0904462
0.0904047
0.0903632
0.0903217
0.0902803
0.0902389
0.0901976
0.0901563
0.0901151
0.0900739
0.0900328
0.0899917
0.0899506
0.0899096
0.0898686
0.0898277
0.0897868
0.089746
0.0897052
0.0896644
0.0896237
0.0895831
0.0895423
0.0895024
0.089474
0.0894649
0.0894645
0.0894639
0.0894633
0.0894627
0.089462
0.0894614
0.0894608
0.0894602
0.0894596
0.089459
0.0894583
0.0894577
0.0894571
0.0894565
0.0894559
0.0894553
0.0894547
0.0894541
0.0894534
0.0894528
0.0894522
0.0894516
0.089451
0.0894504
0.0894497
0.0894491
0.0894485
0.0894479
0.0894473
0.0894466
0.089446
0.0894454
0.0894447
0.0894441
0.0894435
0.0894428
0.0894422
0.0894416
0.0894409
0.0894403
0.0894396
0.089439
0.0894383
0.0894377
0.089437
0.0894363
0.0894357
0.089435
0.0894343
0.0894336
0.089433
0.0894323
0.0894316
0.0894309
0.0894302
0.0894295
0.0894288
0.0894281
0.0894274
0.0894267
0.089426
0.0894253
0.0894246
0.0894239
0.0894232
0.0894224
0.0894217
0.089421
0.0894202
0.0894195
0.0894188
0.089418
0.0894173
0.0894165
0.0894158
0.0894151
0.0894143
0.0894135
0.0894128
0.089412
0.0894113
0.0894105
0.0894098
0.089409
0.0894082
0.0894075
0.0894067
0.0894059
0.0894052
0.0894044
0.0894036
0.0894028
0.0894021
0.0894013
0.0894005
0.0893997
0.0893989
0.0893981
0.0893974
0.0893966
0.0893958
0.089395
0.0893942
0.0893934
0.0893926
0.0893918
0.089391
0.0893902
0.0893894
0.0893886
0.0893878
0.089387
0.0893862
0.0893854
0.0893846
0.0893838
0.089383
0.0893822
0.0893814
0.0893806
0.0893797
0.0893789
0.0893781
0.0893773
0.0893764
0.0893756
0.0893748
0.089374
0.0893731
0.0893723
0.0893715
0.0893706
0.0893698
0.0893689
0.0893681
0.0893672
0.0893664
0.0893655
0.0893647
0.0893638
0.089363
0.0893621
0.0893613
0.0893604
0.0893596
0.0893587
0.0893578
0.089357
0.0893561
0.0893553
0.0893544
0.0893535
0.0893527
0.0893518
0.0893509
0.0893501
0.0893492
0.0893484
0.0893475
0.0893466
0.0893458
0.0893449
0.0893441
0.0893432
0.0893424
0.0893415
0.0893407
0.0893398
0.089339
0.0893382
0.0893373
0.0893365
0.0893357
0.0893349
0.089334
0.0893332
0.0893324
0.0893316
0.0893308
0.08933
0.0893292
0.0893284
0.0893277
0.0893269
0.0893261
0.0893253
0.0893246
0.0893238
0.0893231
0.0893223
0.0893216
0.0893209
0.0893202
0.0893195
0.0893187
0.089318
0.0893173
0.0893167
0.089316
0.0893153
0.0893146
0.089314
0.0893133
0.0893127
0.089312
0.0893114
0.0893108
0.0893101
0.0893095
0.0893089
0.0893083
0.0893077
0.0893071
0.0893065
0.089306
0.0893054
0.0893048
0.0893043
0.0893037
0.0893032
0.0893026
0.0893021
0.0893016
0.0893011
0.0893005
0.0893
0.0892995
0.089299
0.0892985
0.089298
0.0892975
0.0892971
0.0892966
0.0892961
0.0892957
0.0892952
0.0892947
0.0892943
0.0892938
0.0892934
0.0892929
0.0892925
0.0892921
0.0892917
0.0892912
0.0892908
0.0892904
0.08929
0.0892896
0.0892892
0.0892888
0.0892884
0.089288
0.0892876
0.0892872
0.0892868
0.0892865
0.0892861
0.0892857
0.0892854
0.089285
0.0892846
0.0892843
0.0892839
0.0892836
0.0892832
0.0892829
0.0892826
0.0892822
0.0892819
0.0892816
0.0892813
0.0892809
0.0892806
0.0892803
0.08928
0.0892797
0.0892794
0.0892791
0.0892788
0.0892785
0.0892782
0.089278
0.0892777
0.0892774
0.0892771
0.0892769
0.0892766
0.0892763
0.0892761
0.0892758
0.0892756
0.0892753
0.0892751
0.0892748
0.0892746
0.0892743
0.0892741
0.0892739
0.0892736
0.0892734
0.0892732
0.0892729
0.0892727
0.0892725
0.0892723
0.089272
0.0892718
0.0892716
0.0892714
0.0892712
0.089271
0.0892708
0.0892705
0.0892703
0.0892701
0.0892699
0.0892697
0.0892695
0.0892693
0.0892691
0.0892689
0.0892687
0.0892685
0.0892682
0.089268
0.0892678
0.0892676
0.0892674
0.0892672
0.089267
0.0892668
0.0892666
0.0892664
0.0892661
0.0892659
0.0892657
0.0892655
0.0892653
0.0892651
0.0892649
0.0892646
0.0892644
0.0892642
0.089264
0.0892637
0.0892635
0.0892633
0.0892631
0.0892628
0.0892626
0.0892624
0.0892622
0.0892619
0.0892617
0.0892615
0.0892612
0.089261
0.0892608
0.0892605
0.0892603
0.08926
0.0892598
0.0892596
0.0892593
0.0892591
0.0892589
0.0892586
0.0892584
0.0892581
0.0892579
0.0892576
0.0892574
0.0892572
0.0892569
0.0892567
0.0892564
0.0892562
0.089256
0.0892557
0.0892555
0.0892552
0.089255
0.0892547
0.0892545
0.0892543
0.089254
0.0892538
0.0892535
0.0892533
0.0892531
0.0892528
0.0892526
0.0892523
0.0892521
0.0892519
0.0892516
0.0892514
0.0892511
0.0892509
0.0892507
0.0892504
0.0892502
0.0892499
0.0892497
0.0892495
0.0892492
0.089249
0.0892487
0.0892485
0.0892483
0.089248
0.0892478
0.0892475
0.0892473
0.089247
0.0892468
0.0892465
0.0892463
0.089246
0.0892458
0.0892455
0.0892453
0.089245
0.0892448
0.0892445
0.0892443
0.089244
0.0892438
0.0892435
0.0892433
0.089243
0.0892427
0.0892425
0.0892422
0.0892419
0.0892417
0.0892414
0.0892411
0.0892409
0.0892406
0.0892403
0.08924
0.0892398
0.0892395
0.0892392
0.0892389
0.0892386
0.0892383
0.0892381
0.0892378
0.0892375
0.0892372
0.0892369
0.0892366
0.0892363
0.089236
0.0892357
0.0892354
0.0892351
0.0892348
0.0892345
0.0892342
0.0892339
0.0892336
0.0892333
0.089233
0.0892327
0.0892324
0.0892321
0.0892318
0.0892315
0.0892312
0.0892309
0.0892306
0.0892303
0.08923
0.0892297
0.0892294
0.089229
0.0892287
0.0892284
0.0892281
0.0892278
0.0892275
0.0892272
0.0892269
0.0892265
0.0892262
0.0892259
0.0892256
0.0892253
0.089225
0.0892247
0.0892243
0.089224
0.0892237
0.0892234
0.0892231
0.0892228
0.0892224
0.0892221
0.0892218
0.0892215
0.0892212
0.0892208
0.0892205
0.0892202
0.0892199
0.0892195
0.0892192
0.0892189
0.0892185
0.0892182
0.0892179
0.0892175
0.0892172
0.0892169
0.0892165
0.0892162
0.0892159
0.0892155
0.0892152
0.0892148
0.0892145
0.0892141
0.0892138
0.0892134
0.0892131
0.0892127
0.0892124
0.089212
0.0892117
0.0892113
0.0892109
0.0892106
0.0892102
0.0892099
0.0892095
0.0892091
0.0892088
0.0892084
0.089208
0.0892076
0.0892073
0.0892069
0.0892065
0.0892061
0.0892058
0.0892054
0.089205
0.0892046
0.0892042
0.0892039
0.0892035
0.0892031
0.0892027
0.0892023
0.0892019
0.0892016
0.0892012
0.0892008
0.0892004
0.0892
0.0891996
0.0891992
0.0891989
0.0891985
0.0891981
0.0891977
0.0891973
0.0891969
0.0891965
0.0891961
0.0891958
0.0891954
0.089195
0.0891946
0.0891942
0.0891938
0.0891934
0.089193
0.0891927
0.0891923
0.0891919
0.0891915
0.0891911
0.0891907
0.0891903
0.0891899
0.0891896
0.0891892
0.0891888
0.0891884
0.089188
0.0891876
0.0891872
0.0891869
0.0891865
0.0891861
0.0891857
0.0891853
0.0891849
0.0891845
0.0891842
0.0891838
0.0891834
0.089183
0.0891826
0.0891822
0.0891818
0.0891814
0.0891811
0.0891807
0.0891803
0.0891799
0.0891795
0.0891791
0.0891787
0.0891783
0.0891779
0.0891775
0.0891771
0.0891767
0.0891763
0.089176
0.0891756
0.0891752
0.0891748
0.0891744
0.089174
0.0891736
0.0891732
0.0891728
0.0891724
0.089172
0.0891716
0.0891712
0.0891708
0.0891704
0.08917
0.0891696
0.0891692
0.0891688
0.0891684
0.089168
0.0891676
0.0891672
0.0891668
0.0891664
0.089166
0.0891656
0.0891652
0.0891648
0.0891644
0.089164
0.0891636
0.0891632
0.0891628
0.0891624
0.089162
0.0891617
0.0891613
0.0891609
0.0891605
0.0891601
0.0891597
0.0891593
0.0891589
0.0891585
0.0891582
0.0891578
0.0891574
0.089157
0.0891566
0.0891562
0.0891559
0.0891555
0.0891551
0.0891547
0.0891543
0.089154
0.0891536
0.0891532
0.0891528
0.0891525
0.0891521
0.0891517
0.0891513
0.089151
0.0891506
0.0891502
0.0891498
0.0891495
0.0891491
0.0891487
0.0891483
0.089148
0.0891476
0.0891472
0.0891469
0.0891465
0.0891461
0.0891457
0.0891454
0.089145
0.0891446
0.0891443
0.0891439
0.0891435
0.0891431
0.0891428
0.0891424
0.089142
0.0891417
0.0891413
0.0891409
0.0891405
0.0891402
0.0891398
0.0891394
0.0891391
0.0891387
0.0891383
0.089138
0.0891376
0.0891372
0.0891369
0.0891365
0.0891361
0.0891357
0.0891354
0.089135
0.0891347
0.0891343
0.0891339
0.0891336
0.0891332
0.0891328
0.0891325
0.0891321
0.0891317
0.0891314
0.089131
0.0891307
0.0891303
0.08913
0.0891296
0.0891292
0.0891289
0.0891285
0.0891282
0.0891278
0.0891275
0.0891271
0.0891268
0.0891264
0.0891261
0.0891257
0.0891254
0.089125
0.0891247
0.0891243
0.089124
0.0891237
0.0891233
0.089123
0.0891226
0.0891223
0.0891219
0.0891216
0.0891213
0.0891209
0.0891206
0.0891202
0.0891199
0.0891196
0.0891192
0.0891189
0.0891185
0.0891182
0.0891179
0.0891175
0.0891172
0.0891169
0.0891165
0.0891162
0.0891159
0.0891155
0.0891152
0.0891148
0.0891145
0.0891142
0.0891138
0.0891135
0.0891132
0.0891128
0.0891125
0.0891122
0.0891118
0.0891115
0.0891111
0.0891108
0.0891105
0.0891101
0.0891098
0.0891095
0.0891091
0.0891088
0.0891085
0.0891081
0.0891078
0.0891075
0.0891071
0.0891068
0.0891065
0.0891061
0.0891058
0.0891055
0.0891051
0.0891048
0.0891045
0.0891042
0.0891038
0.0891035
0.0891032
0.0891028
0.0891025
0.0891022
0.0891019
0.0891015
0.0891012
0.0891009
0.0891006
0.0891003
0.0890999
0.0890996
0.0890993
0.089099
0.0890987
0.0890983
0.089098
0.0890977
0.0890974
0.0890971
0.0890968
0.0890964
0.0890961
0.0890958
0.0890955
0.0890952
0.0890949
0.0890946
0.0890943
0.0890939
0.0890936
0.0890933
0.089093
0.0890927
0.0890924
0.0890921
0.0890918
0.0890915
0.0890911
0.0890908
0.0890905
0.0890902
0.0890899
0.0890896
0.0890893
0.089089
0.0890887
0.0890884
0.0890881
0.0890878
0.0890875
0.0890872
0.0890868
0.0890865
0.0890862
0.0890859
0.0890856
0.0890853
0.089085
0.0890847
0.0890844
0.0890841
0.0890838
0.0890835
0.0890832
0.0890829
0.0890826
0.0890823
0.089082
0.0890817
0.0890814
0.0890811
0.0890808
0.0890805
0.0890802
0.0890799
0.0890796
0.0890793
0.089079
0.0890787
0.0890784
0.0890781
0.0890778
0.0890775
0.0890772
0.0890769
0.0890766
0.0890763
0.0890761
0.0890758
0.0890755
0.0890752
0.0890749
0.0890746
0.0890743
0.089074
0.0890738
0.0890735
0.0890732
0.0890729
0.0890726
0.0890723
0.0890721
0.0890718
0.0890715
0.0890712
)
;

boundaryField
{
    inlet
    {
        type            calculated;
        value           uniform -0.0728846;
    }
    outlet
    {
        type            calculated;
        value           uniform 0.089071;
    }
    right
    {
        type            empty;
    }
    left
    {
        type            empty;
    }
    atmosphere
    {
        type            empty;
    }
    bottomWall
    {
        type            empty;
    }
}


// ************************************************************************* //
