/*--------------------------------*- C++ -*----------------------------------*\
| =========                 |                                                 |
| \\      /  F ield         | foam-extend: Open Source CFD                    |
|  \\    /   O peration     | Version:     3.1                                |
|   \\  /    A nd           | Web:         http://www.extend-project.de       |
|    \\/     M anipulation  |                                                 |
\*---------------------------------------------------------------------------*/
FoamFile
{
    version     2.0;
    format      ascii;
    class       volScalarField;
    location    "0.5";
    object      k;
}
// * * * * * * * * * * * * * * * * * * * * * * * * * * * * * * * * * * * * * //

dimensions      [0 2 -2 0 0 0 0];

internalField   nonuniform List<scalar> 
119952
(
0.02217807
0.01792352
0.02043411
0.0237277
0.02517487
0.02495943
0.02494876
0.02493592
0.02488314
0.02478305
0.02464073
0.02446332
0.02425675
0.02402595
0.02377637
0.02351497
0.02325047
0.02299232
0.02276747
0.02270508
0.02571828
0.0247607
0.02475438
0.02794958
0.02715469
0.02678654
0.0264419
0.02602312
0.02450503
0.0240362
0.02363682
0.01912938
0.02133852
0.02432622
0.02679081
0.02874216
0.03037507
0.03181066
0.0331156
0.0347305
0.04265826
0.05109567
0.05768469
0.06261444
0.06638022
0.06942469
0.0720343
0.07437241
0.07648425
0.09126797
0.09354335
0.09623614
0.09911824
0.1019261
0.1045268
0.1068888
0.1090271
0.110971
0.1126802
0.1141599
0.1158468
0.1178392
0.1199908
0.1221153
0.1240995
0.125913
0.1275913
0.1291799
0.1294657
0.1295669
0.1302715
0.1313092
0.1323356
0.1331715
0.1338549
0.1343963
0.1348023
0.1351048
0.1353136
0.1354347
0.1354735
0.135438
0.1353398
0.1351965
0.1350308
0.1348734
0.1347747
0.13482
0.135011
0.135245
0.1356808
0.1363546
0.1367701
0.1368013
0.1365227
0.1357042
0.1337598
0.1315623
0.1305149
0.1295663
0.1287142
0.1279931
0.1273895
0.1268715
0.1264113
0.1259943
0.1256178
0.125285
0.1249971
0.1247497
0.1245328
0.1243362
0.1241517
0.1239736
0.1237983
0.1236239
0.1234494
0.1232742
0.1230988
0.1229246
0.1227516
0.1225794
0.1224078
0.1222364
0.1220651
0.1218936
0.1217217
0.1215492
0.121376
0.121202
0.1210271
0.1208513
0.1206745
0.1204967
0.1203177
0.1201377
0.1199565
0.1197742
0.1195907
0.119406
0.1192203
0.1190336
0.118846
0.118658
0.1184711
0.1182891
0.1181142
0.1178406
0.1170459
0.1159419
0.1148019
0.1137516
0.1128258
0.1120189
0.1113122
0.1106862
0.1101228
0.1096068
0.1091264
0.1086728
0.1082409
0.1078319
0.1074506
0.1071012
0.1067842
0.1064966
0.106233
0.1059875
0.1057544
0.1055295
0.1053093
0.1050917
0.1048751
0.1046585
0.1044415
0.1042237
0.1040048
0.1037846
0.1035632
0.1033403
0.1031161
0.1028904
0.1026632
0.1024346
0.1022044
0.1019726
0.1017391
0.1015041
0.1012673
0.1010288
0.1007888
0.1005475
0.1003046
0.1000603
0.09981558
0.09957465
0.09928856
0.09086277
0.08310742
0.08000838
0.07794006
0.0764161
0.07523458
0.07427049
0.07344914
0.07272708
0.07207835
0.07148553
0.07093575
0.07041974
0.0699308
0.0694663
0.06903
0.06862489
0.06824917
0.06789857
0.06756616
0.06724543
0.06693122
0.06661997
0.06630921
0.06599885
0.06568825
0.06537749
0.06506653
0.06475581
0.06444578
0.0641376
0.06383399
0.06353852
0.06326517
0.06305972
0.06324522
0.06401681
0.06472788
0.06533575
0.0658658
0.06634384
0.06678898
0.06721231
0.06762008
0.06801636
0.06840319
0.06878174
0.06915179
0.06951287
0.06986434
0.07020593
0.07053809
0.070862
0.07117926
0.07149156
0.07180034
0.07210669
0.07241129
0.0727145
0.07301644
0.07331719
0.07361654
0.07391471
0.07421117
0.07450599
0.07479912
0.07509054
0.07538032
0.07566972
0.07595465
0.08874009
0.08937199
0.09048955
0.09210426
0.09392203
0.09567671
0.09724135
0.09858954
0.09974033
0.1007261
0.1015785
0.1023248
0.1029865
0.10358
0.104117
0.1046057
0.1050512
0.1054576
0.1058286
0.1061681
0.1064804
0.1067698
0.1070407
0.1072969
0.1075418
0.1077782
0.1080082
0.1082334
0.108455
0.1086736
0.1088899
0.1091041
0.1093165
0.1095273
0.1097364
0.1099439
0.1101498
0.1103539
0.1105562
0.1107564
0.110954
0.1111483
0.111338
0.1115195
0.111686
0.1118223
0.1119309
0.1120326
0.1121331
0.1122344
0.1123368
0.1124406
0.1125464
0.1126383
0.1125294
0.1125385
0.1129653
0.113793
0.1148302
0.1158856
0.1168496
0.1176856
0.1183969
0.1190023
0.119523
0.1199781
0.1203824
0.1207462
0.1210757
0.1213738
0.1216419
0.1218812
0.1220936
0.1222819
0.1224498
0.1226011
0.1227397
0.1228687
0.1229908
0.1231081
0.123222
0.1233335
0.1234434
0.1235521
0.1236598
0.1237668
0.1238731
0.1239789
0.1240842
0.1241889
0.1242932
0.1243971
0.1245005
0.1246035
0.1247061
0.1248083
0.1249101
0.1250115
0.1251126
0.1252134
0.1253138
0.1254139
0.1255137
0.1256134
0.1257128
0.125812
0.1259111
0.12601
0.1261088
0.1262075
0.1263062
0.1264048
0.1265035
0.1266023
0.1267013
0.1268004
0.1268999
0.1269997
0.1270999
0.1272007
0.1273023
0.1274048
0.1275085
0.1276136
0.1277205
0.1278296
0.1279415
0.128057
0.1281772
0.1283036
0.1284386
0.1285863
0.1287537
0.1289542
0.1292157
0.1296016
0.1302577
0.1314036
0.1317948
0.0195606
0.01997911
0.02305235
0.02583002
0.02799795
0.02975809
0.03127828
0.0326433
0.03396071
0.03828381
0.04767164
0.05527569
0.06096398
0.06520678
0.06853188
0.0713095
0.0737556
0.07598358
0.09071745
0.0928197
0.09538028
0.09827138
0.1011908
0.103937
0.1064405
0.1087036
0.1107548
0.1126176
0.1141723
0.1157362
0.1175978
0.1197074
0.121875
0.1239432
0.125834
0.1275286
0.129043
0.1299025
0.1306327
0.131766
0.1332125
0.1348445
0.1365321
0.1381843
0.1397534
0.1412215
0.1425751
0.1437758
0.1449149
0.1461292
0.1474752
0.1489228
0.1504089
0.1518783
0.1532921
0.1545636
0.166756
0.1678199
0.1688526
0.1699205
0.1710456
0.1722183
0.1734147
0.1746094
0.1757798
0.1769005
0.1779575
0.1789731
0.1799862
0.1810242
0.1820908
0.1831727
0.1842486
0.1852883
0.186228
0.18696
0.187537
0.1880423
0.1884925
0.1888883
0.1892445
0.1895781
0.1898946
0.1901899
0.190453
0.1906724
0.190845
0.1909696
0.1910417
0.1910644
0.1910467
0.1910038
0.190957
0.1909327
0.1909508
0.1910078
0.1911094
0.1912697
0.191435
0.191511
0.1914598
0.1912175
0.1907425
0.1901009
0.1895466
0.1890818
0.1886378
0.1881864
0.1877237
0.1872559
0.1867922
0.186343
0.1859192
0.185531
0.1851859
0.1848871
0.1846329
0.1844178
0.1842346
0.1840757
0.1839344
0.1838049
0.183683
0.1835657
0.1834511
0.1833381
0.1832263
0.1831153
0.1830048
0.1828946
0.1827846
0.1826747
0.1825648
0.1824546
0.1823442
0.1822335
0.1821223
0.1820106
0.1818984
0.1817856
0.1816722
0.1815582
0.1814435
0.181328
0.1812119
0.181095
0.1809775
0.1808593
0.1807407
0.1806218
0.1805032
0.180386
0.1802725
0.1801687
0.1800801
0.1799642
0.1797746
0.179502
0.1791601
0.1787699
0.1783512
0.1779192
0.177485
0.1770557
0.1766363
0.1762304
0.1758414
0.1754734
0.1751312
0.1748191
0.17454
0.174294
0.1740788
0.1738902
0.1737233
0.1735728
0.1734346
0.1733045
0.1731797
0.1730581
0.1729382
0.1728191
0.1727001
0.1725809
0.1724613
0.1723411
0.1722205
0.1720992
0.1719772
0.1718544
0.171731
0.1716068
0.1714818
0.1713561
0.1712296
0.1711025
0.1709746
0.1708462
0.1707172
0.1705877
0.1704577
0.1703266
0.1701922
0.1700519
0.1618634
0.1594248
0.1586996
0.1581065
0.1574552
0.1567659
0.1560741
0.1554036
0.1547671
0.1541703
0.1536152
0.153102
0.1526307
0.1522016
0.1518159
0.1514753
0.1511803
0.1509282
0.1507135
0.1505289
0.1503665
0.1502196
0.1500822
0.1499516
0.1498248
0.1497004
0.1495779
0.149457
0.1493383
0.1492226
0.1491116
0.1490086
0.1489202
0.148861
0.1488617
0.1489624
0.149146
0.1493812
0.149644
0.1499177
0.1501921
0.150462
0.150725
0.1509806
0.1512286
0.1514688
0.1517009
0.1519237
0.1521362
0.1523376
0.1525275
0.1527064
0.1528755
0.1530363
0.1531907
0.1533403
0.1534865
0.1536304
0.1537725
0.1539133
0.154053
0.1541916
0.1543292
0.1544656
0.1546008
0.1547348
0.1548677
0.1549998
0.1551288
0.1552029
0.1661496
0.1663408
0.1664815
0.1666674
0.1669509
0.1673427
0.1678251
0.1683695
0.1689476
0.1695362
0.1701178
0.1706804
0.1712156
0.1717177
0.172183
0.1726089
0.1729944
0.1733397
0.1736467
0.1739185
0.1741592
0.1743733
0.1745656
0.1747405
0.1749019
0.1750532
0.1751968
0.1753349
0.1754688
0.1755996
0.175728
0.1758546
0.1759795
0.176103
0.1762251
0.176346
0.1764655
0.1765836
0.1767001
0.1768148
0.1769272
0.1770366
0.1771418
0.1772411
0.1773317
0.1774117
0.1774832
0.1775491
0.1776116
0.177672
0.1777311
0.1777888
0.1778427
0.1778838
0.1778978
0.1778957
0.177916
0.1780003
0.1781712
0.1784273
0.178751
0.1791196
0.1795121
0.1799119
0.1803073
0.1806901
0.1810545
0.1813962
0.1817118
0.1819988
0.1822555
0.182482
0.1826796
0.1828509
0.1829994
0.183129
0.1832436
0.1833466
0.1834411
0.1835294
0.1836134
0.1836943
0.1837731
0.1838503
0.1839265
0.1840018
0.1840764
0.1841505
0.1842241
0.1842972
0.1843699
0.1844422
0.1845141
0.1845857
0.1846569
0.1847278
0.1847983
0.1848686
0.1849385
0.1850082
0.1850776
0.1851468
0.1852158
0.1852846
0.1853533
0.1854218
0.1854901
0.1855584
0.1856266
0.1856948
0.1857629
0.1858311
0.1858994
0.1859677
0.1860363
0.1861051
0.1861744
0.186244
0.1863143
0.1863853
0.1864572
0.1865303
0.1866047
0.1866809
0.1867593
0.1868403
0.1869247
0.1870133
0.1871075
0.187209
0.1873207
0.1874466
0.1875935
0.1877725
0.1880017
0.1883076
0.1887136
0.1891807
0.1895127
0.0213055
0.01807216
0.02122079
0.02445554
0.02692673
0.02887489
0.03052388
0.03198121
0.0333061
0.03498991
0.04408583
0.05319759
0.05990091
0.06470873
0.06832734
0.07126443
0.07380676
0.07610324
0.07818005
0.09339641
0.09583398
0.09868456
0.1016454
0.1044461
0.1069867
0.1092661
0.1113183
0.1131827
0.1148187
0.1162638
0.1179729
0.1200032
0.1221643
0.1242592
0.1261796
0.1278977
0.129441
0.1308182
0.1312502
0.1321909
0.1335103
0.1350784
0.1367484
0.1384079
0.1399941
0.1414818
0.142864
0.1441109
0.1452365
0.1463857
0.1476594
0.1490582
0.1505246
0.1519962
0.1534275
0.154746
0.1670761
0.1681529
0.169167
0.1701999
0.1712913
0.1724424
0.1736327
0.1748359
0.1760277
0.1771851
0.1782838
0.1793279
0.1803519
0.1813915
0.182462
0.1835568
0.1846567
0.1857376
0.186778
0.1877522
0.1886533
0.1895067
0.1903499
0.1912116
0.1921023
0.1930177
0.1939452
0.19487
0.195776
0.1966484
0.1974878
0.1983125
0.1991469
0.2000084
0.2009027
0.2018279
0.2027892
0.2038576
0.2049026
0.2058977
0.2068561
0.2077974
0.208738
0.2096861
0.2106423
0.2116017
0.2125566
0.2134964
0.2144122
0.2153042
0.216182
0.217059
0.2179454
0.2188463
0.2197606
0.2206794
0.2215688
0.2223553
0.2230397
0.2236444
0.2241783
0.2246461
0.2250607
0.2254369
0.2257835
0.2261026
0.2263904
0.2266391
0.2268398
0.2269821
0.2270688
0.2271085
0.2271075
0.227079
0.2270413
0.227015
0.2270141
0.2270353
0.227083
0.2271579
0.2272306
0.2272537
0.227185
0.226964
0.2265709
0.2260528
0.2255542
0.2251099
0.2246933
0.2242809
0.2238603
0.2234284
0.2229908
0.2225576
0.2221402
0.2217506
0.2213985
0.2210893
0.2208237
0.2205983
0.2204073
0.2202437
0.2201006
0.2199721
0.2198533
0.2197406
0.2196317
0.219525
0.2194197
0.2193153
0.2192115
0.2191082
0.2190051
0.2189022
0.2187995
0.2186967
0.2185938
0.2184909
0.2183876
0.2182841
0.2181803
0.218076
0.2179713
0.2178661
0.2177605
0.2176542
0.2175474
0.2174401
0.2173323
0.217224
0.2171153
0.2170066
0.2168981
0.2167905
0.2166852
0.2165842
0.2164902
0.2163932
0.2162731
0.2161136
0.2159071
0.2156548
0.2153619
0.2150369
0.2146885
0.2143254
0.2139553
0.2135855
0.213223
0.2128749
0.212548
0.2122479
0.2119782
0.2117404
0.2115329
0.2113522
0.211194
0.2110536
0.2109265
0.2108087
0.2106973
0.2105898
0.2104845
0.2103803
0.2102768
0.2101731
0.2100691
0.2099647
0.2098598
0.2097543
0.2096482
0.2095414
0.209434
0.209326
0.2092173
0.2091079
0.2089979
0.2088872
0.2087761
0.2086644
0.2085523
0.2084396
0.2083261
0.208208
0.2080704
0.2078465
0.2072256
0.206968
0.2067567
0.2065098
0.2062075
0.2058512
0.2054511
0.2050206
0.2045733
0.204122
0.2036779
0.2032511
0.2028497
0.2024805
0.202149
0.2018581
0.2016082
0.2013972
0.2012205
0.2010722
0.2009458
0.2008358
0.2007374
0.2006465
0.2005608
0.2004785
0.200399
0.200322
0.200248
0.2001777
0.2001132
0.2000581
0.2000177
0.2000013
0.2000205
0.2000799
0.2001757
0.2003001
0.2004461
0.2006076
0.20078
0.2009595
0.2011432
0.2013286
0.2015136
0.2016968
0.2018759
0.2020492
0.2022152
0.2023728
0.2025216
0.2026615
0.2027933
0.2029181
0.203037
0.2031512
0.203262
0.20337
0.203476
0.2035803
0.2036833
0.2037849
0.2038854
0.2039847
0.2040828
0.2041799
0.2042768
0.2043777
0.2045
0.2047312
0.204955
0.2051473
0.205316
0.2054836
0.2056756
0.2059118
0.2062017
0.2065451
0.2069349
0.20736
0.2078082
0.2082666
0.2087238
0.2091691
0.209594
0.2099915
0.2103569
0.2106877
0.2109835
0.2112459
0.2114778
0.2116831
0.2118661
0.212031
0.2121816
0.2123214
0.212453
0.2125785
0.2126994
0.212817
0.212932
0.213045
0.2131563
0.2132661
0.2133745
0.2134815
0.2135873
0.2136915
0.2137942
0.2138951
0.2139937
0.2140897
0.2141821
0.2142699
0.2143517
0.2144268
0.2144958
0.21456
0.2146205
0.2146782
0.2147337
0.2147869
0.2148366
0.2148797
0.2149118
0.2149349
0.2149603
0.2150055
0.2150884
0.2152207
0.2154059
0.2156402
0.2159153
0.2162203
0.216544
0.2168757
0.2172055
0.2175253
0.217828
0.2181082
0.2183624
0.218589
0.218788
0.2189613
0.2191118
0.2192429
0.2193583
0.2194615
0.2195555
0.2196428
0.2197252
0.2198043
0.2198811
0.2199562
0.2200302
0.2201034
0.2201759
0.2202479
0.2203195
0.2203907
0.2204616
0.2205322
0.2206025
0.2206726
0.2207425
0.2208121
0.2208816
0.2209509
0.2210201
0.2210891
0.2211581
0.221227
0.2212959
0.2213648
0.2214337
0.2215026
0.2215717
0.2216409
0.2217103
0.2217799
0.2218498
0.22192
0.2219905
0.2220615
0.2221329
0.2222047
0.2222768
0.2223495
0.2224229
0.2224971
0.2225723
0.2226488
0.2227269
0.222807
0.2228895
0.2229749
0.2230641
0.2231581
0.2232581
0.223366
0.2234844
0.2236172
0.2237701
0.2239513
0.2241725
0.2244472
0.224781
0.2251419
0.2254218
0.02546126
0.03112968
0.03815375
0.05656336
0.0698916
0.09282641
0.1002551
0.1070597
0.1126896
0.1172622
0.1210437
0.1243765
0.1267834
0.1288166
0.1310671
0.1334557
0.1358348
0.1380814
0.1401334
0.1419778
0.143629
0.1450997
0.146379
0.1476083
0.1489429
0.1504108
0.1519484
0.1534793
0.1549524
0.1563379
0.157548
0.1696695
0.170665
0.1716483
0.172681
0.1737738
0.1749087
0.1760592
0.1772016
0.1783169
0.1793825
0.180389
0.1813654
0.182353
0.1833758
0.1844314
0.1855005
0.1865579
0.1875876
0.1885659
0.1894673
0.1903064
0.1911203
0.1919446
0.192797
0.1936777
0.1945762
0.1954785
0.1963696
0.1972332
0.198062
0.1988677
0.1996742
0.2005037
0.2013672
0.2022671
0.2032116
0.2042745
0.2053282
0.2063329
0.2072952
0.2082327
0.2091647
0.2101038
0.2110544
0.212014
0.2129765
0.2139323
0.2148706
0.2157865
0.2166855
0.2175805
0.2184853
0.2194097
0.2203596
0.221341
0.2223407
0.2233194
0.2242626
0.2251717
0.2260575
0.2269328
0.2278068
0.2286829
0.22956
0.2304335
0.2312979
0.2321482
0.2329844
0.2338125
0.2346419
0.2354815
0.2363373
0.2372121
0.2381098
0.2390416
0.2399884
0.240933
0.2418665
0.2427868
0.2436954
0.2445945
0.2454859
0.2463703
0.2472472
0.2481146
0.2489705
0.2498152
0.2506511
0.2514826
0.2523136
0.2531456
0.2539756
0.254793
0.2555748
0.2562936
0.2569438
0.2575302
0.2580554
0.2585223
0.2589386
0.2593138
0.2596556
0.2599679
0.2602501
0.2604985
0.2607069
0.2608685
0.2609796
0.2610379
0.2610536
0.2610404
0.2610131
0.2609861
0.2609698
0.2609624
0.2609671
0.2609834
0.2609977
0.2609875
0.2609064
0.2607275
0.2604394
0.2600672
0.2596806
0.2593115
0.2589564
0.2586036
0.2582435
0.2578716
0.2574896
0.2571044
0.2567267
0.2563684
0.2560395
0.2557469
0.2554928
0.2552757
0.2550911
0.2549331
0.2547954
0.2546723
0.2545588
0.2544515
0.2543476
0.2542457
0.2541447
0.2540442
0.253944
0.2538438
0.2537436
0.2536433
0.2535431
0.2534426
0.2533421
0.2532412
0.2531401
0.2530387
0.2529368
0.2528345
0.2527317
0.2526284
0.2525245
0.2524201
0.2523151
0.2522095
0.2521034
0.2519968
0.2518898
0.2517826
0.2516755
0.2515687
0.2514626
0.2513569
0.25125
0.2511375
0.2510106
0.25086
0.2506785
0.2504628
0.2502134
0.2499329
0.2496265
0.2493
0.2489602
0.2486146
0.2482706
0.2479362
0.2476188
0.247325
0.2470591
0.2468229
0.2466158
0.246435
0.2462766
0.2461362
0.2460096
0.2458929
0.2457828
0.2456771
0.2455739
0.2454719
0.2453704
0.2452692
0.2451677
0.2450657
0.2449632
0.2448602
0.2447566
0.2446523
0.2445474
0.2444418
0.2443356
0.2442288
0.2441214
0.2440134
0.2439048
0.2437959
0.2436865
0.2435767
0.2434657
0.2433513
0.2432237
0.2430549
0.2427902
0.2425327
0.2422806
0.2420175
0.2417302
0.2414116
0.2410613
0.2406831
0.2402841
0.2398736
0.2394619
0.239059
0.2386744
0.238316
0.237991
0.2377029
0.2374534
0.2372412
0.2370624
0.2369118
0.236784
0.2366731
0.2365744
0.2364844
0.2364006
0.236321
0.2362447
0.2361717
0.2361024
0.2360379
0.2359804
0.2359331
0.235901
0.2358914
0.2359119
0.2359645
0.2360432
0.2361448
0.2362664
0.2364039
0.2365542
0.2367145
0.2368822
0.2370547
0.2372303
0.2374064
0.2375809
0.2377516
0.2379171
0.2380755
0.2382263
0.2383693
0.2385047
0.2386334
0.2387562
0.2388743
0.2389885
0.2390997
0.2392085
0.2393153
0.2394203
0.2395238
0.2396262
0.2397273
0.2398269
0.2399254
0.2400235
0.2401239
0.2402346
0.2403739
0.2405315
0.2406966
0.2408649
0.2410392
0.2412275
0.2414395
0.2416835
0.2419641
0.2422816
0.2426328
0.2430109
0.2434074
0.2438123
0.2442155
0.2446078
0.244981
0.245329
0.2456478
0.2459358
0.2461933
0.2464223
0.2466259
0.2468079
0.246972
0.247122
0.2472609
0.2473915
0.2475158
0.2476354
0.2477516
0.247865
0.2479762
0.2480857
0.2481936
0.2483001
0.2484052
0.2485089
0.2486112
0.2487118
0.2488106
0.2489073
0.2490015
0.2490927
0.24918
0.2492627
0.2493404
0.2494131
0.2494815
0.2495461
0.2496075
0.2496662
0.2497222
0.2497752
0.2498245
0.2498698
0.2499135
0.2499614
0.2500224
0.2501066
0.2502226
0.250376
0.2505679
0.2507958
0.251054
0.2513346
0.251629
0.251928
0.2522233
0.2525072
0.2527735
0.2530179
0.2532377
0.2534326
0.2536033
0.2537523
0.2538826
0.2539974
0.2541
0.2541933
0.2542797
0.2543611
0.2544389
0.2545142
0.2545877
0.2546599
0.2547312
0.2548018
0.2548717
0.2549411
0.25501
0.2550785
0.2551466
0.2552143
0.2552817
0.2553488
0.2554155
0.2554819
0.255548
0.2556139
0.2556795
0.2557449
0.2558101
0.2558752
0.25594
0.2560048
0.2560694
0.2561339
0.2561984
0.2562629
0.2563274
0.2563919
0.2564565
0.2565213
0.2565862
0.2566514
0.2567169
0.2567828
0.2568492
0.2569163
0.2569842
0.2570531
0.2571233
0.257195
0.2572685
0.2573444
0.2574232
0.2575055
0.2575922
0.2576846
0.2577841
0.2578929
0.2580139
0.2581511
0.2583099
0.2584968
0.2587184
0.2589747
0.259245
0.2594624
0.03346464
0.04352688
0.05163289
0.07361743
0.09129807
0.1165816
0.1218157
0.1267255
0.1308632
0.1345365
0.1381474
0.1407808
0.1439993
0.1474932
0.151016
0.1544682
0.1698115
0.1724897
0.1750944
0.1775375
0.1797664
0.1818199
0.1837529
0.1855664
0.1872596
0.1888747
0.1904412
0.1919674
0.1934428
0.1948495
0.1961719
0.1974006
0.1985308
0.1995617
0.2005125
0.2014192
0.2023162
0.203223
0.2041437
0.2050753
0.2060253
0.2070741
0.208114
0.2090709
0.2099756
0.2108573
0.2117363
0.2126221
0.2135158
0.2144138
0.2153097
0.2161943
0.2170605
0.2179112
0.2187592
0.2196198
0.2205062
0.2214279
0.2223946
0.2233739
0.2243341
0.2252585
0.2261455
0.2270038
0.2278471
0.2286867
0.2295283
0.2303725
0.231216
0.2320539
0.2328807
0.2336942
0.2344979
0.2353003
0.2361112
0.2369383
0.2377868
0.2386626
0.2395788
0.2405166
0.2414567
0.2423872
0.2433044
0.2442095
0.2451058
0.2459961
0.2468823
0.2477646
0.2486419
0.2495118
0.2503733
0.2512278
0.2520796
0.252934
0.2537957
0.2546668
0.2555447
0.25642
0.2572813
0.2581218
0.2589394
0.2597362
0.2605163
0.2612843
0.2620435
0.2627955
0.2635408
0.2642786
0.2650085
0.2657314
0.2664501
0.2671687
0.2678915
0.2686223
0.2693637
0.2701177
0.2708867
0.2716671
0.2724521
0.2732346
0.2740089
0.2747715
0.2755212
0.2762583
0.2769841
0.2777002
0.2784078
0.2791076
0.2797999
0.2804856
0.2811652
0.2818391
0.2825066
0.2831644
0.2838063
0.2844216
0.284999
0.2855334
0.2860241
0.2864709
0.2868747
0.2872387
0.2875679
0.2878672
0.2881397
0.2883863
0.2886053
0.2887932
0.2889458
0.2890597
0.2891335
0.2891701
0.2891758
0.2891609
0.2891372
0.2891116
0.2890881
0.2890689
0.2890538
0.2890368
0.2890042
0.2889296
0.2887993
0.2886068
0.2883624
0.2880954
0.2878253
0.2875555
0.2872821
0.2870004
0.2867076
0.286405
0.2860975
0.2857931
0.2855013
0.2852307
0.2849874
0.2847743
0.2845913
0.2844354
0.2843024
0.2841873
0.2840851
0.2839919
0.2839042
0.2838196
0.2837366
0.2836543
0.283572
0.2834896
0.2834071
0.2833242
0.2832411
0.2831578
0.2830743
0.2829905
0.2829063
0.2828219
0.2827371
0.2826519
0.2825662
0.2824801
0.2823934
0.2823062
0.2822185
0.2821302
0.2820414
0.2819521
0.2818623
0.2817721
0.2816816
0.2815909
0.2815003
0.2814095
0.2813182
0.2812249
0.2811267
0.2810192
0.2808969
0.2807548
0.280589
0.2803979
0.2801815
0.2799417
0.2796827
0.2794086
0.2791258
0.2788406
0.2785601
0.2782917
0.2780408
0.2778121
0.2776077
0.2774275
0.2772699
0.2771317
0.2770093
0.2768993
0.2767981
0.2767031
0.2766121
0.2765235
0.2764362
0.2763494
0.2762628
0.2761759
0.2760887
0.276001
0.2759128
0.2758241
0.2757349
0.275645
0.2755547
0.2754637
0.2753723
0.2752803
0.2751878
0.2750949
0.2750016
0.2749081
0.2748141
0.2747195
0.2746226
0.2745192
0.2743988
0.2742472
0.2740747
0.2738868
0.2736823
0.2734579
0.27321
0.2729374
0.2726411
0.2723249
0.2719951
0.2716594
0.2713264
0.2710046
0.2707018
0.2704243
0.2701767
0.2699607
0.2697759
0.2696196
0.2694878
0.269376
0.2692795
0.2691943
0.2691172
0.2690457
0.2689788
0.2689154
0.2688553
0.2687991
0.2687476
0.2687027
0.2686671
0.2686443
0.2686392
0.2686564
0.2686975
0.2687562
0.2688317
0.2689226
0.2690273
0.2691438
0.2692702
0.2694048
0.2695455
0.2696907
0.2698382
0.2699861
0.2701324
0.2702752
0.2704135
0.2705464
0.2706732
0.2707939
0.270909
0.2710192
0.2711251
0.2712274
0.2713269
0.2714239
0.2715189
0.2716119
0.2717041
0.2717946
0.2718838
0.2719717
0.2720584
0.2721445
0.2722311
0.2723215
0.272421
0.2725311
0.2726505
0.2727777
0.2729129
0.2730586
0.2732194
0.2734005
0.2736065
0.2738399
0.2741008
0.2743862
0.2746911
0.2750084
0.2753301
0.2756481
0.2759549
0.2762446
0.2765128
0.2767572
0.2769773
0.2771742
0.2773501
0.2775077
0.27765
0.27778
0.2779004
0.2780133
0.2781207
0.2782239
0.2783239
0.2784214
0.2785169
0.2786108
0.2787033
0.2787944
0.2788843
0.2789729
0.2790602
0.2791461
0.2792304
0.279313
0.2793935
0.2794717
0.279547
0.2796191
0.2796876
0.2797525
0.279814
0.2798724
0.2799279
0.2799808
0.2800313
0.2800793
0.280125
0.2801688
0.2802126
0.2802598
0.2803153
0.2803851
0.2804751
0.2805898
0.2807319
0.2809011
0.2810951
0.2813092
0.2815376
0.2817733
0.2820095
0.2822395
0.2824577
0.2826598
0.2828432
0.2830067
0.2831508
0.283277
0.2833875
0.283485
0.2835721
0.283651
0.2837239
0.2837923
0.2838576
0.2839206
0.2839819
0.2840421
0.2841013
0.2841599
0.2842178
0.2842753
0.2843322
0.2843888
0.284445
0.2845008
0.2845562
0.2846113
0.2846661
0.2847206
0.2847748
0.2848287
0.2848824
0.2849359
0.2849891
0.2850421
0.285095
0.2851477
0.2852003
0.2852528
0.2853052
0.2853576
0.28541
0.2854623
0.2855148
0.2855673
0.28562
0.2856728
0.285726
0.2857795
0.2858334
0.2858879
0.285943
0.2859991
0.2860561
0.2861145
0.2861744
0.2862362
0.2863004
0.2863675
0.2864382
0.2865133
0.286594
0.2866817
0.2867785
0.2868867
0.2870095
0.2871504
0.2873123
0.287494
0.2876828
0.2878366
0.03115492
0.0457405
0.06693503
0.1169295
0.1384165
0.1794105
0.1891776
0.1953594
0.1997338
0.2017229
0.200812
0.1995931
0.1980382
0.1959243
0.1937195
0.2032353
0.2015815
0.2004336
0.1998101
0.1996769
0.1999949
0.200695
0.2017296
0.2030555
0.2046308
0.2064825
0.2084129
0.2103985
0.2123817
0.2143069
0.2161402
0.2178906
0.2195932
0.2212891
0.2230097
0.2246971
0.2263268
0.2278878
0.2293712
0.2307693
0.2320769
0.2332922
0.2344173
0.2354587
0.2364297
0.2373492
0.2382369
0.2391088
0.2399747
0.2408406
0.2417137
0.2426099
0.2435151
0.2444057
0.2452737
0.2461204
0.2469506
0.2477699
0.2485828
0.2493921
0.2501991
0.2510032
0.2518036
0.2526013
0.2534003
0.2542062
0.2550239
0.2558556
0.2566978
0.2575391
0.2583688
0.2591791
0.2599667
0.2607325
0.2614801
0.2622146
0.2629398
0.2636584
0.2643714
0.2650786
0.2657797
0.2664748
0.2671659
0.2678567
0.2685516
0.269255
0.2699703
0.2707008
0.2714499
0.2722145
0.2729875
0.2737615
0.2745297
0.2752884
0.2760358
0.2767722
0.2774994
0.278219
0.2789326
0.2796409
0.2803443
0.2810435
0.2817396
0.282434
0.2831277
0.2838206
0.2845108
0.285195
0.2858692
0.2865306
0.2871774
0.2878091
0.2884264
0.2890307
0.2896236
0.2902067
0.2907814
0.2913489
0.2919104
0.2924674
0.2930217
0.2935754
0.2941308
0.2946897
0.2952539
0.2958242
0.2964013
0.2969841
0.2975696
0.2981535
0.2987314
0.2992999
0.2998567
0.3004014
0.3009347
0.3014583
0.3019738
0.3024824
0.3029848
0.3034814
0.303972
0.304456
0.3049323
0.3053989
0.3058528
0.3062897
0.3067047
0.3070946
0.3074579
0.3077936
0.3081012
0.3083817
0.3086371
0.3088699
0.3090818
0.3092738
0.3094453
0.3095945
0.3097189
0.3098164
0.3098855
0.3099271
0.3099441
0.3099418
0.3099268
0.3099046
0.3098795
0.309854
0.3098291
0.3098024
0.3097642
0.3097052
0.309618
0.3094986
0.3093501
0.309183
0.3090063
0.3088232
0.3086329
0.3084338
0.3082251
0.308008
0.307786
0.3075649
0.3073512
0.3071513
0.3069701
0.3068103
0.3066722
0.3065544
0.306454
0.3063677
0.3062918
0.3062232
0.3061592
0.3060978
0.3060377
0.305978
0.3059182
0.3058582
0.3057978
0.3057371
0.305676
0.3056147
0.3055531
0.3054912
0.305429
0.3053665
0.3053038
0.3052406
0.3051772
0.3051133
0.305049
0.3049843
0.3049192
0.3048536
0.3047876
0.3047212
0.3046543
0.3045872
0.3045197
0.304452
0.3043841
0.3043159
0.3042471
0.3041767
0.3041031
0.3040238
0.3039358
0.3038357
0.3037206
0.3035885
0.3034384
0.3032708
0.3030872
0.3028914
0.3026865
0.3024777
0.3022704
0.3020701
0.3018816
0.3017085
0.3015529
0.301415
0.3012939
0.3011875
0.3010934
0.3010088
0.3009313
0.3008587
0.3007894
0.300722
0.3006557
0.3005899
0.3005242
0.3004583
0.3003921
0.3003256
0.3002587
0.3001914
0.3001237
0.3000555
0.2999869
0.2999178
0.2998483
0.2997785
0.2997082
0.2996377
0.2995668
0.2994957
0.2994244
0.2993527
0.2992798
0.2992039
0.2991211
0.2990263
0.2989181
0.2987964
0.2986604
0.2985085
0.298339
0.2981508
0.2979445
0.297722
0.2974874
0.2972459
0.2970038
0.2967675
0.2965432
0.2963361
0.2961499
0.2959864
0.2958458
0.2957264
0.2956256
0.2955401
0.2954665
0.2954019
0.2953438
0.2952905
0.2952408
0.2951943
0.2951506
0.2951103
0.295074
0.2950431
0.2950191
0.2950047
0.2950024
0.2950151
0.2950436
0.2950833
0.2951342
0.2951957
0.2952673
0.2953479
0.2954367
0.2955324
0.295634
0.2957399
0.2958488
0.2959591
0.2960693
0.2961779
0.2962838
0.2963862
0.2964849
0.2965794
0.2966699
0.2967566
0.2968401
0.2969208
0.2969991
0.2970754
0.2971498
0.2972229
0.2972946
0.2973651
0.2974345
0.2975028
0.2975701
0.2976367
0.297703
0.2977703
0.2978407
0.2979155
0.2979955
0.2980808
0.298172
0.2982702
0.2983779
0.2984983
0.2986346
0.2987896
0.2989641
0.2991573
0.2993667
0.2995877
0.2998151
0.3000428
0.3002653
0.3004776
0.3006761
0.3008586
0.3010242
0.3011732
0.3013068
0.301427
0.3015357
0.3016351
0.3017272
0.3018135
0.3018954
0.301974
0.3020501
0.3021242
0.3021967
0.3022679
0.3023379
0.3024069
0.3024748
0.3025417
0.3026076
0.3026724
0.302736
0.3027983
0.3028591
0.3029183
0.3029755
0.3030307
0.3030835
0.3031339
0.303182
0.3032278
0.3032714
0.3033131
0.3033528
0.3033907
0.303427
0.3034623
0.3034977
0.3035351
0.3035773
0.3036278
0.3036902
0.3037677
0.3038627
0.3039759
0.3041066
0.3042524
0.30441
0.3045747
0.3047418
0.3049063
0.3050639
0.3052112
0.3053458
0.3054667
0.3055737
0.3056679
0.3057505
0.3058235
0.3058887
0.3059477
0.3060021
0.3060531
0.3061016
0.3061483
0.3061937
0.3062381
0.3062819
0.306325
0.3063677
0.30641
0.3064519
0.3064935
0.3065347
0.3065757
0.3066163
0.3066567
0.3066968
0.3067367
0.3067764
0.3068158
0.306855
0.3068941
0.306933
0.3069717
0.3070103
0.3070487
0.3070871
0.3071253
0.3071635
0.3072017
0.3072398
0.3072779
0.3073161
0.3073543
0.3073926
0.3074311
0.3074698
0.3075087
0.307548
0.3075876
0.3076278
0.3076686
0.3077102
0.3077527
0.3077963
0.3078413
0.3078881
0.3079369
0.3079882
0.3080426
0.3081008
0.3081638
0.3082326
0.3083087
0.3083938
0.3084895
0.3085971
0.3087155
0.3088372
0.3089365
0.01195629
0.0601374
0.09014253
0.1166228
0.1403671
0.1614728
0.1818862
0.2004507
0.2167262
0.2305701
0.2526035
0.2593643
0.263008
0.2642243
0.2635608
0.2614723
0.2584707
0.2550687
0.2515805
0.2482705
0.244992
0.2422078
0.2400022
0.2384821
0.2376106
0.2373127
0.2375084
0.2381217
0.2390822
0.2403275
0.2418089
0.2434491
0.2451869
0.2469666
0.2487405
0.2504774
0.2521699
0.2538268
0.2554592
0.2570635
0.2586207
0.2601143
0.2615327
0.2628683
0.264117
0.2652773
0.2663512
0.2673434
0.2682616
0.2691163
0.2699202
0.2706867
0.2714278
0.2721533
0.2728705
0.2735857
0.2743048
0.2750268
0.275745
0.2764528
0.2771462
0.2778243
0.2784888
0.2791426
0.2797895
0.2804325
0.2810739
0.2817148
0.2823558
0.2829981
0.2836427
0.2842902
0.2849402
0.2855902
0.2862365
0.2868752
0.2875028
0.288117
0.2887168
0.2893026
0.2898754
0.2904371
0.2909894
0.2915341
0.2920725
0.292606
0.2931358
0.2936637
0.2941916
0.2947217
0.2952562
0.295797
0.2963457
0.2969033
0.2974694
0.298041
0.2986141
0.2991839
0.2997472
0.3003006
0.3008437
0.301377
0.301902
0.3024205
0.3029336
0.3034425
0.3039476
0.3044492
0.3049475
0.3054424
0.3059335
0.3064203
0.3069017
0.3073764
0.3078434
0.3083014
0.3087498
0.3091881
0.3096161
0.3100345
0.3104441
0.3108459
0.3112414
0.311632
0.312019
0.3124039
0.3127878
0.3131721
0.3135576
0.3139451
0.314335
0.3147277
0.3151223
0.3155174
0.3159106
0.3162993
0.316681
0.3170538
0.3174171
0.3177712
0.318117
0.3184559
0.318789
0.3191169
0.3194402
0.3197585
0.3200716
0.3203787
0.3206789
0.3209709
0.321253
0.3215232
0.3217798
0.3220216
0.3222476
0.3224571
0.3226501
0.3228272
0.3229891
0.323137
0.3232711
0.3233914
0.323497
0.3235865
0.3236587
0.3237126
0.3237483
0.3237669
0.3237711
0.3237642
0.3237496
0.3237304
0.323709
0.3236863
0.3236612
0.3236301
0.3235893
0.3235354
0.3234661
0.3233819
0.3232858
0.3231809
0.3230687
0.3229493
0.3228222
0.3226875
0.3225462
0.3224009
0.3222552
0.3221134
0.3219798
0.3218577
0.3217492
0.3216549
0.3215743
0.3215056
0.3214468
0.3213956
0.3213497
0.3213072
0.3212668
0.3212273
0.3211881
0.3211489
0.3211093
0.3210695
0.3210292
0.3209887
0.3209479
0.3209068
0.3208655
0.320824
0.3207823
0.3207403
0.3206981
0.3206557
0.3206129
0.3205699
0.3205266
0.320483
0.3204391
0.3203948
0.3203503
0.3203055
0.3202604
0.3202151
0.3201696
0.3201238
0.3200778
0.3200313
0.3199838
0.3199344
0.3198818
0.3198243
0.3197599