/*--------------------------------*- C++ -*----------------------------------*\
| =========                 |                                                 |
| \\      /  F ield         | foam-extend: Open Source CFD                    |
|  \\    /   O peration     | Version:     3.1                                |
|   \\  /    A nd           | Web:         http://www.extend-project.de       |
|    \\/     M anipulation  |                                                 |
\*---------------------------------------------------------------------------*/
FoamFile
{
    version     2.0;
    format      ascii;
    class       volScalarField;
    location    "7.5";
    object      k;
}
// * * * * * * * * * * * * * * * * * * * * * * * * * * * * * * * * * * * * * //

dimensions      [0 2 -2 0 0 0 0];

internalField   nonuniform List<scalar> 
119952
(
0.005099741
0.004399565
0.005323174
0.006342903
0.006798353
0.006832573
0.006913982
0.007006929
0.007093122
0.007165593
0.007224741
0.00727188
0.007308116
0.00733439
0.007351726
0.007361259
0.00736382
0.00736025
0.007362312
0.007467584
0.008421556
0.008142834
0.008147186
0.009010405
0.008754513
0.008623358
0.008502145
0.008295533
0.007864814
0.01229388
0.04326752
0.03971968
0.03616141
0.03257806
0.02875822
0.02455491
0.0200464
0.01503986
0.01193337
0.0140724
0.02580864
0.03089489
0.03221347
0.03260994
0.03254089
0.0319261
0.03107935
0.03040389
0.02985912
0.03427416
0.03336856
0.0323387
0.03127691
0.03028993
0.02947873
0.02887939
0.02848789
0.02828163
0.02828836
0.02825669
0.02837899
0.02869209
0.02916763
0.02975375
0.03039991
0.03107337
0.0317625
0.03252608
0.03336245
0.03383428
0.03448152
0.03532351
0.03618512
0.03691707
0.03754861
0.03810797
0.03860774
0.03905231
0.03944337
0.03978224
0.04007019
0.0403086
0.040499
0.04064307
0.04074224
0.04079698
0.04080614
0.04077499
0.04077686
0.04074517
0.04063382
0.04066117
0.04077557
0.04073584
0.04062302
0.04049138
0.0400914
0.03907626
0.03844141
0.03795079
0.03750308
0.03707785
0.03667604
0.03629897
0.03594666
0.03561854
0.03531392
0.03503214
0.03477272
0.03453533
0.03431996
0.03412659
0.03395442
0.03380193
0.03366654
0.03354775
0.03344611
0.03336101
0.03329142
0.03323624
0.03319437
0.03316476
0.03314642
0.03313843
0.03313995
0.03315022
0.03316849
0.03319399
0.03322589
0.03326326
0.03330509
0.03335029
0.03339772
0.03344624
0.03349477
0.03354233
0.03358808
0.03363128
0.0336713
0.03370758
0.0337396
0.03376687
0.03378888
0.03380516
0.03381518
0.03381803
0.03382109
0.03384095
0.03383618
0.03377834
0.03367447
0.0335392
0.0333841
0.03321686
0.03304188
0.03286132
0.03267589
0.03248557
0.03228986
0.03208816
0.03187977
0.03166376
0.03143855
0.03120398
0.03095967
0.03070533
0.03044083
0.03016613
0.0298813
0.02958649
0.02928191
0.02896785
0.02864467
0.02831278
0.0279726
0.02762465
0.02726938
0.02690731
0.02653898
0.02616493
0.02578577
0.02540211
0.02501701
0.02463241
0.0242462
0.02385983
0.02347357
0.02308608
0.02269795
0.02231022
0.0219251
0.02154422
0.02116918
0.02080168
0.02044258
0.0200915
0.01975737
0.01937647
0.01869576
0.01808479
0.0175528
0.01707755
0.0166518
0.01625964
0.01589786
0.01556297
0.01525288
0.01496539
0.01469914
0.01445266
0.01422459
0.0140135
0.01381785
0.01363636
0.01346797
0.01331164
0.01316645
0.01303155
0.01290611
0.01278948
0.01268124
0.01258118
0.01248922
0.01240529
0.01232954
0.01226205
0.01220305
0.01215275
0.01211144
0.01207935
0.01205616
0.0120373
0.01199476
0.01203143
0.01208547
0.01213789
0.01218573
0.01222762
0.01226298
0.01229209
0.01231536
0.01233306
0.0123455
0.01235313
0.01235651
0.01235614
0.01235246
0.01234591
0.01233683
0.01232555
0.01231235
0.01229749
0.01228115
0.01226353
0.0122448
0.01222508
0.01220453
0.01218329
0.01216147
0.01213918
0.01211655
0.01209369
0.01207073
0.01204774
0.0120251
0.01200317
0.0119818
0.01182762
0.0118817
0.01189794
0.01187627
0.01183219
0.01177743
0.01172122
0.01166995
0.01162694
0.01159343
0.01156948
0.0115552
0.01154958
0.01155171
0.01156054
0.01157499
0.01159408
0.01161689
0.0116426
0.01167053
0.01170006
0.01173071
0.01176205
0.01179377
0.01182558
0.01185728
0.01188868
0.01191965
0.01195008
0.01197988
0.01200898
0.01203732
0.01206486
0.01209156
0.01211738
0.01214231
0.01216631
0.01218937
0.01221148
0.01223264
0.01225288
0.01227224
0.0122909
0.01230937
0.01232907
0.01235058
0.01236821
0.01238237
0.01239608
0.01240902
0.01242101
0.0124327
0.01244446
0.01246818
0.01252874
0.01250749
0.01248785
0.01246567
0.01243953
0.01240975
0.01237666
0.01234154
0.01230594
0.01227124
0.01223845
0.01220822
0.01218103
0.01215708
0.01213637
0.01211881
0.01210415
0.01209211
0.01208237
0.01207461
0.01206854
0.01206386
0.01206032
0.01205769
0.01205579
0.01205443
0.01205347
0.0120528
0.0120523
0.01205192
0.01205157
0.01205122
0.01205085
0.01205041
0.01204992
0.01204936
0.01204873
0.01204803
0.01204728
0.01204648
0.01204564
0.01204477
0.01204387
0.01204297
0.01204207
0.01204118
0.01204031
0.01203948
0.01203869
0.01203796
0.01203728
0.01203668
0.01203615
0.01203571
0.01203536
0.0120351
0.01203495
0.01203492
0.01203499
0.0120352
0.01203552
0.01203598
0.01203657
0.01203729
0.01203815
0.01203915
0.01204027
0.01204153
0.01204291
0.01204442
0.01204603
0.01204775
0.01204954
0.0120514
0.01205324
0.01205506
0.01205666
0.01205792
0.01205824
0.01205675
0.01205032
0.01203208
0.01198186
0.01189604
0.01206265
0.1058059
0.09969929
0.09706579
0.09585488
0.09495767
0.09390767
0.09253074
0.09076832
0.08873036
0.08420142
0.08118194
0.08125178
0.08299004
0.08554014
0.08838927
0.09122892
0.09389898
0.0963184
0.1104785
0.1113837
0.1120436
0.1122586
0.1122325
0.1119995
0.1116063
0.1110545
0.1103341
0.1093951
0.108382
0.1070744
0.1053929
0.103458
0.1013322
0.09902955
0.09658419
0.09400929
0.09133917
0.0889749
0.08692938
0.08455082
0.08213014
0.07972668
0.07732259
0.07480743
0.07230787
0.07072375
0.07216504
0.07685517
0.0827042
0.08736194
0.08956127
0.08884805
0.08578377
0.0815036
0.07706282
0.0729118
0.07657314
0.07248545
0.06851916
0.06475223
0.06131465
0.05834032
0.05584545
0.05381453
0.05221824
0.0509936
0.05008032
0.04944995
0.04907377
0.04891834
0.04894941
0.04913442
0.04944636
0.0498722
0.05040321
0.05094229
0.05146564
0.0520456
0.05267602
0.0533257
0.05397
0.05459889
0.05519882
0.0557625
0.05628499
0.05676217
0.05719054
0.05756736
0.05789071
0.0581594
0.05837267
0.05852969
0.05862989
0.05867541
0.05867923
0.05865317
0.05858668
0.0585121
0.05847827
0.05844895
0.05838637
0.0582892
0.05812049
0.05776638
0.05724012
0.05671753
0.05622631
0.05575874
0.05530884
0.05487234
0.05444782
0.05403592
0.05363837
0.05325725
0.0528946
0.05255238
0.05223234
0.05193598
0.05166421
0.05141726
0.0511949
0.0509966
0.05082171
0.05066938
0.05053849
0.05042771
0.05033558
0.05026061
0.0502013
0.05015616
0.05012377
0.05010277
0.0500919
0.05008999
0.05009587
0.05010838
0.05012632
0.05014844
0.05017351
0.05020029
0.05022758
0.05025422
0.05027914
0.05030138
0.0503201
0.05033459
0.0503442
0.0503483
0.05034629
0.05033749
0.05032115
0.05029654
0.05026359
0.05022475
0.05017973
0.05012587
0.05006118
0.04998295
0.04988893
0.0497777
0.04964855
0.04950133
0.04933615
0.04915329
0.04895306
0.04873577
0.04850173
0.04825123
0.04798453
0.04770183
0.0474034
0.04708952
0.04676049
0.04641661
0.04605822
0.04568567
0.04529935
0.04489969
0.04448713
0.04406213
0.04362518
0.04317679
0.0427175
0.04224784
0.04176836
0.04127963
0.04078223
0.04027661
0.0397631
0.03924221
0.03871468
0.03818109
0.0376422
0.03709831
0.03654959
0.03599609
0.03543737
0.03487244
0.03430196
0.03372779
0.0331501
0.03257139
0.03199196
0.03143436
0.03044123
0.0292629
0.02838136
0.0276529
0.02700669
0.02640769
0.02583814
0.02528916
0.02475632
0.0242375
0.02373187
0.02323922
0.02275968
0.02229356
0.0218412
0.02140281
0.02097856
0.0205686
0.02017306
0.01979203
0.01942544
0.01907306
0.01873459
0.01840965
0.01809791
0.01779901
0.01751263
0.01723841
0.01697604
0.01672514
0.0164853
0.01625598
0.01603629
0.01582478
0.01562004
0.015426
0.01525134
0.01509786
0.01495814
0.01482891
0.01470879
0.01459682
0.01449213
0.01439409
0.01430213
0.01421571
0.01413431
0.01405744
0.01398463
0.01391544
0.01384941
0.01378614
0.01372525
0.01366639
0.01360926
0.0135536
0.0134992
0.0134459
0.01339358
0.01334218
0.01329167
0.01324206
0.01319339
0.01314573
0.01309918
0.01305386
0.01300996
0.01296762
0.01292702
0.01288857
0.01331121
0.01327279
0.0132499
0.0132323
0.01321604
0.01320046
0.01318572
0.01317196
0.01315926
0.0131478
0.01313782
0.01312949
0.01312298
0.0131184
0.01311588
0.01311548
0.01311724
0.01312119
0.01312729
0.0131355
0.01314575
0.01315793
0.01317192
0.01318758
0.01320474
0.01322325
0.0132429
0.01326352
0.01328491
0.01330687
0.01332922
0.01335175
0.01337429
0.01339666
0.01341871
0.01344028
0.01346123
0.01348145
0.01350084
0.01351931
0.01353684
0.01355341
0.01356914
0.01358411
0.01359824
0.01361095
0.01362143
0.01362959
0.01363615
0.01364146
0.01364561
0.01364877
0.01365186
0.01366059
0.0136687
0.01366664
0.0136594
0.01365162
0.01364444
0.01363784
0.01363163
0.01362564
0.01361976
0.01361384
0.0136078
0.01360159
0.01359522
0.01358871
0.01358211
0.01357548
0.01356887
0.01356233
0.01355591
0.01354966
0.01354363
0.01353787
0.01353243
0.01352734
0.01352264
0.01351836
0.01351453
0.01351114
0.01350823
0.01350578
0.01350381
0.0135023
0.01350127
0.01350069
0.01350058
0.01350091
0.01350168
0.01350289
0.01350452
0.01350655
0.01350899
0.01351181
0.01351501
0.01351858
0.01352249
0.01352675
0.01353132
0.01353622
0.01354141
0.0135469
0.01355266
0.01355868
0.01356495
0.01357146
0.01357819
0.01358514
0.01359228
0.01359962
0.01360714
0.01361482
0.01362267
0.01363066
0.0136388
0.01364708
0.01365549
0.01366402
0.01367267
0.01368143
0.01369032
0.01369929
0.0137084
0.01371755
0.01372686
0.01373614
0.01374559
0.01375483
0.01376416
0.01377277
0.01378096
0.01378676
0.01379005
0.01378856
0.01379167
0.01381868
0.01387121
0.07543792
0.07949205
0.08449187
0.09011736
0.09620105
0.1026723
0.1102674
0.1195897
0.131782
0.1514212
0.2288129
0.2386182
0.2472763
0.254708
0.2608516
0.2653587
0.2684541
0.2704472
0.2712454
0.3075451
0.3090376
0.310233
0.3112158
0.3116715
0.3113996
0.3103391
0.3087487
0.3069308
0.3051787
0.3032282
0.3015904
0.3003082
0.2992556
0.2982076
0.2969143
0.295154
0.2927677
0.2897808
0.2852501
0.2801883
0.27456
0.2684589
0.2619386
0.2550741
0.2479798
0.240783
0.233693
0.2270096
0.2206591
0.2146719
0.2090367
0.2037311
0.1987807
0.1942301
0.1901859
0.1867198
0.1958554
0.1927839
0.1898778
0.1870155
0.1841149
0.181133
0.1780446
0.1748419
0.171541
0.1681485
0.1646704
0.1611458
0.1575865
0.1539918
0.1503726
0.1467523
0.1431758
0.1397492
0.1363772
0.1329565
0.1294438
0.1257886
0.1219332
0.1177713
0.1131483
0.1079556
0.1023198
0.09678966
0.09221805
0.08925508
0.08812492
0.08881099
0.0908137
0.09360761
0.09664471
0.09933874
0.1011063
0.1015793
0.1001574
0.09736928
0.09342353
0.08881024
0.08404351
0.07950704
0.0753986
0.07184929
0.06891072
0.06654681
0.06468268
0.06325571
0.06221169
0.06149774
0.06106509
0.06087056
0.06087681
0.06105279
0.06136868
0.06176503
0.06221156
0.06271961
0.06328293
0.06387496
0.06447043
0.06507004
0.06567001
0.066253
0.06680773
0.06732611
0.06780167
0.06822909
0.06860427
0.0689244
0.06918763
0.06939275
0.06953955
0.06963029
0.06967276
0.0696758
0.06964186
0.06958912
0.069543
0.06949224
0.06941117
0.06928414
0.06908345
0.06875538
0.06830057
0.06780721
0.06731685
0.06683495
0.06635936
0.06588884
0.06542383
0.06496582
0.06451697
0.06407979
0.06365682
0.06325053
0.06286332
0.0624974
0.06215452
0.06183561
0.06154106
0.06127099
0.06102533
0.06080364
0.06060507
0.06042844
0.06027238
0.06013539
0.06001592
0.05991239
0.05982321
0.05974678
0.05968163
0.05962638
0.05957971
0.05954026
0.05950663
0.05947741
0.05945121
0.05942671
0.05940264
0.05937779
0.05935104
0.05932135
0.05928787
0.05924985
0.05920662
0.05915758
0.05910213
0.05903964
0.05896948
0.05889113
0.05880435
0.05870966
0.05860669
0.05849385
0.05837018
0.05823462
0.05808602
0.05792327
0.05774543
0.05755179
0.05734178
0.05711504
0.05687131
0.05661044
0.05633241
0.05603724
0.05572503
0.05539592
0.05505012
0.05468787
0.05430948
0.05391528
0.05350563
0.05308094
0.05264164
0.05218819
0.05172108
0.05124082
0.05074794
0.050243
0.04972656
0.04919921
0.04866153
0.0481141
0.04755753
0.0469924
0.04641925
0.04583867
0.04525123
0.04465743
0.04405789
0.04345303
0.04284337
0.04222924
0.04161119
0.04098914
0.04036364
0.03973435
0.03910291
0.03846803
0.03783326
0.03719233
0.03652541
0.03588496
0.03525361
0.03462459
0.03399659
0.03337016
0.03274764
0.03213041
0.03151906
0.03091459
0.03031804
0.02973032
0.02915232
0.02858487
0.02802876
0.0274847
0.02695331
0.0264352
0.02593086
0.02544076
0.02496524
0.02450454
0.02405881
0.02362812
0.02321245
0.02281172
0.0224258
0.02205445
0.02169741
0.02135429
0.02102462
0.02070782
0.02040329
0.02011087
0.01983132
0.01956719
0.01931963
0.01908699
0.0188685
0.01866264
0.01846832
0.01828452
0.01811036
0.0179451
0.01778805
0.01763857
0.01749605
0.01735993
0.01722965
0.0171047
0.01698457
0.01686882
0.01675701
0.01664875
0.01654369
0.01644156
0.01634208
0.01624506
0.01615033
0.01605781
0.0159674
0.0158791
0.01579289
0.01570885
0.015627
0.01554755
0.01547047
0.01539623
0.01532419
0.01525541
0.01519869
0.01514349
0.01508668
0.01502929
0.0149743
0.01492352
0.01487746
0.01483598
0.01479887
0.01476604
0.01473743
0.01471301
0.01469269
0.0146764
0.01466402
0.01465544
0.01465054
0.01464918
0.0146512
0.01465644
0.01466471
0.01467583
0.01468958
0.01470576
0.01472413
0.01474447
0.01476653
0.01479007
0.01481485
0.01484062
0.01486714
0.01489417
0.01492148
0.01494886
0.01497608
0.01500296
0.01502931
0.01505495
0.01507976
0.01510359
0.01512634
0.01514795
0.01516836
0.01518748
0.01520519
0.01522125
0.01523537
0.01524735
0.01525738
0.01526555
0.01527213
0.01527688
0.01527993
0.01528077
0.01528044
0.01527932
0.01527797
0.01527621
0.01527336
0.01526924
0.01526406
0.01525811
0.0152516
0.01524471
0.01523755
0.01523021
0.01522279
0.01521538
0.01520804
0.01520084
0.01519384
0.01518709
0.01518063
0.01517449
0.0151687
0.01516328
0.01515826
0.01515367
0.01514951
0.01514581
0.01514258
0.01513982
0.01513754
0.01513574
0.01513442
0.01513359
0.01513324
0.01513336
0.01513396
0.01513502
0.01513655
0.01513853
0.01514096
0.01514384
0.01514715
0.01515088
0.01515504
0.01515959
0.01516454
0.01516988
0.01517559
0.01518166
0.01518808
0.01519483
0.01520191
0.0152093
0.01521698
0.01522494
0.01523318
0.01524166
0.01525039
0.01525936
0.01526854
0.01527792
0.01528751
0.01529728
0.01530723
0.01531736
0.01532765
0.01533811
0.01534872
0.01535949
0.01537041
0.0153815
0.01539272
0.01540413
0.01541564
0.01542738
0.01543916
0.01545116
0.01546303
0.01547503
0.01548648
0.01549783
0.01550833
0.01551962
0.01553286
0.01555314
0.0155807
0.07073673
0.07620853
0.08138097
0.1169581
0.1535199
0.1970572
0.2258589
0.2532433
0.2770718
0.2981606
0.3164405
0.3313268
0.3439129
0.3547156
0.3641203
0.3726261
0.3803744
0.3876684
0.3946888
0.4014847
0.4078596
0.4132866
0.4173012
0.420253
0.4222086
0.422995
0.4226338
0.4212833
0.4190152
0.4159034
0.4115404
0.4103991
0.4064656
0.4023653
0.3980388
0.3933029
0.3881112
0.3831627
0.3788816
0.3755154
0.373156
0.371716
0.3710425
0.3708706
0.3708918
0.3707957
0.3702799
0.3691098
0.3671572
0.36437
0.360732
0.3563147
0.3511916
0.3454325
0.3391305
0.332405
0.3254494
0.3185003
0.311374
0.3040942
0.2967126
0.2893031
0.2819538
0.2747498
0.2677497
0.2610051
0.2545225
0.2483435
0.2423166
0.2366261
0.2313376
0.2263665
0.2216034
0.2169652
0.2123978
0.2078707
0.2033719
0.1988973
0.1944527
0.1900463
0.1856815
0.1813696
0.1771319
0.1730161
0.1690505
0.1651003
0.1611362
0.1571307
0.1530347
0.148786
0.1443106
0.1395055
0.1342557
0.1284992
0.1222789
0.115878
0.1097637
0.1043123
0.09980694
0.09651278
0.09455622
0.09391512
0.09445415
0.09592757
0.09776033
0.09958262
0.1010207
0.1017341
0.1014823
0.100158
0.09781314
0.09467877
0.09110765
0.08745709
0.08401024
0.08093916
0.07830264
0.0761182
0.07437856
0.07304752
0.0720759
0.07141692
0.07103023
0.07087709
0.07091995
0.07111139
0.07141417
0.0718124
0.07228926
0.07281878
0.07337557
0.07394072
0.07451885
0.07509878
0.07566387
0.07620263
0.07670619
0.07716715
0.07757968
0.07793984
0.07824531
0.07849487
0.07868848
0.07882795
0.07891816
0.0789654
0.07897427
0.07895472
0.07891937
0.07886485
0.07877571
0.07863729
0.07843158
0.07813285
0.07773982
0.07729408
0.0768278
0.07635166
0.07586799
0.07537866
0.0748862
0.07439344
0.07390342
0.07341934
0.07294432
0.07248124
0.07203286
0.07160196
0.07119085
0.0708011
0.07043359
0.07008909
0.06976825
0.06947123
0.06919751
0.06894621
0.06871618
0.06850614
0.06831469
0.06814035
0.06798149
0.06783643
0.0677035
0.06758123
0.06746822
0.06736296
0.06726386
0.0671693
0.06707775
0.06698778
0.06689809
0.06680746
0.06671472
0.06661884
0.06651894
0.0664143
0.06630431
0.06618838
0.066066
0.06593662
0.06579972
0.06565485
0.06550167
0.06534013
0.06516988
0.06498994
0.06479941
0.06459758
0.06438372
0.06415709
0.063917
0.06366281
0.06339397
0.06311002
0.06281061
0.06249547
0.06216442
0.06181738
0.06145435
0.06107536
0.06068055
0.06027009
0.05984421
0.05940321
0.05894742
0.05847719
0.05799294
0.0574951
0.05698413
0.05646051
0.05592477
0.05537744
0.05481906
0.05425018
0.05367138
0.05308319
0.0524862
0.05188099
0.05126808
0.05064802
0.05002134
0.04938858
0.0487503
0.04810699
0.04745919
0.04680732
0.04615183
0.04549298
0.04483124
0.04416672
0.04350023
0.04283179
0.04216283
0.0414932
0.0408225
0.04015214
0.03948251
0.03881427
0.03814786
0.03748333
0.03681987
0.03615819
0.03550023
0.03484842
0.03420336
0.03356584
0.03293675
0.03231694
0.03170718
0.03110827
0.03052095
0.02994592
0.02938384
0.02883534
0.02830095
0.02778112
0.02727621
0.02678651
0.02631221
0.02585343
0.0254102
0.02498247
0.0245701
0.02417287
0.02379048
0.02342263
0.02306904
0.02272977
0.02240533
0.02209678
0.0218047
0.02152803
0.02126464
0.02101453
0.02077721
0.02055179
0.02033742
0.02013337
0.01993895
0.0197535
0.01957638
0.019407
0.01924476
0.01908911
0.01893951
0.01879546
0.01865649
0.01852217
0.01839211
0.01826596
0.01814343
0.01802424
0.0179082
0.01779514
0.01768495
0.01757753
0.01747287
0.01737094
0.01727182
0.01717551
0.01708223
0.01699188
0.01690498
0.01682089
0.01674048
0.01666316
0.01658988
0.01652112
0.01645692
0.01639709
0.01634155
0.01629033
0.01624348
0.01620111
0.0161633
0.01613016
0.01610172
0.016078
0.01605895
0.01604454
0.01603466
0.01602921
0.01602805
0.01603102
0.01603793
0.01604859
0.01606276
0.01608021
0.01610068
0.01612392
0.01614963
0.01617755
0.01620738
0.01623884
0.01627163
0.01630546
0.01634007
0.01637517
0.0164105
0.01644581
0.01648087
0.01651545
0.01654936
0.01658241
0.01661443
0.01664529
0.01667483
0.01670292
0.01672942
0.01675414
0.0167769
0.01679753
0.01681599
0.01683234
0.01684666
0.01685895
0.01686933
0.01687809
0.01688549
0.01689102
0.01689446
0.01689608
0.0168962
0.0168951
0.016893
0.01689004
0.01688636
0.01688207
0.01687728
0.01687207
0.01686655
0.01686081
0.01685493
0.016849
0.01684311
0.01683732
0.01683169
0.01682628
0.01682114
0.01681631
0.01681183
0.01680773
0.01680403
0.01680075
0.01679793
0.01679556
0.01679367
0.01679226
0.01679133
0.01679088
0.01679092
0.01679145
0.01679247
0.01679396
0.01679594
0.01679838
0.01680129
0.01680466
0.01680849
0.01681275
0.01681745
0.01682257
0.01682811
0.01683404
0.01684037
0.01684708
0.01685415
0.01686157
0.01686933
0.01687742
0.01688582
0.01689452
0.01690351
0.01691277
0.01692229
0.01693206
0.01694207
0.0169523
0.01696275
0.01697341
0.01698427
0.01699533
0.01700658
0.01701801
0.01702963
0.01704144
0.01705342
0.01706561
0.01707797
0.01709055
0.01710331
0.0171163
0.01712948
0.01714289
0.01715644
0.01717021
0.01718407
0.01719822
0.01721271
0.01722803
0.01724508
0.01726447
0.01728672
0.04447369
0.04659238
0.048676
0.05944609
0.07529228
0.1010303
0.1193119
0.1385034
0.1589047
0.1794273
0.2003698
0.2228881
0.2464478
0.2698607
0.2935054
0.3192724
0.3564755
0.3713459
0.3851091
0.3976477
0.4094932
0.4189488
0.4252427
0.429585
0.43244
0.4340616
0.4346219
0.4343507
0.4334777
0.4322762
0.4308598
0.4292156
0.4274781
0.4254315
0.4233689
0.4214571
0.419468
0.4173473
0.4150474
0.412503
0.4098263
0.4066923
0.4023664
0.3981636
0.3938148
0.3892399
0.3844659
0.3797511
0.3759516
0.37349
0.3725285
0.3730679
0.3749431
0.3778756
0.3814776
0.3853089
0.3888949
0.3917954
0.3936824
0.3943757
0.3938284
0.3920667
0.3891703
0.385238
0.3803804
0.3747436
0.3685279
0.3620197
0.3551283
0.3478869
0.3403584
0.3326121
0.3247441
0.3168631
0.3090751
0.3014654
0.2941056
0.287025
0.2802542
0.273765
0.2675022
0.2614032
0.2555347
0.249908
0.2444504
0.2391116
0.233861
0.2286828
0.2235724
0.2185316
0.2135672
0.2086941
0.203933
0.1993437
0.1948839
0.1904703
0.1860871
0.1817116
0.1773127
0.1728423
0.1682306
0.1633895
0.158244
0.15272
0.1467724
0.1404203
0.1338117
0.1271972
0.1208003
0.1148366
0.1095543
0.1051698
0.1018314
0.09959406
0.09840916
0.09812523
0.09855556
0.09945608
0.1004498
0.1012885
0.101782
0.1017361
0.1010081
0.09956122
0.09748681
0.09498627
0.09230777
0.08967339
0.0872435
0.0851148
0.08333111
0.08189259
0.08078203
0.07997958
0.07945424
0.07917265
0.0790976
0.07919308
0.07943151
0.0797867
0.0802292
0.08072967
0.0812621
0.08180655
0.08236529
0.08292071
0.08345846
0.08396765
0.08443962
0.08486788
0.08524821
0.08557845
0.08585774
0.08608623
0.08626539
0.08639836
0.08648915
0.08654078
0.08655819
0.08654733
0.08650721
0.08642997
0.08630596
0.08612426
0.08587258
0.08554974
0.08517317
0.08475947
0.08431909
0.08385731
0.08337826
0.082886
0.08238449
0.08187771
0.0813696
0.08086391
0.08036397
0.07987281
0.07939336
0.07892803
0.07847898
0.07804782
0.07763609
0.07724526
0.07687613
0.07652868
0.07620243
0.07589671
0.07561067
0.07534331
0.07509345
0.07485966
0.07464019
0.07443321
0.0742372
0.07405077
0.07387233
0.07370008
0.07353221
0.073367
0.07320296
0.07303876
0.07287321
0.07270515
0.07253357
0.07235765
0.07217672
0.07199023
0.07179767
0.07159858
0.07139251
0.07117904
0.07095779
0.07072846
0.07049082
0.07024455
0.06998901
0.06972356
0.06944765
0.06916077
0.06886244
0.06855219
0.06822958
0.06789423
0.0675458
0.06718402
0.06680869
0.06641966
0.06601684
0.06560022
0.06516983
0.06472575
0.06426812
0.06379715
0.06331306
0.06281615
0.06230673
0.06178513
0.06125172
0.0607069
0.06015107
0.05958466
0.05900811
0.05842189
0.05782646
0.05722228
0.05660979
0.05598947
0.0553618
0.05472723
0.05408623
0.05343926
0.05278681
0.05212937
0.0514674
0.0508014
0.05013178
0.04945899
0.04878335
0.04810526
0.04742499
0.04674307
0.0460599
0.04537625
0.04469257
0.04400913
0.04332598
0.04264353
0.04196217
0.04128223
0.04060396
0.03992753
0.03925324
0.03858142
0.03791171
0.03724546
0.03658496
0.03593105
0.03528458
0.03464636
0.0340172
0.03339789
0.03278921
0.03219192
0.03160675
0.03103435
0.03047535
0.02993025
0.02939954
0.02888357
0.02838267
0.02789704
0.02742682
0.02697205
0.02653271
0.02610871
0.02569996
0.02530641
0.02492813
0.02456537
0.02421861
0.02388824
0.02357403
0.02327493
0.02298914
0.02271588
0.02245544
0.02220726
0.02197062
0.02174479
0.02152914
0.02132302
0.02112582
0.02093694
0.02075581
0.02058186
0.02041458
0.02025345
0.02009801
0.01994782
0.01980251
0.01966172
0.01952513
0.0193925
0.0192636
0.01913826
0.01901634
0.01889776
0.01878246
0.01867045
0.01856171
0.01845636
0.01835439
0.01825596
0.01816094
0.01806961
0.01798225
0.01789902
0.01781988
0.01774496
0.0176745
0.01760884
0.01754818
0.01749261
0.0174422
0.01739704
0.01735719
0.01732268
0.01729353
0.01726971
0.01725119
0.0172379
0.01722974
0.01722661
0.01722835
0.0172348
0.01724576
0.017261
0.0172803
0.0173034
0.01733
0.01735983
0.01739259
0.01742794
0.01746559
0.0175052
0.01754645
0.01758902
0.0176326
0.01767687
0.01772154
0.01776633
0.01781097
0.01785519
0.01789877
0.01794149
0.01798313
0.01802351
0.01806243
0.01809973
0.01813521
0.01816869
0.01820001
0.01822909
0.0182559
0.01828045
0.01830277
0.01832291
0.01834091
0.01835676
0.01837041
0.01838192
0.01839151
0.01839931
0.01840545
0.01841004
0.01841323
0.01841518
0.01841604
0.01841595
0.01841504
0.01841345
0.01841128
0.01840866
0.01840568
0.01840247
0.0183991
0.01839566
0.01839223
0.01838888
0.01838566
0.01838265
0.01837987
0.01837738
0.01837521
0.01837339
0.01837195
0.01837092
0.0183703
0.01837012
0.01837038
0.0183711
0.01837228
0.01837392
0.01837602
0.01837859
0.01838162
0.01838511
0.01838905
0.01839344
0.01839827
0.01840354
0.01840923
0.01841533
0.01842184
0.01842874
0.01843602
0.01844367
0.01845168
0.01846003
0.01846871
0.01847771
0.01848702
0.01849662
0.0185065
0.01851665
0.01852706
0.01853772
0.01854861
0.01855974
0.01857109
0.01858265
0.01859442
0.0186064
0.01861859
0.01863098
0.01864357
0.01865637
0.01866938
0.01868261
0.01869606
0.01870975
0.01872369
0.01873788
0.01875235
0.0187671
0.01878216
0.01879756
0.01881342
0.01882988
0.01884717
0.01886579
0.01888555
0.01890601
0.02269141
0.02574551
0.027804
0.0388059
0.05122851
0.06693904
0.07929754
0.09263946
0.1064794
0.1205544
0.1354274
0.1524715
0.170519
0.190306
0.2139144
0.2494668
0.2659415
0.2829236
0.2998782
0.3167633
0.3334131
0.3496227
0.3651508
0.3797047
0.3928326
0.4040817
0.413755
0.4227966
0.4302633
0.4358668
0.4392463
0.4409012
0.4409647
0.4396829
0.4374134
0.4344305
0.4309956
0.4272176
0.423207
0.4192781
0.4154938
0.4115878
0.4083639
0.4054653
0.4028666
0.4005869
0.3985539
0.3966488
0.3947249
0.3926406
0.3901936
0.3872611
0.3836479
0.3795334
0.3750694
0.3703272
0.3656629
0.361997
0.360035
0.3601267
0.3623633
0.3666748
0.3727858
0.3802325
0.3884419
0.396777
0.4045634
0.4111968
0.416248
0.4195177
0.4210111
0.4208173
0.4190244
0.4157378
0.4111275
0.4054372
0.398998
0.3921662
0.3849299
0.3773566
0.3695005
0.3614249
0.3532209
0.3449987
0.3368699
0.3289304
0.3212561
0.3138835
0.3068311
0.3000804
0.2935818
0.2872721
0.2810839
0.2750012
0.2690772
0.2632956
0.2576192
0.2520298
0.2465209
0.241094
0.2357617
0.2305832
0.2255505
0.220582
0.2156484
0.2107336
0.2058219
0.2008977
0.1959415
0.1909232
0.1858021
0.1805166
0.1750076
0.169222
0.1631117
0.156681
0.1500143
0.1432498
0.1365232
0.1299705
0.1237596
0.1180739
0.1130772
0.1088844
0.1055594
0.1031134
0.101513
0.100659
0.1004023
0.1005772
0.1010012
0.1014371
0.1016851
0.1016221
0.1011409
0.1001933
0.09881666
0.09711807
0.09524283
0.0933404
0.09153845
0.08992674
0.08855701
0.08744968
0.0866016
0.08600147
0.08563606
0.08548413
0.08552008
0.08571508
0.0860371
0.08645324
0.08693189
0.08744314
0.08796981
0.08850336
0.08902617
0.08952452
0.0899884
0.09041231
0.09079287
0.09112852
0.09141889
0.09166445
0.09186663
0.09202765
0.09215017
0.09223592
0.09228729
0.09230716
0.09229528
0.09224787
0.09215924
0.09202297
0.09183264
0.0915858
0.09128757
0.09094472
0.0905654
0.09015483
0.08971745
0.0892576
0.08877955
0.08828759
0.08778605
0.08727912
0.08677059
0.08626386
0.0857619
0.08526611
0.08477913
0.08430377
0.08384224
0.08339622
0.08296736
0.0825564
0.08216366
0.08178921
0.08143289
0.08109419
0.08077236
0.08046636
0.08017451
0.07989482
0.07962572
0.07936588
0.07911365
0.07886708
0.07862423
0.07838327
0.07814267
0.07790107
0.07765725
0.07741014
0.07715885
0.07690266
0.07664097
0.07637329
0.07609917
0.07581822
0.07553007
0.07523439
0.07493093
0.07461947
0.07429982
0.07397177
0.07363499
0.0732891
0.0729338
0.07256881
0.07219389
0.07180883
0.07141344
0.07100756
0.07059106
0.07016388
0.06972594
0.06927724
0.06881778
0.06834762
0.06786683
0.06737553
0.06687388
0.06636204
0.06584022
0.06530867
0.06476762
0.06421733
0.06365805
0.06309006
0.06251364
0.06192907
0.06133666
0.0607367
0.06012953
0.05951543
0.05889469
0.0582676
0.05763447
0.05699559
0.05635134
0.05570209
0.05504822
0.05439014
0.05372821
0.05306283
0.05239437
0.05172321
0.05104965
0.05037401
0.04969658
0.04901777
0.04833799
0.04765774
0.04697744
0.04629742
0.0456179
0.04493911
0.04426129
0.04358466
0.04290947
0.04223593
0.04156428
0.04089466
0.04022735
0.03956266
0.03890046
0.03824239
0.03758976
0.03694333
0.0363039
0.03567224
0.03504917
0.03443548
0.03383196
0.03323935
0.03265836
0.03208967
0.03153386
0.03099147
0.03046297
0.02994874
0.0294491
0.02896429
0.02849449
0.0280398
0.02760032
0.02717615
0.02676742
0.02637435
0.02599721
0.02563624
0.02529133
0.02496195
0.02464722
0.02434609
0.02405739
0.02378108
0.02351721
0.02326512
0.02302416
0.02279372
0.02257319
0.02236198
0.02215952
0.02196526
0.02177864
0.02159915
0.02142631
0.02125966
0.02109876
0.02094324
0.02079274
0.02064696
0.02050563
0.02036852
0.02023544
0.02010626
0.01998088
0.01985923
0.01974129
0.01962707
0.01951659
0.01940989
0.01930706
0.01920825
0.01911354
0.01902293
0.01893654
0.01885463
0.01877751
0.01870542
0.01863856
0.01857705
0.01852102
0.0184706
0.01842587
0.01838693
0.01835381
0.01832654
0.01830512
0.01828951
0.01827965
0.01827545
0.01827678
0.01828349
0.0182954
0.0183123
0.01833396
0.01836012
0.0183905
0.0184248
0.01846271
0.01850389
0.01854799
0.01859468
0.0186436
0.01869439
0.01874671
0.0188002
0.01885453
0.01890937
0.01896441
0.01901935
0.0190739
0.01912779
0.01918077
0.01923259
0.01928303
0.01933187
0.0193789
0.01942393
0.01946679
0.01950736
0.01954557
0.01958136
0.0196147
0.01964556
0.01967393
0.0196998
0.0197232
0.01974417
0.01976283
0.01977928
0.01979365
0.01980608
0.01981671
0.0198257
0.01983319
0.01983932
0.01984423
0.01984807
0.01985095
0.01985301
0.01985437
0.01985516
0.01985548
0.01985543
0.01985512
0.01985463
0.01985404
0.01985343
0.01985287
0.0198524
0.0198521
0.019852
0.01985214
0.01985256
0.0198533
0.01985438
0.01985581
0.01985762
0.01985983
0.01986244
0.01986546
0.01986891
0.01987277
0.01987706
0.01988178
0.01988691
0.01989247
0.01989844
0.01990481
0.01991159
0.01991875
0.0199263
0.01993422
0.01994251
0.01995114
0.01996012
0.01996942
0.01997904
0.01998897
0.01999919
0.0200097
0.02002048
0.02003152
0.02004282
0.02005436
0.02006615
0.02007816
0.0200904
0.02010286
0.02011554
0.02012844
0.02014156
0.02015489
0.02016844
0.02018223
0.02019625
0.02021051
0.02022503
0.02023982
0.0202549
0.02027028
0.02028599
0.02030208
0.02031858
0.0203356
0.02035324
0.02037167
0.02039111
0.02041124
0.02043079
0.005932315
0.02197926
0.03139056
0.04248511
0.05503091
0.06925985
0.08509859
0.1019443
0.1200616
0.1410492
0.1718933
0.1871872
0.2026723
0.2178183
0.232706
0.2473121
0.2616366
0.27565
0.2892831
0.3025279
0.31542
0.3302601
0.3450229
0.3595071
0.3735469