/*--------------------------------*- C++ -*----------------------------------*\
| =========                 |                                                 |
| \\      /  F ield         | foam-extend: Open Source CFD                    |
|  \\    /   O peration     | Version:     3.1                                |
|   \\  /    A nd           | Web:         http://www.extend-project.de       |
|    \\/     M anipulation  |                                                 |
\*---------------------------------------------------------------------------*/
FoamFile
{
    version     2.0;
    format      ascii;
    class       volScalarField;
    location    "7.5";
    object      p;
}
// * * * * * * * * * * * * * * * * * * * * * * * * * * * * * * * * * * * * * //

dimensions      [1 -1 -2 0 0 0 0];

internalField   nonuniform List<scalar> 
119952
(
8029.32
8016.089
8014.631
8023.517
8033.421
8035.578
8039.28
8043.531
8048.347
8053.674
8059.458
8065.644
8072.175
8078.991
8086.027
8093.214
8100.474
8107.696
8114.57
8119.465
8141.028
8142.459
8147.713
8173.11
8177.143
8185.174
8192.868
8203.061
8224.258
8906.999
6838.13
6934.827
7029.206
7133.514
7237.015
7343.116
7427.183
7457.169
7433.168
7397.092
7402.114
7432.992
7451.215
7465.647
7483.128
7504.536
7528.032
7552.506
7578.339
7579.551
7601.877
7623.722
7642.67
7658.911
7672.517
7683.823
7693.183
7700.906
7707.02
7711.943
7716.459
7720.119
7723.335
7726.246
7728.987
7731.679
7734.498
7738.104
7743.495
7743.931
7747.2
7751.414
7755.904
7760.018
7764.44
7769.344
7774.733
7780.601
7786.913
7793.622
7800.675
7808.013
7815.571
7823.286
7831.085
7838.892
7846.636
7854.37
7862.794
7870.742
7878.293
7888.268
7898.721
7906.678
7914.534
7921.968
7926.516
7922.654
7925.545
7931.015
7935.855
7940.215
7944.102
7947.559
7950.614
7953.293
7955.619
7957.612
7959.297
7960.697
7961.833
7962.732
7963.416
7963.91
7964.236
7964.417
7964.47
7964.416
7964.274
7964.061
7963.796
7963.492
7963.165
7962.828
7962.494
7962.173
7961.874
7961.608
7961.382
7961.204
7961.079
7961.012
7961.008
7961.07
7961.198
7961.395
7961.661
7961.994
7962.394
7962.858
7963.385
7963.97
7964.607
7965.289
7966.002
7966.747
7967.649
7968.772
7969.94
7970.956
7971.979
7973.006
7974.035
7975.062
7976.078
7977.079
7978.057
7979.005
7979.916
7980.786
7981.607
7982.385
7983.112
7983.772
7984.368
7984.899
7985.364
7985.761
7986.09
7986.353
7986.55
7986.685
7986.76
7986.778
7986.743
7986.661
7986.536
7986.372
7986.177
7985.953
7985.708
7985.449
7985.194
7984.936
7984.686
7984.476
7984.231
7984.007
7983.81
7983.636
7983.487
7983.367
7983.267
7983.166
7983.014
7982.772
7982.861
8015.707
8016.04
8016.482
8017.005
8017.588
8018.177
8018.815
8019.543
8020.33
8021.182
8022.095
8023.07
8024.111
8025.211
8026.37
8027.586
8028.858
8030.183
8031.559
8032.983
8034.452
8035.963
8037.511
8039.089
8040.692
8042.309
8043.931
8045.545
8047.131
8048.665
8050.106
8051.387
8052.39
8052.878
8052.345
8051.169
8058.154
8063.881
8068.796
8073.243
8077.495
8081.606
8085.607
8089.54
8093.428
8097.279
8101.102
8104.904
8108.69
8112.462
8116.223
8119.976
8123.72
8127.458
8131.19
8134.916
8138.638
8142.355
8146.069
8149.781
8153.491
8157.199
8160.908
8164.619
8168.333
8172.056
8175.797
8179.586
8183.333
8186.957
8170.034
8169.127
8167.205
8171.238
8175.076
8178.329
8181.842
8185.545
8189.263
8192.982
8196.748
8200.564
8204.406
8208.279
8212.182
8216.111
8220.066
8224.045
8228.049
8232.077
8236.129
8240.205
8244.305
8248.43
8252.579
8256.752
8260.948
8265.167
8269.407
8273.67
8277.952
8282.255
8286.577
8290.917
8295.274
8299.649
8304.041
8308.451
8312.882
8317.335
8321.818
8326.34
8330.923
8335.589
8340.305
8344.797
8348.735
8352.372
8356.138
8360.026
8363.949
8367.909
8371.769
8374.575
8374.763
8381.191
8385.655
8389.157
8392.863
8396.51
8400.069
8403.606
8407.121
8410.604
8414.049
8417.449
8420.8
8424.101
8427.348
8430.538
8433.669
8436.737
8439.741
8442.678
8445.547
8448.347
8451.075
8453.731
8456.313
8458.822
8461.256
8463.614
8465.895
8468.1
8470.226
8472.275
8474.245
8476.136
8477.948
8479.68
8481.332
8482.904
8484.397
8485.809
8487.142
8488.395
8489.568
8490.662
8491.676
8492.612
8493.469
8494.248
8494.949
8495.573
8496.12
8496.59
8496.984
8497.302
8497.544
8497.71
8497.801
8497.816
8497.755
8497.618
8497.404
8497.111
8496.739
8496.285
8495.746
8495.12
8494.402
8493.586
8492.665
8491.632
8490.473
8489.176
8487.721
8486.083
8484.232
8482.12
8479.691
8476.856
8473.49
8469.378
8464.173
8457.569
8451.054
8454.375
8486.087
5363.861
5264.831
5179.252
5110.618
5059.584
5028.566
5016.337
5021.079
5038.598
5020.847
5075.534
5110.88
5149.756
5189.301
5229.671
5270.428
5311.598
5353.884
5390.873
5432.198
5464.319
5510.566
5558.98
5609.621
5662.774
5718.031
5774.925
5835.463
5896.974
5954.19
6021.632
6091.495
6163.432
6237.97
6316.504
6398.23
6484.169
6573.153
6659.322
6755.512
6852.06
6946.041
7031.461
7097.12
7126.238
7127.13
7124.03
7144.392
7167.405
7182.983
7196.659
7213.37
7234.053
7257.463
7282.345
7309.18
7284.446
7308.107
7326.715
7344.224
7359.698
7372.593
7383.243
7391.944
7399.01
7404.864
7409.567
7413.49
7416.825
7419.733
7422.368
7424.879
7427.408
7430.104
7433.054
7436.112
7438.792
7441.912
7445.617
7449.677
7453.92
7458.437
7463.391
7468.819
7474.708
7481.028
7487.738
7494.784
7502.108
7509.649
7517.348
7525.151
7533.015
7540.928
7548.933
7557.097
7565.3
7573.612
7582.331
7590.982
7598.771
7605.612
7611.234
7615.064
7617.387
7620.676
7625.002
7629.42
7633.514
7637.229
7640.579
7643.567
7646.2
7648.49
7650.457
7652.119
7653.499
7654.621
7655.507
7656.181
7656.665
7656.98
7657.15
7657.194
7657.131
7656.981
7656.761
7656.488
7656.177
7655.843
7655.499
7655.157
7654.827
7654.519
7654.242
7654.004
7653.811
7653.67
7653.585
7653.56
7653.598
7653.7
7653.869
7654.103
7654.402
7654.766
7655.193
7655.68
7656.225
7656.825
7657.478
7658.189
7658.973
7659.854
7660.815
7661.761
7662.72
7663.699
7664.691
7665.687
7666.678
7667.661
7668.627
7669.572
7670.488
7671.37
7672.213
7673.011
7673.759
7674.452
7675.087
7675.664
7676.178
7676.629
7677.016
7677.339
7677.6
7677.8
7677.941
7678.026
7678.059
7678.044
7677.984
7677.885
7677.752
7677.59
7677.404
7677.199
7676.978
7676.756
7676.543
7676.34
7676.147
7675.97
7675.802
7675.659
7675.55
7675.474
7675.453
7675.463
7675.495
7675.615
7675.78
7676.071
7739.264
7739.272
7739.742
7740.339
7740.972
7741.643
7742.368
7743.159
7744.011
7744.924
7745.897
7746.93
7748.022
7749.172
7750.378
7751.638
7752.952
7754.315
7755.727
7757.183
7758.681
7760.217
7761.787
7763.384
7765.004
7766.637
7768.274
7769.903
7771.508
7773.066
7774.548
7775.912
7777.11
7778.145
7779.263
7781.115
7784.874
7789.627
7794.04
7798.267
7802.391
7806.411
7810.354
7814.246
7818.1
7821.923
7825.723
7829.505
7833.273
7837.029
7840.777
7844.517
7848.251
7851.979
7855.703
7859.422
7863.137
7866.849
7870.559
7874.266
7877.972
7881.678
7885.385
7889.093
7892.806
7896.528
7900.261
7904.012
7907.83
7912.309
7856.626
7861.199
7864.091
7866.395
7869.167
7872.518
7876.161
7879.871
7883.58
7887.304
7891.064
7894.87
7898.715
7902.59
7906.493
7910.422
7914.376
7918.356
7922.361
7926.391
7930.445
7934.524
7938.628
7942.756
7946.908
7951.084
7955.284
7959.506
7963.75
7968.015
7972.301
7976.607
7980.932
7985.274
7989.634
7994.011
7998.404
8002.814
8007.242
8011.688
8016.155
8020.642
8025.142
8029.627
8034.049
8038.34
8042.437
8046.371
8050.259
8054.168
8058.079
8061.945
8065.665
8069.019
8071.966
8075.264
8079.248
8083.421
8087.355
8091.025
8094.584
8098.114
8101.619
8105.09
8108.518
8111.897
8115.226
8118.504
8121.729
8124.897
8128.006
8131.053
8134.037
8136.954
8139.803
8142.583
8145.292
8147.93
8150.494
8152.983
8155.398
8157.737
8159.999
8162.184
8164.291
8166.32
8168.269
8170.14
8171.931
8173.642
8175.274
8176.825
8178.296
8179.687
8180.998
8182.229
8183.38
8184.451
8185.444
8186.357
8187.192
8187.949
8188.628
8189.23
8189.754
8190.203
8190.575
8190.871
8191.091
8191.236
8191.306
8191.301
8191.22
8191.063
8190.829
8190.518
8190.127
8189.656
8189.101
8188.459
8187.727
8186.898
8185.968
8184.927
8183.767
8182.472
8181.03
8179.416
8177.611
8175.572
8173.276
8170.659
8167.725
8164.482
8161.252
8158.626
8157.79
8159.257
8163.574
3995.5
4243.404
4515.754
4807.166
5110.684
5421.788
5737.893
6044.077
6339.228
6618.217
6858.26
7085.089
7280.034
7436.7
7552.613
7627.173
7662.063
7660.418
7628.682
7515.008
7437.863
7342.547
7236.599
7122.671
7001.971
6876.244
6747.478
6617.005
6487.261
6346.289
6208.485
6064.95
5918.029
5768.661
5618.482
5470.254
5328.01
5196.629
5071.084
4959.966
4869.425
4802.075
4754.72
4727.474
4718.836
4727.3
4748.574
4777.341
4814.751
4854.61
4894.294
4934.349
4974.389
5014.357
5054.223
5095.533
5087.191
5132.138
5172.763
5217.285
5264.988
5314.733
5366.551
5420.544
5476.886
5535.393
5596.502
5660.365
5726.242
5794.334
5865.309
5939.345
6016.404
6096.475
6179.481
6264.217
6349.285
6433.58
6516.116
6594.098
6662.528
6717.273
6754.5
6777.294
6797.13
6823.499
6849.034
6869.982
6891.877
6916.267
6942.546
6971.216
7000.917
7030.485
7058.361
7077.624
7093.659
7108.393
7121.78
7133.406
7143.054
7150.972
7157.48
7162.918
7167.424
7171.102
7174.124
7176.724
7179.079
7181.326
7183.578
7185.945
7188.486
7191.183
7193.861
7196.837
7200.294
7204.129
7208.234
7212.713
7217.612
7222.977
7228.797
7235.046
7241.687
7248.67
7255.936
7263.429
7271.095
7278.886
7286.768
7294.724
7302.76
7310.898
7319.083
7327.283
7335.551
7343.626
7351.03
7357.585
7363.19
7367.715
7371.281
7375.017
7379.25
7383.528
7387.531
7391.196
7394.525
7397.516
7400.164
7402.478
7404.472
7406.164
7407.574
7408.723
7409.636
7410.334
7410.839
7411.173
7411.357
7411.412
7411.357
7411.21
7410.991
7410.715
7410.399
7410.057
7409.703
7409.347
7409.001
7408.674
7408.376
7408.115
7407.896
7407.726
7407.609
7407.549
7407.55
7407.614
7407.741
7407.932
7408.186
7408.504
7408.883
7409.322
7409.82
7410.375
7410.988
7411.661
7412.396
7413.197
7414.061
7414.951
7415.853
7416.77
7417.702
7418.642
7419.582
7420.518
7421.441
7422.346
7423.227
7424.077
7424.891
7425.663
7426.39
7427.067
7427.69
7428.255
7428.763
7429.211
7429.598
7429.926
7430.194
7430.405
7430.56
7430.663
7430.716
7430.724
7430.691
7430.622
7430.522
7430.397
7430.25
7430.09
7429.921
7429.748
7429.576
7429.41
7429.256
7429.122
7429.013
7428.936
7428.891
7428.876
7428.896
7428.962
7429.086
7429.291
7429.634
7430.153
7431.081
7431.742
7432.235
7432.804
7433.477
7434.223
7435.028
7435.891
7436.822
7437.807
7438.85
7439.948
7441.107
7442.323
7443.595
7444.921
7446.298
7447.725
7449.197
7450.713
7452.269
7453.862
7455.486
7457.138
7458.812
7460.5
7462.195
7463.889
7465.572
7467.233
7468.866
7470.478
7472.105
7473.851
7475.899
7478.488
7481.746
7485.53
7489.526
7493.501
7497.408
7501.269
7505.102
7508.912
7512.703
7516.476
7520.235
7523.981
7527.719
7531.45
7535.175
7538.895
7542.611
7546.324
7550.033
7553.739
7557.444
7561.146
7564.846
7568.546
7572.244
7575.944
7579.643
7583.346
7587.049
7590.76
7594.47
7598.191
7601.901
7605.664
7609.097
7612.028
7615.198
7618.796
7622.624
7626.499
7630.355
7634.184
7637.993
7641.799
7645.618
7649.459
7653.325
7657.212
7661.122
7665.054
7669.008
7672.987
7676.989
7681.015
7685.065
7689.14
7693.239
7697.362
7701.51
7705.681
7709.876
7714.093
7718.333
7722.594
7726.876
7731.178
7735.498
7739.837
7744.192
7748.564
7752.951
7757.352
7761.768
7766.197
7770.636
7775.078
7779.511
7783.917
7788.271
7792.545
7796.701
7800.739
7804.697
7808.633
7812.555
7816.45
7820.328
7824.296
7828.489
7832.469
7836.066
7839.475
7842.865
7846.284
7849.731
7853.188
7856.637
7860.065
7863.465
7866.827
7870.144
7873.414
7876.633
7879.797
7882.903
7885.948
7888.93
7891.847
7894.696
7897.476
7900.186
7902.824
7905.388
7907.878
7910.294
7912.633
7914.896
7917.081
7919.188
7921.216
7923.165
7925.035
7926.825
7928.535
7930.165
7931.714
7933.183
7934.571
7935.88
7937.108
7938.256
7939.324
7940.313
7941.223
7942.054
7942.807
7943.482
7944.079
7944.6
7945.044
7945.412
7945.704
7945.921
7946.063
7946.13
7946.122
7946.039
7945.881
7945.647
7945.336
7944.948
7944.48
7943.931
7943.298
7942.578
7941.766
7940.857
7939.846
7938.722
7937.478
7936.102
7934.579
7932.895
7931.035
7928.986
7926.757
7924.39
7921.998
7919.787
7918.033
7917.038
7917.23
7918.874
2425.365
2440.994
2468.957
2495.356
2550.514
2609.834
2721.6
2867.648
3043.647
3194.9
3330.842
3502.151
3709.206
3943.722
4203.487
4481.072
4770.707
5066.969
5364.38
5658.863
5945.681
6219.635
6471.354
6694.246
6884.622
7037.602
7150.351
7222.301
7255.083
7252.492
7222.739
7060.304
6992.524
6904.735
6798.031
6683.662
6564.392
6442.512
6319.227
6193.909
6065.777
5933.904
5797.886
5657.01
5511.704
5363.232
5213.665
5065.996
4923.956
4791.396
4671.956
4569.554
4486.756
4424.681
4384.229
4364.998
4364.137
4384.447
4415.376
4454.448
4498.738
4544.895
4591.285
4636.808
4680.774
4723.456
4764.981
4808.246
4851.059
4891.996
4931.718
4973.937
5019.55
5067.713
5118.133
5170.86
5225.91
5283.506
5343.653
5405.928
5470.628
5538.029
5608.15
5680.974
5755.792
5832.781
5911.474
5991.06
6070.722
6149.211
6224.953
6296.091
6360.411
6415.484
6459.494
6493.59
6522.877
6553.801
6586.102
6616.622
6645.87
6676.025
6707.29
6737.413
6765.098
6790.425
6815.336
6837.987
6856.866
6872.467
6885.236
6895.621
6904.014
6910.892
6916.623
6921.39
6925.309
6928.508
6931.154
6933.442
6935.533
6937.521
6939.501
6941.594
6943.859
6946.298
6948.875
6951.744
6955.028
6958.715
6962.772
6967.226
6972.138
6977.488
6983.299
6989.545
6996.189
7003.178
7010.452
7017.954
7025.634
7033.446
7041.358
7049.345
7057.395
7065.502
7073.618
7081.688
7089.668
7097.373
7104.534
7111.005
7116.716
7121.64
7125.906
7130.058
7134.31
7138.484
7142.404
7146.014
7149.302
7152.259
7154.881
7157.175
7159.152
7160.828
7162.224
7163.361
7164.262
7164.948
7165.44
7165.76
7165.932
7165.973
7165.903
7165.74
7165.504
7165.211
7164.877
7164.518
7164.147
7163.774
7163.41
7163.065
7162.749
7162.469
7162.231
7162.041
7161.903
7161.821
7161.799
7161.839
7161.941
7162.106
7162.333
7162.622
7162.973
7163.384
7163.854
7164.383
7164.969
7165.613
7166.315
7167.075
7167.889
7168.734
7169.599
7170.482
7171.379
7172.285
7173.194
7174.098
7174.991
7175.868
7176.721
7177.546
7178.336
7179.086
7179.792
7180.45
7181.055
7181.606
7182.1
7182.537
7182.915
7183.235
7183.497
7183.704
7183.857
7183.959
7184.014
7184.025
7183.996
7183.933
7183.841
7183.724
7183.588
7183.439
7183.281
7183.12
7182.961
7182.812
7182.678
7182.565
7182.476
7182.418
7182.393
7182.407
7182.465
7182.579
7182.759
7183.024
7183.395
7183.889
7184.469
7185.004
7185.596
7186.279
7187.033
7187.842
7188.7
7189.618
7190.603
7191.643
7192.754
7193.916
7195.134
7196.408
7197.739
7199.123
7200.558
7202.042
7203.571
7205.143
7206.755
7208.403
7210.084
7211.793
7213.525
7215.276
7217.04
7218.813
7220.591
7222.374
7224.169
7225.999
7227.906
7229.96
7232.256
7234.902
7238
7241.513
7245.23
7249.003
7252.756
7256.503
7260.248
7263.988
7267.721
7271.446
7275.163
7278.875
7282.582
7286.286
7289.987
7293.686
7297.383
7301.078
7304.772
7308.465
7312.156
7315.847
7319.537
7323.227
7326.916
7330.607
7334.298
7337.99
7341.684
7345.38
7349.077
7352.769
7356.455
7360.083
7363.689
7367.379
7371.099
7374.73
7378.292
7381.869
7385.506
7389.197
7392.922
7396.671
7400.447
7404.253
7408.089
7411.953
7415.844
7419.76
7423.702
7427.668
7431.661
7435.678
7439.721
7443.789
7447.881
7451.999
7456.141
7460.308
7464.498
7468.711
7472.946
7477.203
7481.481
7485.779
7490.095
7494.429
7498.78
7503.145
7507.525
7511.917
7516.319
7520.728
7525.14
7529.547
7533.94
7538.306
7542.628
7546.886
7551.06
7555.147
7559.166
7563.151
7567.116
7571.065
7575.008
7578.929
7582.74
7586.372
7589.928
7593.523
7597.158
7600.783
7604.369
7607.915
7611.422
7614.892
7618.321
7621.704
7625.038
7628.321
7631.55
7634.722
7637.835
7640.887
7643.875
7646.796
7649.65
7652.434
7655.147
7657.789
7660.357
7662.85
7665.268
7667.609
7669.874
7672.06
7674.169
7676.198
7678.148
7680.018
7681.808
7683.517
7685.146
7686.694
7688.161
7689.548
7690.854
7692.079
7693.225
7694.29
7695.276
7696.182
7697.009
7697.758
7698.429
7699.023
7699.54
7699.98
7700.344
7700.633
7700.846
7700.985
7701.05
7701.04
7700.956
7700.798
7700.565
7700.258
7699.874
7699.413
7698.874
7698.255
7697.552
7696.764
7695.885
7694.912
7693.839
7692.66
7691.368
7689.957
7688.422
7686.761
7684.983
7683.114
7681.208
7679.35
7677.677
7676.314
7675.474
7675.264
7675.864
2804.242
2728.741
2656.472
2569.389
2490.593
2388.813
2328.229
2273.55
2229.781
2195.238
2170.858
2158.284
2157.993
2172.405
2202.935
2252.65
2273.347
2372.974
2493.212
2631.002
2780.837
2950.802
3145.76
3366.153
3610.402
3874.776
4155.018
4446.064
4742.446
5038.648
5329.448
5610.193
5874.446
6115.967
6329.255
6509.202
6651.68
6754.205
6816.686
6841.27
6831.006
6790.21
6721.188
6643.16
6555.038
6454.596
6344.421
6228.805
6112.864
5996.709
5878.246
5756.377
5629.817
5497.575
5359.087
5214.412
5064.692
4912.206
4760.471
4613.869
4477.316
4355.025
4250.028
4165.231
4103.569
4066.126
4052.868
4062.567
4085.417
4124.263
4173.073
4227.082
4282.401
4336.453
4387.896
4436.288
4481.812
4525.22
4566.776
4607.022
4646.968
4686.812
4728.513
4772.639
4819.296
4868.195
4919.333
4972.827
5028.844
5087.346
5148.295
5211.868
5277.961
5346.354
5416.709
5489.332
5563.111
5637.774
5712.836
5787.569
5861.026
5932.039
5999.266
6061.315
6116.738
6164.747
6205.876
6243.006
6280.23
6317.962
6353.93
6388.214
6422.288
6456.041
6487.873
6517.602
6545.881
6572.762
6596.419
6615.765
6631.546
6644.789
6655.761
6664.431
6671.131
6676.372
6680.477
6683.724
6686.376
6688.604
6690.519
6692.245
6693.909
6695.628
6697.505
6699.563
6701.8
6704.245
6706.998
6710.151
6713.73
6717.733
6722.179
6727.109
6732.448
6738.269
6744.537
6751.212
6758.233
6765.529
6773.045
6780.737
6788.561
6796.48
6804.468
6812.501
6820.559
6828.599
6836.55
6844.328
6851.799
6858.794
6865.203
6870.981
6876.147
6880.814
6885.25
6889.58
6893.731
6897.613
6901.184
6904.429
6907.343
6909.924
6912.178
6914.116
6915.756
6917.116
6918.226
6919.105
6919.765
6920.228
6920.52
6920.666
6920.68
6920.582
6920.392
6920.129
6919.811
6919.454
6919.072
6918.681
6918.29
6917.908
6917.545
6917.213
6916.917
6916.664
6916.459
6916.305
6916.207
6916.168
6916.191
6916.275
6916.42
6916.627
6916.896
6917.225
6917.614
6918.063
6918.569
6919.134
6919.754
6920.43
6921.157
6921.932
6922.741
6923.575
6924.429
6925.297
6926.175
6927.055
6927.931
6928.797
6929.646
6930.473
6931.271
6932.036
6932.762
6933.444
6934.079
6934.663
6935.194
6935.668
6936.087
6936.448
6936.752
6937
6937.193
6937.334
6937.426
6937.471
6937.474
6937.44
6937.372
6937.276
6937.157
6937.021
6936.874
6936.719
6936.562
6936.41
6936.269
6936.145
6936.042
6935.967
6935.924
6935.919
6935.957
6936.044
6936.189
6936.399
6936.688
6937.061
6937.52
6938.053
6938.648
6939.306
6940.023
6940.797
6941.629
6942.519
6943.47
6944.473
6945.545
6946.68
6947.883
6949.147
6950.465
6951.841
6953.272
6954.755
6956.289
6957.869
6959.494
6961.159
6962.862
6964.599
6966.368
6968.164
6969.984
6971.826
6973.688
6975.572
6977.482
6979.431
6981.441
6983.545
6985.791
6988.24
6990.957
6993.99
6997.312
7000.827
7004.432
7008.077
7011.734
7015.402
7019.077
7022.758
7026.44
7030.121
7033.801
7037.481
7041.161
7044.841
7048.52
7052.2
7055.879
7059.558
7063.238
7066.917
7070.596
7074.275
7077.955
7081.634
7085.314
7088.995
7092.677
7096.359
7100.041
7103.721
7107.396
7111.061
7114.714
7118.387
7122.056
7125.643
7129.185
7132.752
7136.383
7140.072
7143.799
7147.55
7151.32
7155.11
7158.924
7162.763
7166.628
7170.517
7174.43
7178.368
7182.332
7186.32
7190.333
7194.372
7198.435
7202.524
7206.638
7210.776
7214.939
7219.126
7223.336
7227.568
7231.822
7236.097
7240.392
7244.705
7249.035
7253.381
7257.74
7262.113
7266.495
7270.884
7275.277
7279.669
7284.052
7288.42
7292.761
7297.062
7301.311
7305.498
7309.619
7313.685
7317.712
7321.71
7325.68
7329.615
7333.492
7337.299
7341.063
7344.794
7348.491
7352.151
7355.77
7359.348
7362.891
7366.398
7369.869
7373.3
7376.687
7380.026
7383.314
7386.548
7389.725
7392.843
7395.9
7398.892
7401.818
7404.677
7407.466
7410.183
7412.829
7415.401
7417.898
7420.319
7422.664
7424.931
7427.12
7429.23
7431.26
7433.211
7435.082
7436.871
7438.581
7440.208
7441.755
7443.221
7444.606
7445.909
7447.132
7448.274
7449.336
7450.317
7451.22
7452.043
7452.788
7453.454
7454.043
7454.555
7454.991
7455.35
7455.635
7455.845
7455.98
7456.042
7456.03
7455.946
7455.788
7455.557
7455.253
7454.875
7454.423
7453.896
7453.292
7452.611
7451.849
7451.006
7450.078
7449.062
7447.955
7446.757
7445.464
7444.081
7442.614
7441.08
7439.509
7437.948
7436.464
7435.145
7434.085
7433.402
7433.127
7433.364
3839.63
3684.893
3537.217
3379.982
3250.591
3077.399
2958.055
2845.248
2738.385
2636.338
2541.569
2453.167
2368.419
2288.931
2212.807
2071.358
2010.959
1958.286
1913.851
1878.635
1853.674
1839.381
1836.319
1846.36
1871.444
1913.89
1972.016
2057.847
2163.927
2290.742
2438.011
2608.929
2806.137
3029.231
3274.553
3538.329
3816.095
4103.013
4394.268
4684.371
4968.021
5243.821
5500.451
5735.626
5943.418
6118.679
6257.236
6356.775
6417.311
6441.216
6431.863
6395.597
6336.893
6264.369
6182.95
6090.729
5988.567
5881.968
5775.965
5669.52
5559.308
5444.729
5324.075
5195.707
5058.781
4913.135
4759.726
4601.301
4442.205
4287.88
4144.289
4016.411
3907.715
3820.316
3757.108
3720.992
3712.138
3727.421
3762.263
3813.111
3874.236
3940.234
4006.491
4069.88
4128.851
4182.989
4232.499
4278.027
4320.214
4360.39
4399.829
4439.271
4479.874
4522.592
4567.505
4614.543
4663.753
4715.303
4769.399
4826.166
4885.651
4947.816
5012.524
5079.419
5148.044
5217.971
5288.698
5359.921
5431.216
5501.976
5571.498
5639.021
5703.614
5764.329
5820.408
5871.444
5917.804
5961.137
6003.445
6045.062
6085.118
6123.641
6161.211
6197.822
6232.731
6265.771
6296.888
6325.249
6349.846
6370.611
6387.916
6402.125
6413.638
6422.758
6429.927
6435.522
6439.653
6442.708
6445.043
6446.886
6448.392
6449.701
6450.996
6452.414
6454.033
6455.882
6457.944
6460.242
6462.871
6465.91
6469.396
6473.342
6477.752
6482.615
6488.016
6493.859
6500.151
6506.872
6513.935
6521.245
6528.758
6536.439
6544.244
6552.137
6560.086
6568.061
6576.029
6583.943
6591.741
6599.348
6606.662
6613.565
6619.971
6625.846
6631.206
6636.116
6640.706
6645.065
6649.192
6653.037
6656.565
6659.761
6662.621
6665.146
6667.344
6669.226
6670.807
6672.111
6673.174
6674.025
6674.658
6675.086
6675.353
6675.478
6675.464
6675.333
6675.11
6674.817
6674.47
6674.088
6673.685
6673.275
6672.869
6672.467
6672.088
6671.745
6671.439
6671.176
6670.96
6670.795
6670.687
6670.638
6670.651
6670.724
6670.856
6671.047
6671.299
6671.611
6671.983
6672.413
6672.901
6673.446
6674.045
6674.697
6675.397
6676.14
6676.919
6677.724
6678.551
6679.392
6680.242
6681.095
6681.943
6682.782
6683.604
6684.404
6685.175
6685.913
6686.611
6687.267
6687.876
6688.434
6688.939
6689.39
6689.784
6690.122
6690.404
6690.631
6690.805
6690.927
6691.001
6691.031
6691.019
6690.971
6690.891
6690.786
6690.659
6690.517
6690.367
6690.212
6690.054
6689.902
6689.762
6689.641
6689.544
6689.477
6689.445
6689.454
6689.508
6689.613
6689.778
6690.007
6690.31
6690.691
6691.151
6691.691
6692.3
6692.967
6693.692
6694.48
6695.331
6696.245
6697.222
6698.261
6699.37
6700.544
6701.786
6703.087
6704.454
6705.875
6707.351
6708.881
6710.463
6712.094
6713.77
6715.49
6717.251
6719.049
6720.881
6722.746
6724.642
6726.567
6728.523
6730.513
6732.543
6734.627
6736.784
6739.039
6741.426
6743.987
6746.758
6749.759
6752.975
6756.357
6759.843
6763.389
6766.969
6770.582
6774.189
6777.819
6781.461
6785.107
6788.757
6792.411
6796.067
6799.726
6803.387
6807.049
6810.712
6814.377
6818.042
6821.708
6825.375
6829.042
6832.71
6836.378
6840.047
6843.716
6847.385
6851.055
6854.723
6858.39
6862.052
6865.712
6869.367
6873.017
6876.641
6880.232
6883.824
6887.448
6891.111
6894.806
6898.525
6902.268
6906.031
6909.815
6913.623
6917.456
6921.314
6925.197
6929.105
6933.038
6936.996
6940.979
6944.988
6949.023
6953.083
6957.168
6961.279
6965.415
6969.575
6973.76
6977.968
6982.198
6986.451
6990.724
6995.016
6999.327
7003.655
7007.997
7012.353
7016.719
7021.094
7025.474
7029.855
7034.233
7038.601
7042.952
7047.278
7051.569
7055.818
7060.016
7064.163
7068.262
7072.32
7076.343
7080.33
7084.277
7088.179
7092.041
7095.862
7099.633
7103.353
7107.029
7110.667
7114.269
7117.836
7121.366
7124.856
7128.303
7131.704
7135.055
7138.354
7141.598
7144.784
7147.91
7150.975
7153.974
7156.908
7159.773
7162.568
7165.292
7167.943
7170.52
7173.022
7175.448
7177.796
7180.067
7182.259
7184.371
7186.404
7188.356
7190.228
7192.018
7193.727
7195.354
7196.9
7198.364
7199.746
7201.047
7202.267
7203.405
7204.463
7205.441
7206.339
7207.157
7207.897
7208.558
7209.142
7209.649
7210.079
7210.434
7210.714
7210.919
7211.051
7211.11
7211.096
7211.01
7210.852
7210.624
7210.324
7209.952
7209.51
7208.996
7208.411
7207.752
7207.021
7206.216
7205.335
7204.38
7203.35
7202.245
7201.071
7199.832
7198.542
7197.22
7195.894
7194.604
7193.404
7192.356
7191.528
7190.984
7190.74
7190.877
4290.296
4214.568
4079.143
3899.606
3714.753
3542.363
3380.733
3231.764
3093.552
2959.038
2748.664
2630.46
2519.199
2413.368
2312.945
2218.015
2128.623
2043.985
1963.702
1890.073
1822.355
1760.664
1705.789
1658.346
1618.973
1588.677
1568.452
1559.401
1563.088
1581.981
1618.634
1673.377
1749.475
1847.509
1968.496
2113.405
2284.037
2480.448
2701.363
2943.709
3204.087
3478.095
3760.674
4047.536
4331.829
4609.017
4874.628
5122.205
5347.351
5545.041
5710.543
5840.246
5932.513
5988.142
6010.307
6003.023
5972.294
5923.271
5859.352
5784.297
5700.54
5610.808
5518.889
5426.725
5332.41
5232.181
5126.16
5011.782
4886.828
4750.236
4601.576
4441.617
4273.844
4103.68
3938.263
3785.337
3650.483
3536.694
3445.419
3379.737
3344.653
3342.659
3368.756
3418.634
3485.785
3563.575
3645.53
3726.029
3801.335
3869.718
3930.818
3984.993
4032.98
4075.808
4115.054
4152.615
4190.196
4229.128
4270.017
4312.884
4357.684
4404.552
4453.776
4505.698
4560.584
4618.538
4679.477
4743.039
4808.603
4875.465
4943.079
5011.055
5079.097
5146.939
5214.276
5280.697
5345.784
5408.901
5469.315
5526.517
5580.302
5630.876
5678.963
5725.426
5770.697
5814.578
5856.961
5897.96
5937.552
5975.269
6010.675
6043.424
6073.008
6099.146
6121.892
6141.149
6156.931
6169.771
6180.048
6187.983
6194.013
6198.514
6201.798
6204.211
6206.016
6207.35
6208.392
6209.379
6210.473
6211.755
6213.273
6215.071
6217.184
6219.67
6222.593
6225.989
6229.872
6234.248
6239.113
6244.472
6250.293
6256.569
6263.277
6270.326
6277.615
6285.097
6292.741
6300.502
6308.337
6316.213
6324.095
6331.938
6339.693
6347.317
6354.758
6361.94
6368.78
6375.205
6381.182
6386.701
6391.778
6396.459
6400.823
6404.918
6408.721
6412.2
6415.343
6418.145
6420.611
6422.747
6424.565
6426.082
6427.315
6428.29
6429.036
6429.578
6429.94
6430.175
6430.293
6430.264
6430.103
6429.847
6429.524
6429.152
6428.748
6428.328
6427.912
6427.508
6427.085
6426.684
6426.339
6426.034
6425.768
6425.548
6425.378
6425.264
6425.21
6425.222
6425.294
6425.419
6425.601
6425.843
6426.144
6426.503
6426.921
6427.395
6427.924
6428.506
6429.138
6429.816
6430.535
6431.288
6432.068
6432.868
6433.684
6434.507
6435.333
6436.155
6436.965
6437.759
6438.529
6439.27
6439.977
6440.645
6441.269
6441.846
6442.373
6442.846
6443.265
6443.628
6443.935
6444.186
6444.383
6444.527
6444.621
6444.667
6444.67
6444.633
6444.561
6444.459
6444.332
6444.187
6444.028
6443.868
6443.705
6443.54
6443.382
6443.239
6443.116
6443.02
6442.956
6442.932
6442.952
6443.017
6443.135
6443.312
6443.555
6443.87
6444.259
6444.725
6445.267
6445.878
6446.553
6447.294
6448.102
6448.977
6449.918
6450.926
6452
6453.143
6454.351
6455.627
6456.971
6458.375
6459.841
6461.363
6462.94
6464.572
6466.254
6467.985
6469.762
6471.583
6473.444
6475.344
6477.282
6479.255
6481.266
6483.314
6485.406
6487.547
6489.749
6492.029
6494.405
6496.903
6499.547
6502.36
6505.35
6508.508
6511.807
6515.207
6518.674
6522.184
6525.717
6529.3
6532.895
6536.5
6540.111
6543.732
6547.361
6550.995
6554.633
6558.274
6561.919
6565.566
6569.215
6572.866
6576.518
6580.171
6583.825
6587.48
6591.136
6594.793
6598.45
6602.106
6605.763
6609.418
6613.073
6616.725
6620.374
6624.018
6627.653
6631.277
6634.897
6638.525
6642.17
6645.836
6649.523
6653.234
6656.969
6660.726
6664.505
6668.308
6672.135
6675.988
6679.865
6683.768
6687.696
6691.65
6695.63
6699.636
6703.667
6707.725
6711.808
6715.917
6720.052
6724.211
6728.395
6732.602
6736.833
6741.085
6745.358
6749.65
6753.96
6758.287
6762.628
6766.982
6771.345
6775.715
6780.089
6784.464
6788.833
6793.191
6797.534
6801.853
6806.142
6810.395
6814.606
6818.774
6822.898
6826.982
6831.029
6835.04
6839.012
6842.945
6846.836
6850.681
6854.477
6858.227
6861.935
6865.606
6869.239
6872.834
6876.387
6879.896
6883.36
6886.776
6890.141
6893.453
6896.708
6899.906
6903.042
6906.116
6909.125
6912.067
6914.94
6917.743
6920.474
6923.132
6925.715
6928.223
6930.654
6933.008
6935.283
6937.478
6939.594
6941.629
6943.583
6945.456
6947.247
6948.956
6950.583
6952.128
6953.59
6954.97
6956.268
6957.485
6958.619
6959.673
6960.646
6961.539
6962.352
6963.086
6963.742
6964.319
6964.82
6965.245
6965.594
6965.868
6966.069
6966.196
6966.251
6966.234
6966.147
6965.989
6965.762
6965.466
6965.102
6964.669
6964.169
6963.602
6962.968
6962.268
6961.501
6960.67
6959.775
6958.819
6957.806
6956.743
6955.637
6954.504
6953.363
6952.24
6951.169
6950.193
6949.358
6948.708
6948.29
6948.103
6948.248
4011.221
3888.007
3620.141
3461.679
3303.589
3152.631
3008.768
2871.826
2740.984
2616.156
2498.627
2383.996
2273.778
2167.982
2067.277
1971.443
1880.584
1794.224
1712.145
1635.794
1566.203
1502.269
1444.108
1393.122
1349.978
1315.521
1291.389
1279.228
1280.212
1296.089
1328.467
1379.608
1450.717
1543.69
1660.245
1801.902
1969.162
2161.516
2377.691
2615.216
2871.349
3141.361
3419.761
3701.173
3979.089
4247.945
4502.453
4737.437
4948.405
5131.25
5282.188
5398.924
5480.817
5529.837
5549.922
5545.509
5520.481
5479.416
5425.412
5361.577
5292.892
5220.919
5146.53
5070.6
4989.301
4901.216
4806.072
4698.721
4576.678
4439.101
4285.089
4115.062
3933.836
3748.096
3567.789
3403.656
3261.837
3143.31
3046.35
2975.498
2940.268
2945.059
2986.548
3055.627
3144.703
3245.325
3348.349
3446.41
3535.427
3614.079
3682.479
3741.317
3791.549
3834.312
3871.445
3905.737
3940.134