/*--------------------------------*- C++ -*----------------------------------*\
| =========                 |                                                 |
| \\      /  F ield         | foam-extend: Open Source CFD                    |
|  \\    /   O peration     | Version:     3.1                                |
|   \\  /    A nd           | Web:         http://www.extend-project.de       |
|    \\/     M anipulation  |                                                 |
\*---------------------------------------------------------------------------*/
FoamFile
{
    version     2.0;
    format      ascii;
    class       volScalarField;
    location    "7.5";
    object      pd;
}
// * * * * * * * * * * * * * * * * * * * * * * * * * * * * * * * * * * * * * //

dimensions      [1 -1 -2 0 0 0 0];

internalField   nonuniform List<scalar> 
119952
(
8060.015
8053.504
8051.425
8057.043
8064.133
8066.93
8071.245
8076.109
8081.538
8087.478
8093.875
8100.674
8107.819
8115.248
8122.896
8130.696
8138.57
8146.405
8153.892
8159.4
8176.316
8178.009
8183.521
8203.772
8207.805
8215.836
8223.53
8233.723
8254.953
8937.694
7128.615
7221.771
7312.883
7413.924
7514.158
7616.987
7697.792
7724.51
7697.242
7659.017
7678.021
7708.899
7727.121
7741.553
7759.035
7780.442
7803.938
7828.413
7854.245
7886.114
7908.44
7930.284
7949.233
7965.474
7979.08
7990.385
7999.746
8007.468
8013.582
8018.506
8023.021
8026.682
8029.897
8032.808
8035.549
8038.241
8041.06
8044.666
8050.057
8050.493
8053.762
8057.977
8062.466
8066.58
8071.002
8075.907
8081.296
8087.164
8093.476
8100.185
8107.238
8114.575
8122.134
8129.848
8137.647
8145.455
8153.198
8160.933
8169.357
8177.305
8184.856
8194.831
8205.284
8213.241
8221.096
8228.53
8233.079
8229.216
8232.107
8237.578
8242.417
8246.778
8250.664
8254.121
8257.177
8259.856
8262.181
8264.175
8265.86
8267.259
8268.396
8269.294
8269.979
8270.473
8270.799
8270.98
8271.033
8270.979
8270.836
8270.624
8270.358
8270.054
8269.728
8269.391
8269.056
8268.735
8268.437
8268.17
8267.945
8267.766
8267.641
8267.575
8267.571
8267.632
8267.761
8267.958
8268.223
8268.556
8268.956
8269.421
8269.947
8270.532
8271.17
8271.851
8272.565
8273.309
8274.212
8275.334
8276.502
8277.518
8278.542
8279.569
8280.598
8281.624
8282.641
8283.641
8284.619
8285.567
8286.479
8287.348
8288.169
8288.947
8289.675
8290.335
8290.931
8291.462
8291.926
8292.323
8292.652
8292.915
8293.113
8293.248
8293.322
8293.34
8293.305
8293.223
8293.098
8292.935
8292.739
8292.516
8292.27
8292.011
8291.757
8291.498
8291.249
8291.039
8290.793
8290.57
8290.373
8290.199
8290.049
8289.929
8289.829
8289.729
8289.577
8289.334
8289.424
8291.614
8291.946
8292.388
8292.911
8293.494
8294.083
8294.721
8295.449
8296.236
8297.088
8298.001
8298.976
8300.017
8301.117
8302.276
8303.493
8304.765
8306.09
8307.465
8308.889
8310.358
8311.869
8313.417
8314.996
8316.598
8318.215
8319.837
8321.451
8323.037
8324.572
8326.012
8327.293
8328.297
8328.785
8328.251
8327.075
8334.06
8339.787
8344.702
8349.149
8353.401
8357.512
8361.514
8365.446
8369.334
8373.185
8377.008
8380.81
8384.596
8388.368
8392.13
8395.882
8399.626
8403.364
8407.096
8410.822
8414.544
8418.262
8421.976
8425.687
8429.397
8433.106
8436.815
8440.525
8444.24
8447.962
8451.703
8455.492
8459.239
8462.863
8476.597
8475.69
8473.768
8477.8
8481.639
8484.891
8488.404
8492.107
8495.826
8499.545
8503.311
8507.127
8510.969
8514.842
8518.744
8522.673
8526.628
8530.607
8534.611
8538.639
8542.691
8546.767
8550.868
8554.993
8559.142
8563.315
8567.511
8571.729
8575.97
8580.232
8584.515
8588.818
8593.139
8597.479
8601.837
8606.211
8610.604
8615.014
8619.444
8623.898
8628.38
8632.903
8637.485
8642.152
8646.867
8651.36
8655.298
8658.934
8662.701
8666.589
8670.511
8674.472
8678.331
8681.137
8681.326
8687.754
8692.217
8695.72
8699.426
8703.072
8706.632
8710.169
8713.683
8717.167
8720.611
8724.011
8727.363
8730.663
8733.91
8737.101
8740.231
8743.3
8746.304
8749.241
8752.11
8754.909
8757.637
8760.293
8762.876
8765.385
8767.818
8770.176
8772.458
8774.662
8776.789
8778.838
8780.807
8782.698
8784.51
8786.242
8787.895
8789.467
8790.959
8792.372
8793.704
8794.957
8796.13
8797.224
8798.239
8799.174
8800.031
8800.81
8801.512
8802.136
8802.682
8803.153
8803.546
8803.864
8804.106
8804.272
8804.363
8804.379
8804.318
8804.181
8803.966
8803.674
8803.301
8802.847
8802.309
8801.682
8800.964
8800.148
8799.228
8798.194
8797.036
8795.739
8794.283
8792.646
8790.794
8788.683
8786.253
8783.418
8780.053
8775.94
8770.735
8764.132
8757.616
8760.938
8792.649
5897.703
5795.392
5706.545
5634.645
5580.343
5546.058
5530.562
5532.036
5546.45
5542.003
5596.691
5632.036
5670.912
5710.457
5750.827
5791.584
5832.755
5875.041
5942.685
5984.01
6016.131
6062.378
6110.792
6161.433
6214.587
6269.843
6326.738
6387.275
6448.787
6506.003
6573.445
6643.307
6715.244
6789.782
6868.317
6950.042
7035.981
7124.966
7211.134
7307.324
7403.873
7497.854
7583.274
7648.933
7678.051
7678.942
7675.843
7696.204
7719.218
7734.795
7748.472
7765.182
7785.865
7809.276
7834.158
7860.993
7897.572
7921.232
7939.84
7957.349
7972.823
7985.719
7996.369
8005.069
8012.135
8017.989
8022.692
8026.615
8029.95
8032.858
8035.493
8038.004
8040.533
8043.229
8046.179
8049.237
8051.917
8055.038
8058.742
8062.802
8067.045
8071.562
8076.516
8081.944
8087.833
8094.153
8100.863
8107.909
8115.233
8122.774
8130.473
8138.276
8146.14
8154.054
8162.058
8170.222
8178.425
8186.737
8195.456
8204.107
8211.897
8218.737
8224.359
8228.189
8230.512
8233.801
8238.127
8242.545
8246.639
8250.354
8253.704
8256.692
8259.325
8261.615
8263.582
8265.244
8266.624
8267.746
8268.632
8269.306
8269.79
8270.105
8270.275
8270.318
8270.256
8270.106
8269.886
8269.613
8269.302
8268.968
8268.624
8268.282
8267.952
8267.644
8267.367
8267.129
8266.936
8266.795
8266.71
8266.685
8266.723
8266.825
8266.993
8267.228
8267.527
8267.891
8268.318
8268.805
8269.35
8269.95
8270.603
8271.314
8272.098
8272.979
8273.94
8274.886
8275.845
8276.824
8277.816
8278.812
8279.803
8280.785
8281.752
8282.697
8283.613
8284.495
8285.338
8286.136
8286.884
8287.577
8288.212
8288.789
8289.303
8289.754
8290.141
8290.464
8290.725
8290.925
8291.066
8291.151
8291.184
8291.169
8291.109
8291.01
8290.877
8290.715
8290.529
8290.324
8290.103
8289.881
8289.668
8289.465
8289.272
8289.095
8288.927
8288.784
8288.675
8288.599
8288.578
8288.588
8288.62
8288.74
8288.905
8289.196
8291.076
8291.084
8291.554
8292.151
8292.784
8293.455
8294.18
8294.971
8295.823
8296.736
8297.709
8298.743
8299.835
8300.984
8302.19
8303.451
8304.764
8306.128
8307.539
8308.995
8310.493
8312.029
8313.599
8315.197
8316.816
8318.45
8320.087
8321.716
8323.32
8324.879
8326.361
8327.724
8328.922
8329.958
8331.075
8332.928
8336.687
8341.44
8345.852
8350.079
8354.204
8358.224
8362.166
8366.059
8369.912
8373.736
8377.536
8381.317
8385.085
8388.842
8392.59
8396.33
8400.063
8403.792
8407.515
8411.234
8414.949
8418.662
8422.371
8426.079
8429.785
8433.491
8437.197
8440.906
8444.619
8448.34
8452.073
8455.824
8459.642
8464.121
8469.751
8474.324
8477.216
8479.52
8482.292
8485.643
8489.286
8492.996
8496.705
8500.429
8504.189
8507.995
8511.84
8515.715
8519.618
8523.547
8527.501
8531.481
8535.486
8539.516
8543.57
8547.649
8551.753
8555.881
8560.033
8564.209
8568.409
8572.631
8576.875
8581.14
8585.426
8589.732
8594.057
8598.399
8602.759
8607.136
8611.529
8615.939
8620.367
8624.813
8629.28
8633.767
8638.267
8642.752
8647.174
8651.465
8655.562
8659.496
8663.384
8667.293
8671.204
8675.07
8678.79
8682.144
8685.091
8688.389
8692.373
8696.546
8700.48
8704.15
8707.709
8711.239
8714.744
8718.215
8721.643
8725.022
8728.351
8731.629
8734.854
8738.022
8741.131
8744.178
8747.162
8750.079
8752.928
8755.708
8758.417
8761.055
8763.619
8766.108
8768.523
8770.862
8773.124
8775.309
8777.416
8779.445
8781.394
8783.265
8785.056
8786.767
8788.399
8789.95
8791.421
8792.812
8794.123
8795.354
8796.505
8797.576
8798.569
8799.482
8800.317
8801.074
8801.753
8802.355
8802.879
8803.328
8803.7
8803.996
8804.216
8804.361
8804.431
8804.426
8804.345
8804.188
8803.954
8803.643
8803.252
8802.781
8802.226
8801.584
8800.852
8800.023
8799.093
8798.052
8796.892
8795.597
8794.155
8792.541
8790.736
8788.697
8786.401
8783.784
8780.85
8777.607
8774.377
8771.751
8770.915
8772.382
8776.699
4776.485
5020.849
5289.932
5578.076
5878.326
6186.159
6499.001
6801.918
7093.801
7370.642
7624.666
7851.495
8046.44
8203.107
8319.019
8393.579
8428.469
8426.825
8395.088
8312.07
8234.926
8139.609
8033.661
7919.733
7799.033
7673.306
7544.54
7414.067
7284.324
7143.352
7005.548
6862.012
6715.092
6565.724
6415.544
6267.317
6125.072
5993.691
5868.144
5757.027
5666.487
5599.137
5551.782
5524.536
5515.898
5524.363
5545.637
5574.403
5611.814
5651.673
5691.356
5731.412
5771.452
5811.419
5851.286
5892.596
5945.566
5990.513
6031.138
6075.657
6123.35
6173.098
6224.922
6278.919
6335.261
6393.768
6454.877
6518.74
6584.617
6652.709
6723.684
6797.72
6874.779
6954.85
7037.855
7122.591
7207.659
7291.954
7374.491
7452.473
7520.903
7575.647
7612.874
7635.668
7655.504
7681.874
7707.409
7728.357
7750.252
7774.642
7800.921
7829.591
7859.292
7888.86
7916.736
7935.999
7952.034
7966.768
7980.155
7991.781
8001.429
8009.348
8015.855
8021.293
8025.799
8029.477
8032.499
8035.099
8037.455
8039.701
8041.954
8044.32
8046.861
8049.558
8052.236
8055.212
8058.669
8062.504
8066.609
8071.088
8075.987
8081.352
8087.173
8093.421
8100.062
8107.045
8114.311
8121.804
8129.47
8137.261
8145.143
8153.099
8161.135
8169.273
8177.458
8185.658
8193.926
8202.001
8209.405
8215.96
8221.565
8226.09
8229.656
8233.392
8237.625
8241.903
8245.906
8249.571
8252.9
8255.891
8258.539
8260.853
8262.847
8264.539
8265.949
8267.098
8268.011
8268.709
8269.214
8269.548
8269.732
8269.787
8269.732
8269.585
8269.366
8269.09
8268.774
8268.432
8268.078
8267.722
8267.376
8267.049
8266.751
8266.49
8266.271
8266.101
8265.984
8265.924
8265.925
8265.989
8266.116
8266.307
8266.561
8266.879
8267.258
8267.697
8268.195
8268.75
8269.363
8270.036
8270.771
8271.572
8272.436
8273.326
8274.228
8275.145
8276.077
8277.017
8277.957
8278.893
8279.816
8280.721
8281.602
8282.452
8283.266
8284.038
8284.765
8285.442
8286.065
8286.63
8287.138
8287.586
8287.973
8288.301
8288.569
8288.78
8288.935
8289.038
8289.091
8289.099
8289.066
8288.997
8288.897
8288.772
8288.625
8288.465
8288.296
8288.123
8287.951
8287.785
8287.631
8287.497
8287.388
8287.31
8287.266
8287.251
8287.271
8287.337
8287.461
8287.666
8288.009
8288.528
8289.456
8290.117
8290.61
8291.179
8291.852
8292.598
8293.403
8294.266
8295.197
8296.182
8297.225
8298.323
8299.482
8300.698
8301.97
8303.296
8304.673
8306.1
8307.572
8309.088
8310.644
8312.237
8313.861
8315.513
8317.187
8318.875
8320.57
8322.264
8323.947
8325.608
8327.241
8328.853
8330.48
8332.226
8334.274
8336.863
8340.121
8343.905
8347.901
8351.876
8355.783
8359.644
8363.477
8367.287
8371.078
8374.851
8378.609
8382.356
8386.094
8389.825
8393.55
8397.27
8400.986
8404.698
8408.408
8412.114
8415.819
8419.521
8423.221
8426.921
8430.619
8434.319
8438.018
8441.721
8445.424
8449.135
8452.845
8456.566
8460.276
8464.039
8467.472
8470.403
8473.573
8477.171
8480.999
8484.874
8488.73
8492.559
8496.368
8500.174
8503.993
8507.834
8511.7
8515.587
8519.497
8523.429
8527.383
8531.362
8535.364
8539.39
8543.44
8547.515
8551.614
8555.737
8559.885
8564.056
8568.251
8572.468
8576.708
8580.969
8585.251
8589.553
8593.873
8598.212
8602.567
8606.939
8611.326
8615.727
8620.143
8624.572
8629.011
8633.453
8637.886
8642.292
8646.646
8650.92
8655.076
8659.114
8663.072
8667.008
8670.93
8674.825
8678.703
8682.671
8686.864
8690.844
8694.441
8697.85
8701.24
8704.659
8708.106
8711.563
8715.012
8718.44
8721.84
8725.202
8728.519
8731.789
8735.008
8738.172
8741.278
8744.323
8747.305
8750.222
8753.071
8755.851
8758.561
8761.199
8763.763
8766.253
8768.669
8771.008
8773.271
8775.456
8777.563
8779.591
8781.54
8783.41
8785.2
8786.91
8788.54
8790.089
8791.558
8792.946
8794.255
8795.483
8796.631
8797.699
8798.688
8799.598
8800.429
8801.182
8801.857
8802.454
8802.975
8803.419
8803.787
8804.079
8804.296
8804.438
8804.505
8804.497
8804.414
8804.256
8804.022
8803.711
8803.323
8802.855
8802.306
8801.673
8800.953
8800.141
8799.232
8798.221
8797.097
8795.853
8794.477
8792.954
8791.27
8789.41
8787.361
8785.132
8782.765
8780.373
8778.162
8776.408
8775.413
8775.605
8777.249
3442.569
3446.645
3471.134
3507.012
3562.17
3652.147
3763.912
3909.961
4085.96
4237.212
4373.155
4544.463
4751.519
4986.035
5245.8
5523.385
5813.02
6109.281
6406.693
6701.176
6987.994
7261.948
7513.667
7736.558
7926.935
8079.914
8192.663
8264.613
8297.395
8294.805
8265.051
8163.929
8096.149
8008.36
7901.656
7787.287
7668.017
7546.135
7422.836
7297.471
7169.321
7037.472
6901.494
6760.633
6615.329
6466.857
6317.29
6169.621
6027.581
5895.021
5775.576
5673.155
5590.36
5528.298
5487.853
5468.623
5467.762
5488.072
5519.001
5558.073
5602.363
5648.52
5694.91
5740.433
5784.399
5827.08
5868.606
5911.871
5954.684
5995.621
6035.343
6077.561
6123.162
6171.294
6221.721
6274.472
6329.534
6387.131
6447.278
6509.553
6574.253
6641.654
6711.775
6784.599
6859.417
6936.406
7015.098
7094.679
7174.341
7252.834
7328.578
7399.716
7464.036
7519.109
7563.115
7597.2
7626.488
7657.419
7689.725
7720.247
7749.495
7779.65
7810.915
7841.038
7868.723
7894.05
7918.961
7941.612
7960.491
7976.092
7988.861
7999.246
8007.639
8014.517
8020.248
8025.015
8028.934
8032.133
8034.779
8037.067
8039.158
8041.146
8043.126
8045.219
8047.484
8049.923
8052.5
8055.369
8058.653
8062.34
8066.397
8070.851
8075.763
8081.113
8086.924
8093.17
8099.814
8106.803
8114.077
8121.579
8129.259
8137.071
8144.983
8152.97
8161.02
8169.127
8177.243
8185.313
8193.293
8200.998
8208.159
8214.63
8220.341
8225.265
8229.531
8233.683
8237.935
8242.109
8246.029
8249.639
8252.927
8255.884
8258.506
8260.8
8262.777
8264.453
8265.849
8266.986
8267.887
8268.573
8269.065
8269.385
8269.557
8269.598
8269.528
8269.365
8269.129
8268.836
8268.502
8268.143
8267.772
8267.399
8267.035
8266.69
8266.374
8266.094
8265.856
8265.666
8265.528
8265.446
8265.424
8265.464
8265.566
8265.731
8265.958
8266.247
8266.598
8267.009
8267.479
8268.008
8268.594
8269.238
8269.94
8270.7
8271.514
8272.359
8273.224
8274.107
8275.004
8275.91
8276.819
8277.723
8278.616
8279.493
8280.346
8281.171
8281.961
8282.711
8283.417
8284.075
8284.68
8285.231
8285.725
8286.162
8286.54
8286.86
8287.122
8287.329
8287.482
8287.584
8287.639
8287.65
8287.621
8287.558
8287.466
8287.349
8287.213
8287.064
8286.906
8286.745
8286.586
8286.437
8286.303
8286.189
8286.101
8286.043
8286.018
8286.032
8286.09
8286.204
8286.383
8286.649
8287.02
8287.514
8288.094
8288.629
8289.221
8289.904
8290.658
8291.467
8292.325
8293.243
8294.228
8295.268
8296.379
8297.541
8298.759
8300.033
8301.364
8302.748
8304.183
8305.667
8307.196
8308.768
8310.38
8312.028
8313.709
8315.418
8317.15
8318.901
8320.665
8322.438
8324.216
8325.999
8327.794
8329.624
8331.531
8333.585
8335.881
8338.527
8341.625
8345.138
8348.855
8352.628
8356.381
8360.128
8363.873
8367.613
8371.346
8375.071
8378.788
8382.5
8386.207
8389.911
8393.612
8397.311
8401.008
8404.703
8408.397
8412.09
8415.781
8419.472
8423.162
8426.852
8430.541
8434.232
8437.923
8441.615
8445.309
8449.005
8452.701
8456.394
8460.08
8463.708
8467.314
8471.004
8474.724
8478.355
8481.917
8485.494
8489.131
8492.822
8496.547
8500.296
8504.072
8507.878
8511.714
8515.578
8519.469
8523.385
8527.326
8531.293
8535.286
8539.303
8543.346
8547.414
8551.506
8555.624
8559.766
8563.933
8568.123
8572.336
8576.571
8580.828
8585.106
8589.404
8593.72
8598.054
8602.405
8606.77
8611.15
8615.542
8619.944
8624.353
8628.765
8633.172
8637.565
8641.931
8646.253
8650.511
8654.685
8658.772
8662.791
8666.776
8670.741
8674.69
8678.633
8682.554
8686.365
8689.997
8693.553
8697.148
8700.783
8704.408
8707.994
8711.54
8715.047
8718.517
8721.946
8725.329
8728.663
8731.946
8735.175
8738.347
8741.46
8744.512
8747.5
8750.421
8753.275
8756.059
8758.773
8761.414
8763.982
8766.475
8768.893
8771.234
8773.499
8775.685
8777.794
8779.823
8781.773
8783.643
8785.433
8787.142
8788.771
8790.319
8791.786
8793.173
8794.479
8795.704
8796.85
8797.915
8798.901
8799.807
8800.634
8801.383
8802.054
8802.648
8803.165
8803.605
8803.969
8804.258
8804.471
8804.61
8804.675
8804.665
8804.581
8804.423
8804.19
8803.883
8803.499
8803.038
8802.499
8801.88
8801.177
8800.389
8799.51
8798.537
8797.464
8796.285
8794.993
8793.582
8792.047
8790.386
8788.608
8786.739
8784.833
8782.975
8781.302
8779.939
8779.099
8778.889
8779.489
4072.588
3985.369
3902.075
3826.295
3747.499
3676.375
3615.791
3561.113
3517.344
3482.801
3458.421
3445.847
3445.555
3459.967
3490.498
3540.212
3622.222
3721.849
3842.087
3979.877
4129.712
4299.677
4494.635
4715.028
4959.277
5223.651
5503.893
5794.939
6091.321
6387.523
6678.323
6959.068
7223.321
7464.842
7678.13
7858.077
8000.555
8103.08
8165.561
8190.145
8179.881
8139.085
8070.063
7992.035
7903.911
7803.47
7693.295
7577.68
7461.738
7345.577
7227.001
7104.941
6978.393
6846.291
6707.912
6563.279
6413.566
6261.081
6109.346
5962.744
5826.191
5703.898
5598.883
5514.077
5452.423
5414.995
5401.742
5411.442
5434.292
5473.138
5521.948
5575.957
5631.276
5685.327
5736.768
5785.159
5830.685
5874.094
5915.651
5955.897
5995.843
6035.687
6077.388
6121.507
6168.125
6217.016
6268.165
6321.691
6377.718
6436.221
6497.17
6560.742
6626.833
6695.222
6765.579
6838.206
6911.985
6986.649
7061.706
7136.435
7209.892
7280.911
7348.141
7410.19
7465.613
7513.619
7554.72
7591.827
7629.066
7666.824
7702.804
7737.089
7771.163
7804.914
7836.746
7866.475
7894.755
7921.637
7945.294
7964.64
7980.421
7993.664
8004.636
8013.306
8020.006
8025.247
8029.352
8032.599
8035.251
8037.479
8039.394
8041.12
8042.784
8044.503
8046.38
8048.438
8050.675
8053.12
8055.873
8059.026
8062.605
8066.608
8071.054
8075.984
8081.323
8087.144
8093.412
8100.087
8107.108
8114.404
8121.92
8129.612
8137.436
8145.355
8153.343
8161.376
8169.434
8177.474
8185.425
8193.203
8200.674
8207.669
8214.078
8219.856
8225.022
8229.689
8234.125
8238.455
8242.606
8246.488
8250.059
8253.304
8256.218
8258.799
8261.053
8262.991
8264.631
8265.991
8267.101
8267.98
8268.64
8269.103
8269.395
8269.541
8269.555
8269.457
8269.267
8269.004
8268.686
8268.329
8267.947
8267.556
8267.165
8266.783
8266.42
8266.088
8265.792
8265.539
8265.334
8265.18
8265.082
8265.043
8265.066
8265.15
8265.295
8265.502
8265.771
8266.1
8266.489
8266.938
8267.444
8268.009
8268.629
8269.305
8270.032
8270.807
8271.616
8272.45
8273.303
8274.172
8275.049
8275.929
8276.805
8277.671
8278.521
8279.348
8280.146
8280.911
8281.637
8282.319
8282.954
8283.538
8284.068
8284.543
8284.962
8285.323
8285.627
8285.875
8286.068
8286.209
8286.301
8286.346
8286.349
8286.315
8286.247
8286.151
8286.032
8285.896
8285.749
8285.594
8285.437
8285.285
8285.144
8285.02
8284.917
8284.842
8284.799
8284.794
8284.832
8284.919
8285.064
8285.274
8285.563
8285.936
8286.395
8286.928
8287.523
8288.181
8288.898
8289.672
8290.504
8291.394
8292.345
8293.348
8294.42
8295.555
8296.758
8298.022
8299.34
8300.716
8302.147
8303.63
8305.164
8306.744
8308.369
8310.034
8311.737
8313.474
8315.243
8317.039
8318.859
8320.701
8322.563
8324.447
8326.357
8328.306
8330.316
8332.42
8334.666
8337.115
8339.832
8342.865
8346.187
8349.702
8353.307
8356.952
8360.609
8364.277
8367.952
8371.633
8375.315
8378.996
8382.676
8386.356
8390.036
8393.716
8397.395
8401.075
8404.754
8408.433
8412.113
8415.792
8419.471
8423.15
8426.83
8430.509
8434.189
8437.87
8441.552
8445.234
8448.916
8452.596
8456.271
8459.936
8463.589
8467.262
8470.931
8474.518
8478.06
8481.627
8485.258
8488.947
8492.674
8496.425
8500.195
8503.985
8507.799
8511.638
8515.503
8519.392
8523.305
8527.243
8531.207
8535.195
8539.208
8543.247
8547.31
8551.399
8555.513
8559.651
8563.814
8568.001
8572.211
8576.443
8580.697
8584.972
8589.267
8593.58
8597.91
8602.256
8606.615
8610.988
8615.37
8619.759
8624.152
8628.544
8632.927
8637.295
8641.636
8645.937
8650.186
8654.373
8658.494
8662.56
8666.587
8670.585
8674.555
8678.49
8682.367
8686.174
8689.938
8693.669
8697.366
8701.026
8704.645
8708.223
8711.766
8715.273
8718.744
8722.175
8725.562
8728.901
8732.189
8735.423
8738.6
8741.718
8744.775
8747.767
8750.693
8753.552
8756.341
8759.058
8761.704
8764.276
8766.773
8769.194
8771.539
8773.806
8775.995
8778.105
8780.135
8782.086
8783.957
8785.747
8787.456
8789.083
8790.63
8792.096
8793.481
8794.784
8796.007
8797.149
8798.211
8799.192
8800.095
8800.918
8801.663
8802.329
8802.918
8803.43
8803.866
8804.225
8804.51
8804.72
8804.855
8804.917
8804.905
8804.821
8804.663
8804.432
8804.128
8803.75
8803.298
8802.771
8802.167
8801.486
8800.724
8799.881
8798.953
8797.937
8796.83
8795.632
8794.34
8792.956
8791.489
8789.955
8788.384
8786.823
8785.339
8784.02
8782.96
8782.277
8782.002
8782.239
5347.265
5180.979
5029.855
4882.138
4752.747
4610.212
4490.867
4378.06
4271.198
4169.15
4074.381
3985.98
3901.232
3821.743
3745.62
3665.483
3605.084
3552.411
3507.976
3472.76
3447.799
3433.506
3430.444
3440.485
3465.569
3508.015
3566.141
3651.972
3758.052
3884.867
4032.136
4203.055
4400.262
4623.356
4868.678
5132.454
5410.22
5697.138
5988.393
6278.496
6562.146
6837.946
7094.576
7329.751
7537.543
7712.804
7851.361
7950.9
8011.436
8035.34
8025.988
7989.722
7931.018
7858.494
7777.074
7684.848
7582.685
7476.089
7370.088
7263.64
7153.389
7038.575
6917.832
6789.464
6652.633
6507.197
6353.847
6195.426
6036.33
5882.005
5738.414
5610.535
5501.832
5414.418
5351.206
5315.094
5306.254
5321.545
5356.388
5407.236
5468.361
5534.359
5600.616
5664
5722.953
5777.095
5826.618
5872.152
5914.339
5954.515
5993.954
6033.396
6073.999
6116.716
6161.614
6208.614
6257.842
6309.42
6363.523
6420.291
6479.776
6541.939
6606.628
6673.516
6742.156
6812.094
6882.823
6954.045
7025.337
7096.09
7165.615
7233.143
7297.739
7358.454
7414.533
7465.568
7511.902
7555.069
7597.379
7639.117
7679.236
7717.766
7755.334
7791.942
7826.846
7859.886
7891.006
7919.373
7943.971
7964.736
7982.041
7996.25
8007.763
8016.883
8024.052
8029.647
8033.778
8036.833
8039.168
8041.011
8042.517
8043.826
8045.121
8046.539
8048.158
8050.007
8052.069
8054.367
8056.996
8060.035
8063.521
8067.467
8071.877
8076.74
8082.141
8087.984
8094.276
8100.997
8108.061
8115.371
8122.884
8130.564
8138.369
8146.262
8154.211
8162.186
8170.154
8178.068
8185.866
8193.473
8200.787
8207.69
8214.096
8219.971
8225.331
8230.241
8234.831
8239.19
8243.317
8247.162
8250.69
8253.886
8256.746
8259.271
8261.469
8263.351
8264.932
8266.236
8267.299
8268.15
8268.783
8269.211
8269.478
8269.603
8269.589
8269.458
8269.235
8268.942
8268.595
8268.213
8267.81
8267.4
8266.994
8266.592
8266.213
8265.87
8265.564
8265.301
8265.085
8264.92
8264.811
8264.763
8264.776
8264.849
8264.981
8265.172
8265.424
8265.736
8266.108
8266.538
8267.026
8267.571
8268.17
8268.822
8269.522
8270.265
8271.044
8271.849
8272.676
8273.517
8274.367
8275.22
8276.068
8276.907
8277.729
8278.528
8279.3
8280.037
8280.736
8281.392
8282.001
8282.559
8283.064
8283.515
8283.909
8284.247
8284.529
8284.756
8284.93
8285.052
8285.126
8285.156
8285.144
8285.096
8285.016
8284.911
8284.784
8284.642
8284.492
8284.336
8284.179
8284.026
8283.887
8283.766
8283.669
8283.602
8283.57
8283.579
8283.633
8283.738
8283.903
8284.132
8284.435
8284.816
8285.276
8285.816
8286.425
8287.092
8287.817
8288.605
8289.456
8290.37
8291.347
8292.386
8293.495
8294.669
8295.91
8297.212
8298.579
8300
8301.476
8303.006
8304.588
8306.219
8307.895
8309.615
8311.376
8313.174
8315.006
8316.871
8318.767
8320.692
8322.648
8324.638
8326.668
8328.752
8330.909
8333.164
8335.551
8338.112
8340.883
8343.884
8347.1
8350.482
8353.968
8357.514
8361.094
8364.707
8368.314
8371.944
8375.586
8379.232
8382.882
8386.536
8390.192
8393.851
8397.512
8401.174
8404.837
8408.502
8412.167
8415.833
8419.5
8423.167
8426.835
8430.503
8434.172
8437.841
8441.51
8445.18
8448.848
8452.515
8456.177
8459.837
8463.492
8467.142
8470.766
8474.357
8477.949
8481.573
8485.236
8488.931
8492.65
8496.393
8500.156
8503.94
8507.748
8511.581
8515.439
8519.322
8523.23
8527.163
8531.121
8535.104
8539.113
8543.148
8547.208
8551.293
8555.404
8559.54
8563.7
8567.885
8572.093
8576.323
8580.576
8584.849
8589.141
8593.452
8597.78
8602.122
8606.478
8610.844
8615.219
8619.599
8623.98
8628.358
8632.726
8637.077
8641.403
8645.694
8649.943
8654.141
8658.288
8662.387
8666.445
8670.468
8674.455
8678.402
8682.304
8686.166
8689.987
8693.758
8697.478
8701.154
8704.792
8708.394
8711.961
8715.491
8718.981
8722.428
8725.829
8729.18
8732.479
8735.723
8738.909
8742.035
8745.1
8748.099
8751.033
8753.898
8756.693
8759.417
8762.068
8764.645
8767.147
8769.573
8771.921
8774.192
8776.384
8778.496
8780.529
8782.481
8784.353
8786.143
8787.852
8789.479
8791.025
8792.489
8793.871
8795.172
8796.392
8797.53
8798.588
8799.566
8800.464
8801.282
8802.022
8802.683
8803.267
8803.774
8804.204
8804.559
8804.839
8805.044
8805.176
8805.235
8805.221
8805.135
8804.977
8804.749
8804.449
8804.077
8803.635
8803.121
8802.536
8801.877
8801.146
8800.341
8799.46
8798.505
8797.475
8796.37
8795.196
8793.957
8792.667
8791.345
8790.019
8788.729
8787.529
8786.481
8785.653
8785.109
8784.865
8785.002
6038.545
5992.63
5857.205
5677.668
5492.815
5320.426
5158.796
5009.827
4871.614
4737.101
4588.039
4469.835
4358.574
4252.743
4152.32
4057.39
3967.998
3883.36
3803.077
3729.448
3661.73
3600.039
3545.165
3497.721
3458.348
3428.052
3407.827
3398.776
3402.463
3421.356
3458.01
3512.752
3588.85
3686.884
3807.871
3952.78
4123.412
4319.823
4540.738
4783.084
5043.462
5317.47
5600.049
5886.911
6171.204
6448.392
6714.003
6961.58
7186.726
7384.416
7549.918
7679.621
7771.887
7827.513
7849.665
7842.37
7811.651
7762.642
7698.727
7623.671
7539.911
7450.154
7358.236
7266.087
7171.782
7071.553
6965.513
6850.958
6725.784
6589.368
6440.893
6280.988
6113.219
5943.055
5777.636
5624.694
5489.733
5375.656
5284.055
5218.481
5183.714
5181.974
5208.128
5258.009
5325.16
5402.95
5484.905
5565.404
5640.691
5709.05
5770.155
5824.354
5872.354
5915.183
5954.429
5991.99
6029.571
6068.503
6109.392
6152.258
6197.059
6243.92
6293.123
6345.041
6399.943
6457.911
6518.846
6582.382
6647.942
6714.809
6782.445
6850.429
6918.472
6986.312
7053.646
7120.067
7185.157
7248.276
7308.69
7365.892
7419.676
7470.198
7517.974
7564.395
7609.801
7653.896
7696.331
7737.324
7776.889
7814.579
7849.99
7882.772
7912.38
7938.521
7961.267
7980.524
7996.306
8009.146
8019.423
8027.357
8033.388
8037.889
8041.173
8043.586
8045.391
8046.725
8047.768
8048.754
8049.848
8051.13
8052.648
8054.446
8056.559
8059.045
8061.968
8065.364
8069.248
8073.623
8078.488
8083.847
8089.668
8095.944
8102.653
8109.701
8116.99
8124.473
8132.116
8139.877
8147.712
8155.588
8163.47
8171.313
8179.068
8186.692
8194.133
8201.315
8208.155
8214.58
8220.557
8226.076
8231.153
8235.834
8240.199
8244.293
8248.096
8251.575
8254.718
8257.52
8259.986
8262.122
8263.94
8265.457
8266.69
8267.665
8268.411
8268.953
8269.315
8269.55
8269.668
8269.639
8269.478
8269.222
8268.899
8268.527
8268.122
8267.703
8267.287
8266.883
8266.46
8266.059
8265.714
8265.409
8265.143
8264.923
8264.753
8264.639
8264.585
8264.597
8264.669
8264.794
8264.976
8265.218
8265.519
8265.878
8266.296
8266.77
8267.299
8267.881
8268.513
8269.19
8269.909
8270.662
8271.442
8272.243
8273.059
8273.882
8274.708
8275.53
8276.34
8277.134
8277.904
8278.645
8279.352
8280.02
8280.644
8281.221
8281.748
8282.22
8282.639
8283.002
8283.309
8283.561
8283.758
8283.902
8283.996
8284.042
8284.045
8284.008
8283.936
8283.834
8283.707
8283.562
8283.403
8283.243
8283.08
8282.915
8282.757
8282.613
8282.49
8282.394
8282.331
8282.307
8282.327
8282.392
8282.51
8282.687
8282.93
8283.245
8283.634
8284.1
8284.642
8285.253
8285.928
8286.669
8287.477
8288.351
8289.293
8290.301
8291.375
8292.518
8293.726
8295.002
8296.346
8297.75
8299.216
8300.738
8302.315
8303.947
8305.629
8307.36
8309.137
8310.958
8312.819
8314.719
8316.657
8318.63
8320.641
8322.689
8324.781
8326.922
8329.124
8331.404
8333.78
8336.278
8338.922
8341.735
8344.725
8347.883
8351.182
8354.582
8358.049
8361.559
8365.092
8368.675
8372.27
8375.875
8379.486
8383.107
8386.736
8390.37
8394.008
8397.649
8401.294
8404.941
8408.59
8412.241
8415.893
8419.546
8423.2
8426.855
8430.511
8434.168
8437.825
8441.481
8445.138
8448.793
8452.448
8456.1
8459.749
8463.393
8467.028
8470.652
8474.272
8477.9
8481.545
8485.211
8488.898
8492.609
8496.344
8500.101
8503.88
8507.683
8511.51
8515.363
8519.24
8523.143
8527.071
8531.025
8535.005
8539.011
8543.042
8547.1
8551.183
8555.292
8559.427
8563.586
8567.77
8571.977
8576.208
8580.46
8584.733
8589.025
8593.335
8597.662
8602.003
8606.357
8610.72
8615.09
8619.464
8623.839
8628.208
8632.566
8636.909
8641.228
8645.517
8649.77
8653.981
8658.149
8662.273
8666.357
8670.404
8674.415
8678.387
8682.32
8686.211
8690.056
8693.852
8697.602
8701.31
8704.981
8708.614
8712.209
8715.762
8719.271
8722.735
8726.151
8729.516
8732.828
8736.083
8739.281
8742.417
8745.491
8748.5
8751.442
8754.315
8757.118
8759.849
8762.507
8765.09
8767.598
8770.029
8772.383
8774.658
8776.853
8778.969
8781.004
8782.958
8784.831
8786.622
8788.331
8789.958
8791.503
8792.965
8794.345
8795.643
8796.86
8797.994
8799.048
8800.021
8800.914
8801.727
8802.461
8803.117
8803.694
8804.195
8804.62
8804.969
8805.243
8805.444
8805.571
8805.626
8805.609
8805.522
8805.364
8805.137
8804.841
8804.477
8804.044
8803.544
8802.977
8802.343
8801.643
8800.876
8800.045
8799.15
8798.194
8797.182
8796.118
8795.012
8793.879
8792.738
8791.615
8790.544
8789.568
8788.733
8788.083
8787.665
8787.478
8787.623
6003.874
5911.32
5704.766
5546.304
5388.214
5237.256
5093.393
4956.451
4825.609
4700.781
4583.252
4468.621
4358.403
4252.608
4151.902
4056.068
3965.209
3878.849
3796.771
3720.419
3650.828
3586.895
3528.734
3477.748
3434.603
3400.146
3376.015
3363.854
3364.837
3380.714
3413.092
3464.233
3535.342
3628.315
3744.87
3886.528
4053.787
4246.141
4462.316
4699.841
4955.974
5225.986
5504.386
5785.798
6063.714
6332.57
6587.078
6822.062
7033.03
7215.875
7366.813
7483.549
7565.441
7614.449
7634.436
7629.871
7604.9
7563.975
7510.031
7446.201
7377.514
7305.513
7231.111
7155.191
7073.917
6985.84
6890.694
6783.33
6661.272
6523.694
6369.695
6199.683
6018.455
5832.682
5652.033
5485.651
5336.341
5212.696
5119.337
5056.075
5024.333
5029.658
5071.173
5140.252
5229.328
5329.95
5432.974
5531.035
5620.048
5698.67
5767.07
5825.93
5876.173
5918.937
5956.07
5990.362
6024.759
6061.157