/*--------------------------------*- C++ -*----------------------------------*\
| =========                 |                                                 |
| \\      /  F ield         | foam-extend: Open Source CFD                    |
|  \\    /   O peration     | Version:     3.1                                |
|   \\  /    A nd           | Web:         http://www.extend-project.de       |
|    \\/     M anipulation  |                                                 |
\*---------------------------------------------------------------------------*/
FoamFile
{
    version     2.0;
    format      ascii;
    class       surfaceScalarField;
    location    "4.5";
    object      phi;
}
// * * * * * * * * * * * * * * * * * * * * * * * * * * * * * * * * * * * * * //

dimensions      [0 3 -1 0 0 0 0];

internalField   nonuniform List<scalar> 
275122
(
-7.779505e-06
8.289832e-06
-1.407257e-07
-3.696009e-07
-9.436141e-06
1.043515e-05
-7.401351e-08
-9.249941e-07
-1.621268e-05
1.798247e-05
-1.259319e-07
-1.643855e-06
-2.461817e-05
2.604976e-05
-2.140218e-07
-1.217565e-06
-2.975131e-05
3.088391e-05
-9.342704e-08
-1.039175e-06
-3.747182e-05
3.815608e-05
3.486303e-07
-1.032891e-06
-3.85989e-05
3.890437e-05
5.681205e-07
-8.735868e-07
-3.874697e-05
3.8526e-05
7.275311e-07
-5.065626e-07
-3.903007e-05
3.889888e-05
7.479385e-07
-6.167469e-07
-4.057982e-05
4.086358e-05
1.331769e-07
-4.169399e-07
-4.394631e-05
4.450313e-05
-1.749366e-07
-3.81885e-07
-4.708043e-05
4.749301e-05
-2.121623e-07
-2.004236e-07
-4.839984e-05
4.871542e-05
-2.079669e-07
-1.076039e-07
-4.971121e-05
4.993577e-05
-1.925716e-07
-3.198856e-08
-5.161337e-05
5.252976e-05
-1.615074e-07
-7.548887e-07
-5.469604e-05
5.531053e-05
-1.063712e-07
-5.08127e-07
-5.761222e-05
5.759132e-05
-2.830056e-08
4.919411e-08
-5.769091e-05
5.802377e-05
-2.054273e-08
-3.123124e-07
-5.800256e-05
5.884698e-05
-3.234687e-08
-8.120771e-07
-5.8456e-05
6.133501e-05
-2.220474e-08
-2.856801e-06
-6.42928e-05
6.660569e-05
-1.430039e-07
-2.169883e-06
-6.854566e-05
6.866358e-05
3.598312e-08
-1.538984e-07
-6.993722e-05
7.118254e-05
9.021844e-08
-1.335534e-06
-7.918201e-05
8.147698e-05
-2.193262e-07
-2.075643e-06
-8.283159e-05
8.311669e-05
-5.042046e-07
2.191092e-07
-8.198718e-05
8.090247e-05
-5.618276e-07
1.646538e-06
-8.115326e-05
8.154658e-05
-7.299335e-08
-3.203288e-07
-7.854077e-05
7.613001e-05
1.341217e-07
2.27664e-06
-5.840358e-05
4.846732e-05
2.074842e-07
9.728774e-06
-1.428934e-05
1.526932e-05
-1.184788e-07
-8.615005e-07
3.147955e-06
-4.005353e-06
-9.669339e-08
9.540921e-07
5.116231e-06
-5.783171e-06
-1.642354e-07
8.311757e-07
6.138236e-06
-5.605931e-06
-1.377507e-07
-3.945543e-07
4.490207e-06
-4.084378e-06
-2.030535e-07
-2.027757e-07
2.889851e-06
-2.382252e-06
-3.301943e-09
-5.042971e-07
4.227527e-07
-1.266357e-07
9.839897e-08
-3.945159e-07
-1.895183e-06
3.057671e-06
8.785503e-08
-1.250343e-06
-7.933492e-06
9.907262e-06
1.176387e-07
-2.091408e-06
-1.194187e-05
1.248869e-05
-1.023271e-08
-5.365873e-07
-9.631874e-06
1.092394e-05
2.020969e-07
-1.494161e-06
-5.270606e-07
6.950138e-07
-2.259513e-06
-7.922673e-08
2.170787e-06
-3.016074e-07
4.399714e-06
-5.077269e-06
-5.239449e-08
1.031556e-06
-3.119018e-07
5.71e-06
-6.085122e-06
1.884355e-08
6.681806e-07
1.920894e-07
6.053011e-06
-6.013453e-06
1.045778e-07
-3.362244e-07
1.029169e-06
3.759554e-06
-3.640833e-06
1.380334e-07
-1.285923e-06
1.160784e-06
1.551473e-06
-8.763576e-07
1.371715e-07
-1.973071e-06
5.304983e-07
-2.517099e-06
5.04474e-06
1.232402e-07
-3.18138e-06
1.08291e-06
-5.461926e-06
5.907258e-06
-1.647155e-07
-1.363526e-06
-1.347477e-07
-8.402156e-06
7.312304e-06
-4.764533e-07
1.701054e-06
6.368829e-07
-6.575149e-05
8.060643e-05
-2.01727e-06
-1.60337e-05
1.090006e-06
1.055657e-06
4.13483e-07
1.211228e-06
-9.709851e-05
0.000107942
4.999931e-07
-1.657144e-05
1.808265e-06
9.131775e-07
1.295333e-06
6.393398e-07
-0.0001225709
0.0001420402
-6.138755e-07
-2.265463e-05
8.737052e-07
8.506155e-07
1.435519e-06
3.895291e-06
-0.0001590131
0.0001716187
-4.861686e-07
-3.072906e-05
5.021543e-06
4.398146e-06
5.294628e-06
6.569975e-06
-0.000186462
0.0001839257
1.06968e-06
-2.774603e-05
8.041314e-06
6.45859e-06
8.142773e-06
4.47072e-06
-0.0001902492
0.0001904409
3.676238e-07
-1.809832e-05
4.264247e-06
4.145016e-06
4.658984e-06
3.827273e-06
-0.0001933761
0.0002020718
-4.202741e-07
-2.081182e-05
2.420761e-06
3.719976e-06
2.568354e-06
-5.788939e-07
-0.000211494
0.00021499
-1.505796e-08
5.043867e-07
-1.364788e-06
-6.133882e-07
-1.428262e-06
-4.639448e-06
-0.0002239103
0.0002254782
3.306644e-07
1.520223e-05
-3.593524e-06
-4.652699e-06
-4.215166e-06
-6.232029e-06
-0.0002100519
0.0002352531
6.543002e-07
7.696995e-06
-8.950079e-06
-8.251694e-06
-1.011865e-05
-5.149094e-06
-0.0002514599
0.0002557929
2.010454e-07
2.060633e-06
-2.696975e-06
5.077562e-07
7.436806e-07
-1.769965e-06
-0.0002633867
0.0002703748
-4.450283e-07
-5.366571e-06
-5.513255e-07
6.7877e-07
4.660284e-07
9.963197e-07
-0.0002765376
0.0002854465
-5.833729e-07
-1.207191e-05
8.765283e-07
9.649244e-07
9.08647e-07
1.444628e-06
-0.0002951153
0.0003061315
-6.267743e-07
-1.640437e-05
1.514866e-06
1.712294e-06
1.343202e-06
2.064286e-06
-0.0003166054
0.0003278496
-7.506733e-07
-1.715018e-05
1.5006e-06
1.426169e-06
1.6656e-06
3.620237e-06
-0.0003369454
0.0003435515
-8.564471e-07
-1.717274e-05
4.268715e-06
1.899856e-06
1.634278e-06
2.848525e-06
-0.0003441165
0.0003452689
-4.499676e-07
-1.007432e-05
2.445403e-06
1.865137e-06
2.212804e-06
-2.703807e-06
-0.000346336
0.0003404705
1.885387e-07
1.842963e-06
8.100601e-06
5.794235e-08
-1.620771e-06
-3.994266e-06
-0.0003438203
0.0003470753
-2.082398e-07
2.914535e-06
2.443247e-06
-4.630413e-06
2.201194e-07
-7.787257e-06
-0.0003670267
0.0003817464
4.086561e-07
-7.341071e-06
1.232165e-05
-0.0003912146
0.0004009335
1.752672e-07
-2.221582e-05
1.044605e-05
-0.0004053721
0.0004208495
-7.786521e-07
-2.514472e-05
3.849348e-05
-0.0004308724
0.000425473
-5.811099e-07
-3.251299e-05
1.784809e-05
-0.0004284528
0.0004315775
9.822113e-07
-2.195504e-05
1.836849e-05
-0.0004309706
0.0004397752
2.230462e-07
-2.739613e-05
1.33513e-05
-0.0004520937
0.0004631017
4.25538e-07
-2.478488e-05
1.615972e-05
-0.0004710357
0.0004805631
-2.08771e-07
-2.547831e-05
2.209468e-05
-0.00049107
0.0004959996
-1.46647e-06
-2.555773e-05
1.489389e-05
-0.0005017318
0.0005072896
-7.320089e-07
-1.97197e-05
1.378257e-05
-0.0005109732
0.0005186089
-5.131557e-08
-2.136696e-05
1.043665e-05
-0.0005278103
0.0005360238
-8.53616e-08
-1.856484e-05
8.410535e-06
-0.0005437136
0.0005516249
-3.53377e-08
-1.628651e-05
8.485581e-06
-0.0005589328
0.0005654933
-1.719567e-08
-1.502889e-05
7.949281e-06
-0.0005722294
0.0005781504
-1.148664e-07
-1.375538e-05
5.189734e-06
-0.0005809303
0.0005865601
-4.15015e-08
-1.077805e-05
5.213282e-06
-0.0005907955
0.0005966025
1.1129e-07
-1.113163e-05
2.472682e-06
-0.0006001403
0.0006072563
1.267054e-07
-9.715388e-06
5.882939e-06
-0.0006114142
0.0006158941
1.273047e-07
-1.049018e-05
1.004985e-05
-0.000616403
0.0006154384
1.789672e-07
-9.264204e-06
8.220469e-07
-0.0006233078
0.0006294023
2.091277e-07
-7.125661e-06
8.018285e-06
-0.0006335948
0.0006347931
-9.615175e-09
-9.206915e-06
1.44382e-05
-0.0006350993
0.0006286728
-1.543322e-07
-7.857382e-06
2.169003e-06
-0.0006235358
0.0006251382
-1.166011e-07
-3.654823e-06
1.396512e-05
-0.0006211698
0.0006004438
1.929251e-07
6.567999e-06
-5.99803e-06
-0.0005906836
0.0005724531
9.918801e-07
2.323671e-05
-1.306653e-05
-0.0005521825
0.0005418793
-2.894701e-07
2.365916e-05
-3.073294e-05
-0.000528255
0.0005137258
-1.557201e-07
4.541787e-05
-9.324091e-05
-0.0005122607
0.0005398668
1.162084e-07
6.551858e-05
-1.103954e-05
-0.0005379237
0.0005254138
8.126098e-07
6.77275e-05
-1.76388e-05
-1.158088e-05
-1.577108e-05
-5.728747e-06
-0.000538878
0.0005117805
1.743508e-07
4.237531e-05
-1.026755e-06
-6.375679e-06
-2.32096e-06
-3.655586e-06
-0.0004941469
0.0004885474
3.37228e-07
1.856522e-05
-2.842245e-06
-3.391657e-06
-3.413425e-06
-1.299092e-06
-0.0004800209
0.0004736513
1.879886e-07
1.08713e-05
-1.082755e-06
-9.789293e-07
-1.328937e-06
-6.806301e-07
-0.0004698111
0.0004683209
-2.153821e-09
4.472284e-06
-8.697051e-07
-7.436064e-07
-6.859808e-07
-4.233199e-07
-0.0004688002
0.0004708171
-2.577086e-07
-9.832947e-07
-3.615096e-07
-2.305463e-08
3.20046e-08
3.979459e-07
-0.0004746585
0.0004793191
-3.894699e-07
-6.548527e-06
5.902461e-07
6.262204e-07
6.629711e-07
1.560159e-06
-0.0004855327
0.0004914946
-4.515182e-07
-1.088461e-05
1.292774e-06
1.065343e-06
1.45592e-06
8.778558e-07
-0.0005001568
0.0005089543
-5.112419e-07
-1.270889e-05
9.08093e-07
1.023229e-06
1.61349e-06
1.96759e-06
-0.0005174943
0.0005257909
-5.262304e-07
-1.563019e-05
2.542689e-06
1.219568e-06
2.130006e-06
2.984502e-06
-0.0005376207
0.0005476173
-6.404965e-07
-2.189266e-05
3.546882e-06
3.851449e-06
2.153746e-06
3.880417e-06
-0.0005563027
0.0005662736
-7.276904e-07
-2.460404e-05
3.175749e-06
5.188984e-06
3.115724e-06
1.038292e-05
-0.0005767933
0.0005826804
-4.737431e-07
-3.153843e-05
6.398503e-06
5.177827e-06
4.165788e-06
1.180194e-05
-0.000581904
0.0005595894
1.592425e-07
-2.985637e-05
8.021081e-06
1.217836e-05
2.001036e-05
7.895817e-06
-0.0005329313
0.0005124664
1.177272e-06
-1.949354e-05
1.0652e-05
1.127131e-05
8.962045e-06
7.407172e-06
-0.0004844212
0.0004712691
1.821369e-07
-8.350888e-06
5.846559e-06
4.942641e-06
3.124391e-06
2.421606e-06
-0.0004717541
0.0004737318
-2.457693e-07
-1.404119e-05
1.527299e-06
4.841644e-06
3.518714e-06
7.454218e-07
-0.0004777225
0.0004825339
-3.935582e-07
-7.451758e-06
8.714709e-07
7.566448e-07
6.604059e-07
4.559267e-07
-0.0004851156
0.0004871223
-3.04885e-07
-2.914941e-06
5.145043e-07
1.912825e-07
5.140425e-08
6.776991e-07
-0.0004886495
0.0004896592
-4.222375e-07
-2.089554e-06
3.493102e-07
1.74786e-07
3.003096e-07
8.597838e-07
-0.0004893097
0.000488113
-7.658015e-07
-9.392742e-07
5.833958e-07
4.310355e-07
1.027517e-06
9.416199e-07
-0.0004846586
0.0004808668
1.066389e-07
-1.977406e-07
2.106747e-07
2.536083e-06
1.945025e-07
8.227229e-07
-0.0004775872
0.0004744806
3.065086e-08
1.826913e-06
-8.238782e-10
4.194944e-07
7.646061e-09
-3.674325e-07
-0.0004747528
0.0004757415
-9.974156e-08
8.15029e-07
-4.384105e-07
-4.470263e-07
-4.511052e-07
-4.644711e-07
-0.0004765615
0.0004773302
-4.503354e-08
1.276441e-06
-4.252412e-07
-5.480803e-07
-5.623419e-07
-5.718316e-07
0.0004794141
-4.568245e-08
1.459686e-06
-6.063567e-07
-7.200848e-07
-7.094607e-07
-0.0004782203
-6.432381e-07
-0.0004804456
0.000481513
-6.6846e-08
1.532725e-06
-6.371547e-07
-6.275268e-07
-6.253217e-07
-7.777842e-07
-0.0004829043
0.0004847212
-1.378959e-07
9.980691e-07
-7.15328e-07
-5.808793e-07
-6.030427e-07
-5.44577e-07
-0.0004868075
0.0004889005
-3.627829e-07
7.802718e-07
-5.45644e-07
-7.090774e-07
-7.111893e-07
-6.726397e-07
-0.0004909139
0.0004934067
-3.191606e-07
6.550625e-07
-6.799769e-07
-7.116406e-07
-7.645229e-07
-8.161378e-07
-0.0004966923
0.0005008191
-2.476177e-07
-1.065676e-06
-7.079078e-07
-6.130669e-07
-6.763743e-07
-7.030461e-07
-0.000505241
0.0005098159
-2.669106e-07
-1.672211e-06
-6.439897e-07
-6.419771e-07
-6.468631e-07
-3.061356e-07
-0.0005141161
0.0005182364
-3.080047e-07
-2.19459e-06
2.859683e-09
-6.40528e-07
-6.739047e-07
-3.034141e-07
-0.000522753
0.0005271451
-2.986688e-07
-2.767232e-06
-1.215363e-07
-5.147874e-07
-3.864475e-07
-4.764274e-07
-0.0005313569
0.0005359551
-2.675967e-07
-3.172361e-06
-5.327639e-07
3.721979e-08
-1.86282e-07
-3.128393e-07
-0.0005407018
0.0005452306
-3.246485e-07
-3.668172e-06
-4.745729e-07
1.46205e-07
1.052335e-07
-6.932786e-08
-0.000549833
0.0005541633
-1.797758e-07
-4.23585e-06
9.539639e-08
4.48833e-08
1.437786e-08
4.56784e-08
-0.0005575191
0.0005606501
-1.081381e-08
-3.527108e-06
4.339979e-07
-9.01613e-08
1.740564e-08
-5.309374e-07
-0.0005632627
0.0005670072
1.584538e-07
-2.420951e-06
-4.469111e-07
-2.739267e-07
-2.301612e-07
-1.032244e-06
-0.000568912
0.0005729859
2.568481e-07
-2.093889e-06
-7.351591e-07
-4.049182e-07
-6.454509e-08
-2.927515e-08
-0.0005738767
0.0005735303
3.925618e-07
-4.464351e-07
2.318804e-07
-1.665899e-07
3.641918e-07
-2.2464e-06
-0.0005721259
0.0005715045
7.111579e-07
8.718768e-07
-1.313522e-06
1.174826e-06
1.423464e-06
-7.813198e-07
-0.0005687989
0.0005663893
4.918385e-07
2.185021e-06
-4.553153e-07
6.101941e-07
3.592547e-07
-1.565938e-06
-0.0005658652
0.0005681597
3.823949e-07
3.098276e-06
-1.730152e-06
-1.66266e-06
-8.163603e-07
-1.49994e-06
-0.0005685214
0.0005708945
3.980794e-07
3.66454e-06
-1.241562e-06
-2.535587e-06
-1.15863e-06
-1.582832e-06
-0.0005708654
0.0005725784
2.266022e-07
4.975841e-06
-1.19134e-06
-3.012775e-06
-1.128478e-06
-2.155011e-06
-0.0005720139
0.0005731379
4.100679e-07
6.628712e-06
-1.62395e-06
-3.316955e-06
-1.066781e-06
-2.211468e-06
-0.000571437
0.0005723401
5.313178e-07
9.024467e-06
-2.107811e-06
-3.875959e-06
-2.263613e-06
-3.205292e-06
-0.0005712519
0.0005785202
4.1473e-07
1.291113e-05
-3.797416e-06
-6.62024e-06
-6.971199e-06
-1.006506e-05
-0.0005823892
0.0006019997
-3.717253e-08
1.238226e-05
-1.345883e-05
-1.994252e-06
-6.437425e-06
-7.032135e-07
-0.0005801632
0.0005778475
-6.593794e-08
3.158333e-05
-1.72304e-05
-2.021939e-06
-9.246114e-06
-3.385894e-06
-0.00057382
0.0005670018
-3.060006e-07
8.381977e-06
-1.237461e-07
1.340091e-06
9.117883e-07
5.996296e-07
-0.0005543263
0.0005442978
-2.018501e-07
6.388892e-06
1.412352e-06
-4.392362e-07
2.268677e-06
1.553385e-06
-0.000536118
0.000529314
-8.227478e-07
1.063325e-06
1.484351e-06
1.630175e-06
1.895508e-06
1.805701e-06
-0.0005269703
0.000523237
-4.810475e-07
-1.80751e-07
1.078376e-06
1.095299e-06
4.157017e-07
4.598848e-08
-0.0005232963
0.0005255467
-9.412583e-07
-1.999401e-06
-3.532133e-08
3.350839e-07
3.445227e-07
7.169046e-07
-0.000527838
0.0005293181
-1.09434e-06
-3.462582e-06
7.756572e-07
6.878843e-07
8.963017e-07
3.395527e-07
-0.000530311
0.0005286586
-1.028451e-06
-3.727223e-06
2.197557e-06
1.953527e-06
1.917463e-06
3.360906e-06
-0.0005249446
0.0005202571
-1.492591e-06
-6.064487e-06
3.568306e-06
4.216976e-06
1.098352e-06
2.672468e-06
-0.0005180763
0.0005139193
-8.176552e-07
-3.81185e-06
1.957358e-06
2.706978e-06
1.449671e-06
1.542568e-06
-0.0005156942
0.0005166857
-1.11788e-06
-4.380662e-06
1.292935e-06
8.345974e-07
8.369203e-07
1.526242e-06
-0.0005187523
0.0005197463
-6.628319e-07
-4.307587e-06
3.927601e-07
9.979337e-07
1.05953e-06
7.263159e-07
-0.0005207982
0.0005210787
-5.948629e-07
-3.850556e-06
1.138542e-06
1.611614e-06
6.884921e-07
6.391858e-07
-0.0005212977
0.0005224256
-4.578295e-07
-2.919333e-06
4.525233e-07
6.086821e-07
5.488556e-07
-8.947409e-08
-0.0005242097
0.0005266244
-2.113017e-07
-2.099726e-06
-1.008574e-07
1.337642e-07
-4.709003e-08
7.102163e-08
-0.0005299807
0.0005328357
-1.602409e-07
-2.4938e-06
-1.251022e-07
-2.526417e-07
1.058224e-07
1.857384e-08
-0.0005350129
0.0005360195
-1.741399e-08
-9.407462e-07
1.164463e-07
-1.067239e-07
-7.672827e-08
-2.529377e-07
-0.0005373772
0.0005398806
5.235179e-10
-1.114517e-06
-3.684833e-07
-3.405453e-07
-4.273579e-07
-4.013359e-07
-0.0005426667
0.0005455435
-4.710217e-09
-1.21317e-06
-4.105115e-07
-4.181744e-07
-4.288864e-07
-2.931028e-07
-0.0005475216
0.0005496191
3.78619e-08
-8.501201e-07
-2.951223e-07
-2.597368e-07
-4.373109e-07
-4.155688e-07
-0.000551197
0.000552689
3.802346e-10
-5.377327e-08
-4.010989e-07
-3.190134e-07
-3.02918e-07
-4.650117e-07
-0.0005548172
0.0005569259
-7.47952e-09
-3.606976e-07
-4.744633e-07
-3.993494e-07
-4.017121e-07
-4.554567e-07
-0.0005591843
0.0005608482
1.186321e-08
-2.276952e-08
-4.211959e-07
-3.908736e-07
-3.854988e-07
-2.747142e-07
-0.0005626419
0.0005637831
5.689038e-09
3.591035e-07
-2.694531e-07
-5.240303e-07
-4.378241e-07
-6.696265e-07
-0.0005645594
0.0005654923
8.896522e-08
7.30051e-07
-3.978403e-07
-3.142066e-07
-3.702406e-07
-5.195175e-07
0.0005674092
6.090097e-08
1.017323e-06
-0.0005660172
-6.345173e-07
-6.41543e-07
-6.746386e-07
-7.626018e-07
-0.0005691028
0.000570874
5.312084e-08
1.231302e-06
-7.661304e-07
-7.588223e-07
-7.68065e-07
-6.828519e-07
-0.0005722863
0.0005732991
8.74357e-08
1.584411e-06
-6.704779e-07
-6.822059e-07
-6.491077e-07
-5.29105e-07
-0.000573839
0.0005735925
1.405748e-07
2.18475e-06
-5.403777e-07
-5.1532e-07
-4.940209e-07
-1.384346e-07
-0.0005725646
0.0005711217
2.45009e-07
1.981833e-06
-1.066548e-07
-9.581206e-08
-4.430289e-07
-3.519897e-07
-0.0005704101
0.0005696048
1.445464e-07
2.692495e-06
-6.209899e-07
-3.826599e-07
-6.760969e-07
-9.00377e-07
-0.0005700633
0.0005711637
1.004043e-07
2.601193e-06
-9.64154e-07
-9.343155e-07
-1.003066e-06
-8.996039e-07
-0.0005722082
0.0005731018
9.57011e-08
2.62209e-06
-8.781898e-07
-9.285607e-07
-9.050202e-07
-7.831257e-07
-0.0005736272
0.0005741299
8.480142e-08
2.657191e-06
-8.464508e-07
-8.15681e-07
-7.994728e-07
-7.900703e-07
-0.0005746029
0.0005749373
7.37124e-08
2.669682e-06
-7.825562e-07
-7.586877e-07
-7.464765e-07
-6.103788e-07
-0.0005751318
0.0005755383
8.33615e-08
2.111861e-06
-6.05929e-07
-5.89521e-07
-7.959266e-07
-2.044559e-07
-0.0005764277
0.0005775596
-3.280331e-08
-7.171955e-08
4.344851e-08
-4.779331e-07
-3.884402e-07
5.093234e-07
-0.0005819707
0.0005904696
-2.362636e-07
-1.023333e-05
3.948989e-07
6.847544e-07
3.8168e-07
-3.457515e-07
-0.0005996173
0.0006056635
-3.178281e-07
-5.112466e-06
-2.770154e-08
1.7134e-07
-4.138467e-07
2.535707e-07
-0.0006143147
0.0006134757
2.72987e-07
-3.775649e-06
2.307555e-06
1.191545e-06
5.890032e-07
7.546281e-08
-0.0006146766
0.0006133201
1.298854e-07
-7.696159e-07
1.437021e-06
4.038924e-07
7.993373e-08
-1.052018e-07
-0.0006139293
0.000614685
7.00798e-09
-9.424444e-07
4.068242e-07
5.273744e-08
-1.746199e-07
-6.156738e-07
-0.000616422
0.0006174561
-8.897601e-08
1.249774e-07
1.668965e-07
-2.289913e-07
-3.923185e-07
-6.864956e-07
-0.0006199526
0.0006204296
-8.616465e-08
1.65163e-07
3.778453e-07
-7.155953e-08
-1.758159e-07
-6.204432e-07
-0.0006224119
0.0006212007
-1.908104e-09
1.189705e-06
5.819131e-07
2.474637e-09
5.943043e-08
-2.97786e-07
-0.0006223567
0.0006225129
-1.800675e-07
1.714801e-06
-3.474634e-08
-6.071691e-07
-7.5122e-07
-1.084439e-06
-0.0006249163
0.0006253054
-3.661205e-07
2.820839e-06
-3.422759e-07
-6.428571e-07
-7.743052e-07
-1.211914e-06
-0.0006269229
0.0006254874
-4.557329e-07
5.544739e-06
-6.705638e-07
-8.163178e-07
-9.547205e-07
-1.259604e-06
-0.0006229396
0.0006151535
-2.462035e-07
1.242837e-05
-9.436654e-07
-1.040918e-06
-1.151831e-06
-2.276751e-06
-0.00059607
0.000563694
-5.365097e-08
4.611094e-05
-3.921744e-06
-2.512716e-06
-4.970064e-06
-1.477535e-05
-0.0001280861
0.0001436806
-3.685904e-07
-4.505976e-07
-8.801662e-07
-0.0001366886
0.000131618
1.165146e-07
5.834257e-06
2.240069e-06
-0.000127906
0.0001281385
2.063305e-07
-2.678933e-06
8.930819e-07
-0.000128253
0.0001282407
3.88974e-07
-1.269764e-06
-7.166081e-08
-0.000127968
0.0001287008
5.358661e-07
-1.197054e-06
-1.374357e-06
-0.0001305508
0.0001298085
-3.988708e-07
2.5155e-06
-1.04234e-07
-0.0001313219
0.0001318168
-2.141145e-07
-1.766121e-07
-3.001034e-07
-0.0001334742
0.0001338454
-1.716953e-07
1.005495e-07
-6.538738e-07
-0.0001343973
0.0001347853
-1.747297e-07
4.406164e-07
-5.630778e-07
-0.000135439
0.0001357391
-1.20953e-07
3.839047e-07
-6.222358e-07
-0.000136352
0.0001364825
-1.266093e-07
6.183889e-07
-7.483697e-07
-0.0001367568
0.0001368272
-1.140105e-07
7.919385e-07
-6.883773e-07
-0.0001369805
0.0001370877
-1.206461e-07
7.018188e-07
-5.497074e-07
-0.0001373049
0.0001373919
-7.475469e-08
5.374135e-07
-4.510989e-07
-0.0001379293
0.0001383762
3.095226e-09
1.074699e-09
-5.648855e-07
-0.0001391437
0.0001392272
-9.637018e-08
5.777173e-07
-6.948845e-07
-0.000139512
0.000139619
-1.453121e-07
7.331943e-07
-6.012469e-07
-0.0001402986
0.0001406371
-2.205783e-07
4.833625e-07
-1.725022e-06
-0.000141405
0.0001417903
-4.267089e-07
1.766467e-06
-3.637255e-07
-0.0001406385
0.0001418537
-1.50625e-07
-7.009303e-07
-3.122446e-07
-0.0001427966
0.0001428679
3.409038e-08
2.068224e-07
-6.630336e-07
-0.0001430625
0.0001431779
2.462923e-08
5.230239e-07
-8.338424e-07
-0.0001431442
0.0001429646
-1.78922e-09
1.015201e-06
-7.232793e-07
-0.0001418498
0.0001422161
-1.04985e-09
3.580682e-07
-6.351385e-07
-0.000142629
0.0001429603
1.731727e-08
2.865381e-07
-4.748458e-07
-0.0001432626
0.0001433712
5.51335e-08
3.111935e-07
-6.56413e-07
-0.0001436507
0.0001435331
2.981191e-08
7.442195e-07
-7.529096e-07
-0.0001432869
0.000143254
3.838886e-08
7.474151e-07
-7.001492e-07
-0.0001432075
0.0001431995
3.780693e-08
6.703444e-07
-4.335116e-07
-0.0001434246
0.000143659
3.199251e-08
1.6711e-07
-5.964009e-07
-0.0001442474
0.0001442402
5.242447e-08
5.512364e-07
-6.389567e-07
-0.0001443772
0.0001443484
6.376027e-08
6.039478e-07
-6.017024e-07
-0.0001446901
0.00014485
3.32893e-08
4.085061e-07
-4.86276e-07
-0.0001452105
0.0001453624
2.272711e-08
3.116756e-07
-5.766352e-07
-0.0001457917
0.0001459425
1.2442e-08
4.133737e-07
3.174196e-07
-0.0001469693
0.0001469456
6.227434e-09
-2.999634e-07
3.922969e-07
-0.0001465312
0.0001463748
2.649459e-08
-2.623515e-07
6.117326e-07
-0.0001456237
0.0001454491
1.18621e-08
-4.489285e-07
6.369495e-07
-0.0001449603
0.0001447567
-3.540875e-09
-4.297764e-07
1.034427e-06
-0.0001454099
0.000145442
2.87392e-08
-1.095302e-06
8.614956e-07
-0.0001456557
0.0001456756
3.079494e-08
-9.122311e-07
7.486289e-07
-0.0001457016
0.0001457311
-2.477932e-09
-7.756772e-07
7.471994e-07
-0.000145764
0.0001457796
-3.800698e-09
-7.589772e-07
6.495795e-07
-0.0001457293
0.0001457821
-1.571691e-10
-7.0213e-07
7.015759e-07
-0.0001457959
0.0001457336
-7.274715e-09
-6.319582e-07
6.101428e-07
-0.0001455034
0.0001454239
-2.620853e-08
-5.044618e-07
8.177217e-07
-0.000145485
0.0001454486
-8.883398e-09
-7.724376e-07
7.817226e-07
-0.0001454159
0.0001453992
1.687268e-08
-7.818798e-07
7.034822e-07
-0.0001453079
0.0001453125
1.610321e-08
-7.241782e-07
7.143334e-07
-0.0001452814
0.0001452793
1.29053e-08
-7.250693e-07
8.322105e-07
-0.0001453616
0.0001454393
-1.617775e-08
-8.937624e-07
5.48263e-07
-0.0001462482
0.0001472825
-1.789756e-07
-1.403583e-06
1.572316e-06
-0.0001470475
0.0001475194
4.032619e-08
-2.084488e-06
6.979077e-07
-0.0001474392
0.0001477288
1.673277e-07
-1.154798e-06
5.582304e-07
-0.0001475873
0.0001475106
5.411333e-08
-5.355898e-07
5.0993e-07
-0.0001469917
0.0001466846
5.408853e-08
-2.569722e-07
6.130896e-07
-0.0001461781
0.0001458417
7.167436e-08
-3.483196e-07
6.245175e-07
-0.0001453251
0.0001452015
3.558131e-08
-5.365006e-07
3.074426e-07
-0.000144509
0.0001443194
-4.26297e-09
-1.136004e-07
4.919713e-07
-0.0001436878
0.0001434175
-1.145974e-08
-2.102803e-07
-1.725322e-08
-0.0001428903
0.0001426308
-7.646238e-08
3.532606e-07
4.874345e-07
-0.0001423317
0.0001421052
4.905629e-08
-3.099799e-07
2.729416e-07
-0.0001411383
0.0001405307
5.852409e-08
2.761344e-07
-4.726233e-08
-0.0001391938
0.0001389381
2.350529e-08
2.794244e-07
1.240703e-07
-0.0001377205
0.0001371504
8.241269e-08
3.636022e-07
-8.663354e-08
-0.0001353581
0.0001347366
5.809027e-08
6.500108e-07
-1.616316e-07
-0.0001328077
0.0001322143
3.829395e-08
7.167597e-07
-8.242724e-08
-0.0001306473
0.000129437
-5.034639e-08
1.343023e-06
-8.837419e-07
-0.000127743
0.0001267084
9.50848e-08
1.823221e-06
-8.758529e-06
-0.000119545
0.0001178053
-2.801096e-08
1.052619e-05
5.04192e-06
-0.0001082216
0.000452087
1.751333e-08
2.675994e-05
-2.810337e-06
6.444542e-06
-2.282498e-06
-0.0001053799
-0.0001374438
-0.0001342128
-1.372832e-06
-0.0004377485
0.0004285962
2.947476e-08
1.504217e-05
-1.487536e-06
-1.289761e-06
-1.769281e-06
-1.188784e-06
-0.0004157285
0.0004043298
-2.161082e-08
1.550985e-05
-8.904412e-07
-1.028851e-06
-9.814529e-07
-1.069566e-06
-0.000396662
0.0003886192
-6.877144e-08
1.107782e-05
-3.746451e-07
-7.235527e-07
-7.985396e-07
-5.279404e-07
-0.0003818785
0.0003747089
-1.132752e-07
8.505276e-06
3.030758e-08
-2.691106e-07
-4.556552e-07
-2.213097e-07
-0.0003683651
0.0003602704
-5.541667e-08
8.039824e-06
5.738023e-07
-2.48184e-08
-2.174103e-07
3.836467e-07
-0.0003530758
0.0003418773
1.103365e-07
8.18071e-06
1.686036e-06
5.69554e-07
2.682423e-07
2.778993e-07
-0.000334134
0.0003265256
2.785005e-08
4.96276e-06
1.247583e-06
6.957982e-07
3.964878e-07
-1.855761e-07
-0.0003232164
0.0003188669
-4.274641e-07
3.94004e-06
7.913862e-07
2.439332e-07
-1.276851e-08
-4.457216e-07
-0.0003180547
0.0003157346
-4.57753e-07
2.098479e-06
7.483207e-07
3.309677e-07
4.581578e-08
2.251134e-07
-0.0003150862
0.0003107671
1.158801e-07
1.982944e-06
1.560649e-06
4.926409e-07
-5.80925e-08
3.750217e-08
-0.0003092911
0.0003066251
2.113986e-07
4.002799e-07
1.100941e-06
8.023687e-07
1.135239e-07
-2.152152e-07
-0.0003065497
0.0003047329
2.926563e-07
1.096712e-06
5.681657e-07
5.203612e-08
2.243966e-08
-1.824138e-07
-0.0003042184
0.0003032965
2.703894e-07
8.99868e-07
2.995766e-08
-4.406217e-08
-5.188801e-08
-2.399516e-08
-0.0003027914
0.0003024991
2.566277e-07
-1.982739e-07
7.467346e-08
8.702335e-08
9.622112e-08
2.838725e-07
-0.0003019848
0.0003013654
1.655966e-07
-6.970443e-07
3.144294e-07
2.58199e-07
2.943242e-07
7.283437e-07
-0.0003001804
0.0002987342
2.207385e-07
-1.24787e-06
2.847333e-07
6.872786e-07
7.729469e-07
7.966691e-07
-0.000297154
0.0002951498
3.00641e-07
-1.064415e-06
5.971368e-07
5.359719e-07
8.381832e-07
4.785946e-07
-0.0002947924
0.0002941472
2.311804e-07
-1.329687e-06
2.548974e-07
6.429172e-07
3.673765e-07
6.587459e-07
-0.0002931492
0.0002919158
1.537904e-07
-1.100262e-06
5.328683e-07
4.747318e-07
5.136205e-07
4.340265e-07
-0.0002906963
0.0002891269
-1.781881e-07
-1.647072e-07
4.967001e-07
5.165949e-07
4.64967e-07
2.404799e-07
-0.0002884723
0.0002883166
-2.582154e-07
-6.42929e-07
2.374823e-07
2.938101e-07
2.850718e-07
2.504435e-07
-0.0002884606
0.0002886576
-4.003452e-07
-8.955684e-07
2.493501e-07
2.968246e-07
3.022435e-07
2.704621e-07
-0.0002889653
0.0002890646
-4.304628e-07
-8.364621e-07
2.73995e-07
3.133318e-07
3.09837e-07
3.3645e-07
-0.0002891711
0.0002891959
-3.366668e-07
-1.049501e-06
3.257844e-07
3.666947e-07
3.324336e-07
1.91658e-07
-0.0002894153
0.0002895705
-2.67552e-07
-7.812543e-07
2.516537e-07
2.284921e-07
2.217182e-07
1.642227e-07
-0.000289581
0.0002897512
-1.7107e-07
-5.90544e-07
1.482192e-07
1.446224e-07
1.343151e-07
1.109372e-07
-0.0002899105
0.0002901352
-1.537193e-07
-4.94205e-07
1.071694e-07
1.052181e-07
9.987723e-08
1.07638e-07
-0.0002902737
0.0002903742
-1.504558e-07
-3.714591e-07
1.088682e-07
1.022642e-07
1.02586e-07
1.286197e-07
-0.0002905455
0.000290792
-1.863027e-07
-5.391408e-07
1.301357e-07
1.104821e-07
1.096858e-07
1.649903e-07
-0.0002912527
0.0002917291
-1.471842e-07
-1.042991e-06
1.735798e-07
1.864428e-07
1.887443e-07
2.898021e-07
-0.0002925295
0.0002932147
-2.29491e-08
-1.848791e-06
3.191143e-07
2.734408e-07
3.041609e-07
7.853879e-07
-0.0002947825
0.0002979293
3.694173e-08
-6.204282e-06
7.164066e-07
7.634574e-07
7.553705e-07
1.222366e-06
-0.000300507
0.0003033548
1.201242e-07
-7.766103e-06
1.434472e-06
1.377622e-06
7.636777e-07
7.409207e-07
-0.000304834
0.0003062641
4.889374e-08
-5.425087e-06
1.08763e-06
1.309373e-06
8.081641e-07
6.27629e-07
-0.000307899
0.0003076622
1.9157e-07
-2.204094e-06
5.495981e-07
5.630479e-07
5.089954e-07
2.342286e-07
-0.0003072682
0.0003070821
2.103528e-07
-8.977964e-07
2.153522e-07
2.203056e-07
2.035813e-07
2.066434e-07
-0.0003072607
0.0003071214
1.773245e-07
-8.213461e-07
2.038846e-07
1.887328e-07
1.840312e-07
2.963301e-07
-0.0003063528
0.000305098
1.740843e-07
3.821648e-09
3.485425e-07
2.032091e-07
2.288513e-07
1.004354e-07
-0.0003034825
0.0003023369
1.025526e-07
5.824552e-08
3.212819e-07
3.005865e-07
2.625013e-07
1.011214e-07
-0.000301045
0.0003002742
3.414962e-08
4.323095e-07
5.985808e-08
7.692721e-08
6.648131e-08
3.633635e-08
-0.0002997381
0.0002991989
3.915605e-08
3.041438e-07
3.801301e-08
6.364807e-08
5.793418e-08
8.043912e-08
-0.0002984064
0.0002973961
8.241271e-08
6.318254e-07
9.030516e-08
6.243031e-08
6.288634e-08
2.46592e-07
-0.0002957789
0.0002936285
1.106693e-07
1.245142e-06
2.643856e-07
1.111193e-07
1.724444e-07
3.513331e-07
-0.0002920432
0.0002896565
4.635869e-08
1.539063e-06
1.524091e-07
1.547538e-07
1.428301e-07
5.445256e-08
-0.0002871122
0.0002853417
1.617047e-08
1.411335e-06
1.381635e-07
5.593044e-08
9.447193e-08
-1.974585e-07
-0.0002836256
0.0002821905
7.431278e-10
2.289029e-06
-2.582848e-07
-1.682406e-07
-2.307596e-07
-3.472658e-07
-0.0002812438
0.0002803233
1.458853e-08
2.338745e-06
-3.834852e-07
-3.307501e-07
-3.71382e-07
-4.483995e-07
-0.000279306
0.0002778819
5.098149e-08
3.267408e-06
-4.947828e-07
-4.526832e-07
-4.984832e-07
-6.233073e-07
-0.0002759379
0.0002737572
6.886633e-08
4.823767e-06
-6.975296e-07
-6.367292e-07
-7.543425e-07
-1.193476e-06
-0.0002705625
0.000268209
6.244326e-08
6.972191e-06
-1.25672e-06
-1.004471e-06
-1.226524e-06
-2.774713e-06
-0.0002654461
0.0002640387
1.071105e-07
1.299108e-05
-3.4091e-06
-2.459729e-06
-3.047232e-06
-7.12824e-06
-0.0002643886
0.0002686048
1.559396e-07
2.606447e-05
-8.410761e-06
-6.757858e-06
-8.139711e-06
-4.870828e-06
-0.0002666956
0.0002461024
4.492331e-08
3.425655e-05
-1.046811e-06
-5.35861e-06
-2.432058e-06
-5.023783e-06
-0.0002620572
0.0002521903
-1.254741e-06
1.464764e-05
3.824993e-07
8.15533e-07
2.997717e-07
-2.349681e-07
-0.0002439896
0.0002396571
-6.84986e-07
8.140094e-06
-6.244892e-07
-5.101007e-07
-1.75309e-06
9.682421e-08
-0.0002357949
0.0002309169
-3.578064e-07
5.114223e-06
5.02968e-07
-1.51741e-07
-3.26415e-07
3.456623e-06
-0.0002198492
0.0002035478
1.194727e-07
7.289059e-06
3.200666e-06
2.804668e-06
-5.69079e-07
-8.538194e-07
-0.0002016724
0.0001911428
2.019948e-06
1.257511e-05
1.494914e-06
-3.521456e-06
-1.185098e-06
1.040749e-06
-0.0001802243
0.0001690994
8.498589e-07
1.457213e-06
2.913373e-07
4.21023e-06
3.275521e-06
-7.374063e-07
-0.0001641819
0.0001633283
9.761337e-07
5.832055e-06
-4.933814e-07
-2.92265e-06
-1.801219e-06
-1.2724e-06
-0.0001605839
0.0001610586
8.693668e-07
5.068417e-06
-1.558682e-06
-2.62008e-06
-9.613348e-07
-5.592232e-07
-0.0001594517
0.0001565483
7.141453e-07
5.011541e-06
-9.903923e-07
-1.076515e-06
-1.960702e-07
-6.534529e-07
-0.0001548911
0.0001532718
5.68626e-07
3.751775e-06
-3.084107e-07
-1.247589e-06
-4.915869e-07
-7.60033e-07
-0.0001492976
0.0001480861
6.270162e-07
3.971849e-06
-7.351954e-07
-8.417713e-07
-1.050376e-06
-4.88472e-07
-0.0001478857