/*--------------------------------*- C++ -*----------------------------------*\
| =========                 |                                                 |
| \\      /  F ield         | foam-extend: Open Source CFD                    |
|  \\    /   O peration     | Version:     3.1                                |
|   \\  /    A nd           | Web:         http://www.extend-project.de       |
|    \\/     M anipulation  |                                                 |
\*---------------------------------------------------------------------------*/
FoamFile
{
    version     2.0;
    format      ascii;
    class       volScalarField;
    location    "10";
    object      pd;
}
// * * * * * * * * * * * * * * * * * * * * * * * * * * * * * * * * * * * * * //

dimensions      [1 -1 -2 0 0 0 0];

internalField   nonuniform List<scalar> 
119952
(
7507.952
7581.701
7460.411
7361.094
7272.214
7204.907
7097.436
6994.456
6887.395
6779.967
6688.852
6607.015
6522.317
6454.922
6398.521
6346.314
6319.104
6295.687
6259.227
6249.757
6208.247
6180.584
6141.499
6122.674
6102.983
6062.398
6004.418
6002.644
5998.671
8141.443
6110.145
6056.335
6058.93
6084.475
6130.593
6116.367
6097.882
6062.321
5976.697
5820.477
5884.418
5640.981
5432.16
5237.72
5077.232
4947.346
4840.11
4774.808
5008.632
4965.569
4954.917
5045.622
5179.268
5358.702
5524.122
5784.013
5964.527
6189.481
6354.274
6562.288
6768.076
6957.298
7138.842
7303.193
7438.162
7533.608
7583.724
7563.229
7529.976
7484.928
7454.621
7373.936
7279.837
7182.438
7080.072
6975.769
6869.15
6766.275
6670.345
6583.453
6504.854
6438.284
6384.537
6342.103
6311.682
6286.947
6262.682
6235.943
6206.52
6175.949
6142.021
6110.354
6078.496
6051.368
6035.44
5997.102
6030.096
6006.132
5973.764
5946.166
5908.476
5882.616
5860.938
5831.714
5798.92
5770.081
5751.678
5741.323
5744.619
5761.426
5785.593
5820.648
5861.802
5902.467
5945.858
5997.437
6049.166
6095.984
6147.706
6200.497
6239.758
6280.524
6318.976
6354.26
6386.991
6413.21
6436.624
6468.227
6495.205
6523.668
6549.756
6574.817
6610.925
6652.527
6691.35
6723.846
6762.562
6807.626
6859.868
6902.821
6942.317
6985.688
7023.052
7056.703
7082.641
7109.113
7148.74
7189.387
7237.618
7275.928
7315.422
7358.923
7404.763
7452.204
7503.016
7552.384
7610.177
7667.543
7732.363
7790.241
7856.389
7917.918
7957.384
7972.328
7960.826
7976.98
7990.411
8013.008
8026.071
8029.941
8032.304
8039.938
8053.324
8068.47
8084.004
8097.372
8106.343
8115.481
8121.447
8129.133
8137.998
8145.458
8152.357
8152.478
8154.463
8123.07
8112.095
8062.256
8003.669
7959.658
7931.757
7925.947
7937.791
7955.74
7981.021
7991.283
7987.404
7988.762
8029.241
8034.481
8047.066
8054.399
8051
8079.79
8086.318
8091.1
8092.956
8096.207
8100.793
8099.685
8103.381
8100.766
8097.948
8100.132
8096.621
8086.738
8095.802
8080.763
8075.718
8068.372
8070.526
8061.646
8052.53
8046.485
8039.085
8028.652
8017.497
8005.331
7992.713
7981.46
7971.54
7963.694
7950.751
7947.318
7939.336
7931.745
7927.297
7922.739
7919.552
7912.978
7905.96
7899.399
7895.388
7886.395
7877.098
7869.251
7859.384
7852.369
7846.551
7838.856
7825.464
7810.98
7797.752
7785.023
7771.804
7752.17
7748.851
7724.639
7736.377
7737.042
7729.467
7726.97
7720.416
7714.169
7698.053
7709.19
7686.97
7649.473
7654.94
7648.836
7644.168
7639.922
7641.412
7645.699
7643.292
7643.17
7641.074
7633.005
7604.788
7580.256
7568.164
7574.381
7595.769
7622.467
7628.341
7641.139
7659.01
7661.794
7671.398
7683.22
7695.04
7707.161
7715.065
7722.058
7733.231
7742.87
7750.588
7756.113
7760.966
7767.032
7772.84
7774.151
7777.412
7779.059
7780.672
7781.953
7781.984
7781.197
7779.647
7779.621
7788.47
7801.335
7814.934
7819.982
7831.482
7838.318
7844.472
7848.647
7850.314
7846.857
7839.666
7822.746
7831.329
7832.466
7836.226
7835.668
7827.821
7824.256
7802.14
7762.575
7758.83
7795.713
7832.661
7854.731
7870.615
7884.377
7895.884
7900.465
7901.757
7904.805
7909.13
7910.197
7895.192
7852.949
7832.855
7869.12
7899.064
7932.731
7944.757
7953.485
7961.567
7968.347
7971.119
7972.926
7977.982
7981.36
7981.642
7979.68
7976.856
7955.946
7902.198
7910.78
7967.614
8002.078
8021.986
8028.591
8032.265
8035.142
8037.718
8043.386
8052.715
8051.152
8053.091
8053.924
8051.252
8047.256
8035.622
8032.337
8042.518
8075.524
8073.576
8093.907
8097.465
8100.884
8103.629
8105.682
8108.373
8111.89
8118.602
8123.698
8125.368
8135.247
8140.778
8143.94
8148.956
8153.765
8157.779
8162.122
8166.79
8171.236
8176.437
8183.132
8187.424
8179.146
8158.911
8143.508
5495.21
5427.986
5099.124
5052.578
5033.974
5099.325
5165.297
5260.497
5291.346
5485.199
5779.498
5916.867
6051.14
6180.062
6272.64
6339.478
6389.957
6414.606
6410.158
6461.723
6471.184
6463.378
6451.334
6422.355
6395.377
6362.489
6312.41
6251.588
6216.502
6119.546
6092.747
6072.263
6078.114
6061.134
6052.373
6041.53
6036.526
6042.076
6037.917
6072.602
6105.824
6133.152
6120.775
6095.982
6043.553
5952.538
5827.509
5685.183
5500.155
5319.652
5156.783
5015.934
4898.657
4802.7
4769.847
4817.08
4811.005
4882.911
5002.634
5159.903
5330.639
5532.164
5747.602
5972.719
6188.081
6373.61
6555.772
6745.878
6940.429
7128.799
7301.747
7438.246
7522.692
7566.924
7570.857
7551.177
7505.813
7438.735
7345.322
7235.924
7124.575
7016.327
6907.556
6798.598
6695.158
6599.61
6513.491
6441.862
6385.235
6342.756
6311.832
6293.246
6278.379
6258.455
6230.67
6201.888
6174.365
6142.618
6112.451
6086.419
6061.524
6036.964
6012.879
5985.357
5957.445
5931.297
5905.726
5879.378
5851.215
5822.324
5791.405
5757.336
5726.183
5708.643
5708.913
5725.361
5752.207
5785.104
5821.522
5861.414
5906.204
5953.59
6003.901
6058.006
6112.303
6164.243
6213.038
6256.467
6296.304
6333.089
6367.798
6399.417
6427.323
6452.086
6475.256
6499.077
6525.755
6556.126
6587.947
6620.532
6656.15
6693.613
6733.778
6776.86
6820.206
6864.331
6907.501
6950.03
6989.558
7026.214
7059.74
7090.848
7125.849
7164.248
7195.819
7226
7261.103
7302.131
7351.48
7401.263
7450.559
7502.699
7552.378
7603.042
7659.984
7718.899
7782.802
7846.945
7894.319
7926.162
7937.001
7920.076
7942.912
7982.876
8014.782
8027.903
8024.599
8022.683
8033.95
8050.304
8069.148
8088.816
8103.799
8112.585
8117.183
8123.635
8130.617
8136.267
8146.289
8152.932
8157.61
8150.023
8123.173
8083.546
8029.765
7964.644
7915.508
7906.637
7922.481
7931.921
7935.403
7990.62
8050.05
7987.352
8003.037
8006.987
8025.067
8047.192
8062.759
8071.339
8080.089
8087.969
8093.629
8096.935
8099.597
8101.708
8102.971
8103.609
8103.41
8102.479
8100.336
8097.619
8093.598
8081.287
8077.301
8073.003
8069.424
8065.996
8061.19
8053.904
8046.604
8037.699
8027.042
8014.913
8002.079
7990.354
7980.063
7970.754
7962.009
7954.372
7947.157
7938.953
7932.431
7927.499
7924.246
7918.888
7912.806
7906.202
7899.042
7895.103
7888.276
7879.46
7870.644
7862.092
7853.985
7845.818
7838.707
7816.406
7808.351
7795.416
7780.641
7765.241
7754.533
7750.534
7745.922
7739.932
7737.173
7732.428
7725.859
7719.936
7712.479
7703.39
7692.591
7677.666
7647.507
7650.011
7650.445
7644.381
7640.809
7641.748
7644.759
7646.221
7647.194
7642.894
7626.848
7597.856
7564.246
7552.811
7572.035
7598.767
7624.298
7640.016
7649.063
7657.251
7666.814
7676.356
7686.186
7696.538
7707.221
7716.511
7724.751
7733.621
7742.826
7750.875
7756.42
7760.414
7763.5
7765.415
7769.846
7775.797
7779.368
7780.203
7780.795
7781.436
7780.755
7779.656
7782.89
7792.842
7806.539
7817.462
7824.246
7830.438
7836.098
7840.783
7842.739
7842.524
7840.591
7836.406
7833.27
7830.801
7830.764
7835.73
7835.543
7825.327
7809.02
7782.962
7758.743
7768.195
7799.412
7829.68
7853.727
7870.648
7882.954
7891.937
7896.932
7899.183
7900.087
7904.122
7909.472
7894.75
7871.275
7861.166
7877.418
7899.326
7919.946
7935.288
7949.234
7957.4
7964.617
7968.64
7969.952
7977.89
7981.946
7979.771
7979.013
7975.14
7956.049
7939.887
7944.081
7974.456
7999.837
8012.719
8021.309
8027.586
8032.232
8036.024
8040.384
8045.009
8049.164
8052.495
8052.311
8047.846
8044.345
8040.707
8042.531
8054.529
8068.558
8079.135
8087.323
8093.892
8098.634
8102.413
8106.086
8110.028
8114.118
8118.708
8123.764
8128.584
8133.582
8138.691
8143.653
8147.908
8152.102
8156.254
8160.544
8164.85
8168.99
8172.374
8174.495
8173.507
8169.247
8161.952
8156.653
5185.277
5190.031
5118.586
4976.551
4892.972
4783.23
4707.665
4610.216
4466.453
4246.542
4527.913
4508.226
4572.579
4643.93
4751.522
4935.993
5093.082
5333.995
5474.523
5702.867
5880.403
6026.215
6160.404
6294.97
6415.069
6541.239
6624.737
6706.054
6799.78
6809.57
6792.788
6753.929
6641.965
6453.525
6243.771
6017.558
5780.19
5544.324
5359.472
5179.337
5041.391
4972.949
4968.166
5017.901
5116.903
5255.84
5450.416
5624.502
5781.835
5935.134
6071.266
6183.879
6273.757
6340.529
6389.643
6423.917
6449.094
6463.03
6469.53
6463.467
6444.618
6416.197
6382.224
6336.015
6277.905
6210.849
6143.41
6080.654
6028.38
6025.809
6041.042
6041.191
6028.116
6021.546
6023.37
6032.099
6050.179
6077.516
6114.404
6152.842
6166.826
6068.207
5937.342
5776.78
5597.82
5450.26
5301.918
5164.558
5035.297
4917.445
4816.28
4734.497
4670.652
4633.148
4655.881
4741.864
4877.447
5042.952
5233.527
5435.733
5665.421
5890.368
6082.263
6255.947
6426.653
6611.299
6803.165
7002.357
7205.969
7378.965
7483.309
7531.037
7538.748
7500.457
7449.89
7386.308
7302.545
7192.113
7063.592
6953.572
6845.124
6729.388
6621.479
6532.858
6456.349
6390.893
6341.097
6303.233
6276.621
6271.432
6266.443
6247.424
6220.286
6198.161
6172.568
6140.985
6109.339
6081.382
6053.526
6022.602
5994.665
5968.095
5938.655
5905.772
5874.354
5845.646
5818.17
5787.874
5755.539
5721.943
5694.028
5680.5
5685.637
5707.865
5737.282
5771.513
5811.523
5853.208
5896.267
5945.603
5998.762
6054.875
6114.108
6168.43
6217.945
6262.582
6303.373
6341.101
6375.7
6406.284
6432.858
6454.471
6475.453
6496.678
6519.567
6547.866
6579.83
6613.202
6650.775
6690.897
6731.799
6773.281
6814.644
6857.686
6900.836
6942.766
6982.965
7021.866
7056.808
7089.021
7120.214
7148.27
7166.962
7176.885
7215.825
7257.656
7300.222
7355.284
7405.115
7455.134
7499.044
7539.469
7590.044
7653.952
7745.464
7824.958
7871.98
7906.383
7932.019
7919.282
7880.769
7918.546
7984.428
8023.013
8033.57
8039.474
8050.456
8065.68
8079.355
8087.677
8106.078
8133.062
8130.422
8123.087
8130.808
8145.791
8154.327
8158.674
8161.858
8159.098
8131.396
8072.759
8007.303
7940.029
7860.644
7865.621
7858.664
7883.837
7951.367
8000.047
8017.208
8000.412
8003.292
8006.426
8030.704
8058.01
8062.986
8072.075
8081.705
8089.985
8096.245
8099.591
8101.33
8102.342
8102.555
8103.166
8103.497
8102.356
8099.567
8095.531
8090.71
8084.707
8079.094
8074.939
8070.865
8066.634
8061.133
8053.485
8044.751
8035.098
8024.546
8012.865
7999.931
7987.936
7977.312
7968.116
7959.283
7950.998
7942.767
7937.273
7929.932
7924.883
7920.296
7915.708
7910.496
7904.682
7898.618
7892.704
7885.913
7877.94
7869.254
7860.026
7850.636
7840.667
7829.798
7818.264
7805.593
7792.559
7779.621
7766.814
7756.195
7748.612
7743.677
7739.296
7733.489
7727.042
7720.398
7712.986
7704.179
7694.531
7684.57
7674.61
7666.547
7658.385
7650.804
7643.556
7638.666
7636.818
7636.714
7638.922
7640.447
7636.848
7624.133
7602.925
7580.589
7569.316
7578.249
7596.475
7614.408
7630.466
7646.936
7656.601
7663.634
7672.862
7682.094
7691.024
7700.533
7710.489
7719.97
7728.841
7736.885
7744.205
7751.154
7758.243
7765.455
7772.554
7776.185
7778.281
7780.169
7781.892
7783.348
7783.926
7783.645
7784.157
7787.38
7793.551
7802.525
7811.299
7818.57
7825.493
7832.038
7837.136
7840.663
7841.892
7841.237
7838.393
7835.9
7833.849
7832.943
7831.668
7826.981
7819.48
7808.848
7796.607
7788.14
7794.953
7818.605
7842.624
7860.182
7872.646
7882.2
7889.86
7894.941
7898.631
7902.633
7905.46
7897.548
7882.281
7874.767
7879.752
7892.739
7911.046
7931.568
7941.763
7949.967
7956.782
7960.445
7963.15
7968.545
7972.608
7974.775
7978.094
7976.281
7967.327
7954.156
7948.231
7959.442
7982.018
8000.859
8012.687
8021.373
8028.06
8033.232
8038.285
8043.021
8046.923
8048.142
8048.911
8050.08
8052.484
8049.628
8043.933
8048.624
8059.398
8071.42
8081.37
8088.799
8094.205
8098.464
8102.125
8105.92
8109.903
8114.229
8119.032
8123.915
8128.904
8133.815
8138.347
8142.316
8146.127
8149.946
8153.839
8157.658
8161.251
8164.44
8166.877
8168.389
8168.394
8167.248
8163.932
8160.817
3876.581
3851.313
3713.896
4230.887
4350.164
4566.3
4629.137
4756.884
4900.725
4978.219
5026.674
5057.115
5056.707
5048.123
5018.374
4951.564
4856.616
4749.162
4667.425
4592.551
4525.937
4504.806
4475.906
4489.682
4519.923
4604.007
4742.938
4911.235
5084.702
5286.059
5478.298
5683.339
5858.503
6024.052
6175.356
6314.155
6433.489
6541.694
6648.377
6752.646
6825.135
6848.662
6831.129
6730.879
6552.29
6343.348
6121.239
5882.235
5616.053
5363.381
5146.365
4982.697
4877.046
4837.4
4864.845
4953.097
5087.417
5257.697
5444.098
5627.416
5794.593
5943.748
6073.024
6181.118
6272.64
6345.362
6399.151
6438.599
6462.216
6469.791
6469.748
6464.03
6446.034
6419.032
6383.382
6333.658
6270.421
6195.212
6111.039
6032.91
5984.723
5983.481
6001.097
6013.986
6014.689
6007.752
5997.491
5992.802
6005.478
6040.518
6087.308
6137.963
6133.991
6005.348
5799.199
5613.553
5449.574
5316.383
5194.777
5081.251
4963.792
4846.034
4741.362
4656.946
4602.972
4573.409
4574.951
4632.259
4754.922
4906.68
5096.066
5317.529
5555.804
5789.508
5973.135
6127.611
6292.049
6478.249
6668.329
6849.671
7067.177
7260.306
7366.326
7400.915
7392.857
7356.88
7296.754
7212.996
7123.123
7024.745
6928.204
6836.854
6740.898
6631.601
6526.394
6450.054
6383.774
6326.092
6279.008
6249.455
6242.955
6251.088
6245.42
6230.085
6210.262
6189.137
6164.156
6133.451
6103.601
6080.921
6061.907
6035.447
5999.231
5957.25
5912.092
5869.884
5835.235
5805.317
5779.337
5753.13
5722.269
5692.948
5669.884
5658.358
5664.489
5689.868
5724.341
5761.117
5799.74
5843.523
5891.427
5942.734
5997.173
6053.029
6111.156
6170.189
6224.694
6271.396
6314.531
6352.904
6386.589
6415.777
6438.743
6456.849
6474.222
6492.991
6512.555
6537.106
6567.065
6600.401
6638.832
6680.431
6722.566
6765.336
6808.212
6851.08
6894.06
6937.539
6979.365
7018.786
7055.358
7089.971
7125.069
7157.958
7186.839
7215.614
7242.162
7272.031
7296.275
7314.406
7350.682
7399.495
7443.594
7486.504
7547.371
7609.03
7724.322
7805.582
7854.081
7892.634
7926.952
7957.842
7965.351
7884.084
7871.056
7895.482
7979.036
8041.239
8064.214
8075.963
8085.689
8094.604
8101.974
8117.293
8128.667
8133.267
8138.722
8142.561
8147.333
8155.347
8155.551
8135.156
8114.142
8076.006
8000.317
7923.677
7872.613
7887.755
7922.055
7960.81
7997.812
7990.858
7987.663
8018.395
7994.605
7991.302
8019.06
8040.16
8061.146
8077.71
8083.333
8089.704
8095.759
8099.805
8102.482
8103.918
8104.623
8105.266
8104.648
8102.077
8097.551
8093.241
8090.352
8085.398
8080.32
8076.098
8070.211
8067.604
8063.743
8054.975
8045.97
8036.506
8025.836
8014.494
8001.002
7987.247
7975.456
7964.762
7955.655
7947.145
7942.079
7934.5
7926.663
7921.847
7918.073
7913.469
7908.492
7902.222
7896.27
7890.472
7883.143
7874.94
7866.835
7858.329
7849.069
7839.15
7828.23
7816.79
7804.802
7792.448
7780.23
7767.883
7756.938
7747.602
7740.578
7734.465
7727.383
7719.649
7711.931
7704.474
7696.637
7688.108
7678.893
7669.16
7659.657
7651.65
7645.695
7641.529
7638.394
7636.935
7635.955
7635.48
7634.046
7630.522
7621.226
7607.299
7595.373
7590.094
7593.166
7604.29
7619.185
7634.57
7648.167
7658.323
7666.87
7676.062
7684.952
7693.886
7702.935
7711.892
7720.729
7729.295
7737.409
7744.763
7751.522
7757.132
7761.672
7765.587
7769.21
7773.057
7776.592
7779.175
7781.419
7783.655
7785.279
7787.395
7791.68
7798.46
7806.119
7813.303
7819.704
7825.309
7829.649
7832.541
7834.367
7835.157
7834.889
7835.493
7834.94
7833.727
7831.574
7827.926
7824.859
7821.702
7816.436
7810.918
7806.958
7810.12
7823.641
7839.633
7853.317
7864.388
7873.287
7880.429
7885.745
7892.748
7904.622
7907.524
7897.445
7888.942
7890.027
7893.609
7902.584
7915.152
7928.628
7936.723
7942.415
7951.322
7956.206
7959.163
7964.842
7966.144
7968.137
7973.024
7971.815
7967.509
7963.219
7962.429
7970.116
7983.124
7996.812
8007.501
8015.431
8021.913
8027.596
8032.49
8036.91
8040.907
8044.708
8047.68
8049.64
8051.601
8052.242
8052.599
8056.084
8062.361
8070.553
8078.552
8085.277
8090.72
8095.498
8100.033
8104.376
8108.589
8112.992
8117.665
8122.296
8126.867
8131.392
8135.832
8140.119
8144.245
8148.094
8151.791
8155.31
8158.569
8161.377
8163.566
8165.037
8165.602
8165.334
8164
8163.117
3812.788
3764.027
3740.454
3662.083
3623.622
3603.77
3594.642
3574.376
3592.377
3655.027
3653.48
3789.114
3915.775
4026.901
4204.642
4351.196
4536
4639.685
4770.445
4897.995
4986.729
5054.059
5095.069
5111.229
5100.391
5041.12
4958.01
4862.085
4748.096
4645.176
4566.777
4491.316
4410.696
4369.584
4384.558
4439.153
4531.412
4664.235
4824.065
5005.519
5213.516
5420.209
5603.912
5768.415
5922.817
6074.983
6227.132
6360.51
6478.047
6619.026
6746.939
6836.729
6884.666
6852.303
6718.911
6508.628
6262.71
6005.524
5752.825
5475.554
5205.405
4982.513
4819.929
4723.103
4702.673
4753.231
4858.696
4999.041
5178.572
5390.792
5600.152
5785.344
5940.825
6072.237
6169.711
6267.066
6344.644
6402.436
6444.079
6469.21
6477.364
6481.97
6477.815
6459.858
6434.537
6396.702
6341.511
6271.355
6190.518
6109.324
6037.261
5990.942
5983.268
5989.324
5992.87
5994.923
5984.293
5961.81
5944.524
5941.42
5965.989
6011.119
6068.161
6024.743
5852.102
5643.994
5480.204
5341.123
5226.087
5123.823
5021.727
4912.238
4794.895
4688.46
4602.893
4536.566
4500.939
4496.265
4531.867
4627.14
4764.239
4945.367
5177.576
5433.49
5696.483
5918.857
6112.117
6293.531
6444.776
6617.172
6803.984
6979.591
7111.552
7181.681
7186.682
7132.838
7042.955
6941.783
6883.239
6851.525
6803.4
6717.988
6643.101
6587.234
6512.39
6428.519
6354.657
6299.154
6245.721
6203.94
6190.05
6197.243
6213.076
6222.021
6218.252
6192.143
6165.174
6145.402
6118.306
6094.709
6080.056
6063.826
6035.307
5991.818
5941.197
5884.542
5832.461
5788.717
5757.77
5732.891
5713.193
5691.066
5668.188
5651.823
5644.817
5652.503
5679.041
5717.013
5755.56
5795.169
5839.738
5887.387
5938.771
5995.112
6052.448
6110.402
6171.72
6229.763
6282.687
6328.064
6366.061
6400.611
6430.824
6454.124
6469.844
6482.174
6494.524
6507.388
6526.005
6552.268
6583.597
6621.593
6666.868
6711.81
6756.047
6800.714
6844.405
6888.737
6933.154
6975.833
7015.307
7051.672
7085.538
7117.225
7148.762
7181.203
7209.365
7246.446
7299.782
7350.179
7395.137
7447.247
7498.279
7551.207
7574.094
7626.385
7687.841
7744.421
7791.731
7835.349
7878.822
7919.587
7958.609
7993.341
8022.107
7994.156
7898.408
7895.821
7978.391
8059.167
8081.206
8091.859
8107.887
8107.104
8104.101
8116.022
8127.252
8130.325
8136.066
8142.198
8144.88
8138.711
8128.69
8110.988
8071.065
8028.653
7987.118
7946.278
7943.033
7981.56
7979.025
7977.139
7986.427
7986.197
7995.907
7988.309
8000.504
8014.097
8021.848
8041.281
8060.718
8077.849
8094.015
8103.328
8104.2
8104.572
8104.75
8104.633
8104.147
8103.708
8102.461
8099.488
8096.012
8092.189
8087.091
8082.872
8080.118
8075.617
8067.823
8061.4
8054.667
8046.577
8037.585
8027.246
8015.386
8000.695
7986.325
7974.757
7964.18
7954.774
7946.542
7941.12
7933.183
7924.098
7918.347
7915.684
7912.178
7906.415
7899.327
7892.913
7886.913
7880.045
7872.419
7864.549
7856.257
7847.186
7837.589
7827.232
7816.14
7804.388
7792.194
7780.217
7768.538
7757.53
7748.241
7740.206
7733.333
7726.605
7719.045
7710.817
7701.949
7693.185
7684.272
7675.438
7667.056
7659.193
7652.159
7646.115
7640.88
7636.258
7633.171
7631.57
7630.37
7628.237
7624.783
7619.081
7611.059
7602.536
7598.763
7602.915
7611.191
7620.932
7630.4
7642.039
7654.488
7664.059
7673.419
7682.23
7690.852
7699.479
7708.22
7717.02
7725.494
7733.415
7740.709
7747.353
7753.497
7759.508
7765.179
7770.013
7774.059
7777.296
7780.086
7782.909
7785.738
7788.024
7790.285
7793.911
7799.082
7804.944
7810.426
7815.349
7820.375
7824.94
7828.561
7830.709
7831.979
7832.317
7833.62
7832.788
7831.173
7830.169
7826.747
7824.826
7824.227
7821.897
7818.634
7817.318
7820.235
7830.326
7843.163
7854.704
7863.712
7871.805
7880.634
7890.775
7899.307
7904.232
7902.689
7896.731
7895.719
7897.939
7900.934
7909.69
7917.999
7927.88
7935.639
7939.344
7946.589
7953.373
7958.674
7965.54
7967.38
7968.227
7970.987
7971.727
7971.241
7970.351
7971.619
7976.497
7985.269
7996.344
8007.058
8015.654
8022.386
8027.914
8033
8037.608
8042.006
8045.677
8048.56
8051.193
8053.129
8054.97
8057.002
8060.046
8064.933
8071.879
8079.088
8085.502
8090.813
8095.444
8099.864
8104.154
8108.446
8112.921
8117.557
8122.215
8126.716
8130.978
8135.174
8139.279
8142.946
8146.528
8149.884
8153.112
8156.115
8158.663
8160.744
8162.23
8163.234
8163.73
8163.646
8163.959
4265.771
4264.509
4280.24
4212.968
4178.065
4127.405
4085.397
4033.889
3967.863
3912.115
3846.103
3770.616
3701.732
3653.421
3604.045
3573.178
3544.88
3508.168
3500.747
3513.266
3592.027
3715.968
3844.739
3998.582
4205.757
4456.513
4550.472
4590.396
4789.697
4929.461
5028.974
5095.903
5141.561
5158.297
5147.018
5097.192
4997.713
4870.602
4746.07
4620.161
4503.965
4405.021
4331.187
4284.417
4278.465
4325.836
4425.038
4550.105
4695.42
4859.617
5063.309
5283.412
5483.216
5652.369
5798.781
5931.291
6076.035
6234.449
6356.496
6468.768
6572.2
6655.413
6736.974
6778.539
6657.23
6375.915
6091.459
5851.952
5590.346
5274.652
4993.119
4776.103
4630.063
4560.095
4567.201
4641.696
4763.21
4921.612
5128.155
5378.53
5610.861
5805.785
5963.969
6088.143
6185.867
6276.641
6353.889
6414.481
6458.749
6481.5
6497.311
6506.769
6507.302
6491.395
6463.074
6420.213
6358.291
6277.13
6184.547
6092.422
6017.846
5978.368
5978.326
5981.423
5980.225
5974.907
5954.933
5916.039
5877.541
5846.629
5847.517
5890.489
5922.793
5864.431
5685.539
5510.705
5372.849
5258.895
5157.84
5071.036
4979.721
4880.7
4769.821
4664.951
4583.111
4521.057
4476.862
4461.103
4485.608
4550.704
4658.982
4815.121
5033.07
5287.52
5541.827
5773.461
5971.137
6161.478
6337.432
6512.03
6662.931
6783.125
6880.305
6910.127
6859.901
6723.206
6549.995
6408.186
6359.237
6387.072
6438.327
6451.54
6434.646
6382.871
6324.981
6267.666
6219.408
6184.97
6154.398
6135.999
6137.771
6152.267
6175.202
6182.848
6175.073
6166.757
6159.283
6138.702
6104.666
6089.029
6081.572
6063.478
6038.598
5992.793
5927.637
5850.009
5779.713
5730.997
5701.923
5684.03
5669.31
5657.885
5649.481
5642.504
5640.904
5648.981
5673.82
5710.881
5748.9
5787.415
5832.115
5883.286
5940.053
5998.704
6056.777
6117.783
6180.732
6238.316
6289.517
6333.95
6376.611
6415.209
6445.403
6466.51
6477.968
6483.652
6489.198
6497.945
6513.228
6538.021
6569.874
6609.933
6653.981
6698.818
6743.91
6789.067
6835.041
6881.56
6927.623
6971.794
7012.297
7048.839
7081.289
7110.226
7139.119
7169.25
7196.723
7221.415
7262.624
7320.223
7371.388
7418.208
7474.835
7537.962
7587.416
7645.488
7692.319
7734.822
7776.02
7822.513
7866.415
7907.338
7948.219
7988.085
8025.116
8055.77
8076.64
8083.961
8066.665
8051.295
8060.875
8076.31
8093.022
8097.758
8099.566
8110.346
8119.361
8126.886
8133.398
8135.29
8138.495
8148.542
8157.016
8122.478
8069.695
8044.323
8019.451
7984.255
7962.672
7963.108
7951.85
7939.685
7962.225
7998.644
8033.94
8053.031
8044.363
8035.326
8037.492
8041.875
8049.837
8066.575
8078.721
8088.163
8099.384
8106.789
8106.727
8105.998
8105.301
8104.516
8102.351
8098.936
8095.77
8092.065
8089.855
8088.823
8086.677
8083.785
8073.202
8058.65
8051.53
8043.448
8035.26
8028.473
8019.921
8003.206
7985.413
7969.871
7961.885
7957.109
7946.708
7937.4
7930.243
7923.254
7916.188
7912.063
7908.626
7903.951
7896.227
7888.386
7881.543
7875.188
7869.22
7862.231
7854.148
7845.288
7835.966
7825.755
7814.635
7802.852
7790.96
7779.251
7768.006
7757.049
7746.671
7737.006
7728.046
7719.309
7710.367
7701.632
7693.556
7685.507
7677.514
7669.207
7661.045
7653.774
7647.085
7640.839
7635.757
7632.133
7629.864
7628.259
7626.266
7624.274
7621.771
7618.694
7613.753
7608.22
7607.204
7611.412
7620.029
7628.106
7632.393
7638.581
7651.415
7663.419
7672.461
7681.38
7690.187
7698.942
7707.717
7716.492
7725.02
7732.979
7740.356
7747.096
7753.295
7759.085
7764.116
7768.191
7772.002
7775.871
7779.2
7782.143
7785.214
7788.449
7791.451
7795.391
7800.45
7806.08
7811.477
7816.338
7820.297
7823.884
7826.888
7829.074
7830.515
7831.089
7831.762
7831.152
7830.103
7829.654
7828.241
7826.459
7826.535
7826.325
7825.065
7825.835
7829.836
7837.391
7846.197
7855
7863.395
7871.298
7878.031
7885.917
7892.679
7895.292
7895.952
7895.334
7896.772
7900.698
7906.11
7912.857
7919.507
7927.133
7933.618
7937.882
7943.936
7950.957
7956.978
7963.058
7965.504
7967.415
7970.028
7971.949
7973.312
7975.09
7977.755
7982.589
7989.768
7997.807
8005.883
8013.455
8020.164
8025.723
8030.529
8034.834
8038.895
8042.928
8046.619
8049.683
8052.452
8054.949
8058.36
8062.141
8067.504
8073.468
8079.189
8084.469
8089.547
8094.318
8098.859
8103.146
8107.307
8111.34
8116.057
8121.029
8125.419
8129.49
8133.382
8137.031
8140.699
8144.188
8147.729
8150.911
8153.745
8156.119
8158.161
8159.754
8160.987
8161.718
8162.399
8163.714
4344.922
4343.92
4330.603
4315.813
4297.298
4286.37
4269.741
4243.71
4216.506
4180.584
4128.232
4078.316
4025.867
3972.706
3916.194
3841.12
3742.353
3655.738
3583.333
3528.352
3497.016
3457.068
3415.405
3374.561
3373.466
3473.66
3616.448
3769.192
3945.713
4109.008
4290.182
4471.344
4617.914
4776.539
4941.487
5059.478
5143.247
5195.221
5213.403
5196.697
5146.744
5039.809
4891.714
4754.276
4626.337
4504.048
4394.214
4306.044
4238.642
4214.62
4261.06
4344.642
4451.212
4579.752
4716.264
4895.54
5108.14
5305.415
5463.032
5599.076
5730.762
5867.142
5986.266
6100.186
6236.043
6347.708
6440.263
6504.975
6532.972
6448.405
6235.353
5967.309
5699.694
5414.541
5097.578
4825.785
4634.702
4522.379
4484.436
4532.199
4644.658
4787.429
4965.429
5187.11
5434.109
5667.924
5863.354
6017.287
6136.337
6227.965
6302.962
6373.707
6436.05
6483.319
6510.076
6533.003
6546.566
6544.398
6529.853
6503.359
6457.126
6387.887
6293.723
6190.077
6083.038
5999.257
5967.1
5974.924
5976.088
5969.935
5957.871
5925.774
5871.482
5798.314
5727.306
5712.945
5759.35
5778.266
5711.754
5558.06
5420.454
5295.272
5198.623
5114.599
5040.354
4961.141
4875.001
4774.452
4677.107
4598.098
4531.434
4488.61
4469.953
4485.956
4536.395
4619.596
4760.838
4950.948
5162.826
5396.171
5627.355
5823.729
6003.755
6178.736
6343.959
6486.152
6574.226
6608.561
6573.15
6428.653
6123.551
5735.097
5536.498
5630.986
5824.187
6007.913
6125.245
6182.383
6185.577
6154.832
6081.477
6060.349
6071.73
6070.703
6067.38
6078.896
6100.503
6120.361
6134.34
6148.451
6150.508
6139.534
6125.704
6106.292
6095.802
6083.941
6065.568
6043.443
5986.891
5903.398
5801.018
5712.807
5660.302
5635.24
5629.401
5627.873
5628.689
5629.968
5631.582
5639.364
5653.339
5677.631
5714.211
5754.527
5797.093
5843.058
5895.022
5951.004
6007.943
6064.291
6121.722
6185.056
6242.582
6295.413
6345.245
6390.184
6425.934
6454.622
6477.633
6494.762
6505.403
6512.493
6516.971
6524.543
6543.57
6571.324
6610.106
6653.943
6695.696
6735.974
6778.845
6823.824
6871.036
6919.351
6965.757
7008.373
7045.819
7077.199
7103.568
7130.166
7157.631
7183.835
7207.097
7227.194
7263.357
7320.245
7378.91
7437.903
7501.652
7573.891
7639.21
7688.069
7726.65
7765.882
7813.308
7855.907
7892.731
7934.887
7974.943
8008.875
8032.348
8050.646
8051.84
8047.142
8040.755
8018.167
8032.454
8060.365
8078.456
8090.45
8103.206
8113.108
8120.688
8128.071
8136.559
8145.179
8154.235
8150.004
8118.784
8080.81
8053.686
8029.354
8002.635
7984.603
7977.867
7982.506
7992.44
8005.892
8026.882
8039.822
8049.373
8048.964
8045.367
8051.802
8059.485
8065.054
8072.042
8075.145
8081.664
8088.989
8099.542
8108.245
8108.271
8105.834
8103.93
8102.273
8100.893
8099.695
8097.27
8093.643
8089.678
8085.458
8083.571
8078.292
8069.874
8059.683
8045.371
8031.559
8024.036
8019.839
8008.232
7989.369
7970.899
7959.079
7952.198
7945.4
7936.791
7927.369
7919.668
7915.282
7910.111
7904.416
7899.879
7894.507
7887.334
7878.341
7871.541
7864.638
7858.722
7852.087
7843.925
7834.468
7823.567
7811.978
7799.966
7788.508
7777.407
7766.492
7755.388
7744.337
7733.833
7724.304
7715.775
7707.539
7698.788
7689.522
7680.662
7672.349
7664.279
7656.476
7649.372
7642.975
7637.287
7632.605
7629.372
7627.019
7624.59
7622.255
7620.364
7618.725
7616.718
7614.071
7611.992
7611.75
7615.379
7621.352
7629.089
7634.953
7638.678
7647.324
7659.144
7670.369
7680.638
7689.636
7698.039
7706.168
7714.232
7722.36
7730.287
7737.711
7744.533
7750.759
7756.556
7761.9
7766.844
7771.436
7775.716
7779.579
7783.035
7786.448
7789.743
7793.276
7797.16
7801.123
7805.634
7810.043
7813.789
7817.644
7821.31
7824.479
7826.98
7828.855
7830.245
7831.45
7830.872
7829.382
7828.512
7828.493
7827.254
7827.98
7828.626
7829.476
7832.452
7837.867
7844.317
7850.995
7858.66
7866.484
7873.774
7879.335
7884.726
7889.719
7893.342
7895.703
7896.908
7899.277
7903.268
7908.394
7914.086
7920.165
7926.65
7932.762
7938.116
7943.85
7949.744
7955.082
7960.095
7963.613
7966.549
7969.526
7972.205
7974.638
7977.304
7980.468
7985.72
7992.54
7998.96
8005.492
8012.21
8018.634
8024.467
8029.497
8034.12
8038.733
8043.863
8047.813
8050.101
8052.468
8055.736
8059.477
8063.518
8068.601
8073.889
8078.734
8083.719
8088.649
8093.381
8098.358
8103.133
8107.423
8111.562
8115.762
8120.147
8124.355
8128.224
8132.077
8135.904
8139.816
8143.591
8146.619
8149.214
8151.647
8153.941
8155.988
8157.779
8159.281
8160.67
8161.989
8163.103
4345.456
4341.026
4313.307
4295.302
4281.926
4284.26
4275.218
4254.928
4230.285
4187.809
4132.035
4069.125
4015.357
3980.293
3956.04
3859.721
3748.874
3643.985
3537.199
3448.287
3380.003
3319.317
3272.998
3231.973
3257.725
3359.772
3515.104
3682.375
3870.183
4044.465
4213.137
4376.464
4674.541
4811.127
4944.355
5091.439
5202.095
5260.481
5266.941
5234.833
5178.226
5069.459
4919.191
4772.767
4631.139
4498.499
4382.872
4281.841
4203.172
4168.704
4203.73
4272.084
4355.677
4454.251
4567.811
4718.277
4904.551
5075.444
5213.624
5333.963
5429.357
5527.858
5638.678
5742.244
5842.123
5950.949
6104.429
6199.061
6232.484
6186.721
6043.499
5802.787
5502.113
5203.391
4931.496
4704.397
4558.973
4496.589
4502.968
4589.971
4737.244
4901.539
5079.774
5288.67
5530.71
5761.926
5942.493
6080.414
6191.142
6276.276
6342.46
6405.129
6469.926
6518.906
6559.267
6586.163
6602.035
6598.714
6577.861
6539.665