/*--------------------------------*- C++ -*----------------------------------*\
| =========                 |                                                 |
| \\      /  F ield         | foam-extend: Open Source CFD                    |
|  \\    /   O peration     | Version:     3.1                                |
|   \\  /    A nd           | Web:         http://www.extend-project.de       |
|    \\/     M anipulation  |                                                 |
\*---------------------------------------------------------------------------*/
FoamFile
{
    version     2.0;
    format      ascii;
    class       volScalarField;
    location    "11";
    object      omega;
}
// * * * * * * * * * * * * * * * * * * * * * * * * * * * * * * * * * * * * * //

dimensions      [0 0 -1 0 0 0 0];

internalField   nonuniform List<scalar> 
119952
(
311.237
395.5111
377.4557
332.6256
302.0443
307.1444
314.8121
323.753
333.3878
343.3887
353.5251
363.6265
373.5997
383.3852
392.8896
402.136
411.2156
420.3107
429.7767
440.7096
366.1564
362.7592
364.3025
305.0478
297.8915
293.6955
290.3807
287.3363
281.3719
149.3041
793.897
662.8107
559.7057
484.7263
427.6265
382.4284
345.4493
314.4926
288.0801
259.7634
220.0071
191.8367
171.8405
156.6405
144.3564
133.955
124.8755
116.8113
109.6106
85.66239
81.44402
77.34951
73.45133
69.83335
66.53229
63.54361
60.84722
58.40718
56.20421
54.24047
52.35457
50.53424
48.78057
47.08911
45.45657
43.87443
42.31994
40.78905
40.14479
39.61012
38.79931
38.06201
37.4375
36.91748
36.4476
36.03644
35.70013
35.44891
35.29343
35.27749
35.42819
35.70741
36.10045
36.58183
37.11422
37.64623
38.10102
38.38665
38.37881
38.42357
38.18238
37.85
37.62307
37.58083
37.6945
38.23782
39.904
42.5108
43.05602
43.30056
43.31139
43.25928
43.19668
43.1387
43.09809
43.07963
43.0848
43.11569
43.17496
43.26718
43.39909
43.57964
43.81924
44.12799
44.51302
44.97525
45.5065
46.08695
46.68488
47.25877
47.76561
48.16995
48.45366
48.61342
48.65773
48.60034
48.45537
48.23252
47.94282
47.61073
47.27312
46.98893
46.83622
46.91419
47.41614
48.67601
51.47558
57.80902
67.0895
76.6851
87.16147
95.52946
97.78207
93.34577
79.57259
64.31797
52.41829
44.46289
39.52712
36.47211
34.12564
31.84952
29.60619
27.45755
25.46936
23.74081
22.32883
21.23396
20.43453
19.8399
19.40199
19.13252
19.04545
19.14278
19.41273
19.83387
20.37897
21.01769
21.71586
22.4145
23.0974
23.74953
24.35575
24.90304
25.38094
25.78237
26.10382
26.3451
26.50871
26.59965
26.62577
26.59856
26.53375
26.44545
26.34454
26.24065
26.14223
26.05667
25.9907
25.95079
25.94304
25.9699
25.99982
26.02396
26.04436
26.07166
26.41321
39.40791
43.91452
43.84975
43.64064
43.48474
43.33169
43.16759
43.03146
42.9142
42.81089
42.72
42.64075
42.57331
42.51804
42.47518
42.44435
42.4258
42.4269
42.44854
42.49168
42.57181
42.77738
43.09255
43.45831
43.86769
44.30911
44.77809
45.27191
45.77715
46.29573
46.83726
47.39853
47.97311
48.543
49.0362
48.73027
47.79797
47.05215
46.39644
45.80151
45.24359
44.70954
44.19224
43.68806
43.19518
42.71332
42.24264
41.78299
41.33472
40.89802
40.47306
40.05994
39.65864
39.26907
38.89105
38.52442
38.1689
37.82423
37.49013
37.16625
36.85213
36.54748
36.252
35.96496
35.68582
35.41398
35.14879
34.88919
34.63564
34.38261
27.45493
26.93138
26.36851
25.7863
25.24597
24.76541
24.34931
23.99538
23.69295
23.43233
23.20652
23.00872
22.8328
22.67231
22.5199
22.37095
22.22234
22.07208
21.91905
21.76279
21.60321
21.44053
21.27512
21.10753
20.93835
20.76822
20.59772
20.42742
20.25781
20.08934
19.92241
19.75738
19.59454
19.43417
19.27646
19.1216
18.96976
18.82107
18.67567
18.53367
18.39524
18.2606
18.13014
18.00488
17.88727
17.78015
17.68145
17.5875
17.49804
17.41278
17.33141
17.25438
17.18244
17.11999
17.09726
17.02172
16.93126
16.82731
16.71205
16.59075
16.46824
16.34858
16.235
16.12984
16.03447
15.9496
15.87536
15.81145
15.75727
15.71207
15.675
15.64522
15.62193
15.60439
15.59196
15.58404
15.58018
15.57996
15.58304
15.58917
15.59813
15.60975
15.6239
15.64048
15.65939
15.68057
15.70395
15.72948
15.75711
15.78679
15.81846
15.85205
15.8875
15.92472
15.96365
16.00419
16.04623
16.08967
16.13435
16.18013
16.22682
16.27421
16.32209
16.3702
16.41824
16.46589
16.51282
16.55865
16.60299
16.64542
16.68552
16.72286
16.75697
16.78741
16.81379
16.83577
16.85306
16.86539
16.87254
16.8743
16.87049
16.86093
16.84553
16.82417
16.79673
16.76312
16.72326
16.677
16.62411
16.5643
16.49701
16.42146
16.33593
16.23718
16.11764
15.96138
15.73309
15.39443
15.29619
762.3982
624.2781
553.9847
505.0503
464.2505
428.4275
396.6569
368.4488
342.2741
283.6789
223.6555
188.1369
165.6711
150.4551
139.415
130.8607
123.8389
117.7826
93.03591
88.09491
83.36354
78.9616
74.96913
71.39662
68.22431
65.41128
62.91615
60.69883
58.77188
56.98076
55.26301
53.63851
52.13268
50.76729
49.55343
48.49165
47.5739
47.12208
46.97379
46.72674
46.4346
46.13707
45.83707
45.53907
45.23511
44.91836
44.58184
44.20271
43.76404
43.2567
42.6678
41.992
41.23519
40.41057
39.53532
38.63492
34.351
33.56137
32.8063
32.08705
31.4021
30.75083
30.13198
29.54342
28.98226
28.44462
27.92826
27.43017
26.94512
26.46896
25.99931
25.53498
25.07662
24.6281
24.2021
23.79942
23.40683
23.032
22.68764
22.37743
22.09894
21.84907
21.62656
21.43006
21.25852
21.11175
20.99124
20.90375
20.85385
20.83533
20.84332
20.87014
20.90551
20.93772
20.9553
20.94972
20.92051
20.86024
20.78048
20.71653
20.67058
20.64759
20.66331
20.72078
20.76997
20.77626
20.78259
20.78607
20.78945
20.79621
20.80709
20.82253
20.84233
20.86609
20.89359
20.92482
20.9603
21.00118
21.04935
21.10732
21.17782
21.2632
21.36473
21.48203
21.61269
21.75237
21.89544
22.03605
22.16913
22.29124
22.40021
22.49463
22.57364
22.63611
22.68126
22.71067
22.72747
22.74001
22.76219
22.81371
22.93032
23.16142
23.5868
24.33408
25.54976
27.21714
29.61336
32.85321
36.84767
41.18087
45.85749
50.45482
54.26283
56.41919
57.18938
56.42479
53.01225
47.3711
41.17197
35.51132
30.82257
27.13607
24.28138
22.05829
20.30675
18.9112
17.77505
16.77871
15.90021
15.14707
14.53359
14.0769
13.78579
13.6557
13.6668
13.78694
13.96989
14.17383
14.3681
14.5302
14.64477
14.703
14.70198
14.64403
14.53556
14.38592
14.20617
14.00806
13.80305
13.60133
13.41131
13.23948
13.09018
12.96582
12.86743
12.79509
12.74814
12.7256
12.72124
12.72468
12.73181
12.74008
12.74854
12.77768
13.66783
13.95793
14.03245
14.02753
13.98083
13.90923
13.8215
13.72272
13.61621
13.50438
13.38911
13.27198
13.15444
13.03777
12.92316
12.81166
12.70417
12.60101
12.5023
12.4086
12.32022
12.23696
12.15884
12.08596
12.01798
11.95445
11.895
11.83953
11.78802
11.74
11.69462
11.65098
11.60803
11.56397
11.51509
11.45693
11.39192
11.32366
11.25258
11.1796
11.10551
11.03098
10.95653
10.88254
10.80934
10.73715
10.66618
10.59659
10.52854
10.46218
10.39763
10.33501
10.27446
10.21608
10.15997
10.10623
10.05496
10.00623
9.960106
9.91664
9.875866
9.837797
9.802426
9.769723
9.739643
9.712126
9.68709
9.664475
9.644174
9.627408
8.654569
8.617762
8.591576
8.571325
8.554059
8.538326
8.523408
8.508777
8.494039
8.478932
8.463274
8.446933
8.429815
8.411843
8.392953
8.373081
8.352161
8.330131
8.306936
8.282529
8.256876
8.229966
8.201803
8.172408
8.141819
8.110083
8.077261
8.043421
8.008636
7.97299
7.936567
7.899457
7.861748
7.823532
7.784901
7.745946
7.706759
7.667433
7.628064
7.58875
7.549605
7.510763
7.472388
7.434669
7.397765
7.361697
7.326273
7.291388
7.257121
7.223528
7.190654
7.158557
7.127363
7.097573
7.069182
7.04025
7.011344
6.982999
6.955297
6.928118
6.901339
6.874889
6.848746
6.822922
6.797465
6.772446
6.747943
6.72404
6.70082
6.678363
6.656741
6.63602
6.616257
6.597501
6.579793
6.563169
6.547656
6.533279
6.520057
6.508006
6.49714
6.48747
6.479007
6.471757
6.465729
6.460929
6.457362
6.455035
6.453952
6.454118
6.455536
6.458209
6.462142
6.467337
6.473796
6.481521
6.490509
6.500759
6.512262
6.525008
6.538979
6.554153
6.5705
6.587979
6.606541
6.626126
6.646661
6.668059
6.690221
6.713034
6.736372
6.760096
6.784057
6.808096
6.832045
6.855727
6.878958
6.901547
6.923303
6.944032
6.963546
6.981642
6.998135
7.012812
7.025497
7.03596
7.044033
7.049444
7.052015
7.051368
7.047243
7.039011
7.026086
7.007263
6.981486
6.947574
6.906407
6.865135
6.824773
599.2083
526.2799
467.299
424.2325
391.7705
366.9469
347.7965
333.3468
322.9121
308.5265
179.768
167.7659
157.5948
148.5636
140.9972
135.5668
133.7205
132.0731
123.8229
82.29752
81.02661
80.77649
80.4799
80.06402
79.60357
79.04597
78.37751
77.5348
76.07903
73.01185
70.36496
68.47596
67.02432
65.77745
64.62652
63.52626
62.45833
61.40491
61.40148
60.49473
59.23793
57.88946
56.57395
55.34078
54.20276
53.15601
52.19118
51.29884
50.44994
49.61564
48.78186
47.94391
47.10329
46.26275
45.42447
44.5957
40.85112
40.09067
39.3506
38.62314
37.9053
37.19847
36.50736
35.83931
35.20274
34.60503
34.05145
33.54461
33.08638
32.67575
32.30965
31.98302
31.68894
31.42029
31.17225
30.94381
30.73681
30.55346
30.39289
30.25165
30.12501
30.00632
29.88007
29.74335
29.60111
29.44982
29.27585
29.06862
28.82233
28.5363
28.21361
27.86091
27.48676
27.09572
26.73964
26.37309
25.99875
25.61834
25.23582
24.85729
24.4864
24.12514
23.77425
23.43359
23.10234
22.77877
22.46095
22.14755
21.83783
21.53174
21.23016
20.93459
20.64821
20.37419
20.11193
19.86257
19.63076
19.41969
19.22875
19.05476
18.89464
18.74605
18.60759
18.47869
18.3597
18.25266
18.16329
18.09286
18.03918
17.99878
17.967
17.93868
17.90805
17.86973
17.8218
17.76195
17.68977
17.61211
17.53614
17.46402
17.40108
17.3498
17.30305
17.25184
17.19859
17.14871
17.10293
17.06189
17.02594
16.99503
16.96896
16.94738
16.92989
16.91609
16.90574
16.89891
16.89607
16.89816
16.9064
16.92202
16.94592
16.9783
17.01851
17.06511
17.11598
17.16884
17.22139
17.27181
17.31885
17.36145
17.39906
17.43124
17.45759
17.47927
17.49762
17.5163
17.54239
17.58357
17.65624
17.78062
17.98427
18.32463
18.84576
19.5812
20.64801
22.15007
24.12874
26.60184
29.52967
32.73837
36.08799
39.31496
42.29602
44.92067
46.68674
47.32365
46.75177
44.96323
42.17341
38.84673
35.39621
32.0589
28.9549
26.12359
23.61378
21.4916
19.63947
18.00763
16.5893
15.39701
14.4396
13.72009
13.22837
12.93852
12.80218
12.75989
12.76523
12.78235
12.78555
12.75883
12.69481
12.59316
12.4587
12.29945
12.12491
11.94492
11.76867
11.60384
11.45672
11.33224
11.2337
11.16253
11.11869
11.10128
11.10887
11.13966
11.18931
11.24622
11.30411
11.35779
11.40206
11.43648
11.44744
11.44969
11.43647
11.40196
11.34588
11.26965
11.17525
11.0651
10.94185
10.80817
10.66667
10.51986
10.37012
10.21959
10.07012
9.923134
9.779594
9.640042
9.504898
9.3744
9.248739
9.128127
9.012673
8.902267
8.796641
8.69552
8.598652
8.505805
8.416728
8.331129
8.248649
8.168882
8.091298
8.015309
7.940425
7.866682
7.794564
7.724111
7.655141
7.587514
7.521131
7.455946
7.391952
7.329179
7.267673
7.207503
7.148747
7.09149
7.035818
6.981812
6.929548
6.879096
6.830517
6.783864
6.739181
6.696508
6.655868
6.617277
6.580744
6.546265
6.513831
6.483421
6.455007
6.428554
6.404025
6.381372
6.360569
6.341556
6.324339
6.307172
6.310917
6.312131
6.311551
6.309647
6.306995
6.303984
6.300755
6.297316
6.293622
6.289613
6.285222
6.280373
6.274982
6.268966
6.26224
6.254723
6.246335
6.237003
6.226661
6.215253
6.202732
6.189068
6.17424
6.158243
6.141081
6.122771
6.103339
6.082821
6.061264
6.038719
6.015248
5.990917
5.965792
5.939945
5.913454
5.886396
5.85885
5.830896
5.802617
5.774095
5.745421
5.716686
5.687988
5.659417
5.631048
5.602911
5.574987
5.547258
5.519767
5.492564
5.465709
5.43923
5.413169
5.387477
5.362283
5.337561
5.313336
5.289572
5.266197
5.243178
5.220517
5.198233
5.176341
5.154851
5.133773
5.11312
5.092903
5.073137
5.053839
5.035025
5.016713
4.998925
4.981678
4.964994
4.948891
4.93339
4.918509
4.904265
4.890678
4.877762
4.865535
4.85401
4.843203
4.833125
4.82379
4.815209
4.807393
4.800352
4.794096
4.788633
4.783972
4.780122
4.777089
4.774882
4.773508
4.772973
4.773283
4.774442
4.776452
4.779312
4.783022
4.787576
4.792965
4.799176
4.806191
4.813987
4.822533
4.831793
4.841724
4.852274
4.863385
4.874991
4.88702
4.899393
4.912024
4.924821
4.937686
4.950517
4.963204
4.975639
4.9877
4.999274
5.010224
5.020434
5.029747
5.038048
5.045152
5.050949
5.055189
5.057772
5.058314
5.056734
5.052412
5.045399
5.034863
5.021478
5.004385
4.985927
4.966165
362.2595
259.7796
373.3981
164.7285
127.4783
92.68729
79.56513
68.73855
60.02503
55.90525
54.27806
53.44409
52.63511
51.91556
51.21895
50.59241
50.01348
49.46785
49.00726
48.67145
48.41711
48.28965
48.43716
48.76241
49.16153
49.63519
50.18436
50.80211
51.4438
52.02062
52.41698
51.10684
51.77158
52.41381
52.85625
53.139
53.26064
53.21764
53.0033
52.62398
52.10709
51.48089
50.78216
50.0472
49.30058
48.55553
47.81872
47.09396
46.38432
45.69403
45.03025
44.39025
43.76661
43.15642
42.55876
41.97346
41.4006
40.83988
40.29032
39.75047
39.21881
38.69335
38.17151
37.65061
37.12831
36.60209
36.06969
35.5245
35.02009
34.50136
33.975
33.44631
32.92005
32.40233
31.90064
31.42354
30.97909
30.57389
30.21208
29.89559
29.62546
29.39977
29.21251
29.05239
28.90406
28.75291
28.59106
28.41759
28.23435
28.04411
27.85018
27.65601
27.46365
27.27247
27.0939
26.92706
26.76469
26.59735
26.41521
26.20983
25.97584
25.71141
25.41874
25.10268
24.76936
24.42506
24.07709
23.72949
23.38652
23.05398
22.73422
22.42536
22.1252
21.83362
21.55095
21.27699
21.01106
20.7522
20.4994
20.25197
20.00968
19.77285
19.54238
19.31974
19.10683
18.9062
18.71996
18.54954
18.39611
18.25934
18.13669
18.02349
17.91473
17.80681
17.69784
17.58693
17.47399
17.3607
17.25322
17.15595
17.06949
16.9932
16.92518
16.8624
16.80145
16.73893
16.672
16.5988
16.51823
16.43096
16.3396
16.24729
16.15682
16.07045
15.98824
15.90857
15.83045
15.75446
15.68141
15.61179
15.54572
15.48316
15.42402
15.36835
15.31614
15.26721
15.22134
15.17838
15.13843
15.10185
15.06928
15.04149
15.01916
15.0026
14.9917
14.9859
14.98428
14.98569
14.98891
14.99281
14.99647
14.99906
15.00001
14.99893
14.99557
14.99021
14.98347
14.97706
14.97405
14.97844
14.99782
15.04155
15.12275
15.2657
15.491
15.82227
16.31128
17.01724
17.99528
19.30011
20.95774
22.97271
25.31371
27.8349
30.38461
32.9103
35.30994
37.47718
39.25477
40.42376
40.8541
40.57175
39.67175
38.25589
36.41311
34.19534
31.58793
28.66191
25.76311
23.11343
20.7512
18.6887
16.93881
15.50499
14.38663
13.56621
12.99518
12.61293
12.36277
12.19458
12.06796
11.9539
11.83462
11.70214
11.55599
11.4006
11.2431
11.09159
10.95319
10.83336
10.73635
10.66526
10.62165
10.60603
10.61762
10.65464
10.7146
10.79449
10.89014
10.99241
11.09446
11.19072
11.2758
11.34603
11.39421
11.41832
11.41746
11.39053
11.33773
11.26028
11.15888
11.03542
10.89293
10.73501
10.56536
10.38759
10.20507
10.02081
9.837427
9.656688
9.479457
9.306594
9.138873
8.97673
8.820427
8.670231
8.52628
8.38844
8.256358
8.129735
8.008277
7.891735
7.779855
7.672352
7.568931
7.469254
7.37294
7.279666
7.189203
7.10154
7.016807
6.934951
6.85577
6.779055
6.704632
6.632371
6.562174
6.493985
6.427752
6.36344
6.301054
6.240607
6.182118
6.125605
6.071089
6.018589
5.968121
5.919698
5.87333
5.829022
5.78676
5.746539
5.708342
5.672145
5.637916
5.605618
5.57521
5.546647
5.519882
5.494861
5.471549
5.449883
5.429852
5.411299
5.395207
5.381081
5.368583
5.357411
5.347347
5.338233
5.329932
5.322317
5.315264
5.308658
5.302386
5.296336
5.290392
5.28444
5.278366
5.272057
5.265406
5.258308
5.250665
5.24239
5.233401
5.223631
5.21302
5.201524
5.189107
5.175747
5.161433
5.146164
5.129953
5.112818
5.094791
5.075913
5.056224
5.035774
5.014622
4.992829
4.970457
4.947575
4.924249
4.900552
4.876556
4.852332
4.827954
4.803486
4.778986
4.754495
4.730032
4.705611
4.681268
4.657049
4.633
4.609153
4.585531
4.562165
4.539111
4.51635
4.493869
4.471677
4.449788
4.428215
4.406971
4.386068
4.365517
4.345324
4.325495
4.306035
4.286952
4.268251
4.24994
4.232025
4.214516
4.19742
4.180748
4.16451
4.148715
4.133373
4.118497
4.104096
4.090181
4.076762
4.063851
4.051457
4.03959
4.028259
4.017473
4.007242
3.997573
3.988474
3.979953
3.972017
3.964673
3.957927
3.951787
3.94626
3.941351
3.937067
3.933413
3.930393
3.928011
3.926267
3.925163
3.924696
3.924865
3.925662
3.927079
3.929103
3.931718
3.934906
3.93864
3.942893
3.947631
3.952818
3.958411
3.964364
3.970628
3.977149
3.983868
3.990725
3.997654
4.004586
4.011449
4.018168
4.024658
4.030835
4.036608
4.041881
4.046548
4.050499
4.053606
4.055737
4.056736
4.056445
4.054686
4.051311
4.046185
4.039251
4.030519
4.020222
4.009127
337.9887
225.6525
169.0637
151.539
121.8918
101.3951
86.00923
79.56674
72.62809
68.35462
64.66002
60.0437
55.58466
51.503
47.85143
43.9932
38.39844
37.09765
36.149
35.61893
35.45155
35.52367
35.69717
35.91949
36.18159
36.48718
36.85702
37.28276
37.75158
38.26063
38.81346
39.4146
40.06729
40.77351
41.53324
42.34768
43.21401
44.12652
45.09059
46.12489
47.20194
48.18077
48.80084
49.37509
49.85487
50.17771
50.32328
50.28359
50.06568
49.69348
49.19649
48.63995
48.06431
47.48043
46.8927
46.30414
45.71601
45.12796
44.54038
43.95482
43.37333
42.79723
42.22975
41.67238
41.12563
40.58882
40.06056
39.53934
39.02308
38.50947
37.99655
37.48341
36.9693
36.45314
35.9335
35.40931
34.87993
34.34571
33.80645
33.26665
32.72919
32.19811
31.67805
31.17487
30.69617
30.25137
29.85083
29.50368
29.21604
28.99055
28.82798
28.72755
28.68271
28.67684
28.68368
28.67167
28.6154
28.50547
28.34345
28.13228
27.87593
27.58391
27.27282
26.96568
26.67475
26.40034
26.14252
25.89813
25.65974
25.41785
25.16399
24.89259
24.6015
24.29237
23.96938
23.63759
23.30186
22.96627
22.63439
22.30934
21.9936
21.68892
21.39668
21.1185
20.85358
20.6003
20.35749
20.12437
19.90026
19.68462
19.47725
19.27843
19.08899
18.91031
18.74427
18.59322
18.45994
18.3472
18.2564
18.18635
18.13258
18.08754
18.04203
17.98824
17.922
17.84169
17.74586
17.63297
17.50478
17.37174
17.24114
17.11739
17.00293
16.89801
16.80117
16.70996
16.62154
16.53314
16.44258
16.34824
16.24931
16.14629
16.04089
15.93491
15.83003
15.72718
15.62622
15.52631
15.42725
15.32964
15.2341
15.1408
15.04969
14.96083
14.87447
14.7909
14.71039
14.63301
14.55868
14.48731
14.41899
14.35405
14.29303
14.23645
14.18456
14.13733
14.09444
14.05546
14.01967
13.98632
13.95464
13.9239
13.89343
13.86265
13.83109
13.79841
13.76447
13.72942
13.69393
13.65934
13.62793
13.6034
13.59066
13.59691
13.63287
13.71006
13.84341
14.05814
14.38631
14.86387
15.53195
16.42949
17.59177
19.03323
20.70973
22.56094
24.54846
26.60437
28.61817
30.49223
32.12105
33.41145
34.33157
34.87779
35.04195
34.83695
34.26922
33.32767
32.00311
30.23813
28.01332
25.49478
22.93718
20.55593
18.45475
16.68541
15.25663
14.1446
13.31641
12.71846
12.29192
11.98186
11.74334
11.54453
11.36601
11.19859
11.04053
10.89478
10.76619
10.6595
10.57866
10.5264
10.50333
10.50849
10.54063
10.59821
10.67867
10.77873
10.89468
11.02236
11.1553
11.28748
11.41383
11.5293
11.62933
11.70844
11.76164
11.78667
11.7826
11.74762
11.6805
11.58191
11.4537
11.29932
11.12313
10.92981
10.72402
10.51015
10.29216
10.07344
9.856749
9.644032
9.436677
9.23591
9.042622
8.856888
8.678628
8.507781
8.344192
8.187587
8.037638
7.893983
7.756323
7.624331
7.497661
7.375958
7.258868
7.146057
7.037236
6.932194
6.830832
6.733116
6.638949
6.548149
6.460517
6.375879
6.294088
6.215017
6.138558
6.064625
5.993142
5.924059
5.857343
5.792967
5.730907
5.671141
5.613652
5.558422
5.505432
5.454666
5.4061
5.35971
5.315466
5.273336
5.233278
5.19525
5.159201
5.125078
5.092827
5.062392
5.033714
5.00674
4.981404
4.957652
4.935416
4.914677
4.895408
4.877561
4.861047
4.845773
4.831657
4.818618
4.806567
4.795408
4.785039
4.775361
4.766269
4.757659
4.749421
4.741447
4.733627
4.725852
4.718015
4.710012
4.701744
4.693118
4.684047
4.674456
4.664275
4.653445
4.64192
4.629661
4.616641
4.602843
4.588261
4.572901
4.556776
4.539906
4.522318
4.504048
4.485141
4.465641
4.445599
4.425071
4.404111
4.382778
4.361131
4.339228
4.317122
4.294863
4.272491
4.250037
4.227531
4.205008
4.182509
4.160075
4.13774
4.115535
4.093491
4.071637
4.049973
4.028496
4.007225
3.986184
3.965393
3.944864
3.924609
3.904639
3.884965
3.865595
3.846538
3.827802
3.809394
3.791321
3.773591
3.75621
3.739187
3.722527
3.70624
3.690333
3.674813
3.659688
3.644965
3.630654
3.61676
3.603291
3.590255
3.577658
3.565506
3.553807
3.542566
3.531789
3.521482
3.511649
3.502297
3.49343
3.485053
3.477173
3.469795
3.462923
3.456562
3.450717
3.445389
3.440583
3.436297
3.432534
3.429291
3.426567
3.424356
3.422653
3.421449
3.420733
3.42049
3.420705
3.421358
3.422427
3.423887
3.42571
3.427865
3.430321
3.43304
3.435987
3.439121
3.442398
3.445775
3.449203
3.452631
3.456005
3.459267
3.462356
3.465203
3.467738
3.469881
3.471547
3.47264
3.473067
3.472714
3.471494
3.469294
3.466059
3.461711
3.456276
3.449746
3.442671
166.1246
124.1553
191.431
96.36764
82.86957
71.50023
67.78375
64.98003
61.85457
60.33858
58.45265
55.84484
53.33197
50.68954
47.6795
42.41038
40.94299
39.58082
38.31085
37.13936
36.0284
35.02021
34.16141
33.46859
32.94742
32.57886
32.27873
31.99429
31.86938
31.92075
32.13155
32.45441
32.83458
33.24641
33.69465
34.17982
34.68956
35.22278
35.78174
36.37112
36.99666
37.6646
38.38195
39.15717
39.99002
40.8758
41.8101
42.76018
43.68457
44.63433
45.49979
46.22758
46.77236
47.22094
47.5016
47.59889
47.51582
47.27677
46.91944
46.51488
46.10628
45.73084
45.38322
45.05128
44.72328
44.38853
44.03933
43.66874
43.27509
42.85938
42.42398
41.97163
41.50816
41.03766
40.56247
40.08313
39.59944
39.11092
38.61609
38.11303
37.60107
37.08101
36.55409
36.02093
35.48151
34.93613
34.38596
33.83325
33.28073
32.73219
32.19352
31.67243
31.17736
30.71796
30.30613
29.95582
29.681
29.49186
29.39189
29.38026
29.45616
29.61543
29.84099
30.09766
30.33552
30.50013
30.55493
30.49439
30.32264
30.03618
29.63678
29.14888
28.6236
28.12183
27.64246
27.1861
26.75724
26.35844
25.98517
25.62773
25.27635
24.92389
24.56681
24.20527
23.84238
23.48232
23.12877
22.78423
22.4505
22.12897
21.82052
21.52572
21.2449
20.97808
20.72473
20.48427
20.25623
20.04105
19.83944
19.65148
19.47776
19.31922
19.17724
19.05385
18.95186
18.87494
18.82725
18.81259
18.83193
18.87986
18.9431
19.00308
19.04206
19.05034
19.02745
18.97542
18.89138
18.76845
18.60652
18.42314
18.23286
18.04788
17.87501
17.71634
17.57097
17.43659
17.31044
17.1897
17.07176
16.95434
16.83549
16.7139
16.58925
16.46206
16.3332
16.20345
16.07306
15.94164
15.80916
15.6766
15.54514
15.41513
15.28636
15.15895
15.03373
14.91189
14.7943
14.68135
14.57292
14.46865
14.36818
14.27148
14.1789
14.0909
14.00767
13.92902
13.85459
13.78384
13.71626
13.65136
13.5886
13.52741
13.4672
13.40737
13.34743
13.28698
13.2257
13.1635
13.1005
13.03725
12.97498
12.91557
12.86181
12.81781
12.78908
12.78247
12.80714
12.87639
13.00752
13.22199
13.54619
14.00885
14.63953
15.46437
16.49166
17.70846
19.0899
20.59352
22.15787
23.71996
25.2082
26.54125
27.65917
28.53805
29.16523
29.55405
29.73133
29.71276
29.50183
29.06363
28.33122
27.2176
25.65366
23.69898
21.56466
19.46796
17.56521
15.95484
14.66233
13.66582
12.91828
12.36393
11.94943
11.63092
11.37662
11.16639
10.98968
10.84258
10.7249
10.63789
10.58302
10.56086
10.57074
10.61054
10.67668
10.76549
10.87355
10.99694
11.13148
11.27294
11.41726
11.5604
11.69862
11.82778
11.94345
12.04083
12.11541
12.16395
12.18199
12.16521
12.11157
12.02166
11.89778
11.74335
11.56269
11.36048
11.14151
10.91041
10.67155
10.42892
10.18603
9.945811
9.71053
9.481847
9.26094
9.048752
8.846212
8.65328
8.468982
8.292898
8.124655
7.963861
7.81008
7.662847
7.521686
7.38614
7.255781
7.130233
7.00918
6.892378
6.779663
6.670916
6.566009
6.464778
6.367058
6.272695
6.181555
6.09352
6.00848
5.926328
5.846969
5.770337
5.696387
5.625067
5.556329
5.490129
5.426426
5.365184
5.306367
5.249941
5.195874
5.144128
5.094667
5.047448
5.002427
4.959554
4.918773
4.880026
4.843254
4.808393
4.775381
4.744153
4.714645
4.686791
4.660528
4.635788
4.61251
4.590641
4.570118
4.550878
4.532864
4.516018
4.500275
4.48556
4.471796
4.458901
4.446789
4.435372
4.424557
4.414248
4.404347
4.394756
4.385374
4.376101
4.366842
4.357499
4.347985
4.338214
4.328108
4.317597
4.306616
4.295114
4.283045
4.270373
4.25707
4.243124
4.22853
4.213284
4.197395
4.180881
4.163768
4.146085
4.127867
4.109154
4.089987
4.070413
4.050478
4.030228
4.009709
3.988963
3.968029
3.946942
3.925734
3.904442
3.883103
3.861754
3.840431
3.819164
3.79798
3.776905
3.755953
3.735136
3.714474
3.693985
3.673688
3.653597
3.633727
3.614091
3.594702
3.57557
3.556707
3.538121
3.51982
3.501814
3.484109
3.466715
3.449639
3.432887
3.416468
3.400389
3.384657
3.369279
3.354261
3.33961
3.325332
3.311434
3.297919
3.284795
3.272066
3.259736
3.247811
3.236294
3.22519
3.214502
3.204234
3.19439
3.184975
3.175994
3.16745
3.159348
3.151692
3.144485
3.137728
3.131423
3.125569
3.120167
3.115214
3.110708
3.106644
3.103017
3.099818
3.097039
3.094668
3.092692
3.091096
3.089863
3.088973
3.088406
3.08814
3.088151
3.088414
3.088901
3.089585
3.090436
3.091422
3.092509
3.093663
3.094846
3.096016
3.097131
3.098142
3.098999
3.099646
3.100024
3.100066
3.099706
3.098871
3.097498
3.095513
3.092877
3.089531
3.085474
3.080675
3.075556
62.75685
49.76561
51.6402
49.49598
48.52758
47.22873
46.14382
45.13079
44.18369
42.69652
39.36152
38.84828
38.30785
37.76665
37.18447
36.56481
35.95667
35.40412
34.92424
34.5029
34.00205
33.27426
32.59617
31.97317
31.41834
30.93491
30.53593
30.22585
30.00483
29.86385
29.78806
29.76839
29.81649
29.94731
30.16887
30.47224
30.83149
31.21872
31.64288
32.09676
32.57112
33.06717
33.58864
34.14057
34.73052
35.36679
36.05671
36.81303
37.64322
38.5315
39.42526
40.33825
41.24156
42.0341
42.74916
43.36702
43.85966
44.20691
44.40773
44.45431
44.357
44.15961
43.93095
43.73631
43.6232
43.59558
43.62335
43.67334
43.72105
43.74174
43.7189
43.64039
43.49762
43.29329
43.03034
42.71393
42.35397
41.9589
41.53745
41.09681
40.64011
40.16876
39.68298
39.18061
38.65942
38.12051
37.56771
37.00474
36.4342
35.85847
35.28066
34.70514
34.13712
33.58211
33.04704
32.54111
32.07496
31.66071
31.3133
31.05129
30.89461
30.858
30.94427
31.14504
31.45369
31.87155
32.39194
32.98281
33.58366
34.11095
34.48698
34.67184
34.67178
34.48799
34.09368
33.47544
32.67881
31.82733
31.02123
30.25575
29.51888
28.81649
28.16453
27.56877
27.02165
26.51095
26.02588
25.55884
25.10635
24.66924
24.25081
23.85385
23.47893
23.12555
22.79303
22.48028
22.18598
21.90916
21.64908
21.40461
21.17451
20.9584
20.75653
20.57016
20.40251
20.25901
20.14132
20.05139
19.99188
19.96696
19.98295
20.04792
20.16919
20.34776
20.5682
20.79482
20.98558
21.1099
21.16626
21.17179
21.13897
21.05909
20.90962
20.68191
20.40411
20.11037
19.82757
19.56761
19.33229
19.11905
18.92418
18.74442
18.57658
18.41748
18.26396
18.11264
17.95997
17.80304
17.64062
17.47309
17.30153
17.1263
16.94704
16.76442
16.58111
16.39954
16.21995
16.04132
15.86334
15.68741
15.51593
15.351
15.19352
15.04339
14.89972
14.76136
14.62762
14.49874
14.37531
14.25749
14.14486
14.03687
13.93309
13.83312
13.73659
13.64313
13.55226
13.46339
13.37589
13.28923
13.20292
13.11651
13.02964
12.9421
12.85394
12.7657
12.6783
12.5933
12.51308
12.44074
12.38042
12.33776
12.32028
12.33789
12.40344
12.53303
12.74548
13.06189
13.50432
14.09023
14.82684
15.71021
16.72191
17.82778
18.98787
20.15424
21.27135
22.29022
23.17958
23.9214
24.5103
24.95395
25.2614
25.44775
25.53127
25.51685
25.36561
24.96916
24.18609
22.94694
21.34107
19.57348
17.84803
16.30047
14.99483
13.94229
13.12083
12.49179
12.01274
11.646
11.36254
11.14254
10.97391
10.8499
10.76684
10.72243
10.71448
10.7402
10.79624
10.87827
10.98075
11.09835
11.22637
11.36033
11.49603
11.63115
11.76416
11.89324
12.01577
12.12825
12.22686
12.3072
12.3628
12.38752
12.37815
12.33355
12.25396
12.14079
11.99652
11.82452
11.62872
11.41331
11.18262
10.94094
10.69243
10.44092
10.18975
9.941615
9.698671
9.462543
9.234549
9.016082
8.808365
8.611215
8.423595
8.244829
8.074367
7.911613
7.755946
7.606754
7.463463
7.325556
7.192587
7.064188
6.94007
6.820018
6.70387
6.59148
6.482708
6.37742
6.275497
6.176838
6.081354
5.988963
5.899573
5.81309
5.729455
5.648632
5.570571
5.495221
5.422533
5.352461
5.284967
5.220012
5.157562
5.097582
5.04004
4.984898
4.932119
4.881661
4.833476
4.787513
4.743716
4.702025
4.662376
4.624705
4.588946
4.555031
4.522894
4.492467
4.46368
4.436466
4.410761
4.386504
4.363634
4.342091
4.321819
4.302755
4.284835
4.267988
4.252145
4.237228
4.223159
4.209857
4.197236
4.185209
4.173685
4.162574
4.151781
4.141215
4.130784
4.120398
4.109971
4.099422
4.088675
4.077658
4.066308
4.054569
4.042392
4.029737
4.016572
4.00288
3.988641
3.973847
3.958499
3.942609
3.926191
3.909266
3.891857
3.873997
3.855718
3.837055
3.818047
3.79873
3.779141
3.759314
3.739285
3.719086
3.698752
3.678317
3.657818
3.637288
3.616757
3.596253
3.575803
3.555425
3.53514
3.514966
3.494922
3.475026
3.455296
3.435748
3.416396
3.397254
3.378336
3.359652
3.341212
3.323027
3.305104
3.287454
3.270084
3.253003
3.236217
3.219736
3.203565
3.187713
3.172185
3.156987
3.142127
3.127609
3.113439
3.09962
3.086159
3.073058
3.060322
3.047954
3.035958
3.024337
3.013092
3.002229
2.991749
2.981657
2.971957
2.962653
2.95375
2.94525
2.937157
2.929471
2.922191
2.915318
2.90885
2.902784
2.897117
2.891844
2.88696
2.882456
2.878324
2.874553
2.871132
2.868048
2.865286
2.862831
2.860666
2.858774
2.857135
2.85573
2.854539
2.85354
2.852711
2.852029
2.851469
2.851005
2.850609
2.850253
2.849903
2.849526
2.849084
2.848538
2.847844
2.846955
2.845825
2.844401
2.842638
2.840486
2.837909
2.834866
2.831343
2.827317
2.823144
99.19823
40.378
35.46186
34.30358
33.56227
33.12602
32.95076
32.89957
32.93471
33.0345
33.06056
32.83454
32.57002
32.28023
31.9654
31.63308
31.30077
30.97895
30.66144
30.33018
29.96197
29.57018
29.21732
28.91241
28.66019
28.46396
28.32486
28.23852
28.20044
28.20293
28.24155
28.31492
28.42554
28.57478
28.76753
28.99997
29.26049
29.57559
29.93396
30.32912
30.76286
31.23881
31.76003
32.3285
32.95289
33.64596
34.41477
35.24892
36.14518
37.08599
37.95163
38.75953
39.49577
40.13265
40.66771
41.08722
41.37944
41.54082
41.56552
41.50689
41.42588
41.42581
41.56187
41.85524
42.2752
42.77325
43.29973
43.80644
44.25749
44.62002
44.87885
45.01859
45.03976
44.94855
44.75799
44.48953
44.16541
43.80145
43.41395
43.00951
42.58686
42.14257
41.67112
41.16467
40.61964
40.0405
39.43528
38.81075
38.17308
37.53052
36.89436
36.27553
35.68711
35.13454
34.62857
34.18622
33.8192
33.54369