/*--------------------------------*- C++ -*----------------------------------*\
| =========                 |                                                 |
| \\      /  F ield         | foam-extend: Open Source CFD                    |
|  \\    /   O peration     | Version:     3.1                                |
|   \\  /    A nd           | Web:         http://www.extend-project.de       |
|    \\/     M anipulation  |                                                 |
\*---------------------------------------------------------------------------*/
FoamFile
{
    version     2.0;
    format      ascii;
    class       volScalarField;
    location    "11";
    object      pd;
}
// * * * * * * * * * * * * * * * * * * * * * * * * * * * * * * * * * * * * * //

dimensions      [1 -1 -2 0 0 0 0];

internalField   nonuniform List<scalar> 
119952
(
6931.218
6124.86
5998.138
6108.638
6227.544
6118.705
6089.299
6062.177
6044.378
6032.231
6025.187
6023.233
6026.282
6033.157
6044.288
6058.327
6074.324
6090.083
6096.841
6061.64
6300.28
6199.901
6178.032
6471.41
6462.469
6514.056
6555.35
6645.651
6885.924
7802.737
5082.281
4963.306
4920.791
4883.045
4858.496
4851.444
4850.557
4864.591
4889.693
4904.499
4947.15
4998.404
5044.588
5093.161
5142.792
5193.08
5243.442
5293.704
5342.039
5429.536
5457.208
5494.109
5538.999
5582.067
5624.685
5666.283
5706.752
5744.597
5782.056
5809.848
5841.113
5872.536
5899.932
5925.146
5948.261
5969.353
5992.867
6042.836
6144.678
6064.408
6046.993
6090.836
6105.325
6094.008
6065.087
6044.732
6030.131
6020.161
6015.224
6014.932
6019.528
6028.568
6041.572
6057.734
6076.051
6095.365
6115.722
6140.794
6183.277
6227.781
6253.317
6340.694
6454.014
6494.107
6525.389
6556.248
6537.254
6401.1
6393.486
6448.981
6480.767
6512.035
6542.326
6570.303
6597.698
6624.893
6652.039
6679.322
6706.827
6734.611
6762.684
6791.021
6819.568
6848.246
6876.963
6905.624
6934.142
6962.46
6990.568
7018.521
7046.454
7074.565
7103.046
7132.008
7161.524
7191.616
7222.289
7253.692
7285.954
7319.34
7354.266
7390.792
7429.395
7470.531
7514.086
7560.056
7605.355
7637.864
7636.157
7651.224
7686.838
7701.365
7714.885
7737.015
7737.711
7741.572
7739.505
7731.102
7728.098
7727.379
7723.194
7713.908
7701.123
7686.862
7673.469
7663.459
7658.735
7660.277
7668.205
7681.754
7699.455
7719.68
7740.988
7762.083
7781.855
7799.495
7814.592
7826.886
7836.269
7842.838
7846.618
7847.673
7846.098
7841.999
7835.495
7826.731
7815.884
7803.179
7788.889
7773.341
7756.915
7740.044
7723.201
7706.897
7691.655
7677.989
7666.381
7657.273
7651.051
7648.044
7648.503
7652.676
7660.589
7672.143
7687.187
7705.486
7726.599
7747.513
7771.573
7796.883
7822.455
7847.87
7872.565
7896.195
7918.419
7939.019
7957.863
7974.88
7990.047
8003.392
8014.98
8024.9
8033.256
8040.164
8045.806
8050.277
8053.683
8056.186
8057.854
8058.719
8058.951
8058.626
8057.797
8056.521
8054.847
8052.816
8050.455
8047.79
8044.817
8041.498
8037.704
8033.013
8027.359
8027.012
8025.722
8024.021
8022.094
8020.001
8017.824
8015.588
8013.319
8011.031
8008.735
8006.439
8004.152
8001.877
7999.617
7997.374
7995.149
7992.94
7990.745
7988.563
7986.388
7984.215
7982.041
7979.859
7977.663
7975.446
7973.202
7970.925
7968.609
7966.248
7963.838
7961.377
7958.868
7956.348
7953.562
7956.607
7950.708
7944.298
7941.292
7938.058
7934.517
7931.088
7927.644
7924.112
7920.525
7916.877
7913.169
7909.401
7905.571
7901.679
7897.731
7893.725
7889.666
7885.558
7881.407
7877.216
7872.992
7868.741
7864.467
7860.177
7855.875
7851.566
7847.256
7842.951
7838.657
7834.379
7830.123
7825.894
7821.699
7817.544
7813.436
7809.38
7805.384
7801.454
7797.601
7793.834
7790.169
7786.627
7783.24
7779.995
7776.669
7772.951
7769.105
7765.49
7762.05
7758.745
7755.589
7752.51
7749.145
7743.681
7741.891
7739.991
7737.288
7734.728
7732.278
7729.919
7727.67
7725.523
7723.472
7721.514
7719.652
7717.88
7716.195
7714.592
7713.068
7711.622
7710.25
7708.949
7707.718
7706.555
7705.456
7704.421
7703.446
7702.53
7701.671
7700.867
7700.115
7699.413
7698.761
7698.155
7697.593
7697.073
7696.594
7696.153
7695.748
7695.378
7695.041
7694.733
7694.453
7694.199
7693.97
7693.761
7693.572
7693.399
7693.241
7693.094
7692.956
7692.824
7692.695
7692.566
7692.434
7692.296
7692.147
7691.985
7691.806
7691.606
7691.38
7691.125
7690.836
7690.508
7690.136
7689.714
7689.236
7688.694
7688.082
7687.389
7686.608
7685.725
7684.729
7683.601
7682.326
7680.88
7679.238
7677.366
7675.221
7672.743
7669.851
7666.427
7662.261
7657.041
7650.562
7644.214
7646.808
7674.441
6587.641
6473.039
6339.309
6218.43
6106.232
6003.605
5911.048
5828.977
5762.427
5680.528
5635.984
5598.74
5568.696
5547.691
5534.64
5528.248
5526.414
5527.333
5540.885
5553.472
5548.839
5549.152
5549.608
5548.326
5544.216
5536.197
5523.918
5507.241
5486.516
5449.059
5412.905
5369.618
5319.052
5262.087
5199.863
5134.874
5071.453
5012.009
4946.717
4894.598
4860.837
4840.364
4832.686
4840.231
4858.301
4886.663
4922.51
4963.398
5012.218
5061.152
5110.276
5159.963
5209.939
5259.694
5309.254
5359.092
5420.482
5470.297
5512.963
5555.595
5598.541
5641.022
5682.109
5721.336
5758.518
5793.668
5827.809
5859.392
5887.712
5913.824
5938.512
5962.274
5986.369
6011.293
6037.972
6062.256
6062.381
6054.297
6055.563
6056.076
6048.187
6033.097
6017.25
6004.892
5997.468
5995.101
5997.684
6005.137
6017.595
6034.352
6054.955
6078.849
6105.698
6135.79
6170.025
6209.17
6253.087
6301.942
6356.847
6413.309
6456.618
6482.619
6491.521
6485.036
6463.056
6455.573
6473.721
6500.43
6528.019
6554.513
6580.352
6606.379
6632.803
6659.555
6686.613
6714.01
6741.763
6769.85
6798.218
6826.798
6855.498
6884.241
6912.953
6941.573
6970.06
6998.408
7026.651
7054.885
7083.21
7111.743
7140.587
7169.79
7199.469
7229.657
7260.48
7292.176
7324.73
7358.635
7393.777
7429.961
7468.222
7506.046
7542.967
7578.532
7605.008
7620.996
7643.613
7669.887
7687.31
7701.509
7719.117
7732.155
7733.514
7738.539
7749.548
7754.216
7740.754
7723.349
7709.698
7695.885
7680.055
7665.069
7654.897
7650.85
7653.778
7663.643
7679.411
7698.952
7720.756
7743.516
7765.862
7786.567
7804.726
7820.193
7832.643
7842.09
7848.426
7851.843
7852.445
7850.354
7845.702
7838.623
7829.268
7817.827
7804.534
7789.666
7773.553
7756.576
7739.172
7721.824
7705.056
7689.409
7675.397
7663.49
7654.117
7647.665
7644.47
7644.837
7648.686
7656.369
7667.74
7682.582
7700.375
7720.251
7741.35
7762.728
7788.202
7813.765
7839.158
7863.89
7887.557
7909.859
7930.599
7949.643
7966.907
7982.359
7996.014
8007.93
8018.196
8026.915
8034.194
8040.163
8044.945
8048.67
8051.452
8053.38
8054.542
8055.041
8054.958
8054.357
8053.296
8051.823
8049.984
8047.811
8045.327
8042.541
8039.448
8036.048
8032.447
8029.155
8026.992
8025.223
8023.292
8021.271
8019.149
8016.956
8014.713
8012.437
8010.139
8007.833
8005.524
8003.222
8000.93
7998.652
7996.39
7994.146
7991.917
7989.704
7987.504
7985.312
7983.125
7980.938
7978.746
7976.542
7974.321
7972.076
7969.801
7967.491
7965.139
7962.742
7960.301
7957.815
7955.319
7953.253
7949.167
7946.921
7943.88
7940.186
7936.567
7933.165
7929.818
7926.405
7922.907
7919.339
7915.711
7912.019
7908.262
7904.44
7900.557
7896.613
7892.612
7888.558
7884.455
7880.308
7876.121
7871.901
7867.651
7863.379
7859.088
7854.786
7850.476
7846.165
7841.859
7837.563
7833.283
7829.024
7824.792
7820.593
7816.435
7812.323
7808.263
7804.262
7800.326
7796.463
7792.681
7788.985
7785.378
7781.846
7778.352
7774.837
7771.249
7767.634
7764.101
7760.693
7757.403
7754.222
7751.122
7748.018
7744.656
7741.428
7738.682
7736.185
7733.721
7731.278
7728.908
7726.642
7724.484
7722.427
7720.468
7718.604
7716.832
7715.148
7713.548
7712.031
7710.592
7709.228
7707.939
7706.72
7705.57
7704.486
7703.466
7702.509
7701.61
7700.77
7699.985
7699.253
7698.572
7697.941
7697.357
7696.817
7696.32
7695.864
7695.447
7695.066
7694.72
7694.406
7694.122
7693.867
7693.637
7693.431
7693.247
7693.081
7692.932
7692.797
7692.673
7692.558
7692.448
7692.341
7692.234
7692.123
7692.005
7691.877
7691.735
7691.575
7691.393
7691.186
7690.948
7690.676
7690.365
7690.008
7689.601
7689.136
7688.608
7688.009
7687.33
7686.561
7685.693
7684.71
7683.601
7682.347
7680.932
7679.328
7677.515
7675.447
7673.102
7670.417
7667.402
7664.085
7660.779
7657.98
7656.646
7656.86
7659.429
4332.002
4382.847
4453.898
4538.594
4636.219
4746.285
4868.649
5003.214
5150.227
5308.256
5476.854
5658.425
5848.185
6046.031
6250.22
6457.694
6662.681
6864.209
7060.067
7264.869
7430.327
7578.154
7703.192
7801.085
7869.052
7905.713
7910.906
7885.539
7835.392
7755.288
7651.488
7529.659
7395.577
7253.41
7106.87
6959.124
6813.137
6671.992
6525.902
6395.296
6270.866
6154.404
6046.891
5948.604
5860.369
5782.801
5716.716
5660.61
5613.722
5578.906
5552.787
5535.002
5524.952
5521.166
5522.495
5530.056
5531.842
5536.38
5543.262
5548.543
5550.274
5548.285
5542.535
5532.607
5517.797
5497.264
5470.411
5437.234
5397.205
5349.518
5294.372
5232.424
5165.015
5094.634
5024.457
4957.907
4899.292
4852.226
4818.698
4800.671
4798.409
4810.996
4836.583
4872.249
4915.369
4963.177
5014.276
5067.248
5120.764
5173.876
5225.935
5276.931
5326.696
5377.565
5427.789
5474.343
5517.803
5561.14
5604.631
5647.532
5689.011
5728.645
5766.391
5802.106
5835.565
5866.629
5895.394
5922.057
5946.903
5969.996
5991.518
6010.826
6029.427
6044.684
6046.618
6040.076
6034.873
6029.961
6020.947
6007.012
5991.939
5980.115
5973.531
5972.483
5976.845
5986.546
6001.555
6021.61
6046.368
6075.224
6107.375
6142.243
6179.607
6219.882
6263.271
6307.55
6352.378
6396.887
6434.278
6458.95
6472.698
6476.448
6473.568
6474.128
6488.064
6510.349
6534.912
6559.279
6583.68
6608.665
6634.323
6660.514
6687.179
6714.323
6741.933
6769.958
6798.32
6826.938
6855.721
6884.576
6913.421
6942.192
6970.847
6999.364
7027.752
7056.058
7084.343
7112.677
7141.161
7169.85
7198.842
7228.242
7258.09
7288.595
7319.819
7351.838
7384.812
7418.357
7452.466
7486.552
7519.176
7550.743
7578.547
7598.225
7618.657
7641.022
7660.662
7680.32
7695.572
7708.031
7725.186
7736.988
7732.513
7723.275
7724.191
7728.395
7722.209
7701.911
7676.869
7656.445
7643.399
7639.198
7643.607
7655.767
7673.59
7695.165
7718.632
7743.194
7767.252
7789.087
7808.144
7824.488
7837.542
7847.438
7854.105
7857.711
7858.378
7856.253
7851.488
7844.227
7834.619
7822.858
7809.175
7793.843
7777.182
7759.569
7741.43
7723.249
7705.573
7688.983
7674.013
7661.122
7650.737
7643.25
7639.016
7638.32
7641.318
7648.155
7658.808
7673.13
7690.836
7711.586
7735.645
7760.432
7786.139
7812.223
7837.972
7862.988
7886.788
7909.071
7929.731
7948.647
7965.737
7980.98
7994.407
8006.099
8016.181
8024.783
8031.946
8037.779
8042.46
8046.128
8048.854
8050.742
8051.898
8052.406
8052.338
8051.762
8050.737
8049.318
8047.549
8045.469
8043.111
8040.505
8037.696
8034.755
8031.822
8029.099
8026.728
8024.589
8022.484
8020.336
8018.137
8015.896
8013.622
8011.324
8009.011
8006.69
8004.37
8002.055
7999.751
7997.461
7995.187
7992.929
7990.688
7988.462
7986.249
7984.045
7981.847
7979.649
7977.448
7975.236
7973.008
7970.758
7968.478
7966.164
7963.809
7961.409
7958.957
7956.455
7953.879
7951.224
7948.222
7945.029
7941.823
7938.669
7935.544
7932.394
7929.171
7925.851
7922.434
7918.934
7915.362
7911.72
7908.007
7904.224
7900.373
7896.459
7892.485
7888.455
7884.373
7880.244
7876.073
7871.866
7867.627
7863.363
7859.078
7854.778
7850.469
7846.157
7841.847
7837.545
7833.257
7828.987
7824.742
7820.529
7816.354
7812.223
7808.141
7804.114
7800.148
7796.249
7792.421
7788.666
7784.98
7781.352
7777.768
7774.203
7770.635
7767.068
7763.554
7760.137
7756.826
7753.602
7750.453
7747.36
7744.48
7741.654
7738.836
7736.071
7733.402
7730.841
7728.397
7726.076
7723.873
7721.78
7719.791
7717.901
7716.106
7714.402
7712.786
7711.255
7709.804
7708.431
7707.134
7705.91
7704.756
7703.67
7702.65
7701.693
7700.798
7699.961
7699.182
7698.457
7697.784
7697.162
7696.587
7696.059
7695.575
7695.132
7694.729
7694.363
7694.032
7693.735
7693.468
7693.231
7693.02
7692.833
7692.668
7692.523
7692.395
7692.282
7692.18
7692.087
7692.001
7691.918
7691.835
7691.749
7691.657
7691.556
7691.441
7691.308
7691.156
7690.978
7690.771
7690.53
7690.251
7689.928
7689.556
7689.129
7688.64
7688.083
7687.448
7686.728
7685.913
7684.99
7683.949
7682.776
7681.456
7679.971
7678.303
7676.434
7674.352
7672.067
7669.611
7667.099
7664.684
7662.632
7661.114
7660.586
7661.095
4211.82
4180.199
4160.55
4144.43
4135.355
4139.818
4156.637
4191.152
4238.618
4262.792
4267.075
4285.981
4324.048
4378.69
4448.475
4531.572
4626.564
4733.389
4852.144
4982.164
5123.282
5275.864
5439.001
5612.641
5795.593
5986.593
6183.8
6383.967
6584.036
6780.524
6972.111
7193.051
7364.346
7508.937
7627.767
7718.528
7778.779
7807.646
7805.422
7774.538
7716.804
7632.932
7527.264
7405.812
7273.397
7134.059
6991.301
6848.077
6706.744
6569.143
6436.542
6310.405
6191.192
6079.604
5976.453
5882.496
5798.471
5724.998
5662.49
5611.102
5570.582
5540.408
5519.931
5508.165
5503.883
5505.719
5511.425
5520.29
5530.536
5540.473
5548.98
5554.79
5557.16
5555.87
5550.588
5540.687
5525.381
5504.198
5477.136
5443.349
5401.98
5352.318
5294.114
5227.297
5152.784
5073.437
4993.954
4919.609
4854.874
4802.677
4766.72
4748.847
4748.959
4765.648
4796.569
4838.469
4888.03
4942.574
5000.294
5058.97
5116.901
5173.231
5227.703
5280.325
5331.674
5381.853
5430.574
5477.814
5523.67
5568.609
5613.013
5656.291
5698.137
5738.111
5776.151
5812.025
5845.628
5877.009
5906.161
5932.998
5957.443
5979.296
5998.423
6014.523
6027.585
6035.98
6036.082
6029.525
6020.564
6009.996
5996.579
5980.663
5965.054
5953.091
5946.703
5946.401
5952.084
5963.644
5981.179
6004.705
6033.785
6067.421
6104.317
6143.354
6183.849
6225.473
6267.697
6309.407
6349.809
6387.89
6420.535
6444.867
6461.199
6470.727
6477.137
6485.239
6498.935
6517.989
6539.611
6562.062
6585.181
6609.184
6634.07
6659.689
6685.951
6712.848
6740.349
6768.381
6796.841
6825.61
6854.575
6883.632
6912.684
6941.659
6970.494
6999.138
7027.588
7055.863
7083.985
7111.99
7139.957
7167.941
7196.03
7224.34
7252.936
7281.979
7311.489
7341.492
7372.082
7402.9
7433.919
7464.808
7494.466
7523.052
7549.049
7570.069
7590.475
7612.201
7633.193
7651.786
7667.444
7683.935
7700.218
7706.344
7704.308
7708.018
7717.557
7715.726
7701.257
7683.025
7665.98
7652.123
7643.253
7639.715
7643.02
7654.174
7671.833
7694.515
7719.915
7746.68
7771.858
7794.603
7814.759
7831.624
7844.746
7854.638
7861.215
7864.565
7864.877
7862.337
7857.111
7849.295
7839.02
7826.516
7812.031
7795.844
7778.281
7759.717
7740.584
7721.382
7702.712
7685.193
7669.323
7655.55
7644.299
7635.978
7630.958
7629.555
7631.991
7638.417
7648.844
7663.139
7681.015
7702.01
7725.699
7750.917
7777.292
7804.116
7830.577
7856.153
7880.556
7903.547
7924.896
7944.383
7961.901
7977.434
7991.028
8002.785
8012.848
8021.346
8028.409
8034.214
8038.937
8042.746
8045.67
8047.755
8049.1
8049.768
8049.843
8049.405
8048.521
8047.248
8045.636
8043.727
8041.562
8039.182
8036.637
8033.995
8031.347
8028.798
8026.431
8024.213
8022.036
8019.837
8017.603
8015.339
8013.049
8010.738
8008.413
8006.08
8003.745
8001.415
7999.094
7996.785
7994.491
7992.214
7989.952
7987.706
7985.473
7983.251
7981.036
7978.824
7976.61
7974.389
7972.154
7969.9
7967.62
7965.308
7962.957
7960.56
7958.107
7955.593
7952.976
7950.27
7947.424
7944.498
7941.56
7938.549
7935.436
7932.243
7928.983
7925.651
7922.241
7918.756
7915.198
7911.57
7907.872
7904.104
7900.269
7896.37
7892.41
7888.393
7884.323
7880.206
7876.044
7871.845
7867.612
7863.351
7859.068
7854.769
7850.458
7846.141
7841.826
7837.516
7833.22
7828.938
7824.674
7820.446
7816.254
7812.103
7807.997
7803.944
7799.947
7796.012
7792.14
7788.333
7784.589
7780.901
7777.26
7773.655
7770.074
7766.521
7763.023
7759.607
7756.284
7753.048
7749.903
7746.854
7743.92
7741.027
7738.152
7735.364
7732.703
7730.169
7727.753
7725.446
7723.247
7721.151
7719.155
7717.256
7715.451
7713.737
7712.111
7710.57
7709.111
7707.732
7706.429
7705.2
7704.044
7702.956
7701.936
7700.98
7700.086
7699.253
7698.478
7697.758
7697.092
7696.477
7695.911
7695.392
7694.918
7694.486
7694.094
7693.741
7693.423
7693.14
7692.888
7692.665
7692.47
7692.3
7692.152
7692.025
7691.915
7691.82
7691.738
7691.666
7691.6
7691.539
7691.478
7691.416
7691.348
7691.271
7691.182
7691.077
7690.953
7690.804
7690.628
7690.42
7690.175
7689.888
7689.555
7689.169
7688.724
7688.214
7687.632
7686.97
7686.219
7685.37
7684.414
7683.339
7682.136
7680.793
7679.301
7677.658
7675.866
7673.953
7671.955
7669.967
7668.071
7666.422
7665.15
7664.441
7664.071
4809.926
4750.041
4691.32
4632.146
4571.695
4507.619
4451.024
4395.813
4344.351
4296.597
4253.242
4216.396
4184.034
4158.505
4140.384
4129.935
4128.781
4139.151
4158.136
4180.582
4201.669
4226.509
4260.806
4307.284
4366.473
4437.451
4520.739
4616.346
4723.609
4842.368
4972.53
5113.96
5266.362
5429.311
5602.402
5784.461
5973.601
6168.7
6368.252
6569.149
6766.546
6956.007
7125.969
7290.715
7433.724
7551.527
7640.982
7699.435
7726.237
7721.691
7687.255
7624.059
7536.248
7430.237
7310.683
7181.289
7045.657
6907.061
6768.281
6631.481
6498.274
6369.605
6246.766
6130.657
6021.768
5920.764
5828.517
5745.982
5674.03
5613.434
5564.637
5527.535
5501.614
5485.985
5479.5
5480.766
5488.2
5499.703
5514.229
5530.665
5546.013
5558.224
5567.114
5572.257
5573.213
5569.338
5559.887
5544.274
5521.979
5493.882
5459.494
5417.604
5366.558
5304.69
5230.777
5145.843
5053.734
4960.667
4872.819
4795.555
4734.385
4693.775
4674.683
4676.551
4698.025
4736.326
4786.851
4845.28
4908.481
4973.977
5039.419
5103.024
5163.865
5221.726
5276.792
5329.7
5380.825
5430.676
5479.615
5527.482
5574.124
5619.661
5664.016
5706.774
5747.682
5786.432
5822.934
5857.16
5889.071
5918.589
5945.55
5969.688
5990.647
6008.068
6021.518
6030.496
6034.341
6031.977
6023.542
6010.59
5994.207
5974.956
5954.546
5935.929
5922.145
5915.05
5915.069
5921.79
5934.942
5954.77
5981.628
6015.264
6054.182
6096.32
6139.922
6183.798
6227.188
6269.531
6310.174
6348.262
6382.921
6412.871
6436.914
6455.043
6468.533
6479.684
6491.036
6504.82
6521.888
6541.395
6562.346
6584.431
6607.623
6631.832
6656.942
6682.875
6709.602
6737.1
6765.285
6794.017
6823.131
6852.455
6881.861
6911.246
6940.529
6969.628
6998.446
7026.944
7055.138
7083.03
7110.635
7138.006
7165.206
7192.312
7219.415
7246.602
7274.005
7301.676
7329.619
7357.85
7386.173
7414.462
7442.488
7469.563
7495.527
7519.811
7541.442
7562.218
7583.255
7603.126
7621.268
7638.21
7653.936
7667.155
7675.757
7682.748
7692.19
7697.916
7694.005
7685.355
7676.729
7666.906
7656.018
7647.102
7643.506
7648.289
7661.93
7682.17
7706.021
7731.745
7756.611
7781.13
7803.912
7824.399
7841.074
7853.479
7863.502
7869.657
7872.425
7872.041
7868.68
7862.518
7853.725
7842.469
7828.958
7813.451
7796.241
7777.665
7758.107
7737.993
7717.79
7698.039
7679.395
7662.553
7647.943
7635.862
7626.737
7620.982
7618.953
7620.929
7627.064
7637.422
7651.895
7670.197
7691.856
7716.278
7742.687
7770.272
7798.067
7825.403
7851.922
7877.297
7901.258
7923.436
7943.593
7961.625
7977.522
7991.343
8003.192
8013.19
8021.462
8028.232
8033.756
8038.182
8041.636
8044.264
8046.284
8047.725
8048.476
8048.589
8048.18
8047.338
8046.123
8044.587
8042.776
8040.732
8038.497
8036.118
8033.652
8031.162
8028.716
8026.361
8024.088
8021.845
8019.595
8017.324
8015.031
8012.718
8010.391
8008.052
8005.706
8003.359
8001.017
7998.685
7996.364
7994.059
7991.77
7989.496
7987.239
7984.996
7982.764
7980.541
7978.322
7976.102
7973.877
7971.64
7969.385
7967.105
7964.794
7962.445
7960.049
7957.597
7955.082
7952.486
7949.817
7947.053
7944.202
7941.275
7938.257
7935.151
7931.974
7928.735
7925.427
7922.043
7918.582
7915.046
7911.437
7907.756
7904.004
7900.183
7896.298
7892.35
7888.344
7884.284
7880.174
7876.019
7871.824
7867.594
7863.334
7859.05
7854.747
7850.432
7846.109
7841.784
7837.463
7833.156
7828.864
7824.584
7820.333
7816.122
7811.949
7807.819
7803.737
7799.709
7795.737
7791.825
7787.973
7784.179
7780.442
7776.756
7773.114
7769.514
7765.96
7762.465
7759.046
7755.712
7752.465
7749.308
7746.236
7743.247
7740.324
7737.474
7734.722
7732.084
7729.56
7727.141
7724.826
7722.614
7720.505
7718.495
7716.583
7714.766
7713.04
7711.403
7709.852
7708.385
7706.999
7705.691
7704.458
7703.298
7702.209
7701.189
7700.234
7699.343
7698.513
7697.743
7697.029
7696.369
7695.762
7695.205
7694.695
7694.231
7693.81
7693.431
7693.09
7692.787
7692.517
7692.28
7692.074
7691.895
7691.742
7691.613
7691.504
7691.414
7691.339
7691.278
7691.227
7691.185
7691.147
7691.111
7691.073
7691.032
7690.983
7690.922
7690.847
7690.754
7690.639
7690.497
7690.325
7690.119
7689.874
7689.584
7689.246
7688.853
7688.399
7687.878
7687.283
7686.607
7685.844
7684.984
7684.022
7682.949
7681.762
7680.457
7679.04
7677.518
7675.925
7674.288
7672.685
7671.162
7669.849
7668.782
7668.069
7667.462
5415.168
5352.155
5291.896
5230.426
5172.325
5108.397
5051.08
4992.624
4932.666
4872.442
4812.682
4753.382
4693.531
4634.117
4572.964
4503.878
4446.316
4391.745
4339.947
4291.869
4248.079
4209.307
4176.037
4149.073
4128.708
4115.507
4109.222
4112.597
4123.28
4139.344
4160.288
4188.48
4225.791
4273.397
4332.146
4402.712
4484.892
4578.501
4683.36
4799.359
4926.489
5064.785
5213.942
5373.223
5541.794
5718.966
5903.852
6094.976
6290.188
6487.765
6683.792
6873.029
7047.592
7207.555
7346.36
7459.56
7543.677
7596.605
7618.058
7608.416
7567.63
7498.223
7407.379
7301.619
7184.423
7058.777
6927.93
6794.867
6662.184
6531.659
6404.528
6281.565
6163.804
6051.871
5946.212
5847.507
5756.919
5675.789
5605.384
5547.007
5501.612
5469.295
5449.182
5440.072
5440.808
5450.006
5465.941
5486.434
5509.511
5533.253
5555.107
5573.355
5587.358
5596.611
5600.681
5598.829
5589.857
5573.295
5549.939
5521.039
5486.287
5443.919
5390.954
5324.031
5239.994
5139.613
5028.882
4916.853
4811.532
4718.783
4645.198
4596.587
4574.832
4579.701
4608.817
4658.69
4722.022
4792.375
4866.361
4941.657
5015.721
5086.423
5152.658
5214.239
5271.708
5326.139
5378.595
5429.949
5480.558
5530.22
5578.743
5626.087
5672.032
5716.16
5758.166
5797.856
5835.152
5870.027
5902.511
5932.538
5959.995
5984.368
6005.039
6021.393
6032.873
6038.99
6039.432
6033.848
6022.039
6004.151
5980.883
5953.847
5926.247
5902.155
5885.127
5876.917
5877.366
5885.098
5899.127
5920.964
5952.255
5992.018
6037.599
6086.081
6134.978
6182.673
6228.32
6271.522
6311.879
6348.813
6381.782
6410.28
6433.879
6452.729
6467.842
6480.824
6493.426
6507.212
6523.134
6541.127
6560.735
6581.851
6604.312
6627.893
6652.472
6677.998
6704.475
6731.937
6760.303
6789.384
6818.949
6848.772
6878.668
6908.519
6938.245
6967.735
6996.866
7025.554
7053.751
7081.445
7108.652
7135.416
7161.802
7187.89
7213.77
7239.516
7265.237
7291.027
7316.911
7342.89
7368.847
7394.651
7420.153
7444.948
7468.894
7491.821
7513.244
7533.736
7553.787
7572.952
7591.135
7608.091
7623.396
7637.413
7649.994
7660.548
7668.875
7673.757
7674.897
7674.239
7672.542
7667.839
7661.329
7657.123
7658.027
7665.336
7678.741
7696.946
7719.249
7744.824
7771.628
7797.182
7819.613
7837.93
7853.346
7866.012
7873.913
7878.739
7880.36
7878.887
7874.438
7867.16
7857.285
7845.015
7830.526
7814.058
7795.896
7776.371
7755.862
7734.791
7713.615
7692.799
7672.924
7654.787
7639.133
7626.258
7616.365
7609.888
7607.243
7608.758
7614.634
7624.975
7639.709
7658.583
7681.149
7706.754
7734.414
7762.946
7791.516
7819.894
7847.752
7874.385
7899.372
7922.385
7943.212
7961.76
7978.033
7992.102
8004.092
8014.155
8022.463
8029.212
8034.615
8038.819
8041.912
8044.138
8045.796
8047.006
8047.701
8047.787
8047.353
8046.507
8045.315
8043.825
8042.083
8040.129
8038.003
8035.746
8033.403
8031.023
8028.649
8026.312
8024.013
8021.732
8019.447
8017.148
8014.831
8012.499
8010.155
8007.805
8005.448
8003.092
8000.742
7998.402
7996.074
7993.761
7991.464
7989.184
7986.92
7984.671
7982.433
7980.205
7977.982
7975.759
7973.531
7971.292
7969.037
7966.757
7964.447
7962.099
7959.705
7957.257
7954.747
7952.165
7949.509
7946.767
7943.935
7941.019
7938.023
7934.95
7931.805
7928.589
7925.299
7921.931
7918.485
7914.962
7911.364
7907.693
7903.951
7900.139
7896.26
7892.319
7888.319
7884.262
7880.155
7876.002
7871.806
7867.575
7863.312
7859.023
7854.714
7850.39
7846.057
7841.722
7837.388
7833.063
7828.755
7824.465
7820.191
7815.955
7811.757
7807.6
7803.489
7799.428
7795.421
7791.47
7787.577
7783.742
7779.963
7776.237
7772.565
7768.944
7765.378
7761.877
7758.449
7755.103
7751.842
7748.668
7745.577
7742.572
7739.651
7736.817
7734.077
7731.44
7728.908
7726.479
7724.153
7721.931
7719.811
7717.791
7715.869
7714.041
7712.306
7710.661
7709.102
7707.629
7706.237
7704.925
7703.689
7702.528
7701.439
7700.419
7699.467
7698.579
7697.754
7696.988
7696.281
7695.629
7695.03
7694.482
7693.983
7693.531
7693.122
7692.756
7692.429
7692.14
7691.886
7691.665
7691.475
7691.314
7691.18
7691.069
7690.981
7690.911
7690.859
7690.82
7690.793
7690.774
7690.761
7690.752
7690.742
7690.728
7690.709
7690.679
7690.636
7690.577
7690.498
7690.394
7690.262
7690.098
7689.898
7689.657
7689.371
7689.035
7688.643
7688.189
7687.669
7687.077
7686.406
7685.652
7684.81
7683.875
7682.847
7681.727
7680.524
7679.248
7677.929
7676.59
7675.293
7674.068
7673.013
7672.116
7671.476
7670.885
5618.772
5613.681
5583.002
5529.467
5467.22
5405.215
5343.631
5284.41
5227.246
5169.173
5101.218
5043.284
4985.406
4926.706
4867.093
4807.018
4746.751
4686.179
4625.637
4566.045
4508.875
4451.553
4396.171
4343.129
4293.362
4247.456
4205.667
4168.627
4137.427
4112.668
4094.891
4085.061
4083.363
4089.11
4102.248
4122.914
4152.099
4190.7
4239.466
4298.774
4368.967
4450.106
4542.064
4644.74
4758.136
4882.364
5017.316
5162.191
5316.298
5479.568
5651.687
5832.444
6020.565
6212.528
6405.71
6596.337
6779.546
6949.471
7102.121
7232.903
7337.84
7413.212
7457.931
7470.652
7451.482
7403.295
7330.584
7239.917
7136.078
7022.275
6901.603
6777.022
6651.06
6526.356
6404.157
6285.238
6169.751
6058.146
5951.035
5848.817
5752.268
5662.992
5582.864
5513.826
5458.103
5417.44
5391.863
5379.672
5379.379
5389.906
5409.919
5437.413
5469.684
5504.046
5538.156
5569.333
5595.108
5614.565
5627.997
5635.416
5635.844
5627.478
5609.651
5584.566
5555.457
5522.698
5482.367
5428.323
5355.716
5258.896
5137.269
5000.921
4863.61
4735.182
4622.09
4534.141
4477.166
4451.455
4460.459
4499.422
4565.001
4645.852
4731.946
4819.637
4907.31
4992.002
5070.966
5142.972
5208.034
5267.311
5322.692
5376.006
5428.59
5480.88
5532.531
5583.253
5632.797
5680.698
5726.524
5770.034
5810.983
5849.199
5884.743
5917.794
5948.433
5976.984
6002.271
6023.302
6039.155
6049.159
6052.791
6049.984
6040.896
6025.07
6001.544
5969.968
5932.578
5894.759
5862.76
5841.29
5831.385
5829.151
5832.609
5852.656
5882.546
5918.955
5965.283
6019.214
6075.53
6130.605
6182.558
6230.753
6275.185
6315.769
6352.191
6384.246
6411.8
6434.749
6453.364
6468.558
6481.749
6494.407
6507.623
6522.565
6539.545
6557.908
6578.127
6600.013
6623.065
6647.057
6671.999
6698.043
6725.376
6753.912
6783.376
6813.452
6843.818
6874.208
6904.498
6934.655
6964.56
6994.059
7023.005
7051.27
7078.819
7105.662
7131.842
7157.43
7182.511
7207.168
7231.503
7255.641
7279.66
7303.599
7327.479
7351.253
7374.843
7398.164
7421.013
7443.264
7464.841
7485.52
7505.454
7524.937
7543.873
7562.091
7579.399
7595.789
7611.502
7625.793
7637.415
7646.744
7654.548
7660.627
7664.51
7666.465
7666.333
7666.085
7668.43
7674.45
7684.25
7697.976
7715.76
7737.248
7761.05
7785.38
7809.303
7831.756
7851.359
7866.804
7877.693
7884.355
7887.617
7887.763
7884.978
7879.406
7871.164
7860.388
7847.222
7831.849
7814.501
7795.451
7775.019
7753.577
7731.544
7709.386
7687.596
7666.718
7647.341
7630.315
7616.396
7605.772
7598.61
7595.348
7596.384
7601.981
7612.289
7627.29
7646.766
7670.252
7696.874
7725.281
7754.485
7784.23
7814.076
7843.263
7871.1
7897.105
7920.947
7942.427
7961.469
7978.093
7992.398
8004.531
8014.671
8023.007
8029.744
8035.092
8039.226
8042.298
8044.464
8045.877
8046.737
8047.156
8047.084
8046.575
8045.707
8044.53
8043.084
8041.409
8039.539
8037.511
8035.359
8033.12
8030.83
8028.521
8026.215
8023.918
8021.624
8019.322
8017.007
8014.677
8012.333
8009.979
8007.622
8005.255
8002.892
8000.54
7998.196
7995.864
7993.548
7991.247
7988.964
7986.696
7984.443
7982.203
7979.972
7977.747
7975.523
7973.294
7971.056
7968.801
7966.523
7964.214
7961.868
7959.477
7957.033
7954.529
7951.956
7949.309
7946.581
7943.77
7940.878
7937.908
7934.86
7931.734
7928.532
7925.251
7921.893
7918.455
7914.94
7911.348
7907.682
7903.943
7900.135
7896.259
7892.318
7888.318
7884.261
7880.152
7875.995
7871.795
7867.557
7863.287
7858.989
7854.669
7850.334
7845.988
7841.637
7837.288
7832.943
7828.614
7824.307
7820.019
7815.75
7811.527
7807.342
7803.2
7799.107
7795.065
7791.078
7787.147
7783.273
7779.456
7775.697
7771.995
7768.351
7764.769
7761.255
7757.816
7754.457
7751.182
7747.993
7744.891
7741.877
7738.952
7736.118
7733.377
7730.735
7728.197
7725.761
7723.429
7721.2
7719.072
7717.043
7715.112
7713.277
7711.534
7709.882
7708.317
7706.839
7705.443
7704.128
7702.891
7701.73
7700.641
7699.624
7698.675
7697.791
7696.972
7696.213
7695.513
7694.87
7694.281
7693.744
7693.256
7692.816
7692.421
7692.068
7691.756
7691.483
7691.245
7691.042
7690.87
7690.728
7690.614
7690.524
7690.457
7690.41
7690.381
7690.366
7690.364
7690.371
7690.386
7690.404
7690.424
7690.441
7690.453
7690.457
7690.449
7690.426
7690.385
7690.322
7690.233
7690.115
7689.964
7689.776
7689.546
7689.271
7688.946
7688.566
7688.126
7687.623
7687.051
7686.407
7685.688
7684.893
7684.024
7683.082
7682.079
7681.025
7679.945
7678.86
7677.816
7676.834
7675.985
7675.246
7674.711
7674.206
5619.653
5596.478
5536.123
5483.282
5427.894
5372.581
5317.863
5263.657
5209.584
5155.567
5102.069
5046.791
4990.073
4932.169
4873.184
4813.22
4752.531
4691.363
4629.917
4569.022
4510.284
4452.497
4395.975
4340.996
4288.22
4238.815
4193.673
4153.483
4119
4091.309
4071.25
4059.12
4055.038
4058.821
4070.673
4090.905
4120.079
4158.772
4207.444
4266.385
4335.771
4415.62
4505.826
4606.309
4717.123
4838.138
4968.48
5107.447
5255.671
5414.329
5582.251
5758.555
5941.531
6128.272
6315.402
6499.04
6674.174
6835.527
6978.04
7097.402
7190.894
7254.695
7286.283
7285.94
7256.552
7203.016
7129.173
7039.177
6937.311
6826.836
6711.731
6594.448
6476.902
6361.24
6248.615
6139.51
6033.751
5930.488
5829.765
5731.491
5636.982
5548.566
5468.463
5399.683
5346.431
5311.476
5293.78
5290.769
5301.256
5324.291
5358.328
5400.851
5448.117
5496.693