/*--------------------------------*- C++ -*----------------------------------*\
| =========                 |                                                 |
| \\      /  F ield         | foam-extend: Open Source CFD                    |
|  \\    /   O peration     | Version:     3.1                                |
|   \\  /    A nd           | Web:         http://www.extend-project.de       |
|    \\/     M anipulation  |                                                 |
\*---------------------------------------------------------------------------*/
FoamFile
{
    version     2.0;
    format      ascii;
    class       volScalarField;
    location    "9.5";
    object      k;
}
// * * * * * * * * * * * * * * * * * * * * * * * * * * * * * * * * * * * * * //

dimensions      [0 2 -2 0 0 0 0];

internalField   nonuniform List<scalar> 
119952
(
0.0596871
0.05546723
0.05390855
0.05217109
0.05006149
0.04770663
0.04586336
0.04395414
0.04186614
0.03957427
0.03721099
0.03501273
0.03331559
0.03238969
0.03224533
0.03267036
0.03327664
0.03381723
0.03415841
0.03440328
0.03718297
0.03633252
0.03690875
0.03954865
0.03916078
0.03962072
0.04033054
0.04104067
0.04110157
0.01562152
0.08705229
0.08214896
0.07955049
0.07861227
0.07877389
0.0796086
0.08077887
0.08203908
0.08321958
0.08436912
0.0817513
0.08314028
0.08620763
0.0897465
0.09311116
0.09601722
0.09839481
0.100233
0.1015763
0.1126033
0.1126841
0.1124284
0.1119232
0.111371
0.1109577
0.1107883
0.1109137
0.1113441
0.1120771
0.1132861
0.1144094
0.1155401
0.1167614
0.1180313
0.1192943
0.1204706
0.121424
0.1223268
0.1251205
0.1251647
0.1242115
0.1236968
0.1230186
0.1216715
0.1196867
0.1174077
0.1149493
0.1124024
0.1098736
0.1075216
0.1055309
0.1040482
0.1031036
0.1025909
0.1022164
0.1016817
0.1008032
0.09955591
0.09815041
0.09661896
0.09498313
0.0941247
0.09443752
0.09511025
0.09645896
0.09907931
0.1031066
0.1060607
0.1099036
0.1153115
0.1219182
0.1292803
0.1370071
0.144875
0.1526922
0.1602431
0.1672642
0.1734693
0.1785003
0.1820354
0.1838898
0.184077
0.1827964
0.1805259
0.1778633
0.1754196
0.1734748
0.1718023
0.1699851
0.1676091
0.1644169
0.1603483
0.1554834
0.1499376
0.1437118
0.1366545
0.12855
0.1182994
0.1075664
0.1048939
0.1101238
0.1185148
0.1264181
0.1312813
0.1317819
0.1282883
0.122438
0.1157946
0.1091847
0.1028738
0.09702181
0.09167112
0.08681527
0.08233528
0.07810557
0.07388419
0.06755637
0.0642132
0.0629214
0.06420835
0.06898543
0.07216845
0.06664078
0.05777948
0.05353559
0.05198992
0.05050465
0.04927569
0.04858657
0.04815779
0.04795571
0.04796386
0.0480507
0.04814815
0.04824039
0.04831556
0.04837408
0.04842056
0.04846145
0.04850847
0.04856598
0.0486036
0.04863789
0.0486984
0.04880827
0.04898307
0.04923149
0.04955501
0.04995134
0.05041433
0.05093338
0.05149721
0.05209399
0.0527104
0.05333284
0.05394839
0.05454471
0.05510982
0.05563176
0.05609804
0.05649597
0.05681504
0.05704607
0.05718199
0.05721874
0.05715032
0.05691455
0.05211842
0.04795264
0.04626311
0.04501849
0.04398839
0.04307449
0.04221571
0.04137723
0.04054288
0.03970828
0.0388717
0.0380283
0.03717389
0.03632216
0.03548579
0.0346689
0.03387571
0.03310732
0.03233811
0.03159338
0.03088341
0.03020463
0.02955866
0.02894728
0.02837002
0.02782397
0.02730521
0.02681201
0.02634432
0.02589775
0.02547126
0.02506533
0.02468139
0.02432212
0.02399223
0.02372585
0.0237726
0.02385103
0.02389337
0.02389979
0.02387075
0.02381207
0.02372874
0.0236253
0.02350624
0.0233753
0.02323564
0.02309002
0.0229409
0.02279019
0.02263955
0.02249049
0.02234422
0.02220163
0.02206339
0.02192993
0.02180154
0.02167832
0.02156026
0.02144719
0.02133893
0.02123509
0.02113523
0.02103893
0.02094572
0.02085507
0.02076645
0.02067933
0.02059433
0.02050702
0.02176479
0.02176021
0.02166896
0.02150654
0.02132715
0.02114902
0.0209883
0.0208503
0.02073393
0.02063663
0.02055528
0.02048662
0.02042825
0.02037808
0.02033319
0.02029143
0.02025273
0.02021558
0.02017883
0.02014216
0.02010542
0.02006858
0.02003137
0.01999344
0.01995479
0.0199155
0.01987567
0.01983542
0.01979477
0.01975368
0.01971209
0.01966983
0.01962671
0.01958252
0.019537
0.01948991
0.01944103
0.01939019
0.01933731
0.0192823
0.01922519
0.01916607
0.0191052
0.01904331
0.01898243
0.01892301
0.01885575
0.0187828
0.01870935
0.01863533
0.01856105
0.01848794
0.01841682
0.01836654
0.01836394
0.01824583
0.01813109
0.01801682
0.0179034
0.01779193
0.01768379
0.01758132
0.01748633
0.0173999
0.01732265
0.01725499
0.01719668
0.01714723
0.01710598
0.01707216
0.01704492
0.01702343
0.01700685
0.01699439
0.01698532
0.016979
0.01697486
0.01697239
0.01697115
0.01697078
0.01697097
0.01697146
0.01697204
0.01697254
0.01697282
0.01697279
0.01697239
0.01697154
0.0169702
0.01696835
0.01696596
0.01696302
0.01695951
0.01695545
0.01695085
0.01694573
0.0169401
0.01693399
0.01692742
0.01692042
0.01691303
0.01690529
0.01689722
0.01688887
0.01688026
0.01687142
0.01686239
0.01685321
0.01684389
0.01683447
0.01682497
0.01681543
0.01680587
0.01679629
0.01678672
0.01677717
0.01676765
0.01675816
0.01674871
0.01673929
0.01672989
0.0167205
0.0167111
0.01670167
0.01669217
0.01668259
0.01667286
0.016663
0.01665293
0.01664256
0.01663155
0.01661986
0.01660666
0.0165907
0.01656726
0.01652737
0.01644322
0.01631181
0.01652515
0.06916408
0.07810557
0.09065001
0.09958405
0.1061088
0.1112748
0.1155973
0.1193128
0.1227533
0.1301795
0.1479739
0.1636186
0.1759947
0.1853967
0.1923781
0.1975413
0.2013605
0.2041853
0.2318191
0.231787
0.2315395
0.2309964
0.2304117
0.2298883
0.22939
0.2288575
0.2282486
0.22745
0.2266438
0.2254989
0.2239458
0.2222215
0.2204701
0.2187537
0.2171085
0.2155371
0.2140266
0.2126902
0.2112665
0.2096271
0.2079551
0.2063305
0.2047688
0.2032752
0.201836
0.2004221
0.199035
0.1976415
0.1961136
0.1945103
0.1927889
0.190913
0.1888694
0.1866641
0.184312
0.1818937
0.1906163
0.1877948
0.1850305
0.1823526
0.179759
0.1772899
0.1750066
0.1729667
0.1712232
0.1697979
0.1687191
0.1680194
0.1676758
0.1676403
0.1678575
0.1682402
0.1687207
0.1692727
0.1700446
0.1707016
0.1706465
0.1703153
0.1698712
0.1691442
0.1679239
0.1662366
0.164165
0.161727
0.1589398
0.1558496
0.1525433
0.1491451
0.1457943
0.1426068
0.1396491
0.136933
0.1344354
0.1321157
0.1299441
0.1278992
0.1259158
0.1240429
0.1226858
0.122014
0.1221824
0.1235501
0.1264377
0.1308526
0.1365403
0.1436448
0.1521361
0.1617063
0.1719206
0.1825542
0.1933562
0.2040128
0.2141415
0.2233465
0.2312483
0.2375461
0.2419594
0.2444607
0.2450567
0.2439523
0.2417111
0.2390798
0.2365948
0.2345214
0.2326687
0.2307072
0.2283281
0.2253211
0.2215952
0.2171451
0.2118995
0.2056605
0.1981675
0.1890306
0.1782408
0.1670214
0.1566957
0.1480667
0.141498
0.1371384
0.1348347
0.1341486
0.1344284
0.1348111
0.1347718
0.1340525
0.1324994
0.1300714
0.1268844
0.1230752
0.118867
0.1144114
0.1095425
0.104297
0.09919525
0.09404713
0.08940466
0.08683841
0.08745084
0.09073966
0.09629189
0.1033508
0.1083379
0.1088657
0.1060097
0.1016113
0.09777009
0.09538717
0.09421099
0.09357732
0.09299503
0.0924045
0.09181787
0.09124096
0.09066982
0.09010703
0.08957825
0.08913272
0.08869742
0.08825443
0.08784956
0.08752711
0.08732184
0.08724956
0.08731475
0.08751576
0.08784017
0.08826787
0.08877765
0.08934742
0.08995453
0.09057745
0.09119662
0.09179437
0.0923548
0.09286353
0.09330749
0.09367465
0.09395382
0.09413498
0.09420953
0.09417699
0.09402226
0.09382856
0.08939473
0.08728973
0.08629849
0.08542613
0.08448198
0.08344644
0.08232545
0.08112739
0.0798611
0.0785369
0.07716614
0.07575881
0.07432242
0.07286606
0.0714034
0.06994783
0.06851029
0.06709915
0.06572011
0.0643797
0.06308337
0.06183219
0.06062665
0.05946837
0.05835824
0.05729465
0.05627351
0.05529017
0.05434093
0.05342347
0.05253617
0.0516774
0.0508448
0.05003407
0.04923845
0.04845976
0.04773111
0.04704862
0.04639114
0.04574954
0.045118
0.04449294
0.04387235
0.04325535
0.04264194
0.04203279
0.04142906
0.04083223
0.04024399
0.03966611
0.03910035
0.03854837
0.03801164
0.03749139
0.03698854
0.03650363
0.0360369
0.03558823
0.03515724
0.03474328
0.03434554
0.03396302
0.03359468
0.03323939
0.03289603
0.03256348
0.0322407
0.03192664
0.03162053
0.03132102
0.03273036
0.03244582
0.0321862
0.03192861
0.03166543
0.03139658
0.0311239
0.03084878
0.03057244
0.03029614
0.03002112
0.02974862
0.0294798
0.02921586
0.02895777
0.02870605
0.02846129
0.02822432
0.0279957
0.02777583
0.02756498
0.02736329
0.02717074
0.02698719
0.02681234
0.02664581
0.02648714
0.02633581
0.02619124
0.02605285
0.02592
0.02579208
0.02566843
0.02554842
0.0254314
0.02531677
0.02520396
0.02509245
0.02498181
0.02487168
0.02476182
0.02465215
0.02454277
0.02443383
0.02432512
0.02421536
0.02410277
0.02398753
0.0238714
0.02375498
0.02363893
0.02352321
0.02341015
0.02330889
0.02320891
0.0230951
0.02297619
0.02285986
0.02274781
0.02264006
0.02253645
0.02243675
0.02234072
0.02224815
0.02215892
0.02207295
0.02199025
0.0219108
0.02183459
0.02176155
0.02169164
0.02162476
0.02156082
0.02149969
0.02144124
0.02138533
0.0213318
0.0212805
0.02123126
0.02118392
0.02113832
0.02109429
0.02105167
0.02101032
0.02097007
0.02093081
0.02089239
0.0208547
0.02081763
0.02078107
0.02074492
0.0207091
0.02067352
0.02063811
0.02060282
0.02056758
0.02053235
0.02049711
0.02046181
0.02042645
0.02039099
0.02035545
0.0203198
0.02028406
0.02024823
0.02021231
0.02017632
0.02014028
0.02010419
0.02006807
0.02003195
0.01999585
0.01995978
0.01992376
0.01988781
0.01985195
0.01981619
0.01978052
0.01974498
0.01970952
0.01967417
0.01963885
0.01960361
0.0195683
0.01953302
0.01949747
0.01946189
0.01942573
0.01938937
0.0193518
0.01931359
0.01927274
0.01922979
0.01918027
0.01912396
0.01905564
0.01899249
0.01897025
0.01899481
0.04665801
0.0498484
0.05355692
0.05763167
0.06209632
0.06700229
0.07239144
0.07832206
0.08482767
0.09144905
0.1285391
0.1417071
0.1550724
0.1688452
0.1832457
0.1984281
0.2150068
0.2341235
0.2613001
0.3041143
0.3149588
0.3256095
0.3356346
0.3450029
0.3540166
0.3626865
0.3709633
0.3796271
0.3897398
0.3988145
0.4045064
0.4087226
0.4120324
0.4145224
0.4161888
0.4170988
0.4173576
0.4172124
0.4140712
0.4123089
0.4109089
0.4094068
0.4075872
0.4053883
0.4028246
0.399936
0.3967877
0.3934774
0.3898053
0.3859265
0.3818754
0.3777399
0.3735587
0.3693402
0.365063
0.3606381
0.371675
0.3672297
0.3626013
0.3579025
0.3531805
0.3484592
0.3437636
0.3391105
0.334526
0.3300068
0.3255239
0.3211062
0.3167684
0.3124887
0.3082683
0.3041142
0.3000382
0.2960588
0.292194
0.2884237
0.2847559
0.2812426
0.2778852
0.2746805
0.271631
0.2687299
0.2659666
0.2633178
0.2607479
0.2582485
0.2557905
0.2533247
0.250801
0.2481875
0.2454266
0.2425232
0.2394101
0.2361415
0.2327574
0.2291962
0.2254347
0.2215295
0.2175441
0.2135658
0.209751
0.2062002
0.202985
0.2001726
0.1978271
0.1959901
0.1946715
0.1938521
0.1934824
0.1934882
0.1937788
0.1942709
0.1948769
0.1954574
0.1957216
0.195616
0.1952577
0.1945814
0.1934698
0.1919162
0.1899642
0.1876376
0.1849433
0.1818928
0.178522
0.174899
0.1711195
0.1672842
0.1634823
0.1597846
0.1562458
0.1529011
0.1497762
0.146882
0.1442195
0.1418411
0.1398225
0.1384819
0.1381578
0.1391881
0.141941
0.1466813
0.1533515
0.1618689
0.1720511
0.1835335
0.1958757
0.2087004
0.2215895
0.2341073
0.2457788
0.2561738
0.2649489
0.2719075
0.2770629
0.2803451
0.281592
0.2807931
0.2784408
0.2754674
0.2726618
0.2702565
0.2680857
0.2657758
0.2629828
0.2594915
0.255243
0.2502505
0.2444588
0.2378039
0.2301454
0.2211889
0.2110855
0.2005106
0.1899786
0.1798433
0.1704373
0.1620664
0.1549319
0.1490896
0.144482
0.1409539
0.1382848
0.1362574
0.1345946
0.133011
0.1313007
0.1291802
0.1266755
0.1238655
0.1206198
0.1170338
0.1133293
0.1092745
0.1048495
0.1009862
0.09809338
0.0967248
0.09852881
0.103802
0.1115221
0.1205949
0.1289806
0.1338733
0.1348331
0.1336745
0.1320114
0.1306971
0.129667
0.1289537
0.1283489
0.127619
0.1266013
0.1252473
0.1236065
0.1218565
0.1201996
0.1185611
0.1169903
0.1155598
0.1143298
0.1133248
0.1125682
0.1120577
0.111772
0.1116797
0.111748
0.1119409
0.1122208
0.112553
0.1129074
0.1132577
0.1135817
0.1138612
0.1140811
0.114229
0.1142939
0.1142665
0.1141365
0.1138957
0.1135127
0.1130201
0.1124085
0.111799
0.1110827
0.1102152
0.1092069
0.1080724
0.1068249
0.105475
0.104033
0.1025102
0.1009163
0.09925707
0.09754565
0.09579705
0.0940258
0.09224495
0.09046542
0.08869626
0.08694578
0.08522172
0.08352914
0.08187215
0.08025652
0.07868874
0.07717428
0.07571476
0.07430865
0.07295359
0.07164776
0.07038992
0.06917858
0.06801123
0.06688419
0.06579337
0.06473663
0.06371866
0.06274541
0.06181168
0.06090893
0.06003009
0.05916902
0.05832089
0.05748215
0.05665041
0.05582436
0.0550035
0.05418814
0.0533792
0.05257808
0.05178653
0.05100653
0.05024014
0.04948939
0.04875615
0.04804203
0.04734828
0.0466758
0.04602505
0.04539613
0.04478881
0.04420254
0.04363657
0.04308995
0.0425617
0.04205062
0.04155576
0.0410759
0.04061019
0.04015676
0.03971638
0.03928934
0.03887167
0.03845485
0.03803924
0.03763003
0.03722985
0.03683827
0.03645374
0.0360751
0.03570187
0.03533399
0.03497153
0.03461473
0.03426407
0.0339201
0.03358335
0.0332544
0.03293381
0.03262213
0.03231982
0.03202731
0.0317449
0.03147282
0.03121119
0.03095998
0.03071909
0.03048829
0.03026727
0.03005562
0.02985288
0.02965849
0.02947188
0.02929241
0.02911944
0.02895229
0.02879027
0.02863273
0.02847904
0.02832859
0.02818091
0.02803562
0.02789227
0.02775063
0.02761051
0.02747145
0.02733262
0.02719325
0.02705297
0.02691227
0.02677159
0.02663122
0.02649137
0.0263517
0.02621132
0.02607148
0.02593385
0.02580122
0.02567213
0.02554522
0.02542038
0.02529776
0.02517773
0.02506073
0.02494703
0.02483679
0.0247301
0.02462703
0.0245276
0.02443179
0.02433957
0.02425086
0.02416557
0.02408357
0.02400472
0.02392887
0.02385585
0.02378548
0.0237176
0.02365202
0.02358856
0.02352706
0.02346733
0.02340922
0.02335255
0.02329717
0.02324295
0.02318973
0.02313739
0.02308582
0.02303489
0.02298452
0.0229346
0.02288504
0.02283576
0.0227867
0.02273779
0.02268899
0.02264023
0.02259149
0.02254274
0.02249394
0.02244509
0.02239617
0.02234718
0.02229811
0.02224896
0.02219974
0.02215047
0.02210114
0.02205179
0.02200243
0.02195307
0.02190375
0.0218545
0.02180531
0.02175625
0.02170729
0.02165849
0.02160982
0.02156131
0.02151291
0.02146466
0.02141644
0.0213683
0.02132003
0.02127171
0.021223
0.021174
0.02112414
0.02107355
0.02102114
0.02096708
0.02090938
0.02084865
0.0207826
0.02071535
0.02064826
0.02059409
0.02055708
0.03438847
0.03828689
0.04171179
0.06239742
0.08375111
0.1099914
0.1279811
0.1460422
0.1632611
0.1791663
0.1927878
0.2045508
0.2160925
0.2279362
0.2398187
0.25178
0.2638874
0.2762013
0.2887288
0.3014318
0.3142195
0.3270617
0.3398074
0.3523024
0.3646511
0.3767882
0.3887436
0.4005979
0.4123147
0.4240325
0.437296
0.470311
0.4786951
0.4866701
0.4938152
0.5002878
0.5061845
0.5113733
0.5159641
0.5203196
0.5237861
0.5256876
0.5265023
0.5263809
0.5254525
0.5238115
0.5215505
0.5187505
0.5154809
0.5118269
0.5078461
0.5036763
0.4993291
0.494859
0.4903024
0.4856802
0.4809993
0.4762637
0.4714636
0.4664719
0.4612748
0.4558818
0.4502868
0.4445163
0.4386266
0.4326573
0.4267097
0.4207551
0.4142458
0.4079584
0.4018814
0.3959696
0.3902055
0.3845893
0.3791207
0.3737944
0.3685986
0.3635185
0.3585348
0.3536394
0.348821
0.3440656
0.3393696
0.3347374
0.3301778
0.3257029
0.3213238
0.3170517
0.3129007
0.3088897
0.30504
0.3013788
0.2979307
0.2947047
0.2916933
0.288876
0.2862268
0.2837204
0.2813207
0.2789792
0.276639
0.2742358
0.2717099
0.26905
0.2661911
0.2630416
0.2595917
0.2558069
0.2517244
0.2474186
0.2429578
0.2383991
0.2337897
0.2293095
0.2251488
0.2214218
0.2182321
0.2156634
0.2137643
0.2125411
0.2119551
0.2119237
0.2123231
0.2130044
0.2138069
0.2145716
0.2150844
0.2152123
0.2149985
0.214424
0.2134715
0.2121429
0.2104669
0.2084641
0.2061267
0.2034299
0.2003558
0.1969052
0.1931277
0.1891052
0.1849325
0.1807062
0.176517
0.1724439
0.168551
0.1648892
0.1615073
0.1584831
0.1559473
0.1541152
0.1534728
0.1544439
0.1574563
0.1628383
0.1706619
0.1807851
0.1929027
0.2065421
0.2211783
0.2361769
0.2509888
0.2651387
0.2781617
0.2896126
0.2991836
0.3067966
0.3125527
0.3164913
0.3183802
0.3179529
0.3155289
0.3122107
0.309023
0.3062052
0.3035474
0.3006281
0.2970574
0.2925976
0.2872861
0.2812762
0.2745976
0.2671928
0.2589625
0.2497336
0.2396821
0.2292447
0.2186791
0.208146
0.1978176
0.1879381
0.1787262
0.170329
0.1628437
0.1563107
0.1507093
0.1459935
0.1420621
0.1387588
0.1359432
0.1334255
0.1310312
0.1287363
0.1263818
0.1238383
0.1212254
0.1184577
0.1154093
0.1122477
0.1092784
0.1068762
0.1056311
0.1061894
0.10973
0.1167226
0.1264462
0.1373195
0.1477525
0.1564774
0.1628282
0.1669191
0.1693181
0.1705311
0.1708386
0.1703279
0.1689907
0.1668222
0.1638818
0.160308
0.1565348
0.1529016
0.1494201
0.1461727
0.1432302
0.1406535
0.1384732
0.1366872
0.135275
0.1341979
0.1334078
0.1328499
0.1324679
0.1322099
0.1320271
0.1318789
0.1317326
0.131563
0.1313511
0.1310833
0.1307499
0.1303436
0.1298588
0.1292918
0.1286349
0.1279073
0.1271005
0.1262041
0.1252238
0.1241597
0.1230097
0.1217734
0.1204523
0.1190484
0.1175639
0.1160023
0.1143686
0.1126633
0.1108955
0.1090765
0.107218
0.1053304
0.1034238
0.101507
0.09958891
0.09767758
0.09577622
0.09388717
0.09202206
0.09019199
0.08840619
0.08667114
0.08499055
0.08336588
0.0817987
0.0802908
0.07884298
0.07745409
0.07612195
0.07484374
0.07361732
0.07244281
0.07132103
0.07024789
0.06921563
0.06821597
0.06724167
0.06628642
0.06534505
0.06441356
0.06348911
0.06256973
0.06165473
0.06074416
0.05983886
0.05894011
0.05804993
0.05717057
0.05630442
0.05545389
0.05462122
0.05380836
0.05301686
0.05224785
0.05150198
0.05077948
0.05008023
0.04940376
0.04874941
0.04811624
0.04750349
0.04690981
0.04633484
0.04577633
0.04523525
0.04470709
0.04419311
0.04369029
0.0431988
0.04271868
0.042249
0.0417884
0.04133556
0.04088938
0.04044909
0.04001426
0.0395847
0.03916042
0.03874161
0.03832865
0.03792205
0.03752235
0.03713017
0.03674615
0.03637093
0.0360051
0.03564923
0.03530381
0.03496926
0.03464589
0.03433392
0.03403346
0.03374448
0.03346689
0.03320044
0.03294481
0.03269958
0.03246426
0.03223828
0.03202102
0.03181181
0.03160995
0.03141471
0.03122538
0.03104128
0.03086176
0.03068628
0.03051424
0.03034515
0.03017852
0.03001383
0.02985054
0.02968807
0.02952592
0.02936406
0.02920264
0.02904185
0.02888183
0.02872284
0.02856556
0.02841054
0.02825686
0.0281039
0.02795172
0.02780127
0.0276535
0.02750889
0.02736767
0.02723004
0.02709617
0.02696611
0.02683994
0.02671769
0.02659939
0.02648507
0.0263747
0.02626824
0.02616562
0.02606673
0.02597145
0.02587963
0.02579111
0.02570571
0.02562325
0.02554355
0.02546641
0.02539165
0.02531908
0.02524851
0.02517977
0.02511267
0.02504705
0.02498275
0.02491962
0.02485752
0.02479632
0.02473589
0.02467612
0.0246169
0.02455813
0.02449972
0.02444159
0.02438367
0.0243259
0.02426823
0.0242106
0.02415297
0.02409533
0.02403763
0.02397986
0.02392201
0.02386407
0.02380604
0.02374791
0.0236897
0.02363142
0.02357307
0.0235147
0.02345631
0.02339794
0.02333961
0.02328136
0.02322322
0.02316521
0.02310734
0.02304963
0.02299206
0.02293464
0.02287729
0.02281999
0.02276259
0.02270508
0.02264718
0.02258884
0.02252965
0.02246948
0.02240769
0.0223441
0.02227798
0.02220941
0.02213837
0.0220659
0.02199412
0.02192601
0.02187015
0.01673492
0.01861058
0.02038678
0.02682772
0.03558818
0.05027869
0.06082318
0.07214888
0.08443582
0.09703623
0.1101676
0.1247087
0.1403426
0.1564646
0.1734481
0.192769
0.22241
0.2362048
0.2502651
0.2644165
0.2786402
0.2923905
0.3054438
0.3179707
0.3301894
0.3422364
0.354181
0.3660617
0.3780502
0.3901761
0.4021654
0.4140084
0.4258216
0.4375771
0.4492356
0.4607686
0.4721376
0.4831932
0.4937999
0.5038339
0.5131068
0.5207897
0.5263546
0.5324379
0.5379272
0.5424198
0.5460278
0.5488896
0.5505631
0.5509963
0.5506945
0.5495437
0.5472841
0.5440544
0.5400711
0.5355165
0.5305387
0.5252711
0.5198297
0.5143185
0.5088026
0.5033521
0.4980262
0.4928381
0.4877866
0.4828674
0.4780629
0.4733506
0.4687091
0.464104
0.4595058
0.454876
0.4501888
0.4452053
0.4400103
0.4346945
0.4293278
0.4239699
0.418634
0.4132784
0.4080053
0.402872
0.3978648
0.3929733
0.3882006
0.3835487
0.3790119
0.3745758
0.370223
0.3659326
0.3616825
0.357456
0.3532403
0.3490279
0.3448197
0.340624
0.3364562
0.3323348
0.32828
0.3243044
0.320427
0.3166897
0.3131424
0.3098258
0.3067625
0.3039524
0.3013786
0.2990173
0.2968434
0.2948287
0.2929297
0.2910804
0.2892071
0.2872522
0.2850935
0.2826301
0.2798009
0.2765676
0.2729113
0.2688552
0.264459
0.2597994
0.2549638
0.2500515
0.2451671
0.2405112
0.2363027
0.2327012
0.2298406
0.2278067
0.2266275
0.2262647
0.2266038
0.2274602
0.2286052
0.2297978
0.2308178
0.23147
0.231649
0.2314075
0.2307716
0.2297885
0.2285157
0.2270068
0.2252839
0.2233195
0.2210431
0.2183786
0.2152635
0.2117001
0.2077448
0.2034879
0.199038
0.1945026
0.1899938
0.1856157
0.1814599
0.1776178
0.1742094
0.1714155
0.1695058
0.1689869
0.1704005
0.174208
0.1807812
0.190269
0.2025546
0.2172485
0.2336724
0.2509587
0.268315
0.2851178
0.3008342
0.31491
0.3268972
0.3366244
0.344234
0.3500726
0.3543558
0.3568977
0.3572962
0.355516
0.352453
0.3491725
0.3458463
0.3423928
0.3383789
0.3333933
0.327324
0.3205099
0.3132611
0.3055838
0.2973104
0.2882337
0.2782314
0.2674718
0.2563216
0.2450124
0.2337101
0.2225831
0.2118035
0.2015158
0.1917964
0.1827411
0.1744109
0.1668385
0.1600537
0.1540541
0.1487995
0.1442416
0.1402785
0.136794
0.1337414
0.1310064
0.1284673
0.1261754
0.1240699
0.1219347
0.1198022
0.117743
0.11566
0.1137044
0.112469
0.1128071
0.1153333
0.1204358
0.1282523
0.1382549
0.1494749
0.1607717
0.171287
0.1804491
0.1879661
0.1936956
0.1975831
0.1996768
0.2000704
0.1988931
0.1963076
0.19247
0.1877939
0.1828756
0.1780473
0.1734445
0.1691718
0.1652926
0.1618532
0.1588685
0.1563227
0.1541795
0.1523826
0.1508675
0.1495725
0.148435
0.1473994
0.1464215
0.1454674
0.1445127
0.1435419
0.1425463
0.1415225
0.1404701
0.1393924
0.1382913
0.1371779
0.1360485
0.1348881
0.1337036
0.1324988
0.1312691
0.1300083
0.1287108
0.1273704
0.1259802
0.1245336
0.1230271
0.1214604
0.119832
0.1181414
0.116391
0.1145849
0.112729
0.1108301
0.1088965
0.1069381
0.1049618
0.1029702
0.1009776
0.09899696
0.09703684
0.09510599
0.09321643
0.09137763
0.08959742
0.08788282
0.08623869
0.08466669
0.08316623
0.08173601
0.0803742
0.07907867
0.07784689
0.0766738
0.07555156
0.07447132
0.07342453
0.07240339
0.07140104
0.07041172
0.06943085
0.06845509
0.06748225
0.06651128
0.06554215
0.06457574
0.06361376
0.0626583
0.06171217
0.06077827
0.05985947
0.05895843
0.05807745
0.05721833
0.05638237
0.05557034
0.05478255
0.0540189
0.05327892
0.05256199
0.05186746
0.05119429
0.05054185
0.04990884
0.04929473
0.04869767
0.04811679
0.04755124
0.04700014
0.04646224
0.04593626
0.04542115
0.04491588
0.04441933
0.04393038
0.04344806
0.04297167
0.04250081
0.04203532
0.04157532
0.04112113
0.0406732
0.04023213
0.03979857
0.03937325
0.0389569
0.0385502
0.03815383
0.03776838
0.03739435
0.03703216
0.03668213
0.03634445
0.0360192
0.03570635
0.03540574
0.03511709
0.03484001
0.03457405
0.03431862
0.0340731
0.03383677
0.03360888
0.03338867
0.03317535
0.03296817
0.03276642
0.03256936
0.03237634
0.03218673
0.03199997
0.03181549
0.03163272
0.03145117
0.03127061
0.03109102
0.03091247
0.03073511
0.03055916
0.0303848
0.0302119
0.03004021
0.02986994
0.02970148
0.02953526
0.02937166
0.02921096
0.02905336
0.02889908
0.02874837
0.02860138
0.02845828
0.02831919
0.0281842
0.0280534
0.02792679
0.02780439
0.02768616
0.02757203
0.02746192
0.02735569
0.02725321
0.02715432
0.02705885
0.02696662
0.02687745
0.02679113
0.02670749
0.02662632
0.02654744
0.02647066
0.02639579
0.02632264
0.02625107
0.02618089
0.02611196
0.02604413
0.02597726
0.02591121
0.02584588
0.02578114
0.02571689
0.02565303
0.02558948
0.02552616
0.025463
0.02539995
0.02533695
0.02527395
0.02521092
0.02514783
0.02508465
0.02502137
0.02495796
0.02489444
0.02483078
0.02476701
0.02470314
0.0246392
0.02457519
0.02451117
0.02444717
0.02438322
0.02431936
0.02425561
0.024192
0.02412852
0.02406517
0.0240019
0.02393866
0.02387534
0.02381186
0.02374802
0.02368366
0.0236185
0.02355233
0.02348477
0.0234156
0.02334455
0.0232716
0.02319707
0.02312119
0.02304583
0.02297143
0.02290748
0.006522126
0.007784641
0.008720362
0.01305032
0.01804768
0.02459024
0.03007926
0.03635936
0.0432148
0.0506079
0.05883217
0.06857623
0.0793932
0.09159985
0.1063334
0.1290745
0.1410689
0.1537426
0.1666563
0.1797568
0.1929605
0.2061508
0.2192188
0.232056
0.2445668
0.2567101
0.2686825
0.2818548
0.2953256
0.309103
0.3230579
0.3368249
0.3501448
0.3630007
0.3754764
0.387664
0.3996422
0.4114706
0.4230023
0.434077
0.4449429
0.4556227
0.4661404
0.4764855
0.4866089
0.4964442
0.5058952
0.5148566
0.5231876
0.5307343
0.5372968
0.5425078
0.5464449
0.5502546
0.552956
0.5539348
0.5532837
0.5514061
0.5483007
0.5440293
0.5387873
0.5326804
0.5257654
0.5182474
0.5103734
0.5023662
0.4944064
0.4866486
0.4792048
0.4721623
0.465574
0.4594606
0.4538288
0.4486531
0.443892
0.4394942
0.435403
0.431576
0.4279686
0.4245801
0.4213496
0.4181772
0.4147858
0.4112604
0.4076615
0.4040412
0.4004357
0.3968657
0.3933458
0.3898788
0.3864845
0.3831761
0.3799443
0.3767762
0.3736643
0.3706032
0.3675847
0.3645936
0.3616102
0.3586115
0.3555753
0.3524858
0.3493302
0.3461006
0.3427988
0.3394369
0.3360359
0.3326214
0.3292198
0.3258493
0.3225304
0.3193113
0.3162568
0.3134226
0.3108395
0.308508
0.3064063
0.304507
0.302788
0.3012301
0.2997994
0.2984402
0.297096
0.2956703
0.2940392
0.2921024
0.2897721
0.2869857
0.2837121
0.2799609
0.2757811
0.2712501
0.2664671
0.261558
0.2566746
0.2519891
0.247805
0.2443579
0.2418431
0.2403875
0.2400288
0.2406864
0.2421478
0.2440887
0.2461299
0.2479068
0.2491287
0.2496241
0.2493871
0.2486048
0.2473705
0.2458072
0.2440526
0.2422174
0.2403493
0.2384138
0.236305
0.2338874
0.2310498
0.2277277
0.223924
0.2197025
0.215175
0.2104692
0.2057293
0.2010966
0.1967032
0.192686
0.1892173
0.1865416
0.185012
0.1851754
0.1876928
0.1931015
0.2018257
0.2140491
0.2295645
0.2476969
0.2674465
0.2877341
0.3076338
0.3263945
0.3434389
0.3582596
0.3704865
0.3800855
0.3874465
0.3932433
0.3979652
0.4016569
0.4040916
0.4048472
0.4036848
0.4009213
0.3968017
0.3917527
0.3854475
0.3776496
0.3688315
0.359694
0.3505849
0.3414266
0.3318838
0.3215606
0.3102186
0.2979505
0.2850823
0.2719681
0.2589354
0.2462923
0.2342314
0.222857
0.2121588
0.2021095
0.1926798
0.1838587
0.1756783
0.1681626
0.1613269
0.1551815
0.1496986
0.1448378
0.1405778
0.1368644
0.1336438
0.1309275
0.1286724
0.1267444
0.1250826
0.1235962
0.1221009
0.1205936
0.1192531
0.1183008
0.1181212
0.1193447
0.1224818
0.1276759
0.134838
0.1436381
0.1531386
0.1627143
0.1718303
0.1800681
0.1871656
0.1929621
0.1973868
0.2004471
0.2021841
0.2026606
0.2019806
0.2002273
0.1975387
0.1941592
0.1903373
0.1863071
0.1822804
0.1784081
0.1747813
0.1714448
0.1684038
0.1656394
0.1631129
0.1607778
0.1585862
0.1564965
0.1544752
0.1524992
0.1505556
0.1486413
0.14676
0.1449204
0.1431338
0.1414112
0.1397624
0.138193
0.1367036
0.1352946
0.1339628
0.1326986
0.1314897
0.1303229
0.1291831
0.1280525
0.1269122
0.1257447
0.1245355
0.1232718
0.1219425
0.1205389
0.1190554
0.1174897
0.1158423
0.1141171
0.1123222
0.1104697
0.1085721
0.1066391
0.1046831
0.1027116
0.1007324
0.09876286
0.09682245
0.09492821
0.09309447
0.09133209
0.08964687
0.08804081
0.0865148
0.08506851
0.08369962
0.08240413
0.08117612
0.08000763
0.07888951
0.07781237
0.07676717
0.07574554
0.07474007
0.07374454
0.07275398
0.07176472
0.07077442
0.06978202
0.06878765
0.06779249
0.06679864
0.06580892
0.06482663
0.06385525
0.0628982
0.06195852
0.06103879
0.06014094
0.05926634
0.05841578
0.05758937
0.05678713
0.05600862
0.05525332
0.05452049
0.0538095
0.05311953
0.05244989
0.05179971
0.05116823
0.0505545
0.0499572
0.04937498
0.04880672
0.04825139
0.04770777
0.04717448
0.04665003
0.04613307
0.0456225
0.04511753
0.04461767
0.04412279
0.04363299
0.04314862
0.04267022
0.04219845
0.04173408
0.04127792
0.04083079
0.04039348
0.03996675
0.03955128
0.03914766
0.03875642
0.03837795
0.03801253
0.03766032
0.03732133
0.03699545
0.03668243
0.03638191
0.03609339
0.03581629
0.03554991
0.03529351
0.03504625
0.03480731
0.03457581
0.03435094
0.03413184
0.03391772
0.03370786
0.03350158
0.03329824
0.03309727
0.03289817
0.03270062
0.03250448
0.03230972
0.03211636
0.03192447
0.03173408
0.03154521
0.03135798
0.03117259
0.03098926
0.03080824
0.03062983
0.03045431
0.03028192
0.03011291
0.0299475
0.0297859
0.02962829
0.02947481
0.0293256
0.02918074
0.02904032
0.02890434
0.02877282
0.02864573
0.028523
0.02840453
0.02829023
0.02817994
0.02807351
0.02797078
0.02787157
0.0277757
0.02768297
0.02759321
0.02750621
0.02742177
0.02733972
0.02725985
0.02718198
0.02710594
0.02703155
0.02695864
0.02688706
0.02681665
0.02674726
0.02667875
0.02661101
0.02654389
0.02647731
0.02641114
0.02634531
0.02627973
0.02621431
0.026149
0.02608374
0.02601846
0.02595313
0.0258877
0.02582215
0.02575645
0.02569058
0.02562454
0.02555833
0.02549195
0.02542545
0.02535884
0.02529217
0.02522548
0.02515881
0.0250922
0.02502568
0.02495927
0.02489296
0.02482672
0.02476051
0.02469422
0.02462777
0.02456098
0.02449369
0.02442567
0.02435672
0.0242866
0.02421512
0.02414217
0.02406769
0.02399204
0.02391523
0.02383871
0.02376236
0.02369584
0.00140752
0.0059878
0.009054022
0.01272488
0.01692303
0.02182999
0.02752859
0.03393545
0.04120419
0.05007173
0.06356067
0.07162446
0.08039684
0.08967252
0.09945567
0.1096815
0.1202948
0.131207
0.1422698
0.1533823
0.1645603
0.1772163
0.1900807
0.2029816
0.2158455
0.2285856
0.2411382
0.2534847
0.2656021
0.2775708
0.2894726
0.3014415
0.3138754
0.3266503
0.3397876
0.3531586
0.3663787
0.3791545
0.3913842
0.4030457
0.4141463
0.4246997
0.4346478
0.444057
0.4531266
0.4619888
0.4707244
0.4793613
0.4878842
0.4962306
0.5042988
0.5119871
0.519186
0.5256919
0.5312453
0.535659
0.5387248
0.5403531
0.5407395
0.5393887
0.5363271
0.5315849
0.5253406
0.5177433
0.5089872
0.4993574
0.489132
0.478581
0.4679685
0.4575538
0.4475546
0.4381519
0.4294815
0.4216248
0.4146346
0.4085096
0.4032257
0.3987318
0.3949546
0.3918179
0.3892428
0.3871683
0.3854926
0.3840189
0.3824748
0.3809934
0.3796019
0.3782345
0.3768828
0.3755408
0.3742044
0.372868
0.3715237
0.3701665
0.3687914
0.3673989
0.3659856
0.3645432
0.3630613
0.3615314
0.3599482
0.3583054
0.3565911
0.354786
0.3528704
0.3508292
0.3486552
0.3463438
0.3438966
0.3413278
0.3386607
0.3359243
0.3331554