/*--------------------------------*- C++ -*----------------------------------*\
| =========                 |                                                 |
| \\      /  F ield         | foam-extend: Open Source CFD                    |
|  \\    /   O peration     | Version:     3.1                                |
|   \\  /    A nd           | Web:         http://www.extend-project.de       |
|    \\/     M anipulation  |                                                 |
\*---------------------------------------------------------------------------*/
FoamFile
{
    version     2.0;
    format      ascii;
    class       volScalarField;
    location    "9.5";
    object      nut;
}
// * * * * * * * * * * * * * * * * * * * * * * * * * * * * * * * * * * * * * //

dimensions      [0 2 -1 0 0 0 0];

internalField   nonuniform List<scalar> 
119952
(
5.089003e-05
3.365965e-05
3.438222e-05
3.811418e-05
4.049908e-05
3.804467e-05
3.627157e-05
3.48104e-05
3.341191e-05
3.204465e-05
3.071895e-05
2.95499e-05
2.869708e-05
2.827592e-05
2.822288e-05
2.833621e-05
2.834189e-05
2.809367e-05
2.750571e-05
2.661499e-05
3.479461e-05
3.272641e-05
3.212306e-05
4.256336e-05
4.131877e-05
4.099716e-05
4.079612e-05
4.086548e-05
4.098523e-05
2.564723e-05
3.32672e-05
3.534695e-05
3.976629e-05
4.456134e-05
4.979192e-05
5.536823e-05
6.127518e-05
6.734738e-05
7.347436e-05
8.395761e-05
0.0003626636
0.0004285346
0.0004990717
0.0005701159
0.0006388854
0.00070387
0.0007648758
0.0008218949
0.0008750991
0.001225658
0.001274781
0.001324898
0.001376478
0.00143108
0.001490663
0.001556671
0.001630187
0.001711607
0.001800396
0.001897376
0.001997686
0.00210179
0.002209218
0.002317696
0.002424487
0.002526635
0.002621081
0.002711072
0.002632724
0.002762618
0.002742689
0.002718768
0.002676657
0.002590752
0.002476422
0.002347469
0.002209632
0.002070628
0.001938329
0.001821498
0.00172811
0.001663548
0.001629064
0.001622364
0.001638302
0.001672384
0.001721904
0.001786313
0.001863319
0.001946279
0.002041788
0.002161457
0.002303101
0.002453219
0.002615312
0.002792421
0.002498107
0.002955514
0.00309378
0.003282855
0.003504074
0.003737538
0.003967613
0.004186367
0.004388114
0.004567628
0.004719867
0.004840823
0.004922997
0.004958975
0.00494445
0.004878757
0.004767052
0.004623908
0.004461635
0.004302966
0.004164953
0.004036822
0.00389946
0.003736064
0.003539964
0.003315473
0.003071705
0.00281304
0.002532551
0.002212587
0.001831455
0.001399258
0.001054309
0.000910825
0.0008211388
0.0007716009
0.0008110851
0.000890149
0.0009872347
0.001085238
0.001173361
0.001249087
0.001317393
0.00136478
0.001391568
0.001408911
0.001412992
0.001396353
0.001345191
0.001227704
0.001024188
0.0008719929
0.0007479588
0.0006306749
0.0006071917
0.0006636706
0.0007861889
0.0008711496
0.0009573822
0.001042497
0.001088229
0.00111556
0.00114229
0.001178042
0.001230428
0.001295668
0.001365944
0.001434864
0.001496903
0.001548929
0.00158989
0.001619966
0.001640293
0.001652678
0.00165902
0.001660996
0.00166006
0.001657772
0.001655391
0.001653856
0.001653794
0.001655595
0.00165952
0.001665608
0.001673711
0.001683644
0.00169515
0.001707864
0.001721381
0.001735309
0.001749282
0.001762974
0.001776085
0.001788248
0.001798876
0.001807494
0.001813735
0.001817266
0.001817804
0.00181478
0.001795653
0.001232529
0.0009629071
0.0009097977
0.0008852155
0.0008676327
0.0008519762
0.0008365555
0.0008207411
0.0008043675
0.0007874914
0.0007702107
0.0007525279
0.0007343258
0.0007158617
0.0006974183
0.000679098
0.0006609809
0.0006429631
0.0006230451
0.0006028278
0.0005833281
0.0005644411
0.0005462651
0.0005288728
0.0005122532
0.0004963189
0.0004809682
0.0004662087
0.0004520403
0.0004383095
0.0004249958
0.0004121276
0.0003997759
0.0003881189
0.0003777633
0.0003745892
0.0003806735
0.0003861547
0.0003906194
0.0003942112
0.0003970897
0.0003994099
0.000401291
0.0004028279
0.000404103
0.0004051801
0.0004061119
0.0004069459
0.0004077237
0.000408477
0.0004092337
0.0004100192
0.0004108549
0.0004117566
0.0004127347
0.0004137958
0.0004149422
0.000416173
0.0004174844
0.0004188704
0.0004203253
0.0004218379
0.0004233961
0.0004249917
0.000426614
0.000428252
0.0004298945
0.0004315308
0.0004331646
0.0004347487
0.00057077
0.0005787568
0.0005857749
0.0005920512
0.0005975089
0.0006021891
0.0006064213
0.0006104282
0.0006141766
0.0006176542
0.0006208676
0.0006238487
0.0006266585
0.0006293618
0.0006319958
0.0006345622
0.0006371058
0.0006396599
0.0006422324
0.0006448412
0.0006475001
0.0006502317
0.000653076
0.0006560228
0.0006590594
0.0006621729
0.0006653505
0.0006685788
0.0006718449
0.0006751371
0.0006784452
0.0006817582
0.0006850651
0.0006883554
0.0006916173
0.0006948403
0.000698016
0.0007011394
0.000704208
0.0007072187
0.0007101701
0.0007130612
0.0007158863
0.0007186326
0.0007212796
0.0007237356
0.0007257504
0.0007275314
0.0007292565
0.0007309252
0.000732552
0.0007341603
0.0007357493
0.0007378348
0.0007400388
0.0007401938
0.0007408127
0.000741809
0.0007431909
0.0007449113
0.0007469378
0.000749251
0.0007518123
0.0007545743
0.0007574969
0.0007605511
0.0007637026
0.0007669222
0.0007701857
0.000773472
0.0007767636
0.0007800464
0.0007833087
0.0007865405
0.0007897335
0.0007928816
0.000795981
0.000799028
0.0008020191
0.000804952
0.0008078248
0.0008106365
0.0008133861
0.000816073
0.0008186973
0.0008212603
0.0008237638
0.0008262092
0.0008285978
0.0008309308
0.0008332097
0.0008354355
0.0008376092
0.0008397326
0.0008418081
0.0008438381
0.0008458248
0.00084777
0.0008496761
0.0008515456
0.0008533813
0.0008551863
0.0008569635
0.0008587154
0.0008604443
0.0008621528
0.0008638437
0.0008655194
0.0008671822
0.0008688343
0.0008704782
0.0008721166
0.0008737514
0.0008753843
0.0008770171
0.0008786518
0.00088029
0.0008819338
0.0008835846
0.0008852447
0.0008869157
0.0008886003
0.0008903011
0.0008920228
0.0008937697
0.0008955504
0.0008973725
0.0008992513
0.0009012003
0.000903241
0.0009053992
0.0009077292
0.0009102863
0.0009131912
0.0009166149
0.0009209878
0.0009268937
0.0009366977
0.0007327964
7.121636e-05
8.553957e-05
0.0001033095
0.0001174856
0.0001292721
0.0001397359
0.0001494302
0.0001585956
0.000169291
0.0004683115
0.0007049458
0.0009329752
0.001126168
0.001282171
0.001409145
0.001516424
0.001610947
0.001697603
0.002428852
0.002557859
0.002690503
0.002819508
0.002942249
0.003057263
0.003163484
0.003260596
0.003348931
0.003428422
0.003499515
0.003565486
0.003629272
0.003693275
0.003758187
0.003823443
0.003888582
0.003953028
0.004016415
0.004055418
0.0040743
0.004102248
0.004138153
0.004180126
0.004226013
0.004273799
0.004321537
0.004367314
0.00440958
0.004446853
0.004476768
0.004499567
0.004514516
0.004521244
0.004519966
0.004511506
0.004497248
0.004478308
0.005149729
0.005130279
0.005115277
0.00510712
0.005107515
0.005118623
0.005142446
0.005180313
0.005232847
0.005299478
0.005379246
0.005470834
0.005571618
0.005678148
0.005786743
0.005892799
0.005992228
0.006081442
0.006160398
0.006217655
0.006241854
0.006243206
0.006223353
0.006174633
0.00608748
0.005964687
0.005809303
0.005624215
0.005414888
0.005189824
0.004960263
0.004738758
0.004537049
0.004364138
0.004225677
0.004124588
0.004061941
0.004037332
0.00404938
0.004094822
0.004166292
0.004256406
0.00437819
0.004538282
0.004737897
0.004983612
0.005280957
0.005627978
0.00601416
0.006440829
0.006898516
0.007368957
0.007509988
0.007574496
0.007746282
0.007993911
0.00828728
0.008642798
0.009145665
0.009812321
0.01000001
0.01000003
0.01000015
0.01000037
0.0100005
0.009944836
0.009808931
0.009674823
0.009530634
0.009358054
0.009141723
0.008873953
0.008554368
0.008183892
0.007754998
0.007250202
0.006643258
0.005910199
0.005103739
0.004363859
0.003755443
0.003286416
0.002940857
0.002700695
0.002546011
0.00245749
0.002418166
0.002340618
0.002259131
0.00223413
0.002250199
0.002302093
0.002364984
0.002440113
0.002513184
0.002551914
0.002615434
0.002700076
0.002560734
0.002339577
0.002083555
0.001859775
0.001663165
0.001370827
0.001278634
0.001283619
0.001430268
0.00171098
0.002068232
0.002360399
0.002569784
0.002788938
0.003008882
0.003215817
0.003399327
0.003558115
0.003694044
0.003809443
0.003906576
0.003987943
0.004056627
0.004116926
0.004171859
0.004222018
0.004268709
0.004313328
0.004357183
0.0044012
0.004446105
0.004492481
0.004540527
0.004590234
0.004641463
0.004693902
0.004747085
0.004800481
0.004853534
0.004905694
0.004956429
0.005005229
0.005051621
0.005095168
0.005135472
0.005172178
0.005204972
0.005233715
0.005258123
0.005280519
0.004899833
0.004730654
0.004666849
0.004627197
0.004594325
0.004563433
0.004532387
0.004499924
0.004465311
0.004428191
0.004388368
0.00434563
0.004299892
0.004251404
0.004200666
0.0041482
0.004094475
0.004039871
0.003984745
0.003929606
0.003874868
0.00382077
0.003767565
0.003715502
0.003664722
0.003615172
0.003566653
0.003518927
0.003471832
0.00342533
0.003379467
0.003334332
0.003290063
0.003246893
0.003205308
0.003166415
0.003131407
0.003098945
0.003067687
0.003036923
0.003006181
0.002975173
0.002943748
0.002911861
0.002879548
0.002846899
0.002814047
0.002781147
0.002748367
0.002715879
0.002683853
0.002652447
0.002621804
0.002592042
0.002563251
0.002535488
0.002508781
0.00248313
0.002458507
0.002434862
0.002412129
0.002390228
0.002369072
0.002348566
0.002328617
0.002309128
0.002290008
0.00227116
0.002252465
0.002233405
0.002586476
0.00257327
0.002558823
0.002542882
0.002525647
0.002507444
0.002488572
0.002469283
0.002449801
0.002430322
0.002411019
0.002392051
0.002373566
0.002355689
0.002338519
0.00232212
0.002306551
0.002291868
0.002278103
0.002265271
0.002253372
0.002242391
0.002232296
0.002223044
0.002214579
0.002206837
0.002199748
0.002193243
0.002187248
0.002181694
0.002176514
0.002171648
0.002167038
0.002162634
0.002158389
0.002154266
0.002150235
0.002146275
0.002142373
0.002138528
0.002134737
0.002131009
0.002127365
0.002123818
0.002120362
0.002116942
0.002113514
0.002110155
0.002107011
0.002104122
0.002101547
0.002099284
0.002097493
0.002096517
0.002095723
0.002094661
0.002093735
0.002093317
0.002093427
0.002094052
0.002095173
0.00209676
0.002098776
0.002101185
0.002103956
0.00210706
0.002110468
0.00211415
0.002118076
0.002122214
0.002126531
0.002130994
0.002135571
0.002140231
0.002144944
0.002149681
0.002154416
0.002159124
0.002163782
0.002168369
0.002172867
0.002177258
0.002181528
0.002185664
0.002189656
0.002193496
0.002197178
0.002200697
0.002204052
0.00220724
0.00221026
0.002213114
0.002215804
0.00221833
0.002220699
0.002222914
0.00222498
0.002226904
0.002228692
0.002230351
0.002231889
0.002233314
0.002234633
0.002235854
0.002236986
0.002238036
0.002239013
0.002239925
0.002240779
0.002241583
0.002242345
0.002243071
0.002243769
0.002244445
0.002245106
0.002245757
0.002246405
0.002247052
0.002247707
0.002248371
0.002249053
0.002249753
0.002250484
0.002251243
0.002252053
0.002252908
0.002253846
0.002254856
0.002256006
0.002257268
0.002258767
0.002260455
0.002262551
0.002264938
0.002267943
0.002271415
0.002276947
0.002286497
0.002300141
2.685972e-05
3.21123e-05
3.994742e-05
4.89737e-05
5.941647e-05
7.151642e-05
8.567231e-05
0.0001022252
0.0001216541
0.0001544985
0.0007154423
0.0008447686
0.0009809685
0.001125972
0.001281734
0.001450588
0.00164408
0.001898013
0.002426152
0.004007041
0.004241569
0.004447819
0.004637853
0.004804475
0.004964687
0.005121317
0.005274782
0.005448714
0.005883356
0.006274188
0.006409187
0.00650927
0.00659645
0.006674171
0.006742718
0.006803632
0.006858951
0.006913794
0.006853421
0.006945477
0.007060363
0.007161663
0.007242998
0.00730679
0.007356991
0.007397059
0.007429815
0.00745726
0.007482371
0.007510342
0.007541441
0.007574413
0.007607036
0.007637287
0.007663561
0.007683075
0.008477886
0.008491334
0.008495037
0.008493606
0.008489218
0.008482896
0.00847526
0.008466583
0.008457192
0.008446997
0.008435556
0.00842336
0.008410808
0.008397911
0.008385043
0.008372608
0.008361039
0.008350808
0.008342328
0.008335026
0.008328716
0.008324134
0.00832115
0.008319453
0.008318655
0.00831804
0.008316758
0.008313666
0.008307442
0.008297218
0.008281818
0.00825992
0.008230401
0.008192802
0.008146543
0.008093091
0.008033549
0.00797496
0.00790161
0.007829879
0.007759765
0.007692759
0.007630946
0.007577896
0.00754067
0.007522003
0.00752239
0.00754176
0.007579584
0.00763447
0.007704042
0.00778501
0.007873319
0.007964209
0.008052746
0.008134237
0.008204431
0.008257859
0.008287634
0.008293236
0.008277399
0.008231463
0.008150278
0.008034899
0.007887496
0.007709682
0.007504238
0.007276133
0.00703297
0.006784619
0.00654208
0.006315883
0.006115048
0.00594668
0.005815974
0.00572603
0.005678364
0.005672565
0.005705964
0.005776164
0.005876029
0.006016173
0.006207992
0.006458765
0.006775974
0.00716258
0.007611512
0.008111958
0.008646238
0.009190993
0.00924295
0.009221211
0.009408291
0.00973036
0.01000011
0.01000009
0.01000006
0.01000004
0.01000002
0.01000004
0.01000017
0.0100008
0.01000186
0.01000244
0.01000232
0.01000175
0.01000102
0.01000058
0.01000079
0.01000143
0.01000279
0.01000403
0.01000298
0.01000145
0.009442875
0.008752022
0.007971235
0.007176024
0.006421947
0.005741062
0.005151303
0.004658795
0.004260931
0.003949671
0.003715315
0.003547348
0.003435098
0.003370082
0.003343563
0.003347539
0.003374639
0.003329516
0.003311494
0.003276626
0.003329951
0.003413822
0.003353896
0.003318568
0.00317371
0.002921918
0.002649275
0.002403319
0.002237833
0.001872277
0.0016467
0.001594818
0.001670984
0.001879101
0.00219285
0.002561828
0.002992379
0.003455962
0.003751393
0.003960656
0.004148457
0.004317824
0.004470638
0.004607555
0.0047303
0.0048397
0.004941599
0.005039042
0.005132727
0.005223057
0.005310345
0.00539464
0.005476262
0.005555318
0.005631796
0.00570572
0.005777109
0.005845947
0.005912172
0.00597572
0.006036547
0.006094603
0.006149863
0.00620233
0.006252037
0.006299039
0.006343402
0.006385188
0.006424413
0.006461054
0.00649475
0.006526172
0.006554373
0.006587851
0.006617262
0.00664103
0.00665988
0.006674541
0.006685461
0.006692776
0.006696549
0.006696727
0.006693075
0.006685116
0.006672901
0.006656679
0.006636718
0.006613301
0.006586691
0.006557147
0.006524946
0.006490355
0.006453561
0.006414718
0.006374223
0.006332434
0.006289741
0.006246323
0.006202241
0.006157553
0.006112377
0.006066878
0.006021236
0.005975559
0.005929971
0.005884591
0.00583963
0.005795509
0.005752427
0.005709956
0.005667558
0.005624794
0.005581303
0.005536819
0.005491171
0.005444284
0.005396166
0.005346885
0.005296581
0.005245446
0.005193704
0.005141612
0.005089439
0.005037455
0.004985923
0.004935081
0.004885134
0.004836248
0.004788543
0.004742094
0.00469693
0.004653043
0.004610386
0.004568886
0.004528444
0.004488948
0.004450268
0.004412276
0.004374839
0.00433782
0.004301122
0.00426597
0.004219899
0.004175658
0.00413242
0.004089989
0.004048435
0.004007723
0.003967719
0.003928305
0.00388943
0.003851118
0.003813439
0.003776484
0.003740367
0.003705208
0.003671125
0.003638226
0.003606614
0.003576373
0.00354757
0.00352025
0.003494434
0.003470123
0.003447292
0.003425895
0.003405864
0.003387117
0.003369556
0.003353075
0.00333756
0.003322896
0.003308969
0.003295669
0.00328289
0.003270536
0.003258519
0.003246762
0.003235204
0.003223797
0.003212506
0.003201318
0.003190228
0.00317924
0.003168381
0.00315768
0.003147158
0.003136819
0.003126686
0.003116819
0.00310733
0.003098304
0.003089815
0.003081916
0.00307463
0.003067915
0.003061837
0.003056548
0.003052173
0.003048627
0.003045843
0.003043803
0.003042493
0.003041904
0.003042026
0.003042831
0.003044284
0.003046347
0.003048978
0.003052133
0.003055765
0.003059826
0.003064269
0.003069045
0.003074105
0.003079404
0.003084895
0.003090535
0.003096283
0.003102101
0.003107951
0.003113801
0.003119619
0.003125377
0.003131049
0.003136612
0.003142046
0.003147334
0.00315246
0.003157413
0.003162182
0.00316676
0.00317114
0.003175318
0.003179291
0.003183058
0.003186619
0.003189976
0.003193133
0.003196092
0.003198861
0.003201445
0.003203851
0.003206086
0.003208161
0.003210082
0.00321186
0.003213503
0.003215022
0.003216426
0.003217725
0.00321893
0.003220049
0.003221093
0.003222072
0.003222994
0.00322387
0.003224707
0.003225513
0.003226298
0.003227066
0.003227827
0.003228583
0.003229346
0.003230117
0.003230909
0.003231724
0.003232581
0.003233485
0.003234464
0.003235525
0.003236713
0.003238038
0.003239568
0.003241321
0.003243411
0.003245906
0.00324914
0.003253544
0.003259822
0.003267867
3.463712e-05
5.496227e-05
0.0001240189
0.0004119383
0.0007036841
0.001242329
0.00166568
0.002172867
0.002758299
0.003230946
0.003572923
0.003845338
0.004123576
0.004420018
0.004725466
0.005036358
0.00535573
0.005686545
0.006029488
0.006382611
0.006740302
0.007092074
0.007404806
0.007682902
0.007946712
0.008195568
0.008433121
0.008667917
0.008904447
0.009152665
0.009464088
0.01
0.01
0.01
0.01
0.01
0.01
0.01
0.01
0.01
0.009963799
0.009759781
0.009564871
0.009397
0.009258293
0.009151504
0.009076772
0.009032151
0.009021197
0.009040632
0.009069
0.009108156
0.009181225
0.009273406
0.009381249
0.00950212
0.009637057
0.009784077
0.009945089
0.01
0.01
0.01
0.01
0.01
0.01
0.01
0.01
0.01
0.01
0.01
0.01
0.01
0.01
0.01
0.01
0.01
0.01
0.01
0.01
0.01
0.01
0.01
0.01
0.01
0.01
0.01
0.01000001
0.01000001
0.01
0.01
0.01
0.01
0.01000001
0.01000001
0.01000001
0.01000001
0.01
0.01
0.01000001
0.01000001
0.01000001
0.009993066
0.009947582
0.009898268
0.009844298
0.009781851
0.009712035
0.009637018
0.009560413
0.00948595
0.009416395
0.009352912
0.009293668
0.009245569
0.009215895
0.009206077
0.00921669
0.009247299
0.009296247
0.009360623
0.009436377
0.009518471
0.009601267
0.009679055
0.00974656
0.009799123
0.009831745
0.009841982
0.009830835
0.009792594
0.009725936
0.009630609
0.009507232
0.009356493
0.009179358
0.008977898
0.008756056
0.008519446
0.008276414
0.008036683
0.007810014
0.007605417
0.007430595
0.007291552
0.007192502
0.00713586
0.007122494
0.007152647
0.00722588
0.007341996
0.007517938
0.007763577
0.008086966
0.008490398
0.008964932
0.009492852
0.01
0.01000001
0.01000005
0.01000016
0.01000032
0.01000046
0.01000046
0.01000037
0.01000027
0.01000018
0.0100001
0.01000007
0.0100002
0.01000125
0.01000492
0.01000963
0.01001021
0.01000592
0.01000241
0.01000142
0.01000259
0.01000802
0.01001265
0.01000917
0.01000394
0.01000166
0.01000071
0.0100003
0.01000012
0.009662319
0.008929415
0.008205899
0.00751585
0.006880704
0.006314471
0.005823166
0.005407887
0.005065891
0.00479213
0.004581473
0.004427539
0.004323474
0.004262629
0.004236522
0.004236794
0.004255961
0.004281633
0.004301543
0.004243891
0.004143121
0.004151678
0.003971657
0.003718833
0.003420788
0.003128336
0.002882612
0.002721419
0.00231332
0.001970403
0.001874916
0.001927104
0.002073678
0.002291074
0.002571967
0.002898152
0.003249269
0.003595104
0.003906759
0.004167509
0.004376408
0.004541964
0.004676397
0.004794669
0.00490323
0.005001911
0.005097035
0.005195927
0.005293531
0.005388076
0.005486087
0.0055865
0.005689479
0.005795867
0.005904473
0.006016588
0.006125918
0.00623402
0.006338333
0.006437089
0.006528203
0.006609942
0.006681031
0.006740875
0.006789563
0.006829222
0.006858924
0.006890697
0.006887185
0.006881173
0.006921627
0.006960185
0.006993319
0.007029571
0.007073322
0.007123749
0.007179789
0.00724244
0.007313638
0.007389612
0.007433369
0.007455883
0.00747526
0.007491511
0.007504563
0.00751443
0.007521046
0.007524337
0.007524161
0.007520103
0.007511747
0.007499556
0.007483905
0.0074651
0.007443352
0.007418962
0.007392194
0.007363377
0.007332898
0.007301108
0.00726822
0.007234506
0.007200152
0.007165349
0.007130329
0.007095245
0.007059956
0.00702412
0.006987347
0.006949331
0.006909797
0.006868537
0.006825424
0.006780404
0.006733464
0.006684719
0.006634329
0.006582507
0.006529489
0.006475586
0.006421112
0.006366387
0.006311721
0.0062574
0.006203675
0.00615075
0.006098778
0.00604786
0.005998049
0.005949352
0.005901737
0.005855128
0.005809431
0.005764545
0.005720327
0.005676676
0.005633381
0.005590411
0.005547522
0.005503954
0.005459711
0.005414929
0.005369736
0.005324175
0.005278256
0.005231991
0.005185417
0.005138609
0.005091681
0.005044783
0.004998082
0.004951767
0.004906035
0.004861087
0.004817119
0.004774315
0.004732842
0.004692846
0.004654445
0.004617727
0.004582748
0.004549533
0.004518072
0.004488327
0.004460231
0.004433693
0.004408602
0.00438483
0.00436224
0.004340687
0.004320023
0.004300105
0.004280793
0.004261955
0.004243474
0.004225245
0.004207185
0.004189226
0.004171326
0.004153461
0.004135624
0.004117831
0.004100111
0.004082503
0.004065053
0.004047819
0.004030876
0.004014333
0.003998301
0.003982888
0.003968187
0.003954285
0.003941284
0.003929266
0.003918225
0.003908155
0.003899092
0.003891109
0.003884258
0.003878549
0.003873966
0.003870488
0.003868079
0.003866695
0.003866285
0.003866796
0.003868169
0.003870346
0.003873264
0.003876858
0.003881066
0.00388582
0.003891058
0.003896716
0.003902734
0.003909053
0.003915616
0.003922373
0.003929272
0.003936268
0.003943319
0.003950383
0.003957426
0.003964414
0.003971318
0.003978112
0.003984773
0.003991282
0.003997622
0.004003777
0.004009737
0.004015491
0.004021031
0.004026353
0.004031453
0.004036329
0.004040983
0.004045414
0.004049628
0.004053628
0.004057419
0.004061009
0.004064405
0.004067614
0.004070646
0.004073509
0.004076214
0.00407877
0.004081189
0.004083479
0.004085654
0.004087722
0.004089696
0.004091586
0.004093403
0.004095157
0.004096856
0.00409851
0.004100126
0.004101711
0.004103273
0.004104815
0.004106347
0.004107872
0.004109403
0.004110943
0.00411251
0.004114112
0.004115773
0.004117511
0.00411936
0.004121371
0.004123599
0.004126206
0.004129274
0.004133221
0.004138069
0.004144505
1.990996e-05
3.194029e-05
4.767355e-05
0.0002050846
0.0003343082
0.0005600339
0.0007854209
0.0009933602
0.001255784
0.001514595
0.001797268
0.002164904
0.002604656
0.003107838
0.003683707
0.004432461
0.005849023
0.006432913
0.007005103
0.00752756
0.007991387
0.008397622
0.008764261
0.009105426
0.009427647
0.009734081
0.01
0.01
0.01
0.01
0.01
0.01
0.01
0.01
0.01
0.01
0.01
0.01
0.01
0.01
0.01
0.01
0.01
0.01
0.01
0.01
0.01
0.01
0.009884808
0.009552144
0.009209004
0.008892708
0.008645746
0.008443182
0.008272533
0.008134144
0.008029489
0.007957712
0.007916866
0.00790304
0.00791997
0.007959292
0.008017619
0.008100006
0.008206561
0.008333543
0.008481469
0.008653213
0.00884562
0.009074443
0.009331581
0.009622701
0.009954764
0.01
0.01
0.01
0.01
0.01
0.01
0.01
0.01
0.01000001
0.01000001
0.01000001
0.01000001
0.01000001
0.01000001
0.01000001
0.01000001
0.01000001
0.01000001
0.01000001
0.01000001
0.01000001
0.01000001
0.01000001
0.01000001
0.01000001
0.01000002
0.01000002
0.01000002
0.01000001
0.01000001
0.01000001
0.01000002
0.01000003
0.01000002
0.01000002
0.01000002
0.01000001
0.01000002
0.01000002
0.01000002
0.01000003
0.01000002
0.01000002
0.01000001
0.01000001
0.01000001
0.01000001
0.01000002
0.01000002
0.01000001
0.01000001
0.01
0.01
0.01
0.01000001
0.01000003
0.01000003
0.01000003
0.01000002
0.01000001
0.01000001
0.01000002
0.01000004
0.01000006
0.01000006
0.01000004
0.01000002
0.01000001
0.01000002
0.01000003
0.01000003
0.01000003
0.01000002
0.01000002
0.01000001
0.009868
0.009648981
0.009423895
0.009201509
0.008990779
0.008799792
0.008636233
0.008506652
0.008416093
0.008368332
0.008366551
0.008413964
0.008513599
0.008677782
0.008919917
0.009246216
0.009656881
0.01
0.01
0.01
0.01000002
0.01000013
0.01000052
0.01000117
0.01000163
0.01000144
0.01000098
0.01000081
0.01000076
0.01000059
0.01000031
0.01000035
0.01000168
0.01001252
0.01003494
0.01002415
0.01000908
0.01000257
0.01000509
0.01001971
0.01002312
0.01001365
0.01000553
0.01000249
0.01000109
0.01000046
0.01000018
0.01000013
0.01000017
0.01000025
0.01000039
0.00961241
0.008953627
0.008328685
0.007748365
0.007222288
0.006755684
0.006350598
0.006007835
0.005726241
0.005503139
0.005334879
0.005215238
0.005137257
0.005094192
0.00507624
0.005073137
0.0050749
0.00506386
0.005017349
0.004916481
0.004743545
0.004491837
0.004179143
0.003845403
0.003541564
0.0033069
0.003159213
0.00293704
0.002556943
0.002374806
0.002346277
0.002417123
0.002558443
0.002741184
0.002946741
0.003164179
0.003377663
0.003578489
0.003764225
0.003934692
0.004088844
0.00422743
0.004358782
0.004490349
0.004622947
0.004749713
0.004876296
0.004998309
0.005115486
0.005229312
0.005338569
0.005444567
0.005550672
0.005650768
0.005743876
0.00583278
0.005915154
0.005989762
0.006055895
0.006113212
0.006161846
0.00620228
0.006235927
0.006262608
0.006286101
0.006301811
0.00631933
0.006356254
0.006394035
0.006431238
0.006474802
0.006527628
0.006588554
0.006656124
0.006730466
0.006812338
0.006901246
0.006995998
0.00709614
0.007201553
0.007312162
0.007427387
0.007546578
0.007670314
0.007800949
0.00793706
0.008065025
0.008088721
0.008107696
0.00812204
0.008131507
0.008135971
0.008135872
0.008131698
0.008123989
0.008113328
0.008100245
0.008085168
0.008068434
0.008050339
0.008031126
0.008010993
0.007990057
0.007968262
0.007945394
0.007921129
0.00789517
0.007867231
0.007837068
0.007804494
0.007769386
0.0077317
0.007691466
0.007648789
0.007603851
0.007556884
0.007508185
0.007458054
0.007406873
0.007355005
0.007302802
0.007250587
0.007198643
0.0071472
0.007096433
0.007046461
0.00699736
0.006949131
0.006901728
0.00685511
0.006809196
0.006763869
0.00671902
0.006674497
0.006630181
0.006585887
0.00654143
0.006496656
0.006451448
0.006405699
0.006359321
0.00631226
0.006264488
0.006215998
0.006166817
0.006117012
0.0060667
0.006016035
0.005965208
0.005914439
0.005863962
0.005814021
0.00576486
0.005716711
0.005669791
0.00562429
0.005580367
0.005538148
0.005497718
0.005459127
0.005422385
0.005387467
0.005354314
0.005322839
0.005292925
0.005264437
0.005237223
0.005211118
0.005185951
0.005161552
0.005137753
0.005114394
0.005091329
0.005068431
0.005045591
0.005022725
0.004999775
0.004976704
0.004953504
0.004930189
0.004906797
0.004883382
0.004860016
0.004836786
0.004813811
0.004791222
0.004769155
0.004747745
0.004727123
0.004707411
0.004688693
0.004671039
0.004654533
0.004639262
0.004625298
0.004612695
0.004601481
0.004591665
0.004583247
0.004576212
0.004570534
0.004566174
0.004563086
0.004561216
0.004560504
0.004560882
0.00456228
0.004564625
0.004567841
0.004571851
0.004576579
0.004581951
0.004587891
0.004594329
0.004601195
0.004608425
0.004615957
0.004623731
0.004631693
0.004639792
0.00464798
0.004656215
0.004664455
0.004672666
0.004680815
0.004688874
0.004696816
0.00470462
0.004712265
0.004719736
0.004727017
0.004734099
0.004740972
0.004747629
0.004754067
0.004760283
0.004766276
0.004772048
0.004777601
0.004782939
0.004788066
0.004792989
0.004797714
0.00480225
0.004806603
0.004810785
0.004814803
0.004818669
0.004822394
0.004825988
0.004829463
0.00483283
0.0048361
0.004839282
0.004842387
0.004845422
0.004848394
0.00485131
0.004854173
0.004856989
0.00485976
0.004862491
0.004865185
0.00486785
0.004870492
0.004873122
0.004875758
0.004878421
0.004881166
0.004884023
0.004887142
0.004890526
0.004894534
0.004899031
0.004904878
1.829485e-05
2.80228e-05
5.405246e-05
0.0001616002
0.0002597457
0.0004096668
0.0005253624
0.0006573472
0.000812996
0.0009662927
0.001146633
0.001380721
0.00165106
0.001975522
0.002400668
0.003214967
0.003601338
0.004020408
0.004464709
0.004933048
0.005429831
0.005947292
0.006471912
0.006990407
0.007489253
0.007958673
0.008415842
0.008926884
0.009412679
0.009859735
0.01
0.01
0.01
0.01
0.01
0.01
0.01
0.01
0.01
0.01
0.01
0.01
0.01
0.01
0.01
0.01
0.01
0.01
0.01
0.01
0.01
0.01
0.01
0.01
0.01
0.009812509
0.009435175
0.009052084
0.008685385
0.008340009
0.008021286
0.00774366
0.007525301
0.007352422
0.00721653
0.007114163
0.007046816
0.007011552
0.007008747
0.007036802
0.007093627
0.007181197
0.007295536
0.00744064
0.007619763
0.007835033
0.008099145
0.008405965
0.008759642
0.009146833
0.009567354
0.01
0.01000001
0.01000001
0.01000001
0.01000001
0.01000001
0.01000001
0.01000001
0.01000001
0.01000001
0.01000002
0.01000002
0.01000002
0.01000002
0.01000002
0.01000002
0.01000003
0.01000003
0.01000003
0.01000002
0.01000003
0.01000003
0.01000004
0.01000004
0.01000003
0.01000002
0.01000002
0.01000004
0.01000006
0.01000006
0.01000005
0.01000003
0.01000002
0.01000003
0.01000006
0.01000008
0.01000007
0.01000005
0.01000004
0.01000005
0.01000006
0.01000005
0.01000005
0.01000006
0.01000006
0.01000005
0.01000003
0.01000002
0.01000001
0.01000002
0.01000004
0.01000005
0.01000003
0.01000002
0.01000001
0.01000001
0.01000001
0.01000005
0.01000009
0.01000006
0.01000003
0.01000003
0.01000005
0.0100001
0.01000018
0.01000023
0.01000016
0.01000008
0.01000004
0.01000002
0.01000003
0.01000005
0.01000007
0.01000007
0.01000006
0.01000006
0.01000004
0.01000003
0.01000001
0.01000001
0.01000001
0.01000003
0.009893747
0.009727574
0.009588564
0.009483728
0.009419227
0.009400967
0.009435252
0.009529039
0.009692507
0.009940402
0.01
0.01
0.01
0.01
0.01000001
0.01000004
0.01000025
0.01000134
0.01000376
0.01000464
0.01000293
0.0100018
0.01000216
0.01000283
0.01000281
0.01000201
0.01000117
0.01000226
0.0100246
0.01008173
0.01003398
0.01001167
0.01000405
0.01000941
0.01003268
0.01002038
0.01000857
0.01000373
0.01000172
0.01000082
0.01000044
0.01000036
0.01000051
0.01000135
0.01000367
0.01000407
0.01000228
0.01000101
0.01000045
0.00948489
0.008924283
0.008401197
0.007921374
0.007490939
0.007113975
0.006792738
0.006527767
0.006316647
0.006155328
0.006038897
0.00596009
0.005911121
0.005883961
0.005865929
0.005839688
0.005786333
0.005682887
0.005507136
0.005251582
0.004928953
0.004570351
0.004216906
0.003913961
0.003692387
0.003560841
0.003515288
0.003542396
0.003289175
0.003147148
0.003089378
0.00309754
0.003154732
0.003243277
0.003350048
0.00346627
0.003588202
0.003713481
0.003839646
0.003966133
0.004092309
0.004218949
0.004346363
0.004474848
0.004602436
0.004727432
0.004849137
0.004965798
0.005076759
0.00517947
0.005275648
0.005364186
0.005445452
0.00551851
0.005583242
0.005639911
0.005688958
0.005730998
0.00576683
0.00579759
0.005824629
0.005849701
0.005875293
0.005903287
0.005936523
0.005973304
0.006013672
0.006060599
0.006115961
0.006178798
0.006247862
0.006323786
0.006407962
0.006500655
0.006601195
0.006707777
0.006820614
0.006940039
0.00706567
0.007197088
0.007334703
0.007479722
0.007632134
0.007790114
0.007953922
0.008129036
0.008316551
0.008473108
0.008501778