/*--------------------------------*- C++ -*----------------------------------*\
| =========                 |                                                 |
| \\      /  F ield         | foam-extend: Open Source CFD                    |
|  \\    /   O peration     | Version:     3.1                                |
|   \\  /    A nd           | Web:         http://www.extend-project.de       |
|    \\/     M anipulation  |                                                 |
\*---------------------------------------------------------------------------*/
FoamFile
{
    version     2.0;
    format      ascii;
    class       volScalarField;
    location    "9.5";
    object      pd;
}
// * * * * * * * * * * * * * * * * * * * * * * * * * * * * * * * * * * * * * //

dimensions      [1 -1 -2 0 0 0 0];

internalField   nonuniform List<scalar> 
119952
(
7130.25
6133.752
6001.038
6163.185
6332.762
6251.4
6244.712
6267.589
6291.227
6324.476
6357.255
6391.118
6426.382
6465.071
6508.106
6554.934
6601.699
6644.466
6678.821
6686.757
6860.802
6806.317
6816.132
7026.455
7015.051
7061.226
7092.406
7160.712
7383.203
8607.902
4853.563
4816.23
4825.514
4829.434
4835.668
4842.348
4848.989
4857.673
4869.718
4863.632
4872.548
4900.413
4919.351
4944.094
4974.035
5009.727
5050.514
5096.293
5145.679
5242.583
5278.498
5318.376
5373.449
5427.83
5481.577
5533.491
5583.06
5629.038
5675.712
5705.747
5739.875
5774.281
5804.429
5832.084
5858.967
5886.357
5920.651
5991.576
6136.715
6055.303
6059.896
6145.626
6201.56
6222.056
6232.151
6256.259
6288.192
6323.06
6360.61
6399.968
6440.89
6483.776
6528.787
6574.799
6619.743
6661.884
6701.108
6739.575
6786.759
6829.876
6864.56
6930.89
7011.516
7041.764
7066.11
7082.679
7050.112
6898.176
6848.935
6835.344
6799.884
6749.805
6682.587
6600.153
6503.744
6395.171
6276.432
6150.282
6019.478
5886.356
5754.018
5626.129
5505.427
5395.836
5303.353
5232.005
5184.685
5161.198
5161.769
5186.554
5234.963
5305.766
5396.92
5505.848
5631.161
5768.951
5903.085
5992.816
6000.319
6005.42
6110.503
6222.633
6331.191
6436.515
6533.999
6623.106
6707.771
6790.476
6872.81
6955.248
7037.906
7120.846
7203.749
7286.302
7367.232
7439.847
7489.512
7546.104
7602.443
7627.133
7658.929
7696.767
7716.567
7724.303
7728.974
7735.164
7731.994
7715.296
7685.903
7644.164
7592.581
7535.485
7477.65
7424.125
7379.283
7346.055
7325.932
7319.041
7324.373
7340.168
7364.327
7394.532
7428.821
7465.521
7503.262
7540.993
7577.948
7613.603
7647.657
7679.987
7710.603
7739.615
7767.2
7793.593
7819.06
7843.871
7868.287
7892.54
7916.83
7941.306
7966.063
7991.149
8016.56
8042.24
8068.099
8094.079
8120.183
8144.607
8167.777
8192.416
8215.822
8238.241
8259.562
8279.693
8298.552
8316.085
8332.265
8347.087
8360.572
8372.811
8383.816
8393.605
8402.281
8409.945
8416.686
8422.601
8427.674
8432.123
8436.035
8439.484
8442.546
8445.293
8447.784
8450.071
8452.168
8454.115
8455.92
8457.575
8459.045
8460.231
8460.889
8460.278
8458.297
8465.776
8471.803
8477.204
8482.274
8487.171
8491.94
8496.612
8501.207
8505.725
8510.163
8514.516
8518.781
8522.953
8527.029
8531.008
8534.889
8538.673
8542.363
8545.962
8549.472
8552.899
8556.244
8559.513
8562.705
8565.826
8568.877
8571.856
8574.765
8577.606
8580.38
8583.09
8585.755
8588.294
8590.63
8604.843
8601.335
8596.858
8599.093
8600.763
8601.862
8603.208
8604.559
8605.773
8606.873
8607.843
8608.691
8609.417
8610.015
8610.48
8610.808
8611.003
8611.065
8611.003
8610.82
8610.52
8610.109
8609.595
8608.987
8608.291
8607.516
8606.67
8605.762
8604.799
8603.789
8602.74
8601.657
8600.546
8599.414
8598.267
8597.109
8595.944
8594.779
8593.621
8592.476
8591.354
8590.271
8589.255
8588.337
8587.483
8586.362
8584.559
8582.421
8580.47
8578.655
8576.899
8575.215
8573.457
8570.639
8564.836
8565.947
8565.024
8563.162
8561.456
8559.728
8558.006
8556.316
8554.662
8553.044
8551.456
8549.887
8548.34
8546.816
8545.309
8543.817
8542.336
8540.863
8539.398
8537.938
8536.48
8535.023
8533.565
8532.104
8530.637
8529.163
8527.679
8526.184
8524.677
8523.154
8521.613
8520.053
8518.473
8516.87
8515.243
8513.591
8511.912
8510.205
8508.468
8506.702
8504.903
8503.074
8501.212
8499.317
8497.388
8495.426
8493.43
8491.399
8489.335
8487.236
8485.103
8482.936
8480.734
8478.499
8476.229
8473.926
8471.587
8469.215
8466.808
8464.364
8461.884
8459.366
8456.807
8454.206
8451.559
8448.863
8446.112
8443.3
8440.417
8437.455
8434.399
8431.232
8427.934
8424.479
8420.829
8416.914
8412.672
8408.017
8402.778
8396.68
8389.294
8380.269
8371.487
8375.677
8417.066
7564.685
7477.053
7369.469
7253.332
7130.293
7002.446
6871.736
6739.539
6606.509
6464.766
6339.218
6215.407
6094.364
5979.491
5870.011
5766.286
5668.154
5574.545
5474.044
5406.027
5325.904
5252.407
5187.842
5128.892
5075.849
5028.595
4986.903
4951.619
4922.732
4887.196
4865.037
4847.635
4834.161
4824.778
4818.64
4815.538
4816.823
4825.173
4815.196
4815.067
4822.035
4828.649
4835.839
4843.549
4851.699
4861.35
4872.736
4881.922
4899.838
4921.773
4946.546
4976.729
5012.725
5054.578
5101.229
5153.258
5226.319
5286.62
5338.76
5392.731
5449.289
5504.979
5557.929
5607.06
5651.949
5692.252
5729.357
5762.091
5790.081
5814.906
5838.605
5863.145
5891.498
5926.522
5968.703
6009.243
6034.805
6055.08
6088.396
6128.753
6164.573
6195.4
6227.981
6265.56
6307.771
6353.255
6400.865
6450.066
6500.475
6551.501
6602.154
6651.305
6698.279
6743.279
6787.332
6831.164
6874.672
6918.196
6962.441
7003.374
7032.052
7042.572
7032.373
6996.582
6940.236
6883.712
6836.004
6785.239
6721.459
6641.81
6547.58
6440.436
6322.015
6194.275
6060.573
5924.088
5787.824
5655.491
5529.357
5411.485
5305.791
5218.574
5155.753
5118.742
5105.447
5115.009
5147.756
5203.712
5281.232
5377.081
5486.152
5603.417
5723.648
5832.548
5921.061
5983.575
6056.297
6155.678
6258.392
6360.018
6460.916
6559.017
6650.952
6738.367
6823.145
6906.344
6988.424
7068.51
7147.871
7225.181
7299.394
7371.535
7433.911
7487.521
7540.535
7588.985
7626.55
7656.924
7693.48
7716.875
7741.119
7770.497
7767.848
7744.55
7719.594
7685.648
7636.672
7579.235
7516.494
7454.209
7398.859
7354.331
7323.281
7306.851
7304.54
7314.693
7335.085
7363.276
7396.685
7433.511
7472.113
7511.175
7549.745
7587.143
7622.895
7656.778
7688.746
7718.852
7747.247
7774.139
7799.788
7824.499
7848.565
7872.257
7895.819
7919.457
7943.326
7967.527
7992.106
8017.045
8042.276
8067.63
8092.925
8116.974
8140.728
8161.046
8185.912
8209.307
8231.72
8253.03
8273.159
8292.042
8309.628
8325.892
8340.835
8354.478
8366.861
8378.019
8388.002
8396.884
8404.75
8411.681
8417.758
8423.063
8427.715
8431.806
8435.416
8438.622
8441.497
8444.105
8446.495
8448.704
8450.759
8452.673
8454.449
8456.07
8457.501
8458.721
8459.909
8461.915
8466.114
8471.221
8476.175
8481.097
8485.935
8490.706
8495.415
8500.061
8504.641
8509.147
8513.573
8517.913
8522.16
8526.311
8530.363
8534.314
8538.165
8541.917
8545.574
8549.138
8552.613
8556.002
8559.311
8562.54
8565.693
8568.77
8571.774
8574.704
8577.563
8580.349
8583.07
8585.727
8588.412
8591.992
8595.018
8598.287
8599.461
8599.798
8600.602
8601.952
8603.453
8604.836
8606.044
8607.117
8608.085
8608.939
8609.66
8610.243
8610.697
8610.997
8611.172
8611.213
8611.127
8610.919
8610.593
8610.157
8609.619
8608.985
8608.264
8607.464
8606.594
8605.662
8604.678
8603.646
8602.576
8601.474
8600.345
8599.196
8598.031
8596.857
8595.677
8594.497
8593.321
8592.156
8591.006
8589.872
8588.751
8587.615
8586.397
8585.014
8583.396
8581.597
8579.768
8577.977
8576.219
8574.45
8572.612
8570.463
8567.663
8565.4
8564.065
8562.73
8561.148
8559.458
8557.739
8556.03
8554.358
8552.723
8551.114
8549.524
8547.956
8546.409
8544.881
8543.369
8541.869
8540.38
8538.9
8537.426
8535.956
8534.487
8533.019
8531.547
8530.071
8528.588
8527.096
8525.594
8524.078
8522.547
8520.998
8519.432
8517.844
8516.234
8514.6
8512.941
8511.255
8509.541
8507.798
8506.024
8504.22
8502.384
8500.515
8498.614
8496.679
8494.711
8492.709
8490.672
8488.602
8486.498
8484.359
8482.187
8479.98
8477.74
8475.466
8473.158
8470.816
8468.439
8466.028
8463.582
8461.098
8458.578
8456.018
8453.416
8450.77
8448.074
8445.326
8442.518
8439.644
8436.691
8433.653
8430.508
8427.246
8423.834
8420.254
8416.449
8412.399
8408.026
8403.348
8398.38
8393.562
8389.676
8388.242
8389.849
8395.113
4279.949
4281.743
4299.664
4329.475
4370.962
4422.658
4486.774
4562.533
4649.554
4750.049
4859.255
4981.619
5112.598
5252.619
5400.714
5555.324
5715.331
5879.58
6045.88
6235.82
6406.112
6574.633
6740.086
6899.019
7050.524
7192.445
7322.021
7436.522
7539.818
7619.347
7679.79
7721.057
7742.607
7744.327
7726.456
7689.756
7635.516
7565.166
7472.953
7378.816
7271.104
7154.948
7032.422
6905.768
6776.846
6647.406
6519.374
6393.408
6268.678
6149.151
6032.483
5920.769
5814.372
5713.682
5619.724
5536.711
5414.28
5338.009
5271.494
5206.862
5145.452
5089.395
5039.313
4994.89
4955.791
4921.404
4891.586
4867.15
4847.109
4830.976
4819.069
4811.339
4807.281
4806.286
4807.511
4810.092
4813.956
4818.359
4823.163
4828.572
4834.505
4840.733
4847.307
4854.534
4863.133
4874.669
4889.494
4908.6
4933.371
4964.76
5002.494
5046.615
5095.929
5153.573
5216.792
5276.884
5335.442
5395.778
5457.217
5516.892
5572.767
5623.85
5669.788
5710.331
5745.207
5774.273
5798.333
5818.783
5837.305
5855.906
5876.304
5899.731
5926.666
5957.692
5985.311
6007.885
6036.214
6072.891
6111.46
6149.349
6188.617
6232.417
6281.196
6333.753
6388.789
6445.388
6502.784
6560.21
6616.804
6671.653
6724.1
6773.918
6821.199
6866.218
6909.143
6949.392
6985.935
7017.486
7038.412
7043.772
7032.99
7006.082
6962.015
6907.375
6851.346
6790.545
6717.041
6628.221
6524.973
6409.127
6282.705
6148.14
6008.75
5867.554
5727.945
5593.775
5466.258
5344.024
5229.059
5132.964
5068.854
5037.011
5030.018
5043.854
5077.791
5133.527
5208.733
5302.973
5420.281
5545.417
5666.07
5777.898
5879.52
5965.227
6049.609
6147.483
6251.257
6355.299
6457.755
6557.06
6651.406
6741.369
6827.99
6911.364
6992.322
7070.363
7145.795
7219.498
7288.93
7355.13
7417.936
7470.416
7517.222
7564.124
7604.054
7636.002
7670.893
7708.931
7735.536
7739.023
7742.892
7756.63
7747.57
7695.359
7632.577
7568.373
7499.158
7431.228
7372.738
7327.196
7296.948
7282.852
7283.95
7298.022
7322.383
7354.53
7390.861
7430.333
7471.112
7511.846
7551.674
7589.913
7626.094
7660.131
7692.057
7721.934
7749.955
7776.332
7801.345
7825.382
7848.756
7871.749
7894.626
7917.61
7940.872
7964.524
7988.619
8013.146
8038.041
8063.174
8088.514
8113.94
8140.31
8164.635
8188.172
8211.168
8233.3
8254.339
8274.187
8292.783
8310.076
8326.054
8340.748
8354.167
8366.308
8377.217
8386.969
8395.64
8403.31
8410.061
8415.983
8421.178
8425.748
8429.753
8433.269
8436.398
8439.228
8441.816
8444.205
8446.428
8448.517
8450.5
8452.404
8454.254
8456.101
8458.055
8460.335
8463.261
8467.041
8471.447
8476.098
8480.81
8485.532
8490.249
8494.946
8499.607
8504.217
8508.763
8513.236
8517.625
8521.923
8526.124
8530.225
8534.223
8538.118
8541.912
8545.608
8549.209
8552.718
8556.14
8559.477
8562.732
8565.907
8569.004
8572.023
8574.966
8577.828
8580.616
8583.309
8585.929
8588.417
8590.921
8593.014
8594.371
8595.8
8597.551
8599.448
8601.295
8602.993
8604.506
8605.84
8607.019
8608.063
8608.971
8609.736
8610.355
8610.83
8611.16
8611.355
8611.413
8611.339
8611.138
8610.816
8610.381
8609.841
8609.203
8608.475
8607.667
8606.787
8605.843
8604.845
8603.798
8602.712
8601.592
8600.446
8599.278
8598.095
8596.901
8595.701
8594.498
8593.296
8592.097
8590.903
8589.707
8588.497
8587.25
8585.934
8584.523
8582.977
8581.295
8579.535
8577.772
8576.017
8574.269
8572.519
8570.884
8569.443
8567.836
8565.928
8563.829
8561.779
8559.853
8558.018
8556.238
8554.508
8552.825
8551.179
8549.561
8547.968
8546.398
8544.848
8543.316
8541.798
8540.293
8538.798
8537.31
8535.828
8534.348
8532.869
8531.389
8529.905
8528.414
8526.916
8525.408
8523.887
8522.352
8520.8
8519.229
8517.639
8516.027
8514.391
8512.731
8511.044
8509.329
8507.585
8505.812
8504.008
8502.172
8500.304
8498.404
8496.471
8494.504
8492.503
8490.469
8488.401
8486.299
8484.163
8481.993
8479.79
8477.553
8475.283
8472.979
8470.642
8468.27
8465.865
8463.426
8460.95
8458.439
8455.89
8453.3
8450.669
8447.992
8445.266
8442.485
8439.644
8436.735
8433.748
8430.673
8427.497
8424.203
8420.776
8417.197
8413.459
8409.575
8405.615
8401.735
8398.21
8395.414
8393.715
8393.694
8395.566
4548.058
4504.945
4467.321
4429.694
4395.996
4367.707
4350.096
4346.07
4354.511
4340.604
4308.193
4284.546
4276.744
4281.897
4299.207
4328.053
4367.989
4418.79
4480.643
4553.981
4638.528
4734.113
4840.287
4957.16
5084.197
5220.866
5365.141
5516.304
5673.164
5833.517
5998.811
6203.323
6374.885
6542.291
6704.314
6859.779
7007.568
7146.087
7272.945
7386.656
7484.539
7561.805
7619.186
7657.146
7675.128
7672.969
7651.121
7610.601
7552.731
7479.401
7392.551
7294.012
7185.126
7068.005
6944.941
6818.13
6689.512
6560.837
6433.599
6308.727
6187.048
6069.779
5957.081
5848.945
5745.896
5648.304
5556.091
5468.416
5383.224
5307.34
5240.549
5177.285
5117.516
5062.875
5013.975
4970.611
4932.362
4899.178
4871.073
4847.491
4828.374
4813.907
4803.896
4797.979
4795.584
4796.078
4798.894
4803.53
4808.698
4813.659
4818.993
4824.681
4830.122
4834.949
4839.204
4843.524
4848.949
4856.578
4867.91
4884.593
4907.87
4938.524
4977.087
5023.303
5077.486
5135.732
5199.379
5265.773
5333.144
5400.915
5468.146
5533.046
5593.415
5648.082
5695.876
5736.447
5769.42
5795.027
5814.05
5827.833
5838.167
5847.13
5856.674
5868.663
5884.414
5904.435
5926.06
5948.352
5975.308
6009.389
6048.778
6091.347
6137.325
6188.104
6243.951
6303.903
6366.782
6431.511
6496.904
6561.941
6625.731
6687.408
6746.269
6801.823
6853.819
6902.139
6946.518
6986.307
7020.277
7046.885
7063.208
7066.78
7056.302
7031.288
6991.389
6939.298
6879.012
6809.253
6725.54
6625.905
6510.855
6383.137
6245.697
6100.608
5951.104
5801.873
5657.513
5520.747
5390.585
5260.91
5120.939
4989.35
4919.977
4914.377
4926.789
4944.268
4971.116
5000.681
5065.125
5193.819
5343.941
5481.075
5609.572
5729.28
5838.753
5937.176
6033.566
6135.571
6239.981
6343.15
6444.242
6543.172
6638.583
6730.182
6818.296
6902.782
6984.172
7061.839
7135.659
7206.459
7272.522
7334.87
7393.799
7443.851
7488.869
7534.362
7573.743
7606.792
7643.219
7675.46
7692.571
7705.073
7723.745
7724.871
7697.166
7661.942
7619.745
7556.372
7477.488
7399.82
7334.585
7287.471
7259.868
7250.716
7257.803
7277.979
7307.936
7344.377
7386.21
7429.183
7472.602
7515.279
7556.527
7595.703
7632.323
7666.527
7698.37
7727.942
7755.559
7781.361
7805.552
7828.79
7851.402
7873.632
7895.775
7918.074
7940.72
7963.837
7987.49
8011.677
8036.342
8061.381
8086.697
8112.088
8137.301
8161.485
8185.149
8208.254
8230.47
8251.584
8271.498
8290.144
8307.468
8323.448
8338.096
8351.436
8363.518
8374.393
8384.121
8392.769
8400.413
8407.134
8413.023
8418.202
8422.813
8426.876
8430.415
8433.569
8436.445
8439.079
8441.502
8443.763
8445.906
8447.976
8450.014
8452.068
8454.199
8456.505
8459.126
8462.215
8465.89
8470.075
8474.544
8479.138
8483.795
8488.488
8493.191
8497.882
8502.539
8507.144
8511.684
8516.147
8520.521
8524.8
8528.979
8533.052
8537.021
8540.887
8544.652
8548.318
8551.888
8555.368
8558.76
8562.066
8565.289
8568.431
8571.49
8574.467
8577.359
8580.167
8582.878
8585.497
8587.989
8590.334
8592.485
8594.563
8596.584
8598.466
8600.193
8601.813
8603.348
8604.779
8606.083
8607.252
8608.29
8609.195
8609.962
8610.587
8611.069
8611.409
8611.608
8611.67
8611.598
8611.397
8611.075
8610.636
8610.091
8609.446
8608.711
8607.892
8607
8606.043
8605.028
8603.965
8602.86
8601.721
8600.555
8599.366
8598.161
8596.944
8595.718
8594.488
8593.254
8592.017
8590.772
8589.523
8588.252
8586.934
8585.568
8584.135
8582.607
8580.979
8579.281
8577.56
8575.838
8574.126
8572.428
8570.737
8568.963
8567.043
8565.091
8563.204
8561.39
8559.628
8557.896
8556.183
8554.49
8552.825
8551.187
8549.571
8547.978
8546.405
8544.852
8543.315
8541.792
8540.281
8538.779
8537.285
8535.797
8534.312
8532.828
8531.342
8529.853
8528.359
8526.857
8525.345
8523.821
8522.283
8520.729
8519.156
8517.564
8515.95
8514.313
8512.651
8510.963
8509.248
8507.504
8505.73
8503.925
8502.09
8500.222
8498.321
8496.388
8494.422
8492.421
8490.388
8488.32
8486.219
8484.085
8481.917
8479.716
8477.481
8475.214
8472.913
8470.58
8468.214
8465.815
8463.383
8460.917
8458.416
8455.88
8453.307
8450.695
8448.042
8445.345
8442.599
8439.802
8436.948
8434.029
8431.041
8427.975
8424.826
8421.589
8418.265
8414.874
8411.451
8408.082
8404.879
8402.033
8399.696
8398.16
8397.56
8398.07
5052.417
5011.939
4971.479
4929.066
4882.948
4834.262
4787.24
4739.777
4692.259
4644.904
4598.122
4554.108
4510.455
4468.803
4430.874
4395.567
4361.531
4338.088
4320.845
4305.838
4288.551
4272.25
4261.891
4260.46
4269.055
4288.04
4317.792
4358.464
4410.062
4471.759
4544.787
4629.83
4726.202
4833.729
4951.913
5080.008
5217.365
5363.213
5516.104
5674.373
5836.538
6001.721
6160.591
6326.852
6491.453
6652.02
6806.337
6952.921
7090.202
7216.427
7329.7
7426.861
7504.674
7562.706
7600.64
7618.143
7615.254
7592.514
7550.99
7492.127
7417.573
7329.291
7229.598
7120.35
7003.329
6880.608
6754.328
6626.419
6498.631
6372.067
6247.62
6127.082
6011.213
5899.761
5793.363
5692.509
5597.263
5507.137
5422.273
5342.899
5270.471
5204.513
5143.069
5085.634
5032.863
4985.259
4942.874
4905.578
4873.367
4846.172
4823.835
4806.444
4793.986
4786.122
4782.384
4782.21
4785.029
4790.167
4796.828
4803.955
4810.77
4817.322
4823.397
4828.094
4830.721
4831.399
4831.024
4830.926
4832.784
4838.597
4850.333
4869.736
4898.013
4935.974
4983.405
5039.696
5103.059
5172.991
5247.723
5324.762
5402.129
5478.387
5551.55
5619.362
5679.833
5731.824
5773.336
5804.912
5826.507
5838.718
5843.071
5841.874
5837.785
5833.616
5832.003
5834.742
5842.844
5856.288
5874.935
5899.957
5932.785
5973.157
6019.864
6072.44
6130.906
6194.933
6263.531
6335.39
6409.263
6483.931
6558.2
6630.94
6701.193
6768.168
6831.149
6889.544
6942.922
6990.755
7032.271
7066.352
7091.645
7106.408
7109.175
7098.609
7073.867
7035.047
6982.725
6917.793
6839.366
6744.325
6629.577
6495.536
6349.844
6199.005
6041.378
5877.451
5715.813
5564.782
5426.688
5295.291
5158.491
4956.717
4707.471
4704.466
4771.234
4806.342
4796.429
4731.958
4784.252
4947.411
5122.863
5274.214
5417.925
5554.585
5682.174
5799.104
5907.13
6011.199
6115.053
6218.427
6321.879
6425.359
6526.029
6622.915
6715.938
6805.273
6890.584
6971.856
7048.636
7120.685
7188.628
7251.753
7310.208
7364.639
7412.947
7456.623
7498.992
7537.125
7570.479
7602.312
7629.041
7649.618
7669.259
7680.818
7674.365
7656.415
7631.192
7585.944
7519.758
7445.615
7374.872
7314.095
7268.83
7241.928
7234.057
7243.47
7266.845
7300.503
7340.961
7385.31
7431.654
7477.581
7522.144
7564.566
7604.412
7641.401
7675.63
7707.208
7736.327
7763.225
7788.364
7811.95
7834.421
7856.253
7877.686
7899.054
7920.629
7942.619
7965.166
7988.344
8012.161
8036.556
8061.409
8086.537
8111.698
8136.693
8161.231
8185.191
8208.432
8230.75
8251.971
8271.985
8290.71
8308.086
8324.076
8338.657
8351.872
8363.821
8374.569
8384.158
8392.656
8400.137
8406.682
8412.381
8417.339
8421.659
8425.432
8428.762
8431.791
8434.665
8437.367
8439.821
8442.08
8444.232
8446.339
8448.463
8450.657
8452.97
8455.485
8458.3
8461.502
8465.146
8469.197
8473.529
8478.03
8482.635
8487.304
8492.006
8496.713
8501.4
8506.047
8510.634
8515.147
8519.575
8523.907
8528.139
8532.264
8536.282
8540.197
8544.01
8547.723
8551.34
8554.864
8558.299
8561.647
8564.91
8568.088
8571.182
8574.191
8577.111
8579.941
8582.673
8585.302
8587.812
8590.2
8592.487
8594.664
8596.682
8598.519
8600.236
8601.878
8603.446
8604.913
8606.253
8607.455
8608.519
8609.445
8610.229
8610.868
8611.362
8611.711
8611.916
8611.982
8611.913
8611.713
8611.389
8610.947
8610.395
8609.743
8608.998
8608.168
8607.261
8606.288
8605.255
8604.172
8603.046
8601.885
8600.694
8599.481
8598.249
8597.004
8595.748
8594.485
8593.216
8591.939
8590.652
8589.355
8588.032
8586.669
8585.266
8583.808
8582.28
8580.682
8579.028
8577.346
8575.653
8573.955
8572.246
8570.501
8568.709
8566.898
8565.097
8563.307
8561.526
8559.76
8558.014
8556.291
8554.591
8552.919
8551.273
8549.652
8548.053
8546.474
8544.914
8543.37
8541.84
8540.322
8538.814
8537.315
8535.821
8534.331
8532.842
8531.353
8529.86
8528.362
8526.857
8525.342
8523.816
8522.275
8520.719
8519.145
8517.551
8515.936
8514.297
8512.634
8510.945
8509.228
8507.483
8505.708
8503.903
8502.066
8500.198
8498.297
8496.363
8494.396
8492.396
8490.362
8488.295
8486.194
8484.06
8481.893
8479.693
8477.461
8475.197
8472.9
8470.571
8468.211
8465.819
8463.395
8460.939
8458.451
8455.931
8453.376
8450.787
8448.162
8445.499
8442.796
8440.05
8437.259
8434.419
8431.529
8428.586
8425.592
8422.552
8419.48
8416.401
8413.361
8410.427
8407.692
8405.275
8403.298
8401.918
8401.201
8401.203
5434.234
5393.007
5354.548
5315.274
5279.794
5240.72
5205.48
5169.3
5131.969
5093.843
5055.043
5015.4
4974.349
4931.981
4886.349
4833.566
4786.437
4739.441
4692.139
4644.847
4597.84
4551.896
4507.272
4464.206
4423.393
4386.567
4354.458
4326.128
4301.67
4280.013
4260.877
4246.242
4238
4237.645
4246.183
4264.151
4291.919
4330.09
4379.198
4439.917
4511.773
4594.956
4689.55
4795.427
4912.131
5038.963
5175.047
5319.429
5470.827
5627.878
5789.263
5952.747
6115.222
6279.62
6441.845
6599.97
6752.668
6898.047
7033.675
7157.888
7268.998
7364.031
7440.082
7495.848
7530.872
7545.14
7538.948
7513.009
7468.48
7406.878
7330.016
7239.897
7138.748
7028.629
6911.494
6789.414
6664.262
6537.883
6412.302
6288.578
6167.434
6049.743
5935.798
5826.473
5723.055
5625.788
5534.383
5448.443
5368.065
5293.178
5223.677
5159.396
5099.793
5044.459
4993.542
4947.385
4906.158
4869.902
4838.735
4812.835
4792.339
4777.258
4767.367
4762.289
4761.585
4764.687
4770.961
4779.512
4788.99
4798.716
4808.502
4817.26
4824.003
4827.815
4827.551
4823.024
4815.573
4807.447
4800.935
4798.386
4802.366
4815.751
4840.438
4877.455
4926.439
4986.886
5057.401
5136.485
5222.051
5311.355
5401.586
5490.197
5574.983
5653.266
5722.559
5781.376
5824.446
5854.624
5870.97
5873.887
5865.797
5849.282
5827.814
5805.649
5786.454
5772.879
5767.392
5771.649
5784.886
5807.12
5839.324
5881.739
5933.375
5993.018
6059.818
6132.914
6211.207
6293.305
6377.806
6463.374
6548.618
6632.102
6712.619
6789.455
6861.536
6928.049
6988.326
7041.685
7087.295
7124.12
7150.931
7166.43
7169.383
7158.799
7133.912
7093.958
7038.528
6967.248
6878.804
6770.036
6633.19
6464.739
6295.81
6139.196
5967.658
5779.895
5597.67
5438.163
5303.813
5181.381
5044.949
4744.979
4318.641
4494.681
4608.819
4647.228
4607.101
4481.099
4656.437
4861.88
5032.007
5192.543
5349.222
5498.89
5636.561
5759.98
5868.291
5957.178
6060.505
6182.422
6298.414
6405.888
6508.717
6607.47
6701.867
6791.927
6877.328
6957.915
7033.437
7103.574
7168.699
7228.574
7283.217
7333.653
7379.413
7420.83
7459.972
7495.97
7527.62
7556.473
7582.759
7605.007
7621.333
7628.648
7626.996
7617.717
7594.131
7551.602
7496.85
7436.44
7375.135
7319.227
7275.413
7249.175
7242.576
7253.261
7277.546
7312.097
7353.508
7398.681
7445.137
7491.133
7535.634
7577.926
7617.45
7654.039
7687.734
7718.674
7747.06
7773.137
7797.493
7820.424
7842.077
7863.009
7883.59
7904.144
7924.953
7946.238
7968.154
7990.783
8014.134
8038.143
8062.679
8087.559
8112.562
8137.502
8162.103
8186.102
8209.334
8231.638
8252.856
8272.874
8291.605
8308.974
8324.946
8339.523
8352.744
8364.68
8375.388
8384.921
8393.348
8400.745
8407.193
8412.771
8417.551
8421.589
8425.058
8428.144
8430.916
8433.493
8436.032
8438.469
8440.707
8442.841
8444.965
8447.146
8449.431
8451.853
8454.503
8457.452
8460.736
8464.382
8468.368
8472.623
8477.067
8481.638
8486.293
8490.993
8495.712
8500.428
8505.112
8509.742
8514.3
8518.773
8523.152
8527.43
8531.601
8535.665
8539.622
8543.478
8547.234
8550.897
8554.466
8557.945
8561.337
8564.643
8567.863
8570.996
8574.041
8576.995
8579.855
8582.615
8585.27
8587.815
8590.246
8592.562
8594.741
8596.768
8598.657
8600.444
8602.146
8603.751
8605.239
8606.596
8607.815
8608.892
8609.827
8610.617
8611.261
8611.758
8612.108
8612.315
8612.381
8612.309
8612.106
8611.777
8611.328
8610.769
8610.105
8609.346
8608.5
8607.577
8606.585
8605.534
8604.429
8603.279
8602.092
8600.875
8599.632
8598.37
8597.093
8595.804
8594.506
8593.198
8591.881
8590.553
8589.208
8587.84
8586.442
8585.007
8583.527
8581.995
8580.411
8578.784
8577.127
8575.452
8573.761
8572.052
8570.32
8568.575
8566.823
8565.064
8563.299
8561.533
8559.779
8558.046
8556.336
8554.648
8552.985
8551.344
8549.726
8548.129
8546.55
8544.989
8543.443
8541.911
8540.391
8538.881
8537.378
8535.882
8534.39
8532.9
8531.409
8529.915
8528.415
8526.909
8525.392
8523.864
8522.322
8520.764
8519.189
8517.594
8515.977
8514.338
8512.673
8510.983
8509.265
8507.518
8505.742
8503.936
8502.098
8500.228
8498.326
8496.391
8494.423
8492.422
8490.388
8488.32
8486.219
8484.085
8481.919
8479.721
8477.49
8475.228
8472.934
8470.61
8468.256
8465.871
8463.456
8461.012
8458.538
8456.035
8453.502
8450.938
8448.345
8445.72
8443.063
8440.374
8437.652
8434.896
8432.109
8429.293
8426.454
8423.603
8420.76
8417.951
8415.222
8412.625
8410.239
8408.142
8406.437
8405.193
8404.487
8404.296
5576.947
5572.205
5549.067
5511.249
5468.635
5427.337
5387.253
5349.56
5313.862
5277.757
5236.653
5201.311
5165.962
5129.69
5092.188
5053.481
5013.522
4972.005
4928.919
4884.843
4840.797
4794.557
4747.624
4700.11
4652.447
4604.798
4557.487
4511.006
4465.572
4421.283
4379.411
4341.922
4308.585
4279.219
4253.743
4232.863
4218.122
4210.479
4210.743
4219.62
4237.662
4265.269
4302.91
4351.036
4410.119
4480.368
4561.932
4654.891
4759.118
4874.208
4999.506
5134.109
5276.968
5426.731
5581.971
5741.135
5902.323
6063.482
6224.313
6382.894
6537.661
6687.494
6830.411
6963.521
7084.365
7190.935
7280.885
7351.943
7402.612
7432.312
7441.175
7429.697
7398.834
7349.877
7284.476
7204.544
7112.145
7009.575
6898.836
6782.067
6661.604
6539.095
6416.085
6293.894
6173.655
6056.844
5943.635
5834.378
5730.557
5632.93
5541.434
5455.69
5375.314
5300.079
5229.704
5163.933
5102.626
5045.555
4992.514
4943.658
4899.287
4859.546
4824.476
4794.413
4770.031
4751.804
4739.724
4733.182
4731.612
4734.783
4742.336
4753.496
4767.034
4780.928
4794.189
4807.027
4818.694
4827.151
4830.4
4826.51
4814.844
4797.158
4777.497
4759.391
4745.476
4738.766
4743.304
4762.906
4798.734
4850.383
4916.403
4995.737
5086.743
5186.627
5292.123
5399.588
5505.061
5605.161
5697.28
5777.72
5842.48
5892.792
5922.559
5931.354
5921.74
5897.548
5860.697
5816.255
5770.437
5727.621
5692.496
5673.895
5668.725
5675.177
5693.765
5725.627
5771.167
5828.981
5896.942
5973.127
6056.285
6145.639
6239.891
6336.898
6434.756
6532.13
6627.687
6720.308
6808.637
6891.508
6967.943
7037.166
7098.393
7150.649
7192.785
7223.71
7242.283
7247.086
7236.871
7210.859
7167.888
7106.964
7027.154
6926.994
6803.057
6643.674
6402.924
6227.985
6068.559
5865.325
5639.928
5421.001
5237.865
5105.483
5005.333
4884.787
4595.298
4117.808
4187.561
4283.593
4316.653
4308.348
4286.298
4414.238
4649.059
4872
5074.53
5262.285
5434.69
5580.627
5668.007
5772.366
5908.93
6048.827
6168.647
6280.751
6387.078
6490.66
6591.078
6687.388
6778.887
6864.76
6944.711
7018.767
7086.843
7149.028
7205.392
7256.253
7302.646
7344.833
7383.086
7418.842
7452.117
7482.144
7509.864
7535.196
7555.726
7570.334
7579.505
7582.415
7575.865
7556.965
7526.885
7488.261
7440.435
7389.958
7344.198
7308.881
7287.436
7281.753
7291.051
7313.087
7344.876
7383.582
7426.361
7470.528
7514.468
7557.205
7598.01
7636.292
7671.729
7704.313
7734.167
7761.544
7786.756
7810.086
7831.965
7852.708
7872.731
7892.439
7912.146
7932.134
7952.631
7973.797
7995.724
8018.425
8041.84
8065.844
8090.261
8114.876
8139.457
8163.738
8187.472
8210.474
8232.568
8253.589
8273.434
8292.024
8309.27
8325.144
8339.653
8352.822
8364.71
8375.375
8384.875
8393.273
8400.642
8407.059
8412.6
8417.348
8421.403
8424.903
8427.962
8430.593
8432.887
8435.097
8437.282
8439.379
8441.456
8443.583
8445.849
8448.26
8450.706
8453.402
8456.453
8459.807
8463.475
8467.445
8471.669
8476.085
8480.643
8485.298
8490.009
8494.74
8499.476
8504.202
8508.877
8513.481
8517.999
8522.424
8526.747
8530.965
8535.075
8539.079
8542.981
8546.785
8550.495
8554.113
8557.643
8561.085
8564.441
8567.71
8570.89
8573.981
8576.977
8579.877
8582.675
8585.367
8587.949
8590.414
8592.756
8594.969
8597.051
8599.009
8600.846
8602.582
8604.208
8605.709
8607.076
8608.303
8609.388
8610.327
8611.12
8611.763
8612.259
8612.606
8612.809
8612.869
8612.791
8612.58
8612.241
8611.782
8611.21
8610.534
8609.761
8608.901
8607.96
8606.947
8605.872
8604.743
8603.567
8602.352
8601.104
8599.829
8598.535
8597.223
8595.899
8594.562
8593.215
8591.857
8590.485
8589.099
8587.691
8586.257
8584.791
8583.29
8581.749
8580.169
8578.554
8576.912
8575.249
8573.569
8571.874
8570.165
8568.447
8566.718
8564.979
8563.236
8561.496
8559.768
8558.058
8556.367
8554.696
8553.045
8551.414
8549.802
8548.21
8546.637
8545.079
8543.535
8542.005
8540.487
8538.978
8537.477
8535.981
8534.49
8532.999
8531.508
8530.013
8528.513
8527.007
8525.49
8523.962
8522.42
8520.862
8519.285
8517.689
8516.071
8514.431
8512.765
8511.073
8509.354
8507.606
8505.829
8504.02
8502.18
8500.309
8498.405
8496.468
8494.499
8492.496
8490.461
8488.392
8486.29
8484.156
8481.99
8479.792
8477.563
8475.302
8473.012
8470.693
8468.344
8465.967
8463.562
8461.13
8458.672
8456.187
8453.676
8451.141
8448.58
8445.996
8443.388
8440.758
8438.107
8435.438
8432.754
8430.061
8427.37
8424.694
8422.053
8419.476
8417.002
8414.675
8412.559
8410.708
8409.204
8408.076
8407.399
8407.128
5576.249
5558.376
5514.995
5478.491
5441.199
5404.912
5369.89
5335.944
5302.681
5269.904
5237.661
5204.246
5169.921
5134.459
5097.779
5059.637
5019.951
4978.559
4935.309
4890.604
4845.622
4799.445
4752.268
4704.422
4656.141
4607.435
4558.183
4508.673
4459.902
4412.514
4367.282
4325.651
4288.739
4256.723
4229.761
4208.464
4193.728
4186.233
4186.607
4195.403
4213.076
4240.14
4277.05
4324.183
4381.953
4450.729
4530.765
4622.149
4724.753
4838.183
4961.784
5094.62
5235.694
5383.467
5536.317
5692.206
5849.243
6006.242
6162.621
6317.541
6469.226
6615.38
6753.671
6881.473
6996.263
7095.822
7178.085
7241.259
7284.044
7305.972
7307.289
7288.716
7251.459
7196.952
7127.169
7043.934
6949.438
6846.263
6736.377
6621.644
6503.668
6384.237
6265.371
6147.737
6032.354
5921.112
5814.589
5713.029
5617.012
5526.833
5442.417
5363.426
5289.462
5220.087
5154.902
5093.618
5036.055