/*--------------------------------*- C++ -*----------------------------------*\
| =========                 |                                                 |
| \\      /  F ield         | foam-extend: Open Source CFD                    |
|  \\    /   O peration     | Version:     3.1                                |
|   \\  /    A nd           | Web:         http://www.extend-project.de       |
|    \\/     M anipulation  |                                                 |
\*---------------------------------------------------------------------------*/
FoamFile
{
    version     2.0;
    format      ascii;
    class       surfaceScalarField;
    location    "9.5";
    object      phi;
}
// * * * * * * * * * * * * * * * * * * * * * * * * * * * * * * * * * * * * * //

dimensions      [0 3 -1 0 0 0 0];

internalField   nonuniform List<scalar> 
275122
(
-0.0003150895
0.0003194605
-3.15386e-07
-4.055568e-06
-0.0002816043
0.0002686432
1.03227e-06
1.192884e-05
-0.0002783144
0.0002851498
-3.36366e-07
-6.49902e-06
-0.0003074935
0.0003149406
-3.924371e-07
-7.054664e-06
-0.0003328156
0.0003349208
-4.513864e-07
-1.653744e-06
-0.0003297445
0.0003270221
-3.641999e-07
3.086603e-06
-0.0003184008
0.0003153391
-3.239692e-07
3.385678e-06
-0.0003047203
0.000300725
-2.868372e-07
4.282114e-06
-0.0002881175
0.0002837738
-2.586966e-07
4.602394e-06
-0.0002702233
0.0002655701
-2.408521e-07
4.894061e-06
-0.0002515723
0.0002469255
-2.227809e-07
4.869589e-06
-0.0002333481
0.00022903
-2.018681e-07
4.520004e-06
-0.0002169912
0.0002133664
-1.902179e-07
3.815029e-06
-0.0002038542
0.0002011726
-1.829801e-07
2.864623e-06
-0.0001944422
0.0001926076
-1.686799e-07
2.003303e-06
-0.0001883305
0.0001872093
-1.213922e-07
1.242631e-06
-0.000184258
0.0001833957
-1.053623e-07
9.676649e-07
-0.0001810591
0.000180364
-9.596226e-08
7.910064e-07
-0.0001784948
0.0001780024
-1.24502e-07
6.168725e-07
-0.0001773454
0.0001778815
-3.282912e-07
-2.077943e-07
-0.0001986485
0.0002055303
-5.466381e-07
-6.335145e-06
-0.0002102378
0.0002115674
-2.039181e-07
-1.12574e-06
-0.0002171109
0.0002193488
-9.939381e-08
-2.13851e-06
-0.0002465563
0.0002554854
2.634847e-07
-9.192576e-06
-0.0002624824
0.0002645659
2.255702e-07
-2.3091e-06
-0.0002722959
0.0002746143
-3.536866e-08
-2.283041e-06
-0.0002806231
0.0002822193
-2.873215e-08
-1.567471e-06
-0.0002860355
0.0002862734
-3.722318e-08
-2.007512e-07
-0.0002765997
0.0002611284
-1.873772e-08
1.549001e-05
-0.0001649668
0.0001693129
3.786786e-09
-4.349861e-06
-0.0002310183
0.0002427017
-6.267595e-08
-1.162076e-05
-0.0002762681
0.0002873759
5.736818e-09
-1.111359e-05
-0.0003213339
0.0003328437
6.670208e-09
-1.151651e-05
-0.0003678147
0.0003796931
7.517137e-09
-1.18859e-05
-0.0004156998
0.0004279353
8.246535e-09
-1.224373e-05
-0.000465079
0.0004776043
7.861622e-09
-1.253316e-05
-0.0005154963
0.0005282469
7.281555e-09
-1.275784e-05
-0.0005666453
0.0005795378
7.009944e-09
-1.289951e-05
-0.0006180386
0.0006308909
6.45266e-09
-1.285871e-05
-0.0006691394
0.0006829167
2.008796e-07
-1.397816e-05
1.10127e-05
-0.0004627465
0.000464215
3.666759e-10
-1.248156e-05
1.103541e-05
-0.0004684859
0.0004697352
-6.98974e-10
-1.2284e-05
1.107891e-05
-0.0004730165
0.0004739518
-1.358682e-09
-1.201279e-05
1.114204e-05
-0.000476152
0.0004766793
-1.406109e-09
-1.166797e-05
1.113062e-05
-0.0004776946
0.0004778531
-1.441307e-09
-1.128772e-05
1.098861e-05
-0.0004778293
0.0004776913
-1.196545e-09
-1.08494e-05
1.078074e-05
-0.0004768691
0.000476467
-1.108085e-09
-1.037748e-05
1.053519e-05
-0.0004749646
0.0004743596
-8.841816e-10
-9.929312e-06
1.031185e-05
-0.0004720156
0.0004706028
-6.900886e-10
-8.898357e-06
8.37351e-06
-0.0019079
0.001904563
-2.42471e-11
-3.162273e-05
9.126871e-06
8.374829e-06
9.08461e-06
9.218258e-06
-0.001898994
0.001892151
-1.200524e-11
-3.06561e-05
9.559492e-06
9.191197e-06
9.530336e-06
9.262055e-06
-0.001885308
0.001878766
-1.09358e-11
-3.074907e-05
9.406554e-06
9.237485e-06
9.38555e-06
9.317166e-06
-0.001872346
0.001865901
-1.703788e-11
-3.10509e-05
9.451406e-06
9.294958e-06
9.432136e-06
9.508674e-06
-0.001859376
0.001853154
-2.647169e-11
-3.19885e-05
9.616003e-06
9.489256e-06
9.596162e-06
9.737494e-06
-0.001847211
0.001841947
-2.46775e-11
-3.380965e-05
9.818729e-06
9.718577e-06
9.79816e-06
1.009396e-05
-0.001837082
0.001832906
-1.159399e-11
-3.632593e-05
1.017494e-05
1.007559e-05
1.015756e-05
1.053382e-05
-0.001829243
0.001826417
2.225708e-11
-3.944244e-05
1.061782e-05
1.051459e-05
1.060267e-05
1.0993e-05
-0.001824399
0.001823218
2.757927e-11
-4.308977e-05
1.116413e-05
1.096944e-05
1.114366e-05
1.109853e-05
-0.001820677
0.001822486
-1.49816e-10
-4.673902e-05
1.138196e-05
1.107883e-05
1.137096e-05
1.229941e-05
-0.001823959
0.001825567
-2.016941e-10
-5.099234e-05
1.239341e-05
1.229942e-05
1.239225e-05
1.279446e-05
-0.001827611
0.001830498
-1.327271e-10
-5.396154e-05
1.274919e-05
1.279841e-05
1.273231e-05
1.326708e-05
-0.001833954
0.001838194
5.660078e-11
-5.727277e-05
1.326857e-05
1.324096e-05
1.325543e-05
1.369504e-05
-0.001842858
0.001848062
3.814034e-11
-6.003598e-05
1.372363e-05
1.369091e-05
1.372302e-05
1.403379e-05
-0.001853563
0.00185939
9.116344e-11
-6.199026e-05
1.405744e-05
1.402334e-05
1.404925e-05
1.425707e-05
-0.001865396
0.001871461
8.530187e-11
-6.303196e-05
1.426344e-05
1.421723e-05
1.422846e-05
1.446639e-05
-0.001877603
0.001883497
5.79089e-11
-6.336365e-05
1.442644e-05
1.428455e-05
1.429299e-05
1.527371e-05
-0.001889003
0.001892049
3.243205e-11
-6.301198e-05
1.54773e-05
1.454227e-05
1.467228e-05
1.802672e-05
-0.001891803
0.001885854
1.1807e-11
-6.322811e-05
1.900787e-05
1.618181e-05
1.596085e-05
2.550458e-05
-0.001875029
0.001893449
-1.241986e-11
-4.392401e-05
1.71427e-05
-0.001911469
0.001914561
-2.384616e-11
-2.023439e-05
2.704923e-05
-0.001912104
0.001909467
-7.78054e-11
-2.441234e-05
1.835229e-05
-0.001906216
0.001901834
-1.133936e-10
-1.396991e-05
-3.087204e-07
-0.001897479
0.001895282
-9.45503e-11
2.505613e-06
-1.744753e-05
-0.001893106
0.001891213
-5.627837e-11
1.934085e-05
-2.572566e-05
-0.00188767
0.001882205
-1.172963e-11
3.119116e-05
-3.325808e-05
-0.001875883
0.001868501
2.762259e-11
4.06402e-05
-3.969591e-05
-0.001860353
0.001850801
6.400364e-11
4.924787e-05
-4.49347e-05
-0.001840374
0.001828901
8.544832e-11
5.640813e-05
-4.832962e-05
-0.001816546
0.001803095
8.566667e-11
6.177986e-05
-4.948648e-05
-0.00178879
0.00177341
7.29463e-11
6.486701e-05
-4.804197e-05
-0.001757154
0.001739894
5.238608e-11
6.530108e-05
-4.41018e-05
-0.001721744
0.001702788
2.64663e-11
6.305789e-05
-3.856423e-05
-0.001683197
0.001663157
-2.649542e-12
5.860431e-05
-3.231755e-05
-0.001642766
0.001622493
-3.15536e-11
5.259112e-05
-2.628913e-05
-0.001602427
0.001583151
-5.94884e-11
4.556559e-05
-2.027054e-05
-0.00156452
0.001547257
-8.664982e-11
3.753358e-05
-1.373801e-05
-0.001530841
0.001516303
-1.066745e-10
2.82764e-05
-5.776487e-06
-0.001502509
0.001490716
-1.114456e-10
1.756945e-05
3.815817e-06
-0.001476536
0.001466504
-9.303129e-11
6.216128e-06
7.294969e-06
-0.001459541
0.001454744
-5.466635e-11
-2.498513e-06
1.855326e-05
-0.001449319
0.001445566
-2.370689e-11
-1.480038e-05
3.627881e-05
-0.001436444
0.001428266
1.581202e-12
-2.810042e-05
2.613573e-05
-0.001425628
0.001427196
1.921769e-11
-2.770388e-05
2.25623e-05
-0.001431001
0.001435498
2.236655e-11
-2.705891e-05
1.934169e-05
-0.001440377
0.001447403
1.74289e-11
-2.63678e-05
1.048398e-05
-0.001455506
0.001466424
8.516931e-12
-2.140171e-05
-2.314353e-05
-0.001481486
0.001516225
-1.311147e-12
-1.159525e-05
-2.457653e-06
-0.00155302
0.001572647
-1.673801e-11
-1.470489e-05
-9.246092e-09
-2.40523e-06
-4.960071e-08
4.917559e-06
-0.001588298
0.001608954
-2.627904e-11
-4.061807e-05
5.131046e-06
4.851173e-06
5.061844e-06
7.347605e-06
-0.001629464
0.001650752
-3.38476e-11
-5.148824e-05
7.828813e-06
7.269515e-06
7.754743e-06
8.959001e-06
-0.00167284
0.001696805
-3.75058e-11
-5.997224e-05
9.112764e-06
8.890068e-06
9.045732e-06
9.838714e-06
-0.001721843
0.001748041
-3.718924e-11
-6.566348e-05
9.954135e-06
9.777493e-06
9.894677e-06
1.04372e-05
-0.001774943
0.001802568
-3.508244e-11
-6.93501e-05
1.047779e-05
1.038393e-05
1.042629e-05
1.070304e-05
-0.00183081
0.001859494
-3.11288e-11
-7.141257e-05
1.070647e-05
1.065676e-05
1.066177e-05
1.078529e-05
-0.001888646
0.001918052
-2.511482e-11
-7.240912e-05
1.075607e-05
1.074479e-05
1.071701e-05
1.068597e-05
-0.001947818
0.001977636
-1.586048e-11
-7.238235e-05
1.063178e-05
1.065002e-05
1.059689e-05
1.039467e-05
-0.002007623
0.002037423
-9.289736e-12
-7.114639e-05
1.03106e-05
1.036224e-05
1.02794e-05
9.909405e-06
-0.002067146
0.002096431
-5.468351e-12
-6.865797e-05
9.807084e-06
9.878909e-06
9.777299e-06
9.284368e-06
-0.002125427
0.002153648
-7.649818e-13
-6.505678e-05
9.164324e-06
9.255152e-06
9.132266e-06
8.455703e-06
-0.002181432
0.002207969
8.51774e-12
-5.996951e-05
8.287719e-06
8.42786e-06
8.260745e-06
7.283075e-06
-0.002233797
0.002257862
1.793108e-11
-5.268276e-05
7.041222e-06
7.264379e-06
7.028747e-06
5.617883e-06
-0.00228094
0.002301782
2.427919e-11
-4.260778e-05
5.276801e-06
5.606611e-06
5.264769e-06
3.47771e-06
-0.002321436
0.002338189
2.669897e-11
-2.990573e-05
3.122239e-06
3.452905e-06
3.099515e-06
1.309305e-06
-0.002353151
0.002364824
2.802477e-11
-1.621345e-05
9.811942e-07
1.286369e-06
9.636566e-07
-6.437689e-07
-0.002374545
0.002381366
2.930294e-11
-3.659086e-06
-9.204671e-07
-6.610315e-07
-9.363912e-07
-2.104007e-06
-0.00238657
0.002389616
3.024073e-11
5.78211e-06
-2.295239e-06
-2.11897e-06
-2.309664e-06
-3.079326e-06
-0.002391708
0.002392536
2.779283e-11
1.176147e-05
-3.202235e-06
-3.09295e-06
-3.215038e-06
-3.742335e-06
-0.002392811
0.002392118
2.555938e-11
1.590528e-05
-3.851927e-06
-3.754602e-06
-3.863776e-06
-4.456907e-06
-0.00239092
0.002388538
2.211891e-11
2.053491e-05
-4.607696e-06
-4.468578e-06
-4.619659e-06
-5.473566e-06
-0.002385407
0.00238069
1.865592e-11
2.706372e-05
-5.687485e-06
-5.485622e-06
-5.700341e-06
-6.835977e-06
-0.002374928
0.002367279
1.685931e-11
3.554852e-05
-7.099981e-06
-6.849139e-06
-7.11468e-06
-8.416457e-06
-0.002358372
0.002347549
1.924131e-11
4.508677e-05
-8.699179e-06
-8.430852e-06
-8.717196e-06
-1.005469e-05
0.002321609
3.08317e-11
5.463619e-05
-1.034018e-05
-1.006494e-05
-1.036043e-05
-0.002335425
-1.179008e-05
-0.002306537
0.002289879
5.708113e-11
6.44262e-05
-1.211702e-05
-1.175469e-05
-1.210653e-05
-1.405271e-05
-0.002271792
0.00225227
1.224016e-10
7.618647e-05
-1.452351e-05
-1.379735e-05
-1.429173e-05
-1.761665e-05
-0.002231418
0.002209734
2.362028e-10
9.190668e-05
-1.849483e-05
-1.667183e-05
-1.743914e-05
-2.403109e-05
-0.00218801
0.002167853
3.698418e-10
0.0001143873
-2.57751e-05
-2.15353e-05
-2.288905e-05
-3.441655e-05
-0.002149502
0.002131626
4.981513e-10
0.0001522057
-3.74834e-05
-3.024237e-05
-3.218852e-05
-3.848171e-05
-0.002118639
0.002104558
2.24999e-10
0.0001682115
-3.513749e-05
-4.034395e-05
-4.016781e-05
-2.616111e-05
-0.002076317
0.00203562
1.288373e-10
0.0001472149
-2.437324e-05
-2.950915e-05
-2.647473e-05
-1.826757e-05
-0.001986661
0.001931629
2.430101e-10
0.0001272063
-1.715637e-05
-1.913581e-05
-1.761425e-05
-1.265461e-05
-0.001872794
0.001811822
2.244222e-10
0.0001112124
-1.196747e-05
-1.316901e-05
-1.244938e-05
-8.561978e-06
-0.001750427
0.001689977
8.640338e-11
9.477564e-05
-8.167847e-06
-9.00017e-06
-8.59578e-06
-6.074213e-06
-0.001631931
0.001577207
-1.647343e-10
7.931451e-05
-5.914878e-06
-6.392213e-06
-6.209009e-06
-5.223945e-06
-0.001526975
0.001481515
-4.649233e-10
6.673887e-05
-5.238255e-06
-5.39629e-06
-5.419532e-06
-5.247517e-06
-0.001441072
0.001405089
-6.982756e-10
5.732819e-05
-5.311137e-06
-5.364547e-06
-5.420814e-06
-5.193786e-06
-0.001373112
0.001344512
-7.958603e-10
4.941631e-05
-5.169882e-06
-5.243215e-06
-5.20887e-06
-4.769212e-06
-0.001318748
0.001295437
-7.742549e-10
4.224767e-05
-4.694148e-06
-4.775891e-06
-4.696506e-06
-4.201468e-06
-0.001274257
0.001255088
-6.71333e-10
3.579747e-05
-4.12052e-06
-4.193502e-06
-4.11186e-06
-3.673251e-06
-0.00123763
0.001221829
-4.8515e-10
3.034788e-05
-3.609109e-06
-3.663159e-06
-3.600208e-06
-3.310907e-06
-0.001207367
0.00119426
-2.84719e-10
2.625061e-05
-3.268239e-06
-3.30279e-06
-3.261817e-06
-3.166209e-06
-0.001182072
0.001170854
-1.260664e-10
2.386788e-05
-3.164295e-06
-3.16066e-06
-3.158424e-06
-3.276282e-06
-0.001160346
0.001150044
-5.662445e-12
2.350783e-05
-3.333666e-06
-3.271655e-06
-3.324334e-06
-3.886977e-06
-0.001139976
0.001129979
1.509696e-10
2.575984e-05
-4.018003e-06
-3.872707e-06
-3.985828e-06
-5.401466e-06
-0.001119515
0.001109067
4.143088e-10
3.277327e-05
-5.826859e-06
-5.37632e-06
-5.720823e-06
-8.265739e-06
-0.001100882
0.001090889
6.435165e-10
4.508751e-05
-9.38748e-06
-8.308066e-06
-9.13347e-06
-1.355059e-05
-0.001085688
0.00107668
4.397733e-10
6.003244e-05
-1.178217e-05
-1.358006e-05
-1.21122e-05
-1.04178e-05
-0.001062044
0.001043495
7.664421e-10
6.373522e-05
-1.217564e-05
-1.046319e-05
-1.213042e-05
-1.402102e-05
-0.001024976
0.001000631
1.984068e-09
7.981519e-05
-1.386961e-05
-1.387209e-05
-1.370957e-05
-1.421869e-05
-0.0009715114
0.0009356181
1.629324e-09
9.161511e-05
-1.364813e-05
-1.418837e-05
-1.366819e-05
-7.025386e-06
-0.0008890199
0.0008302115
2.221062e-09
8.443413e-05
-5.721371e-06
-7.109088e-06
-5.772058e-06
-1.96441e-06
-0.000764239
0.0007029233
1.855605e-09
6.924853e-05
-1.960445e-06
-2.0139e-06
-1.995879e-06
-2.685793e-06
-0.0006534822
0.0006162469
7.288927e-10
4.929109e-05
-3.326246e-06
-2.703356e-06
-3.34104e-06
-5.11727e-06
-0.0005872723
0.0005631309
-1.909111e-09
4.445884e-05
-5.036947e-06
-5.121596e-06
-5.039732e-06
-3.043012e-06
-0.0005448711
0.000531347
-3.545277e-09
2.500921e-05
-2.698052e-06
-3.042914e-06
-2.69762e-06
-1.995119e-06
-0.0005212443
0.0005115729
-3.279681e-09
1.778184e-05
-2.059682e-06
-1.994021e-06
-2.058391e-06
-2.867294e-06
-0.0005008858
0.0004891334
-2.146e-09
2.350203e-05
-3.008743e-06
-2.865206e-06
-3.006244e-06
-3.904943e-06
-0.000475875
0.0004610027
-1.164147e-09
3.076821e-05
-4.04535e-06
-3.902278e-06
-4.04219e-06
-4.939592e-06
-0.0004447369
0.0004262309
-5.838202e-10
3.853177e-05
-5.07606e-06
-4.93668e-06
-5.072832e-06
-5.758947e-06
-0.0004063396
0.0003847881
-2.870955e-10
4.46901e-05
-5.813017e-06
-5.756185e-06
-5.810134e-06
-6.023744e-06
-0.0003626498
0.0003401102
-1.425138e-10
4.657912e-05
-5.998241e-06
-6.021573e-06
-5.995757e-06
-5.862044e-06
-0.0003177238
0.0002957193
-7.313602e-11
4.529787e-05
-5.78651e-06
-5.860326e-06
-5.784396e-06
-5.384198e-06
-0.0002743186
0.0002539908
-3.972808e-11
4.16283e-05
-5.26756e-06
-5.382898e-06
-5.265825e-06
-4.650952e-06
-0.0002346749
0.0002169988
-2.329637e-11
3.60056e-05
-4.514944e-06
-4.650029e-06
-4.513601e-06
-3.793512e-06
-0.0002005731
0.0001860278
-1.487319e-11
2.944417e-05
-3.656694e-06
-3.792907e-06
-3.655756e-06
-2.912682e-06
-0.0001727952
0.0001615026
-1.06176e-11
2.268856e-05
-2.785747e-06
-2.912338e-06
-2.785155e-06
-2.074239e-06
-0.0001514977
0.0001433619
-7.611954e-12
1.621088e-05
-1.96352e-06
-2.074099e-06
-1.963217e-06
-1.32522e-06
-0.0001364168
0.0001311611
-4.736257e-12
1.037471e-05
-1.234355e-06
-1.325235e-06
-1.234268e-06
-6.947821e-07
-0.0001269403
0.0001241594
-1.896131e-12
5.419851e-06
-6.245762e-07
-6.948936e-07
-6.246488e-07
-1.904042e-07
-0.0001222309
0.000121469
7.754378e-13
1.423217e-06
-1.401691e-07
-1.90521e-07
-1.402778e-07
1.830348e-07
-0.0001213576
0.0001221445
3.775794e-12
-1.596178e-06
2.218829e-07
1.827777e-07
2.215305e-07
4.485331e-07
-0.0001234002
0.0001253034
6.052427e-12
-3.747267e-06
4.738301e-07
4.481805e-07
4.734988e-07
6.202081e-07
0.0001301947
7.792047e-12
-5.168516e-06
-0.0001275342
6.341883e-07
6.198146e-07
6.338301e-07
7.167255e-07
-0.0001330626
0.0001361822
9.468247e-12
-5.996705e-06
7.222018e-07
7.163655e-07
7.218546e-07
7.55872e-07
-0.0001394132
0.0001427559
1.083662e-11
-6.364321e-06
7.552122e-07
7.555867e-07
7.549184e-07
7.537569e-07
-0.000146138
0.0001495325
1.16779e-11
-6.399777e-06
7.491545e-07
7.534889e-07
7.488783e-07
7.241902e-07
-0.0001529161
0.0001562437
1.221134e-11
-6.209928e-06
7.171897e-07
7.239458e-07
7.169263e-07
6.781403e-07
-0.0001595282
0.0001627176
1.247826e-11
-5.885352e-06
6.700649e-07
6.778981e-07
6.698229e-07
6.269993e-07
-0.0001658494
0.00016888
1.243515e-11
-5.522909e-06
6.193693e-07
6.267629e-07
6.191341e-07
5.802934e-07
-0.0001718535
0.0001747381
1.206008e-11
-5.192516e-06
5.738856e-07
5.800575e-07
5.736516e-07
5.422974e-07
-0.0001775763
0.0001803519
1.14081e-11
-4.935038e-06
5.376231e-07
5.420521e-07
5.373831e-07
5.167788e-07
-0.0001830988
0.0001858217
1.054383e-11
-4.784521e-06
5.142997e-07
5.165155e-07
5.140418e-07
5.061022e-07
-0.0001885393
0.0001912783
9.592215e-12
-4.762451e-06
5.059285e-07
5.058084e-07
5.056493e-07
5.108139e-07
-0.0001940387
0.0001968689
8.654602e-12
-4.876883e-06
5.128546e-07
5.104826e-07
5.12558e-07
5.306637e-07
-0.0001997484
0.0002027473
7.754336e-12
-5.128927e-06
5.347185e-07
5.302965e-07
5.344087e-07
5.647453e-07
-0.0002058231
0.0002090657
6.954439e-12
-5.512355e-06
5.70444e-07
5.643604e-07
5.701248e-07
6.110837e-07
-0.0002124114
0.0002159675
6.317689e-12
-6.013465e-06
6.179252e-07
6.107158e-07
6.176191e-07
6.670912e-07
-0.0002196498
0.0002235805
5.857875e-12
-6.613284e-06
6.744621e-07
6.667809e-07
6.742161e-07
7.296814e-07
-0.0002276566
0.0002320128
5.553471e-12
-7.289202e-06
7.369617e-07
7.294109e-07
7.369275e-07
7.965904e-07
-0.0002365294
0.0002413452
5.365561e-12
-8.017921e-06
8.049479e-07
7.959931e-07
8.045681e-07
8.638073e-07
-0.0002463325
0.0002516325
5.25654e-12
-8.77163e-06
8.727894e-07
8.631796e-07
8.719136e-07
9.294545e-07
-0.0002571065
0.0002628967
5.169647e-12
-9.523771e-06
9.375937e-07
9.291837e-07
9.372469e-07
9.885705e-07
-0.0002688616
0.0002751361
5.114027e-12
-1.024186e-05
9.955624e-07
9.881218e-07
9.95155e-07
1.03759e-06
-0.0002815799
0.0002883164
5.08702e-12
-1.089707e-05
1.043185e-06
1.037086e-06
1.042723e-06
1.074267e-06
-0.0002952099
0.0003023632
5.033351e-12
-1.145781e-05
1.07847e-06
1.073748e-06
1.077964e-06
1.087598e-06
-0.0003096338
0.0003170894
4.872114e-12
-1.181798e-05
1.093924e-06
1.087306e-06
1.093585e-06
1.082758e-06
-0.0003245743
0.0003320548
4.463603e-12
-1.20494e-05
1.199593e-06
1.083997e-06
1.202491e-06
1.387282e-06
-8.360435e-05
8.407216e-05
2.109071e-10
-1.855301e-06
1.147693e-06
-8.686759e-05
8.790116e-05
2.393861e-10
-2.1815e-06
1.068842e-06
-9.10571e-05
9.212329e-05
1.604879e-10
-2.135191e-06
1.030598e-06
-9.533815e-05
9.641144e-05
2.72162e-10
-2.104153e-06
1.002721e-06
-9.963362e-05
0.0001007092
1.023068e-10
-2.078359e-06
9.647521e-07
-0.0001039377
0.000105013
9.502892e-11
-2.040166e-06
9.158513e-07
-0.0001082319
0.0001093005
1.591045e-10
-1.984598e-06
8.55525e-07
-0.0001124903
0.0001135456
2.079419e-10
-1.911077e-06
7.876881e-07
-0.0001166863
0.0001177217
2.061575e-10
-1.823282e-06
7.144308e-07
-0.0001207974
0.0001218092
2.325427e-10
-1.72641e-06
6.436605e-07
-0.000124808
0.0001257914
2.197007e-10
-1.627313e-06
5.718653e-07
-0.0001287017
0.0001296524
2.151963e-10
-1.522733e-06
4.792698e-07
-0.0001324539
0.0001333703
2.156608e-10
-1.395831e-06
3.834292e-07
-0.00013607
0.0001369475
1.974081e-10
-1.261131e-06
2.964314e-07
-0.000139524
0.0001403592
1.937587e-10
-1.131838e-06
2.121511e-07
-0.0001428087
0.0001436008
1.854041e-10
-1.004417e-06
1.274024e-07
-0.0001459201
0.0001466697
1.85951e-10
-8.771575e-07
4.296429e-08
-0.0001488625
0.0001495691
1.643995e-10
-7.496837e-07
-5.641918e-08
-0.0001516364
0.0001523085
1.515907e-10
-6.158087e-07
-1.116211e-07
-0.0001542656
0.0001548956
1.522994e-10
-5.185839e-07
-1.665629e-07
-0.0001567391
0.0001573351
1.470651e-10
-4.29528e-07
-2.207532e-07
-0.0001590815
0.0001596468
1.391567e-10
-3.446313e-07
-2.71651e-07
-0.000161304
0.0001618409
1.33077e-10
-2.654297e-07
-3.182612e-07
-0.0001634168
0.0001639285
1.3138e-10
-1.935742e-07
-3.60495e-07
-0.000165433
0.0001659229
1.337337e-10
-1.295295e-07
-3.990383e-07
-0.0001673663
0.0001678373
1.291075e-10
-7.208124e-08
-4.344233e-07
-0.0001692265
0.000169681
1.175095e-10
-2.016188e-08
-4.679925e-07
-0.0001710232
0.0001714612
1.110305e-10
2.987168e-08
-4.988556e-07
-0.0001727552
0.0001731787
1.069492e-10
7.518037e-08
-5.27391e-07
-0.000174432
0.0001748431
1.070835e-10
1.161966e-07
-5.52716e-07
-0.0001760618
0.000176463
1.070861e-10
1.514139e-07
-5.73456e-07
-0.0001776567
0.0001780522
1.044024e-10
1.779412e-07
-5.864127e-07
-0.0001792359
0.0001796329
1.0945e-10
1.892814e-07
-5.814119e-07
-0.0001808351
0.00018125
1.178281e-10
1.663582e-07
-5.156062e-07
-0.000182549
0.0001830389
1.166025e-10
2.559995e-08
4.446081e-07
-0.0001845834
0.0001847396
1.18192e-10
-6.009371e-07
9.713353e-07
-0.0001854307
0.0001856558
9.807939e-11
-1.196531e-06
1.005023e-06
-0.0001864496
0.0001867268
1.083573e-10
-1.282361e-06
1.051348e-06
-0.0001875692
0.000187856
1.052306e-10
-1.338171e-06
1.069316e-06
-0.0001887228
0.0001890122
9.886307e-11
-1.358821e-06
1.083019e-06
-0.0001898794
0.0001901677
8.859432e-11
-1.37144e-06
1.092227e-06
-0.0001910287
0.0001913137
8.169399e-11
-1.377327e-06
1.099237e-06
-0.0001921605
0.0001924396
7.863629e-11
-1.378412e-06
1.103765e-06
-0.0001932667
0.0001935386
7.688545e-11
-1.375658e-06
1.106506e-06
-0.0001943422
0.0001946057
6.756395e-11
-1.370045e-06
1.107845e-06
-0.000195383
0.0001956371
6.240373e-11
-1.362074e-06
1.108139e-06
-0.0001963853
0.0001966293
6.806712e-11
-1.352218e-06
1.107178e-06
-0.0001973463
0.0001975797
6.727449e-11
-1.340638e-06
1.105649e-06
-0.0001982642
0.0001984866
6.803032e-11
-1.328054e-06
1.103378e-06
-0.0001991375
0.0001993486
6.376821e-11
-1.314493e-06
1.100422e-06
-0.0001999656
0.0002001654
6.272722e-11
-1.300239e-06
1.097109e-06
-0.0002007486
0.0002009372
5.933819e-11
-1.285752e-06
1.093537e-06
-0.0002014872
0.000201665
4.629734e-11
-1.271319e-06
1.089902e-06
-0.0002021831
0.0002023504
3.559517e-11
-1.25729e-06
1.086203e-06
-0.0002028379
0.0002029954
2.782452e-11
-1.243728e-06
1.082532e-06
-0.0002034541
0.0002036024
1.595545e-11
-1.230801e-06
1.078912e-06
-0.000204034
0.0002041737
1.085667e-11
-1.218566e-06
1.07533e-06
-0.0002045803
0.0002047119
7.888452e-12
-1.207016e-06
1.071841e-06
-0.0002050953
0.0002052196
9.040017e-12
-1.196193e-06
1.068452e-06
-0.0002055814
0.000205699
9.222287e-12
-1.186014e-06
1.065139e-06
-0.0002060409
0.0002061522
6.011772e-12
-1.176455e-06
1.061763e-06
-0.0002064758
0.0002065814
3.948464e-12
-1.167308e-06
1.058235e-06
-0.0002068879
0.0002069881
1.50691e-11
-1.158462e-06
1.054706e-06
-0.0002072787
0.0002073739
1.453853e-11
-1.149889e-06
1.051088e-06
-0.0002076493
0.0002077396
1.379433e-11
-1.141455e-06
1.047287e-06
-0.0002080003
0.000208086
1.128572e-11
-1.132969e-06
1.043299e-06
-0.0002083321
0.000208413
9.302057e-12
-1.124254e-06
1.039529e-06
-0.0002086424
0.0002087181
1.530078e-11
-1.115178e-06
1.032701e-06
-0.0002089388
0.0002090166
4.024574e-11
-1.110547e-06
1.050738e-06
-0.0002092655
0.0002092887
2.002008e-10
-1.074146e-06
1.247634e-06
-0.0002077605
0.0008533947
-1.405743e-11
-4.727641e-06
-3.300179e-08
1.250347e-06
-4.723817e-08
-0.0002077638
-0.0002177794
-0.0002177811
5.38158e-07
-0.0008569377
0.0008579688
-1.068609e-11
-3.873457e-06
8.990852e-07
5.214334e-07
8.836583e-07
7.299915e-07
-0.0008585739
0.0008593558
6.320447e-12
-3.793181e-06
7.883039e-07
7.169656e-07
7.760106e-07
7.835984e-07
-0.000860421
0.0008613448
7.01527e-12
-4.135035e-06
8.332272e-07
7.722593e-07
8.221542e-07
8.429668e-07
-0.0008621439
0.0008627399
-5.554822e-12
-4.02186e-06
8.802056e-07
8.326251e-07
8.700479e-07
8.664547e-07
-0.0008632793
0.0008637655
-1.381356e-11
-3.967999e-06
8.839228e-07
8.568455e-07
8.745165e-07
8.761216e-07
-0.0008642638
0.0008647203
-3.623562e-13
-3.964709e-06
8.870018e-07
8.669754e-07
8.781508e-07
8.901259e-07
-0.0008651693
0.0008655726
1.19133e-11
-3.962912e-06
8.978964e-07
8.815622e-07
8.899675e-07
9.038288e-07
-0.0008659636
0.0008663139
8.562304e-12
-3.961578e-06
9.092825e-07
8.961816e-07
9.019783e-07
9.15109e-07
-0.0008666461
0.000866945
1.596265e-11
-3.9491e-06
9.16564e-07
9.085449e-07
9.100409e-07
9.220313e-07
-0.0008672314
0.0008674744
2.636052e-11
-3.926055e-06
9.255139e-07
9.159189e-07
9.195727e-07
9.313445e-07
-0.0008676913
0.0008678716
4.215167e-12
-3.899554e-06
9.337074e-07
9.257814e-07
9.28474e-07
9.390653e-07
-0.0008680281
0.0008681522
-1.53916e-11
-3.873613e-06
9.402922e-07
9.343509e-07
9.357651e-07
9.464148e-07
-0.0008682515
0.000868321
-3.37897e-12
-3.850055e-06
9.476985e-07
9.42491e-07
9.438633e-07
9.533116e-07
-0.0008683666
0.000868392
6.789598e-12
-3.834146e-06
9.54177e-07
9.501243e-07
9.510517e-07
9.589098e-07
-0.000868402
0.0008683897
-9.019232e-13
-3.819401e-06
9.597263e-07
9.561327e-07
9.5701e-07
9.617803e-07
-0.0008683535
0.0008682923
-1.022333e-11
-3.782186e-06
9.6252e-07
9.59115e-07
9.599268e-07
9.654478e-07
-0.00086822
0.0008681298
4.183401e-13
-3.768213e-06
9.660762e-07
9.631097e-07
9.637883e-07
9.680534e-07
-0.000868028
0.000867911
7.097612e-12
-3.752431e-06
9.686868e-07
9.660035e-07
9.666905e-07
9.69978e-07
-0.0008677842
0.0008676454
1.241516e-11
-3.738922e-06
9.706211e-07
9.682394e-07
9.689288e-07
9.712542e-07
-0.000867499
0.0008673445
1.652963e-11
-3.72876e-06
9.719155e-07
9.697215e-07
9.703908e-07
9.720552e-07
-0.0008671866
0.0008670237
2.022788e-11
-3.723565e-06
9.726434e-07
9.705416e-07
9.71242e-07
9.720193e-07
-0.0008668598
0.0008666961
2.089541e-11
-3.722298e-06
9.720872e-07
9.708361e-07
9.709471e-07
9.71693e-07
-0.0008665341
0.0008663748
1.68443e-11
-3.725763e-06
9.718356e-07
9.706612e-07
9.708751e-07
9.716723e-07
-0.0008662186
0.0008660673
-1.151608e-11
-3.733868e-06
9.718507e-07
9.70728e-07
9.708967e-07
9.721477e-07
-0.0008659204
0.0008657801
-3.393405e-11
-3.747027e-06
9.724461e-07
9.712085e-07
9.714891e-07
9.732669e-07
-0.0008656452
0.0008655185
-1.570971e-11
-3.765439e-06
9.736064e-07
9.724236e-07
9.728001e-07
9.751534e-07
-0.0008653979
0.0008652864
1.146102e-11
-3.788461e-06
9.756273e-07
9.743245e-07
9.748188e-07
9.776569e-07
-0.0008651813
0.0008650863
1.216817e-11
-3.815261e-06
9.782003e-07
9.769141e-07
9.774718e-07
9.807335e-07
-0.000864998
0.0008649204
-1.82782e-11
-3.845346e-06
9.813988e-07
9.800786e-07
9.807519e-07
9.845204e-07
-0.0008648499
0.0008647906
-1.963586e-11
-3.878945e-06
9.852693e-07
9.83884e-07
9.846318e-07
9.886905e-07
-0.0008647387
0.0008646983
5.415789e-12
-3.914852e-06
9.894804e-07
9.880936e-07
9.889092e-07
9.931245e-07
-0.0008646657
0.0008646449
2.364608e-12
-3.952331e-06
9.939787e-07
9.926205e-07
9.934888e-07
9.979545e-07
-0.0008646318
0.0008646305
6.098357e-13
-3.991289e-06
9.98872e-07
9.974606e-07
9.983684e-07
1.00288e-06
-0.0008646369
0.0008646545
1.734218e-11
-4.029971e-06
1.00381e-06
1.002386e-06
1.003329e-06
1.007758e-06
-0.0008646798
0.0008647154
2.381748e-11
-4.067762e-06
1.008708e-06
1.007326e-06
1.008289e-06
1.012502e-06
-0.0008647584
0.0008648105
1.664938e-11
-4.103213e-06
1.013471e-06
1.012087e-06
1.013056e-06
1.017001e-06
-0.0008648693
0.0008649359
5.265422e-12
-4.135855e-06
1.018005e-06
1.016625e-06
1.017642e-06
1.021208e-06
-0.0008650086
0.0008650875
-4.470978e-12
-4.165105e-06
1.022242e-06
1.020891e-06
1.02194e-06
1.024769e-06
-0.0008651716
0.0008652595
-9.015461e-12
-4.188583e-06
1.025844e-06
1.024472e-06
1.025594e-06
1.027164e-06
-0.0008653516
0.0008654447
-1.446429e-11
-4.203385e-06
1.028323e-06
1.026851e-06
1.027976e-06
1.027679e-06
-0.0008655408
0.0008656336
-1.831044e-11
-4.205521e-06
1.029042e-06
1.027317e-06
1.028654e-06
1.024807e-06
-0.0008657236
0.0008658063
-1.018097e-11
-4.18417e-06
1.026301e-06
1.024456e-06
1.025968e-06
1.013269e-06
-0.0008658772
0.0008659334
4.281855e-12
-4.108623e-06
1.013232e-06
1.012992e-06
1.012981e-06
9.711549e-07
-0.0008659827
0.0008660555
8.015164e-12
-3.935867e-06
9.605985e-07
9.709204e-07
9.60361e-07
8.649231e-07
-0.0008661906
0.000866422
8.140088e-12
-3.616918e-06
8.281351e-07
8.646431e-07
8.278153e-07
7.38167e-07
-0.0008667137
0.0008670236
9.204839e-12
-3.240433e-06
7.273218e-07
7.379136e-07
7.271018e-07
7.19852e-07
-0.0008673119
0.0008675805
1.224696e-11
-3.155366e-06
7.236905e-07
7.196681e-07
7.235167e-07
7.171875e-07
-0.0008678489
0.0008681155
6.12518e-12
-3.136341e-06
7.178792e-07
7.169679e-07
7.176577e-07
7.1113e-07
-0.0008683853
0.0008686429
-1.68214e-12
-3.10607e-06
7.133006e-07
7.10927e-07
7.1312e-07
7.081315e-07
-0.0008688998
0.0008691401
-1.069871e-12
-3.081221e-06
7.125187e-07
7.07909e-07
7.123101e-07
6.988466e-07
-0.0008693881
0.0008696118
7.623702e-12
-3.030349e-06
7.048477e-07
6.985e-07
7.044401e-07
6.699324e-07
-0.0008698556
0.0008701737
-2.766584e-12
-2.989649e-06
6.668123e-07
6.690962e-07
6.656886e-07
4.932051e-07
-0.000870928
0.0008722183
-1.270023e-12
-3.397767e-06
5.619042e-07
4.913633e-07
5.610081e-07
8.156748e-07
-0.000872963
0.0008721731
-7.354533e-12
-2.225189e-06
6.861925e-07
8.216e-07
6.916393e-07
6.806052e-07
-0.0008718533
0.0008721565
-1.2332e-11
-2.881895e-06
6.021377e-07
6.874562e-07
6.085077e-07
6.513335e-07
-0.0008723989
0.000872722
-9.307271e-12
-2.86051e-06
6.116269e-07
6.572762e-07
6.171106e-07
6.328081e-07
-0.000873038
0.0008734712
3.393628e-12
-2.92498e-06
6.083378e-07
6.377164e-07
6.129364e-07
6.383811e-07
-0.0008739176
0.0008744062
9.327967e-12
-3.027741e-06
6.271238e-07
6.425122e-07
6.310671e-07
6.562985e-07
-0.0008748789
0.0008753709
-4.123854e-13
-3.114858e-06
6.514423e-07
6.6013e-07
6.549718e-07
6.74216e-07
-0.0008758562
0.0008763633
-1.308516e-11
-3.206838e-06
6.725693e-07
6.773793e-07
6.755868e-07
6.929792e-07
-0.000876869
0.0008773934
-9.119714e-12
-3.303059e-06
6.936941e-07
6.956803e-07
6.962707e-07
7.114338e-07
-0.0008779167
0.0008784587
-8.725789e-13
-3.395916e-06
7.132824e-07
7.137655e-07
7.155135e-07
7.291147e-07
-0.0008790006
0.0008795591
2.467019e-12
-3.482536e-06
7.308154e-07
7.312134e-07
7.32849e-07
7.447016e-07
-0.0008801217
0.0008807027
1.071744e-11
-3.569479e-06
7.477302e-07
7.465449e-07
7.495112e-07
7.622414e-07
-0.0008812864
0.0008818858
1.62482e-11
-3.657237e-06
7.651332e-07
7.637677e-07
7.666327e-07
7.782429e-07
-0.0008824896
0.0008831085
7.584778e-12
-3.739973e-06
7.809445e-07
7.795966e-07
7.822874e-07
7.931433e-07
-0.0008837322
0.0008843706
-5.559143e-12
-3.818498e-06
7.956911e-07
7.943547e-07
7.968813e-07
8.071241e-07
-0.0008850141
0.0008856721