/*--------------------------------*- C++ -*----------------------------------*\
| =========                 |                                                 |
| \\      /  F ield         | foam-extend: Open Source CFD                    |
|  \\    /   O peration     | Version:     3.1                                |
|   \\  /    A nd           | Web:         http://www.extend-project.de       |
|    \\/     M anipulation  |                                                 |
\*---------------------------------------------------------------------------*/
FoamFile
{
    version     2.0;
    format      ascii;
    class       volScalarField;
    location    "18";
    object      k;
}
// * * * * * * * * * * * * * * * * * * * * * * * * * * * * * * * * * * * * * //

dimensions      [0 2 -2 0 0 0 0];

internalField   nonuniform List<scalar> 
119952
(
0.03750478
0.03350366
0.03292008
0.03373965
0.03449555
0.03481208
0.03585823
0.03715284
0.03860974
0.04016099
0.04176271
0.0433968
0.04505159
0.04671177
0.04835948
0.04992398
0.0513752
0.05269267
0.05389035
0.05517644
0.05803999
0.05704327
0.0572505
0.05906924
0.05662348
0.05481393
0.0529907
0.05079532
0.04711344
0.02278527
0.08176817
0.07887641
0.07636691
0.07465852
0.07365162
0.07317353
0.07304666
0.07313614
0.07334187
0.07361297
0.07118105
0.07234309
0.07512662
0.07848073
0.08182579
0.08492795
0.08768731
0.09005791
0.09203456
0.1011876
0.1024463
0.103176
0.1034882
0.1035276
0.1034912
0.1033086
0.1030124
0.1025707
0.102156
0.1017026
0.1010107
0.1003575
0.09973664
0.0991235
0.09848309
0.09782437
0.09718367
0.09651515
0.09772277
0.09723887
0.09661874
0.09695877
0.09774097
0.09863526
0.09962169
0.1008967
0.102498
0.1044111
0.1066102
0.1090516
0.1116693
0.114371
0.1170375
0.1195293
0.1217231
0.1235028
0.1247593
0.1254071
0.1256274
0.1254267
0.1244243
0.1233522
0.1224763
0.1206537
0.1180333
0.1150905
0.1117049
0.1063075
0.1016135
0.09758491
0.09416519
0.09130733
0.08889911
0.08682823
0.08496439
0.08322865
0.08158795
0.08006761
0.07869147
0.0774838
0.07650002
0.07581372
0.07553898
0.07572266
0.07639023
0.07757642
0.07930805
0.08159814
0.08443412
0.08774438
0.09137786
0.09511263
0.09872388
0.101937
0.1044747
0.1063113
0.1072572
0.1067774
0.1034583
0.09502845
0.09130169
0.09667653
0.09681691
0.09643037
0.1031199
0.111149
0.1161142
0.1166424
0.1125992
0.1054643
0.09747797
0.09001328
0.08363741
0.07827159
0.07356968
0.0693982
0.06576568
0.06268564
0.05993401
0.05746561
0.05522178
0.05322828
0.05148797
0.04997729
0.04866499
0.04752197
0.0465229
0.04563817
0.04483511
0.04409432
0.0434031
0.04274635
0.04211288
0.04149517
0.04088525
0.0402736
0.03966503
0.0390655
0.03848044
0.03791512
0.03737424
0.0368615
0.03637946
0.03593356
0.03552111
0.03513846
0.03478222
0.03444881
0.0341347
0.03383689
0.03355202
0.03327736
0.03301244
0.03275587
0.03250598
0.03226204
0.03202415
0.03179296
0.03156923
0.03135398
0.03114809
0.03095241
0.03076726
0.0305932
0.03042953
0.03027396
0.03013682
0.03009902
0.03002248
0.02982251
0.02954401
0.0292408
0.02893919
0.02865201
0.02838454
0.02813804
0.02791184
0.02770413
0.02751309
0.0273372
0.02717556
0.02702749
0.02689223
0.02677038
0.02666179
0.02656024
0.02646904
0.02639114
0.02632642
0.0262744
0.02623572
0.0262118
0.02620416
0.02620711
0.02622345
0.02625455
0.02629846
0.02635803
0.02643558
0.02653269
0.02665507
0.02679218
0.02688236
0.02719139
0.02763913
0.02822478
0.02893887
0.0296904
0.03036242
0.03088163
0.03121818
0.03136755
0.03133618
0.03113727
0.03079245
0.03033039
0.02978473
0.02919093
0.02858318
0.02798212
0.02739598
0.02683663
0.02631076
0.02582155
0.02537175
0.02496041
0.02458497
0.02423497
0.02390851
0.02361454
0.02335737
0.02313816
0.02295916
0.02282411
0.02273758
0.02270477
0.02272943
0.02316417
0.02348064
0.02381417
0.02411791
0.02445341
0.02485018
0.025324
0.02587933
0.02651151
0.02720541
0.02793466
0.02866367
0.02935146
0.02995455
0.03042992
0.03074324
0.03088362
0.03087661
0.03078286
0.03067755
0.03062054
0.03063615
0.03071631
0.03083467
0.0309561
0.03104497
0.03107285
0.03102022
0.03088701
0.03070114
0.03051824
0.0303718
0.03027518
0.03023885
0.03028232
0.03041353
0.03061667
0.0308137
0.03108257
0.03160585
0.03235064
0.03306263
0.03358896
0.03392435
0.03411849
0.03423004
0.03428208
0.0343062
0.0343026
0.03423908
0.03406904
0.03374963
0.03325367
0.03259941
0.03182714
0.03070552
0.02953214
0.02836519
0.0272421
0.02619545
0.02524976
0.02441544
0.02368738
0.02304973
0.02248567
0.0219825
0.02153175
0.02112712
0.02076321
0.02043552
0.02014043
0.01987481
0.01963571
0.01942035
0.01922598
0.01904977
0.01888897
0.018741
0.01860344
0.01847398
0.01835043
0.01823092
0.01811397
0.01799847
0.01788361
0.01776883
0.0176538
0.01753838
0.01742273
0.01730729
0.01719273
0.01707988
0.01696988
0.01686424
0.01676469
0.01667303
0.01659107
0.01652053
0.01646282
0.01641888
0.0163894
0.01637488
0.01637561
0.01639164
0.01642278
0.0164685
0.01652799
0.01660009
0.01668345
0.01677652
0.01687768
0.01698533
0.01709798
0.0172144
0.0173337
0.0174554
0.01757928
0.01770515
0.01783248
0.01796016
0.0180864
0.01820866
0.0183241
0.01843028
0.01852593
0.01861158
0.01868949
0.01876276
0.01883401
0.01890459
0.01897488
0.01904405
0.01911053
0.01917348
0.01923141
0.01928063
0.01931334
0.01937102
0.01984571
0.1075926
0.1000667
0.09939218
0.1015904
0.1048168
0.1081285
0.1111236
0.1136678
0.1157914
0.1155886
0.1187598
0.1245806
0.1310583
0.1371914
0.1426251
0.1471656
0.1508805
0.1538248
0.1740563
0.1742633
0.1743694
0.1740841
0.173648
0.1732622
0.1729722
0.172755
0.1725749
0.1723053
0.1722991
0.1722115
0.1717879
0.1712389
0.1706339
0.1700021
0.1693641
0.1687191
0.1680502
0.1675978
0.1672359
0.1663874
0.1652662
0.1639585
0.1625172
0.1610321
0.1595722
0.1581774
0.1568602
0.1556221
0.1544571
0.1534514
0.1526086
0.1519294
0.1514256
0.1510892
0.1508845
0.150801
0.1607724
0.1604031
0.1600646
0.1597067
0.1592855
0.1588006
0.158245
0.1576711
0.1570501
0.1562253
0.1550737
0.1535699
0.151753
0.1497056
0.1475362
0.1453268
0.1431653
0.1410947
0.1391504
0.1371501
0.1350373
0.1331972
0.1319476
0.1313049
0.1312674
0.1318999
0.1332413
0.1352776
0.1379581
0.1411945
0.1448609
0.1488022
0.1528377
0.1567685
0.1603956
0.1635384
0.1660523
0.1678414
0.1688841
0.1692173
0.1688417
0.1678882
0.1665754
0.1648101
0.162476
0.1596504
0.1563292
0.1523437
0.147855
0.1432316
0.1385508
0.1338996
0.1293426
0.1249433
0.120772
0.116889
0.1133433
0.1101704
0.1073931
0.1050288
0.1031035
0.1016619
0.1007758
0.1006178
0.1012991
0.1029
0.1054797
0.1090631
0.1136172
0.1190043
0.1249576
0.1311336
0.1371938
0.142828
0.1477556
0.1518557
0.1552599
0.1576984
0.1582919
0.1553454
0.1484687
0.1416454
0.1404988
0.1457156
0.1548179
0.1675886
0.1812467
0.1902682
0.1913008
0.1849689
0.174335
0.1618244
0.1491549
0.1372488
0.126467
0.1169138
0.1086145
0.1014694
0.09530768
0.08994498
0.08526892
0.08120022
0.07767377
0.07463375
0.07201422
0.06975715
0.06781742
0.0661496
0.0647044
0.06343638
0.0623074
0.06128433
0.06033911
0.0594493
0.0585979
0.05777299
0.05696742
0.05617812
0.05540501
0.05465024
0.05391741
0.053211
0.05253518
0.05189319
0.05128777
0.05072048
0.05019107
0.04969794
0.04923844
0.04880878
0.04840319
0.04801851
0.04765149
0.04729915
0.04695907
0.04662968
0.04631132
0.04600265
0.04570287
0.04541226
0.04513091
0.04485971
0.04459806
0.04434728
0.04410626
0.0438781
0.04366203
0.04347032
0.04269956
0.04179619
0.04115482
0.04067403
0.04029276
0.03997445
0.03969652
0.03944387
0.03920553
0.0389732
0.03874076
0.03850391
0.03825974
0.03800644
0.03774375
0.0374723
0.03719217
0.03690517
0.03661397
0.03632193
0.03603266
0.0357495
0.03547473
0.03520998
0.03495588
0.03471224
0.03447808
0.03425197
0.03403208
0.03381566
0.03359883
0.03337627
0.03314096
0.03288426
0.03259653
0.03227641
0.03193651
0.0315709
0.03117432
0.03076431
0.03036911
0.03000987
0.0296957
0.02942713
0.0291997
0.02900764
0.02884603
0.02871156
0.02860116
0.02850962
0.02842833
0.0283488
0.028263
0.02816255
0.02803988
0.02788974
0.02771391
0.02752075
0.02732231
0.02712591
0.02694101
0.02677285
0.02662726
0.02651252
0.02643935
0.02642096
0.02647261
0.0266112
0.02685452
0.02721954
0.02948198
0.03029448
0.03126397
0.03237137
0.03359434
0.03491305
0.03631001
0.0377655
0.03925066
0.04072472
0.04213794
0.04343696
0.04456746
0.04547404
0.04610878
0.04645225
0.04653635
0.0464491
0.04630414
0.04619082
0.04614507
0.04615767
0.04619687
0.0462215
0.04619103
0.04607243
0.04584514
0.045509
0.04509192
0.04464319
0.04418361
0.04371954
0.04324637
0.04275233
0.04221792
0.04161621
0.04093123
0.04018003
0.0394
0.03861508
0.03782787
0.03704447
0.03628746
0.03558745
0.0349755
0.03447675
0.03410722
0.03387365
0.03377266
0.03379005
0.03389896
0.0340615
0.03422184
0.03433345
0.03434467
0.03415649
0.03372717
0.03307982
0.03226324
0.03134369
0.03039203
0.02946593
0.0285976
0.02779855
0.02706926
0.02640488
0.02579857
0.02524355
0.02473388
0.02426455
0.02383126
0.02343014
0.02305762
0.02271043
0.02238545
0.02207975
0.02179066
0.02151582
0.02125332
0.02100172
0.02076003
0.02052767
0.02030445
0.02009054
0.0198864
0.01969265
0.01951003
0.01933941
0.01918175
0.01903806
0.01890942
0.01879702
0.0187021
0.01862593
0.01856965
0.0185343
0.01852075
0.01852961
0.0185612
0.01861568
0.01869312
0.01879346
0.01891648
0.01906168
0.01922821
0.01941487
0.01962012
0.01984218
0.02007909
0.02032884
0.02058937
0.02085862
0.02113469
0.02141589
0.02170079
0.02198811
0.02227651
0.02256417
0.02284843
0.0231256
0.0233912
0.02364052
0.0238696
0.02407631
0.02426116
0.02442717
0.02457874
0.02472002
0.02485391
0.02498204
0.02510565
0.02522573
0.02534468
0.02546636
0.02559733
0.02574451
0.02591605
0.02611199
0.02629563
0.05618817
0.06154349
0.06769735
0.07428499
0.08138985
0.08924547
0.09810288
0.1085106
0.1227728
0.1442718
0.2225008
0.2386494
0.2524204
0.2655893
0.277941
0.2895325
0.3006145
0.3104311
0.3194029
0.3810445
0.3911858
0.3974802
0.400887
0.4021688
0.401855
0.4003014
0.3978491
0.3946784
0.3911361
0.3866827
0.3822049
0.3779431
0.373949
0.3701275
0.3663555
0.3625298
0.3585968
0.3547301
0.349706
0.3446676
0.3395864
0.3345843
0.3296942
0.3249127
0.3202455
0.3157061
0.311302
0.3070892
0.3029117
0.2987419
0.2946022
0.2904849
0.2864351
0.282499
0.278705
0.2750675
0.2846989
0.281175
0.2776356
0.2741949
0.2708955
0.2677516
0.2647593
0.2618631
0.2590212
0.2561956
0.2533568
0.2505869
0.2479555
0.245466
0.2431007
0.2408362
0.2386383
0.2364935
0.2344134
0.2323775
0.2303584
0.2283148
0.2261429
0.2237764
0.2212452
0.218632
0.216018
0.2134384
0.2109079
0.2084708
0.2061416
0.2039451
0.2019318
0.2001699
0.1987011
0.1975297
0.1965776
0.1957599
0.1950559
0.1943993
0.193742
0.1930612
0.1923693
0.191729
0.1911554
0.1905102
0.1896777
0.1885551
0.187034
0.1850668
0.1826831
0.1799634
0.177029
0.1739942
0.1709824
0.1680424
0.1652384
0.1624988
0.1598937
0.1575666
0.1555974
0.1542446
0.1537246
0.1541141
0.1554638
0.1577711
0.1609733
0.1649486
0.169522
0.1744796
0.1795638
0.1844907
0.1890054
0.1928779
0.1959267
0.1980394
0.1991851
0.1994194
0.1988425
0.1975984
0.1958345
0.1935965
0.1908765
0.1876855
0.1840281
0.1798661
0.1752446
0.1703564
0.165271
0.1600384
0.1547665
0.1495645
0.1445369
0.1397787
0.1353749
0.1313993
0.1279134
0.1249747
0.1226481
0.1210144
0.1201813
0.1203282
0.1216505
0.1242522
0.1281935
0.1334693
0.1399696
0.1474235
0.1553789
0.1633327
0.1708492
0.1775696
0.1831943
0.1875068
0.1906345
0.192388
0.1921379
0.1885826
0.1814814
0.1723711
0.1633296
0.1572642
0.156508
0.1616207
0.170109
0.1782174
0.1843536
0.1875576
0.1867259
0.1816114
0.1730263
0.1623458
0.1509617
0.1398284
0.1295091
0.12031
0.1122389
0.1052071
0.09912803
0.09388077
0.08934622
0.08543586
0.0820799
0.07922375
0.07680801
0.07476958
0.07304139
0.0715625
0.07028088
0.06915004
0.06812981
0.06718755
0.06629803
0.06544305
0.06461082
0.06379505
0.06299399
0.06220932
0.06144503
0.06070647
0.0599994
0.059329
0.05869939
0.05811296
0.0575702
0.0570699
0.05660944
0.05618529
0.05579333
0.05542932
0.05508931
0.05476967
0.05446728
0.05417929
0.0539024
0.05363641
0.05338307
0.05314256
0.05291575
0.05270312
0.05250572
0.05232449
0.05215992
0.05200893
0.05186935
0.05173404
0.0515464
0.0513984
0.05127485
0.05116648
0.05106781
0.05097486
0.05088367
0.05078996
0.05068949
0.05057869
0.05045482
0.05031576
0.05015983
0.04998588
0.04979376
0.04958453
0.0493604
0.04912427
0.04887937
0.04862897
0.04837602
0.0481229
0.04787212
0.04762486
0.0473813
0.04714132
0.04690502
0.04667286
0.04644538
0.04622137
0.04599521
0.04576024
0.04550885
0.0452329
0.04492483
0.04457906
0.04419096
0.04375557
0.04327285
0.04274665
0.042182
0.0415837
0.04095627
0.04030428
0.03963285
0.03894833
0.03825879
0.03757377
0.03690351
0.03625849
0.03564851
0.03508149
0.03456241
0.03409283
0.03367123
0.03329385
0.0329561
0.0326535
0.03238241
0.03214021
0.03193427
0.03178254
0.03169919
0.03169397
0.03178072
0.03197646
0.03230122
0.03277522
0.03342007
0.03425346
0.0352922
0.03652225
0.03792979
0.03949044
0.04117714
0.04296528
0.04483237
0.04675068
0.04867829
0.05055705
0.0523208
0.05390603
0.05525459
0.05631012
0.05702543
0.05738722
0.05744566
0.05732275
0.05717056
0.0570939
0.05711011
0.05717869
0.0572469
0.05726812
0.05720949
0.05704907
0.0567729
0.05638408
0.05591553
0.05542034
0.05492758
0.05443633
0.05392572
0.05336994
0.05274166
0.05201968
0.05120424
0.05031734
0.04938154
0.04840003
0.0473643
0.04627619
0.0451528
0.04402163
0.04291213
0.04184775
0.04084194
0.03990131
0.03902823
0.03822502
0.03749523
0.03684284
0.0362661
0.0357584
0.03529042
0.03482508
0.03433257
0.03378455
0.03316415
0.03247937
0.0317571
0.03102758
0.03032243
0.02966599
0.02906108
0.02850447
0.02799153
0.0275178
0.02707952
0.0266736
0.02629728
0.02594784
0.02562256
0.02531854
0.02503273
0.02476224
0.02450445
0.02425709
0.0240183
0.02378673
0.02356146
0.02334202
0.02312843
0.0229211
0.02272083
0.02252873
0.02234617
0.02217481
0.02201654
0.02187346
0.02174781
0.02164189
0.02155796
0.02149807
0.021464
0.02145713
0.0214785
0.02152882
0.02160837
0.02171713
0.02185491
0.02202141
0.02221604
0.02243786
0.02268552
0.02295726
0.02325105
0.02356468
0.02389584
0.02424219
0.02460136
0.02497099
0.02534886
0.02573291
0.0261213
0.0265122
0.02690347
0.02729204
0.02767351
0.02804212
0.02839138
0.02871507
0.02900853
0.02927005
0.02950178
0.02970919
0.02989888
0.03007597
0.03024355
0.03040327
0.03055681
0.03070663
0.0308574
0.03101495
0.03118795
0.03137799
0.03158985
0.03180589
0.03199766
0.04301995
0.04941195
0.05522661
0.08687831
0.1183085
0.1577026
0.183568
0.2093656
0.2336052
0.2564948
0.2769913
0.294964
0.3123321
0.3298346
0.3470184
0.3636677
0.380098
0.3963166
0.4122855
0.4280121
0.4433886
0.4576595
0.4706369
0.4824901
0.4933267
0.5028872
0.5108074
0.5170547
0.5212309
0.5234931
0.5232704
0.5346955
0.5318435
0.5282583
0.5241301
0.5195576
0.5146507
0.5095049
0.5041703
0.4987036
0.4931596
0.4875248
0.4818343
0.4760888
0.4702996
0.4643712
0.458222
0.4519234
0.4455168
0.4390213
0.4324369
0.4258397
0.4192567
0.4126944
0.4061453
0.3996119
0.3931236
0.386747
0.3805433
0.3745422
0.3687373
0.3630703
0.357478
0.351949
0.3465258
0.3412852
0.3362728
0.3314492
0.3266025
0.3218952
0.3172824
0.3127857
0.3084951
0.304504
0.300837
0.2974216
0.2941412
0.2908979
0.2876518
0.2844628
0.2814299
0.278613
0.2760024
0.2735464
0.2711786
0.2688647
0.2666254
0.2644909
0.2624431
0.2603676
0.2580926
0.2555079
0.2526439
0.2496269
0.2465895
0.2436013
0.2406836
0.2378497
0.2351219
0.2325391
0.2301697
0.2281121
0.226444
0.2251548
0.2241663
0.2233812
0.2227302
0.2221127
0.2214689
0.220816
0.2202483
0.2197076
0.2191378
0.2185075
0.2177234
0.216642
0.2151144
0.2130487
0.2104442
0.2073779
0.2039772
0.2003788
0.1967151
0.1930782
0.1895511
0.1861828
0.1830514
0.1802871
0.1780291
0.1764263
0.1757963
0.1763315
0.1781048
0.1811154
0.1852699
0.1904159
0.1963347
0.2027588
0.2093635
0.2157629
0.2215695
0.22644
0.2301249
0.2324963
0.2335511
0.2334031
0.2322542
0.2303462
0.2278854
0.2249654
0.2216112
0.2177811
0.2134565
0.2086136
0.2032993
0.1976362
0.1917525
0.1857472
0.1797341
0.1738378
0.1681712
0.1628247
0.1578876
0.1534618
0.1496381
0.1465071
0.144171
0.142755
0.1424189
0.1433855
0.1458908
0.1500332
0.155835
0.1632489
0.1720727
0.1818739
0.1920064
0.2017851
0.2106382
0.2181426
0.223958
0.2278012
0.2297376
0.2297655
0.2274556
0.2221224
0.2137657
0.2028003
0.189985
0.1775994
0.1682351
0.1629824
0.1618321
0.164149
0.1680831
0.171852
0.1738415
0.1733591
0.1701641
0.1644545
0.1566915
0.1476896
0.1383873
0.1294638
0.1212648
0.1139222
0.1074231
0.1017073
0.09670997
0.09237714
0.08867097
0.08553965
0.08291358
0.08071976
0.07889407
0.07736946
0.07608064
0.07496979
0.07398744
0.07309351
0.0722569
0.07145503
0.0706731
0.06990323
0.06914325
0.0683953
0.06766454
0.0669581
0.06628369
0.06564817
0.06505664
0.06451192
0.06401441
0.06356247
0.06315282
0.06278123
0.06244316
0.06213425
0.06185056
0.06158857
0.0613453
0.06111841
0.06090648
0.06070928
0.06052753
0.06036213
0.0602141
0.06008395
0.05997249
0.05988085
0.05980822
0.05975348
0.05971503
0.05968989
0.05967193
0.05966164
0.05965909
0.05966423
0.05967602
0.05969143
0.05970528
0.05971132
0.05970386
0.05967876
0.05963318
0.05956485
0.05947182
0.05935312
0.05920954
0.05904376
0.05885955
0.05866104
0.05845223
0.05823682
0.05801778
0.05779708
0.05757535
0.05735205
0.05712637
0.05689804
0.05666747
0.05643505
0.05619957
0.05595802
0.05570735
0.05544179
0.05515444
0.05483654
0.05447896
0.05407593
0.05362426
0.05312232
0.05257111
0.05197352
0.05133285
0.05065251
0.04993603
0.04918686
0.04840861
0.04760553
0.04678316
0.04594851
0.04511019
0.04427843
0.04346438
0.04267911
0.04193242
0.04123209
0.04058384
0.03999153
0.03945763
0.03898381
0.03857157
0.03822294
0.03794077
0.03772788
0.03760246
0.03759886
0.03773756
0.03803892
0.03852538
0.03921848
0.04013647
0.04128999
0.04267821
0.04428504
0.04608006
0.04802324
0.0500766
0.05221311
0.05441291
0.05664721
0.05886179
0.06097834
0.06291684
0.06461409
0.06602037
0.06708487
0.06776042
0.06803794
0.06798529
0.06775528
0.0675364
0.06744915
0.06748233
0.06755594
0.06759643
0.06756013
0.06743933
0.06722866
0.06691127
0.0664787
0.06596114
0.06542446
0.06490975
0.06440432
0.06386735
0.06326023
0.06255414
0.06173723
0.06082404
0.05984694
0.0588339
0.0577878
0.05668912
0.0555212
0.05428869
0.05301407
0.05172308
0.0504332
0.04915086
0.04787596
0.04660717
0.04534565
0.04409719
0.04287295
0.04168759
0.0405571
0.03949411
0.03850683
0.0375921
0.03673319
0.03590976
0.03511102
0.03434045
0.03360869
0.03292383
0.0322923
0.03172805
0.03122328
0.03076772
0.03035372
0.02997572
0.0296296
0.0293119
0.02901929
0.02874837
0.02849566
0.0282578
0.02803188
0.02781518
0.0276053
0.02740044
0.02719941
0.02700146
0.02680636
0.02661429
0.0264259
0.02624216
0.02606439
0.02589423
0.02573369
0.02558514
0.02545129
0.02533506
0.02523942
0.0251672
0.02512091
0.02510272
0.02511426
0.02515675
0.02523114
0.02533814
0.02547821
0.02565163
0.02585839
0.02609797
0.02636927
0.02667061
0.02699991
0.02735487
0.02773314
0.02813233
0.02854999
0.02898355
0.02943028
0.02988744
0.03035241
0.03082276
0.03129606
0.03176918
0.0322375
0.03269437
0.03313147
0.03354007
0.0339126
0.03424423
0.0345343
0.03478734
0.03501212
0.03521799
0.03541118
0.03559464
0.03576979
0.03593839
0.03610396
0.03627363
0.03645643
0.03666095
0.03689002
0.03713682
0.03738936
0.0376028
0.02145278
0.02407568
0.02665476
0.0360291
0.04830772
0.06922705
0.0838389
0.0992964
0.1158381
0.1326056
0.149936
0.1689121
0.1891972
0.2099752
0.231568
0.2557064
0.2929879
0.3108457
0.3291166
0.3477475
0.3670198
0.386228
0.4046475
0.4217599
0.438128
0.4538571
0.4690165
0.4835499
0.4973769
0.5104681
0.5225273
0.5334318
0.5421062
0.5487233
0.5534387
0.5561376
0.5564647
0.5547689
0.5514193
0.5467907
0.5415088
0.5354389
0.5274327
0.520271
0.5135936
0.5072177
0.5011663
0.4954701
0.4901268
0.4850967
0.4803333
0.4757874
0.4713829
0.4670529
0.4627305
0.458392
0.453993
0.449529
0.4448794
0.439867
0.4346665
0.4293633
0.42403
0.4187131
0.4134211
0.4081222
0.4027796
0.3973983
0.3920505
0.3868491
0.3818741
0.3771229
0.3725065
0.3679147
0.3632848
0.3586588
0.3541509
0.3499011
0.3459177
0.3421291
0.3384062
0.3346295
0.3308037
0.3271067
0.3237593
0.320836
0.3182176
0.315718
0.3131793
0.3105133
0.3078098
0.3052733
0.3030241
0.3010116
0.2991222
0.297243
0.2953255
0.2934476
0.2916816
0.2899802
0.2881625
0.2860012
0.2833845
0.2804233
0.2772514
0.2740371
0.2708873
0.2678201
0.2648357
0.2619618
0.2592599
0.2568656
0.2549302
0.2535305
0.252605
0.2520042
0.2515864
0.251219
0.250806
0.2503598
0.2499752
0.2495319
0.2490071
0.2483785
0.2476069
0.2466133
0.2452655
0.243411
0.2409472
0.2378668
0.2342521
0.2302437
0.2260016
0.2216778
0.2173982
0.2132768
0.2094107
0.2059106
0.2029263
0.2006282
0.1992078
0.1989411
0.2001624
0.2029811
0.2074157
0.2133866
0.2206978
0.2290411
0.2380554
0.247306
0.2562152
0.2641306
0.2705064
0.2749791
0.2774203
0.2779088
0.2767347
0.2743275
0.27117
0.2676
0.2637095
0.2593952
0.2544638
0.248854
0.2425526
0.2356635
0.228368
0.2208829
0.2133938
0.2060578
0.1990266
0.1924334
0.1863844
0.1809667
0.1762728
0.1724009
0.1694601
0.1675826
0.1669325
0.1677161
0.1702104
0.1746781
0.1812013
0.1897526
0.2001976
0.2121818
0.2250048
0.2377094
0.2493509
0.2592359
0.266964
0.2722353
0.2747414
0.2744177
0.2714773
0.2658787
0.2576564
0.2471616
0.2345844
0.2200865
0.2051465
0.1918836
0.1815484
0.1748605
0.171974
0.1715464
0.1716687
0.1711224
0.1693001
0.1659935
0.1612144
0.1551354
0.1481089
0.1405807
0.1329687
0.1256289
0.1187814
0.1125188
0.1068868
0.1018953
0.09754403
0.09381219
0.09066043
0.08803394
0.08586602
0.08409218
0.08263882
0.08143395
0.08041575
0.07953038
0.07873408
0.07799248
0.07728081
0.07658327
0.0758921
0.07520613
0.07452924
0.07386896
0.07323459
0.07263525
0.07207838
0.07156875
0.07110798
0.07069479
0.07032567
0.06999579
0.06969992
0.06943333
0.06919205
0.06897283
0.06877297
0.06859045
0.0684243
0.0682751
0.06814608
0.06803759
0.06795032
0.0678853
0.06784292
0.06782376
0.06782818
0.06785882
0.06791446
0.06799189
0.06808736
0.06819679
0.06831754
0.0684485
0.06858883
0.0687356
0.06888193
0.06901782
0.0691332
0.069221
0.06927784
0.06930207
0.06929168
0.06924451
0.06916032
0.06904235
0.06889661
0.06872977
0.06854756
0.0683547
0.06815498
0.06795078
0.0677425
0.0675285
0.06730623
0.06707422
0.06683339
0.0665869
0.0663382
0.066088
0.06583206
0.06556105
0.06526219
0.06492185
0.06452991
0.06408479
0.06358719
0.06303768
0.06243902
0.06179444
0.06110775
0.06038366
0.05962755
0.05884426
0.05803698
0.05720699
0.05635463
0.05548061
0.05458757
0.053681
0.05276891
0.0518614
0.05096947
0.05010398
0.04927515
0.04849226
0.04776364
0.04709681
0.0464988
0.04597683
0.0455389
0.0451943
0.04495436
0.04483255
0.04484679
0.04504478
0.04545962
0.04611726
0.04703962
0.04823983
0.04971726
0.05145325
0.05340914
0.05553024
0.05775999
0.06005782
0.06240781
0.06480555
0.06722454
0.06959077
0.07179455
0.07374535
0.07540138
0.07674038
0.07772148
0.07828943
0.07843139
0.07823123
0.07786848
0.07755743
0.07742558
0.07742558
0.07743162
0.07736815
0.07722896
0.07704904
0.07683141
0.07653235
0.07610461
0.07555676
0.07496295
0.07438827
0.07382327
0.07321282
0.07251009
0.07168855
0.07074172
0.06969709
0.06860657
0.06751557
0.0664298
0.06531236
0.06412326
0.06285371
0.06152316
0.06015651
0.05876872
0.05736194
0.05593172
0.05447361
0.05298634
0.0514735
0.04994606
0.04842158
0.0469218
0.0454712
0.04409588
0.04281849
0.04164967
0.04058266
0.03960121
0.03869536
0.03786413
0.03710642
0.03641631
0.03578741
0.03523087
0.03473792
0.03429861
0.0339053
0.03355186
0.03323291
0.03294334
0.03267814
0.03243261
0.03220277
0.03198522
0.03177678
0.03157489
0.03137788
0.03118464
0.03099456
0.03080749
0.03062377
0.03044407
0.03026928
0.03010054
0.02993939
0.0297878
0.02964833
0.02952399
0.02941797
0.02933343
0.02927318
0.02923957
0.02923443
0.02925917
0.02931494
0.02940293
0.02952452
0.02968132
0.02987469
0.03010531
0.03037289
0.0306762
0.03101331
0.03138197
0.03177993
0.03220504
0.03265517
0.03312794
0.03362051
0.03412943
0.03465097
0.03518151
0.03571782
0.03625678
0.03679436
0.03732425
0.03783708
0.03832152
0.03876662
0.03916419
0.03951023
0.0398061
0.04005926
0.04028187
0.04048595
0.04067905
0.04086375
0.0410405
0.04121075
0.04137977
0.04155868
0.0417612
0.04199643
0.0422641
0.04254796
0.04283481
0.0430643
0.009159229
0.01066389
0.01184667
0.01767819
0.02443956
0.03338922
0.04077574
0.04914624
0.05821968
0.06786894
0.07843488
0.09086661
0.1044596
0.119587
0.13761
0.1653282
0.1802714
0.195982
0.211977
0.2282233
0.2446579
0.2611804
0.2776392
0.2939097
0.3098399
0.3253804
0.3405082
0.3567687
0.373266
0.3902439
0.4077181
0.4251611
0.4416361
0.4573676
0.4722975
0.4863715
0.4995028
0.5114845
0.5221693
0.5314476
0.5382521
0.542944
0.5450414
0.5442039
0.5409626
0.535593
0.528393
0.5198411
0.5104302
0.5006243
0.4907651
0.4812126
0.4721448
0.4638702
0.4564678
0.449892
0.4441085
0.4391018
0.4348377
0.4312366
0.4281787
0.4255284
0.4231488
0.4209033
0.4187334
0.4165748
0.4143056
0.4116169
0.4086889
0.4056081
0.402492
0.3993901
0.3963278
0.393326
0.3903737
0.3874027
0.3843242
0.3811143
0.3778788
0.3748038
0.3720116
0.3694842
0.3670802
0.36462
0.3620024
0.3592846
0.3566562
0.3543167
0.3523024
0.3504674
0.3486032
0.3465671
0.3444315
0.3425118
0.3411402
0.3403382
0.3397809
0.3391066
0.3380957
0.3367247
0.3352707
0.3341013
0.3333115
0.3326604
0.3319032
0.3309045
0.3297036
0.3284894
0.3273231
0.326009
0.3242146
0.3217293
0.3187636
0.3153362
0.3116204
0.307925
0.304436
0.3011922
0.2982027
0.2955046
0.2931465
0.2911973
0.2898889
0.2894101
0.289468
0.2897247
0.2899411
0.2899328
0.2897549
0.2896517
0.2894355
0.28903
0.2883222
0.2871947
0.2855807
0.2834662
0.2808114
0.2775581
0.2736768
0.2692078
0.2642645
0.2590119
0.2536338
0.2483027
0.2431678
0.2383637
0.234016
0.2302665
0.2272926
0.2253049
0.2245529
0.2253437
0.2281319
0.2330827
0.2402559
0.2496233
0.2608801
0.2735093
0.286988
0.3005923
0.3133063
0.3241353
0.3322839
0.337252
0.3389716
0.3376924
0.334077
0.3290824
0.323742
0.3185671
0.3131617
0.3071634
0.3003237
0.2924751
0.2836587
0.2741523
0.264263
0.2542841
0.2444894
0.2351213
0.2263877
0.2184514
0.21144
0.2054519
0.2005653
0.1968787
0.1945199
0.1936544
0.1944888
0.1972758
0.2023386
0.2099451
0.2201087
0.2326545
0.2472244
0.2631816
0.2793507
0.2942686
0.3068003
0.3163945
0.3229249
0.3263027
0.3263638
0.323093
0.3168453
0.3079616
0.296902
0.2840987
0.269645
0.2540315
0.2384067
0.2238899
0.2114247
0.2018918
0.1957582
0.1919679
0.1885621
0.1845016
0.1795148
0.1737079
0.1672734
0.1603752
0.1531752
0.1458579
0.1386071
0.1315546
0.1248236
0.1185955
0.1129702
0.1079711
0.1036047
0.0998648
0.0967252
0.09413577
0.09203189
0.09033671
0.0889698
0.08785587
0.08692775
0.08612982
0.08541715
0.08475362
0.08411351
0.08348165
0.08285223
0.08222698
0.0816132
0.0810214
0.08046294
0.0799477
0.07948223
0.07906873
0.07870515
0.07838616
0.07810444
0.07785254
0.07762454
0.07741653
0.07722615
0.07705177
0.07689227
0.07674764
0.07662019
0.07651682
0.07644016
0.07639085
0.07637095
0.07638156
0.0764231
0.07649596
0.07660026
0.07673569
0.07690605
0.07710565
0.07732908
0.07757021
0.07782501
0.07809248
0.07837168
0.07865625
0.07893185
0.07917993
0.07938528
0.07954132
0.07964883
0.07970944
0.0797213
0.07968116
0.07959029
0.07945705
0.07929382
0.07911136
0.07891643
0.07871323
0.07850457
0.07829125
0.07807099
0.07783872
0.07758935
0.07732138
0.07703874
0.07674939
0.07646132
0.07617655
0.07588709
0.0755764
0.07522455
0.07481276
0.07432654
0.07375978
0.07312591
0.07244003
0.07171082
0.07094194
0.0701375
0.06930719
0.06846189
0.06761022
0.06675507
0.06589311
0.06501738
0.06412165
0.06320326
0.06226387
0.06130925
0.06034853
0.05939295
0.05845478
0.0575465
0.0566804
0.05586839
0.05512198
0.05445259
0.05387218
0.05339388
0.05303278
0.05280664
0.05273644
0.05284649
0.05316413
0.05374619
0.05462726
0.05582665
0.05734743
0.05917038
0.06125044
0.06351974
0.06589855
0.06831788
0.07074237
0.07317751
0.07565289
0.0781464
0.08055167
0.08272413
0.08457207
0.08609048
0.08730166
0.08817077
0.08861807
0.08861761
0.08827402
0.08779757
0.08739858
0.08716901
0.08704343
0.08689475
0.08667704
0.08644538
0.08626225
0.08611648
0.08591302
0.08554258
0.08498462
0.08431181
0.08361039
0.08288653
0.08210199
0.08122547
0.08022849
0.0791054
0.07788742
0.07664285
0.07544275
0.07430195
0.07316129
0.07194896
0.07064468
0.069274
0.06786771
0.06643892
0.06498398
0.0634917
0.0619526
0.06036253
0.05872288
0.05704421
0.05534751
0.05365719
0.05199921
0.05040497
0.04891137
0.04754923
0.04632437
0.04521519
0.04419849
0.04326625
0.04241552
0.04163965
0.04092899
0.0402775
0.03969654
0.03917848
0.03871599
0.03830226
0.0379307
0.03759476
0.03728812
0.03700507
0.03674104
0.03649252
0.03625644
0.03603026
0.03581225
0.03560131
0.03539678
0.03519862
0.03500716
0.03482282
0.03464602
0.03447733
0.03431781
0.03416931
0.03403452
0.03391673
0.03381929
0.03374516
0.03369657
0.03367502
0.03368129
0.03371584
0.03377942
0.03387369
0.03400136
0.03416585
0.03437025
0.03461612
0.03490313
0.03522958
0.0355931
0.03599141
0.03642262
0.03688523
0.03737774
0.03789801
0.03844264
0.03900684
0.03958508
0.04017198
0.04076297
0.04135436
0.04194166
0.04251694
0.0430678
0.04357951
0.04403933
0.0444396
0.04477862
0.04506108
0.04529807
0.04550456
0.04569434
0.04587634
0.0460522
0.04622004
0.04638079
0.04654344
0.04672673
0.04694996
0.04722091
0.04753015
0.04784913
0.04816391
0.04839717
0.002187671
0.008539312
0.01274864
0.01765885
0.02316015
0.02947559
0.03670325
0.04465614
0.05357296
0.06430226
0.08040611
0.09022852
0.1008815
0.1120918
0.1239055
0.1362642
0.1490988
0.1622945
0.1756892
0.1891462
0.2026404
0.2178261
0.2332501
0.2487553
0.264215
0.2795823
0.2947604
0.3097373
0.3244596
0.3387966
0.3529308
0.3670049
0.3813753
0.3957495
0.4101799
0.4246135
0.4387787
0.4526349
0.4660329
0.4788233
0.4907937
0.5016737
0.5109405
0.5179231
0.5225618
0.5241697
0.5228879
0.518664
0.5116975
0.5024551
0.4914736
0.4792787
0.4664311
0.4534899
0.4409546
0.4292343
0.4186501
0.4094222
0.4016399
0.3952927
0.3902933
0.3865028
0.383794
0.3820297
0.3810589
0.3806782
0.3807142
0.3809512
0.3810172
0.380657
0.3800424
0.3792428
0.3782414
0.3771339
0.3760357
0.3750627
0.3742836
0.3737232
0.3733592
0.3731102
0.3728388
0.3724395
0.3719567
0.371664
0.3718452
0.3725148
0.3734443
0.3742721