/*--------------------------------*- C++ -*----------------------------------*\
| =========                 |                                                 |
| \\      /  F ield         | foam-extend: Open Source CFD                    |
|  \\    /   O peration     | Version:     3.1                                |
|   \\  /    A nd           | Web:         http://www.extend-project.de       |
|    \\/     M anipulation  |                                                 |
\*---------------------------------------------------------------------------*/
FoamFile
{
    version     2.0;
    format      ascii;
    class       volScalarField;
    location    "18";
    object      nut;
}
// * * * * * * * * * * * * * * * * * * * * * * * * * * * * * * * * * * * * * //

dimensions      [0 2 -1 0 0 0 0];

internalField   nonuniform List<scalar> 
119952
(
4.63557e-05
2.943873e-05
2.999804e-05
3.450507e-05
3.800867e-05
3.656653e-05
3.586618e-05
3.540615e-05
3.505445e-05
3.473028e-05
3.4399e-05
3.404996e-05
3.367922e-05
3.328837e-05
3.287592e-05
3.241186e-05
3.188605e-05
3.129395e-05
3.061982e-05
2.986064e-05
3.794847e-05
3.605559e-05
3.524825e-05
4.545635e-05
4.378318e-05
4.262473e-05
4.156735e-05
4.0795e-05
3.964059e-05
2.966413e-05
3.032337e-05
3.311522e-05
3.73715e-05
4.162994e-05
4.603969e-05
5.064354e-05
5.550791e-05
6.055032e-05
6.574111e-05
7.471814e-05
0.0003291599
0.0003808598
0.0004385039
0.0004994788
0.0005618296
0.0006245476
0.0006869852
0.0007484355
0.0008079414
0.001129341
0.001188899
0.001244738
0.001295958
0.001341692
0.001381803
0.001414227
0.00143778
0.001451231
0.001456583
0.001454077
0.001447793
0.001445065
0.001446704
0.001453548
0.00146671
0.001489012
0.001525766
0.001578201
0.00160249
0.001708495
0.001782855
0.00187907
0.001986994
0.002100809
0.00221996
0.002346265
0.002478621
0.002615343
0.002754567
0.002894154
0.003031475
0.003163205
0.003285234
0.003393236
0.003483479
0.00355312
0.003600638
0.003626271
0.00363412
0.003619618
0.003583959
0.003542337
0.003479927
0.003366577
0.003194946
0.002959548
0.002623683
0.002233479
0.002026872
0.001870907
0.001752114
0.001659133
0.00158681
0.00153276
0.001495663
0.001474915
0.00146986
0.001479936
0.001503704
0.001539704
0.001587034
0.001644923
0.001714998
0.001797164
0.001891129
0.001996806
0.002113879
0.002241563
0.002377928
0.002518709
0.002656752
0.002782358
0.002885161
0.002948623
0.002944511
0.00285734
0.002652666
0.002283688
0.001733891
0.001152767
0.0008552058
0.0005996856
0.0007387789
0.0009630904
0.001314182
0.001725593
0.002008567
0.002156907
0.002219786
0.002233018
0.002215006
0.002181054
0.002142547
0.00210205
0.002057079
0.002008861
0.001960643
0.001902631
0.001840809
0.001783818
0.001731409
0.001684351
0.001642641
0.001605613
0.001572429
0.001542423
0.001514901
0.001488739
0.001462813
0.001437122
0.001411583
0.00138596
0.001360128
0.001334044
0.001307451
0.00127921
0.001249845
0.001220361
0.001191415
0.00116348
0.001136887
0.001111823
0.001088343
0.001066727
0.001046734
0.001028
0.001010222
0.0009931316
0.0009764953
0.0009601153
0.0009439183
0.0009277507
0.0009115418
0.0008953367
0.0008791203
0.0008629281
0.0008468147
0.0008308553
0.0008151184
0.0007996656
0.0007845384
0.0007697616
0.0007553404
0.0007412849
0.0007275841
0.0007143548
0.0007033489
0.0005844514
0.0005774369
0.0005471627
0.0005140682
0.0004893475
0.0004699532
0.0004540702
0.0004405597
0.0004286825
0.0004179502
0.0004080308
0.0003987072
0.0003898418
0.0003813591
0.0003732148
0.0003653769
0.0003578172
0.0003506166
0.0003437307
0.0003370403
0.0003306012
0.0003244149
0.0003184733
0.000312719
0.0003071334
0.0003017006
0.0002963358
0.0002910188
0.000285728
0.0002804021
0.0002750037
0.0002694489
0.0002637108
0.0002575547
0.0002502647
0.0002482426
0.000234233
0.0002301681
0.0002269391
0.0002263102
0.0002294314
0.0002356846
0.0002436332
0.0002520579
0.0002603846
0.0002683082
0.0002758294
0.000282979
0.0002898486
0.0002964951
0.0003030172
0.0003095111
0.0003162052
0.0003231658
0.0003302345
0.0003372613
0.000344496
0.0003517753
0.0003593753
0.000367248
0.0003727625
0.0003772526
0.0003819934
0.0003871007
0.0003926516
0.0003987316
0.00040544
0.0004128956
0.0004212159
0.0004305873
0.0005607352
0.0005828604
0.0006074867
0.0006338982
0.000662452
0.0006930801
0.000725709
0.0007601049
0.0007958476
0.0008321816
0.0008679355
0.0009015785
0.0009313034
0.0009551032
0.0009709758
0.0009775071
0.0009747914
0.0009650784
0.0009524428
0.0009412895
0.0009345058
0.0009325616
0.0009340712
0.0009367335
0.0009380537
0.000935933
0.0009288716
0.0009162453
0.0008988827
0.000879461
0.0008620166
0.0008474699
0.0008335902
0.0008188372
0.0008013384
0.0007769154
0.0007400715
0.0006955855
0.0006630751
0.0006517984
0.0006542632
0.0006586981
0.0006624166
0.0006661831
0.0006709673
0.0006771226
0.0006845137
0.0006934801
0.0007038334
0.0007153468
0.000727898
0.0007413556
0.0007553029
0.0007679475
0.0007702098
0.0007882861
0.000794508
0.0008003996
0.0008057591
0.0008105894
0.0008150186
0.0008190584
0.0008224891
0.0008249404
0.0008261347
0.0008260144
0.0008247037
0.0008223815
0.0008192043
0.0008153061
0.0008108088
0.0008058198
0.0008004344
0.0007947424
0.0007888247
0.0007827519
0.0007765914
0.0007704099
0.000764276
0.0007582622
0.000752444
0.0007469055
0.0007417428
0.0007370584
0.0007329534
0.0007295209
0.0007268413
0.0007249794
0.0007239847
0.0007238879
0.0007246975
0.0007264064
0.0007290037
0.000732477
0.0007368056
0.0007419606
0.0007479132
0.0007546331
0.0007620813
0.0007702145
0.0007789941
0.0007883832
0.0007983443
0.0008088355
0.000819807
0.000831199
0.0008429406
0.0008549522
0.0008671489
0.0008794426
0.0008917437
0.0009039696
0.0009160526
0.0009279495
0.0009396481
0.0009511602
0.0009624977
0.0009736372
0.0009844889
0.000994883
0.00100457
0.001013252
0.001020664
0.001026666
0.001031327
0.001034948
0.00103799
0.001040919
0.001044065
0.001047588
0.001051529
0.001055863
0.001060638
0.001066098
0.00107277
0.001081686
0.001094775
0.001116592
0.0009357162
4.350836e-05
4.712904e-05
5.310059e-05
6.039575e-05
6.844062e-05
7.680304e-05
8.522491e-05
9.357157e-05
0.0001027033
0.0004044663
0.0005077304
0.0006203669
0.0007342333
0.0008442828
0.0009484344
0.001045525
0.001135928
0.001220326
0.001751981
0.001833383
0.001918043
0.002002077
0.002085524
0.002168549
0.002250527
0.002330545
0.002408001
0.002481835
0.002554459
0.002624842
0.002692433
0.002759333
0.002825673
0.002891004
0.002954807
0.003016516
0.003075522
0.003119569
0.00314738
0.00317122
0.003192716
0.003212561
0.003232256
0.00325377
0.00327833
0.003306348
0.003338014
0.003374333
0.003415093
0.00346197
0.003515471
0.003575422
0.003641227
0.003711255
0.003782962
0.003853065
0.004582472
0.00463688
0.004684282
0.004722856
0.004751056
0.004767788
0.004772413
0.004768398
0.004754841
0.004722572
0.004667378
0.004596604
0.004517631
0.004439114
0.00436932
0.004314268
0.004278194
0.004261313
0.004261397
0.004269633
0.004289838
0.004330173
0.004402416
0.004507403
0.004641843
0.004804622
0.004994039
0.005206908
0.005439096
0.005685407
0.005939623
0.006194728
0.006443052
0.006676789
0.006888817
0.00707323
0.007225718
0.007343744
0.00742697
0.007476424
0.007491991
0.007477655
0.007437348
0.007363729
0.007244907
0.007074976
0.006848568
0.006560288
0.006244807
0.005931149
0.005615973
0.005309932
0.00502049
0.004754844
0.004520718
0.004324488
0.00417008
0.004058874
0.003990147
0.003961954
0.003971858
0.004017003
0.004093794
0.004207404
0.00436098
0.004555169
0.004789417
0.005061204
0.005364765
0.005689224
0.006018406
0.006333994
0.006618981
0.006856465
0.007025523
0.00709391
0.00702417
0.006740994
0.006135323
0.005137143
0.003930559
0.002896269
0.002213481
0.001435707
0.001353164
0.001484951
0.001698923
0.001999457
0.002251293
0.002426082
0.002574611
0.002740931
0.002923326
0.003119405
0.003307817
0.003399597
0.003439853
0.003469053
0.003490381
0.003505476
0.003516195
0.003524504
0.003531977
0.003539671
0.003547905
0.003556829
0.003566506
0.003576548
0.003586172
0.003594533
0.003600848
0.003604398
0.003604603
0.003601083
0.003593676
0.003582443
0.003567664
0.003549828
0.003529585
0.003507688
0.003484931
0.003462092
0.003439853
0.003418752
0.003399167
0.003381331
0.003365321
0.003351074
0.003338418
0.003327073
0.003316243
0.003305644
0.003295058
0.003284289
0.003273203
0.003261769
0.003250284
0.003238711
0.003227081
0.003215508
0.00320408
0.003192933
0.003182087
0.003171723
0.00316184
0.003152963
0.003145354
0.003143618
0.003004787
0.00285211
0.002749257
0.002677408
0.002625055
0.002585247
0.002553548
0.002526961
0.002503368
0.002481253
0.002459565
0.002437606
0.002414942
0.002391339
0.00236682
0.002341597
0.002315687
0.002289305
0.002262719
0.002236228
0.002210146
0.00218473
0.002160118
0.002136311
0.002113185
0.002090524
0.002068039
0.002045396
0.002022185
0.001997859
0.001971678
0.001942712
0.001909907
0.001872345
0.001829635
0.001782714
0.001732565
0.00167692
0.001616984
0.001556575
0.00149904
0.00144592
0.001397503
0.001353614
0.001314044
0.00127876
0.001247983
0.001222128
0.00120167
0.001186996
0.001178248
0.00117546
0.001178472
0.001186826
0.001199642
0.001215135
0.001232653
0.00125304
0.001277279
0.001305157
0.001336509
0.001371172
0.001409176
0.001450799
0.001496565
0.001547234
0.001603752
0.001667205
0.001738751
0.001819202
0.002271733
0.002398231
0.002535699
0.002682526
0.002836763
0.002996467
0.003159717
0.003324283
0.003487131
0.003644262
0.003791003
0.003922436
0.004033551
0.004119187
0.004174811
0.004198486
0.004193232
0.004168025
0.004135399
0.004106176
0.004085314
0.00407205
0.004062457
0.004051079
0.004032333
0.004001441
0.003955045
0.003892213
0.003815501
0.003729919
0.003639666
0.003549585
0.003460129
0.003367396
0.003263992
0.003141587
0.002998582
0.002845404
0.002694539
0.002550171
0.002411623
0.002280231
0.002159195
0.002051269
0.001957682
0.001877872
0.001810344
0.001753531
0.00170625
0.001668293
0.001640036
0.001621872
0.001613244
0.001613005
0.001619842
0.001631007
0.001643871
0.001657249
0.001670465
0.00168377
0.001698837
0.001717398
0.001739244
0.001763161
0.001788025
0.001812898
0.001837064
0.001860016
0.001881415
0.001901045
0.001918758
0.001934447
0.001948028
0.001959435
0.001968612
0.001975521
0.001980155
0.001982546
0.001982778
0.001980991
0.001977387
0.00197223
0.001965842
0.001958599
0.001950918
0.001943245
0.001936038
0.001929764
0.001924879
0.001921817
0.001920982
0.001922749
0.001927458
0.001935396
0.001946791
0.001961812
0.001980573
0.002003114
0.002029398
0.002059357
0.002092892
0.00212987
0.002170112
0.002213384
0.002259393
0.002307793
0.00235819
0.002410161
0.002463275
0.002517104
0.002571231
0.002625272
0.00267889
0.00273182
0.002783869
0.002834888
0.002884715
0.0029331
0.002979627
0.003023686
0.003064516
0.003101327
0.003133493
0.00316077
0.003183456
0.003202356
0.003218543
0.003233012
0.00324646
0.003259308
0.003271858
0.003284335
0.003297244
0.003311397
0.003328055
0.003348432
0.003374262
0.003406122
0.003437177
3.536723e-05
4.433688e-05
5.816324e-05
7.516068e-05
9.62738e-05
0.000122973
0.0001576687
0.0002040792
0.0002725824
0.0004065695
0.001280118
0.001457148
0.001589139
0.001723869
0.001858028
0.001991157
0.002125427
0.00225546
0.002388661
0.004032836
0.004438147
0.004639422
0.004767694
0.004863963
0.004940785
0.005003077
0.005055291
0.005100163
0.005140548
0.005194505
0.005272676
0.00536072
0.005447505
0.005526344
0.005594452
0.005651359
0.005698022
0.00574059
0.005679368
0.005656386
0.005655419
0.005667814
0.005687445
0.005710357
0.00573432
0.005758239
0.005781324
0.00580331
0.005822371
0.005839068
0.005854461
0.005869454
0.005885168
0.005902182
0.005920333
0.005937922
0.006727024
0.006744482
0.006758323
0.006771689
0.006785833
0.006800902
0.006816453
0.00683122
0.00684465
0.006856634
0.006867411
0.006878801
0.006891839
0.006906082
0.006920665
0.006934712
0.006947291
0.006958099
0.006967111
0.006973105
0.006974419
0.006969826
0.006958199
0.006940282
0.006918839
0.006896998
0.006877096
0.006860233
0.006847251
0.006839662
0.006838352
0.006844234
0.006858371
0.006881508
0.006912907
0.006950604
0.006991145
0.007032979
0.007059782
0.007083335
0.007102037
0.007114812
0.007121278
0.0071234
0.007119877
0.007098198
0.007051484
0.006978665
0.006881188
0.00676451
0.006636895
0.00650745
0.00638533
0.006277846
0.006191689
0.006129622
0.006094606
0.006082552
0.006094746
0.006133924
0.00619476
0.00628561
0.00641468
0.006581364
0.006783866
0.007018445
0.007279275
0.007558705
0.007847779
0.008136842
0.008415534
0.008674047
0.008905564
0.009104966
0.009269029
0.009396396
0.009487477
0.009544293
0.009569516
0.009566735
0.009538881
0.009484568
0.009397689
0.009269798
0.009097744
0.008876797
0.008616806
0.008332359
0.008027177
0.00770515
0.007378363
0.007059676
0.006761485
0.006495336
0.006270644
0.0060939
0.005968679
0.005896448
0.005877388
0.005910735
0.005994566
0.006128193
0.006316639
0.006558881
0.006850738
0.007184209
0.007546419
0.007918708
0.008278024
0.008604299
0.008884091
0.009107432
0.009262826
0.0093273
0.009268442
0.009024212
0.008493298
0.007568358
0.006289703
0.004908195
0.003731132
0.002958937
0.002578886
0.002472785
0.002371639
0.002234782
0.00228125
0.002392992
0.002557299
0.002760755
0.002990783
0.00323385
0.003476694
0.003703839
0.003786702
0.0038563
0.003918544
0.003975954
0.004031008
0.004084994
0.004138776
0.004193231
0.004248904
0.004306319
0.004365386
0.004425331
0.004484888
0.004542681
0.004597345
0.004647554
0.004692164
0.004730314
0.004761489
0.004785542
0.004802682
0.004813449
0.00481865
0.004819295
0.00481651
0.004811458
0.004805249
0.004798867
0.004793118
0.004788594
0.004785661
0.004784489
0.004785076
0.004787298
0.004790927
0.004795697
0.004801339
0.004807592
0.004814228
0.004821004
0.004827392
0.004833572
0.004839976
0.00484676
0.004854073
0.004862062
0.00487085
0.004880716
0.004891568
0.004902988
0.004914161
0.004924627
0.004921092
0.004925328
0.004933948
0.004944844
0.004956683
0.004968537
0.004979654
0.004989367
0.004997103
0.00500242
0.005005002
0.005004623
0.005001109
0.004994355
0.004984353
0.004971263
0.004955404
0.004937183
0.004917034
0.004895363
0.004872495
0.004848666
0.004824285
0.004799519
0.004774318
0.004748539
0.004722044
0.004694735
0.004666498
0.004636893
0.004604709
0.004568576
0.004527005
0.004478522
0.004421893
0.004356304
0.004280996
0.004195269
0.00410007
0.003997153
0.003888293
0.003775069
0.003658929
0.003541297
0.003423659
0.003307661
0.003195135
0.00308801
0.002988203
0.002897552
0.002817645
0.002749653
0.002694207
0.002651384
0.002620774
0.002601592
0.002592808
0.002593202
0.002601419
0.002616056
0.002638063
0.00267005
0.002713686
0.00276966
0.002839094
0.002923408
0.003024349
0.003143616
0.003283017
0.003444446
0.003621786
0.003818946
0.004033369
0.004261299
0.004498705
0.004741848
0.004987258
0.005231113
0.005468495
0.005693386
0.005899491
0.00608111
0.00623319
0.006350813
0.006429716
0.006468421
0.006471152
0.006449445
0.006419351
0.006394017
0.006377926
0.006368228
0.006359464
0.006345313
0.006320273
0.006280012
0.006221184
0.006142269
0.006045101
0.005934626
0.005819058
0.005704849
0.005592305
0.005476235
0.005347827
0.005198342
0.00502464
0.004831317
0.004625898
0.004414102
0.00420062
0.003991069
0.003791144
0.003605171
0.003435045
0.003280115
0.003137823
0.003005378
0.00288077
0.002763696
0.002655511
0.002558641
0.002475103
0.002407007
0.002354181
0.002315619
0.002290525
0.002277376
0.002274474
0.002280286
0.002293117
0.002310756
0.002333695
0.002363308
0.002397979
0.002436042
0.002476133
0.002517197
0.002558444
0.002599273
0.002639199
0.0026778
0.002714703
0.002749554
0.002782009
0.002811761
0.002838555
0.002862198
0.002882574
0.002899654
0.002913496
0.002924256
0.002932191
0.002937653
0.002941076
0.00294297
0.002943912
0.002944535
0.002945517
0.002947567
0.00295141
0.002957759
0.002967295
0.002980628
0.002998282
0.003020683
0.003048165
0.00308097
0.003119222
0.003162963
0.003212184
0.003266805
0.003326657
0.003391455
0.003460801
0.003534194
0.003611058
0.003690769
0.003772684
0.00385615
0.003940525
0.004025198
0.004109614
0.004193301
0.004275875
0.004357005
0.004436341
0.004513394
0.004587439
0.004657487
0.004722384
0.004780996
0.004832451
0.00487643
0.004913387
0.004944514
0.004971342
0.004995201
0.005016971
0.005037168
0.005056168
0.005074391
0.005092561
0.005111767
0.005133503
0.005158819
0.005188827
0.005222132
0.005255087
4.11712e-05
6.822163e-05
0.0001489494
0.0005155928
0.0008982423
0.001650283
0.00221971
0.002914676
0.00370767
0.004368102
0.004860826
0.005263713
0.005649137
0.006009705
0.006353989
0.00666006
0.006945602
0.007209451
0.007454405
0.007691566
0.007927749
0.008156675
0.008316134
0.00840066
0.008455677
0.00849484
0.008317631
0.008010581
0.007792399
0.007630703
0.00794252
0.007232062
0.007280928
0.007318072
0.007383114
0.007478488
0.007600011
0.007745052
0.007914498
0.008101789
0.008302971
0.008526486
0.008757929
0.009009339
0.009277702
0.009449838
0.00948624
0.009517495
0.009542557
0.009561262
0.009572961
0.009578612
0.009578943
0.009574516
0.009565769
0.009553327
0.009538171
0.009521609
0.009504587
0.00948741
0.009469926
0.009451528
0.009431848
0.009411347
0.009391139
0.0093724
0.009355629
0.009341659
0.009309314
0.009279698
0.009252417
0.009228263
0.00920843
0.009193434
0.009182411
0.009173185
0.009163706
0.009152744
0.009140346
0.009128238
0.009118031
0.009109978
0.00910324
0.00909652
0.009088439
0.00907862
0.009067624
0.009055516
0.009041107
0.009021914
0.00899556
0.008961919
0.008923608
0.008884236
0.008846645
0.008812203
0.008781554
0.008755405
0.008734543
0.00871988
0.008712585
0.00871382
0.008723428
0.008739294
0.008758468
0.008778434
0.008796808
0.008811758
0.008822519
0.008829833
0.00883615
0.008836109
0.00882423
0.008797303
0.008751197
0.008682475
0.00859003
0.008476269
0.008346998
0.008210038
0.008073991
0.00794689
0.007836043
0.007746815
0.007683703
0.007648785
0.007644011
0.007671597
0.00773161
0.007822157
0.007951369
0.008122991
0.008334803
0.008581475
0.008854009
0.009142216
0.009435049
0.009721595
0.009991654
0.01
0.01
0.01
0.01
0.01
0.01
0.01
0.01
0.01
0.01
0.01
0.01
0.01
0.01
0.01
0.01000001
0.01000001
0.009909692
0.009617204
0.009309934
0.008999694
0.008699186
0.008420463
0.008174922
0.007973093
0.007822663
0.007728802
0.007694731
0.00772211
0.007811
0.007959808
0.008168621
0.008430763
0.008735275
0.009069091
0.009415291
0.009753275
0.01
0.01
0.01
0.01
0.01
0.01
0.01
0.01
0.01
0.009490231
0.008432089
0.007070461
0.005633136
0.004463646
0.00370717
0.003287818
0.003110396
0.00310131
0.003189193
0.003323044
0.003336733
0.003404247
0.003549883
0.003742958
0.003931786
0.004006515
0.004075019
0.004143893
0.004214528
0.004287666
0.004363553
0.004442496
0.004524915
0.004611521
0.00470328
0.004800391
0.00490203
0.005006779
0.005113031
0.005218791
0.005321784
0.005419825
0.005511005
0.005593821
0.005667254
0.005730798
0.005784461
0.005828725
0.005864476
0.005892904
0.005915403
0.005933461
0.005948545
0.005961981
0.005974871
0.005988052
0.006002081
0.006017268
0.006033721
0.006051405
0.006070208
0.006089976
0.006110545
0.006131744
0.006153425
0.006175482
0.006197871
0.006220659
0.006243939
0.00626794
0.006292826
0.006318663
0.006345542
0.006373546
0.006402444
0.006432096
0.006462254
0.006492533
0.006521751
0.006550327
0.006578493
0.006606379
0.006633961
0.006660962
0.006686838
0.006710904
0.006732515
0.00675118
0.006766556
0.006778369
0.006786387
0.006790476
0.006790688
0.006787286
0.006780681
0.006771341
0.006759741
0.00674633
0.006731495
0.006715509
0.006698491
0.00668038
0.006660999
0.006640153
0.006617644
0.006593197
0.006566288
0.006536222
0.006502558
0.006464344
0.006420331
0.006368865
0.006308131
0.006236841
0.006154117
0.006059442
0.005953105
0.005836094
0.005709656
0.005575155
0.005434077
0.005288066
0.00513894
0.004988615
0.004839209
0.004692991
0.004552335
0.004419634
0.004297154
0.004186848
0.004090193
0.004008127
0.003941087
0.003889077
0.003851782
0.003828662
0.003819066
0.003822319
0.003837659
0.003863812
0.003902511
0.003958582
0.004034375
0.004132027
0.004253788
0.004401652
0.00457702
0.004780115
0.005009213
0.005260968
0.00553024
0.005810824
0.006096847
0.006383755
0.006667987
0.006945594
0.00721098
0.007457233
0.007678021
0.00786885
0.008026526
0.008147748
0.008229234
0.008270131
0.008275256
0.008256756
0.008231425
0.008212585
0.008203019
0.008197846
0.008190629
0.0081754
0.008148776
0.008108135
0.00805041
0.007973171
0.007877193
0.007767755
0.007654019
0.007541678
0.007429837
0.007312544
0.007181415
0.00702872
0.006850592
0.006648457
0.006427577
0.006194521
0.005956028
0.005718919
0.00548953
0.005272347
0.00506889
0.004877682
0.004695111
0.004517015
0.0043402
0.004163521
0.003988131
0.003817106
0.003654632
0.003505343
0.00337312
0.003261118
0.00317133
0.003104208
0.003058921
0.003033656
0.003025819
0.003032189
0.003048944
0.003073265
0.003106588
0.003147119
0.003192828
0.003242178
0.003294007
0.003347405
0.003401611
0.00345594
0.003509751
0.003562423
0.003613369
0.003662067
0.003708046
0.003750894
0.003790307
0.00382609
0.003858147
0.003886493
0.003911255
0.003932676
0.003951101
0.003966974
0.003980838
0.00399333
0.004005186
0.00401722
0.004030307
0.004045337
0.004063173
0.004084617
0.004110373
0.004141023
0.004177023
0.004218749
0.004266498
0.004320483
0.004380856
0.00444768
0.004520877
0.004600196
0.004685217
0.004775376
0.004870019
0.004968439
0.005069908
0.005173675
0.005278976
0.005385043
0.005491136
0.005596586
0.005700819
0.005803331
0.005903579
0.006000836
0.006094061
0.006181916
0.006262932
0.006335763
0.00639946
0.006453752
0.006499295
0.006537652
0.006570756
0.006600161
0.00662681
0.006651236
0.006673846
0.006695169
0.006716167
0.00673824
0.00676299
0.006791513
0.006824039
0.006859196
0.006892459
2.265563e-05
3.698182e-05
5.639229e-05
0.0002457537
0.0004057304
0.000701305
0.0009920232
0.001260261
0.001597326
0.001925819
0.002280695
0.002738815
0.003280236
0.003891143
0.004571771
0.005430265
0.007073284
0.00772588
0.008348368
0.008898097
0.009367025
0.00975254
0.01
0.01
0.01
0.01
0.01
0.01
0.01
0.01
0.01
0.01
0.009503175
0.008953985
0.008444862
0.007973845
0.007561462
0.007229994
0.006964139
0.006759942
0.006560757
0.006444557
0.006502917
0.00644812
0.00645775
0.006528684
0.006631504
0.006762728
0.006922286
0.007112709
0.00732965
0.007567886
0.007833465
0.008122212
0.008451232
0.008808153
0.009199778
0.009622284
0.01
0.01
0.01
0.01
0.01
0.01
0.01
0.01
0.01
0.01
0.01
0.01
0.01
0.01
0.01
0.01
0.01
0.01
0.01
0.01
0.01
0.01
0.01
0.01
0.01
0.01
0.01
0.01
0.01
0.01
0.01
0.01
0.01
0.01
0.01
0.01
0.01
0.01
0.01
0.01
0.01
0.01
0.01
0.01
0.01
0.01
0.01
0.01
0.01
0.01
0.01
0.01
0.009991709
0.009963863
0.009940865
0.009923216
0.009910246
0.009900613
0.009893381
0.009887945
0.009883624
0.009880092
0.009877178
0.009871519
0.009862845
0.009850182
0.009831246
0.009802492
0.009759765
0.009699651
0.009621083
0.00952611
0.00941945
0.009307538
0.009197449
0.009096193
0.009010191
0.008945412
0.008906727
0.008898232
0.008923582
0.008985076
0.009083291
0.009219403
0.009399043
0.009618671
0.009870011
0.01
0.01
0.01
0.01
0.01
0.01
0.01
0.01
0.01
0.01
0.01
0.01
0.01
0.01
0.01
0.01
0.01
0.01
0.01000002
0.01000012
0.01000016
0.01000008
0.01000001
0.01
0.01
0.01
0.01
0.009971973
0.009739107
0.009545884
0.009401465
0.009312745
0.009284357
0.009318554
0.009414794
0.009569019
0.009775177
0.01
0.01
0.01
0.01
0.01
0.01
0.01
0.01000002
0.01000012
0.01000041
0.01000054
0.01000048
0.0100002
0.01000003
0.01000001
0.01000002
0.008922726
0.007604164
0.006320301
0.005312034
0.004617371
0.00419859
0.004002846
0.003952118
0.003976055
0.004032463
0.004100305
0.004171486
0.004242779
0.004312332
0.004379581
0.004443375
0.004504711
0.004569807
0.004642596
0.00472299
0.004811407
0.004908338
0.005014479
0.005130282
0.005255585
0.005389243
0.005529437
0.005673888
0.005819489
0.005963011
0.006101542
0.006232475
0.006353709
0.006463765
0.006561826
0.006647741
0.006721976
0.006785516
0.006839738
0.00688629
0.006926936
0.006963377
0.006997119
0.007029374
0.007061016
0.007092593
0.007124382
0.007156467
0.007188829
0.007221426
0.007254219
0.007287173
0.00732025
0.007353438
0.007386797
0.007420521
0.007455101
0.007490567
0.007527065
0.007564779
0.007603768
0.007644078
0.007685657
0.007728807
0.007773377
0.007818988
0.007865208
0.007911522
0.007957571
0.008003186
0.008048291
0.00809267
0.00813577
0.008176722
0.008214585
0.008248641
0.008278495
0.008303952
0.008324824
0.008340921
0.008352198
0.008358904
0.008361559
0.008360788
0.008357178
0.008351242
0.008343415
0.008334019
0.008323204
0.008310901
0.008296881
0.00828092
0.00826292
0.008242925
0.008221008
0.008197023
0.008170379
0.008139935
0.008104044
0.008060737
0.008008319
0.007946006
0.007873025
0.007788515
0.007692103
0.00758385
0.007464264
0.007334203
0.007194807
0.007047426
0.006893526
0.00673476
0.006572808
0.006409553
0.006247124
0.006087892
0.005934344
0.005788971
0.005654088
0.005531681
0.005423331
0.005330191
0.00525301
0.0051922
0.005147917
0.005120192
0.005109038
0.005114525
0.005136848
0.005176295
0.005233615
0.005314781
0.005423459
0.005562052
0.005732235
0.005934311
0.006166622
0.006425155
0.006703606
0.006994087
0.007288669
0.007581172
0.007868075
0.008147466
0.008416399
0.008669105
0.008897892
0.009097317
0.009265856
0.009403239
0.009507904
0.009577043
0.0096099
0.009611428
0.009593283
0.00957103
0.009556564
0.009550504
0.009546111
0.009537205
0.009520526
0.009495798
0.009461702
0.009414627
0.009350463
0.009268309
0.009172729
0.009072756
0.008972969
0.00887096
0.008760811
0.008635574
0.008488989
0.008317768
0.008123124
0.007910197
0.007685746
0.007456257
0.007227678
0.007005246
0.006792355
0.006589456
0.006394192
0.006202303
0.006009024
0.005810521
0.005604911
0.005392597
0.005176288
0.00496066
0.004751639
0.004555525
0.004378481
0.004226053
0.004102337
0.004009069
0.003945315
0.003908096
0.003893266
0.003896113
0.003911804
0.003936401
0.003970846
0.004013387
0.00406218
0.004115809
0.004173118
0.004233097
0.004294796
0.004357299
0.004419755
0.004481431
0.004541657
0.004599783
0.004655259
0.004707685
0.004756761
0.004802292
0.004844196
0.004882507
0.004917371
0.004949025
0.004977802
0.00500414
0.005028605
0.005051894
0.005074827
0.005098305
0.005123252
0.005150559
0.005181038
0.005215391
0.005254196
0.00529793
0.005347013
0.005401856
0.005462873
0.005530431
0.005604776
0.005685947
0.005773745
0.005867756
0.005967413
0.006072059
0.006181003
0.006293525
0.006408865
0.006526192
0.006644603
0.006763165
0.006880996
0.006997331
0.007111516
0.00722288
0.007330521
0.007433152
0.007529169
0.007616942
0.007695141
0.007762977
0.007820414
0.007868365
0.007908656
0.007943412
0.007974303
0.008002264
0.00802777
0.008051221
0.00807329
0.008095244
0.008118808
0.008145549
0.008176226
0.008210228
0.008246073
0.008277848
2.043809e-05
3.154639e-05
6.282927e-05
0.0001912795
0.0003088233
0.0004942481
0.0006362093
0.0007979807
0.0009896833
0.001176963
0.001396456
0.001680525
0.002004377
0.002388789
0.002886619
0.003851186
0.004308128
0.004797454
0.005310866
0.005846355
0.00640875
0.006988411
0.007568333
0.00813312
0.008665706
0.009158126
0.009622028
0.01
0.01
0.01
0.01
0.01
0.01
0.01
0.01
0.01
0.01
0.01
0.01
0.01
0.009480847
0.008915081
0.00837257
0.007866178
0.007402454
0.006998519
0.006659748
0.006379557
0.006155052
0.005982493
0.005870417
0.005804762
0.005790805
0.005793844
0.005843195
0.005954906
0.006119035
0.006327602
0.00657296
0.006857965
0.007180016
0.007549107
0.007961736
0.008431718
0.008941479
0.009477635
0.01
0.01
0.01
0.01
0.01
0.01
0.01
0.01
0.01
0.01
0.01
0.01
0.01
0.01
0.01
0.01
0.01
0.01
0.01
0.01
0.01
0.01
0.01
0.01
0.01
0.01
0.01
0.01
0.01
0.01
0.01
0.01
0.01
0.01
0.01
0.01
0.01
0.01
0.01
0.01
0.01
0.01
0.01
0.01
0.01
0.01
0.01
0.01
0.01
0.01
0.01
0.01
0.01
0.01
0.01
0.01
0.01
0.01
0.01
0.01
0.01
0.01
0.01
0.01
0.01
0.01
0.01
0.01
0.01
0.01
0.01
0.01
0.01
0.01
0.01
0.01
0.01
0.009966235
0.00991073
0.009870059
0.009850679
0.009858557
0.009899075
0.00997646
0.01
0.01
0.01
0.01
0.01
0.01
0.01
0.01
0.01
0.01
0.01
0.01
0.01
0.01
0.01
0.01
0.01
0.01
0.01
0.01
0.01
0.01
0.01000004
0.01000038
0.01000044
0.01000021
0.01000003
0.01
0.01
0.01
0.01
0.01
0.01
0.01
0.01
0.01
0.01
0.01
0.01
0.01
0.01
0.01
0.01
0.01
0.01
0.01
0.01
0.01
0.01000004
0.0100004
0.0100025
0.01000712
0.01000525
0.01000142
0.01000012
0.01000006
0.01000035
0.01000253
0.01000781
0.009274866
0.008154578
0.007124421
0.006294083
0.005696907
0.005322165
0.005114754
0.005001499
0.004935693
0.004895781
0.004875174
0.004872741
0.004887456
0.004917358
0.004959991
0.005012922
0.005072105
0.005136083
0.005210758
0.005299312
0.005401909
0.005518879
0.005650367
0.005795812
0.005953533
0.006120895
0.006294431
0.00647013
0.006643988
0.006812308
0.006971948
0.007120472
0.007256156
0.007378083
0.007486166
0.007581053
0.007663994
0.007736672
0.007801022
0.007859021
0.007912492
0.007962944
0.008011472
0.008058745
0.00810507
0.008150491
0.008194944
0.008238403
0.008280929
0.008322651
0.008363705
0.008404216
0.008444359
0.00848448
0.008525357
0.008567232
0.008610213
0.00865463
0.00870071
0.008748565
0.008798234
0.008849645
0.00890262
0.008957555
0.009013902
0.009071172
0.009128756
0.009186149
0.009243083
0.00929938
0.009354568
0.009407634
0.009457218
0.00950211
0.009541669
0.009575819
0.009604657
0.009628114
0.009646032
0.009658515
0.009666138
0.009669798
0.009670348
0.009668399
0.009664376
0.009658593
0.009651224
0.009642244
0.009631398
0.009618338
0.009602868
0.009585086
0.009565344
0.009544025
0.009521155
0.00949606
0.009467356
0.009433213
0.009391645
0.009340718
0.009278795
0.009205978
0.009122597
0.009028528
0.008923511
0.008807662
0.008681862
0.008547252
0.008405104
0.008256627
0.008102922
0.00794508
0.00778444
0.007622733
0.007462047
0.007304719
0.007153214
0.007009964
0.006877236
0.006757025
0.006650994
0.006560469
0.006486461
0.006429747
0.00639099
0.006370857
0.006370141
0.006389838
0.006431171
0.006495511
0.006584366
0.006703756
0.006856531
0.007043312
0.007262545
0.007509978
0.007778626
0.008059574
0.008343342
0.008621834
0.008890003
0.009146446
0.009392703
0.009627492
0.00984492
0.01000014
0.0100002
0.01000013
0.01000003
0.01
0.01
0.01
0.01000002
0.01000017
0.0100015
0.01000877
0.01001272