/*--------------------------------*- C++ -*----------------------------------*\
| =========                 |                                                 |
| \\      /  F ield         | foam-extend: Open Source CFD                    |
|  \\    /   O peration     | Version:     3.1                                |
|   \\  /    A nd           | Web:         http://www.extend-project.de       |
|    \\/     M anipulation  |                                                 |
\*---------------------------------------------------------------------------*/
FoamFile
{
    version     2.0;
    format      ascii;
    class       volScalarField;
    location    "18";
    object      omega;
}
// * * * * * * * * * * * * * * * * * * * * * * * * * * * * * * * * * * * * * //

dimensions      [0 0 -1 0 0 0 0];

internalField   nonuniform List<scalar> 
119952
(
275.9098
341.2181
323.7562
289.1862
266.0011
272.4505
282.2964
293.4784
305.7044
318.7375
332.4433
346.7927
361.7813
377.398
393.6129
410.1931
427.0674
444.1989
461.6957
480.5146
405.996
406.6974
411.6801
346.4261
339.1089
333.5707
327.8998
320.9272
308.6303
215.0474
748.5207
625.7216
527.6516
456.4565
402.9573
361.5145
328.3176
301.1424
278.3762
253.4563
216.2506
189.9468
171.3248
157.1252
145.6416
135.9832
127.6408
120.3282
113.9124
89.59874
86.16906
82.88973
79.85462
77.162
74.89571
73.04952
71.64688
70.67839
70.13402
69.94301
69.76876
69.44848
68.94059
68.19416
67.14555
65.69752
63.695
61.15518
59.21378
56.91492
54.19326
51.59933
49.19037
46.95109
44.87544
43.00312
41.35282
39.92254
38.70305
37.67998
36.8366
36.15668
35.6253
35.22575
34.94296
34.75899
34.64922
34.58294
34.56888
34.65191
34.71702
34.82226
35.19507
35.8387
36.94375
38.88786
42.5756
47.59726
50.13317
52.15914
53.74376
55.03315
56.0238
56.64831
56.80716
56.42944
55.50729
54.10207
52.33174
50.32384
48.20315
46.08953
44.04611
42.13453
40.39397
38.85025
37.51779
36.40234
35.50743
34.83704
34.39457
34.18418
34.2178
34.57104
35.48117
37.20638
40.43372
46.75658
59.66829
82.43509
106.7599
119.9224
112.8547
95.3698
77.22401
64.41205
57.80949
54.07854
50.72524
47.22949
44.00799
41.27055
39.03643
37.23584
35.76416
34.54604
33.54292
32.94682
32.55852
32.21496
31.89413
31.60165
31.34463
31.12662
30.94892
30.80995
30.7102
30.65559
30.64992
30.68237
30.74782
30.84242
30.96244
31.10479
31.27097
31.48317
31.73596
32.01142
32.29811
32.5877
32.8742
33.1541
33.42646
33.68582
33.93519
34.18138
34.43027
34.68706
34.95634
35.24253
35.54547
35.86886
36.21605
36.58498
36.97557
37.3867
37.81719
38.26533
38.72962
39.20887
39.70244
40.21038
40.73297
41.2705
41.8227
42.37944
42.84762
45.56397
50.56179
54.50392
57.47099
59.75467
61.57888
63.10039
64.42837
65.63841
66.78269
67.89714
69.00574
70.12381
71.25977
72.41806
73.60133
74.81581
76.04257
77.2705
78.53375
79.82772
81.15046
82.5011
83.89551
85.34339
86.85484
88.43721
90.1091
91.88649
93.7884
95.84608
98.10979
100.6128
103.3864
106.4059
108.2907
108.5968
109.5632
110.9668
112.3936
113.1899
112.9659
111.7689
109.8186
107.3963
104.6834
101.758
98.66957
95.47661
92.24998
89.05664
85.94374
82.94497
80.10158
77.44394
74.97413
72.68229
70.55753
68.58279
66.74354
65.01451
63.37533
61.81923
60.33926
58.92798
57.58048
56.29467
55.06859
53.90292
52.78704
41.31036
40.28519
39.20114
38.04698
36.91349
35.85471
34.89553
34.04705
33.31229
32.69167
32.18518
31.79276
31.51654
31.36263
31.33953
31.45066
31.68229
31.99388
32.3199
32.59099
32.76656
32.85161
32.88433
32.91723
33.00035
33.17008
33.45226
33.8558
34.36156
34.90904
35.40331
35.8382
36.31902
36.92902
37.78968
39.14652
41.36988
44.29895
46.87639
48.49021
49.44592
50.19391
50.70671
50.92347
50.8497
50.55221
50.08239
49.46962
48.73681
47.86362
46.80469
45.52421
44.02693
42.40637
40.7748
38.95225
37.17035
35.43879
33.80923
32.31655
30.98059
29.80915
28.79962
27.94109
27.21792
26.61273
26.10847
25.69017
25.34558
25.06484
24.83993
24.66409
24.53132
24.43603
24.37294
24.33692
24.32292
24.32601
24.34126
24.36357
24.38777
24.4086
24.42082
24.41932
24.39938
24.35685
24.28839
24.19156
24.06505
23.90881
23.72401
23.51285
23.27818
23.02357
22.7532
22.47158
22.18314
21.89213
21.60244
21.31728
21.03918
20.7702
20.51196
20.26573
20.03249
19.81295
19.60753
19.4164
19.23943
19.07631
18.9266
18.78971
18.66484
18.551
18.44701
18.3517
18.26423
18.18454
18.11344
18.05254
18.00413
17.97051
17.95311
17.95158
17.9632
17.9831
18.00546
18.02519
18.03912
18.04583
18.04504
18.03648
18.01795
17.98473
17.92687
17.82461
17.64138
17.34835
17.31913
796.5025
650.5512
561.8625
501.1907
455.4749
418.5458
387.3956
360.4583
335.706
285.7806
233.9033
200.8177
178.4968
162.4946
150.3795
140.7576
132.8257
126.0523
99.3483
95.05013
90.91007
86.95176
83.26347
79.89772
76.85853
74.12643
71.66731
69.42658
67.45031
65.60836
63.80396
62.05806
60.387
58.80385
57.31815
55.93177
54.6412
53.72466
53.13497
52.46795
51.7635
51.03671
50.27981
49.49092
48.67486
47.84051
46.99208
46.11938
45.22779
44.32488
43.41055
42.49271
41.58643
40.71109
39.88528
39.13793
35.0842
34.5929
34.17058
33.8157
33.52635
33.30698
33.15829
33.06585
33.02951
33.08055
33.22501
33.40944
33.59127
33.72421
33.76639
33.68516
33.46396
33.11062
32.65369
32.12223
31.47841
30.76026
29.97162
29.13094
28.27915
27.45271
26.68008
25.9804
25.36416
24.83455
24.3889
24.02077
23.72133
23.47963
23.28347
23.12075
22.98073
22.85501
22.73931
22.63346
22.53629
22.45198
22.39715
22.38133
22.42624
22.56551
22.82656
23.2221
23.67647
24.14905
24.67085
25.21682
25.76294
26.27705
26.71523
27.02956
27.18012
27.14308
26.91456
26.50934
25.95851
25.3079
24.61671
23.91445
23.22851
22.58972
22.0235
21.54885
21.1784
20.91749
20.76258
20.70315
20.72733
20.83114
21.03126
21.40649
22.10366
23.39393
25.80009
30.23965
37.77293
48.90615
62.66054
75.2671
82.02521
83.55351
82.35446
79.14142
73.93165
67.201
60.01814
53.1886
47.14959
42.04245
37.82926
34.39049
31.57533
29.24988
27.30581
25.65842
24.25034
23.03876
21.99159
21.08494
20.29767
19.61218
19.01509
18.49537
18.04275
17.64802
17.30353
17.00265
16.73946
16.50873
16.30584
16.1267
15.96771
15.82559
15.69732
15.58013
15.47159
15.36961
15.27251
15.17899
15.08833
15.00015
14.9142
14.83045
14.74904
14.67018
14.59579
14.52622
14.4615
14.40164
14.34652
14.29583
14.2484
14.204
14.16229
14.12289
14.08545
14.04969
14.01535
13.98208
13.94955
13.91647
13.88144
13.82812
14.21051
14.65448
14.96943
15.19157
15.3493
15.46253
15.54563
15.60921
15.66111
15.70706
15.75106
15.79579
15.84292
15.89337
15.94703
16.00288
16.06097
16.12068
16.18141
16.2425
16.3033
16.36335
16.42259
16.48167
16.5418
16.60456
16.67187
16.74589
16.82936
16.92595
17.04072
17.18025
17.35214
17.56314
17.81586
18.1052
18.43308
18.82672
19.2793
19.76411
20.25905
20.75487
21.24912
21.73967
22.22125
22.68419
23.11412
23.49308
23.80117
24.01829
24.12762
24.11719
23.98275
23.7293
23.37354
22.95197
22.48314
21.96319
21.39104
20.78364
20.15775
19.52553
18.89563
18.27443
17.66668
17.07625
16.50667
15.96157
15.44472
14.96235
12.97775
12.63201
12.32953
12.0675
11.84249
11.65141
11.49154
11.36049
11.25586
11.17502
11.11525
11.07398
11.04919
11.03957
11.04452
11.06405
11.09797
11.14415
11.19702
11.24911
11.29535
11.33524
11.37166
11.40968
11.45516
11.51396
11.59156
11.69232
11.81809
11.96894
12.13947
12.3168
12.49849
12.69596
12.93444
13.24687
13.65019
14.12103
14.62217
15.14216
15.68565
16.24593
16.80601
17.34899
17.86577
18.35948
18.84018
19.3174
19.7935
20.25426
20.66964
21.00136
21.21306
21.2854
21.20248
20.94196
20.51692
19.96069
19.31393
18.61519
17.8899
17.15732
16.44255
15.76631
15.1392
14.56501
14.04337
13.57169
13.14642
12.7638
12.42015
12.11206
11.83639
11.59029
11.37119
11.17667
11.00452
10.85262
10.71896
10.60162
10.49872
10.40836
10.32863
10.25761
10.19336
10.1339
10.0773
10.02164
9.965168
9.90628
9.843625
9.776117
9.702989
9.623834
9.538597
9.447539
9.351206
9.250402
9.146161
9.039562
8.931718
8.823762
8.716825
8.612009
8.510341
8.412742
8.319992
8.232717
8.15138
8.076283
8.007589
7.945318
7.889348
7.839423
7.79519
7.756254
7.722256
7.692942
7.668217
7.648149
7.632918
7.622711
7.617569
7.61723
7.621015
7.627875
7.636602
7.646126
7.655696
7.66483
7.67321
7.680621
7.686624
7.690519
7.691379
7.688526
7.680507
7.666193
7.650358
620.7345
552.8626
496.908
455.4103
423.6895
399.3314
380.5533
366.8665
360.2102
354.8515
173.8127
163.7784
158.841
154.0658
149.5893
145.4092
141.4372
137.6354
133.7163
94.48548
88.1417
85.67452
84.08403
82.68336
81.33424
80.01103
78.69955
77.38546
76.08839
74.44073
72.48785
70.5023
68.64592
66.97511
65.4855
64.14913
62.93356
61.79332
61.57481
60.93425
60.0462
59.03233
57.96878
56.89885
55.84715
54.82684
53.84614
52.91621
52.0255
51.1626
50.32097
49.49096
48.67067
47.86348
47.0759
46.32386
42.32168
41.68964
41.08055
40.49136
39.92075
39.37002
38.84121
38.33328
37.84287
37.36463
36.89262
36.42887
35.97813
35.54345
35.12678
34.72908
34.34984
33.98824
33.64572
33.32483
33.02905
32.75761
32.50021
32.24313
31.97721
31.69959
31.41122
31.11241
30.80184
30.47969
30.14493
29.79808
29.44311
29.08808
28.74349
28.41907
28.11809
27.83457
27.62916
27.4446
27.27979
27.1351
27.01332
26.91537
26.84814
26.83924
26.89898
27.01879
27.18048
27.35849
27.52539
27.65498
27.72433
27.71558
27.61482
27.41481
27.11223
26.71556
26.23468
25.68774
25.11758
24.53932
23.9645
23.41674
22.91669
22.47949
22.11392
21.82234
21.60127
21.44315
21.33718
21.26927
21.22329
21.18381
21.13778
21.0761
20.99453
20.8941
20.77874
20.65473
20.53013
20.41174
20.311
20.24699
20.22788
20.2625
20.33753
20.44515
20.58893
20.77031
20.97572
21.18575
21.37651
21.51985
21.58867
21.56244
21.43078
21.19491
20.86778
20.47366
20.04837
19.63519
19.25874
18.94411
18.71236
18.57815
18.54782
18.61711
18.77005
18.98268
19.23091
19.49722
19.77736
20.10301
20.56813
21.31909
22.62229
24.91724
28.85373
35.11903
43.77482
53.14889
60.68821
65.35977
67.48402
67.52581
66.08191
63.59421
60.1836
55.95027
51.21302
46.37548
41.80091
37.72304
34.20104
31.19831
28.643
26.46084
24.59138
22.98186
21.58759
20.37471
19.3179
18.39709
17.59478
16.89582
16.28611
15.75336
15.28728
14.8788
14.51991
14.20361
13.9238
13.67516
13.45307
13.2535
13.07296
12.90839
12.75717
12.61706
12.48622
12.36313
12.2466
12.13571
12.02973
11.92811
11.83042
11.73633
11.64562
11.55814
11.47374
11.39233
11.31381
11.23818
11.16595
11.09664
11.02961
10.96455
10.90131
10.83966
10.77958
10.72066
10.66323
10.6076
10.55508
10.50517
10.47459
10.43553
10.39226
10.34744
10.30282
10.25953
10.21832
10.17964
10.14378
10.11084
10.08088
10.05386
10.02974
10.00848
9.990013
9.974232
9.960925
9.949858
9.940824
9.93368
9.928389
9.924978
9.923153
9.922839
9.924203
9.927543
9.933202
9.941533
9.952941
9.968178
9.988733
10.0163
10.05275
10.09996
10.15964
10.23323
10.32259
10.42974
10.55417
10.69428
10.84846
11.01535
11.19351
11.38122
11.57617
11.77519
11.97408
12.16763
12.34973
12.51349
12.65188
12.75852
12.82842
12.8585
12.84782
12.79749
12.71058
12.59196
12.44798
12.28575
12.1052
11.90335
11.68123
11.44327
11.19397
10.93808
10.68039
10.42596
10.17968
9.944549
9.74442
9.563437
9.403997
9.26723
9.153109
9.060873
8.989384
8.937042
8.901587
8.879962
8.868697
8.864505
8.864578
8.866601
8.869044
8.871906
8.877191
8.888013
8.905972
8.929268
8.954339
8.978743
9.001844
9.025263
9.051743
9.084229
9.125739
9.179683
9.249727
9.338473
9.439256
9.542117
9.642843
9.745734
9.862259
10.00698
10.19063
10.41483
10.67502
10.96486
11.27555
11.59494
11.91007
12.21069
12.49245
12.75801
13.01601
13.27664
13.54785
13.83112
14.11978
14.39938
14.65236
14.85596
14.99053
15.03921
14.98895
14.83486
14.58102
14.24355
13.84888
13.42746
12.99331
12.55274
12.11899
11.70114
11.30454
10.93192
10.58437
10.26194
9.964115
9.689986
9.43844
9.208234
8.998078
8.806667
8.632719
8.474986
8.332242
8.203301
8.087005
7.982208
7.887762
7.802523
7.725348
7.655099
7.590638
7.530837
7.474594
7.420853
7.368619
7.316989
7.265188
7.212596
7.158764
7.103404
7.04637
6.987674
6.927488
6.866071
6.803755
6.740962
6.678189
6.616
6.554991
6.495755
6.438847
6.38476
6.33391
6.286631
6.243167
6.203668
6.168184
6.136671
6.108995
6.084961
6.064338
6.046898
6.032452
6.020869
6.012085
6.006084
6.00286
6.002352
6.004366
6.008516
6.014246
6.020974
6.028249
6.035787
6.043473
6.051294
6.05931
6.067365
6.075373
6.082399
6.088052
6.090595
6.088893
361.0334
264.5174
370.7742
168.5018
131.7111
95.56091
82.69911
71.83149
63.00594
58.71996
56.98441
56.03724
55.28847
54.88366
54.61426
54.60426
54.72499
54.97182
55.30763
55.64694
55.92869
56.10858
56.59323
57.43479
58.34267
59.19913
59.94828
60.5638
60.97449
61.20189
61.14487
59.55512
59.09377
58.55982
57.95891
57.29754
56.5846
55.82792
55.03613
54.21965
53.38917
52.5464
51.69684
50.84259
49.98866
49.14065
48.30386
47.48344
46.68735
45.91667
45.17274
44.45735
43.76858
43.10342
42.4582
41.82961
41.21583
40.61782
40.03786
39.47781
38.93772
38.41392
37.90117
37.39624
36.89923
36.41385
35.94337
35.48077
35.08341
34.68812
34.29184
33.89432
33.50138
33.1219
32.76231
32.42294
32.09849
31.78259
31.47055
31.16295
30.86521
30.58327
30.31914
30.07154
29.83776
29.61515
29.40411
29.20771
29.02776
28.85947
28.69111
28.5104
28.31186
28.09774
27.87378
27.64363
27.40785
27.16604
26.91863
26.6677
26.41807
26.1782
25.95814
25.7635
25.59423
25.44659
25.31943
25.2064
25.10269
25.00795
24.92582
24.86474
24.83364
24.83801
24.87927
24.95164
25.04234
25.13473
25.21196
25.25906
25.26349
25.21475
25.10389
24.92356
24.66924
24.34149
23.94703
23.50059
23.02614
22.55469
22.10894
21.70771
21.36881
21.10539
20.92497
20.8282
20.80908
20.85654
20.95384
21.07762
21.20136
21.29938
21.35117
21.34457
21.27668
21.15348
20.98733
20.79348
20.58576
20.37313
20.1636
19.96768
19.79129
19.63919
19.5138
19.41689
19.35
19.31405
19.30563
19.31597
19.33183
19.33679
19.31365
19.24746
19.12879
18.95599
18.73633
18.48653
18.23312
18.01369
17.85991
17.79592
17.83973
18.00058
18.27588
18.64747
19.08186
19.53969
19.98571
20.39316
20.74413
21.0392
21.33377
21.71468
22.32482
23.40537
25.35145
28.68276
33.72633
39.78796
45.38099
49.57159
52.02942
52.92891
52.70397
51.71523
50.15736
48.10615
45.61807
42.81517
39.85249
36.86236
33.95992
31.24207
28.77305
26.56975
24.61825
22.89417
21.37277
20.03182
18.853
17.81931
16.91413
16.12209
15.43
14.82517
14.29608
13.83251
13.4254
13.06683
12.7499
12.4686
12.21775
11.99289
11.79018
11.60638
11.4387
11.28483
11.14284
11.01113
10.88838
10.77344
10.66537
10.56334
10.46665
10.37465
10.28682
10.20271
10.12194
10.04422
9.969294
9.896945
9.826999
9.759301
9.693805
9.630298
9.56869
9.508965
9.451122
9.395216
9.341467
9.289893
9.240588
9.193621
9.149679
9.108191
9.068809
9.031307
8.995533
8.961382
8.928776
8.897657
8.867988
8.839753
8.81293
8.78749
8.763399
8.740641
8.719226
8.699169
8.680477
8.663135
8.647112
8.632369
8.618855
8.606508
8.595272
8.585149
8.576247
8.568783
8.563089
8.559587
8.558804
8.561218
8.566991
8.576553
8.590591
8.610097
8.636307
8.670404
8.713559
8.766867
8.830873
8.905531
8.990532
9.0854
9.189423
9.301484
9.419959
9.542836
9.667522
9.790878
9.909243
10.01857
10.11469
10.19362
10.25194
10.28712
10.29763
10.28304
10.24399
10.1821
10.09974
9.999933
9.886435
9.764419
9.635453
9.498063
9.354006
9.205873
9.056723
8.909946
8.769127
8.637865
8.519941
8.417659
8.332378
8.264445
8.213524
8.179059
8.16032
8.155849
8.1628
8.177072
8.194409
8.211376
8.225274
8.233547
8.23411
8.226949
8.21549
8.20604
8.204703
8.212901
8.226524
8.240694
8.252898
8.263833
8.276008
8.291508
8.311535
8.337799
8.373686
8.42257
8.480478
8.539787
8.596064
8.65092
8.71056
8.783567
8.878655
9.001628
9.153356
9.328857
9.51794
9.708337
9.889498
10.05512
10.20402
10.33958
10.46852
10.59903
10.73848
10.89118
11.05711
11.23179
11.40678
11.57008
11.70848
11.80786
11.85373
11.83336
11.73936
11.57383
11.34914
11.08397
10.79844
10.50749
10.21315
9.921225
9.636512
9.36214
9.100079
8.851514
8.617066
8.396931
8.191
7.998954
7.820347
7.654661
7.501303
7.35966
7.229083
7.10893
6.998557
6.897313
6.80454
6.719572
6.641733
6.570344
6.504718
6.444166
6.388002
6.335547
6.286137
6.239141
6.193976
6.150127
6.107162
6.064748
6.022652
5.980716
5.938861
5.897074
5.855393
5.813906
5.772768
5.732205
5.692502
5.653986
5.616996
5.581861
5.548884
5.518319
5.490373
5.465189
5.442852
5.423379
5.406725
5.392775
5.381342
5.372168
5.364956
5.359418
5.355331
5.352568
5.351112
5.351042
5.35248
5.355458
5.359808
5.365199
5.371308
5.377916
5.384959
5.392539
5.400943
5.41038
5.42082
5.431783
5.442059
5.450982
5.455644
324.7903
219.279
166.1569
146.6065
119.0636
98.71176
84.51305
78.79032
72.52002
68.8567
65.74134
61.67343
57.67793
53.96236
50.6517
47.08912
41.42177
40.23434
39.42286
39.0811
39.18211
39.60282
40.19077
40.9307
41.75881
42.64631
43.59523
44.60681
45.68596
46.84083
48.06587
49.35047
50.69785
52.0134
53.27199
54.48131
55.37348
56.00386
56.38483
56.53065
56.51191
56.27205
55.72495
55.10969
54.40695
53.61305
52.75458
51.85572
50.93394
50.00031
49.06441
48.13444
47.21335
46.3041
45.40808
44.5309
43.67505
42.85061
42.05909
41.30458
40.58773
39.90637
39.25898
38.64394
38.0586
37.49826
36.95736
36.43215
35.92318
35.43519
34.97299
34.53728
34.12292
33.7217
33.32668
32.93694
32.55738
32.19694
31.85821
31.54122
31.23746
30.93734
30.63778
30.34786
30.0826
29.85002
29.64545
29.45801
29.2777
29.09846
28.92441
28.76693
28.63249
28.51695
28.41228
28.31093
28.20946
28.11136
28.01885
27.92626
27.8204
27.68785
27.52461
27.33965
27.14083
26.93728
26.73446
26.53285
26.33238
26.13544
25.94751
25.77972
25.64467
25.54923
25.48927
25.45339
25.42977
25.40659
25.37592
25.33982
25.30836
25.27797
25.24699
25.21563
25.18571
25.15823
25.13027
25.09482
25.04367
24.96998
24.86897
24.73734
24.57221
24.37039
24.12804
23.84203
23.51152
23.14062
22.74045
22.32905
21.93124
21.57852
21.29604
21.10282
21.01474
21.04257
21.18815
21.44146
21.78408
22.18902
22.61283
23.00011
23.29885
23.47149
23.50201
23.39349
23.17047
22.86612
22.51885
22.1586
21.79959
21.44369
21.08879
20.73846
20.39737
20.07335
19.77488
19.50903
19.28026
19.0895
18.93337
18.80415
18.69083
18.58145
18.46585
18.33766
18.19657
18.04999
17.91399
17.8141
17.78765
17.86955
18.08029
18.42975
18.91671
19.52435
20.21344
20.92655
21.60567
22.20759
22.70586
23.08094
23.31802
23.43657
23.49819
23.60059
23.91444
24.70285
26.29067
28.94289
32.45835
36.12244
39.31856
41.64745
42.96294
43.40618
43.17563
42.4362
41.28962
39.79241
37.99736
35.97483
33.81805
31.63828
29.51769
27.49108
25.58512
23.82364
22.21528
20.75963
19.45248
18.28597
17.2503
16.33512
15.52889
14.82091
14.20036
13.65652
13.17958
12.76064
12.39183
12.06611
11.77733
11.5202
11.29015
11.08333
10.89651
10.72696
10.57244
10.43104
10.30115
10.18138
10.0705
9.967411
9.871126
9.780774
9.695587
9.614906
9.538181
9.464965
9.394894
9.327671
9.263054
9.20085
9.140867
9.083103
9.027466
8.973864
8.922276
8.872719
8.825294
8.779987
8.736802
8.69574
8.656778
8.619933
8.585225
8.552656
8.522162
8.493563
8.466553
8.440768
8.415909
8.391807
8.368409
8.345673
8.323501
8.301782
8.280494
8.259737
8.239685
8.220489
8.202237
8.184974
8.168715
8.153422
8.138993
8.125292
8.112233
8.099851
8.08835
8.078067
8.06935
8.062439
8.057407
8.054247
8.05304
8.054083
8.05786
8.065032
8.07659
8.093671
8.117289
8.148162
8.186708
8.233159
8.287581
8.349752
8.419055
8.494289
8.573905
8.655924
8.738031
8.817666
8.892123
8.958657
9.014622
9.05764
9.085772
9.097659
9.092623
9.070685
9.032546
8.979513
8.9134
8.836461
8.751351
8.661126
8.568988
8.475378
8.382036
8.291411
8.206157
8.128968
8.062316
8.008095
7.967225
7.939598
7.924628
7.92197
7.931776
7.954075
7.987328
8.027446
8.068714
8.106274
8.137551
8.161058
8.174408
8.174698
8.161519
8.139397
8.116979
8.103352
8.101822
8.106963
8.111325
8.112246
8.111837
8.114014
8.120252
8.12909
8.139127
8.152163
8.172372
8.199082
8.227295
8.253089
8.276642
8.301539
8.333351
8.379302
8.445835
8.535257
8.643247
8.759402
8.871903
8.972377
9.057707
9.129208
9.190952
9.24849
9.307955
9.374995
9.453556
9.545216
9.649011
9.761117
9.874866
9.98155
10.07104
10.13203
10.15267
10.12271
10.03753
9.901332
9.725544
9.523959
9.309338
9.091404
8.872385
8.655514
8.443398
8.237822
8.039997
7.85073
7.670524
7.499633
7.338101
7.185824
7.042633
6.908321
6.782628
6.665247
6.555856
6.454117
6.359671
6.272141
6.191127
6.11621
6.046955
5.982923
5.923671
5.868756
5.817733
5.770148
5.72555
5.683496
5.643572
5.605414
5.568724
5.533283
5.498945
5.465626
5.433281
5.401873
5.371367
5.341748
5.313052
5.285378
5.258891
5.233798
5.210326
5.188693
5.169081
5.151627
5.136413
5.123484
5.112852
5.104492
5.098319
5.09414
5.091623
5.090315
5.08974
5.089526
5.089471
5.089572
5.090024
5.091179
5.09339
5.096796
5.101267
5.106523
5.112316
5.118571
5.125516
5.133715
5.14376
5.155752
5.169145
5.182311
5.194571
5.202354
166.4725
122.7334
188.5533
92.42072
79.13768
67.55558
64.09171
61.58826
58.82658
57.66445
56.1671
54.07036
52.11577
50.06175
47.6717
42.92917
41.84449
40.85124
39.91383
39.03685
38.1756
37.37336
36.68433
36.13738
35.75472
35.52914
35.3884
35.29674
35.40466
35.74632
36.31554
37.06865
37.97143
38.94914
39.98284
41.07019
42.21648
43.42091
44.70119
46.07155
47.49214
48.90359
50.31336
51.4598
52.36238
53.01742
53.38781
53.4804
53.31415
52.91794
52.3146
51.54802
50.64925
49.6759
48.64943
47.58032
46.48902
45.40004
44.3343
43.30384
42.31382
41.36573
40.45866
39.5913
38.77144
37.99977
37.27397
36.59455
35.96002
35.3655
34.81196
34.29773
33.82068
33.37938
32.97152
32.59123
32.23003
31.88212
31.55037
31.24533
30.97562
30.74148
30.53422
30.34079
30.15191
29.96829
29.79988
29.65832
29.54533
29.45109
29.36221
29.27124
29.18769
29.14001
29.1581
29.23911
29.3455
29.44105
29.50818
29.55533
29.61743
29.72268
29.86173
29.99795
30.10531
30.17477
30.21792
30.25285
30.27677
30.2578
30.15514
29.9586
29.7188
29.45654
29.18375
28.91728
28.66661
28.43446
28.22415
28.04348
27.90349
27.81778
27.81084
27.89332
28.02302
28.15749
28.267
28.32618
28.34591
28.35741
28.34475
28.2995
28.21031
28.06748
27.87213
27.63459
27.36119
27.05767
26.72975
26.38347
26.02473
25.65854
25.28815
24.9144
24.53581
24.15018
23.75633
23.35702
22.96099
22.58365
22.24795
21.98698
21.84156
21.84075
22.01267
22.3867
22.96475
23.70967
24.57494
25.5014
26.39786
27.16165
27.70771
27.98343
27.97838
27.70591
27.2326
26.63397
25.99794
25.38313
24.78017
24.17938
23.57449
22.96113
22.34548
21.74547
21.17786
20.65606
20.19
19.78529
19.44262
19.15745
18.92143
18.72497
18.56029
18.424
18.31924
18.25728
18.25833
18.35194
18.5788
18.97295
19.54166
20.27112
21.13354
22.08841
23.06826
23.98722
24.77724
25.40623
25.8678
26.15699
26.26386
26.19136
25.98462
25.7248
25.54904
25.64059
26.19165
27.38924
29.23593
31.4257
33.59103
35.43884
36.78169
37.53219
37.70112
37.38109
36.66725
35.63112
34.3284
32.81363
31.14991
29.40689
27.64995
25.93689
24.30327
22.75975
21.31791
19.98758
18.77278
17.67404
16.68881
15.81175
15.03569
14.35185
13.75085
13.22336
12.7604
12.35377
11.996
11.68024
11.40046
11.15146
10.92885
10.729
10.54888
10.386
10.23829
10.10399
9.981513
9.869438
9.766428
9.671251
9.582789
9.500069
9.42228
9.348774
9.279032
9.212636
9.14925
9.088628
9.030628
8.975205
8.922387
8.872121
8.824289
8.778774
8.735501
8.694468
8.655744
8.61945
8.585608
8.554082
8.524706
8.497348
8.471996
8.448748
8.427623
8.408325
8.390191
8.372434
8.35449
8.336206
8.317704
8.299041
8.280053
8.260512
8.240427
8.220144
8.200152
8.180818
8.162306
8.144678
8.127951
8.112054
8.096765
8.081768
8.066815
8.051906
8.037355
8.023694
8.011434
8.000768
7.991429
7.982841
7.974436
7.965884
7.957261
7.949284
7.943307
7.940724
7.942692
7.950003
7.963237
7.982987
8.009812
8.043948
8.085029
8.132018
8.183352
8.237156
8.291417
8.344074
8.393102
8.436561
8.472646
8.499749
8.516545
8.522094
8.515914
8.498005
8.468854
8.429395
8.380957
8.325213
8.264159
8.200131
8.135849
8.074297
8.017324
7.967186
7.926193
7.896327
7.878902
7.874198
7.881277
7.89834
7.923823
7.957519
8.00065
8.054432
8.117004
8.182055
8.241599
8.290692
8.329073
8.357832
8.374745
8.375249
8.358007
8.328856
8.298701
8.277262
8.26687
8.261726
8.254458
8.244076
8.235714
8.234402
8.240147
8.247749
8.2515
8.251059
8.250812
8.25274
8.254527
8.253977
8.251447
8.248619
8.249175
8.258836
8.283946
8.328286
8.388465
8.453684
8.51205
8.557158
8.589073
8.61144
8.628792
8.645624
8.666215
8.694417
8.732993
8.78321
8.84513
8.91706
8.994872
9.072509
9.142724
9.19739
9.227311
9.222423
9.174959
9.084505
8.958301
8.806525
8.63874
8.462899
8.284699
8.106127
7.929485
7.756456
7.588248
7.425718
7.269463
7.119887
6.977244
6.841667
6.713172
6.591683
6.477126
6.369381
6.268274
6.173606
6.085164
6.002701
5.925935
5.854551
5.788224
5.726635
5.669482
5.616477
5.567325
5.521704
5.479264
5.439631
5.402436
5.367335
5.334043
5.302375
5.272255
5.243691
5.216717
5.191331
5.167453
5.144966
5.123779
5.103879
5.085343
5.068329
5.053035
5.03965
5.028312
5.019076
5.011923
5.006801
5.003657
5.002443
5.003074
5.005339
5.008795
5.012785
5.016611
5.019759
5.022008
5.023427
5.024357
5.02536
5.027034
5.029767
5.033582
5.038165
5.043146
5.04843
5.054453
5.062228
5.072809
5.086426
5.102189
5.117902
5.132487
5.141658
67.65572
50.53512
48.43586
46.05304
45.0471
43.76567
42.70504
41.77535
40.95665
39.71075
36.79467
36.54908
36.32113
36.10762
35.87637
35.61905
35.37569
35.17489
35.02883
34.92546
34.72597
34.31747
33.92529
33.56345
33.23663
32.95193
32.73076
32.58471
32.52435
32.55249
32.65843
32.84054
33.12327
33.52746
34.07671
34.78171
35.6577
36.64207
37.70081
38.82642
40.02264
41.30356
42.63728
44.04595
45.56608
46.96506
48.17865
49.16291
49.86236
50.25987
50.35281
50.13948
49.63736
48.88264
47.92211
46.8061
45.59124
44.32906
43.05406
41.79475
40.5711
39.39642
38.28544
37.24911
36.29465
35.41937
34.62858
33.91227
33.25592
32.65208
32.09749
31.58743
31.11213
30.67244
30.27161
29.91463
29.60558
29.34829
29.14321
28.9864
28.86881
28.78095
28.72202
28.71762
28.80047
28.96606
29.18523
29.41809
29.63626
29.8408
30.06089
30.33486
30.67517
31.05
31.40719
31.71362
31.97426
32.26769
32.70702
33.35394
34.12198
34.83839
35.39527
35.76962
36.03233
36.32683
36.72798
37.17112
37.53448
37.76344
37.86916
37.92315
37.98253
38.02476
37.95814
37.70124
37.25784
36.73479
36.19034
35.66612
35.182
34.74679
34.36647
34.05183
33.82248
33.70395
33.71531
33.84843
34.08634
34.36199
34.58687
34.71322
34.71742
34.66313
34.56056
34.40789
34.19052
33.88304
33.45772
32.9049
32.24423
31.51547
30.75212
29.97885
29.21557
28.47689
27.77277
27.10941
26.48913
25.91085
25.37217
24.87101
24.4095
23.99579
23.64621
23.38833
23.26561
23.34712
23.69905
24.34983
25.32318
26.587
28.04112
29.59014
31.11342
32.46068
33.50441
34.15858
34.38628
34.20899
33.66127
32.83788
31.87198
30.91514
29.97826
29.05433
28.11718
27.15447
26.1677
25.17336
24.20755
23.29742
22.46263
21.71748
21.07116
20.52691
20.08128
19.72608
19.4527
19.25633
19.13887
19.11087
19.19277
19.41417
19.81104
20.4169
21.23497
22.22419
23.3253
24.48778
25.66921
26.77306
27.6912
28.37666
28.83383
29.09391
29.18062
29.10024
28.86832
28.5188
28.10555
27.71398
27.45769
27.44865
27.82053
28.64807
29.84262
31.20293
32.52138
33.62239
34.3463
34.59519
34.39182
33.82278
32.96762
31.88782
30.63137
29.2429
27.76869
26.25518
24.74514
23.27399
21.87157
20.55425
19.32718
18.19743
17.16942
16.24383
15.41788
14.68607
14.04109
13.47468
12.97813
12.5428
12.16076
11.82476
11.5282
11.26529
11.03117
10.8218
10.63394
10.46496
10.31273
10.17546
10.05149
9.93925
9.837141
9.743625
9.657255
9.576725
9.500975
9.42929
9.361201
9.296365
9.234464
9.175239
9.118587
9.064698
9.013865
8.966159
8.921582
8.880029
8.841339
8.805395
8.772199
8.74188
8.714597
8.690432
8.669416
8.651068
8.634931
8.620858
8.60906
8.599661
8.592068
8.584873
8.576485
8.565968
8.553393
8.539399
8.524312
8.507776
8.489287
8.468958
8.447692
8.426618
8.406417
8.387224
8.368968
8.351567
8.334841
8.31836
8.301516
8.283846
8.265401
8.246808
8.229006
8.212859
8.19858
8.185373
8.171812
8.156522
8.138616
8.117825
8.094801
8.071348
8.049922
8.032074
8.018659
8.010254
8.007772
8.012365
8.02476
8.044662
8.070727
8.100959
8.133207
8.165475
8.195978
8.223182
8.245792
8.262722
8.273074
8.276158
8.271538
8.25907
8.238925
8.211597
8.177898
8.138958
8.096233
8.051529
8.007036
7.965361
7.929491
7.902516
7.886986
7.884902
7.897397
7.924302
7.963711
8.012237
8.066049
8.12266
8.182785
8.249942
8.327097
8.411439
8.492674
8.5598
8.609096
8.644793
8.672144
8.688511
8.686834
8.666155
8.634781
8.605373
8.583356
8.565618
8.546659
8.525742
8.508374
8.500372
8.504268
8.517292
8.530093
8.533409
8.525734
8.512095
8.494232
8.470931
8.443518
8.414718
8.385534
8.357395
8.333546
8.320474
8.324531
8.344224
8.368462
8.385106
8.389927
8.385667
8.377296
8.368941
8.363656
8.363836
8.37156
8.38837
8.414972
8.45174
8.497956
8.550825
8.605717
8.656904
8.69805
8.722229
8.721488
8.687958
8.61889
8.519129
8.396304
8.257501
8.108703
7.954795
7.799042
7.643277
7.489267
7.338318
7.19138
7.049147
6.912141
6.780775
6.655354
6.536054
6.422924
6.315938
6.215032
6.120096
6.031
5.947602
5.869711
5.797067
5.729363
5.666292
5.607584
5.55303
5.502462
5.455708
5.412535
5.372635
5.33564
5.301158
5.26881
5.238294
5.209445
5.182283
5.156989
5.13377
5.112716
5.093722
5.076563
5.061037
5.047061
5.034695
5.024116
5.015556
5.009226
5.005237
5.003547
5.003986
5.006339
5.010428
5.016119
5.023299
5.031731
5.040837
5.049718
5.057446
5.063407
5.067431
5.069733
5.070849
5.07159
5.072823
5.075154
5.07866
5.082854
5.087115
5.09131
5.096159
5.103363
5.114717
5.130605
5.149452
5.167919
5.18412
5.193239
91.33546
38.81963
32.22978
30.8609
30.12177
29.75394
29.67438
29.7607
29.97273
30.27589
30.51291
30.54939
30.58642
30.61196
30.62891
30.63361
30.63517
30.63598
30.62636
30.58766
30.50007
30.38108
30.27785
30.20203
30.15988
30.15433
30.1956
30.28464
30.42249
30.61023
30.8532
31.15951
31.54297
32.01242
32.61307
33.3951
34.33355
35.40905
36.57077
37.80959
39.13969
40.62997
42.09759
43.53437
44.86089
45.97409
46.81273
47.33141
47.50281
47.32034
46.79966
45.97242
44.88688
43.6064
42.19932
40.7362
39.2804
37.8867
36.58347
35.38625
34.29626
33.30634
32.41221
31.61386
30.915
30.30615
29.77885
29.3222
28.91852
28.55309
28.22069
27.91812
27.64846
27.42714
27.27066
27.19526
27.22779
27.40855
27.72711
28.15688
28.66133
29.22019
29.86221
30.74269
31.93086
33.27589
34.61368
35.7957
36.75194
37.54492
38.34263
39.3137
40.48546
41.71885
42.83721
43.74053