/*--------------------------------*- C++ -*----------------------------------*\
| =========                 |                                                 |
| \\      /  F ield         | foam-extend: Open Source CFD                    |
|  \\    /   O peration     | Version:     3.1                                |
|   \\  /    A nd           | Web:         http://www.extend-project.de       |
|    \\/     M anipulation  |                                                 |
\*---------------------------------------------------------------------------*/
FoamFile
{
    version     2.0;
    format      ascii;
    class       volScalarField;
    location    "18";
    object      p;
}
// * * * * * * * * * * * * * * * * * * * * * * * * * * * * * * * * * * * * * //

dimensions      [1 -1 -2 0 0 0 0];

internalField   nonuniform List<scalar> 
119952
(
5776.716
5324.343
5273.324
5382.583
5487.76
5460.616
5465.671
5473.18
5481.267
5486.69
5489.507
5488.867
5484.422
5475.444
5462.776
5444.828
5423.268
5397.032
5359.925
5270.916
5506.834
5340.697
5271.968
5602.982
5560.427
5604.473
5626.736
5727.978
6006.917
6833.413
2909.796
2909.844
2940.9
2977.026
3015.636
3055.359
3096.397
3142.451
3189.454
3211.586
3251.385
3303.438
3351.992
3401.458
3451.553
3502.429
3554.947
3608.331
3664.34
3726.125
3767.841
3814.427
3877.843
3944.034
4010.32
4084.179
4159.91
4238.845
4319.511
4386.761
4463.584
4539.466
4608.025
4672.721
4734.405
4793.843
4855.082
4933.004
5040.371
5021.994
5045.86
5109.701
5152.989
5173.858
5181.569
5191.097
5199.21
5204.418
5206.673
5205.283
5199.856
5190.257
5176.515
5158.834
5137.976
5114.534
5090.443
5073.305
5075.656
5081.131
5077.136
5143.165
5255.592
5281.187
5307.182
5334.045
5303.41
5136.513
5124.07
5183.994
5223.539
5262.867
5301.384
5338.356
5373.623
5406.831
5437.85
5466.774
5493.482
5517.407
5538.073
5555.072
5568.025
5576.625
5580.636
5580.217
5575.766
5567.902
5557.6
5546.286
5535.997
5529.247
5529.8
5541.634
5569.877
5620.281
5697.145
5803.094
5923.908
6007.606
6032.818
6093.404
6076.1
5947.59
5730.143
5518.002
5405.238
5406.312
5471.609
5566.474
5665.178
5755.494
5834.937
5904.79
5966.263
6019.699
6065.984
6105.679
6139.921
6169.228
6193.627
6213.684
6230.07
6243.169
6253.427
6261.258
6267.006
6270.974
6273.293
6274.172
6273.919
6272.662
6270.529
6267.64
6264.13
6260.134
6255.746
6251.069
6246.213
6241.273
6236.337
6231.481
6226.789
6222.334
6218.121
6214.235
6210.714
6207.602
6204.926
6202.713
6201.078
6200.101
6199.652
6199.737
6200.42
6201.68
6203.493
6205.82
6208.612
6211.81
6215.344
6219.135
6223.089
6227.083
6230.948
6234.578
6238.652
6276.51
6281.79
6285.245
6288.816
6292.183
6295.331
6298.264
6300.996
6303.569
6306.005
6308.329
6310.562
6312.726
6314.831
6316.882
6318.878
6320.799
6322.621
6324.387
6326.097
6327.653
6329.058
6330.448
6331.572
6332.534
6333.216
6333.797
6334.216
6334.417
6334.353
6333.965
6333.114
6331.554
6328.573
6322.308
6315.218
6328.685
6339.32
6346.818
6352.904
6359.121
6365.839
6372.918
6380.19
6387.503
6394.774
6401.959
6409.023
6415.934
6422.666
6429.188
6435.459
6441.607
6447.623
6453.502
6459.295
6464.867
6470.332
6475.66
6480.818
6485.783
6490.533
6495.069
6499.371
6503.789
6507.6
6511.086
6514.254
6517.072
6518.803
6500.717
6499.068
6492.026
6490.608
6489.659
6487.494
6484.539
6480.967
6476.723
6471.647
6465.68
6458.811
6451.043
6442.406
6432.977
6422.954
6412.722
6402.832
6393.946
6386.592
6380.996
6377.038
6374.426
6372.86
6372.017
6371.602
6371.49
6371.679
6372.247
6373.302
6375.103
6377.654
6380.997
6385.09
6389.905
6395.474
6401.466
6404.898
6405.465
6408.165
6415.178
6424.795
6433.728
6441.834
6449.143
6455.218
6459.314
6462.489
6465.53
6468.317
6470.697
6472.703
6474.26
6473.897
6470.747
6475.478
6479.362
6480.7
6482.8
6484.93
6487.034
6489.089
6491.149
6493.193
6495.124
6496.846
6498.288
6499.41
6500.198
6500.65
6500.78
6500.605
6500.147
6499.428
6498.473
6497.302
6495.937
6494.396
6492.695
6490.851
6488.879
6486.789
6484.592
6482.296
6479.911
6477.443
6474.9
6472.29
6469.618
6466.892
6464.116
6461.292
6458.422
6455.507
6452.545
6449.536
6446.477
6443.363
6440.2
6436.979
6433.691
6430.324
6426.867
6423.301
6419.608
6415.766
6411.753
6407.546
6403.122
6398.459
6393.537
6388.34
6382.852
6377.067
6370.98
6364.597
6357.925
6350.981
6343.783
6336.351
6328.708
6320.871
6312.868
6304.725
6296.472
6288.139
6279.759
6271.347
6262.888
6254.339
6245.603
6236.483
6226.777
6216.071
6203.656
6188.863
6174.778
6180.953
6243.178
3122.07
3022.993
2936.778
2855.653
2783.933
2722.081
2668.054
2623.486
2585.808
2506.016
2488.965
2466.057
2445.146
2428.252
2417.926
2411.875
2409.334
2408.869
2391.332
2417.004
2408.302
2409.673
2419.049
2428.944
2440.001
2452.486
2464.428
2477.818
2493.894
2493.217
2506.227
2520.422
2533.083
2547.305
2562.787
2579.749
2600.492
2632.14
2642.184
2665.405
2701.858
2739.328
2777.792
2818.24
2860.289
2903.918
2946.42
2989.965
3042.462
3090.549
3138.471
3187.456
3237.485
3288.408
3340.861
3397.059
3396.284
3455.87
3516.381
3578.023
3642.515
3711.263
3783.721
3859.833
3938.347
4019.137
4098.505
4175.015
4249.494
4321.501
4390.703
4457.326
4522.126
4585.487
4646.247
4700.649
4740.682
4772.576
4805.436
4837.355
4861.11
4876.822
4886.533
4893.239
4897.069
4897.339
4893.466
4885.222
4872.645
4855.976
4835.983
4814.092
4792.428
4773.957
4762.317
4760.692
4769.975
4791.69
4828.724
4873.874
4909.269
4927.909
4930.532
4913.735
4886.29
4877.889
4900.646
4936.277
4973.812
5011.059
5048.97
5086.569
5122.146
5155.04
5185.148
5212.105
5235.288
5254.23
5268.698
5278.116
5282.69
5282.246
5276.799
5266.729
5252.869
5236.352
5218.7
5202.262
5190.117
5185.926
5193.728
5217.366
5258.554
5318.5
5395.919
5478.994
5552.043
5600.315
5634.97
5614.836
5475.922
5258.956
5049.889
4984.723
5034.62
5148.006
5277.158
5387.039
5477.799
5554.464
5620.259
5677.56
5727.655
5771.134
5809.035
5841.338
5868.152
5890.535
5909.312
5924.526
5936.592
5945.943
5953.028
5958.153
5961.514
5963.377
5963.951
5963.419
5961.935
5959.631
5956.629
5953.047
5949.005
5944.623
5940.004
5935.245
5930.435
5925.649
5920.952
5916.398
5912.063
5908.008
5904.262
5900.869
5897.886
5895.376
5893.413
5891.996
5891.144
5890.885
5891.232
5892.189
5893.728
5895.828
5898.438
5901.5
5904.945
5908.722
5912.722
5916.903
5921.147
5925.441
5929.9
5934.425
6001.493
6004.923
6008.59
6012.307
6015.635
6018.716
6021.57
6024.223
6026.712
6029.075
6031.347
6033.552
6035.707
6037.819
6039.893
6041.942
6043.935
6045.849
6047.692
6049.428
6051.02
6052.485
6053.803
6054.922
6055.868
6056.651
6057.253
6057.669
6057.88
6057.852
6057.529
6056.823
6055.629
6053.933
6052.358
6052.882
6057.795
6065.651
6072.369
6078.719
6085.26
6092.116
6099.237
6106.537
6113.92
6121.295
6128.594
6135.763
6142.746
6149.505
6156.032
6162.318
6168.41
6174.317
6180.054
6185.662
6191.138
6196.458
6201.655
6206.68
6211.45
6216.04
6220.435
6224.623
6228.59
6232.246
6235.567
6238.483
6241.035
6244.952
6181.117
6182.79
6184.393
6183.454
6180.781
6177.382
6173.611
6169.36
6164.385
6158.548
6151.817
6144.192
6135.704
6126.43
6116.552
6106.427
6096.562
6087.49
6079.738
6073.792
6069.728
6066.918
6064.912
6063.668
6062.915
6062.481
6062.377
6062.682
6063.561
6065.182
6067.31
6070.16
6073.664
6077.642
6082.029
6086.472
6090.922
6095.447
6099.794
6105.099
6112.239
6120.625
6128.949
6136.546
6143.255
6148.956
6153.615
6157.439
6160.744
6163.713
6166.352
6168.687
6170.79
6172.902
6174.19
6174.211
6175.082
6177.163
6179.482
6180.896
6182.463
6184.155
6185.893
6187.634
6189.294
6190.762
6191.962
6192.858
6193.436
6193.702
6193.671
6193.361
6192.789
6191.977
6190.948
6189.717
6188.307
6186.742
6185.035
6183.197
6181.241
6179.176
6177.013
6174.755
6172.411
6169.986
6167.486
6164.918
6162.285
6159.594
6156.847
6154.047
6151.196
6148.294
6145.34
6142.334
6139.262
6136.12
6132.959
6129.727
6126.426
6123.046
6119.572
6115.985
6112.262
6108.381
6104.317
6100.047
6095.549
6090.803
6085.785
6080.481
6074.877
6068.969
6062.754
6056.238
6049.431
6042.351
6035.019
6027.453
6019.677
6011.722
6003.629
5995.439
5987.197
5978.93
5970.676
5962.451
5954.23
5945.991
5937.674
5929.128
5920.456
5911.652
5903.352
5896.69
5893.77
5894.434
5898.544
3078.761
3186.653
3316.111
3462.093
3624.014
3800.324
3989.404
4189.423
4394.109
4599.881
4793.691
4997.855
5189.938
5367.781
5526.354
5658.447
5760.172
5827.903
5856.692
5809.07
5762.816
5681.818
5567.891
5426.249
5261.931
5079.839
4885.053
4683.168
4482.114
4272.77
4073.674
3878.901
3693.445
3518.687
3355.355
3203.968
3065.649
2942.163
2821.639
2715.575
2622.477
2542.328
2471.785
2409.755
2355.544
2308.531
2269.28
2233.698
2201.783
2179.066
2160.2
2144.801
2134.45
2128.765
2128.065
2137.713
2071.187
2078.285
2089.605
2101.075
2111.819
2122.556
2134.267
2146.818
2159.355
2171.062
2182.053
2194.092
2205.869
2217.144
2228.727
2241.426
2255.549
2271.052
2289.132
2310.72
2337.336
2367.836
2401.363
2437.661
2476.514
2517.657
2560.714
2605.232
2651.19
2698.83
2747.2
2795.881
2844.966
2894.389
2943.747
2992.999
3041.848
3092.421
3146.885
3202.404
3257.703
3316.098
3379.071
3446.764
3519.269
3595.716
3675.541
3757.155
3839.504
3921.279
4001.274
4078.695
4152.875
4223.546
4289.98
4352.118
4409.083
4460.848
4504.341
4538.657
4569.289
4597.614
4620.569
4636.456
4646.302
4652.222
4654.693
4653.133
4647.036
4636.319
4621.138
4601.765
4579.117
4555.083
4532.124
4513.143
4501.033
4498.581
4507.217
4525.287
4552.606
4586.653
4615.96
4634.729
4643.262
4644
4638.361
4640.333
4659.492
4693.344
4732.302
4771.715
4811.91
4852.26
4891.045
4927.125
4959.894
4988.699
5012.814
5031.732
5045.289
5053.092
5054.757
5050.207
5039.815
5024.112
5003.691
4979.577
4953.535
4928.18
4906.659
4892.533
4889.771
4901.28
4928.93
4972.259
5029.453
5093.224
5148.515
5185.29
5221.078
5243.944
5175.894
4967.866
4792.002
4761.003
4844.193
4971.945
5087.58
5189.279
5272.337
5340.982
5399.531
5450.507
5495.535
5535.371
5570.488
5601.869
5627.555
5648.651
5666.65
5681.197
5692.465
5700.95
5707.364
5711.983
5714.856
5716.309
5716.595
5715.812
5714.112
5711.632
5708.494
5704.821
5700.73
5696.331
5691.728
5687.015
5682.274
5677.574
5672.971
5668.52
5664.262
5660.247
5656.526
5653.155
5650.197
5647.714
5645.748
5644.335
5643.514
5643.312
5643.737
5644.776
5646.428
5648.685
5651.516
5654.793
5658.472
5662.487
5666.729
5671.133
5675.743
5680.425
5684.974
5689.627
5694.568
5699.081
5702.897
5706.229
5709.323
5712.226
5714.917
5717.404
5719.733
5721.959
5724.127
5726.263
5728.383
5730.492
5732.591
5734.676
5736.731
5738.727
5740.631
5742.418
5744.066
5745.52
5746.844
5747.972
5748.915
5749.683
5750.283
5750.715
5750.973
5751.062
5750.961
5750.694
5750.354
5750.257
5750.851
5752.791
5756.512
5761.799
5767.787
5774.021
5780.51
5787.34
5794.502
5801.912
5809.461
5817.039
5824.549
5831.925
5839.117
5846.099
5852.842
5859.339
5865.605
5871.651
5877.484
5883.129
5888.6
5893.872
5898.936
5903.905
5908.576
5913.058
5917.318
5921.384
5925.199
5928.691
5931.787
5934.444
5936.576
5938.017
5938.591
5938.531
5937.453
5935.376
5932.489
5928.947
5924.854
5920.188
5914.829
5908.61
5901.442
5893.337
5884.362
5874.667
5864.504
5854.293
5844.594
5835.841
5828.458
5822.974
5819.943
5818.111
5816.451
5815.709
5815.335
5815.085
5815.135
5815.64
5816.671
5818.123
5819.971
5822.6
5826.163
5830.23
5834.392
5838.646
5843.27
5848.172
5853.476
5859.865
5867.659
5876.22
5884.59
5892.198
5898.862
5904.577
5909.404
5913.407
5916.792
5919.798
5922.559
5925.022
5927.194
5928.855
5930.406
5932.514
5934.71
5936.522
5937.927
5938.988
5940.138
5941.463
5942.833
5944.23
5945.536
5946.688
5947.602
5948.244
5948.602
5948.677
5948.485
5948.045
5947.35
5946.432
5945.326
5944.04
5942.599
5941.018
5939.301
5937.468
5935.529
5933.49
5931.366
5929.156
5926.862
5924.489
5922.044
5919.529
5916.951
5914.313
5911.619
5908.87
5906.063
5903.197
5900.27
5897.282
5894.209
5891.098
5887.974
5884.755
5881.476
5878.124
5874.679
5871.12
5867.422
5863.559
5859.507
5855.241
5850.734
5845.966
5840.921
5835.581
5829.935
5823.974
5817.697
5811.107
5804.215
5797.04
5789.608
5781.947
5774.077
5766.035
5757.875
5749.658
5741.427
5733.205
5725.042
5716.993
5709.051
5701.179
5693.284
5685.511
5678.002
5670.834
5664.373
5659.135
5655.317
5653.79
5654.03
2455.465
2451.617
2449.499
2435.541
2439.353
2428.292
2458.777
2505.711
2567.866
2617.403
2658.624
2721.657
2806.303
2909.814
3032.171
3168.22
3319.325
3483.691
3659.906
3846.129
4040.587
4240.155
4438.102
4631.614
4816.5
4987.42
5139.545
5267.493
5366.093
5431.401
5464.279
5379.403
5338.186
5255.008
5132.886
4983.911
4814.624
4629.618
4433.778
4232.003
4028.721
3827.199
3630.501
3441.257
3261.799
3093.582
2937.117
2793.112
2661.436
2541.519
2433.269
2337.216
2252.719
2178.679
2113.945
2057.286
2007.671
1964.476
1927.25
1895.835
1869.878
1848.476
1831.276
1818.349
1809.763
1805.913
1806.627
1812.123
1820.441
1831.622
1843.641
1853.856
1863.107
1874.141
1886.947
1899.689
1911.924
1924.648
1936.673
1946.933
1957.199
1968.483
1979.461
1990.53
2002.878
2015.162
2030.439
2051.299
2077.59
2108.515
2143.925
2182.062
2222.354
2265.038
2309.951
2356.589
2404.246
2452.629
2502.122
2552.368
2602.538
2651.877
2700.076
2747.098
2793.453
2840.556
2889.356
2939.667
2992.454
3049.412
3111.108
3177.562
3248.916
3324.803
3404.861
3488.464
3574.58
3661.41
3747.039
3829.996
3909.124
3983.687
4053.035
4117.004
4175.119
4227.058
4271.499
4308.202
4339.249
4365.88
4387.367
4402.907
4412.831
4418.191
4419.422
4416.031
4407.529
4393.966
4375.464
4352.276
4325.351
4296.697
4269.162
4246.554
4232.288
4228.238
4234.688
4250.552
4274.627
4303.646
4331.073
4352.049
4366.485
4375.208
4380.999
4392.151
4414.377
4447.622
4487.1
4529.035
4572.377
4616.202
4658.931
4699.128
4735.673
4767.564
4793.903
4813.999
4827.497
4834.055
4833.269
4824.876
4809.226
4787.058
4759.089
4726.128
4689.562
4652.044
4617.374
4589.841
4573.514
4571.36
4584.525
4612.418
4653.15
4701.472
4747.589
4790.498
4837.906
4857.116
4822.154
4727.016
4657.373
4663.047
4733.77
4824.045
4919.721
5006.818
5079.65
5139.914
5190.765
5234.642
5273.71
5309.158
5340.868
5369.154
5392.738
5412.105
5427.932
5441.12
5451.391
5458.817
5464.538
5468.615
5470.61
5471.301
5471.115
5469.879
5467.793
5464.976
5461.54
5457.613
5453.317
5448.765
5444.062
5439.289
5434.524
5429.83
5425.243
5420.801
5416.539
5412.501
5408.741
5405.317
5402.296
5399.746
5397.728
5396.299
5395.501
5395.361
5395.892
5397.097
5398.969
5401.473
5404.488
5408.055
5412.042
5416.379
5420.99
5425.788
5430.603
5435.449
5440.224
5444.931
5449.46
5453.558
5457.236
5460.573
5463.635
5466.442
5468.997
5471.329
5473.501
5475.59
5477.657
5479.733
5481.833
5483.961
5486.112
5488.276
5490.433
5492.544
5494.568
5496.464
5498.198
5499.731
5501.07
5502.21
5503.164
5503.949
5504.584
5505.081
5505.449
5505.685
5505.828
5505.929
5506.041
5506.584
5507.653
5509.628
5512.858
5517.379
5522.816
5528.798
5535.225
5542.108
5549.411
5557.035
5564.847
5572.719
5580.538
5588.206
5595.665
5602.902
5609.881
5616.575
5622.994
5629.163
5635.088
5640.779
5646.243
5651.482
5656.507
5661.392
5666.106
5670.614
5674.855
5678.883
5682.616
5686.032
5689
5691.469
5693.254
5694.387
5694.713
5693.877
5692.19
5689.891
5686.855
5682.993
5678.427
5673.225
5667.357
5660.662
5653.01
5644.409
5634.963
5624.862
5614.321
5603.706
5593.594
5584.63
5577.013
5570.947
5568.603
5568.302
5567.928
5567.872
5568.256
5568.388
5568.659
5569.253
5570.126
5570.911
5571.687
5574.036
5578.134
5582.432
5586.484
5590.542
5595.271
5600.403
5606.305
5613.312
5621.46
5630.263
5638.997
5647.04
5654.218
5660.273
5665.224
5669.28
5672.648
5675.513
5678.139
5680.68
5683.005
5685.181
5687.471
5689.822
5691.867
5693.595
5695.109
5696.456
5697.813
5699.217
5700.554
5701.668
5702.591
5703.372
5703.964
5704.314
5704.408
5704.25
5703.85
5703.243
5702.404
5701.359
5700.152
5698.759
5697.235
5695.604
5693.852
5692.007
5690.073
5688.051
5685.943
5683.754
5681.488
5679.148
5676.736
5674.256
5671.715
5669.116
5666.462
5663.752
5660.983
5658.155
5655.266
5652.302
5649.227
5646.171
5643.07
5639.874
5636.631
5633.33
5629.943
5626.445
5622.806
5618.998
5614.993
5610.764
5606.29
5601.547
5596.509
5591.16
5585.487
5579.48
5573.137
5566.46
5559.465
5552.174
5544.62
5536.834
5528.844
5520.683
5512.414
5504.11
5495.824
5487.564
5479.432
5471.563
5463.908
5456.375
5448.997
5441.918
5435.244
5429.069
5423.561
5419.033
5415.552
5413.527
5411.47
2572.625
2547.351
2524.002
2476.798
2438.433
2368.865
2333.086
2299.366
2267.898
2239.399
2213.915
2191.609
2174.29
2162.744
2157.447
2159.296
2113.923
2138.56
2172.465
2213.624
2260.452
2318.452
2390.652
2479.972
2586.126
2708.439
2846.035
2997.769
3162.374
3339.079
3524.955
3717.008
3912.473
4107.926
4300.002
4485.408
4654.172
4801.1
4921.245
5009.873
5062.956
5077.666
5051.386
4996.946
4909.828
4788.541
4639.395
4469.343
4284.044
4088.54
3887.576
3685.661
3486.278
3292.472
3106.862
2931.017
2766.28
2613.48
2472.728
2344.168
2228.379
2125.135
2034.056
1954.755
1886.157
1826.618
1774.411
1728.296
1687.786
1653.021
1623.916
1599.898
1580.451
1564.919
1553.17
1545.448
1542.728
1546.012
1554.739
1566.346
1580.021
1593.154
1603.781
1613.758
1626.46
1641.323
1655.036
1666.582
1678.978
1690.681
1699.801
1709.753
1721.829
1731.878
1739.135
1747.898
1755.159
1765.452
1783.475
1809.494
1842.836
1881.686
1920.647
1961.414
2005.348
2052.232
2101.036
2151.122
2202.351
2254.557
2307.245
2359.403
2409.626
2457.013
2501.278
2542.242
2583.413
2627.426
2672.35
2721.061
2775.256
2834.537
2898.458
2967.478
3042.335
3123.329
3209.903
3300.746
3393.778
3486.442
3576.471
3662.184
3742.525
3816.768
3884.496
3945.271
3998.794
4044.8
4083.34
4115.267
4141.531
4162.387
4177.581
4187.099
4191.372
4190.768
4185.294
4174.555
4157.984
4135.244
4106.389
4072.702
4036.792
4001.896
3972.694
3953.668
3946.564
3951.224
3967.128
3992.631
4022.491
4051.354
4075.46
4094.454
4108.381
4119.752
4136.511
4161.297
4194.931
4235.716
4281.017
4328.913
4377.895
4426.141
4471.746
4513.204
4549.29
4578.958
4601.377
4615.823
4621.733
4618.892
4607.174
4586.608
4557.551
4520.845
4477.214
4427.447
4374.181
4322.193
4277.084
4244.3
4227.429
4226.118
4239.859
4269.134
4310.418
4356.944
4406.374
4457.944
4493.358
4510.323
4511.439
4511.118
4545.359
4601.239
4676.182
4757.016
4831.265
4894.308
4946.456
4990.046
5027.758
5061.492
5091.961
5119.203
5142.995
5163.046
5179.607
5193.216
5204.376
5212.921
5218.842
5223.13
5226.395
5227.509
5227.402
5226.632
5224.668
5222.028
5218.704
5214.809
5210.493
5205.877
5201.078
5196.2
5191.326
5186.511
5181.809
5177.228
5172.782
5168.494
5164.4
5160.551
5157.015
5153.872
5151.208
5149.105
5147.631
5146.836
5146.751
5147.388
5148.752
5150.828
5153.565
5156.961
5160.916
5165.315
5170.073
5175.132
5180.297
5185.477
5190.614
5195.605
5200.364
5204.8
5208.854
5212.511
5215.785
5218.723
5221.36
5223.716
5225.83
5227.781
5229.673
5231.594
5233.59
5235.666
5237.809
5240.012
5242.267
5244.547
5246.799
5248.956
5250.96
5252.772
5254.368
5255.747
5256.912
5257.88
5258.68
5259.347
5259.906
5260.375
5260.771
5261.114
5261.452
5261.945
5262.56
5263.72
5265.64
5268.533
5272.501
5277.417
5283.1
5289.432
5296.352
5303.786
5311.62
5319.7
5327.864
5335.975
5343.946
5351.683
5359.137
5366.298
5373.165
5379.74
5386.034
5392.068
5397.852
5403.401
5408.729
5413.858
5418.802
5423.539
5428.072
5432.404
5436.435
5440.189
5443.597
5446.56
5448.971
5450.692
5451.648
5451.662
5450.614
5448.605
5445.688
5441.915
5437.353
5432.185
5426.509
5420.327
5413.342
5405.35
5396.353
5386.52
5376.127
5365.254
5354.037
5342.986
5332.949
5324.22
5317.419
5316.265
5318.689
5320.521
5320.994
5321.912
5322.488
5323.112
5323.916
5324.551
5324.376
5324.08
5326.712
5331.129
5334.78
5338.64
5342.507
5347.064
5352.288
5358.407
5365.861
5374.62
5384.202
5393.757
5402.602
5410.162
5416.256
5421.104
5425.062
5428.405
5431.241
5433.879
5436.755
5439.235
5441.64
5444.141
5446.603
5448.926
5451.112
5453.056
5454.741
5456.429
5457.924
5459.055
5459.855
5460.418
5460.815
5460.993
5460.977
5460.74
5460.287
5459.624
5458.758
5457.695
5456.496
5455.182
5453.645
5452.04
5450.364
5448.548
5446.679
5444.74
5442.727
5440.64
5438.473
5436.231
5433.912
5431.522
5429.065
5426.548
5423.977
5421.355
5418.68
5415.947
5413.148
5410.275
5407.324
5404.293
5401.231
5398.132
5395.007
5391.822
5388.594
5385.297
5381.894
5378.349
5374.63
5370.706
5366.552
5362.138
5357.437
5352.423
5347.08
5341.389
5335.338
5328.92
5322.141
5315.013
5307.575
5299.881
5291.972
5283.857
5275.561
5267.152
5258.723
5250.342
5242.032
5234.002
5226.22
5218.721
5211.447
5204.466
5197.906
5191.848
5186.362
5181.558
5177.666
5174.517
5172.306
5169.419
2728.867
2692.947
2653.06
2602.447
2564.802
2492.093
2455.811
2419.872
2383.924
2347.817
2311.87
2276.092
2239.456
2203.131
2165.723
2063.246
2027.914
1994.289
1962.738
1933.552
1907.292
1884.512
1865.826
1852.327
1844.379
1843.038
1848.397
1864.827
1890.67
1925.892
1971.128
2028.675
2101.291
2189.583
2293.992
2413.954
2548.965
2697.845
2858.598
3029.451
3208.684
3394.272
3585.538
3777.983
3967.133
4147.363
4311.652
4453.573
4567.572
4649.024
4694.591
4703.632
4675.774
4614.054
4520.411
4395.825
4244.389
4072.455
3886.305
3691.319
3492.371
3293.671
3099.05
2911.56
2733.115
2565.106
2407.901
2261.714
2126.942
2003.974
1894.155
1797.838
1714.675
1643.616
1582.806
1530.089
1483.498
1441.653
1404.302
1372.179
1345.707
1324.531
1307.834
1293.981
1283.178
1275.727
1273.809
1280.61
1294.663
1309.671
1327.139
1344.356
1354.435
1364.232
1378.723
1396.9
1413.145
1423.487
1433.342
1442.918
1451.125
1461.768
1476.367
1487.01
1488.577
1489.276
1488.706
1492.384
1506.681
1531.693
1567.409
1613.86
1651.962
1691.889
1738.126
1789.134
1841.683
1894.865
1949.206
2004.723
2061.092
2117.055
2170.279
2217.567
2258.248
2290.73
2322.735
2360.865
2398.859
2441.233
2491.814
2547.879
2608.599
2675.01
2748.368
2829.97
2919.904
3016.79
3117.861
3219.493
3318.534
3412.676
3500.423
3580.891
3653.59
3718.192
3774.6
3822.93
3863.414
3896.698
3923.571
3944.468
3959.519
3968.612
3972.037
3969.775
3961.684
3947.668
3927.429
3900.172
3864.058
3819.963
3772.654
3726.776
3688.86
3664.827
3655.438
3659.266
3675.85
3706.62
3742.181
3775.595
3805.323
3827.947
3840.964
3854.435
3874.664
3901.498
3936.72
3979.996
4029.274
4082.412
4137.473
4192.191
4244.202
4291.662
4333.081
4367.186
4392.909
4409.389
4415.86
4411.901
4397.257
4371.735
4335.452
4289.186
4233.145
4167.185
4094.425
4021.964
3958.266
3910.105
3878.157
3861.511
3862.297
3883.271
3920.249
3967.02
4029.506
4106.519
4178.926
4233.578
4279.493
4329.6
4387.57
4445.489
4517.889
4589.359
4654.101
4709.634
4756.059
4794.938
4827.993
4856.557
4881.613
4903.614
4922.723
4938.78
4951.966
4962.676
4971.093
4977.289
4981.49
4984.18
4985.858
4985.833
4984.845
4983.037
4980.14
4976.819
4972.776
4968.235
4963.394
4958.365
4953.259
4948.173
4943.181
4938.315
4933.593
4929.012
4924.56
4920.232
4916.044
4912.048
4908.326
4904.983
4902.132
4899.878
4898.311
4897.491
4897.449
4898.195
4899.737
4902.065
4905.157
4908.967
4913.396
4918.32
4923.617
4929.166
4934.821
4940.465
4945.971
4951.235
4956.161
4960.666
4964.706
4968.266
4971.384
4974.139
4976.583
4978.714
4980.562
4982.228
4983.862
4985.607
4987.525
4989.591
4991.767
4994.043
4996.416
4998.864
5001.308
5003.64
5005.783
5007.694
5009.359
5010.779
5011.962
5012.926
5013.715
5014.386
5014.968
5015.493
5015.99
5016.459
5016.915
5017.426
5018.131
5019.249
5020.971
5023.504
5027.02
5031.531
5036.975
5043.245
5050.252
5057.904
5066.059
5074.518
5083.067
5091.541
5099.813
5107.788
5115.426
5122.721
5129.682
5136.334
5142.693
5148.788
5154.641
5160.283
5165.718
5170.948
5175.977
5180.811
5185.453
5189.894
5194.066
5197.915
5201.424
5204.449
5206.915
5208.642
5209.463
5209.232
5207.874
5205.398
5201.862
5197.332
5191.993
5186.204
5180.125
5174.041
5167.331
5159.355
5149.934
5139.578
5129.018
5118.068
5106.348
5093.886
5081.387
5070.357
5064.77
5066.72
5073.542
5074.472
5075.125
5075.892
5076.745
5078.396
5080.354
5082.194
5084.536
5084.568
5085.211
5085.944
5087.126
5091.131
5095.095
5098.866
5103.841
5109.907
5117.462
5126.797
5137.555
5148.79
5158.744
5166.543
5172.707
5177.672
5181.733
5185.177
5187.862
5190.233
5193.077
5195.558
5197.811
5200.227
5202.824
5205.571
5208.255
5210.541
5212.499
5215.048
5216.867
5217.754
5218.222
5218.469
5218.543
5218.275
5217.874
5217.298
5216.547
5215.617
5214.513
5213.255
5211.861
5210.337
5208.699
5206.993
5205.216
5203.353
5201.475
5199.53
5197.515
5195.434
5193.284
5191.059
5188.757
5186.381
5183.938
5181.438
5178.888
5176.293
5173.649
5170.946
5168.17
5165.314
5162.375
5159.362
5156.3
5153.2
5150.103
5147.005
5143.873
5140.695
5137.422
5134.006
5130.412
5126.606
5122.559
5118.238
5113.61
5108.652
5103.341
5097.653
5091.564
5085.066
5078.16
5070.865
5063.24
5055.382
5047.346
5039.109
5030.663
5022.095
5013.541
5005.131
4996.969
4988.989
4981.028
4973.412
4966.265
4959.573
4953.43
4947.842
4942.811
4938.489
4935.095
4932.492
4930.236
4927.246
2715.818
2665.601
2617.169
2558.78
2501.692
2451.253
2405.091
2362.837
2324.053
2285.427
2182.012
2146.288
2111.068
2075.816
2040.286
2004.49
1968.379
1931.761
1894.863
1858.489
1823.219
1788.042
1754.07
1721.739
1691.382
1663.426
1638.02
1615.516
1597.23
1584.301
1577.732
1579.054
1589.671
1610.472
1642.587
1686.671
1744.282
1816.517
1903.923
2006.657
2124.339
2256.421
2400.649
2555.085
2719.346
2892.704
3074.605
3261.445
3448.904
3631.91
3804.472
3959.866
4091.473
4193.674
4262.37
4295.098
4291.401
4252.007
4178.765
4074.895
3943.308
3787.768
3613.731
3427.254
3233.648
3038.169
2845.055
2658.057
2479.788
2311.657
2154.64
2007.881
1871.662
1747.537
1634.851
1533.761
1446.147
1373.215
1313.589
1264.132
1221.349
1182.562
1146.347
1112.851
1083.44
1059.259
1040.328
1026.96
1015.147
1006.514
1000.148
998.7153
1009.485
1031.639
1054.205
1073.89
1097.55
1107.645
1114.58
1130.453
1152.711
1173.321
1183.449
1189.586
1195.557
1200.948
1212.088
1232.346
1247.135
1242.132
1228.755
1214.634
1208.75
1219.302
1248.97
1286.32
1337.841
1375.595
1414.569
1463.341
1520.581
1578.05
1634.616
1693.258
1753.946
1815.958
1877.88
1935.618
1983.935
2019.746
2043.148
2061.909
2088.077
2116.803
2152.807
2200.951
2254.27
2310.419
2372.949
2444.457
2526.196
2618.928
2722.725
2834.104
2947.037
3056.869
3160.798
3257.066
3344.746
3423.408
3492.813
3552.995
3604.302
3647.281
3682.542
3710.701
3732.214
3747.166
3755.777
3758.386
3754.985
3744.985
3727.431
3702.15
3669.795
3626.216
3568.842
3504.019
3440.281
3389.898
3361.371
3352.088
3359.383
3383.482
3420.703
3465.355
3506.036
3543.16
3568.425
3576.545
3589.073
3609.545
3637.512
3674.806
3721.339
3775.319
3834.437
3896.256
3958.075
4017.201
4071.5
4119.212
4158.794
4188.92
4208.462
4216.4
4211.867
4194.177
4163.082
4119.051
4063.296
3995.093
3911.529
3816.639
3724.65
3644.263
3581.516
3532.165
3499.778
3493.054
3515.043
3563.083
3633.203
3718.542
3803.55
3888.931
3966.076
4037.22
4115.446
4191.827
4268.85
4348.006
4412.898
4471.014
4521.95
4564.929
4600.59
4629.998
4654.335
4674.732
4691.932
4706.383
4718.258
4727.732
4735.045
4740.486
4744.235
4746.429
4747.326
4747.113
4745.694
4743.334
4740.127
4736.333
4731.878
4726.953
4721.816
4716.366
4710.835
4705.358
4700.023
4694.892
4689.989
4685.287
4680.727
4676.26
4671.857
4667.519
4663.292
4659.282
4655.633
4652.494
4650.007
4648.288
4647.408
4647.389
4648.23
4649.944
4652.547
4656.029
4660.325
4665.32
4670.855
4676.775
4682.946
4689.22
4695.444
4701.48
4707.174
4712.397
4717.049
4721.086
4724.515
4727.423
4729.976
4732.246
4734.161
4735.697
4736.983
4738.257
4739.77
4741.625
4743.742
4745.983
4748.319
4750.808
4753.477
4756.197
4758.775
4761.096
4763.112
4764.842
4766.304
4767.502
4768.446
4769.186
4769.823
4770.374
4770.889
4771.451
4772.025
4772.541
4772.968
4773.56
4774.475
4775.861
4777.924
4780.938
4785.061
4790.31
4796.574
4803.74
4811.717
4820.349
4829.36
4838.42
4847.315
4855.927
4864.154
4871.963
4879.358
4886.363
4893.032
4899.407
4905.54
4911.448
4917.131
4922.598
4927.865
4932.944
4937.842
4942.558
4947.08
4951.385
4955.433
4959.199
4962.333
4964.954
4966.81
4967.654
4967.281
4965.653
4962.81
4958.788
4953.643
4947.526
4941.089
4934.562
4929.492
4923.776
4915.546
4905.116
4893.764
4883.152
4872.646
4861.055
4848.148
4835.224
4829.635
4829.631
4830.135
4832.844
4831.219
4830.381
4828.927
4830.316
4833.438
4837.833
4842.521
4848.769
4852.211
4851.114
4848.688
4847.106
4846.721
4847.715
4850.188
4854.632
4860.278
4867.156
4876.819
4889.762
4904.391
4915.655
4923.583
4929.872
4934.946
4939.033
4942.454
4945.092
4947.268
4949.666
4952.186
4954.448
4956.928
4959.635
4962.425
4965.21
4968.06
4970.405
4973.825
4975.62
4976.291
4976.55
4976.507
4976.119
4975.653
4974.935
4974.055
4973.009
4971.798
4970.435
4968.944
4967.345
4965.662
4963.919
4962.055
4960.144
4958.263
4956.358
4954.408
4952.402
4950.336
4948.204
4945.998
4943.708
4941.338
4938.898
4936.402
4933.863
4931.287
4928.67
4925.995
4923.241
4920.395
4917.454
4914.428
4911.349
4908.254
4905.175
4902.144
4899.134
4896.11
4893.006
4889.76
4886.331
4882.685
4878.78
4874.581
4870.059
4865.19
4859.95
4854.301
4848.2
4841.619
4834.559
4827.031
4819.15
4811.127
4803.016
4794.682
4786.04
4777.248
4768.498
4759.968
4751.79
4743.773
4735.91
4728.303
4721.289
4714.783
4708.755
4703.306
4698.436
4694.358
4691.218
4688.624
4687.271
4684.726
2452.555
2387.973
2258.769
2210.093
2163.191
2119.98
2079.867
2042.164
2006.117
1971.383
1937.859
1903.856
1869.714
1835.144
1800.181
1764.632
1728.485
1691.733
1654.4
1616.966
1580.697
1545.18
1510.674
1477.507
1445.334
1414.22
1385.166
1359.034
1336.816
1320.348
1311.19
1310.163
1318.39
1336.859
1366.876
1409.521
1465.955
1536.899
1622.822
1723.463
1837.993
1964.876
2101.9
2249.801
2409.077
2577.916
2754.303
2934.534
3113.833
3286.666
3446.861
3587.949
3703.529
3788.293
3838.759
3853.369
3832.381
3777.633
3691.604
3577.551
3438.96
3279.696
3104.815
2919.776
2730.081
2539.566
2352.672
2174.299
2007.1
1851.98
1709.383
1577.325
1454.746
1343.371
1243.491
1154.063
1076.697
1015.008
967.5375
930.7024
900.8872
874.2647
846.6434
817.1152
788.7157
766.7328
750.6353
737.7333
728.7575
721.0094
713.5824
711.791
732.3826
768.5845
802.0181
821.001
844.249
857.6735
862.3996
886.2167
917.1121