/*--------------------------------*- C++ -*----------------------------------*\
| =========                 |                                                 |
| \\      /  F ield         | foam-extend: Open Source CFD                    |
|  \\    /   O peration     | Version:     3.1                                |
|   \\  /    A nd           | Web:         http://www.extend-project.de       |
|    \\/     M anipulation  |                                                 |
\*---------------------------------------------------------------------------*/
FoamFile
{
    version     2.0;
    format      ascii;
    class       volScalarField;
    location    "18";
    object      pd;
}
// * * * * * * * * * * * * * * * * * * * * * * * * * * * * * * * * * * * * * //

dimensions      [1 -1 -2 0 0 0 0];

internalField   nonuniform List<scalar> 
119952
(
5807.41
5361.757
5310.117
5416.11
5518.472
5491.968
5497.635
5505.758
5514.458
5520.495
5523.924
5523.898
5520.065
5511.701
5499.645
5482.311
5461.364
5435.741
5399.247
5310.851
5542.123
5376.247
5307.777
5633.644
5591.089
5635.135
5657.398
5758.64
6037.612
6864.107
3200.281
3196.788
3224.577
3257.436
3292.779
3329.23
3367.005
3409.792
3453.528
3473.511
3527.291
3579.345
3627.899
3677.364
3727.459
3778.336
3830.854
3884.237
3940.246
4032.688
4074.403
4120.99
4184.406
4250.597
4316.882
4390.742
4466.472
4545.407
4626.074
4693.324
4770.147
4846.029
4914.587
4979.284
5040.967
5100.406
5161.645
5239.567
5346.933
5328.557
5352.423
5416.263
5459.552
5480.42
5488.132
5497.66
5505.772
5510.981
5513.236
5511.845
5506.419
5496.82
5483.078
5465.396
5444.539
5421.096
5397.006
5379.867
5382.219
5387.693
5383.698
5449.727
5562.155
5587.749
5613.744
5640.608
5609.972
5443.075
5430.633
5490.556
5530.102
5569.43
5607.946
5644.919
5680.186
5713.393
5744.412
5773.336
5800.045
5823.969
5844.635
5861.634
5874.587
5883.187
5887.198
5886.779
5882.328
5874.464
5864.163
5852.848
5842.559
5835.809
5836.363
5848.196
5876.439
5926.843
6003.708
6109.657
6230.47
6314.168
6339.381
6399.966
6382.662
6254.152
6036.706
5824.565
5711.801
5712.874
5778.171
5873.036
5971.741
6062.056
6141.499
6211.352
6272.825
6326.261
6372.546
6412.241
6446.483
6475.79
6500.189
6520.247
6536.632
6549.732
6559.99
6567.821
6573.569
6577.537
6579.856
6580.735
6580.482
6579.225
6577.091
6574.202
6570.693
6566.697
6562.308
6557.632
6552.775
6547.835
6542.899
6538.044
6533.351
6528.896
6524.683
6520.797
6517.277
6514.164
6511.489
6509.275
6507.641
6506.663
6506.215
6506.299
6506.982
6508.243
6510.056
6512.383
6515.175
6518.372
6521.906
6525.697
6529.652
6533.646
6537.51
6541.14
6545.214
6552.416
6557.697
6561.151
6564.723
6568.089
6571.237
6574.17
6576.902
6579.475
6581.911
6584.236
6586.468
6588.632
6590.737
6592.788
6594.785
6596.705
6598.528
6600.293
6602.003
6603.56
6604.964
6606.354
6607.478
6608.441
6609.123
6609.704
6610.123
6610.323
6610.259
6609.871
6609.02
6607.46
6604.479
6598.214
6591.125
6604.591
6615.226
6622.724
6628.81
6635.027
6641.745
6648.824
6656.096
6663.409
6670.68
6677.865
6684.929
6691.84
6698.572
6705.094
6711.366
6717.513
6723.53
6729.408
6735.201
6740.774
6746.238
6751.567
6756.724
6761.689
6766.439
6770.976
6775.277
6779.695
6783.506
6786.993
6790.16
6792.978
6794.709
6807.279
6805.63
6798.589
6797.171
6796.221
6794.057
6791.101
6787.53
6783.285
6778.209
6772.242
6765.374
6757.606
6748.969
6739.539
6729.517
6719.284
6709.394
6700.508
6693.155
6687.559
6683.601
6680.989
6679.422
6678.579
6678.164
6678.053
6678.241
6678.809
6679.864
6681.666
6684.217
6687.559
6691.653
6696.468
6702.037
6708.029
6711.46
6712.027
6714.726
6721.74
6731.358
6740.291
6748.397
6755.705
6761.781
6765.876
6769.051
6772.093
6774.88
6777.259
6779.265
6780.822
6780.459
6777.309
6782.04
6785.924
6787.262
6789.362
6791.493
6793.596
6795.651
6797.712
6799.755
6801.687
6803.409
6804.851
6805.973
6806.76
6807.213
6807.342
6807.168
6806.71
6805.991
6805.035
6803.865
6802.499
6800.958
6799.257
6797.414
6795.442
6793.352
6791.155
6788.859
6786.473
6784.005
6781.462
6778.852
6776.181
6773.455
6770.678
6767.855
6764.985
6762.069
6759.108
6756.099
6753.039
6749.926
6746.762
6743.542
6740.253
6736.887
6733.429
6729.864
6726.17
6722.329
6718.316
6714.109
6709.685
6705.021
6700.1
6694.902
6689.415
6683.63
6677.543
6671.159
6664.487
6657.543
6650.345
6642.914
6635.27
6627.434
6619.43
6611.287
6603.034
6594.702
6586.321
6577.91
6569.451
6560.901
6552.166
6543.046
6533.339
6522.634
6510.218
6495.426
6481.341
6487.515
6549.741
3655.913
3553.553
3464.071
3379.679
3304.692
3239.573
3182.279
3134.443
3093.661
3027.173
3010.122
2987.214
2966.302
2949.409
2939.083
2933.031
2930.49
2930.025
2943.144
2968.816
2960.115
2961.485
2970.861
2980.756
2991.814
3004.299
3016.24
3029.63
3045.706
3045.029
3058.039
3072.235
3084.895
3099.117
3114.6
3131.562
3152.304
3183.953
3193.996
3217.217
3253.671
3291.141
3329.605
3370.053
3412.102
3455.73
3498.233
3541.777
3594.275
3642.361
3690.283
3739.269
3789.298
3840.221
3892.674
3948.871
4009.409
4068.995
4129.506
4191.148
4255.64
4324.388
4396.846
4472.958
4551.472
4632.262
4711.63
4788.14
4862.619
4934.626
5003.828
5070.451
5135.251
5198.612
5259.372
5313.774
5353.807
5385.701
5418.561
5450.48
5474.235
5489.947
5499.658
5506.364
5510.194
5510.464
5506.591
5498.347
5485.77
5469.101
5449.108
5427.217
5405.553
5387.082
5375.442
5373.817
5383.1
5404.815
5441.849
5486.999
5522.394
5541.034
5543.657
5526.86
5499.415
5491.014
5513.771
5549.402
5586.937
5624.184
5662.095
5699.694
5735.271
5768.165
5798.273
5825.23
5848.413
5867.354
5881.823
5891.241
5895.815
5895.371
5889.924
5879.854
5865.994
5849.476
5831.825
5815.387
5803.242
5799.051
5806.853
5830.491
5871.679
5931.625
6009.044
6092.119
6165.168
6213.44
6248.095
6227.961
6089.047
5872.081
5663.014
5597.848
5647.745
5761.13
5890.279
6000.161
6090.921
6167.588
6233.383
6290.685
6340.78
6384.259
6422.16
6454.463
6481.277
6503.66
6522.437
6537.651
6549.717
6559.068
6566.153
6571.277
6574.639
6576.502
6577.076
6576.544
6575.06
6572.756
6569.754
6566.172
6562.13
6557.748
6553.129
6548.37
6543.56
6538.774
6534.077
6529.523
6525.188
6521.133
6517.387
6513.994
6511.011
6508.501
6506.538
6505.121
6504.269
6504.01
6504.357
6505.314
6506.853
6508.953
6511.563
6514.625
6518.07
6521.847
6525.847
6530.028
6534.272
6538.566
6543.025
6547.55
6553.305
6556.736
6560.402
6564.119
6567.448
6570.529
6573.382
6576.035
6578.524
6580.887
6583.159
6585.364
6587.519
6589.632
6591.705
6593.754
6595.747
6597.661
6599.504
6601.24
6602.833
6604.297
6605.616
6606.735
6607.68
6608.463
6609.066
6609.481
6609.693
6609.665
6609.341
6608.636
6607.441
6605.746
6604.171
6604.694
6609.607
6617.464
6624.182
6630.531
6637.072
6643.929
6651.05
6658.35
6665.733
6673.108
6680.407
6687.576
6694.559
6701.318
6707.844
6714.131
6720.222
6726.129
6731.867
6737.474
6742.95
6748.271
6753.467
6758.492
6763.262
6767.853
6772.248
6776.435
6780.402
6784.058
6787.379
6790.296
6792.847
6796.764
6794.242
6795.915
6797.518
6796.579
6793.906
6790.507
6786.736
6782.485
6777.51
6771.672
6764.942
6757.317
6748.829
6739.555
6729.677
6719.552
6709.685
6700.605
6692.831
6686.826
6682.667
6679.862
6677.964
6676.784
6676.04
6675.606
6675.498
6675.773
6676.483
6678.025
6680.288
6683.261
6686.788
6690.767
6695.152
6699.587
6704.005
6708.433
6712.697
6718.045
6725.309
6733.746
6742.074
6749.671
6756.38
6762.081
6766.739
6770.563
6773.866
6776.829
6779.469
6781.809
6783.914
6786.027
6787.315
6787.336
6788.207
6790.288
6792.607
6794.021
6795.587
6797.279
6799.016
6800.758
6802.418
6803.886
6805.087
6805.983
6806.561
6806.826
6806.794
6806.484
6805.913
6805.102
6804.073
6802.842
6801.432
6799.867
6798.16
6796.322
6794.366
6792.301
6790.138
6787.88
6785.536
6783.111
6780.611
6778.043
6775.41
6772.719
6769.972
6767.172
6764.321
6761.419
6758.465
6755.459
6752.387
6749.245
6746.084
6742.852
6739.551
6736.171
6732.697
6729.11
6725.387
6721.506
6717.442
6713.172
6708.674
6703.927
6698.909
6693.604
6688.002
6682.094
6675.879
6669.363
6662.556
6655.476
6648.144
6640.578
6632.802
6624.847
6616.754
6608.564
6600.322
6592.055
6583.801
6575.575
6567.352
6559.109
6550.792
6542.25
6533.581
6524.777
6516.477
6509.815
6506.895
6507.559
6511.669
3859.746
3964.097
4090.288
4233.003
4391.657
4564.695
4750.512
4947.263
5148.682
5352.305
5560.098
5764.261
5956.345
6134.187
6292.76
6424.853
6526.579
6594.309
6623.098
6606.132
6559.879
6478.88
6364.953
6223.312
6058.993
5876.901
5682.115
5480.23
5279.176
5069.832
4870.737
4675.964
4490.508
4315.75
4152.417
4001.031
3862.711
3739.225
3618.701
3512.638
3419.54
3339.39
3268.847
3206.817
3152.607
3105.593
3066.342
3030.76
2998.846
2976.128
2957.262
2941.864
2931.512
2925.828
2925.127
2934.775
2929.562
2936.66
2947.98
2959.45
2970.194
2980.931
2992.642
3005.193
3017.73
3029.437
3040.428
3052.467
3064.244
3075.519
3087.102
3099.801
3113.924
3129.427
3147.507
3169.095
3195.711
3226.211
3259.738
3296.036
3334.889
3376.032
3419.089
3463.607
3509.565
3557.205
3605.575
3654.256
3703.341
3752.764
3802.122
3851.374
3900.222
3950.796
4005.26
4060.779
4116.078
4174.473
4237.446
4305.139
4377.644
4454.091
4533.916
4615.53
4697.879
4779.654
4859.649
4937.07
5011.25
5081.921
5148.355
5210.493
5267.458
5319.223
5362.716
5397.032
5427.664
5455.989
5478.944
5494.831
5504.677
5510.597
5513.068
5511.508
5505.411
5494.694
5479.513
5460.14
5437.492
5413.458
5390.499
5371.518
5359.408
5356.956
5365.592
5383.662
5410.981
5445.028
5474.335
5493.104
5501.637
5502.375
5496.736
5498.708
5517.867
5551.718
5590.676
5630.089
5670.285
5710.635
5749.42
5785.5
5818.269
5847.074
5871.189
5890.107
5903.664
5911.467
5913.132
5908.582
5898.19
5882.487
5862.066
5837.952
5811.91
5786.554
5765.034
5750.908
5748.146
5759.655
5787.305
5830.634
5887.828
5951.598
6006.89
6043.665
6079.452
6102.319
6034.269
5826.241
5650.377
5619.378
5702.568
5830.32
5945.95
6047.636
6130.692
6199.342
6257.898
6308.876
6353.905
6393.744
6428.862
6460.244
6485.929
6507.026
6525.025
6539.572
6550.84
6559.325
6565.738
6570.358
6573.231
6574.684
6574.97
6574.187
6572.487
6570.007
6566.869
6563.196
6559.105
6554.706
6550.103
6545.39
6540.649
6535.949
6531.346
6526.895
6522.637
6518.622
6514.9
6511.53
6508.572
6506.089
6504.123
6502.71
6501.889
6501.687
6502.112
6503.151
6504.803
6507.06
6509.891
6513.168
6516.847
6520.862
6525.104
6529.508
6534.118
6538.8
6543.349
6548.002
6552.943
6557.456
6561.272
6564.604
6567.698
6570.601
6573.292
6575.779
6578.108
6580.334
6582.502
6584.638
6586.758
6588.867
6590.966
6593.051
6595.106
6597.102
6599.006
6600.793
6602.441
6603.895
6605.219
6606.347
6607.29
6608.058
6608.658
6609.09
6609.348
6609.437
6609.336
6609.069
6608.729
6608.632
6609.226
6611.166
6614.887
6620.174
6626.162
6632.396
6638.885
6645.715
6652.877
6660.287
6667.836
6675.414
6682.924
6690.3
6697.492
6704.474
6711.217
6717.714
6723.979
6730.026
6735.859
6741.504
6746.975
6752.247
6757.311
6762.28
6766.951
6771.433
6775.691
6779.758
6783.573
6787.066
6790.162
6792.819
6794.951
6796.392
6796.966
6796.906
6795.828
6793.751
6790.864
6787.322
6783.228
6778.56
6773.2
6766.982
6759.816
6751.712
6742.737
6733.042
6722.878
6712.662
6702.881
6693.554
6683.987
6677.702
6676.301
6676.12
6674.805
6674.076
6673.706
6673.455
6673.448
6673.441
6674.305
6675.937
6678.186
6680.945
6684.529
6688.598
6692.75
6696.696
6699.819
6704.543
6710.226
6717.803
6726.004
6734.595
6742.964
6750.569
6757.207
6762.703
6766.96
6770.962
6774.827
6778.124
6780.932
6783.397
6785.569
6787.23
6788.781
6790.889
6793.085
6794.897
6796.302
6797.362
6798.507
6799.812
6801.162
6802.569
6803.9
6805.062
6805.977
6806.619
6806.976
6807.047
6806.852
6806.416
6805.725
6804.807
6803.701
6802.415
6800.974
6799.393
6797.676
6795.843
6793.904
6791.865
6789.741
6787.531
6785.237
6782.864
6780.419
6777.904
6775.326
6772.688
6769.994
6767.245
6764.438
6761.572
6758.645
6755.657
6752.584
6749.473
6746.349
6743.13
6739.851
6736.499
6733.054
6729.495
6725.797
6721.934
6717.882
6713.616
6709.108
6704.337
6699.292
6693.955
6688.31
6682.349
6676.072
6669.482
6662.59
6655.415
6647.983
6640.322
6632.452
6624.41
6616.25
6608.033
6599.802
6591.578
6583.409
6575.336
6567.358
6559.497
6551.642
6543.885
6536.376
6529.209
6522.748
6517.509
6513.69
6512.162
6512.404
3472.669
3457.267
3451.675
3447.198
3451.009
3470.605
3501.089
3548.024
3610.178
3659.715
3700.937
3763.969
3848.616
3952.127
4074.484
4210.533
4361.638
4526.003
4702.218
4888.441
5082.899
5282.467
5480.415
5673.926
5858.812
6029.733
6181.857
6309.805
6408.406
6473.713
6506.592
6483.028
6441.811
6358.633
6236.511
6087.536
5918.249
5733.243
5537.403
5335.628
5132.346
4930.824
4734.126
4544.882
4365.424
4197.207
4040.742
3896.737
3765.061
3645.144
3536.894
3440.841
3356.344
3282.304
3217.57
3160.911
3111.296
3068.101
3030.875
2999.46
2973.503
2952.101
2934.901
2921.974
2913.388
2909.538
2910.252
2915.748
2924.066
2935.247
2947.266
2957.481
2966.732
2977.766
2990.572
3003.314
3015.549
3028.273
3040.298
3050.558
3060.824
3072.108
3083.086
3094.155
3106.503
3118.787
3134.064
3154.924
3181.215
3212.14
3247.55
3285.687
3325.979
3368.663
3413.576
3460.214
3507.871
3556.254
3605.747
3655.993
3706.163
3755.502
3803.701
3850.723
3897.078
3944.181
3992.981
4043.292
4096.079
4153.037
4214.733
4281.187
4352.541
4428.428
4508.486
4592.089
4678.205
4765.035
4850.664
4933.621
5012.749
5087.312
5156.66
5220.629
5278.744
5330.683
5375.124
5411.827
5442.874
5469.505
5490.992
5506.532
5516.456
5521.816
5523.047
5519.656
5511.154
5497.591
5479.089
5455.901
5428.976
5400.322
5372.787
5350.178
5335.913
5331.863
5338.313
5354.176
5378.252
5407.271
5434.698
5455.674
5470.107
5478.824
5484.587
5495.68
5517.915
5551.219
5590.723
5632.66
5676.002
5719.827
5762.556
5802.753
5839.298
5871.189
5897.528
5917.624
5931.122
5937.68
5936.894
5928.501
5912.851
5890.683
5862.714
5829.753
5793.186
5755.668
5720.998
5693.46
5677.121
5674.962
5688.128
5716.027
5756.763
5805.087
5851.205
5894.116
5941.526
5960.739
5925.777
5830.639
5760.993
5766.667
5837.393
5927.668
6023.335
6110.381
6183.167
6243.461
6294.367
6338.248
6377.307
6412.763
6444.485
6472.775
6496.362
6515.729
6531.557
6544.745
6555.016
6562.442
6568.163
6572.24
6574.235
6574.926
6574.74
6573.504
6571.418
6568.601
6565.165
6561.238
6556.942
6552.39
6547.687
6542.914
6538.149
6533.455
6528.868
6524.426
6520.164
6516.126
6512.366
6508.942
6505.921
6503.371
6501.353
6499.924
6499.126
6498.986
6499.517
6500.722
6502.594
6505.098
6508.113
6511.68
6515.667
6520.004
6524.615
6529.413
6534.228
6539.074
6543.849
6548.556
6553.085
6557.183
6560.861
6564.198
6567.26
6570.066
6572.622
6574.954
6577.126
6579.215
6581.282
6583.358
6585.458
6587.586
6589.737
6591.901
6594.058
6596.169
6598.193
6600.089
6601.823
6603.356
6604.695
6605.835
6606.789
6607.574
6608.209
6608.706
6609.074
6609.31
6609.453
6609.554
6609.666
6610.209
6611.278
6613.253
6616.483
6621.004
6626.441
6632.423
6638.85
6645.731
6653.026
6660.641
6668.46
6676.341
6684.162
6691.831
6699.29
6706.527
6713.506
6720.199
6726.616
6732.785
6738.712
6744.404
6749.868
6755.107
6760.132
6765.013
6769.717
6774.227
6778.476
6782.507
6786.241
6789.656
6792.625
6795.094
6796.879
6798.012
6798.338
6797.502
6795.815
6793.515
6790.479
6786.614
6782.03
6776.817
6770.964
6764.283
6756.634
6748.033
6738.587
6728.486
6717.944
6707.314
6696.857
6681.187
6666.938
6664.257
6669.131
6671.287
6670.937
6670.924
6671.648
6671.977
6672.256
6672.85
6673.71
6674.348
6674.139
6671.657
6672.74
6681.079
6689.213
6694.07
6698.723
6703.621
6709.476
6716.651
6725.028
6733.874
6742.566
6749.917
6754.755
6760.704
6767.347
6772.631
6776.25
6779.137
6781.764
6784.305
6786.63
6788.806
6791.096
6793.447
6795.492
6797.22
6798.733
6800.075
6801.39
6802.636
6803.945
6805.186
6806.202
6806.997
6807.589
6807.939
6808.032
6807.862
6807.457
6806.859
6806.028
6804.984
6803.777
6802.384
6800.86
6799.229
6797.477
6795.632
6793.698
6791.676
6789.568
6787.379
6785.113
6782.773
6780.361
6777.881
6775.34
6772.741
6770.087
6767.376
6764.608
6761.78
6758.891
6755.927
6752.852
6749.796
6746.695
6743.499
6740.256
6736.954
6733.568
6730.07
6726.431
6722.623
6718.617
6714.387
6709.903
6705.16
6700.13
6694.785
6689.112
6683.105
6676.762
6670.085
6663.09
6655.799
6648.245
6640.459
6632.469
6624.308
6616.038
6607.733
6599.432
6591.101
6582.729
6574.636
6567.11
6559.883
6552.614
6545.542
6538.865
6532.673
6527.154
6522.634
6519.17
6517.151
6515.095
3840.97
3803.978
3769.605
3733.704
3695.339
3656.427
3620.649
3586.928
3555.46
3526.962
3501.478
3479.172
3461.852
3450.306
3445.01
3446.858
3462.798
3487.435
3521.34
3562.499
3609.327
3667.327
3739.527
3828.847
3935.001
4057.314
4194.91
4346.644
4511.249
4687.954
4873.83
5065.883
5261.348
5456.801
5648.877
5834.283
6003.047
6149.975
6270.12
6358.748
6411.831
6426.541
6400.261
6345.821
6258.703
6137.416
5988.27
5818.218
5632.919
5437.415
5236.451
5034.536
4835.153
4641.347
4455.737
4279.892
4115.155
3962.355
3821.603
3693.043
3577.254
3474.01
3382.931
3303.63
3235.032
3175.493
3123.286
3077.171
3036.661
3001.896
2972.791
2948.773
2929.326
2913.793
2902.045
2894.323
2891.603
2894.887
2903.614
2915.221
2928.896
2942.029
2952.656
2962.633
2975.335
2990.198
3003.911
3015.457
3027.853
3039.556
3048.676
3058.628
3070.704
3080.753
3088.01
3096.773
3104.034
3114.327
3132.35
3158.369
3191.711
3230.561
3269.522
3310.289
3354.223
3401.107
3449.911
3499.997
3551.226
3603.432
3656.12
3708.278
3758.501
3805.888
3850.153
3891.117
3932.288
3976.301
4021.225
4069.936
4124.131
4183.412
4247.333
4316.353
4391.21
4472.204
4558.778
4649.621
4742.653
4835.317
4925.346
5011.059
5091.4
5165.643
5233.371
5294.146
5347.669
5393.675
5432.215
5464.142
5490.406
5511.262
5526.456
5535.974
5540.247
5539.643
5534.169
5523.43
5506.859
5484.119
5455.264
5421.577
5385.665
5350.767
5321.564
5302.538
5295.436
5300.098
5316.003
5341.506
5371.366
5400.228
5424.319
5443.175
5456.272
5467.335
5484.751
5510.075
5543.802
5584.591
5629.892
5677.788
5726.77
5775.016
5820.621
5862.079
5898.165
5927.833
5950.252
5964.698
5970.608
5967.767
5956.049
5935.482
5906.422
5869.716
5826.086
5776.319
5723.041
5670.933
5624.949
5589.845
5571.949
5571.119
5587.072
5617.782
5659.174
5705.676
5755.029
5806.293
5840.467
5856.484
5858.969
5859.804
5894.228
5950.113
6025.05
6105.809
6179.662
6242.669
6295.134
6338.893
6376.585
6410.282
6440.78
6468.051
6491.854
6511.915
6528.481
6542.091
6553.251
6561.796
6567.716
6572.005
6575.27
6576.384
6576.277
6575.507
6573.543
6570.903
6567.579
6563.684
6559.368
6554.752
6549.953
6545.075
6540.201
6535.386
6530.684
6526.103
6521.657
6517.369
6513.275
6509.426
6505.89
6502.747
6500.083
6497.98
6496.506
6495.711
6495.626
6496.263
6497.627
6499.703
6502.44
6505.836
6509.791
6514.19
6518.948
6524.007
6529.172
6534.352
6539.489
6544.48
6549.239
6553.675
6557.729
6561.386
6564.66
6567.598
6570.235
6572.591
6574.705
6576.656
6578.548
6580.469
6582.465
6584.541
6586.684
6588.887
6591.142
6593.422
6595.674
6597.831
6599.835
6601.647
6603.243
6604.622
6605.787
6606.755
6607.555
6608.222
6608.781
6609.25
6609.645
6609.989
6610.327
6610.82
6611.435
6612.595
6614.515
6617.408
6621.375
6626.291
6631.963
6638.226
6645.087
6652.54
6660.453
6668.57
6676.738
6684.85
6692.821
6700.558
6708.012
6715.173
6722.038
6728.611
6734.905
6740.942
6746.727
6752.275
6757.598
6762.691
6767.589
6772.364
6776.937
6781.278
6785.31
6789.063
6792.47
6795.434
6797.846
6799.567
6800.523
6800.537
6799.489
6797.48
6794.563
6790.788
6786.194
6780.988
6775.328
6769.174
6762.185
6754.154
6745.116
6735.311
6724.979
6714.124
6702.895
6691.761
6681.091
6665.381
6644.931
6642.88
6650.241
6662.702
6668.953
6670.742
6671.329
6671.953
6672.73
6672.816
6668.109
6646.35
6637.634
6657.741
6679.52
6687.335
6691.38
6695.937
6701.157
6707.271
6714.728
6723.481
6732.91
6740.157
6746.168
6756.177
6764.329
6769.863
6773.93
6777.28
6780.116
6782.754
6785.63
6788.11
6790.515
6793.016
6795.478
6797.801
6799.985
6801.918
6803.517
6804.719
6805.738
6807.304
6808.61
6809.287
6809.69
6809.868
6809.851
6809.608
6809.123
6808.458
6807.617
6806.568
6805.371
6804.057
6802.52
6800.915
6799.239
6797.423
6795.554
6793.615
6791.602
6789.515
6787.348
6785.106
6782.787
6780.397
6777.94
6775.423
6772.852
6770.23
6767.555
6764.822
6762.023
6759.15
6756.199
6753.168
6750.106
6747.006
6743.881
6740.696
6737.468
6734.172
6730.769
6727.224
6723.505
6719.578
6715.399
6710.982
6706.298
6701.297
6695.955
6690.264
6684.213
6677.795
6671.016
6663.888
6656.45
6648.756
6640.847
6632.732
6624.436
6616.026
6607.585
6599.02
6589.08
6578.409
6571.959
6566.755
6560.256
6553.308
6546.684
6540.489
6535.077
6530.393
6526.538
6523.392
6521.181
6518.294
4236.502
4189.033
4145.698
4104.603
4066.958
4024.906
3988.624
3952.684
3916.737
3880.63
3844.683
3808.905
3772.268
3735.943
3698.536
3657.371
3622.039
3588.414
3556.863
3527.677
3501.417
3478.637
3459.951
3446.452
3438.504
3437.163
3442.522
3458.952
3484.795
3520.017
3565.253
3622.8
3695.416
3783.708
3888.117
4008.079
4143.09
4291.97
4452.723
4623.576
4802.809
4988.397
5179.663
5372.108
5561.258
5741.488
5905.777
6047.698
6161.697
6243.149
6288.716
6297.757
6269.899
6208.179
6114.536
5989.95
5838.514
5666.58
5480.43
5285.444
5086.496
4887.796
4693.175
4505.685
4327.24
4159.231
4002.026
3855.839
3721.067
3598.099
3488.28
3391.963
3308.8
3237.741
3176.931
3124.214
3077.623
3035.778
2998.427
2966.304
2939.832
2918.656
2901.959
2888.106
2877.303
2869.852
2867.934
2874.735
2888.788
2903.796
2921.264
2938.481
2948.56
2958.357
2972.848
2991.025
3007.27
3017.612
3027.467
3037.043
3045.25
3055.893
3070.492
3081.135
3082.702
3083.4
3082.83
3086.509
3100.806
3125.817
3161.533
3207.985
3246.087
3286.014
3332.251
3383.259
3435.808
3488.99
3543.331
3598.848
3655.217
3711.18
3764.404
3811.692
3852.373
3884.855
3916.86
3954.99
3992.984
4035.358
4085.939
4142.003
4202.724
4269.135
4342.493
4424.095
4514.029
4610.915
4711.986
4813.618
4912.659
5006.801
5094.548
5175.016
5247.715
5312.317
5368.725
5417.055
5457.539
5490.823
5517.696
5538.593
5553.644
5562.737
5566.162
5563.9
5555.809
5541.793
5521.554
5494.297
5458.182
5414.084
5366.762
5320.865
5282.948
5258.918
5249.541
5253.383
5269.973
5300.743
5336.303
5369.696
5399.086
5418.455
5430.873
5446.528
5468.53
5495.614
5530.845
5574.121
5623.399
5676.537
5731.598
5786.316
5838.327
5885.787
5927.206
5961.309
5987.028
6003.505
6009.977
6006.019
5991.374
5965.843
5929.551
5883.284
5827.247
5761.267
5688.152
5612.24
5528.743
5438.612
5423.391
5442.063
5455.259
5476.82
5511
5537.226
5551.896
5622.642
5734.253
5821.889
5873.207
5923.703
5981.692
6039.604
6111.864
6182.096
6246.32
6302.764
6350.041
6389.014
6421.951
6450.498
6475.63
6497.673
6516.815
6532.897
6546.09
6556.801
6565.217
6571.413
6575.615
6578.305
6579.983
6579.958
6578.97
6577.162
6574.265
6570.944
6566.901
6562.36
6557.519
6552.49
6547.384
6542.298
6537.306
6532.439
6527.717
6523.136
6518.685
6514.357
6510.169
6506.173
6502.451
6499.108
6496.257
6494.003
6492.436
6491.616
6491.574
6492.32
6493.862
6496.19
6499.282
6503.092
6507.521
6512.445
6517.742
6523.291
6528.946
6534.59
6540.096
6545.36
6550.286
6554.79
6558.83
6562.391
6565.509
6568.264
6570.708
6572.839
6574.687
6576.353
6577.987
6579.732
6581.649
6583.712
6585.877
6588.138
6590.51
6592.974
6595.43
6597.765
6599.908
6601.819
6603.484
6604.904
6606.085
6607.046
6607.831
6608.501
6609.084
6609.611
6610.108
6610.577
6611.033
6611.546
6612.253
6613.372
6615.092
6617.617
6621.06
6625.198
6630.504
6636.913
6644.254
6652.017
6660.183
6668.642
6677.191
6685.664
6693.932
6701.907
6709.548
6716.845
6723.807
6730.458
6736.817
6742.911
6748.756
6754.323
6759.547
6764.763
6769.942
6774.909
6779.576
6784.018
6788.188
6792.037
6795.548
6798.574
6801.04
6802.767
6803.588
6803.357
6801.999
6799.523
6795.987
6791.456
6786.11
6780.291
6774.152
6767.801
6760.069
6751.578
6742.828
6733.403
6723.118
6712.187
6700.458
6687.865
6673.851
6650.195
6578.769
6547.267
6607.743
6658.773
6668.862
6669.975
6670.827
6672.48
6674.295
6672.441
6605.471
6537.035
6557.237
6636.701
6676.07
6685.095
6689.219
6692.991
6697.966
6704.032
6711.583
6720.844
6730.324
6734.439
6746.11
6758.83
6766.685
6771.794
6775.858
6779.302
6781.986
6784.357
6787.202
6789.683
6791.936
6794.352
6796.948
6799.685
6802.308
6804.237
6804.427
6804.597
6807.898
6811.191
6812.308
6812.594
6812.667
6812.399
6811.986
6811.345
6810.526
6809.656
6808.621
6807.379
6805.986
6804.462
6802.824
6801.118
6799.341
6797.478
6795.6
6793.655
6791.64
6789.559
6787.409
6785.184
6782.882
6780.506
6778.063
6775.563
6773.013
6770.418
6767.774
6765.071
6762.295
6759.439
6756.5
6753.487
6750.425
6747.322
6744.223
6741.127
6737.997
6734.82
6731.547
6728.131
6724.534
6720.692
6716.602
6712.324
6707.728
6702.777
6697.466
6691.778
6685.689
6679.191
6672.285
6664.989
6657.363
6649.501
6641.461
6633.221
6624.781
6616.214
6607.608
6597.995
6583.188
6574.202
6568.306
6565.486
6559.565
6552.773
6546.624
6541.395
6536.829
6532.61
6529.22
6526.617
6524.361
6521.371
4464.066
4443.663
4395.232
4336.842
4279.754
4229.316
4183.154
4140.9
4102.116
4063.49
4021.387
3985.663
3950.443
3915.191
3879.661
3843.865
3807.754
3771.136
3734.238
3697.864
3662.594
3627.417
3593.445
3561.114
3530.757
3502.801
3477.395
3454.891
3436.605
3423.676
3417.107
3418.429
3429.046
3449.847
3481.962
3526.046
3583.657
3655.892
3743.298
3846.032
3963.714
4095.796
4240.024
4394.46
4558.721
4732.079
4913.98
5100.82
5288.279
5471.285
5643.847
5799.241
5930.848
6033.049
6101.745
6134.473
6130.776
6091.382
6018.14
5914.27
5782.683
5627.143
5453.106
5266.629
5073.023
4877.544
4684.43
4497.432
4319.163
4151.032
3994.015
3847.256
3711.037
3586.912
3474.226
3373.136
3285.522
3212.59
3152.964
3103.507
3060.724
3021.937
2985.722
2952.225
2922.815
2898.633
2879.702
2866.334
2854.521
2845.887
2839.52
2838.087
2848.856
2871.01
2893.575
2913.26
2936.92
2947.015
2953.947
2969.817
2992.068
3012.67
3022.797
3028.942
3034.918
3040.307
3051.439
3071.668
3086.406
3081.396
3068.048
3053.963
3048.081
3058.619
3088.221
3125.499
3177.037
3214.859
3253.905
3302.697
3359.937
3417.403
3473.965
3532.607
3593.297
3655.316
3717.243
3774.98
3823.293
3859.093
3882.482
3901.24
3927.409
3956.14
3992.148
4040.294
4093.612
4149.759
4212.282
4283.779
4365.5
4458.204
4561.937
4673.187
4786.118
4896.138
5000.163
5096.441
5184.121
5262.783
5332.187
5392.369
5443.677
5486.656
5521.917
5550.076
5571.589
5586.541
5595.151
5597.76
5594.359
5584.359
5566.805
5541.524
5509.167
5465.579
5408.172
5343.251
5279.287
5228.447
5199.129
5189.776
5197.271
5221.79
5259.438
5304.109
5343.956
5374.791
5398.692
5410.833
5427.543
5448.868
5476.886
5514.181
5560.714
5614.694
5673.812
5735.631
5797.448
5856.564
5910.809
5958.396
5998
6028.222
6047.769
6055.675
6051.179
6033.506
6002.356
5957.761
5900.334
5832.35
5749.092
5649.888
5498.05
5354.088
5291.341
5304.936
5329.013
5331.82
5352
5342.457
4986.917
5015.681
5395.939
5696.293
5804.046
5876.564
5954.798
6031.131
6107.323
6181.292
6246.693
6308.407
6361.046
6404.207
6439.705
6468.887
6493.339
6513.9
6531.199
6545.721
6557.628
6567.106
6574.42
6579.861
6583.61
6585.804
6586.701
6586.488
6585.069
6582.709
6579.502
6575.708
6571.253
6566.328
6561.191
6555.741
6550.21
6544.73
6539.388
6534.251
6529.353
6524.659
6520.101
6515.635
6511.232
6506.894
6502.667
6498.657
6495.008
6491.869
6489.382
6487.663
6486.783
6486.764
6487.605
6489.319
6491.922
6495.404
6499.7
6504.695
6510.23
6516.15
6522.321
6528.595
6534.817
6540.843
6546.529
6551.759
6556.421
6560.461
6563.89
6566.797
6569.349
6571.61
6573.497
6575.02
6576.311
6577.585
6579.082
6580.852
6582.639
6584.687
6587.325
6590.11
6592.848
6595.571
6598.15
6600.471
6602.487
6604.216
6605.677
6606.869
6607.79
6608.448
6609.006
6609.568
6610.152
6610.704
6611.011
6611.388
6611.903
6612.705
6613.687
6614.45
6615.576
6618.59
6623.186
6629.381
6635.921
6643.102
6651.078
6659.694
6668.63
6677.674
6686.619
6695.289
6703.528
6711.338
6718.732
6725.737
6732.404
6738.761
6744.7
6749.951
6755.581
6761.487
6767.149
6772.31
6777.21
6781.923
6786.443
6790.753
6794.806
6798.574
6801.708
6804.329
6806.185
6807.029
6806.656
6805.028
6802.185
6798.163
6793.016
6786.874
6780.19
6771.743
6759.25
6749.54
6747.744
6742.998
6732.956
6722.394
6711.869
6700.148
6685.382
6647.209
6434.568
6344.401
6391.243
6591.787
6664.261
6668.061
6663.83
6663.856
6668.457
6675.72
6678.965
6660.602
6546.781
6527.038
6524.612
6536.646
6638.483
6683.245
6689.507
6693.997
6699.609
6706.26
6714.429
6718.888
6725.258
6745.632
6761.411
6769.188
6774.321
6778.407
6781.828
6784.466
6786.643
6789.041
6791.561
6793.823
6796.302
6798.995
6801.561
6801.953
6789.575
6781.046
6796.324
6811.796
6815.524
6815.924
6815.882
6815.493
6815.014
6814.122
6812.802
6811.979
6811.081
6809.805
6808.319
6806.72
6805.037
6803.294
6801.43
6799.519
6797.638
6795.733
6793.783
6791.777
6789.711
6787.579
6785.373
6783.083
6780.713
6778.273
6775.777
6773.238
6770.662
6768.045
6765.37
6762.616
6759.77
6756.829
6753.803
6750.723
6747.618
6744.53
6741.505
6738.505
6735.484
6732.38
6729.131
6725.665
6721.888
6718.038
6713.927
6709.432
6704.565
6699.325
6693.676
6687.574
6680.99
6673.91
6666.3
6658.182
6649.856
6641.686
6633.505
6625.243
6616.606
6607.863
6599.312
6590.982
6581.448
6565.934
6557.049
6550.035
6543.53
6540.924
6541.31
6537.757
6533.732
6530.593
6527.998
6526.646
6524.099
4445.209
4411.285
4343.394
4294.718
4247.816
4204.605
4164.492
4126.789
4090.742
4056.008
4022.484
3988.481
3954.339
3919.769
3884.806
3849.257
3813.11
3776.358
3739.025
3701.591
3665.322
3629.805
3595.299
3562.132
3529.959
3498.845
3469.791
3443.659
3421.441
3404.973
3395.815
3394.788
3403.015
3421.484
3451.501
3494.146
3550.58
3621.524
3707.447
3808.088
3922.618
4049.501
4186.525
4334.426
4493.702
4662.541
4838.928
5019.159
5198.458
5371.291
5531.486
5672.574
5788.154
5872.918
5923.384
5937.994
5917.006
5862.258
5776.229
5662.176
5523.585
5364.321
5189.44
5004.401
4814.706
4624.191
4437.297
4258.924
4091.725
3936.605
3794.007
3661.949
3539.37
3427.994
3328.108
3238.668
3161.281
3099.57
3052.082
3015.238
2985.414
2958.768
2931.066
2901.319
2872.63
2850.585
2834.54
2821.741
2812.742
2804.757
2796.732
2794.339
2814.803
2851.159
2885.24
2904.592
2927.79
2940.839