/*--------------------------------*- C++ -*----------------------------------*\
| =========                 |                                                 |
| \\      /  F ield         | foam-extend: Open Source CFD                    |
|  \\    /   O peration     | Version:     3.1                                |
|   \\  /    A nd           | Web:         http://www.extend-project.de       |
|    \\/     M anipulation  |                                                 |
\*---------------------------------------------------------------------------*/
FoamFile
{
    version     2.0;
    format      ascii;
    class       volScalarField;
    location    "10";
    object      alpha1;
}
// * * * * * * * * * * * * * * * * * * * * * * * * * * * * * * * * * * * * * //

dimensions      [0 0 0 0 0 0 0];

internalField   nonuniform List<scalar> 
119952
(
0.9999999
0.9999999
0.9999999
1
0.9999997
0.9999999
0.9999999
0.9999998
0.9999999
0.9999997
0.9999998
0.9999999
1
0.9999998
0.9999999
0.9999999
0.9999999
1
1
0.9999999
0.9999999
1
1
0.9999999
1
0.9999999
0.9999999
1
1
0.9999996
1
0.9999999
0.9999999
1
1
0.9999999
0.9999999
0.9999999
1
0.9999998
0.9999998
0.9999998
1
1
0.9999995
0.9999997
0.9999999
1
0.9999997
0.9999995
0.9999999
0.9999996
0.9999989
0.9999993
0.9999997
0.9999999
0.9999996
0.9999984
0.9999991
0.9999996
0.9999999
0.9999998
0.9999991
0.9999979
0.9999986
0.9999995
0.9999989
0.9999998
0.9999996
0.9999973
0.9999979
0.9999995
0.9999995
0.9999998
0.9999996
0.9999962
0.9999964
0.999999
0.9999996
0.9999999
0.9999999
0.9999984
0.9999958
0.9999989
0.9999996
0.9999983
0.9999983
0.9999996
0.9999996
0.9999967
0.9999981
0.9999994
0.9999966
0.9999969
0.9999988
0.9999983
0.9999982
0.9999989
0.9999993
0.9999976
0.999998
0.9999997
0.9999998
0.9999979
0.9999979
0.9999993
0.9999997
0.9999999
0.9999997
0.9999989
0.9999996
0.9999999
0.9999996
0.9999987
0.9999993
0.9999998
1
0.9999997
0.9999996
0.9999999
1
0.9999996
0.9999997
0.9999999
1
1
1
0.9999998
0.9999998
0.9999999
1
1
0.9999998
0.9999995
0.9999995
0.9999998
0.9999999
1
1
0.9999999
0.9999972
0.9999984
0.9999997
0.9999998
0.9999988
0.9999961
0.9999917
0.9999858
0.9999792
0.9999739
0.9999728
0.9999769
0.9999835
0.9999898
0.9999939
0.9999941
0.9999825
0.9999663
0.9999698
0.9999835
0.9999938
0.9999973
0.9999984
0.9999992
0.9999997
0.9999999
1
1
1
1
1
1
1
1
1
1
1
1
1
1
1
1
1
1
1
1
1
1
1
1
1
1
1
1
1
1
1
1
1
1
1
1
1
1
1
1
1
1
1
1
1
1
1
1
1
1
1
1
1
1
1
1
1
1
1
1
1
1
1
1
1
1
1
1
1
1
1
1
1
1
1
1
1
1
1
1
0.9999999
0.9999999
0.9999998
0.9999999
0.9999998
0.9999999
0.9999996
0.9999999
0.9999995
0.9999996
0.9999999
0.9999994
0.9999996
0.9999999
0.9999992
0.9999997
0.9999999
0.9999991
0.9999995
1
0.9999989
0.9999999
0.9999993
0.9999994
0.9999999
0.9999998
0.9999985
0.9999995
0.9999999
0.9999995
0.9999991
0.9999998
0.9999996
0.9999991
0.9999995
0.9999998
0.9999977
0.9999985
0.9999997
0.9999998
0.9999991
0.9999989
0.9999997
0.9999998
0.9999998
0.9999972
0.9999987
0.9999995
0.9999967
0.9999974
0.9999995
0.9999997
0.9999998
0.9999989
0.9999962
0.9999985
0.9999997
0.9999981
0.9999972
0.9999993
0.9999997
0.9999999
0.9999982
0.9999958
0.9999989
0.9999997
0.9999998
0.9999972
0.9999961
0.9999991
0.9999998
0.9999976
0.9999969
0.9999994
0.9999997
0.9999988
0.9999961
0.9999976
0.9999996
0.9999985
0.9999967
0.9999982
0.9999997
0.9999996
0.999998
0.9999995
0.9999997
0.9999999
0.9999994
0.9999968
0.9999983
0.9999998
0.9999996
0.9999971
0.9999971
0.9999993
0.9999999
0.9999982
0.9999989
0.9999997
0.9999994
0.9999972
0.9999977
0.9999995
0.9999998
0.9999998
0.9999979
0.9999983
0.9999996
0.9999998
0.9999996
0.9999996
0.9999998
0.9999999
0.9999987
0.9999985
0.9999997
0.9999997
0.9999975
0.9999977
0.9999995
0.9999998
0.9999999
0.9999987
0.9999982
0.9999996
0.9999999
0.9999991
0.9999984
0.9999995
0.9999999
0.9999999
0.9999999
0.9999995
0.9999996
0.9999998
0.9999985
0.9999986
0.9999995
0.9999999
0.9999999
0.9999999
0.9999999
0.9999999
0.9999998
0.999998
0.9999976
0.9999992
0.9999998
0.9999999
1
0.9999997
0.9999997
0.9999999
0.9999998
0.9999988
0.9999995
0.9999997
0.9999999
0.9999997
1
1
1
1
1
1
1
1
1
1
1
1
1
1
0.9999999
1
1
1
0.9999998
0.9999999
0.9999999
0.9999997
0.9999995
0.9999996
0.9999998
0.9999996
0.9999993
0.9999995
0.9999997
0.9999992
0.9999989
0.9999993
0.9999997
0.9999991
0.9999979
0.9999987
0.9999995
0.9999996
0.9999975
0.9999973
0.9999991
0.9999998
0.9999987
0.9999962
0.9999982
0.9999995
0.9999997
0.9999963
0.9999961
0.9999987
0.9999997
0.9999991
0.9999938
0.9999974
0.9999992
0.9999961
0.9999972
0.999998
0.9999952
0.9999928
0.9999937
0.9999958
0.9999975
0.9999971
0.9999937
0.9999932
0.9999946
0.9999965
0.9999977
0.9999961
0.9999911
0.9999922
0.9999945
0.9999966
0.999998
0.9999968
0.9999906
0.9999914
0.9999943
0.9999966
0.9999981
0.9999974
0.9999903
0.9999861
0.9999901
0.9999935
0.9999959
0.9999978
0.9999988
0.9999981
0.9999922
0.9999874
0.9999898
0.9999928
0.9999935
0.9999907
0.9999905
0.999995
0.9999968
0.9999929
0.9999787
0.9999713
0.9999747
0.9999795
0.9999851
0.9999901
0.9999942
0.9999967
0.9999955
0.9999913
0.9999887
0.9999898
0.9999925
0.9999949
0.9999966
0.9999975
0.9999981
0.9999986
0.999999
0.9999991
0.9999988
0.9999983
0.9999976
0.9999973
0.9999976
0.9999983
0.9999987
0.9999987
0.9999987
0.9999986
0.9999985
0.9999984
0.9999986
0.9999991
0.9999996
0.9999998
0.9999995
0.9999988
0.9999975
0.999996
0.9999963
0.9999979
0.9999989
0.9999993
0.9999995
0.9999997
0.9999998
0.9999999
0.9999999
0.9999994
0.9999969
0.9999838
0.9999331
0.9998136
0.999635
0.9994522
0.9993401
0.9993514
0.9994714
0.999646
0.9998118
0.9998694
0.9997207
0.9994418
0.9992465
0.999293
0.9994671
0.9996221
0.9997267
0.9997948
0.9998453
0.9998865
0.9999222
0.9999519
0.9999738
0.9999876
0.9999948
0.9999978
0.9999989
0.9999992
0.9999994
0.9999996
0.9999998
0.9999999
0.9999999
1
1
1
1
1
1
1
1
1
1
0.9999999
0.9999999
0.9999999
0.9999998
0.9999998
0.9999998
0.9999998
0.9999999
0.9999999
0.9999998
0.9999996
0.9999996
0.9999999
1
1
1
0.9999998
0.9999998
0.9999999
0.9999999
0.9999999
0.9999999
1
1
1
1
1
0.9999999
1
1
1
0.9999997
0.9999997
0.9999999
1
1
0.9999999
0.9999996
0.9999998
1
1
0.9999999
0.9999992
0.9999997
0.9999998
0.9999997
0.9999998
0.9999999
0.9999997
0.9999997
0.9999999
0.9999999
1
0.9999999
0.9999996
0.9999997
1
1
0.9999998
0.9999988
0.9999995
0.9999998
0.9999998
0.9999999
1
1
0.9999995
0.9999997
0.9999999
1
0.9999999
0.9999997
0.9999999
0.9999999
0.9999996
0.9999998
0.9999999
1
1
0.9999999
0.9999998
0.9999999
1
1
0.9999999
0.9999998
0.9999997
0.9999997
0.9999998
0.9999999
0.9999998
0.9999997
0.9999997
0.9999998
0.9999999
0.9999999
1
1
1
1
0.9999998
0.9999998
0.9999999
0.9999999
1
1
0.9999999
0.9999999
0.9999998
0.9999998
0.9999998
0.9999999
0.9999999
0.9999999
0.9999999
0.9999996
0.9999992
0.9999994
0.9999997
0.9999999
0.9999999
0.9999999
0.9999999
0.9999999
0.9999999
0.9999999
0.9999999
0.9999999
0.9999998
0.9999996
0.9999993
0.9999992
0.9999995
0.9999996
0.9999997
0.9999998
0.9999999
0.9999999
0.9999999
0.9999999
0.9999999
1
1
0.9999999
0.9999995
0.9999989
0.999999
0.9999995
0.9999998
0.9999998
0.9999998
0.9999998
0.9999998
0.9999999
1
0.9999999
0.9999999
0.9999997
0.9999997
0.9999998
0.9999999
0.9999999
0.9999999
0.9999998
0.9999996
0.9999996
0.9999998
0.9999999
0.9999999
0.9999999
0.9999998
0.9999993
0.9999992
0.9999996
0.9999998
0.9999999
0.9999999
0.9999999
0.9999999
1
1
0.9999999
0.9999999
0.9999999
0.9999999
0.9999999
1
1
1
0.9999998
0.9999993
0.9999996
0.9999998
0.9999999
0.9999999
1
1
1
1
1
0.9999999
0.9999995
0.9999989
0.9999993
0.9999996
0.9999998
0.9999999
1
1
1
1
1
1
1
1
1
1
1
1
0.9999999
1
1
0.9999999
1
1
1
1
0.9999999
1
1
0.9999999
0.9999999
1
1
1
1
1
1
1
1
1
1
1
0.9999999
1
1
1
1
1
1
1
1
1
0.9999999
0.9999999
0.9999999
0.9999999
0.9999999
0.9999999
0.9999999
0.9999998
0.9999997
0.9999998
0.9999996
0.9999996
0.9999997
0.9999994
0.9999991
0.9999995
0.9999997
0.9999985
0.9999984
0.9999993
0.9999995
0.9999963
0.9999969
0.9999971
0.9999966
0.999996
0.9999957
0.9999956
0.9999953
0.9999947
0.9999942
0.9999938
0.9999937
0.9999937
0.9999932
0.9999922
0.9999916
0.9999917
0.999992
0.9999916
0.9999904
0.9999896
0.9999901
0.9999913
0.9999915
0.9999895
0.9999878
0.9999886
0.9999905
0.9999918
0.9999894
0.999986
0.9999869
0.9999892
0.9999911
0.9999887
0.9999829
0.9999825
0.9999855
0.9999896
0.9999935
0.9999932
0.9999821
0.9999754
0.9999813
0.9999873
0.9999925
0.9999927
0.9999815
0.9999755
0.9999815
0.9999879
0.9999929
0.9999928
0.9999795
0.9999727
0.9999808
0.9999875
0.9999926
0.9999933
0.9999841
0.9999773
0.9999802
0.9999864
0.999991
0.9999913
0.9999793
0.9999732
0.9999732
0.9999797
0.9999855
0.9999904
0.9999944
0.9999955
0.9999923
0.9999744
0.9999605
0.9999631
0.9999695
0.9999765
0.9999841
0.9999913
0.9999937
0.999991
0.9999614
0.9999077
0.9999162
0.9999407
0.99996
0.9999752
0.9999873
0.999994
0.9999868
0.9999684
0.9999707
0.9999784
0.9999846
0.9999887
0.9999904
0.9999908
0.9999918
0.9999935
0.9999951
0.9999951
0.9999936
0.9999924
0.9999928
0.9999946
0.9999965
0.9999969
0.9999958
0.9999944
0.9999935
0.9999932
0.9999945
0.9999966
0.9999983
0.9999993
0.9999997
0.9999993
0.9999974
0.9999911
0.9999882
0.9999934
0.9999969
0.999998
0.9999981
0.9999984
0.9999989
0.9999994
0.9999997
0.9999997
0.9999991
0.9999956
0.9999751
0.9998639
0.99945
0.9985701
0.997445
0.9966269
0.9966058
0.9973051
0.9982986
0.99916
0.9997166
0.9995959
0.998782
0.9977518
0.9974024
0.997688
0.9981493
0.9985463
0.9988607
0.9991284
0.9993684
0.9995808
0.9997513
0.9998696
0.9999392
0.9999744
0.9999899
0.9999957
0.999997
0.9999971
0.9999978
0.9999985
0.9999991
0.9999995
0.9999997
0.9999999
0.9999999
1
1
1
1
1
1
1
0.9999999
0.9999999
0.9999999
0.9999999
0.9999999
0.9999999
1
1
1
0.9999999
0.9999997
0.9999996
0.9999998
0.9999999
1
1
0.9999999
0.9999997
0.9999996
0.9999996
0.9999996
0.9999997
0.9999998
0.9999999
1
1
1
1
0.9999999
0.9999998
0.9999998
0.9999998
0.9999999
0.9999999
0.9999999
0.9999999
1
0.9999999
0.9999996
0.9999998
0.9999999
0.9999998
0.9999998
0.9999996
0.9999992
0.9999992
0.9999992
0.9999992
0.9999992
0.9999993
0.9999992
0.9999993
0.9999995
0.9999997
0.9999998
0.9999999
1
0.9999999
0.9999998
0.9999993
0.9999985
0.9999985
0.9999986
0.9999992
0.9999993
0.9999994
0.9999995
0.9999997
0.9999999
1
0.9999999
0.9999998
0.9999993
0.9999986
0.9999987
0.999999
0.9999994
0.9999997
0.9999998
0.9999998
0.9999998
0.9999998
0.9999998
0.9999998
0.9999999
0.9999999
1
1
0.9999999
0.9999997
0.9999991
0.999999
0.9999993
0.9999996
0.9999998
0.9999998
0.9999998
0.9999998
0.9999998
0.9999998
0.9999998
0.9999999
0.9999999
1
1
1
1
0.9999998
0.9999996
0.9999997
0.9999998
0.9999999
0.9999999
0.9999999
1
1
1
1
0.9999999
0.9999996
0.9999995
0.9999995
0.9999998
0.9999999
1
1
1
1
0.9999998
0.9999996
0.9999997
0.9999998
0.9999999
1
1
1
1
0.9999999
0.9999997
0.9999997
0.9999998
0.9999999
0.9999999
0.9999999
0.9999998
0.9999995
0.9999993
0.9999996
0.9999998
0.9999999
0.9999999
0.9999999
0.9999998
0.9999997
0.9999997
0.9999999
0.9999999
1
0.9999999
0.9999997
0.9999997
0.9999997
0.9999998
0.9999999
0.9999999
1
1
1
1
1
0.9999998
0.9999994
0.9999995
0.9999998
0.9999999
0.9999999
0.9999999
0.9999999
0.9999999
0.9999999
1
1
1
1
0.9999999
0.9999999
0.9999999
1
1
1
0.9999999
0.9999998
0.9999995
0.9999995
0.9999995
0.9999997
0.9999999
1
1
1
1
0.9999999
0.9999999
0.9999998
0.9999996
0.9999997
0.9999998
0.9999999
1
1
1
1
1
1
1
1
1
1
1
1
1
1
0.9999999
1
1
1
1
1
1
1
1
1
1
1
1
1
1
1
1
1
1
1
1
1
1
1
1
1
1
1
1
1
1
1
1
1
1
1
0.9999999
0.9999999
0.9999999
0.9999999
0.9999999
0.9999998
0.9999998
0.9999997
0.9999996
0.9999995
0.9999994
0.9999992
0.9999991
0.9999989
0.9999986
0.9999983
0.999998
0.9999975
0.9999971
0.9999967
0.9999961
0.9999956
0.9999951
0.9999945
0.9999936
0.9999929
0.9999922
0.9999911
0.9999901
0.9999894
0.9999888
0.9999878
0.9999864
0.9999852
0.9999847
0.9999846
0.9999836
0.9999807
0.9999777
0.9999771
0.9999786
0.9999798
0.9999769
0.9999717
0.99997
0.9999725
0.9999758
0.9999737
0.9999665
0.9999641
0.9999686
0.9999762
0.9999796
0.9999685
0.999957
0.9999603
0.9999692
0.9999782
0.999976
0.9999574
0.999952
0.9999608
0.9999728
0.9999785
0.9999611
0.9999403
0.9999466
0.9999595
0.9999736
0.9999807
0.9999709
0.9999341
0.9999352
0.9999533
0.9999716
0.9999802
0.9999654
0.9999314
0.9999395
0.9999584
0.9999756
0.999982
0.9999726
0.9999317
0.9999369
0.9999566
0.9999738
0.9999864
0.9999869
0.9999664
0.9999278
0.999936
0.9999568
0.9999753
0.999982
0.9999744
0.9999427
0.9999357
0.9999504
0.9999686
0.9999843
0.9999862
0.999968
0.9999249
0.999886
0.999879
0.9998965
0.999928
0.9999609
0.9999829
0.9999859
0.9999638
0.99989
0.999804
0.9997872
0.9998222
0.9998789
0.9999352
0.9999736
0.9999858
0.9999727
0.9999135
0.9999177
0.999947
0.9999713
0.999983
0.9999716
0.9999649
0.9999702
0.9999801
0.9999879
0.9999773
0.9999682
0.9999695
0.9999851
0.9999907
0.9999909
0.9999884
0.9999831
0.9999792
0.9999826
0.9999888
0.999994
0.9999972
0.9999985
0.9999987
0.9999979
0.9999919
0.9999826
0.9999834
0.9999923
0.9999947
0.999993
0.9999923
0.9999946
0.9999969
0.9999976
0.999998
0.9999984
0.9999978
0.9999922
0.9999587
0.9997551
0.9986737
0.9953631
0.9902416
0.986318
0.9866679
0.9905582
0.9948662
0.9977048
0.999211
0.9995274
0.9984909
0.9940731
0.9912552
0.9919394
0.9933185
0.994459
0.9953554
0.9962219
0.9972105
0.998245
0.9990651
0.9995598
0.9998094
0.999923
0.9999711
0.9999899
0.9999966
0.9999946
0.9999922
0.9999944
0.9999964
0.9999978
0.9999988
0.9999994
0.9999997
0.9999999
1
1
1
1
1
1
1
1
1
1
1
0.9999999
0.9999999
0.9999999
0.9999999
0.9999999
0.9999999
0.9999999
0.9999999
0.9999999
0.9999999
0.9999999
0.9999999
0.9999999
0.9999999
0.9999998
0.9999996
0.9999995
0.9999996
0.9999998
0.9999999
0.9999999
0.9999999
1
1
0.9999999
0.9999997
0.9999996
0.9999996
0.9999996
0.9999997
0.9999997
0.9999997
0.9999998
0.9999998
0.9999998
0.9999996
0.9999991
0.9999988
0.9999991
0.9999995
0.9999998
0.9999999
0.9999999
0.9999998
0.9999994
0.9999978
0.9999976
0.9999984
0.9999991
0.9999995
0.9999997
0.9999998
0.9999999
0.9999999
0.9999999
0.9999999
0.9999999
0.9999997
0.9999986
0.9999979
0.9999979
0.9999982
0.9999991
0.9999996
0.9999998
0.9999999
0.9999999
0.9999995
0.9999978
0.9999972
0.9999975
0.9999989
0.9999996
0.9999998
0.9999996
0.999999
0.9999988
0.9999989
0.9999992
0.9999994
0.9999996
0.9999998
0.9999999
0.9999999
0.9999998
0.9999989
0.9999978
0.9999983
0.999999
0.9999994
0.9999995
0.9999995
0.9999995
0.9999995
0.9999995
0.9999995
0.9999995
0.9999997
0.9999999
0.9999999
1
1
0.9999999
0.9999998
0.9999996
0.9999996
0.9999996
0.9999996
0.9999997
0.9999998
0.9999999
0.9999998
0.9999996
0.9999993
0.9999992
0.9999994
0.9999997
0.9999998
0.9999998
0.9999999
0.9999999
0.9999999
1
1
0.9999999
0.9999997
0.9999992
0.9999993
0.9999996
0.9999998
0.9999999
1
1
0.9999999
0.9999997
0.9999996
0.9999996
0.9999997
0.9999999
0.9999999
1
1
1
0.9999999
0.9999995
0.9999994
0.9999995
0.9999998
0.9999999
0.9999999
1
1
1
0.9999999
0.9999998
0.9999997
0.9999998
0.9999999
0.9999999
0.9999999
1
1
1
0.9999998
0.9999995
0.9999995
0.9999995
0.9999998
0.9999999
0.9999999
0.9999999
0.9999999
0.9999997
0.9999997
0.9999997
0.9999997
0.9999999
0.9999999
1
0.9999999
0.9999999
0.9999999
0.9999999
1
1
1
0.9999998
0.9999995
0.9999995
0.9999995
0.9999998
0.9999999
0.9999999
0.9999999
0.9999999
1
1
1
1
0.9999999
0.9999998
0.9999999
0.9999999
1
1
1
1
1
1
0.9999999
0.9999998
0.9999998
0.9999999
1
1
1
1
1
1
1
1
1
1
1
1
1
1
1
1
1
1
1
1
1
1
1
1
1
1
1
1
1
1
1
1
1
1
1
1
1
1
1
1
1
1
1
1
1
1
1
1
1
0.9999999
0.9999999
0.9999999
0.9999999
0.9999998
0.9999997
0.9999997
0.9999995
0.9999994
0.9999992
0.999999
0.9999987
0.9999983
0.9999979
0.9999974
0.9999967
0.999996
0.9999951
0.999994
0.9999927
0.9999912
0.9999896
0.9999879
0.9999862
0.9999843
0.9999823
0.9999802
0.9999781
0.9999757
0.9999727
0.9999691
0.999966
0.9999639
0.9999621
0.9999582
0.9999522
0.9999477
0.9999483
0.9999517
0.9999486
0.9999341
0.9999202
0.9999199
0.9999313
0.999941
0.9999289
0.9999035
0.9998972
0.999912
0.9999317
0.9999279
0.9998936
0.9998793
0.9998969
0.9999275
0.9999516
0.9999264
0.9998651
0.9998638
0.9998961
0.9999332
0.9999443
0.9998902
0.9998458
0.999869
0.9999115
0.9999468
0.9999204
0.9998305
0.9998223
0.9998651
0.9999144
0.9999524
0.9999323
0.9998277
0.9998072
0.999859
0.999916
0.9999531
0.9999239
0.9998219
0.9998272
0.9998814
0.9999323
0.9999626
0.9999367
0.9998402
0.9998412
0.9998926
0.9999387
0.9999735
0.9999705
0.9999085
0.9998334
0.9998442
0.9998988
0.9999507
0.9999536
0.9999066
0.9998372
0.9998278
0.9998901
0.9999485
0.9999538
0.9999124
0.9998196
0.9996781
0.999552
0.9996141
0.999791
0.999906
0.9999483
0.9999334
0.9998689
0.9997222
0.9994759
0.9992337
0.9993726
0.9996724
0.9998512
0.9999377
0.9999813
0.9999804
0.9999437
0.9998005
0.9998372
0.9999134
0.9999602
0.9999617
0.9999081
0.9998618
0.9999
0.9999465
0.9999755
0.9999863
0.9999864
0.9999845
0.9999641
0.9999524
0.9999531
0.9999536
0.9999557
0.9999642
0.9999768
0.999988
0.999995
0.9999947
0.9999882
0.9999784
0.999982
0.9999923
0.9999936
0.9999922
0.9999801
0.9999691
0.9999823
0.9999923
0.9999931
0.9999896
0.9999864
0.999986
0.9999879
0.9999799
0.9999232
0.9996005
0.9976184
0.9878091
0.9667405
0.9521089
0.9606028
0.9781832
0.9898818
0.9955945
0.9981743
0.9993668
0.9989018
0.99429
0.9745717
0.9658957
0.9680524
0.9698793
0.9726526
0.9798579
0.9885741
0.9945077
0.9975587
0.9989672
0.9995844
0.999843
0.9999447
0.9999811
0.9999933
0.9999958
0.9999913
0.9999843
0.999989
0.9999934
0.9999961
0.9999978
0.9999988
0.9999994
0.9999998
0.9999999
1
1
1
1
1
1
1
1
1
0.9999999
0.9999998
0.9999996
0.9999995
0.9999995
0.9999994
0.9999994
0.9999994
0.9999995
0.9999996
0.9999997
0.9999998
0.9999999
0.9999998
0.9999997
0.9999997
0.9999995
0.9999997
0.9999999
0.9999998
0.9999997
0.9999997
0.9999998
0.9999999
0.9999999
0.9999999
0.9999999
0.9999998
0.9999996
0.9999991
0.999999
0.999999
0.9999991
0.9999993
0.9999996
0.9999997
0.9999996
0.9999985
0.9999978
0.9999987
0.9999994
0.9999998
0.9999999
0.9999999
0.9999997
0.9999984
0.9999951
0.9999961
0.9999977
0.9999987
0.9999992
0.9999995
0.9999997
0.9999998
0.9999999
0.9999999
0.9999999
0.9999999
0.9999998
0.9999989
0.9999979
0.9999979
0.9999982
0.9999992
0.9999997
0.9999999
0.9999999
0.9999998
0.9999988
0.9999975
0.9999984
0.9999992
0.9999997
0.9999998
0.9999998
0.9999993
0.9999972
0.9999952
0.9999962
0.9999974
0.9999984
0.9999991
0.9999996
0.9999998
0.9999998
0.9999996
0.9999986
0.9999974
0.9999974
0.9999976
0.9999988
0.9999995
0.9999998
0.9999996
0.9999995
0.9999995
0.9999995
0.9999995
0.9999995
0.9999995
0.9999998
0.9999999
1
1
1
1
1
1
0.9999998
0.9999992
0.9999988
0.9999989
0.9999991
0.9999993
0.9999993
0.9999992
0.9999992
0.9999992
0.9999992
0.9999992
0.9999995
0.9999997
0.9999999
0.9999999
0.9999999
0.9999996
0.999999
0.9999989
0.9999991
0.9999996
0.9999998
0.9999998
0.9999998
0.9999998
0.9999997
0.9999996
0.9999996
0.9999996
0.9999998
0.9999999
0.9999999
1
1
0.9999999
0.9999995
0.9999994
0.9999994
0.9999997
0.9999999
0.9999999
0.9999999
0.9999999
1
1
1
1
1
0.9999999
0.9999996
0.9999994
0.9999995
0.9999998
0.9999999
1
1
1
0.9999999
0.9999997
0.9999995
0.9999995
0.9999997
0.9999999
0.9999999
0.9999999
0.9999999
0.9999998
0.9999998
0.9999999
0.9999999
1
1
1
0.9999998
0.9999997
0.9999997
0.9999999
0.9999999
0.9999999
0.9999999
0.9999999
0.9999998
0.9999996
0.9999996
0.9999997
0.9999998
0.9999999
1
1
0.9999999
0.9999998
0.9999998
0.9999999
0.9999999
0.9999999
1
1
1
1
1
1
0.9999999
0.9999998
0.9999998
1
1
1
1
1
1
1
1
1
1
1
1
1
1
1
1
1
1
1
1
1
1
1
1
1
1
1
1
1
1
1
1
1
1
1
1
1
1
1
1
1
1
1
1
1
1
1
1
1
1
1
1
1
1
1
1
1
0.9999999
0.9999999
0.9999999
0.9999998
0.9999998
0.9999997
0.9999996
0.9999994
0.9999992
0.9999989
0.9999985
0.9999979
0.9999972
0.9999963
0.9999952
0.9999939
0.9999923
0.9999904
0.9999881
0.9999855
0.9999823
0.9999785
0.9999739
0.9999687
0.9999631
0.9999573
0.9999514
0.999945
0.9999383
0.9999317
0.9999254
0.9999179
0.9999075
0.9998951
0.9998857
0.999882
0.9998775
0.9998611
0.9998356
0.9998227
0.9998358
0.9998573
0.9998422
0.9997792
0.999728
0.9997398
0.9997945
0.9998345
0.9997821
0.9996858
0.9996701
0.9997334
0.9998137
0.9998073
0.9996836
0.9996216
0.9996786
0.9997804
0.9998673
0.9998114
0.9996236
0.9995848
0.9996801
0.999799
0.9998481
0.9997066
0.9995571
0.9996096
0.9997361
0.9998497
0.9997998
0.9995542
0.9994852
0.9996041
0.9997523
0.9998704
0.9998153
0.9995412
0.9994763
0.9996185
0.9997762
0.9998836
0.9998071
0.9995646
0.9995651
0.999699
0.9998307
0.9999057
0.9998202
0.999642
0.9996513
0.9997644
0.999879
0.9999313
0.9998595
0.999636
0.9995455
0.9997563
0.9998906
0.9998668
0.9997436
0.9995429
0.9995995
0.9998068
0.9999099
0.9998571
0.9996815
0.9992558
0.9985297
0.9986639
0.9993448
0.9997163
0.9998562
0.9998193
0.9996748
0.9993355
0.9986052
0.9975413
0.9981273
0.9991048
0.9995954
0.9998152
0.9999098
0.9999578
0.9999797
0.9999644
0.9998458
0.9997108
0.9997685
0.9998495
0.9998857
0.999809
0.9997775
0.9998291
0.9999266
0.9999685
0.9999858
0.9999864
0.9999852
0.9999483
0.9999038
0.9998789
0.9998636
0.9998657
0.9998958
0.9999391
0.9999718
0.9999878
0.9999842
0.9999631
0.999953
0.9999721
0.9999864
0.9999862
0.9999649
0.9999444
0.9999649
0.9999845
0.9999912
0.9999783
0.9999523
0.9999171
0.9998934
0.9999039
0.999915
0.9998062
0.9991779
0.9958801
0.9783071
0.9028949
0.8699872
0.9165613
0.9635989
0.9840947
0.9921666
0.9954718
0.9978511
0.9983569
0.9948873
0.9735864
0.8635098
0.7047085
0.7692475
0.8784343
0.9456774
0.9766671
0.990181
0.9959799
0.9984164
0.9994063
0.9997867
0.9999199
0.9999613
0.9999763
0.9999869
0.9999909
0.9999822
0.9999732
0.9999827
0.9999894
0.9999933
0.9999961
0.999998
0.9999991
0.9999996
0.9999999
1
1
1
1
1
0.9999999
0.9999999
0.9999999
0.9999999
0.9999999
0.9999999
0.9999998
0.9999996
0.999999
0.9999987
0.9999987
0.9999987
0.9999988
0.9999991
0.9999995
0.9999998
0.9999997
0.9999993
0.999999
0.9999993
0.9999997
0.9999998
0.9999996
0.9999992
0.9999991
0.9999993
0.9999996
0.9999998
0.9999998
0.9999998
0.9999997
0.9999998
0.9999998
0.9999996
0.9999989
0.9999987
0.9999987
0.9999992
0.9999996
0.9999991
0.9999972
0.999997
0.999998
0.999999
0.9999995
0.9999997
0.9999999
0.9999997
0.9999991
0.9999964
0.9999922
0.9999936
0.9999958
0.9999973
0.9999983
0.9999989
0.9999992
0.9999995
0.9999997
0.9999999
0.9999999
0.9999997
0.9999984
0.999998
0.999999
0.9999994
0.9999997
0.9999999
0.9999999
0.9999997
0.9999987
0.9999986
0.9999993
0.9999997
0.9999998
0.9999998
0.9999998
0.9999998
0.9999997
0.9999985
0.999993
0.9999893
0.9999922
0.9999954
0.9999975
0.9999987
0.9999994
0.9999997
0.9999998
0.9999997
0.9999989
0.9999975
0.9999974
0.9999979
0.9999991
0.9999996
0.9999998
0.9999999
0.9999998
0.9999997
0.9999998
0.9999998
0.9999999
0.9999999
1
1
1
1
1
1
1
0.9999999
0.9999996
0.999998
0.9999959
0.9999963
0.9999975
0.9999986
0.9999993
0.9999997
0.9999998
0.9999998
0.9999995
0.9999992
0.9999992
0.9999992
0.9999994
0.9999997
0.9999999
0.9999999
0.9999999
0.9999999
0.9999999
0.9999997
0.999999
0.9999986
0.9999986
0.9999991
0.9999997
0.9999999
0.9999999
0.9999999
0.9999998
0.9999995
0.9999994
0.9999995
0.9999996
0.9999998
0.9999999
0.9999999
0.9999998
0.9999995
0.9999995
0.9999995
0.9999998
0.9999999
1
1
1
1
0.9999999
0.9999996
0.9999996
0.9999997
0.9999999
0.9999999
0.9999999
1
1
1
0.9999998
0.9999996
0.9999995
0.9999996
0.9999997
0.9999998
0.9999999
0.9999999
1
1
0.9999998
0.9999997
0.9999997
0.9999999
0.9999999
1
1
0.9999999
0.9999997
0.9999998
0.9999999
0.9999999
0.9999999
0.9999999
0.9999998
0.9999996
0.9999996
0.9999996
0.9999997
0.9999999
0.9999999
1
1
0.9999999
0.9999998
0.9999997
0.9999998
0.9999999
0.9999999
0.9999999
0.9999998
0.9999998
0.9999998
0.9999999
1
1
1
1
1
1
1
1
1
1
1
1
1
1
1
1
1
1
1
1
1
1
1
1
1
1
1
1
1
1
1
1
1
1
1
1
1
1
1
1
1
1
1
1
1
1
1
1
1
1
1
1
1
1
1
1
1
1
1
1
1
1
0.9999999
0.9999999
0.9999999
0.9999998
0.9999998
0.9999996
0.9999995
0.9999993
0.999999
0.9999985
0.999998
0.9999972
0.9999961
0.9999947
0.9999926
0.99999
0.9999866
0.9999825
0.9999775
0.9999716
0.9999648
0.9999569
0.9999477
0.9999367
0.9999236
0.999908
0.9998905
0.9998719
0.9998529
0.9998331
0.9998117
0.99979
0.9997704
0.9997523
0.9997282
0.9996919
0.999653
0.9996332
0.9996329
0.9996124
0.9995379
0.99945
0.9994415
0.9995221
0.9995867
0.9994834
0.9992504
0.9991291
0.9992381
0.9994479
0.9995197
0.999285
0.9990051
0.9990282
0.9992714
0.9995162
0.9994269
0.999046
0.9988927
0.9990909
0.9994058
0.999626
0.999409
0.9989273
0.998846
0.9991248
0.9994636
0.9995376
0.9991324
0.9987827
0.998939
0.9992886
0.9995703
0.9993766
0.9988003
0.9986413
0.9989394
0.9993382
0.9996303
0.9994
0.9987723
0.9987205
0.9990724
0.9994521
0.9996908
0.9994133
0.9988898
0.9989725
0.9993437
0.9996463
0.999646
0.9993903
0.9991257
0.9993244
0.9996905
0.9998169
0.9995852
0.9990546
0.9993931
0.9997556
0.9997659
0.9994968
0.9987851
0.9987635
0.9994145
0.9997835
0.9997747
0.9994614
0.9984092
0.9961248
0.996639
0.9984344
0.9993279
0.9996614
0.9995302
0.9990994
0.9980994
0.9958801
0.9931805
0.9956079
0.9979784
0.9990955
0.9994926
0.9996084
0.9997106
0.9998242
0.9999232
0.9999463
0.9998243
0.9994409
0.9992462
0.9993057
0.9994676
0.9996667
0.9998312
0.9999141
0.9999512
0.9999549
0.9999682
0.9999843
0.9999777
0.999919
0.9997072
0.9992976
0.9991856
0.9994407
0.9996873
0.9998565
0.9999402
0.9999625
0.9999476
0.9999226
0.9999221
0.9999465
0.9999525
0.9999218
0.9999185
0.9999393
0.9999744
0.9999895
0.9999815
0.9999453
0.9998336
0.99961
0.9993706
0.9993388
0.9995272
0.9994271
0.9982036
0.9906189
0.9378394
0.8699872
0.8699872
0.8792904
0.9484014
0.9758704
0.9786203
0.9814635
0.9887589
0.9946642
0.9897091
0.9258212
0.6400082
0.5791674
0.5791674
0.8179586
0.9302031
0.973053
0.9896056
0.9960481
0.9985093
0.9994127
0.9997148
0.9997988
0.9998493
0.9999107
0.9999576
0.9999842
0.999988
0.9999764
0.999964
0.9999718
0.9999808
0.999988
0.9999935
0.999997
0.9999988
0.9999996
0.9999999
1
1
1
1
0.9999999
0.9999997
0.9999996
0.9999997
0.9999999
0.9999999
0.9999999
0.9999999
0.9999999
0.9999999
0.9999998
0.9999995
0.9999978
0.9999978
0.9999987
0.9999994
0.9999997
0.9999995
0.9999987
0.9999987
0.9999993
0.9999997
0.9999994
0.9999984
0.9999983
0.9999983
0.9999991
0.9999997
0.9999997
0.9999993
0.9999989
0.9999989
0.9999993
0.9999997
0.9999998
0.9999998
0.9999998
0.9999998
0.9999998
0.9999992
0.9999977
0.999997
0.999997
0.9999976
0.9999984
0.9999988
0.9999993
0.9999996
0.9999996
0.9999991
0.9999967
0.9999877
0.9999866
0.999991
0.9999942
0.9999963
0.9999977
0.9999986
0.999999
0.9999994
0.9999996
0.9999993
0.9999979
0.9999982
0.9999991
0.9999996
0.9999998
0.9999999
0.9999999
0.9999998
0.9999988
0.9999972
0.9999975
0.9999986
0.9999993
0.9999997
0.9999998
0.9999998
0.9999998
0.999999
0.9999943
0.9999809
0.9999808
0.9999881
0.9999937
0.9999969
0.9999985
0.9999994
0.9999998
0.9999997
0.9999994
0.9999989
0.9999987
0.9999991
0.9999996
0.9999998
0.9999998
0.9999998
0.9999998
0.9999999
0.9999999
0.9999999
0.9999999
0.9999999
0.9999999
0.9999999
0.9999999
0.9999999
1
1
1
1
0.9999998
0.9999987
0.9999934
0.9999896
0.9999941
0.9999967
0.9999981
0.999999
0.9999995
0.9999998
0.9999999
0.9999999
0.9999999
0.9999998
0.9999996
0.9999997
0.9999998
0.9999998
0.9999998
0.9999997
0.9999992
0.9999986
0.9999986
0.9999987
0.9999993
0.9999996
0.9999998
0.9999999
0.9999999
0.9999999
0.9999998
0.9999993
0.9999986
0.9999986
0.9999986
0.9999993
0.9999997
0.9999999
0.9999999
0.9999999
0.9999999
0.9999999
0.9999999
0.9999999
0.9999999
0.9999999
0.9999997
0.9999997
0.9999998
0.9999999
0.9999999
0.9999999
0.9999997
0.9999994
0.9999994
0.9999997
0.9999999
0.9999999
1
1
0.9999998
0.9999993
0.9999991
0.9999993
0.9999997
0.9999999
0.9999999
1
1
1
1
1
1
1
1
0.9999999
0.9999996
0.9999996
0.9999998
0.9999999
0.9999999
0.9999999
0.9999996
0.9999996
0.9999997
0.9999998
0.9999999
0.9999999
1
1
1
1
1
1
1
1
0.9999999
0.9999997
0.9999996
0.9999996
0.9999996
0.9999997
0.9999999
1
1
1
1
1
1
1
1
1
1
1
1
1
1
1
1
1
1
1
1
1
1
1
1
1
1
1
1
1
1
1
1
1
1
1
1
1
1
1
1
1
1
1
1
1
1
1
1
1
1
1
1
1
1
1
1
1
1
1
1
0.9999999
0.9999999
0.9999998
0.9999998
0.9999996
0.9999995
0.9999992
0.9999987
0.9999981
0.9999973
0.9999962
0.9999946
0.9999925
0.9999896
0.9999856
0.9999801
0.9999727
0.9999629
0.9999506
0.9999355
0.9999175
0.9998964
0.9998722
0.9998445
0.9998126
0.9997749
0.9997302
0.9996786
0.9996222
0.9995639
0.9995038
0.9994396
0.9993714
0.9993067
0.9992527
0.9991979
0.9991134
0.9989954
0.9989011
0.9988871
0.9988893
0.9987557
0.9984679
0.99828
0.9984183
0.9987135
0.9987067
0.9981653
0.9975089
0.9975082
0.9980818
0.9986227
0.9983894
0.9975174
0.9970122
0.9974632
0.9983049
0.9986956
0.9980399
0.9970611
0.9969761
0.9977352
0.9986579
0.9987995
0.9978837
0.9968708
0.9969792
0.9979102
0.9987094
0.9983481
0.9972852
0.9966978
0.9973074
0.9984085
0.9986218
0.9977472
0.9965718
0.9962413
0.9973108
0.9986135
0.9987928
0.9979703
0.9968984
0.9965985
0.9976521
0.9988784
0.9989864
0.9980674
0.9976314
0.9984434
0.9990857
0.9989454
0.9978649
0.9976374
0.9988397
0.9995313
0.9994579
0.998879
0.9986631
0.9993629
0.9995651
0.9990972
0.9974095
0.9972413
0.9985346
0.9994505
0.9996378
0.9992638
0.9973824
0.9919061
0.9930111
0.9967434
0.9985848
0.9992482
0.9988471
0.9976787
0.9947551
0.9876862
0.9833557
0.9903771
0.9956091
0.9981024
0.9985948
0.9981768
0.9981216
0.9985149
0.9991027
0.9995735
0.9998603
0.9998247
0.9992856
0.9976529
0.9980299
0.9989408
0.9995013
0.9997746
0.9998945
0.9998528
0.9998406
0.9998705
0.9999184
0.9999422
0.9998305
0.9992469
0.9984224
0.9984165
0.9985437
0.9993765
0.9997581
0.9998841
0.9998556
0.9997604
0.9996591
0.9997035
0.9998097
0.9998727
0.9999244
0.9999618
0.9999815
0.9999855
0.9999809
0.9999448
0.9998406
0.999506
0.9985658
0.9970817
0.9964212
0.9973737
0.9980319
0.996047
0.9846984
0.916209
0.8699872
0.9246792
0.9656047
0.9664231
0.9438008
0.9119546
0.9071886
0.9302736
0.9598443
0.9775882
0.9457423
0.7504791
0.6940076
0.8133148
0.912245
0.9644494
0.9857025
0.9937522
0.9968623
0.9982162
0.9988912
0.9992713
0.9995442
0.9997487
0.9998779
0.9999479
0.9999806
0.9999872
0.9999711
0.9999444
0.9999347
0.9999467
0.9999661
0.9999828
0.9999925
0.9999971
0.9999989
0.9999996
0.9999999
0.9999999
1
1
1
0.9999997
0.9999995
0.9999996
0.9999998
0.9999999
1
0.9999999
0.9999999
0.9999999
0.9999998
0.9999996
0.9999987
0.9999963
0.9999969
0.999998
0.9999988
0.9999992
0.9999995
0.9999996
0.9999998