/*--------------------------------*- C++ -*----------------------------------*\
| =========                 |                                                 |
| \\      /  F ield         | foam-extend: Open Source CFD                    |
|  \\    /   O peration     | Version:     3.1                                |
|   \\  /    A nd           | Web:         http://www.extend-project.de       |
|    \\/     M anipulation  |                                                 |
\*---------------------------------------------------------------------------*/
FoamFile
{
    version     2.0;
    format      ascii;
    class       surfaceScalarField;
    location    "10";
    object      phi;
}
// * * * * * * * * * * * * * * * * * * * * * * * * * * * * * * * * * * * * * //

dimensions      [0 3 -1 0 0 0 0];

internalField   nonuniform List<scalar> 
275122
(
-0.0002845959
0.0002874987
-2.293597e-07
-2.673447e-06
-0.0002516651
0.0002395628
9.741744e-07
1.112813e-05
-0.0002468844
0.0002526193
-2.647671e-07
-5.470157e-06
-0.0002720132
0.0002787604
-3.242485e-07
-6.422901e-06
-0.000295675
0.0002975429
-3.547646e-07
-1.513109e-06
-0.0002967492
0.0002961454
-2.980432e-07
9.018883e-07
-0.0002933485
0.0002923045
-2.69655e-07
1.313626e-06
-0.0002888738
0.0002876754
-2.49574e-07
1.447955e-06
-0.0002841065
0.0002829077
-2.263151e-07
1.425073e-06
-0.000279305
0.0002780989
-2.054924e-07
1.411617e-06
-0.0002744648
0.0002732496
-1.847205e-07
1.399878e-06
-0.0002695961
0.0002683749
-1.654627e-07
1.386697e-06
-0.0002646788
0.0002634368
-1.496974e-07
1.391636e-06
-0.0002596889
0.000258435
-1.336495e-07
1.387574e-06
-0.0002546453
0.0002533772
-1.180264e-07
1.386155e-06
-0.0002495404
0.0002482611
-1.040959e-07
1.383434e-06
-0.0002443983
0.0002431257
-9.285184e-08
1.365476e-06
-0.0002393216
0.0002381129
-9.079132e-08
1.299484e-06
-0.0002346896
0.0002337447
-1.390378e-07
1.083928e-06
-0.0002320234
0.0002325516
-4.210817e-07
-1.071116e-07
-0.0002586973
0.0002691731
-8.920134e-07
-9.583802e-06
-0.0002733838
0.0002736463
-2.07503e-07
-5.498383e-08
-0.0002779766
0.0002800043
-1.211308e-07
-1.906556e-06
-0.0003117554
0.0003236905
2.423639e-07
-1.217742e-05
-0.000327455
0.0003280739
4.269997e-07
-1.045838e-06
-0.0003325112
0.0003336836
-1.482779e-07
-1.024111e-06
-0.0003358705
0.0003361242
-1.319977e-07
-1.217546e-07
-0.0003348373
0.0003328795
-1.051894e-07
2.062981e-06
-0.0003156417
0.0002959103
-1.297631e-07
1.986112e-05
-0.0001646135
0.0001689771
5.045856e-09
-4.368571e-06
-0.0002319914
0.0002436016
-6.307877e-08
-1.154716e-05
-0.0002766426
0.0002875536
6.071386e-09
-1.091714e-05
-0.0003207055
0.0003318677
6.606914e-09
-1.116879e-05
-0.0003657015
0.0003771152
7.086526e-09
-1.142082e-05
-0.0004117836
0.0004233992
7.356064e-09
-1.162298e-05
-0.0004587237
0.0004705693
7.30167e-09
-1.185298e-05
-0.0005063852
0.0005183713
6.127306e-09
-1.199222e-05
-0.0005544723
0.0005665311
6.789024e-09
-1.206561e-05
-0.0006028595
0.0006150031
5.8485e-09
-1.214937e-05
-0.0006511145
0.0006641037
1.950606e-07
-1.318425e-05
1.063897e-05
-0.0004500089
0.0004513497
-7.313877e-11
-1.197977e-05
1.074334e-05
-0.000455431
0.0004566897
-1.361941e-09
-1.20007e-05
1.094738e-05
-0.0004601421
0.0004612247
-1.786143e-09
-1.202813e-05
1.12239e-05
-0.0004640845
0.0004649039
-1.581542e-09
-1.204174e-05
1.14692e-05
-0.0004670752
0.0004676807
-1.134069e-09
-1.207356e-05
1.164528e-05
-0.0004692519
0.0004696994
-7.233552e-10
-1.209204e-05
1.177428e-05
-0.0004708935
0.0004712331
-6.168968e-10
-1.21133e-05
1.186118e-05
-0.0004721861
0.0004724685
-7.959487e-10
-1.214275e-05
1.222834e-05
-0.0004730662
0.000472501
-2.531674e-10
-1.166288e-05
1.031105e-05
-0.00192314
0.001928964
-9.774152e-11
-4.741749e-05
1.05298e-05
1.027323e-05
1.047925e-05
1.12938e-05
-0.001931648
0.001933442
-3.307906e-11
-4.772961e-05
1.170057e-05
1.126972e-05
1.167089e-05
1.143992e-05
-0.00193481
0.001935904
-1.315564e-11
-4.720368e-05
1.163953e-05
1.141401e-05
1.161641e-05
1.147226e-05
-0.001937006
0.001937671
-2.101586e-11
-4.677154e-05
1.160508e-05
1.144808e-05
1.15817e-05
1.137994e-05
-0.001938188
0.00193844
-2.634959e-12
-4.597047e-05
1.150008e-05
1.135926e-05
1.147964e-05
1.136839e-05
-0.001938445
0.001938001
2.888443e-11
-4.508924e-05
1.142071e-05
1.134488e-05
1.13991e-05
1.124221e-05
-0.001937439
0.001936456
4.548999e-11
-4.39369e-05
1.123574e-05
1.122274e-05
1.121915e-05
1.10799e-05
-0.001935478
0.001933719
3.270629e-11
-4.24538e-05
1.104825e-05
1.105823e-05
1.102636e-05
1.087326e-05
-0.001931878
0.001929554
8.675878e-12
-4.049986e-05
1.056272e-05
1.085125e-05
1.053685e-05
9.827949e-06
-0.00192594
0.001926295
-7.738608e-12
-3.986599e-05
9.946741e-06
9.801981e-06
9.934463e-06
1.037722e-05
-0.001923285
0.001919037
-1.430777e-11
-3.717848e-05
1.034724e-05
1.036617e-05
1.033542e-05
9.874082e-06
-0.0019153
0.0019111
-1.478113e-11
-3.501326e-05
9.739812e-06
9.867054e-06
9.732982e-06
9.534285e-06
-0.001906713
0.001902004
-1.33614e-11
-3.31758e-05
9.414751e-06
9.527369e-06
9.408613e-06
9.201635e-06
-0.001897127
0.001891955
-1.40937e-11
-3.142692e-05
9.103968e-06
9.194897e-06
9.099113e-06
8.891125e-06
-0.001886616
0.001881033
-1.72941e-11
-2.979975e-05
8.810064e-06
8.879722e-06
8.802135e-06
8.647267e-06
-0.001875299
0.001869301
-1.681918e-11
-2.839517e-05
8.578539e-06
8.612479e-06
8.554435e-06
8.581303e-06
-0.001863187
0.001856866
-1.487665e-11
-2.766201e-05
8.540327e-06
8.440042e-06
8.421712e-06
9.215632e-06
-0.001850289
0.001842527
-1.523929e-11
-2.806779e-05
9.367148e-06
8.57197e-06
8.674836e-06
1.249187e-05
-0.001831714
0.001813031
-1.433302e-11
-2.783973e-05
1.33604e-05
1.056838e-05
1.010247e-05
5.20909e-06
-0.001790696
0.001800254
-1.085783e-11
-1.476694e-05
3.428935e-06
-0.001804432
0.001801819
-7.60269e-12
-8.162197e-07
1.790048e-05
-0.001793191
0.001783627
-6.512512e-12
-8.33674e-06
1.432021e-05
-0.001775288
0.001767458
-2.611112e-12
-6.489826e-06
3.970529e-06
-0.001760043
0.001756054
3.47325e-12
1.797176e-08
-3.97767e-06
-0.001753173
0.001750348
3.611715e-12
6.801825e-06
-5.901157e-06
-0.001747453
0.001744666
2.226764e-12
8.688313e-06
-6.25018e-06
-0.001742036
0.001739532
4.22806e-12
8.75399e-06
-6.002736e-06
-0.001737131
0.001734943
1.139839e-11
8.191407e-06
-5.454147e-06
-0.001732913
0.001731179
1.627659e-11
7.189085e-06
-4.691077e-06
-0.001729646
0.00172846
1.773979e-11
5.876706e-06
-3.91595e-06
-0.001727512
0.001727003
1.729309e-11
4.424715e-06
-3.027301e-06
-0.001726763
0.001726942
1.799508e-11
2.848642e-06
-2.206093e-06
-0.001727401
0.001728332
1.197543e-11
1.274141e-06
-1.419202e-06
-0.001729521
0.00173119
9.377338e-12
-2.48875e-07
-6.132109e-07
-0.001733103
0.001735555
1.638977e-11
-1.839016e-06
3.263141e-07
-0.001738269
0.001741562
1.839514e-11
-3.619535e-06
1.714146e-06
-0.001744996
0.00174911
9.335942e-12
-5.827912e-06
4.186051e-06
-0.001753218
0.001757904
1.517013e-12
-8.872584e-06
8.837453e-06
-0.001761968
0.00176626
-1.204304e-12
-1.312879e-05
1.617462e-05
-0.001768167
0.001770173
-9.055238e-12
-1.818063e-05
1.201617e-05
-0.001776417
0.001783529
-1.531881e-11
-1.912823e-05
2.1564e-05
-0.001787981
0.001791607
-1.382152e-11
-2.518987e-05
3.887879e-05
-0.001787305
0.001781081
-1.495223e-11
-3.265429e-05
2.083943e-05
-0.001780422
0.001784487
-1.335323e-11
-2.490461e-05
8.858426e-06
-0.001790186
0.00179428
-2.987831e-11
-1.295176e-05
9.744909e-07
-0.001797738
0.001800794
-3.52124e-11
-4.029918e-06
-1.501816e-05
-0.001804806
0.0018103
-3.51341e-11
9.524517e-06
-5.687165e-05
-0.001817748
0.001845295
-3.38776e-11
2.93241e-05
-1.17988e-05
-0.001877521
0.001881953
-2.805394e-11
3.352484e-05
-7.274079e-06
-1.171812e-05
-7.165987e-06
-3.440024e-06
-0.001881897
0.001885727
-5.345257e-11
1.006268e-05
-3.623572e-06
-3.326339e-06
-3.502396e-06
-2.526017e-06
-0.001890199
0.0018925
-1.597498e-11
7.156671e-06
-2.266148e-06
-2.459938e-06
-2.206081e-06
-1.969312e-06
-0.00189381
0.001894691
2.203776e-11
6.818293e-06
-1.943839e-06
-1.903025e-06
-1.883752e-06
-2.103541e-06
-0.001895569
0.001895966
-7.457075e-11
7.973217e-06
-2.135853e-06
-2.044581e-06
-2.086223e-06
-2.467702e-06
-0.001896137
0.001895597
-5.729841e-11
1.043396e-05
-2.516328e-06
-2.430783e-06
-2.479786e-06
-2.912509e-06
-0.001894608
0.001892837
-4.794263e-11
1.35119e-05
-2.990842e-06
-2.880493e-06
-2.957615e-06
-3.504076e-06
-0.00189062
0.001887589
-4.138489e-11
1.71965e-05
-3.609395e-06
-3.473774e-06
-3.578123e-06
-4.137734e-06
-0.001884029
0.001879614
-3.770378e-11
2.112e-05
-4.243248e-06
-4.110232e-06
-4.213962e-06
-4.79673e-06
-0.001874672
0.00186892
-3.62113e-11
2.511109e-05
-4.911251e-06
-4.768796e-06
-4.882127e-06
-5.457333e-06
-0.001862644
0.001855615
-3.750842e-11
2.902957e-05
-5.574766e-06
-5.426928e-06
-5.541258e-06
-6.122179e-06
-0.001848092
0.001839897
-4.667358e-11
3.284085e-05
-6.242205e-06
-6.083068e-06
-6.198099e-06
-6.796565e-06
-0.001831241
0.001822008
-5.441782e-11
3.654764e-05
-6.927321e-06
-6.734866e-06
-6.855716e-06
-7.506247e-06
-0.001812361
0.001802242
-5.260287e-11
4.019659e-05
-7.6516e-06
-7.395923e-06
-7.523318e-06
-8.282045e-06
-0.001791785
0.00178098
-4.140578e-11
4.383417e-05
-8.44593e-06
-8.083232e-06
-8.218037e-06
-9.123493e-06
-0.001769941
0.001758679
-3.383386e-11
4.746487e-05
-9.303454e-06
-8.815954e-06
-8.960275e-06
-9.926368e-06
-0.0017473
0.001735811
-2.838255e-11
5.078025e-05
-1.008369e-05
-9.57738e-06
-9.703152e-06
-1.033113e-05
-0.001724262
0.001712549
-9.980716e-12
5.260741e-05
-1.031028e-05
-1.009927e-05
-1.015335e-05
-9.731763e-06
-0.00170055
0.001688081
8.005232e-12
5.14445e-05
-9.486944e-06
-9.946209e-06
-9.810193e-06
-8.285657e-06
-0.001674923
0.001661057
1.496156e-11
4.731899e-05
-7.964486e-06
-8.760143e-06
-8.442335e-06
-6.725834e-06
-0.001646441
0.001631364
1.862696e-11
4.21361e-05
-6.472857e-06
-7.082136e-06
-6.77881e-06
-5.565498e-06
-0.001615945
0.001600562
2.652379e-11
3.763935e-05
-5.413998e-06
-5.731518e-06
-5.545353e-06
-4.845996e-06
-0.001585284
0.001570401
4.186592e-11
3.420826e-05
-4.761346e-06
-4.908446e-06
-4.809419e-06
-4.37904e-06
-0.001555874
0.001541916
4.983049e-11
3.139162e-05
-4.319493e-06
-4.400573e-06
-4.335285e-06
-3.9621e-06
-0.001528429
0.001515601
3.408766e-11
2.85466e-05
-3.893183e-06
-3.967579e-06
-3.896137e-06
-3.450561e-06
0.001491679
4.662621e-12
2.522024e-05
-3.365287e-06
-3.446334e-06
-3.360914e-06
-0.001503276
-2.88188e-06
-0.00148065
0.001470474
-3.08496e-11
2.151957e-05
-2.79489e-06
-2.876321e-06
-2.789712e-06
-2.322837e-06
-0.001460957
0.00145241
-6.499938e-11
1.766082e-05
-2.239305e-06
-2.317115e-06
-2.234274e-06
-1.780667e-06
-0.001444566
0.001437753
-8.912275e-11
1.376505e-05
-1.699926e-06
-1.775426e-06
-1.695514e-06
-1.263275e-06
-0.00143165
0.001426604
-9.755552e-11
9.938792e-06
-1.187428e-06
-1.258819e-06
-1.183874e-06
-7.813011e-07
-0.001422251
0.001418942
-9.329801e-11
6.289685e-06
-7.121952e-07
-7.778589e-07
-7.095644e-07
-3.4093e-07
-0.001416297
0.001414645
-7.994685e-11
2.896276e-06
-2.831284e-07
-3.390044e-07
-2.817041e-07
5.10911e-08
-0.001413648
0.001413594
-6.107353e-11
-2.536605e-07
1.016192e-07
5.193959e-08
1.032017e-07
4.082141e-07
-0.001414132
0.001415661
-4.351552e-11
-3.260526e-06
4.57389e-07
4.088019e-07
4.580273e-07
7.379607e-07
-0.001417738
0.001420721
-3.0167e-11
-6.021392e-06
7.811061e-07
7.380032e-07
7.811658e-07
1.035954e-06
-0.001424213
0.00142856
-2.033086e-11
-8.56782e-06
1.074822e-06
1.035572e-06
1.074394e-06
1.311523e-06
-0.001433378
0.00143902
-1.369625e-11
-1.09579e-05
1.347284e-06
1.310688e-06
1.346369e-06
1.569506e-06
-0.001445094
0.001451971
-1.063957e-11
-1.321939e-05
1.603012e-06
1.56821e-06
1.601627e-06
1.817653e-06
-0.001459252
0.001467324
-8.999641e-12
-1.540508e-05
1.850308e-06
1.815947e-06
1.848519e-06
2.0663e-06
-0.001475784
0.00148504
-8.635839e-12
-1.75838e-05
2.099709e-06
2.064266e-06
2.097601e-06
2.325236e-06
-0.001494679
0.001505133
-8.627567e-12
-1.982092e-05
2.360628e-06
2.322951e-06
2.358301e-06
2.60104e-06
-0.001515978
0.001527667
-8.701218e-12
-2.216376e-05
2.63907e-06
2.598605e-06
2.63651e-06
2.896088e-06
-0.001539764
0.001552737
-8.80592e-12
-2.463191e-05
2.936334e-06
2.893172e-06
2.933301e-06
3.205981e-06
-0.00156614
0.001580445
-9.31008e-12
-2.7205e-05
3.247619e-06
3.202642e-06
3.244269e-06
3.51879e-06
-0.001595198
0.001610854
-1.000027e-11
-2.980547e-05
3.559523e-06
3.515357e-06
3.556056e-06
3.812255e-06
-0.001626965
0.001643931
-1.164552e-11
-3.228057e-05
3.848839e-06
3.808576e-06
3.845171e-06
4.052311e-06
-0.001661331
0.001679456
-1.22641e-11
-3.438497e-05
4.081363e-06
4.048395e-06
4.077516e-06
4.192269e-06
-0.001697943
0.001716926
-1.284571e-11
-3.579509e-05
4.217874e-06
4.188051e-06
4.213909e-06
4.196244e-06
-0.001736136
0.00175545
-1.367121e-11
-3.62555e-05
4.279004e-06
4.191073e-06
4.274663e-06
4.004027e-06
-0.001774421
0.001793366
-1.440219e-11
-3.557602e-05
4.316088e-06
3.995976e-06
4.314258e-06
4.011929e-06
-0.001812717
0.00183051
-1.39566e-11
-3.402854e-05
4.099923e-06
4.016741e-06
4.106739e-06
3.319224e-06
-0.001848625
0.001865812
-1.16947e-11
-3.04354e-05
3.302901e-06
3.321053e-06
3.305658e-06
2.988229e-06
-0.001882423
0.001898473
-9.373558e-12
-2.779424e-05
2.885933e-06
2.985741e-06
2.884677e-06
2.497588e-06
-0.00191413
0.001928976
-5.639369e-12
-2.470699e-05
2.434283e-06
2.496036e-06
2.433215e-06
1.971071e-06
-0.00194348
0.001957041
-6.74103e-13
-2.130806e-05
1.903442e-06
1.970031e-06
1.902349e-06
1.24617e-06
-0.001970265
0.001982503
9.451001e-12
-1.702796e-05
1.148805e-06
1.246194e-06
1.148383e-06
2.840889e-07
-0.001994166
0.002003925
3.489015e-11
-1.062971e-05
1.513597e-07
2.846073e-07
1.504491e-07
-1.116022e-06
-0.002012913
0.002019361
1.034199e-10
-1.595071e-06
-1.314052e-06
-1.109539e-06
-1.313889e-06
-3.122932e-06
-0.002024202
0.002025632
1.243538e-10
1.182189e-05
-3.508564e-06
-3.109614e-06
-3.510745e-06
-6.759646e-06
-0.002023767
0.002015127
4.667455e-10
3.713863e-05
-7.525342e-06
-6.704736e-06
-7.508835e-06
-1.264436e-05
-0.002001884
0.001982241
1.036219e-09
7.246927e-05
-1.409295e-05
-1.23659e-05
-1.372381e-05
-2.368784e-05
-0.001951063
0.001915587
1.386451e-09
0.0001343305
-2.745829e-05
-2.243096e-05
-2.527905e-05
-4.811121e-05
-0.001885617
0.001850765
4.10884e-09
0.0002364999
-5.590296e-05
-4.561001e-05
-5.202791e-05
-7.540245e-05
-0.00181492
0.001783095
1.256782e-09
0.0003214972
-7.113565e-05
-7.089096e-05
-7.224445e-05
-3.766494e-05
-0.001704342
0.001572174
-4.394422e-09
0.0002781101
-3.18728e-05
-4.20865e-05
-3.431326e-05
-1.34884e-06
-0.001406846
0.001237062
-1.638273e-09
0.0001704375
1.270128e-06
-1.674193e-06
1.101117e-06
2.386558e-06
-0.001075903
0.0009528742
5.274949e-09
0.0001192233
-4.247228e-07
2.298892e-06
-4.604775e-07
-6.427335e-06
-0.0008680314
0.0008081383
1.870632e-09
8.626754e-05
-6.57249e-06
-6.617809e-06
-6.758653e-06
-5.433908e-06
-0.0007607999
0.0007185768
-6.785951e-10
6.364875e-05
-5.217808e-06
-5.504939e-06
-5.268308e-06
-6.06301e-06
-0.0006782833
0.0006384413
-1.60698e-09
6.431461e-05
-6.162453e-06
-6.07464e-06
-6.170976e-06
-5.658247e-06
-0.0006024199
0.0005716797
-8.351147e-10
5.292981e-05
-5.434883e-06
-5.659887e-06
-5.435721e-06
-3.440085e-06
-0.0005475499
0.0005287623
8.934999e-11
3.211565e-05
-3.224868e-06
-3.439314e-06
-3.22387e-06
-2.022799e-06
-0.0005141558
0.0005018348
7.10347e-11
2.026113e-05
-1.948767e-06
-2.021346e-06
-1.947235e-06
-1.496173e-06
-0.0004908491
0.0004808067
-9.182042e-10
1.592991e-05
-1.448816e-06
-1.49444e-06
-1.447173e-06
-1.198735e-06
-0.0004712716
0.000462296
-1.802801e-09
1.370096e-05
-1.164399e-06
-1.197451e-06
-1.162964e-06
-8.792423e-07
0.0004465343
-2.093446e-09
1.0801e-05
-0.0004539189
-8.286333e-07
-8.785052e-07
-8.278845e-07
-4.866935e-07
-0.0004400452
0.0004349217
-1.798381e-09
6.992601e-06
-4.472755e-07
-4.863965e-07
-4.469529e-07
-1.357867e-07
-0.0004308577
0.0004281661
-1.281198e-09
3.191319e-06
-1.137079e-07
-1.355224e-07
-1.134523e-07
6.1633e-08
-0.0004263355
0.0004254972
-8.025258e-10
5.808341e-07
6.737319e-08
6.17858e-08
6.750197e-08
9.00361e-08
-0.0004251071
0.0004252799
-5.07775e-10
-5.212524e-07
8.432141e-08
9.017137e-08
8.442761e-08
1.039904e-08
-0.0004256126
0.0004261025
-2.886093e-10
-4.959631e-07
-7.357957e-09
1.049092e-08
-7.250713e-09
-1.819465e-07
-0.000426471
0.0004265524
-1.608214e-10
7.056142e-07
-2.1166e-07
-1.817437e-07
-2.114564e-07
-5.075329e-07
-0.0004261845
0.0004248401
-1.000127e-10
3.477343e-06
-5.594405e-07
-5.069295e-07
-5.589394e-07
-9.516688e-07
-0.0004227887
0.0004193609
-7.390035e-11
7.348671e-06
-1.009429e-06
-9.508917e-07
-1.008819e-06
-1.439826e-06
-0.0004150619
0.0004092329
-6.559254e-11
1.1707e-05
-1.499862e-06
-1.439004e-06
-1.499197e-06
-1.936511e-06
-0.0004024904
0.0003942059
-6.236986e-11
1.614233e-05
-1.993109e-06
-1.935675e-06
-1.99239e-06
-2.414437e-06
-0.0003850315
0.0003743879
-5.8679e-11
2.040226e-05
-2.465686e-06
-2.413572e-06
-2.464919e-06
-2.850709e-06
-0.0003629223
0.0003501223
-5.358934e-11
2.429152e-05
-2.89588e-06
-2.849822e-06
-2.895077e-06
-3.227098e-06
-0.0003365908
0.0003219033
-4.699932e-11
2.766827e-05
-3.264118e-06
-3.226207e-06
-3.263272e-06
-3.528925e-06
-0.0003065885
0.0002903289
-4.025517e-11
3.042469e-05
-3.554504e-06
-3.52802e-06
-3.553614e-06
-3.739944e-06
-0.0002735738
0.0002561262
-3.379934e-11
3.242816e-05
-3.751266e-06
-3.739027e-06
-3.750325e-06
-3.84379e-06
-0.0002383568
0.0002201884
-2.765842e-11
3.352953e-05
-3.837629e-06
-3.842952e-06
-3.836772e-06
-3.828051e-06
-0.0002019037
0.0001835425
-2.20549e-11
3.36215e-05
-3.802957e-06
-3.82723e-06
-3.802058e-06
-3.687742e-06
-0.0001652968
0.0001473164
-1.700918e-11
3.264941e-05
-3.647599e-06
-3.686928e-06
-3.646705e-06
-3.426135e-06
-0.0001296913
0.0001126834
-1.24669e-11
3.060835e-05
-3.374783e-06
-3.425462e-06
-3.373998e-06
-3.058334e-06
-9.625785e-05
8.078354e-05
-8.261065e-12
2.759213e-05
-3.001239e-06
-3.057731e-06
-3.000515e-06
-2.617373e-06
-6.607516e-05
5.25708e-05
-4.330616e-12
2.385709e-05
-2.559659e-06
-2.616781e-06
-2.558918e-06
-2.150151e-06
-3.994746e-05
2.867867e-05
-5.67645e-13
1.976753e-05
-2.100061e-06
-2.149397e-06
-2.099133e-06
-1.710898e-06
-1.837538e-05
9.52547e-06
2.07809e-12
1.562138e-05
-1.676251e-06
-1.709565e-06
-1.674758e-06
-1.252864e-06
-1.817446e-06
-4.486891e-06
5.000289e-12
1.103035e-05
-1.110537e-06
-1.252147e-06
-1.11047e-06
-4.935892e-07
4.079567e-06
-5.060449e-06
-5.822587e-10
1.475053e-06
-1.794585e-07
6.183641e-06
-6.313586e-06
-9.903039e-11
3.095028e-07
3.293884e-07
6.275076e-06
-6.094756e-06
6.038957e-11
-5.097684e-07
7.522523e-07
5.14819e-06
-4.675697e-06
1.442164e-10
-1.22489e-06
1.098557e-06
2.902065e-06
-2.17737e-06
1.983937e-10
-1.823452e-06
1.366507e-06
-3.01145e-07
1.237891e-06
2.364679e-10
-2.303489e-06
1.559129e-06
-4.293149e-06
5.398755e-06
2.675763e-10
-2.665003e-06
1.683804e-06
-8.902966e-06
1.013586e-05
2.922106e-10
-2.916987e-06
1.750846e-06
-1.396871e-05
1.529115e-05
3.124201e-10
-3.073592e-06
1.770688e-06
-1.934764e-05
2.072794e-05
3.30752e-10
-3.15132e-06
1.754128e-06
-2.492112e-05
2.633356e-05
3.25604e-10
-3.166893e-06
1.709948e-06
-3.05941e-05
3.201835e-05
3.179761e-10
-3.134518e-06
1.645548e-06
-3.629139e-05
3.771177e-05
3.243936e-10
-3.066252e-06
1.567202e-06
-4.195634e-05
4.336144e-05
3.224656e-10
-2.972625e-06
1.480194e-06
-4.754859e-05
4.893078e-05
3.169746e-10
-2.862699e-06
1.388851e-06
-5.304218e-05
5.439702e-05
3.105186e-10
-2.744001e-06
1.297526e-06
-5.842265e-05
5.974767e-05
3.053257e-10
-2.622856e-06
1.205435e-06
-6.368145e-05
6.497746e-05
2.987813e-10
-2.50174e-06
1.11679e-06
-6.882558e-05
7.009188e-05
2.948679e-10
-2.383393e-06
1.032926e-06
-7.385195e-05
7.509003e-05
2.922914e-10
-2.271298e-06
9.530692e-07
-7.876852e-05
7.998077e-05
2.906621e-10
-2.165604e-06
8.771064e-07
-8.358506e-05
8.477392e-05
2.876358e-10
-2.066258e-06
8.04712e-07
-8.831128e-05
8.947909e-05
2.864983e-10
-1.972811e-06
7.354466e-07
-9.295597e-05
9.410481e-05
2.898626e-10
-1.884578e-06
6.69403e-07
-9.752703e-05
9.86583e-05
2.894963e-10
-1.800963e-06
6.056317e-07
-0.0001020305
0.000103146
2.968837e-10
-1.721434e-06
5.458817e-07
-0.0001064723
0.0001075731
2.805431e-10
-1.646955e-06
4.925027e-07
-0.0001108612
0.0001119488
2.744161e-10
-1.580346e-06
4.36028e-07
-0.0001151877
0.0001162613
3.064906e-10
-1.509895e-06
3.65559e-07
-0.0001194661
0.000120526
2.738701e-10
-1.42577e-06
3.026401e-07
-0.0001236844
0.0001247273
2.82756e-10
-1.345822e-06
2.443485e-07
-0.0001278346
0.0001288611
2.846207e-10
-1.271128e-06
1.892798e-07
-0.0001319222
0.0001329355
2.872366e-10
-1.202789e-06
1.426248e-07
-0.0001359677
0.0001369766
2.800284e-10
-1.151828e-06
1.397789e-07
-0.0001400277
0.0001410649
2.751508e-10
-1.177263e-06
6.752107e-07
-0.0001442551
0.0001451375
2.790158e-10
-1.557852e-06
1.297514e-06
-0.0001473938
0.0001481832
2.629505e-10
-2.087184e-06
1.286805e-06
-0.0001506075
0.000151412
2.634755e-10
-2.091506e-06
1.33295e-06
-0.00015379
0.0001545741
2.43772e-10
-2.11724e-06
1.339315e-06
-0.0001569055
0.0001576715
2.298518e-10
-2.105541e-06
1.34787e-06
-0.000159932
0.0001606723
2.139124e-10
-2.088352e-06
1.349405e-06
-0.0001628531
0.0001635642
2.05961e-10
-2.060757e-06
1.345825e-06
-0.0001656543
0.000166334
1.930604e-10
-2.025737e-06
1.339209e-06
-0.0001683262
0.0001689721
1.769374e-10
-1.985323e-06
1.330318e-06
-0.0001708611
0.0001714724
1.566583e-10
-1.941763e-06
1.319934e-06
-0.0001732575
0.0001738343
1.433423e-10
-1.896882e-06
1.308671e-06
-0.0001755169
0.0001760599
1.356021e-10
-1.851796e-06
1.296744e-06
-0.0001776423
0.0001781523
1.260785e-10
-1.806866e-06
1.284026e-06
-0.0001796368
0.0001801147
1.180165e-10
-1.761989e-06
1.270415e-06
-0.000181504
0.0001819505
1.065308e-10
-1.717034e-06
1.255937e-06
-0.0001832469
0.000183663
9.859811e-11
-1.672071e-06
1.240791e-06
-0.0001848693
0.0001852558
9.262147e-11
-1.62739e-06
1.225258e-06
-0.000186375
0.0001867331
8.366602e-11
-1.583454e-06
1.209753e-06
-0.000187769
0.0001881
7.570519e-11
-1.540899e-06
1.194709e-06
-0.0001890568
0.0001893624
7.121319e-11
-1.50041e-06
1.18052e-06
-0.0001902453
0.0001905274
6.450745e-11
-1.462646e-06
1.167601e-06
-0.0001913423
0.0001916029
5.716141e-11
-1.428239e-06
1.156206e-06
-0.0001923563
0.0001925977
5.485755e-11
-1.39764e-06
1.146619e-06
-0.0001932965
0.0001935211
5.444617e-11
-1.371246e-06
1.138984e-06
-0.0001941727
0.0001943829
5.078629e-11
-1.349204e-06
1.133202e-06
-0.0001949943
0.0001951925
4.17638e-11
-1.331436e-06
1.129221e-06
-0.0001957709
0.0001959593
3.573284e-11
-1.317717e-06
1.126934e-06
-0.0001965111
0.0001966919
3.742005e-11
-1.307755e-06
1.126152e-06
-0.000197223
0.0001973979
3.52842e-11
-1.301134e-06
1.12672e-06
-0.0001979134
0.0001980841
3.560117e-11
-1.297453e-06
1.12828e-06
-0.0001985882
0.000198756
3.478586e-11
-1.296092e-06
1.131124e-06
-0.0001992523
0.0001994181
3.635718e-11
-1.296927e-06
1.137842e-06
-0.000199906
0.0002000677
4.530988e-11
-1.299603e-06
1.129347e-06
-0.0002005514
0.0002007219
7.087862e-11
-1.299962e-06
1.18333e-06
-0.0002012546
0.0002013894
1.83631e-10
-1.318282e-06
1.34177e-06
-0.0002004944
0.0008197684
2.336861e-12
-5.709192e-06
5.959694e-08
1.343876e-06
4.731458e-08
-0.0002004972
-0.0002079293
-0.0002079308
6.582495e-07
-0.0008239969
0.0008260015
1.28656e-12
-5.285999e-06
9.956892e-07
6.446876e-07
9.828495e-07
8.654385e-07
-0.0008276284
0.0008292516
5.717152e-13
-5.209341e-06
9.380839e-07
8.54647e-07
9.279533e-07
9.26283e-07
-0.000831039
0.0008327076
1.237661e-12
-5.457992e-06
9.776234e-07
9.16934e-07
9.685661e-07
9.81579e-07
-0.0008343105
0.000835788
2.336281e-12
-5.453792e-06
1.014982e-06
9.730473e-07
1.006661e-06
1.010009e-06
-0.0008372421
0.0008386488
8.961841e-13
-5.465332e-06
1.027274e-06
1.001973e-06
1.019442e-06
1.029722e-06
-0.0008400503
0.0008414072
-3.18391e-13
-5.481595e-06
1.039862e-06
1.022279e-06
1.032781e-06
1.044748e-06
-0.0008427488
0.0008440526
-2.923653e-13
-5.484941e-06
1.052053e-06
1.038318e-06
1.046023e-06
1.06064e-06
-0.000845335
0.0008465716
-2.588122e-13
-5.477693e-06
1.065626e-06
1.054876e-06
1.060011e-06
1.073552e-06
-0.0008477856
0.0008489537
1.323206e-12
-5.458528e-06
1.07676e-06
1.068477e-06
1.071655e-06
1.080439e-06
-0.0008501001
0.0008512021
2.702882e-12
-5.417938e-06
1.082006e-06
1.075938e-06
1.077605e-06
1.083638e-06
-0.0008522803
0.0008533121
5.005089e-12
-5.362112e-06
1.085178e-06
1.079938e-06
1.081557e-06
1.084857e-06
-0.0008543197
0.0008552842
2.904407e-12
-5.298668e-06
1.085425e-06
1.081608e-06
1.082271e-06
1.084006e-06
-0.0008562236
0.0008571212
-1.740488e-12
-5.228494e-06
1.084272e-06
1.081176e-06
1.081492e-06
1.081235e-06
-0.0008579946
0.0008588281
-1.243981e-12
-5.153386e-06
1.081241e-06
1.078669e-06
1.078741e-06
1.077155e-06
-0.0008596386
0.000860412
2.062796e-12
-5.077261e-06
1.076987e-06
1.074919e-06
1.074811e-06
1.072958e-06
-0.0008611637
0.0008618808
-2.180521e-12
-5.004906e-06
1.072881e-06
1.070977e-06
1.070928e-06
1.069181e-06
-0.0008625779
0.0008632438
-7.769462e-12
-4.939045e-06
1.069158e-06
1.067406e-06
1.067417e-06
1.065959e-06
-0.0008638915
0.0008645118
-2.468356e-13
-4.881095e-06
1.065997e-06
1.064387e-06
1.064466e-06
1.063398e-06
-0.0008651161
0.000865697
1.347425e-11
-4.831909e-06
1.063512e-06
1.061977e-06
1.062112e-06
1.061615e-06
-0.0008662643
0.0008668123
1.227901e-11
-4.792298e-06
1.061819e-06
1.060309e-06
1.060531e-06
1.060638e-06
-0.0008673492
0.000867871
1.578721e-12
-4.762575e-06
1.060922e-06
1.059481e-06
1.059789e-06
1.060576e-06
-0.0008683841
0.0008688859
4.819131e-12
-4.742884e-06
1.060966e-06
1.059549e-06
1.059972e-06
1.061422e-06
-0.0008693813
0.0008698692
1.59172e-11
-4.732682e-06
1.061886e-06
1.060481e-06
1.061007e-06
1.063033e-06
-0.000870353
0.0008708327
5.034363e-12
-4.731205e-06
1.06359e-06
1.062157e-06
1.062692e-06
1.065539e-06
-0.0008713104
0.0008717869
-1.160905e-11
-4.738279e-06
1.066256e-06
1.064644e-06
1.065319e-06
1.068778e-06
-0.0008722631
0.0008727409
-5.50047e-12
-4.752605e-06
1.069479e-06
1.067929e-06
1.068676e-06
1.072482e-06
-0.0008732199
0.0008737026
-8.289478e-12
-4.772858e-06
1.073289e-06
1.071787e-06
1.072621e-06
1.07692e-06
-0.0008741877
0.0008746781
-2.339661e-11
-4.798543e-06
1.077808e-06
1.076266e-06
1.077151e-06
1.081761e-06
-0.000875172
0.0008756726
-1.308733e-11
-4.828203e-06
1.082694e-06
1.081126e-06
1.08207e-06
1.086941e-06
-0.0008761773
0.0008766896
6.358183e-12
-4.860805e-06
1.087922e-06
1.086361e-06
1.087352e-06
1.092299e-06
-0.0008772064
0.0008777312
1.46098e-11
-4.894872e-06
1.093297e-06
1.091763e-06
1.09277e-06
1.09764e-06
-0.0008782609
0.0008787983
1.375356e-11
-4.929032e-06
1.098642e-06
1.097122e-06
1.098138e-06
1.102935e-06
-0.0008793408
0.0008798904
7.271634e-12
-4.962478e-06
1.103969e-06
1.102451e-06
1.103496e-06
1.108167e-06
-0.0008804446
0.0008810049
7.757411e-12
-4.994146e-06
1.109192e-06
1.107724e-06
1.108753e-06
1.112891e-06
-0.0008815694
0.0008821385
1.690741e-11
-5.021797e-06
1.113859e-06
1.112477e-06
1.113465e-06
1.116979e-06
-0.000882711
0.000883286
6.544562e-12
-5.043959e-06
1.117917e-06
1.116593e-06
1.117523e-06
1.120488e-06
-0.0008838633
0.0008844406
-8.162183e-12
-5.060251e-06
1.121405e-06
1.120087e-06
1.121001e-06
1.123153e-06
-0.0008850193
0.0008855949
-1.837097e-12
-5.069257e-06
1.124017e-06
1.122798e-06
1.123686e-06
1.124704e-06
-0.0008861708
0.0008867396
1.369727e-11
-5.068824e-06
1.125556e-06
1.124389e-06
1.125293e-06
1.124636e-06
-0.0008873074
0.0008878639
1.976459e-11
-5.055996e-06
1.12547e-06
1.124301e-06
1.125112e-06
1.122007e-06
-0.0008884176
0.0008889537
9.211739e-13
-5.025224e-06
1.122976e-06
1.121618e-06
1.122555e-06
1.115681e-06
-0.0008894824
0.0008899848
-2.713459e-11
-4.966516e-06
1.116762e-06
1.115306e-06
1.11641e-06
1.100046e-06
-0.0008904705
0.0008909226
-2.846006e-11
-4.8507e-06
1.099596e-06
1.099708e-06
1.099261e-06
1.052037e-06
-0.0008913588
0.0008918026
6.316399e-12
-4.628516e-06
1.040656e-06
1.051725e-06
1.040357e-06
9.371434e-07
-0.0008923029
0.0008928855
2.650636e-11
-4.253819e-06
8.987472e-07
9.368764e-07
8.984407e-07
8.014251e-07
-0.0008935222
0.0008941584
8.641369e-12
-3.817012e-06
7.892809e-07
8.011334e-07
7.890226e-07
7.768212e-07
-0.0008947631
0.000895331
2.656889e-12
-3.681529e-06
7.801744e-07
7.76613e-07
7.799702e-07
7.692025e-07
-0.0008958878
0.0008964253
4.880913e-12
-3.614027e-06
7.693272e-07
7.689459e-07
7.690927e-07
7.578038e-07
-0.0008969538
0.0008974549
1.376981e-11
-3.534984e-06
7.593081e-07
7.576032e-07
7.591247e-07
7.496108e-07
-0.0008979449
0.000898403
2.296651e-11
-3.463349e-06
7.532296e-07
7.493905e-07
7.530156e-07
7.352929e-07
-0.0008988542
0.0008992767
9.184298e-12
-3.372939e-06
7.404101e-07
7.348367e-07
7.399118e-07
7.013401e-07
-0.0008997026
0.0009001686
-6.462826e-12
-3.259588e-06
6.966743e-07
7.002909e-07
6.952711e-07
5.210814e-07
-0.0009010316
0.0009025166
1.152754e-12
-3.698366e-06
5.880522e-07
5.18488e-07
5.857458e-07
8.361589e-07
-0.0009034811
0.0009027815
3.082153e-12
-2.401143e-06
7.075556e-07
8.432039e-07
7.138077e-07
6.963176e-07
-0.0009025421
0.0009029264
-8.016923e-12
-3.016205e-06
6.125911e-07
7.036374e-07
6.193629e-07
6.595713e-07
-0.0009032713
0.0009036795
-1.590072e-11
-2.975228e-06
6.180862e-07
6.657282e-07
6.236841e-07
6.347833e-07
-0.000904059
0.000904543
-4.413577e-12
-2.979323e-06
6.0803e-07
6.397659e-07
6.127112e-07
6.330675e-07
-0.0009050304
0.0009055517
6.046278e-12
-3.036848e-06
6.204981e-07
6.373353e-07
6.24587e-07
6.477111e-07
-0.0009060538
0.0009065661
2.27525e-13
-3.100429e-06
6.424773e-07
6.517643e-07
6.462241e-07
6.628311e-07
-0.0009070667
0.0009075786
-4.970081e-12
-3.164978e-06
6.605483e-07
6.660973e-07
6.63657e-07
6.768225e-07
-0.0009080824
0.0009085931
-1.848495e-12
-3.223299e-06
6.767485e-07
6.796037e-07
6.794197e-07
6.904285e-07
-0.0009090953
0.0009096025
8.120704e-12
-3.275849e-06
6.915651e-07
6.928337e-07
6.938907e-07
7.030036e-07
-0.0009101033
0.0009106097
1.399156e-11
-3.326375e-06
7.048828e-07
7.051705e-07
7.069672e-07
7.146089e-07
-0.0009111106
0.0009116182
1.552005e-11
-3.373799e-06
7.164809e-07
7.167259e-07
7.18366e-07
7.267085e-07
-0.0009121231
0.0009126317
1.272054e-11
-3.423329e-06
7.290223e-07
7.282975e-07
7.306505e-07
7.3809e-07
-0.0009131383
0.0009136474
1.308467e-11
-3.468798e-06
7.403249e-07
7.395241e-07
7.417317e-07
7.480647e-07
-0.0009141547
0.0009146638
8.414176e-12
-3.507513e-06
7.49949e-07
7.492907e-07
7.511518e-07