/*--------------------------------*- C++ -*----------------------------------*\
| =========                 |                                                 |
| \\      /  F ield         | foam-extend: Open Source CFD                    |
|  \\    /   O peration     | Version:     3.1                                |
|   \\  /    A nd           | Web:         http://www.extend-project.de       |
|    \\/     M anipulation  |                                                 |
\*---------------------------------------------------------------------------*/
FoamFile
{
    version     2.0;
    format      ascii;
    class       volScalarField;
    location    "6.5";
    object      pd;
}
// * * * * * * * * * * * * * * * * * * * * * * * * * * * * * * * * * * * * * //

dimensions      [1 -1 -2 0 0 0 0];

internalField   nonuniform List<scalar> 
119952
(
6745.178
6673.921
7031.503
7070.668
7229.857
7296.102
7403.1
7488.773
7563.425
7627.104
7661.98
7684.353
7703.572
7708.597
7712.261
7728.32
7696.34
7692.095
7678.504
7668.81
7648.683
7603.11
7583.912
7580.018
7544.41
7521.666
7526.711
7510.271
7518.343
8605.441
6734.494
6793.916
6878.626
6874.51
6953.332
6906.683
6912.547
6917.074
6919.798
6948.288
6868.008
6853.656
6821.278
6785.646
6746.655
6701.614
6656.002
6613.742
6570.19
6494.327
6419.249
6345.099
6275.081
6201.891
6140.778
6083.657
5977.764
5932.448
5920.384
5924.398
5915.994
5932.822
5971.074
6033.863
6123.73
6221.279
6351.271
6517.284
6683.508
6809.699
6953.615
7086.424
7204.062
7317.569
7419.47
7507.664
7577.932
7634.443
7669.606
7695.978
7711.63
7716.053
7714.005
7707.212
7693.12
7676.755
7657.576
7642.049
7623.897
7598.289
7585.501
7578.072
7559.778
7529.384
7505.099
7496.024
7455.587
7381.258
7345.112
7343.56
7329.757
7318.788
7306.145
7297.175
7291.855
7295.328
7296.129
7294.134
7294.369
7301.457
7323.814
7340.247
7315.362
7332.732
7341.16
7352.252
7363.462
7377.341
7389.705
7389.865
7401.951
7411.406
7419.206
7426.205
7432.887
7439.388
7445.853
7451.779
7457.476
7463.304
7469.744
7476.465
7483.258
7489.974
7497.917
7506.721
7514.294
7523.341
7533.197
7533.854
7544.885
7550.854
7556.29
7562.175
7567.968
7570.96
7560.054
7549.655
7538.246
7541.495
7555.565
7559.602
7568.642
7578.833
7585.613
7592.839
7588.064
7591.984
7593.455
7594.727
7595.724
7596.466
7596.959
7597.231
7597.192
7597.56
7599.361
7601.18
7603.396
7606.969
7609.911
7610.679
7609.215
7610.401
7611.3
7612.126
7614.579
7609.11
7609.656
7610.948
7611.002
7610.386
7610.56
7609.445
7610.763
7620.794
7628.812
7624.703
7620.173
7619.784
7621.82
7621.959
7618.951
7623.313
7626.596
7634.194
7648.78
7664.037
7531.964
7540.604
7533.388
7543.042
7519.905
7569.295
7569.175
7566.884
7566.951
7569.013
7568.018
7568.262
7569.846
7571.46
7564.208
7563.958
7558.413
7543.945
7607.362
7580.136
7576.792
7571.066
7595.882
7579.421
7577.984
7579.41
7580.103
7581.378
7581.471
7582.649
7583.636
7585.446
7585.88
7585.857
7586.269
7593.506
7594.61
7596.957
7603.435
7604.858
7607.957
7611.84
7615.334
7619.151
7623.283
7626.477
7628.628
7630.717
7633.092
7632.139
7626.978
7706.174
7669.755
7661.675
7669.2
7675.745
7679.084
7687.236
7688.902
7679.172
7709.134
7707.249
7710.307
7715.276
7718.436
7722.596
7717.133
7761.212
7738.453
7607.621
7693.324
7688.559
7692.99
7700.253
7706.004
7713.976
7714.988
7714.536
7723.364
7732.772
7727.832
7732.4
7734.835
7737.636
7741.63
7747.432
7748.855
7751.63
7759.129
7762.687
7765.345
7771.278
7779.642
7789.212
7796.163
7803.201
7811.653
7819.426
7826.515
7833.157
7839.887
7848.248
7863.682
7871.379
7882.861
7884.886
7894.564
7904.786
7913.416
7917.979
7928.787
7939.969
7951.986
7960.486
7973.277
7978.385
7992.343
8006.213
8019.718
8033.651
8048.211
8054.563
8043.055
8017.531
8027.102
8051.535
8074.394
8096.289
8067.873
8105.738
8114.813
8122.56
8135.888
8148.318
8154.498
8161.776
8177.828
8186.247
8197.084
8206.322
8214.766
8223.532
8234.917
8244.647
8253.736
8263.819
8278.304
8296.585
8314.533
8332.953
8350.299
8363.723
8376.551
8387.213
8396.932
8405.428
8413.803
8422.183
8430.215
8437.81
8444.967
8452.311
8459.228
8465.929
8472.748
8479.454
8486.281
8492.373
8498.792
8505.101
8510.464
8517.653
8531.078
8541.886
8544.922
8556.636
8561.398
8565.158
8568.429
8571.49
8575.11
8582.244
8571.462
8580.225
8581.462
8584.603
8590.002
8596.894
8604.394
8611.451
8619.952
8626.78
8629.023
8642.577
8651.277
8655.118
8660.641
8665.801
8669.444
8672.759
8676.671
8680.805
8685.576
8691.558
8696.336
8687.588
8657.011
8639.161
6718.423
6626.294
6646.607
6568.46
6518.304
6464.688
6413.692
6367.132
6347.606
6272.433
6166.445
6107.784
6038.619
6005.666
5951.783
5888.533
5824.168
5811.743
5828.882
5745.895
5697.851
5701.288
5714.825
5731.426
5741.129
5747.716
5777.459
5831.846
5900.096
5977.519
6067.887
6160.892
6272.118
6389.777
6501.14
6604.693
6696.03
6758.192
6815.582
6862.323
6893.898
6920.407
6922.825
6914.894
6909.14
6908.417
6899.82
6882.93
6854.842
6822.601
6785.475
6744.721
6699.098
6650.054
6597.437
6538.006
6457.173
6392.303
6327.561
6260.499
6188.404
6108.704
6033.065
5971.082
5923.706
5891.817
5869.235
5867.096
5888.815
5934.054
6008.988
6108.575
6228.778
6366.308
6516.306
6665.162
6814.188
6958.762
7099.059
7223.761
7337.211
7438.015
7524.643
7594.86
7645.079
7679.092
7701.75
7714.009
7717.519
7713.715
7703.196
7688.11
7670.696
7652.567
7633.773
7615.204
7596.112
7577.516
7558.801
7538.985
7516.429
7490.368
7461.34
7428.223
7390.718
7359.209
7338.718
7326.449
7316.439
7307.554
7300.786
7296.48
7294.754
7294.661
7295.948
7298.684
7305.553
7317.541
7327.98
7329.585
7332.344
7340.752
7352.179
7364.387
7376.476
7387.513
7396.653
7404.901
7413.089
7421.031
7428.282
7434.989
7441.203
7446.984
7452.643
7458.375
7464.111
7470.073
7476.697
7483.833
7491.261
7498.91
7507.008
7515.118
7523.232
7531.054
7538.113
7544.474
7550.607
7555.764
7559.531
7561.49
7560.925
7556.395
7550.582
7547.481
7551.786
7561.686
7570.707
7577.26
7582.725
7587.887
7591.911
7593.212
7593.603
7593.997
7594.888
7595.779
7596.726
7597.544
7598.319
7598.848
7599.518
7600.59
7602.621
7605.104
7607.239
7608.669
7609.516
7609.772
7610.019
7610.519
7611.411
7612.349
7612.801
7612.768
7612.24
7611.774
7611.603
7611.938
7613.923
7617.18
7620.558
7626.224
7626.057
7622.502
7619.965
7619.205
7619.268
7619.608
7618.585
7618.751
7616.667
7603.561
7595.743
7557.138
7540.424
7542.96
7546.061
7553.163
7563.374
7566.46
7567.39
7567.141
7567.648
7568.182
7567.498
7565.723
7566.601
7569.374
7570.126
7574.458
7587.507
7562.386
7573.125
7573.908
7571.729
7574.93
7578.449
7578.828
7579.553
7580.093
7580.885
7582.281
7583.241
7583.899
7584.927
7585.903
7587.403
7589.615
7591.807
7593.637
7598.506
7602.15
7605.511
7609.24
7613.052
7616.921
7620.592
7623.904
7627.471
7630.623
7633.326
7637.314
7642.426
7647.411
7657.55
7659.123
7665.309
7675.096
7682.039
7687.652
7691.537
7695.305
7697.791
7702.46
7706.018
7709.153
7712.714
7717.018
7721.177
7724.112
7724.602
7715.57
7631.362
7661.16
7691.582
7702.152
7704.878
7707.963
7712.283
7717.636
7722.877
7727.334
7730.192
7731.367
7732.923
7735.466
7739.024
7742.971
7747.035
7751.002
7754.698
7760.22
7766.853
7772.186
7777.63
7783.711
7791.336
7799.584
7806.259
7813.364
7820.642
7827.97
7835.547
7843.595
7850.958
7856.822
7867.193
7881.371
7890.289
7897.002
7904.834
7913.597
7922.34
7931.413
7941.131
7951.523
7962.268
7972.827
7983.006
7993.616
8004.719
8016.212
8027.181
8036.112
8041.21
8040.633
8042.784
8047.205
8056.783
8072.234
8085.761
8094.953
8104.439
8115.772
8126.822
8137.54
8148.265
8158.93
8169.296
8179.488
8189.603
8199.591
8209.106
8217.905
8226.273
8237.217
8251.287
8265.68
8276.534
8288.557
8302.06
8316.027
8333.472
8349.443
8364.59
8376.725
8387.034
8396.708
8405.514
8414.808
8423.457
8431.112
8438.849
8446.786
8454.833
8462.428
8469.322
8475.804
8482.334
8488.845
8495.582
8502.488
8509.296
8515.794
8522.29
8529.63
8540.262
8549.975
8555.487
8559.372
8563.891
8570.681
8574.603
8575.756
8576.976
8578.374
8580.447
8583.669
8588.51
8594.443
8601.182
8608.158
8615.069
8621.994
8628.92
8635.668
8642.281
8648.661
8654.698
8659.798
8663.862
8667.215
8670.681
8674.389
8677.781
8680.399
8681.921
8681.579
8679.508
8674.989
8674.302
6358.597
6360.461
6311.703
6234.413
6194.724
6132.526
6098.77
6039.176
6013.938
5958.292
5981.761
5964.275
5956.684
6008.833
6017.364
6045.74
6085.41
6130.007
6171.739
6242.671
6308.662
6379.468
6451.761
6527.366
6591.603
6657.452
6708.142
6763.634
6832.562
6845.513
6888.092
6915.996
6936.67
6944.851
6937.808
6914.439
6864.496
6796.594
6731.075
6677.216
6624.737
6576.218
6528.288
6471.845
6407.327
6349.361
6308.943
6245.176
6164.486
6060.697
6003.989
5959.967
5899.824
5837.029
5772.263
5719.557
5673.301
5658.282
5656.575
5669.721
5692.735
5717.458
5736.328
5752.369
5779.729
5818.766
5872.652
5946.809
6033.39
6134.19
6247.421
6367.379
6489.446
6601.817
6699.825
6782.118
6846.729
6892.502
6922.529
6939.843
6944.303
6941.731
6934.23
6923.849
6906.965
6882.826
6855.34
6825.67
6791.239
6750.61
6702.384
6644.774
6581.178
6515.643
6453.173
6389.089
6319.111
6244.982
6169.174
6094.86
6022.757
5953.86
5898.702
5853.491
5821.891
5814.923
5835.679
5879.98
5951.456
6051.04
6173.197
6315.25
6467.036
6620.675
6775.143
6926.393
7070.895
7202.585
7321.19
7425.751
7514.609
7585.702
7638.86
7675.955
7699.739
7712.384
7715.611
7711.427
7701.41
7687.306
7670.123
7651.363
7631.567
7611.353
7590.907
7569.917
7547.923
7524.687
7499.974
7473.684
7446.625
7417.859
7388.401
7362.6
7342.646
7328.118
7316.993
7308.049
7301.201
7297.516
7296.761
7296.281
7295.958
7296.952
7299.337
7304.106
7311.223
7319.514
7328.783
7338.642
7349.478
7361.189
7373.925
7386.218
7396.939
7406.066
7414.407
7422.386
7429.874
7436.589
7442.688
7448.356
7453.787
7459.079
7464.544
7470.074
7476.221
7482.993
7490.356
7498.189
7506.281
7514.478
7522.565
7530.31
7537.758
7544.625
7550.596
7555.905
7560.062
7563.144
7564.765
7565.116
7563.323
7559.996
7558.224
7559.62
7563.539
7568.851
7574.062
7578.759
7583.067
7587.039
7590.555
7593.541
7595.986
7597.683
7598.672
7599.187
7599.529
7599.738
7600.171
7601.215
7602.896
7604.713
7606.279
7607.368
7607.922
7608.004
7607.936
7608.275
7610.837
7613.555
7614.391
7613.711
7612.724
7612.136
7612.042
7612.561
7613.343
7613.782
7613.186
7611.886
7610.808
7609.986
7609.876
7610.949
7611.472
7610.974
7611.627
7610.152
7603.365
7591.626
7578.395
7569.021
7562.634
7559.653
7558.099
7559.531
7563.127
7565.904
7567.777
7568.881
7568.81
7568.146
7567.706
7567.844
7568.174
7568.685
7569.889
7571.847
7573.491
7574.111
7574.716
7574.921
7575.085
7575.828
7576.937
7578.227
7579.484
7580.546
7581.631
7582.585
7583.61
7584.744
7586.075
7587.646
7589.419
7591.408
7593.765
7596.723
7600.041
7603.495
7607.025
7610.704
7614.542
7618.45
7622.265
7625.863
7629.325
7632.822
7636.434
7640.475
7645.092
7650.29
7656.084
7662.421
7668.514
7674.443
7679.987
7685.338
7690.179
7694.296
7697.5
7700.255
7703.401
7706.792
7710.046
7712.648
7714.579
7715.732
7716.221
7718.045
7724.759
7723.288
7718.177
7712.876
7709.782
7709.561
7711.708
7714.757
7718.228
7722.126
7726.571
7731.041
7735.111
7737.99
7740.75
7744.044
7747.755
7751.843
7756.616
7760.045
7763.71
7768.482
7773.934
7779.872
7786.856
7794.53
7802.479
7810.471
7818.103
7825.61
7833.426
7841.882
7851.62
7861.965
7869.714
7875.477
7882.748
7891.106
7900.047
7909.156
7918.314
7927.6
7937.229
7947.287
7957.734
7968.317
7979.159
7990.195
8001.075
8011.482
8021.166
8029.657
8036.221
8040.186
8041.972
8046.172
8055.862
8068.629
8080.279
8091.287
8102.562
8114.279
8125.866
8137.142
8148.152
8159.141
8169.957
8180.676
8191.332
8202.001
8212.924
8224.05
8235.284
8245.165
8254.535
8265.851
8279.412
8292.718
8304.968
8319.214
8336.263
8350.534
8365.832
8379.185
8388.903
8398.51
8405.885
8415.187
8424.553
8432.707
8439.933
8447.149
8454.929
8463.065
8470.241
8476.928
8483.4
8489.993
8496.745
8503.724
8511.049
8518.799
8526.796
8534.653
8541.364
8547.47
8553.402
8558.82
8563.615
8567.969
8571.244
8574.146
8577.127
8579.993
8583.071
8586.563
8591.364
8597.226
8603.57
8610.178
8616.825
8623.417
8629.962
8636.459
8642.8
8648.655
8653.792
8658.25
8662.242
8665.902
8669.223
8672.067
8674.476
8676.205
8676.821
8675.565
8671.183
8663.414
8656.572
4866.344
4859.887
4673.063
5492.315
5687.22
5996.323
6075.955
6151.984
6271.92
6333.637
6365.349
6372.006
6358.591
6332.808
6289.8
6224.653
6175.992
6127.917
6072.163
6040.311
6007.204
5993.275
5955.96
5958.032
5970.912
5994.384
6010.94
6039.865
6077.781
6122.156
6177.605
6243.359
6319.547
6396.964
6472.818
6542.761
6605.903
6664.692
6723.435
6782.73
6839.895
6883.016
6914.541
6942.248
6967.193
6968.958
6959.665
6933.314
6855.848
6774.703
6701.914
6644.32
6601.689
6562.757
6520.367
6466.354
6389.186
6321.705
6301.759
6237.508
6143.387
6041.584
5951.546
5867.311
5787.812
5714.759
5653.624
5611.166
5593.027
5593.586
5611.893
5639.848
5669.79
5698.179
5724.082
5751.06
5778.958
5810.186
5842.838
5893.654
5969.497
6069.744
6187.454
6315.848
6450.755
6580.062
6699.552
6802.62
6878.781
6927.228
6954.361
6968.484
6973.66
6971.881
6963.108
6945.373
6920.797
6893.107
6865.749
6838.058
6803.156
6760.34
6708.792
6649.398
6583.047
6513.581
6443.632
6375.525
6302.763
6227.868
6150.16
6070.246
5992.24
5916.362
5850.335
5796.594
5758.155
5743.047
5754.941
5801.64
5878.725
5982.81
6110.846
6254.008
6407.544
6566.81
6727.648
6885.535
7035.628
7173.577
7297.249
7405.347
7496.427
7569.761
7625.472
7664.645
7689.22
7701.781
7704.495
7699.57
7688.969
7674.148
7656.656
7635.957
7619.424
7600.132
7579.675
7557.985
7535.279
7511.514
7487.081
7462.12
7436.498
7410.997
7385.932
7362.666
7343.414
7328.143
7316.086
7306.841
7300.293
7296.207
7294.159
7293.274
7293.502
7295.304
7298.48
7303.846
7312.054
7319.708
7328.458
7338.516
7349.398
7361.389
7373.912
7385.497
7396.236
7406.181
7415.245
7423.32
7430.639
7437.164
7443.011
7448.318
7453.267
7458.069
7463.089
7468.558
7474.529
7481.35
7488.841
7496.839
7505.019
7513.339
7521.512
7529.331
7536.664
7543.338
7549.009
7553.677
7557.199
7559.602
7560.741
7560.798
7560.196
7559.932
7561.032
7563.777
7568.29
7573.091
7577.254
7580.447
7582.584
7587.755
7592.254
7595.14
7598.558
7602.253
7603.235
7602.463
7601.498
7601.147
7601.463
7602.522
7603.954
7605.459
7606.654
7607.441
7607.83
7608.218
7609.053
7609.637
7611.811
7614.57
7615.401
7614.591
7613.694
7612.711
7612.071
7611.739
7611.536
7611.251
7613.528
7616.809
7617.238
7616.019
7615.848
7616.247
7616.095
7615.135
7613.233
7606.029
7595.898
7588.036
7579.176
7568.49
7559.62
7556.575
7558.434
7561.444
7563.707
7565.087
7565.811
7566.377
7566.829
7567.185
7567.554
7567.944
7568.339
7568.729
7569.142
7569.619
7569.583
7569.177
7569.765
7571.231
7572.643
7574.075
7575.755
7577.101
7578.329
7579.589
7580.908
7582.271
7583.637
7585.065
7586.654
7588.323
7590.192
7592.371
7594.869
7597.653
7600.698
7603.947
7607.355
7610.941
7614.645
7618.385
7622.103
7625.862
7629.54
7633.308
7637.346
7641.467
7645.878
7650.649
7655.797
7661.326
7666.897
7672.304
7677.504
7682.276
7686.74
7690.653
7694.202
7697.614
7700.939
7704.207
7707.146
7709.456
7710.843
7710.853
7708.673
7703.677
7696.088
7690.149
7691.29
7697.601
7703.236
7707.747
7711.854
7715.831
7719.528
7722.965
7726.389
7729.588
7732.504
7735.397
7738.792
7741.934
7745.138
7749.206
7754.205
7759.383
7764.463
7770.356
7776.618
7783.219
7790.111
7797.237
7804.386
7811.599
7818.95
7826.229
7833.819
7841.721
7849.786
7857.677
7865.507
7873.573
7882.031
7890.877
7900.043
7909.43
7918.97
7928.519
7938.018
7947.392
7956.824
7966.734
7976.794
7986.919
7996.95
8006.639
8015.796
8024.293
8032.007
8038.975
8045.089
8052.125
8061.322
8071.61
8083.001
8094.319
8105.71
8116.972
8128.011
8138.898
8149.844
8160.899
8171.945
8182.984
8193.956
8205.089
8216.525
8228.337
8240.55
8249.864
8258.004
8268.876
8281.929
8296.102
8310.227
8324.209
8339.932
8352.406
8364.791
8378.289
8387.836
8397.221
8405.817
8414.985
8424.78
8433.582
8440.841
8447.539
8454.974
8463.096
8470.453
8477.488
8484.318
8491.119
8497.972
8505.02
8512.072
8519.028
8525.864
8532.645
8539.367
8545.896
8552.262
8558.298
8563.16
8566.968
8570.993
8575.119
8579.103
8582.862
8586.468
8590.437
8594.944
8600.326
8606.207
8612.122
8618.077
8624.019
8629.988
8635.896
8641.617
8646.839
8651.463
8655.669
8659.631
8663.291
8666.401
8669.188
8671.402
8672.979
8673.783
8674.232
8674.415
8674.311
8675.333
4322.408
4245.073
4151.656
4061.502
3956.234
4016.384
3909.854
3952.383
4054.268
4209.81
4336.269
4659.623
4998.896
5200.164
5483.911
5711.302
5951.537
6023.827
6162.942
6293.588
6344.402
6378.841
6382.394
6365.482
6333.476
6280.247
6214.829
6157.859
6100.558
6044.817
6003.492
5975.323
5953.557
5938.909
5939.055
5950.482
5971.038
5997.379
6030.981
6072.192
6121.013
6177.781
6239.281
6308.489
6383.067
6457.516
6529.542
6598.937
6665.885
6730.621
6795.367
6847.769
6890.814
6926.803
6954.79
6975.832
6984.809
6975.172
6935.28
6853.611
6763.281
6684.651
6631.026
6588.563
6553.248
6526.784
6490.631
6432.484
6368.62
6315.518
6230.341
6120.035
6007.483
5899.824
5795.084
5699.832
5621.121
5561.058
5529.353
5525.324
5542.712
5576.695
5617.259
5653.998
5681.833
5710.29
5732.299
5746.043
5764.674
5788.882
5831.413
5899.272
5998.022
6124.627
6263.92
6413.058
6557.822
6695.336
6816.73
6905.879
6960.311
6987.791
6998.661
6999.875
6994.182
6980.102
6960.107
6934.683
6906.847
6878.425
6849.245
6813.598
6767.935
6712.859
6650.372
6582.879
6511.003
6435.624
6362.881
6287.299
6210.151
6133.126
6051.944
5963.218
5881.41
5803.712
5743.445
5698.779
5674.027
5686.209
5728.175
5805.513
5911.086
6045.659
6190.724
6347.424
6510.956
6677.244
6841.048
6996.823
7139.751
7267.125
7377.802
7470.915
7545.889
7603.022
7643.436
7668.901
7681.814
7684.709
7680.035
7670.083
7656.252
7640.392
7624.564
7603.635
7583.541
7562.944
7541.667
7519.752
7496.952
7473.567
7449.638
7425.188
7401.345
7378.805
7358.157
7340.416
7325.93
7314.431
7305.969
7300.034
7296.023
7293.864
7293.014
7292.954
7293.808
7295.525
7299.234
7305.526
7313.431
7323.221
7334.412
7346.635
7360.045
7373.35
7384.144
7394.413
7405.41
7415.65
7424.262
7431.43
7437.762
7443.61
7448.84
7453.596
7458.118
7462.682
7467.881
7473.777
7480.51
7487.935
7495.972
7504.274
7512.64
7520.767
7528.491
7535.633
7542.192
7547.967
7552.841
7556.746
7559.603
7561.604
7562.545
7562.66
7562.025
7562.345
7566.778
7573.896
7577.553
7578.933
7580.922
7584.069
7584.389
7586.757
7593.812
7596.745
7598.07
7598.945
7599.43
7600.386
7601.412
7602.425
7603.342
7604.326
7605.565
7606.499
7606.857
7606.784
7606.874
7608.479
7613.162
7613.578
7609.777
7611.646
7614.487
7614.397
7613.11
7611.731
7610.852
7610.139
7610.177
7610.987
7610.864
7610.526
7609.686
7608.322
7607.165
7608.264
7608.85
7605.865
7600.704
7593.377
7587.084
7581.375
7575.064
7569.311
7566.97
7566.299
7566.161
7566.468
7566.931
7567.41
7567.666
7567.899
7567.946
7567.901
7567.958
7568.182
7568.549
7569.065
7569.751
7570.628
7571.619
7572.531
7573.37
7574.272
7575.129
7576.026
7577.186
7578.379
7579.545
7580.93
7582.585
7584.191
7585.64
7587.165
7588.974
7591.021
7593.317
7595.825
7598.472
7601.28
7604.385
7607.72
7611.28
7615.041
7618.831
7622.597
7626.408
7630.203
7634.082
7638.117
7642.196
7646.482
7651.101
7656.106
7661.404
7666.742
7671.889
7676.837
7681.499
7685.824
7689.837
7693.522
7696.718
7699.542
7702.046
7704.518
7706.688
7708.174
7709.367
7710.349
7711.349
7712.755
7714.532
7716.127
7717.154
7717.796
7718.651
7719.801
7721.171
7723.191
7725.86
7728.875
7732.203
7735.861
7739.411
7742.578
7746.153
7749.789
7753.362
7757.317
7761.51
7766.088
7771.3
7777.059
7782.948
7789.044
7795.44
7802.168
7809.189
7816.353
7823.619
7831.08
7838.847
7846.923
7855.199
7863.48
7871.82
7880.22
7888.568
7897.01
7905.674
7914.543
7923.535
7932.763
7942.49
7952.496
7962.696
7972.881
7982.902
7992.719
8002.3
8011.634
8020.622
8029.319
8037.69
8044.958
8052.261
8061.343
8071.255
8082.194
8093.005
8104.015
8115.508
8127.026
8138.396
8149.665
8160.963
8172.339
8183.68
8194.958
8206.343
8217.913
8229.295
8241.219
8251.635
8262.406
8274.342
8287.413
8301.471
8315.47
8327.995
8341.499
8353.59
8364.079
8376.563
8387.45
8398.167
8407.338
8416.114
8425.331
8433.652
8441.166
8448.246
8455.664
8463.855
8471.366
8478.214
8485.098
8492.284
8499.254
8506.086
8512.891
8519.758
8526.685
8533.442
8539.973
8546.199
8552.27
8558.087
8563.243
8567.587
8571.722
8576.226
8580.613
8584.585
8588.477
8592.752
8597.361
8602.401
8607.799
8613.313
8618.953
8624.591
8630.238
8635.872
8641.39
8646.515
8651.008
8655.13
8658.954
8662.51
8665.418
8667.754
8669.761
8671.351
8672.587
8673.412
8673.631
8672.98
8672.508
4609.261
4657.503
4793.69
4644.798
4610.494
4563.164
4570.023
4548.239
4491.788
4443.403
4366.632
4260.808
4107.564
3982.792
3854.047
3718.71
3748.272
3852.525
3949.123
4047.895
4328.138
4661.187
4937.425
5192.11
5465.215
5781.612
5914.34
5950.234
6170.976
6293.2
6358.137
6388.96
6398.283
6384.508
6348.349
6294.962
6223.069
6146.765
6077.731
6017.593
5971.699
5940.997
5920.91
5906.861
5905.8
5914.491
5929.698
5956.805
5993.936
6040.577
6094.197
6156.758
6225.391
6297.163
6372.66
6449.787
6524.828
6595.123
6659.199
6720.76
6781.377
6839.139
6905.425
6962.391
6994.056
6999.861
7001.377
7007.934
6973.304
6863.001
6747.726
6654.695
6600.585
6571.803
6568.285
6563.365
6530.679
6480.888
6414.413
6326.807
6211.022
6080.306
5950.059
5822.985
5701.595
5595.383
5518.894
5474.61
5461.968
5475.037
5509.784
5558.68
5615.619
5669.029
5711.132
5736.166
5751.524
5750.53
5744.328
5744.726
5769.436
5829.897
5929.131
6063.022
6215.102
6376.844
6535.321
6686.565
6823.528
6927.069
6988.885
7017.867
7026.558
7023.044
7012.043
6993.835
6971.517
6946.188
6918.959
6890.012
6858.671
6821.168
6772.818
6714.707
6650.029
6580.842
6505.981
6425.958
6346.446
6268.763
6189.936
6112.127
6028.404
5939.313
5853.302
5769.085
5697.082
5640.811
5607.603
5610.95
5653.989
5734.704
5845.291
5979.02
6126.738
6285.031
6451.167
6621.366
6790.06
6950.496
7097.472
7227.747
7339.957
7433.989
7509.825
7567.61
7608.195
7633.649
7646.932
7650.526
7646.594
7637.703
7625.483
7610.96
7594.246
7575.98
7557.759
7539.01
7519.271
7498.534
7476.632
7454.025
7431.675
7410.058
7389.662
7370.838
7353.336
7337.435
7323.711
7312.561
7303.963
7297.603
7293.309
7290.776
7289.482
7289.095
7289.651
7291.376
7294.884
7300.406
7309.333
7319.953
7332.167
7345.446
7358.864
7372.195
7384.633
7396.049
7407.203
7417.286
7425.593
7432.464
7438.622
7444.426
7449.719
7454.356
7458.683
7463.054
7467.935
7473.732
7480.338
7487.64
7495.604
7503.869
7512.079
7520.058
7527.644
7534.743
7541.37
7547.29
7552.148
7556.248
7559.353
7561.745
7563.346
7564.297
7564.853
7564.872
7565.348
7570.57
7576.745
7579.951
7583.145
7588.125
7590.162
7592.798
7597.548
7596.866
7594.515
7595.614
7598.459
7601.29
7603.077
7604.011
7604.332
7604.865
7605.784
7606.579
7606.726
7607.423
7610.31
7613.065
7615.705
7613.974
7609.787
7610.026
7612.725
7614.111
7613.218
7611.539
7610.915
7612.325
7613.79
7612.901
7611.098
7611.796
7612.467
7610.697
7608.295
7606.748
7604.164
7600.535
7596.595
7591.694
7587.271
7583.296
7578.416
7573.078
7569.424
7567.53
7566.445
7566.077
7566.205
7566.468
7566.706
7566.873
7566.934
7567.066
7567.307
7567.577
7567.871
7568.207
7568.609
7569.087
7569.586
7570.247
7571.117
7572.143
7573.316
7574.413
7575.626
7576.856
7578.108
7579.515
7581.241
7583.067
7584.758
7586.669
7588.724
7590.817
7593.187
7595.842
7598.718
7601.702
7604.871
7608.255
7611.699
7615.244
7618.951
7622.722
7626.59
7630.501
7634.457
7638.491
7642.615
7646.89
7651.422
7656.169
7661.089
7666.001
7670.802
7675.393
7679.749
7683.809
7687.596
7691.108
7694.185
7697.073
7699.839
7702.448
7704.585
7706.229
7707.233
7707.597
7707.133
7705.85
7704.412
7703.631
7704.058
7706.068
7709.222
7712.518
7715.912
7719.533
7723.139
7726.696
7730.213
7733.372
7736.767
7740.585
7744.621
7748.826
7752.739
7756.426
7760.643
7765.43
7770.787
7776.469
7782.388
7788.521
7794.971
7801.71
7808.639
7815.684
7822.865
7830.223
7837.865
7845.742
7853.771
7861.771
7869.803
7878
7886.406
7895.128
7904.262
7913.709
7923.202
7932.522
7941.513
7950.937
7960.537
7970.127
7979.798
7989.583
7999.222
8008.676
8017.905
8026.997
8035.998
8044.113
8052.294
8061.625
8071.821
8082.61
8093.628
8104.774
8116.201
8127.829
8139.415
8151.011
8162.614
8174.171
8185.752
8197.476
8209.179
8221.215
8232.801
8244.446
8255.926
8268.002
8280.53
8293.004
8306.145
8318.896
8330.727
8343.198
8354.861
8365.564
8377.883
8388.886
8400.056
8409.213
8417.411
8425.867
8434.08
8441.934
8449.628
8457.454
8466.128
8474.203
8480.74
8486.909
8493.584
8500.593
8507.518
8514.1
8520.608
8526.937
8533.113
8539.147
8545.391
8552.159
8558.267
8563.679
8568.412
8572.682
8577.299
8581.844
8586.4
8590.869
8595.361
8599.794
8604.351
8609.48
8614.909
8620.347
8625.602
8631.272
8636.615
8641.526
8645.955
8649.921
8653.685
8657.253
8660.577
8663.508
8665.967
8668.132
8669.821
8671.207
8672.442
8673.662
8674.76
8675.904
4552.051
4561.06
4574.2
4602.205
4624.901
4652.023
4670.628
4662.639
4644.757
4615.859
4554.58
4528.209
4527.14
4534.887
4435.89
4230.736
4047.289
3876.858
3730.601
3615.062
3528.311
3558.03
3698.95
3823.674
3979.414
4269.227
4569.404
4858.511
5168.057
5384.308
5567.089
5791.925
5966.648
6117.948
6252.742
6335.131
6380.199
6394.439
6383.949
6347.022
6291.795
6214.474
6125.473
6046.187
5979.893
5926.175
5891.411
5873.902
5862.62
5860.876
5870.038
5886.684
5916.065
5958.45
6009.206
6069.165
6140.068
6212.567
6284.13
6360.598
6436.373
6512.477
6587.532
6658.837
6728.139
6789.666
6834.282
6889.457
6939.089
6982.884
7025.019
7037.03
7023.903
6982.403
6869.055
6741.233
6646.812
6599.037
6580.292
6574.238
6571.271
6563.257
6519.074
6440.586
6323.531
6177.42
6022.145
5872.248
5728.26
5600.251
5499.505
5435.353
5406.196
5409.54
5439.994
5489.096
5549.691
5612.109
5670.531
5714.093
5743.336
5756.151
5754.61
5740.678
5729.406
5738.106
5783.606
5874.014
6012.116
6174.76
6346.35
6515.001
6675.076
6818.224
6931.657
6999.109
7030.696
7038.904
7033.288
7020.43
7003.345
6978.354
6951.098
6924.704
6896.205
6862.709
6822.188
6771.203
6710.716
6644.668
6573.986
6497.677
6414.84
6333.227
6254.694
6176.806
6097.907
6014.515
5925.66
5836.537
5745.666
5660.766
5592.283
5554.642
5550.66
5593.276
5675.719
5788.449
5922.406
6070.04
6227.914
6394.385
6567.22
6739.379
6902.562
7051.207
7182.272
7294.502
7387.961
7463.221
7520.905
7561.217
7585.598
7598.158
7602.061
7598.903
7591.086
7581.064
7569.6
7557.21
7541.079
7522.697
7506.454
7489.484
7470.966
7451.955
7433.133
7414.769
7396.754
7379.035
7361.872
7345.665
7331.108
7318.935
7309.287
7301.482
7295.426
7291.554
7289.304
7288.035
7287.533
7288.118
7289.936
7293.202
7298.743
7307.318
7318.236
7330.865
7344.473
7358.333
7371.808
7384.713
7397.094
7408.474
7417.876
7425.945
7432.907
7439.01
7444.548
7449.736
7454.547
7458.975
7463.368
7468.346
7474.158
7480.778
7488.033
7495.831
7503.824
7511.839
7519.618
7527.132
7534.184
7540.669
7546.332
7551.285
7555.515
7559.018
7561.959
7564.645
7567.141
7570.406
7571.632
7569.728
7570.109
7574.014
7578.198
7581.711
7585.054
7589.932
7596.565
7599.055
7597.311
7595.112
7596.419
7599.714
7603.136
7605.297
7606.21
7606.582
7606.579
7606.09
7606.329
7608.974
7612.3
7614.748
7614.934
7614.418
7613.169
7611.133
7609.727
7610.251
7611.83
7612.002
7611.975
7612.973
7613.887
7613.437
7612.134
7610.866
7610.25
7609.356
7607.455
7605.025
7602.244
7600.404
7597.847
7593.67
7589.544
7585.407
7581.814
7578.284
7574.532
7571.61
7569.848
7568.901
7568.366
7567.871
7567.593
7567.39
7567.317
7567.306
7567.193
7567.132
7567.272
7567.546
7567.912
7568.41
7568.955
7569.637
7570.482
7571.389
7572.333
7573.39
7574.75
7576.197
7577.631
7579.071
7580.542
7581.865
7583.281
7585.151
7587.355
7589.56
7591.472
7593.633
7596.15
7599.076
7602.161
7605.311
7608.621
7612.046
7615.563
7619.217
7623.029
7626.938
7630.893
7634.846
7638.847
7642.955
7647.167
7651.563
7656.125
7660.813
7665.547
7670.185
7674.601
7678.818
7682.861
7686.689
7690.269
7693.539
7696.329
7698.754
7701.008
7703.208
7705.139
7706.679
7707.837
7708.913
7710.137
7711.694
7713.719
7716.016
7718.215
7720.12
7722.088
7724.095
7726.012
7728.035
7730.466
7733.118
7735.994
7739.044
7742.283
7745.68
7748.922
7752.369
7756.158
7760.544
7765.273
7770.589
7776.092
7781.863
7787.931
7794.227
7800.715
7807.328
7814.045
7820.916
7828.025
7835.473
7843.186
7851.048
7858.97
7867.018
7875.203
7883.615
7892.225
7900.935
7909.687
7918.57
7927.955
7937.6
7947.056
7956.607
7966.486
7976.435
7986.257
7995.888
8005.43
8014.836
8024.271
8033.864
8042.814
8051.732
8061.334
8071.799
8082.536
8093.685
8105.039
8116.505
8128.116
8139.738
8151.438
8163.224
8175.112
8187.003
8198.933
8210.73
8222.775
8234.654
8246.587
8258.592
8270.958
8283.396
8295.613
8308.211
8320.468
8332.409
8344.433
8356.153
8367.394
8379.124
8389.916
8400.232
8409.34
8417.906
8426.421
8434.747
8442.791
8450.697
8458.668
8467.522
8475.878
8482.595
8488.783
8495.743
8502.57
8509.379
8515.975
8522.346
8528.218
8534.378
8540.274
8546.152
8552.833
8559.063
8564.462
8569.318
8573.654
8578.245
8583.132
8588.066
8592.793
8597.382
8601.744
8606.625
8611.787
8616.747
8621.017
8625.971
8632.204
8637.725
8642.012
8645.851
8649.535
8653.393
8657.168
8660.279
8662.954
8665.255
8667.235
8668.915
8670.406
8671.846
8673.245
8674.706
8675.559
4532.846
4538.345
4551.216
4578.002
4613.09
4651.348
4675.186
4678.831
4654.566
4628.911
4589.505
4524.649
4507.811
4446.107
4329.347
4124.089
3886.66
3644.632
3502.763
3454.107
3401.361
3372.162
3499.496
3696.417
3995.74
4244.521
4529.799
4818.758
5114.522
5337.33
5510.712
5684.586
5938.275
6116.955
6192.563
6274.404
6340.993
6367.47
6365.301
6328.629
6266.657
6184.748
6091.526
6004.924
5931.291
5872.156
5836.43
5818.453
5809.416
5808.412
5816.508
5833.802
5864.825
5909.097
5967.026
6034.652
6108.735
6187.076
6263.635
6340.766
6417.566
6493.894
6569.324
6639.86
6707.614
6776.578
6847.655
6888.375
6920.788
6976.189
7031.951
7039.782
6975.155
6881.664
6800.206
6721.214
6651.63
6596.914
6570.52
6575.8
6581.089
6560.175
6509.925
6428.738
6295.454
6126.346
5951.62
5786.342
5638.114
5514.715
5424.28
5371.025
5353.956
5371.12
5417.015