/*--------------------------------*- C++ -*----------------------------------*\
| =========                 |                                                 |
| \\      /  F ield         | foam-extend: Open Source CFD                    |
|  \\    /   O peration     | Version:     3.1                                |
|   \\  /    A nd           | Web:         http://www.extend-project.de       |
|    \\/     M anipulation  |                                                 |
\*---------------------------------------------------------------------------*/
FoamFile
{
    version     2.0;
    format      ascii;
    class       volScalarField;
    location    "13.5";
    object      alpha1;
}
// * * * * * * * * * * * * * * * * * * * * * * * * * * * * * * * * * * * * * //

dimensions      [0 0 0 0 0 0 0];

internalField   nonuniform List<scalar> 
119952
(
1
1
1
1
1
1
1
1
0.9999999
1
1
0.9999999
1
0.9999999
1
1
0.9999998
1
1
0.9999999
1
1
1
1
1
1
1
1
1
0.9999991
1
1
1
1
1
1
1
1
1
1
1
0.9999999
1
1
0.9999999
1
1
0.9999999
1
1
1
1
0.9999999
1
1
1
1
0.9999999
1
1
1
0.9999999
0.9999999
1
1
0.9999999
1
1
1
1
1
1
1
1
1
0.9999999
1
1
0.9999998
1
1
1
0.9999998
0.9999998
1
0.9999999
0.9999996
1
1
0.9999998
0.9999997
1
1
0.9999997
0.9999999
1
0.9999998
0.9999999
1
1
1
1
1
1
1
1
1
1
1
1
1
1
1
1
1
1
1
1
1
1
1
1
1
1
1
1
1
1
1
1
1
1
1
1
1
1
1
1
1
1
1
1
1
1
1
1
1
1
1
1
1
1
1
1
1
1
1
1
1
1
1
1
1
1
1
1
1
1
1
1
1
1
1
1
1
1
1
1
1
1
1
1
1
1
1
1
1
1
1
1
1
1
1
1
1
1
1
1
1
1
1
1
1
1
1
1
1
1
1
1
1
1
1
1
1
1
1
1
1
1
1
1
1
1
1
1
1
1
1
1
1
1
1
1
0.9999997
1
0.9999988
0.9999999
0.9999996
1
1
1
0.9999997
1
0.9999985
1
0.9999997
0.9999989
0.9999999
1
1
0.9999976
1
0.9999999
0.9999985
0.9999998
1
1
0.9999997
0.9999999
1
1
0.9999992
1
1
0.9999999
1
0.9999999
0.9999999
0.9999998
1
1
1
0.9999999
0.9999999
1
0.9999999
0.9999993
0.9999999
1
0.9999999
0.9999998
0.9999998
1
1
1
1
1
1
1
1
0.9999992
0.9999992
1
1
0.9999987
0.9999988
1
1
1
1
0.9999999
1
1
1
1
0.9999997
0.9999981
0.9999987
1
1
0.9999998
0.9999985
0.9999999
0.9999996
0.9999997
1
1
0.9999997
0.9999966
0.9999991
1
1
0.9999989
0.9999922
0.9999996
0.9999974
0.9999961
0.9999993
1
1
1
1
1
1
1
1
1
0.999999
0.9999997
1
1
1
1
1
1
1
1
1
1
1
0.9999999
0.9999969
0.9999959
0.9999997
0.9999999
0.9999995
1
1
1
0.9999984
0.9999981
1
1
1
0.9999986
0.9999993
1
1
1
0.9999996
0.9999994
1
1
1
1
1
0.9999998
0.9999998
1
1
0.9999999
0.9999998
1
0.9999995
0.9999985
0.9999999
1
0.9999999
0.9999987
0.9999999
1
1
1
1
1
1
1
1
1
1
1
1
0.9999999
0.9999985
0.9999998
1
1
1
0.9999999
1
1
1
1
0.9999998
1
1
1
1
0.9999999
1
1
1
0.9999999
1
1
1
1
1
1
1
1
1
1
1
1
1
1
1
1
1
1
1
1
1
1
1
1
1
1
1
1
1
1
1
1
1
1
1
1
1
1
1
1
1
1
1
1
1
1
1
1
1
1
1
1
1
1
1
0.9999999
1
1
1
1
1
1
1
1
1
1
1
1
1
1
1
1
1
1
1
1
1
1
0.9999999
0.9999999
1
1
1
1
1
1
1
1
1
0.9999999
0.9999999
1
1
1
1
1
1
1
1
1
1
1
1
1
1
1
1
1
1
1
1
1
1
1
1
1
1
1
1
1
1
1
1
1
1
1
1
1
1
1
1
1
1
1
1
1
1
1
1
1
1
1
1
1
1
1
0.9999999
0.9999997
0.9999991
0.9999968
0.999995
0.9999962
0.9999989
0.9999999
1
1
1
1
1
1
1
1
1
1
0.9999999
0.9999997
0.9999992
0.999999
0.9999992
0.9999998
1
1
1
1
1
1
1
1
1
1
1
1
1
1
0.9999999
1
1
1
0.9999999
0.9999972
0.9999969
0.9999971
0.9999999
1
1
1
1
1
1
1
1
0.9999999
1
1
1
1
1
1
1
1
1
1
1
1
1
1
1
1
1
1
1
1
1
1
1
1
1
1
1
1
1
1
1
1
1
1
0.9999998
0.9999999
1
1
1
1
1
1
0.9999999
0.9999999
1
0.9999999
1
1
1
0.9999994
0.9999998
1
1
1
1
1
0.9999998
0.9999992
0.999999
0.9999993
0.9999998
1
1
1
1
0.9999999
0.9999992
0.9999981
0.9999981
0.9999981
0.9999988
0.9999994
0.9999993
0.9999989
0.9999988
0.9999989
0.9999992
0.9999997
0.9999999
1
1
1
1
1
0.9999998
0.9999997
0.9999998
1
1
1
1
1
1
0.9999998
0.9999991
0.999999
0.9999995
0.9999999
1
1
1
1
1
1
1
1
0.9999999
0.9999999
0.9999999
1
1
1
0.9999996
0.9999962
0.999959
0.9998147
0.9997777
0.9998285
0.9999288
0.9999889
0.9999996
1
1
1
1
1
1
1
0.9999999
0.9999999
0.9999999
1
1
1
1
1
1
1
1
1
0.9999999
0.9999999
1
1
1
1
1
1
1
1
1
1
0.9999999
0.9999995
0.9999997
0.9999999
1
1
1
1
1
1
1
1
1
1
1
1
1
1
1
1
0.9999998
0.9999997
0.9999999
1
1
1
1
1
1
1
1
1
1
1
1
1
1
1
0.9999999
0.9999997
0.9999999
1
1
1
1
1
1
1
1
1
1
1
1
1
1
1
1
1
1
1
1
1
1
1
1
1
1
1
1
1
1
1
1
1
1
1
1
1
1
1
1
1
1
1
1
1
1
1
1
1
1
1
1
1
1
1
1
1
1
1
1
1
1
1
1
1
1
1
1
1
1
1
1
1
1
1
1
1
1
1
1
1
1
1
1
1
1
1
1
1
1
1
1
1
1
1
1
1
1
1
1
1
1
1
1
1
1
1
1
1
1
1
1
1
1
1
1
1
1
1
1
1
1
1
1
1
1
1
1
1
1
1
1
1
1
1
1
1
1
1
1
1
1
1
1
1
1
1
1
1
1
1
1
1
1
1
1
1
1
1
1
1
1
1
1
1
1
1
1
1
1
1
1
1
1
1
1
1
1
1
1
1
1
1
1
1
1
1
0.9999999
0.9999997
0.9999994
0.9999993
0.9999994
0.9999997
0.9999997
0.9999996
0.9999989
0.9999969
0.9999943
0.9999918
0.9999883
0.9999791
0.9999381
0.9997346
0.9994423
0.9996112
0.9998998
0.9999925
0.9999998
1
1
1
1
1
1
1
1
1
0.9999999
0.9999996
0.9999985
0.9999941
0.9999843
0.9999829
0.9999922
0.9999991
1
1
1
1
1
1
1
1
1
1
1
1
0.9999998
0.9999986
0.9999923
0.9999599
0.9999049
0.9999279
0.9999783
0.999998
0.9999999
0.9999999
0.9999999
1
1
1
1
1
1
1
1
1
1
1
1
1
1
1
1
1
1
1
1
1
0.9999999
0.9999997
0.9999997
0.9999997
0.9999999
1
1
1
1
1
1
1
1
1
1
1
1
1
1
1
1
1
1
1
1
1
1
1
1
1
1
1
1
1
1
1
0.9999999
0.9999997
0.9999998
1
1
1
1
1
1
0.9999999
0.9999994
0.999999
0.999999
0.999999
0.9999993
0.9999998
0.9999998
0.9999997
0.9999997
0.9999999
1
1
1
0.9999998
0.9999987
0.9999966
0.9999966
0.9999966
0.9999966
0.9999966
0.9999975
0.9999991
0.9999995
0.9999994
0.9999995
0.9999997
0.9999999
1
1
1
1
1
1
1
1
1
1
1
1
1
1
1
1
1
1
1
1
1
1
0.9999998
0.9999998
0.9999999
1
1
1
0.9999999
0.9999991
0.9999881
0.9998405
0.9987808
0.9984418
0.9991138
0.9997763
0.9999789
0.9999993
1
1
1
1
1
1
1
1
1
1
1
1
1
1
1
1
1
1
1
1
1
1
1
1
1
1
1
1
1
1
0.9999999
0.9999999
1
1
1
1
1
1
1
1
1
1
1
1
1
1
1
1
1
1
1
1
1
1
1
1
0.9999999
0.9999999
1
1
1
1
1
1
1
1
1
1
1
0.9999999
0.9999999
1
1
1
1
1
1
1
1
1
1
1
1
1
1
1
1
1
1
1
1
1
1
1
1
1
1
1
1
1
1
1
1
1
1
1
1
1
1
1
1
1
1
1
1
1
1
1
1
1
1
1
1
1
1
1
1
1
1
1
1
1
1
1
1
1
1
1
1
1
1
1
1
1
1
1
1
1
1
1
1
1
1
1
1
1
1
1
1
1
1
1
1
1
1
1
1
1
1
1
1
1
1
1
1
1
1
1
1
1
1
1
0.9999999
0.9999999
0.9999999
0.9999999
0.9999999
1
1
1
1
1
1
1
1
1
1
1
1
1
1
1
1
1
1
1
1
1
1
1
1
1
1
1
1
1
1
1
1
1
1
1
1
1
1
1
1
1
1
1
1
1
1
1
1
1
1
1
1
1
1
1
1
1
1
1
1
1
1
1
1
0.9999999
0.9999999
1
1
1
1
1
1
1
1
1
1
1
1
1
1
0.9999999
0.9999994
0.9999968
0.9999892
0.9999888
0.9999917
0.9999955
0.9999956
0.999992
0.9999719
0.9999055
0.9996897
0.9991345
0.9987324
0.998715
0.9982796
0.9959219
0.9952737
0.9957753
0.9986048
0.9998689
0.9999964
0.9999999
0.9999999
0.9999999
0.9999999
0.9999999
0.9999999
0.9999999
0.9999999
0.9999997
0.999999
0.9999965
0.9999881
0.9999585
0.9998629
0.9997587
0.9998227
0.9999571
0.9999974
1
1
1
1
1
1
1
1
1
1
0.9999999
0.9999997
0.9999979
0.9999861
0.9998978
0.9994901
0.9994871
0.9998093
0.9999769
0.9999992
0.9999999
0.9999999
0.9999999
0.9999995
0.9999992
0.9999993
0.9999997
1
1
1
1
1
1
1
1
0.9999999
0.9999997
0.9999989
0.9999987
0.9999993
0.9999999
1
1
1
0.9999997
0.9999985
0.9999957
0.9999955
0.9999981
0.9999998
1
1
1
0.9999999
0.9999999
1
1
1
1
1
1
1
1
1
1
1
1
1
1
1
1
1
1
1
1
1
1
1
1
1
1
1
0.9999999
0.9999999
1
1
1
1
1
1
0.9999996
0.999999
0.9999991
0.9999996
0.9999999
1
0.9999999
0.9999991
0.9999985
0.9999986
0.9999994
0.9999999
1
1
1
1
1
1
1
0.9999999
0.9999996
0.9999978
0.9999966
0.9999966
0.9999966
0.9999966
0.9999983
0.9999997
1
1
1
1
1
1
1
1
1
1
1
1
1
1
1
1
1
1
1
1
1
0.9999999
0.9999997
0.9999997
0.9999998
1
1
1
0.9999999
0.9999995
0.9999931
0.999896
0.9987828
0.9976573
0.9976573
0.9982066
0.9993283
0.9998258
0.9999738
0.9999985
1
1
1
1
1
1
1
1
1
1
1
1
1
1
1
1
1
1
1
1
1
1
1
1
1
1
1
0.9999999
0.9999999
1
1
1
1
1
1
1
1
1
1
1
1
1
1
1
1
1
1
1
1
1
1
1
1
1
1
1
1
1
1
1
1
1
1
1
1
1
1
1
1
1
1
1
1
1
1
1
1
1
1
1
1
1
1
1
1
1
1
1
1
1
1
1
1
1
1
1
1
1
1
1
1
1
1
1
1
1
1
1
1
1
1
1
1
1
1
1
1
1
1
1
1
1
1
1
1
1
1
1
1
1
1
1
1
1
1
1
1
1
1
1
1
1
1
1
1
1
1
1
1
1
1
1
1
1
1
1
1
1
1
1
1
1
1
1
1
1
1
1
1
1
1
1
1
1
1
1
1
1
1
1
1
1
1
1
1
1
1
0.9999999
0.999999
0.999994
0.9999776
0.9999505
0.999936
0.9999384
0.9999702
0.9999962
0.9999999
1
1
1
1
1
1
1
1
1
1
1
1
1
1
1
1
1
1
1
1
1
1
1
1
1
1
1
1
1
1
1
1
1
1
1
1
1
1
1
1
1
1
1
1
1
1
1
1
1
1
1
1
1
1
1
1
1
1
1
1
1
1
1
1
0.9999999
0.9999999
0.9999999
1
1
1
1
1
1
1
1
1
0.9999999
0.9999997
0.9999981
0.9999836
0.9999078
0.9997576
0.9997847
0.999909
0.9999617
0.999946
0.9998035
0.9990319
0.9970595
0.9949471
0.9909607
0.9844154
0.9842062
0.9842062
0.9842062
0.9909058
0.9983167
0.9998442
0.9999807
0.9999958
0.9999971
0.9999975
0.9999976
0.9999975
0.9999971
0.9999958
0.9999944
0.9999944
0.9999955
0.9999953
0.9999692
0.9997632
0.9988384
0.9971827
0.9971913
0.9987756
0.9998491
0.9999956
1
1
1
1
1
1
1
1
1
0.9999999
0.9999994
0.9999961
0.9999752
0.9998419
0.9991181
0.9987481
0.998867
0.9995759
0.9999509
0.9999985
0.9999995
0.9999986
0.9999942
0.9999925
0.9999962
0.9999994
1
1
1
1
1
0.9999999
0.9999994
0.9999962
0.9999773
0.9999006
0.99988
0.9999341
0.9999892
0.9999994
1
1
1
0.9999998
0.9999988
0.9999918
0.999968
0.9999673
0.9999883
0.9999989
1
1
1
0.9999999
0.9999996
0.9999996
0.9999999
1
1
1
1
1
1
1
1
1
1
1
1
1
1
1
1
1
1
1
1
1
1
1
1
1
1
1
1
1
1
1
1
1
1
0.9999999
0.9999999
0.9999999
1
1
1
1
0.9999999
0.9999992
0.9999986
0.9999989
0.9999996
1
1
1
1
1
1
1
1
1
1
1
0.9999999
0.9999994
0.9999987
0.999999
0.9999997
1
1
1
1
1
1
1
1
1
1
1
1
1
1
1
1
1
1
1
1
1
1
1
1
1
1
1
0.9999999
0.9999989
0.9999968
0.9999945
0.9999853
0.9999611
0.9997836
0.9985133
0.9974998
0.9974998
0.9976906
0.999024
0.9998416
0.9999916
0.9999999
1
1
1
1
1
1
1
1
1
1
1
1
1
1
1
0.9999999
0.9999999
0.9999999
1
1
1
1
1
1
1
1
0.9999999
1
1
1
1
1
1
1
1
1
1
1
1
1
1
1
1
1
1
1
1
1
1
1
1
1
1
1
1
1
1
1
1
1
1
1
1
1
1
1
1
1
1
1
1
1
1
1
1
1
1
1
1
1
1
1
1
1
1
1
1
1
1
1
1
1
1
1
1
1
1
1
1
1
1
1
1
1
1
1
1
1
1
1
1
1
1
1
1
1
1
1
1
1
1
1
1
1
1
1
1
1
1
1
1
1
1
1
1
1
1
1
1
1
1
1
1
1
1
1
1
1
1
1
1
1
1
1
1
1
1
1
1
1
0.9999999
0.9999999
1
1
1
1
1
1
1
1
1
1
1
1
1
1
1
1
1
1
1
1
1
1
1
1
1
0.9999997
0.999999
0.999999
0.9999994
0.9999997
0.9999997
0.9999994
0.9999963
0.9999744
0.9998523
0.9992969
0.9975325
0.9965694
0.9980792
0.9996682
0.9999871
0.9999999
1
1
0.9999999
0.9999999
0.9999999
0.9999998
0.9999998
0.9999998
0.9999998
0.9999997
0.9999994
0.9999986
0.9999987
0.9999995
1
1
1
1
1
1
1
1
1
1
1
1
1
1
1
1
1
1
1
1
1
1
1
1
1
1
1
1
1
1
1
1
1
1
1
1
1
1
1
1
1
1
1
1
1
1
1
1
1
1
1
0.9999999
0.9999999
1
1
1
0.9999999
0.9999998
0.9999998
0.9999998
0.9999999
0.9999998
0.9999996
0.9999979
0.9999808
0.9997991
0.9987619
0.99741
0.9980069
0.999426
0.9998446
0.9995714
0.9965962
0.9843955
0.9655752
0.9637877
0.9637877
0.9637877
0.968281
0.9897444
0.9987373
0.9989473
0.9989109
0.9989058
0.9989546
0.9990689
0.9992571
0.9995257
0.9997397
0.9997574
0.9997061
0.9993351
0.9973105
0.993154
0.9942765
0.9982914
0.9998695
0.9997748
0.9974804
0.9834784
0.982926
0.9932253
0.9991875
0.9999775
0.9999999
1
1
1
1
1
1
1
1
1
0.9999993
0.9999849
0.9997753
0.9978848
0.9959372
0.9978973
0.999626
0.9999805
0.999998
0.999998
0.9999978
0.9999835
0.9999436
0.9999607
0.99999
0.9999993
0.9999999
0.9999999
0.9999999
0.9999994
0.9999968
0.9999807
0.9998744
0.999158
0.9981595
0.9985553
0.9995323
0.9999436
0.9999942
0.9999992
0.9999999
0.9999999
0.9999998
0.9999991
0.9999929
0.9999446
0.9998233
0.9998625
0.9999615
0.9999965
0.9999999
1
1
0.9999999
0.9999995
0.999999
0.9999994
0.9999999
0.9999999
0.9999999
0.9999998
0.9999999
1
1
1
1
1
1
1
1
1
1
1
1
1
1
1
1
1
1
1
1
1
1
1
1
1
1
1
1
1
1
1
1
1
1
1
1
1
1
1
1
1
0.9999999
0.9999999
1
1
1
1
1
1
1
1
1
1
1
1
1
1
1
1
1
1
1
1
1
1
1
1
1
1
1
1
1
1
1
1
1
1
1
1
1
1
1
1
1
1
0.9999999
0.9999986
0.9999809
0.9999121
0.9999092
0.999956
0.9999701
0.9999388
0.9995269
0.9978019
0.9974998
0.9975639
0.9990569
0.9998891
0.9999972
1
1
1
1
1
1
1
1
1
1
1
1
1
1
1
0.9999997
0.9999997
0.9999999
1
1
1
1
1
1
1
1
1
1
1
1
1
1
1
1
1
1
1
1
1
1
1
1
1
1
1
1
1
1
1
1
1
1
1
1
1
1
0.9999999
0.9999999
0.9999999
1
1
1
1
1
1
1
1
1
1
1
1
1
1
1
1
1
1
1
1
1
1
1
1
1
1
1
1
1
1
1
1
1
1
1
1
1
1
1
1
1
1
1
1
1
1
1
1
1
1
1
1
1
1
1
1
1
1
1
1
1
1
1
1
1
1
1
1
1
1
1
1
1
1
1
1
1
1
1
1
1
1
1
1
1
1
1
1
1
1
1
1
1
1
1
1
1
1
1
1
1
1
0.9999998
0.9999975
0.9999811
0.9999024
0.9997944
0.9998133
0.9999234
0.9999886
0.9999995
0.9999999
1
1
1
1
1
1
1
1
1
1
1
1
1
1
1
1
1
0.9999999
0.9999982
0.9999832
0.9999506
0.9999302
0.9998997
0.9998497
0.9998519
0.9998763
0.9998983
0.9998757
0.9996338
0.9980985
0.9889666
0.9646566
0.9682099
0.9902741
0.9991833
0.9999822
0.9999979
0.9999973
0.9999921
0.9999771
0.9999652
0.9999655
0.9999712
0.9999774
0.9999747
0.9999388
0.9997615
0.9996395
0.9998059
0.9999681
0.9999989
1
1
1
1
1
1
1
1
1
1
0.9999999
0.9999996
0.9999989
0.999999
0.9999997
1
1
1
1
1
1
1
1
1
1
1
1
1
1
1
1
1
1
1
1
1
1
1
1
1
1
1
1
1
1
1
1
1
1
1
1
1
1
1
1
1
0.9999998
0.9999992
0.9999986
0.9999983
0.9999977
0.9999976
0.9999971
0.9999895
0.9998964
0.9988496
0.992803
0.9845202
0.9902252
0.997797
0.9996042
0.9987962
0.9901593
0.931994
0.7828933
0.8563689
0.9664412
0.9966904
0.9970416
0.9920726
0.9901219
0.9915575
0.9941529
0.9935176
0.9897183
0.9808654
0.9783332
0.9816759
0.9915933
0.9971251
0.9950261
0.9528161
0.8512997
0.8925959
0.9721209
0.9980053
0.9998918
0.9998067
0.9980879
0.9848569
0.9805755
0.9805755
0.9919434
0.9990343
0.9999778
0.9999999
1
1
1
1
1
1
1
1
0.9999998
0.9999954
0.9998668
0.9971141
0.9919003
0.9944699
0.9987111
0.9999253
0.9999979
0.999998
0.999998
0.9999953
0.9999541
0.9999342
0.9999458
0.9999847
0.9999984
0.9999987
0.9999979
0.9999916
0.9999301
0.9988799
0.9892188
0.9861758
0.9910843
0.9981303
0.9998005
0.99997
0.9999974
0.9999995
0.9999995
0.9999995
0.9999987
0.9999924
0.9999391
0.9995912
0.9993531
0.9996072
0.999917
0.9999943
0.9999999
1
0.9999999
0.9999996
0.9999984
0.9999968
0.9999973
0.9999992
0.9999999
0.9999996
0.999999
0.9999991
0.9999997
1
1
1
1
1
1
1
1
1
1
1
1
1
1
1
1
1
1
1
1
1
1
1
1
1
1
1
1
1
1
1
1
1
1
1
1
1
1
1
1
1
1
1
1
1
1
1
1
1
1
1
1
1
1
1
1
1
1
1
1
1
1
1
1
1
1
1
1
1
1
1
1
1
1
1
1
1
1
1
1
1
1
1
1
1
1
0.999999
0.9999785
0.9998351
0.999798
0.999847
0.9999647
0.9999902
0.9999583
0.9996739
0.9989389
0.9990488
0.9996007
0.9999463
0.9999981
1
1
1
1
1
1
1
1
1
1
1
1
1
1
1
0.9999997
0.9999996
0.9999997
0.9999999
1
1
1
1
1
1
1
1
1
1
1
1
1
1
1
1
1
1
1
1
1
1
1
1
1
1
1
1
1
1
1
1
1
1
1
1
1
1
1
1
0.9999999
0.9999999
0.9999999
1
1
1
1
1
1
1
1
1
1
1
1
1
1
1
1
1
1
1
1
1
1
1
1
1
1
1
1
1
1
1
1
1
1
1
1
1
1
1
1
1
1
1
1
1
1
1
1
1
1
1
1
1
1
1
1
1
1
1
1
1
1
1
1
1
1
1
1
1
1
1
1
1
1
1
1
1
1
1
1
1
1
1
1
1
1
1
1
1
1
1
1
1
1
0.9999999
0.9999999
0.9999995
0.9999983
0.9999886
0.9998525
0.9985882
0.9931591
0.9818893
0.9817747
0.9887011
0.9970546
0.9996366
0.9999203
0.9999516
0.9999648
0.9999757
0.9999857
0.9999944
0.9999991
1
1
1
1
1
1
1
1
1
1
0.9999999
0.9999989
0.9999618
0.9994512
0.9977171
0.9967518
0.9984738
0.9988311
0.9972154
0.9931116
0.9926535
0.9932156
0.9928431
0.9811518
0.8753599
0.7349529
0.837949
0.971052
0.9987351
0.9999359
0.9999339
0.9999089
0.999885
0.9998402
0.9993534
0.9981144
0.9982721
0.9986485
0.9982505
0.9945795
0.9928754
0.9963007
0.999441
0.9999688
0.9999986
1
1
1
1
1
0.9999999
0.9999999
0.9999999
0.9999999
0.9999994
0.9999962
0.9999831
0.9999826
0.9999933
0.9999992
0.9999999
0.9999999
0.9999999
0.9999998
0.9999993
0.9999976
0.9999924
0.9999907
0.9999944
0.9999987
0.9999998
0.9999998
0.9999998
0.9999997
0.9999996
0.9999996
0.9999996
0.9999996
0.9999994
0.999998
0.9999935
0.9999926
0.9999963
0.9999994
1
1
1
1
1
1
1
1
1
1
1
1
1
1
1
0.9999999
0.9999997
0.9999996
0.999999
0.9999965
0.9999861
0.9999522
0.9999189
0.9999295
0.9999222
0.9996458
0.9956039
0.9709369
0.9448867
0.9706099
0.9943266
0.999177
0.997916
0.9803994
0.8155966
0.705819
0.7280604
0.9077452
0.9918787
0.9975362
0.9949734
0.9520874
0.9063295
0.9341221
0.9824149
0.9755974
0.8234638
0.7797785
0.7797785
0.8709293
0.9629689
0.9291431
0.7919868
0.7794728
0.7794728
0.8182603
0.9538625
0.9973964
0.9999079
0.9997268
0.9953082
0.9807705
0.9828776
0.9929761
0.9988369
0.9999353
0.9999992
1
1
1
1
1
1
1
0.9999999
0.9999996
0.9999983
0.9999912
0.9998468
0.9970622
0.9919055
0.9920822
0.9966877
0.9995646
0.9999879
0.999998
0.999998
0.9999977
0.9999962
0.9999963
0.9999967
0.9999931
0.9999612
0.9998082
0.9989884
0.994128
0.9844961
0.9847717
0.9924518
0.9958589
0.9978844
0.9994821
0.9999294
0.9999858
0.9999942
0.9999952
0.9999944
0.9999867
0.9999257
0.9994286
0.9978561
0.9980344
0.9993113
0.9998996
0.9999949
0.9999999
1
1
0.9999996
0.9999929
0.9999742
0.9999829
0.999996
0.9999995
0.9999988
0.9999961
0.9999968
0.9999991
0.9999999
1
1
1
1
1
1
1
1
1
1
1
1
1
1
1
1
1
1
1
1
1
1
1
1
1
1
1
1
1
1
1
1
1
1
1
1
1
1
1
1
1
1
1
1
1
1
1
1
1
1
1
1
1
1
1
1
1
1
1
1
1
1
1
1
1
1
1
1
1
1
1
1
1
1
1
1
1
1
1
1
1
1
1
1
1
1
0.9999999
0.9999979
0.9999719
0.9998371
0.9998548
0.9999517
0.9999942
0.9999972
0.9999956
0.9999879
0.9999582
0.999908
0.9999267
0.9999796
0.9999983
1
1
1
1
1
1
1
1
1
1
1
1
1
1
1
1
1
1
1
1
1
0.9999999
0.9999995
0.9999995
0.9999995
0.9999998
1
1
1
1
1
1
1
0.9999999
0.9999999
0.9999999
1
1
1
1
1
1
1
1
1
1
1
1
1
1
1
1
1
1
1
1
1
1
0.9999998
0.9999995
0.9999994
0.9999996
0.9999999
1
1
1
1
0.9999999
1
1
1
0.9999999
1
1
0.9999999
0.9999999
1
0.9999999
1
1
0.9999999
1
1
1
1
1
1
1
1
1
1
1
1
1
1
1
1
1
1
1
1
1
1
1
1
1
1
1
1
1
1
1
1
1
1
1
1
1
1
1
1
1
1
1
1
1
1
1
1
1
1
1
1
1
1
1
1
1
1
1
1
1
1
1
1
1
1
1
1
1
1
1
1
1
1
1
1
1
1
1
1
0.9999999
0.9999998
0.9999996
0.9999996
0.9999995
0.9999992
0.9999985
0.999997
0.9999952
0.9999927
0.9999847
0.9999616
0.9999202
0.9997978
0.9991484
0.9975288
0.9847212
0.9272876
0.7974687
0.7822368
0.8943812
0.9801214
0.9965452
0.9956847
0.9956733
0.9967087
0.9969282
0.9958223
0.9964922
0.9990491
0.9999431
0.9999995
1
0.9999999
0.9999998
0.9999994
0.9999993
0.9999993
0.9999991
0.9999985
0.9999984
0.9999955
0.9998859
0.9979947
0.9798848
0.9650879
0.9783132
0.9959439
0.9971379
0.9845443
0.9017041
0.8768492
0.8931792
0.7389819
0.2660722
0.1792488
0.3705002
0.8633165
0.9937112
0.999433
0.9989541
0.9964954
0.987908
0.9779462
0.9863767
0.9972872
0.9963744
0.9817793
0.91044
0.8862389
0.9500408
0.9934255
0.9995385
0.9999709
0.9999994
0.9999996
0.9999992
0.9999962
0.999995
0.9999971
0.9999995
0.9999998
0.9999997
0.9999989
0.9999906
0.9999368
0.9999172
0.9999417
0.9999869
0.9999987
0.9999987
0.9999968
0.9999824
0.9998864
0.9993789
0.9989502
0.9993096
0.9998308
0.9999881
0.9999947
0.9999912
0.999967
0.9999619
0.9999763
0.9999922
0.9999925
0.9999866
0.9999332
0.9996649
0.9995747
0.9997328
0.9999475
0.9999966
0.9999989
0.9999989
0.9999986
0.9999991
0.9999998
1
1
1
1
1
1
1
1
1
1
1
0.9999995
0.9999949
0.9999906
0.999996
0.9999959
0.9999742
0.9996444
0.9989307
0.9990799
0.9994443
0.9990443
0.9937499
0.9356094
0.8468703
0.9249028
0.9885369
0.9987181
0.9966293
0.9697003
0.7761747
0.705819
0.7140903
0.8753749
0.9824448
0.9976372
0.99752
0.9941493
0.9017554
0.7434764
0.7434764
0.7733758
0.9366379
0.9893368
0.9897923
0.982944
0.8653911
0.7794728
0.7794728
0.7794728
0.7962938
0.9153496
0.981945
0.9976715
0.9998738
0.9999079
0.9994449
0.995629
0.9932981
0.9954342
0.9987375
0.9999092
0.9999989
1
1
1
1
1
0.9999999
0.9999991
0.9999917
0.9998598
0.9975958
0.9947226
0.9953773
0.9983335
0.9997355
0.9997767
0.9997668
0.9997855
0.9998858
0.9999641
0.9999758
0.9999764
0.999977
0.9999795
0.9999879
0.9999949
0.9999814
0.9996867
0.9933928
0.9460983
0.9451999
0.9784646
0.9969597
0.9993972
0.9993706
0.9990026
0.9981398
0.9962632
0.9967614
0.9990339
0.9998444
0.9997937
0.9992302
0.9955747
0.9921029
0.9953413
0.9989308
0.9999085
0.9999969
0.9999994
0.9999994
0.9999996
0.9999995
0.9999952
0.9999728
0.9999701
0.9999799
0.9999957
0.9999955
0.9999906
0.9999925
0.9999973
0.9999997
1
1
1
1
1
1
1
1
1
1
1
1
1
1
1
1
1
1
1
1
1
1
1
1
1
1
1
1
1
1
1
1
1
1
1
1
1
1
1
1
1
1
1
1
1
1
1
1
1
1
1
1
1
1
1
1
1
1
1
1
1
1
1
1
1
1
1
1
1
1
1
1
1
1
1
1
1
1
1
1
1
1
1
1
1
1
1
1
0.9999999
0.9999994
0.9999975
0.9999895
0.9999792
0.9999865
0.9999969
0.9999996
0.9999996
0.9999992
0.9999962
0.9999824
0.9999806
0.9999918
0.999999
1
1
1
1
1
1
1
1
1
1
1
1
1
1
1
1
1
1
1
1
1
1
0.9999999
0.9999995
0.9999995
0.9999995
0.9999996
0.9999999
1
1
1
0.9999999
0.9999997
0.9999995
0.9999996
0.9999999
1
1
1
1
1
1
1
1
1
1
1
1
1
1
1
1
1
1
1
1
1
0.9999997
0.9999974
0.9999967
0.9999983
0.9999997
1
1
1
1
1
1
1
1
1
1
0.9999999
1
1
1
1
0.9999996
0.9999995
1
0.9999999
1
1
1
1
1
0.9999999
1
1
1
0.9999999
0.9999999
1
1
1
1
1
1
1
1
1
1
1
1
1
1
1
1
1
1
1
1
1
1
1
1
1
1
1
1
1
1
1
1
1
1
1
1
1
1
1
1
1
1
1
1
1
1
1
1
1
1
1
1
1
1
1
1
1
1
1
1
1
1
1
1
1
1
1
1
1
1
1
1
1
1
0.9999998
0.9999991
0.9999973
0.9999938
0.9999894
0.9999825
0.9999635
0.9999064
0.9998255
0.999795
0.9997966
0.9997858
0.9997113
0.9995396
0.9993438
0.9992072
0.9990568
0.9984963
0.9963475
0.992283
0.9860335
0.9500518
0.8963173
0.7319358
0.4367722
0.434634
0.6428804
0.9385043
0.9897942
0.9856774
0.9592075
0.8620899
0.8397965
0.8901752
0.9720986
0.9979917
0.999905
0.9999953
0.999997
0.9999924
0.9999603
0.9999014
0.9999237
0.9999812
0.9999972
0.9999841
0.9999698
0.999971
0.9998658
0.9969938
0.9728536
0.882085
0.9051047
0.971367
0.9936639
0.988616
0.9225848
0.5206073
0.1111036
0.07521203
0.07560622
0.09855411
0.4397757
0.8910645
0.9901172
0.9920809
0.9839789
0.782516
0.5605617
0.7049249
0.9416061
0.996148
0.9963056
0.9567405
0.632219
0.5883098
0.815659
0.9774456
0.9991794
0.9999929
0.9999979
0.9999963
0.999982
0.9999705
0.9999802
0.9999955
0.9999983
0.9999981
0.9999946
0.9999609
0.9998128
0.9997947
0.9998979
0.9999826
0.9999943
0.999994
0.9999875
0.9999143
0.9990458
0.993216
0.9904463
0.9933739
0.9985369
0.9998568
0.9998661
0.9996893
0.9996822
0.9998498
0.9999708
0.9999745
0.9999744
0.9999393
0.9995093
0.9978153
0.9977093
0.9989592
0.9998297
0.9999642
0.9999635
0.9999471
0.9999566
0.9999835
0.9999975
0.9999998
1
1
0.9999999
0.9999998
0.9999997
0.9999998
1
1
1
1
0.9999998
0.9999981
0.9999792
0.9999431
0.9999644
0.9999945
0.9999941
0.9999456
0.9986286
0.9944337
0.9963058
0.9979484
0.9933723
0.9090973
0.8202589
0.8282877
0.9393897
0.9940324
0.9962819
0.9819315
0.8070258
0.7363056
0.8412941
0.9666425
0.9973848
0.9989703
0.9981355
0.9756205
0.9411583
0.956532
0.9887339
0.9946725
0.9953692
0.9973417
0.9983911
0.9984083
0.9940699
0.948527
0.8593671
0.8778698
0.9390163
0.982064
0.9977324
0.9998998
0.9999862
0.9999812
0.9998508
0.9992777
0.999184
0.9994118
0.9997652
0.9999634
0.9999985
0.9999998
0.9999996
0.999999
0.9999992
0.9999998
0.9999998
0.9999984
0.9999646
0.9993009
0.9959369
0.9961407
0.9986602
0.9998045
0.9999131
0.9999131
0.9999131
0.9999131
0.9999131
0.9998094
0.9979207
0.9936412
0.9919997
0.9924461
0.9943076
0.997611
0.9997131
0.9999596
0.9996157
0.9892915
0.9349714
0.9298513
0.9432671
0.9855696
0.9988361
0.9971945
0.9769015
0.9629682
0.9814043
0.9969975
0.9992331
0.9978227
0.9880239
0.9651717
0.9686696
0.9901812
0.9988763
0.9999502
0.9999954
0.9999959
0.9999889
0.999976
0.9999821
0.9999948
0.9999963
0.9999934
0.999994
0.9999895
0.9999777
0.9999778
0.9999895
0.9999974
0.9999997
1
1
1
1
1
1
1
1
1
1
1
1
1
1
1
1
1
1
1
1
1
1
1
1
1
1
1
1
1
1
1
1
1
1
1
1
1
1
1
1
1
1
1
1
1
1
1
1
1
1
1
1
1
1
1
1
1
1
1
1
1
1
1
1
1
1
1
1
1
1
1
1
1
1
1
1
1
1
1
1
1
1
1
1
1
1
1
1
1
1
1
1
1
0.9999998
0.9999993
0.9999987
0.9999992
0.9999999
0.9999999
0.9999999
0.9999989
0.9999935
0.9999928
0.9999973
0.9999997
1
1
1
1
1
1
1
1
1
1
1
1
1
1
1
1
1
1
0.9999997
0.9999995
0.9999995
0.9999998
1
1
1
1
1
1
1
0.9999998
0.9999989
0.9999974
0.9999976
0.9999991
0.9999999
1
1
1
1
1
1
1
1
1
1
1
1
1
1
1
1
1
1
1
1
1
0.9999995
0.9999961
0.9999949
0.9999952
0.9999978
0.9999994
0.9999999
1
1
0.9999999
1
1
1
0.9999998
1
1
1
1
0.9999998
1
1
0.9999998
1
1
1
1
1
1
1
1
1
0.9999998
0.9999997
0.9999999
1
1
1
1
1
1
1
1
1
1
0.9999999
0.9999999
1
1
1
0.9999999
1
1
1
1
1
1
1
1
1
1
1
1
1
1
1
1
1
1
1
1
1
1
1
1
1
1
1
1
1
1
1
1
1
1
1
1
1
1
1
1
1
1
1
1
1
1
1
1
1
1
1
1
1
0.9999999
0.9999999
1
1
1
1
1
1
1
1
1
1
1
1
0.9999999
0.9999998
0.9999988
0.9999944
0.9999745
0.9998967
0.9996501
0.9990311
0.9981158
0.9974244
0.9966872
0.9945194
0.9883224
0.9837922
0.9847055
0.9867096
0.9861292
0.9817069
0.9775788
0.9770462
0.9751062
0.9725348
0.970519
0.9354104
0.8360374
0.7860625
0.6395212
0.3191225
0.3113859
0.4059089
0.7702443
0.968634
0.9839389
0.9811237
0.8189442
0.2979594
0.1141534
0.1617983
0.596474
0.9449816
0.9981292
0.9999502
0.9999475
0.9997587
0.998988
0.9990542
0.9996312
0.9999162
0.9999852
0.9999831
0.999902
0.9996865
0.9994988
0.9973233
0.9778957
0.8760504
0.8599194
0.9279206
0.932706
0.8996641
0.8287487
0.4065956
0.07273557
0.06074844
0.06957162
0.4821477
0.9005908
0.917521
0.838085
0.4278378
0.1342592
0.1259882
0.3658772
0.8361432
0.9704817
0.9837273
0.9816667
0.8950962
0.5881585
0.570242
0.7745158
0.9550046
0.9974572
0.9999648
0.9999852
0.9999145
0.9998175
0.999883
0.9999719
0.9999929
0.9999921
0.9999825
0.9999218
0.9995995
0.9992851
0.9995753
0.9998982
0.9999856
0.9999919
0.9999896
0.9999462
0.9992797
0.9907975
0.9791524
0.9824954
0.9936419
0.9988218
0.9986475
0.998079
0.9987086
0.9996959
0.9999404
0.9999684
0.9999745
0.9999745
0.9998161
0.9973953
0.9955009
0.9963175
0.9984876
0.9994531
0.9994237
0.9993807
0.999579
0.9998965
0.9999881
0.9999987
0.9999994
0.9999995
0.9999989
0.9999973
0.9999978
0.9999992
0.9999999
1
1
1
0.9999999
0.9999988
0.9999833
0.9998825
0.9998532
0.9999093
0.9999836
0.9999959
0.999991
0.9999357
0.9993554
0.9921345
0.9850136
0.9862249
0.9700325
0.8391208
0.8202589
0.8353128
0.9489458
0.9953832
0.9792139
0.9255769
0.9462196
0.9789374
0.9962026
0.9978134
0.9983456
0.9986287
0.9968929
0.9784438
0.8654756
0.7130696
0.762302
0.8948991
0.9500883
0.9382898
0.9000689
0.9220007
0.9783634
0.9950004
0.9944678
0.9955987
0.998324
0.9997912
0.9999931
0.9999985
0.9999956
0.9999674
0.9999265
0.9999316
0.999967
0.9999929
0.999999
0.9999992
0.9999981
0.9999922
0.9999888
0.9999944
0.9999992
0.9999999
0.9999993
0.9999841
0.9998142
0.9987277
0.9943507
0.9920046
0.9954769
0.9991554
0.9999131
0.9997835
0.9986869
0.9970477
0.9970637
0.998259
0.9974871
0.9477436
0.8171934
0.8231861
0.9287668
0.9906338
0.9997301
0.9999574
0.9998359
0.9972626
0.9672626
0.9376944
0.967076
0.9956109
0.9937708
0.9582031
0.9401489
0.9499805
0.9851784
0.9984792
0.9967214
0.9603783
0.8440496
0.8854794
0.9689562
0.9971215
0.9999372
0.9999906
0.9999854
0.999946
0.9998919
0.999936
0.9999867
0.999999
0.9999995
0.9999992
0.9999953
0.9999715
0.9999724
0.999989
0.9999977
0.9999998
1
1
1
1
1
1
1
1
1
1
1
1
1
1
1
1
1
1
1
1
1
1
1
1
1
1
1
1
1
1
1
1
1
1
1
1
1
1
1
1
1
1
1
1
1
1
1
1
1
1
1
1
1
1
1
1
1
1
1
1
1
1
1
1
1
1
1
1
1
1
1
1
1
1
1
1
1
1
1
1
1
1
1
1
1
1
1
1
1
1
1
1
1
1
1
1
1
0.9999999
0.9999999
0.9999999
0.9999999
0.9999999
0.9999991
0.9999969
0.999998
0.9999992
0.9999998
0.9999999
0.9999998
0.9999994
0.999999
0.999999
0.9999991
0.9999993
0.9999995
0.9999998
0.9999999
1
1
1
1
1
1
1
0.9999996
0.9999996
0.9999998
1
1
1
1
1
1
1
0.9999997
0.9999966
0.999985
0.9999861
0.9999949
0.9999995
1
1
1
0.9999998
0.9999994
0.9999991
0.9999992
0.9999994
0.9999998
1
1
1
1
1
1
1
1
1
0.9999999
0.9999998
0.9999999
0.9999999
0.9999999
0.9999998
0.9999978
0.9999947
0.9999947
0.9999947
0.9999976
0.9999997
1
1
1
0.9999999
1
0.9999999
1
1
1
0.9999998
1
1
0.9999998
0.9999999
1
1
1
1
1
1
1
1
1
1
1
1
1
1
1
1
1
1
1
1
1
0.9999999
1
1
1
1
1
1
1
1
1
1
1
1
1
1
1
0.9999999
0.9999999
1
1
1
1
1
1
1
1
1
1
1
1
1
1
1
1
1
1
1
1
1
1
1
1
1
1
1
1
1
1
1
1
1
1
1
1
1
1
1
1
1
1
1
1
1
1
1
1
1
1
1
1
1
1
0.9999999
0.9999999
0.9999999
1
1
1
1
1
1
1
1
0.9999999
0.999999
0.9999922
0.9999606
0.9998611
0.9995621
0.9986767
0.9962242
0.9900905
0.9760406
0.947913
0.9190396
0.9096707
0.8998742
0.8586448
0.7673437
0.7507969
0.7858551
0.8227463
0.8010639
0.765423
0.7931499
0.8161248
0.7536344
0.713209
0.8357476
0.7543878
0.3126844
0.2431348
0.4861645
0.8464195
0.9462769
0.9677574
0.9562352
0.9162414
0.8615511
0.8360235
0.6859445
0.1874177
0.07227574
0.07227574
0.1400286
0.6456896
0.9602562
0.997904
0.9983212
0.9961771
0.9965176
0.9985033
0.9976519
0.9982904
0.9994619
0.9998928
0.999376
0.9911964
0.9866599
0.9830303
0.9261835
0.9520055
0.9810684
0.9474672
0.6862706
0.343786
0.2299437
0.1219707
0.06074844
0.06071508
0.06068144
0.1112292
0.2014069
0.1874749
0.1059013
0.06102846
0.06061353
0.08632829
0.4948232
0.8054181
0.780145
0.5930987
0.3043481
0.2771397
0.6185613
0.9073506
0.9854938
0.9988795
0.9999401
0.9998728
0.9994944
0.9994952
0.9997918
0.9999671
0.9999915
0.9999896
0.9999161
0.9988876
0.9964658
0.9974476
0.9988973
0.9994654
0.9995885
0.9996638
0.9997222
0.9995717
0.9961871
0.9758581
0.970355
0.981648
0.9958252
0.9993222
0.9993498
0.9992029
0.9991154
0.9992612
0.9993184
0.9984476
0.9975217
0.9978392
0.9992483
0.9996985
0.9994366
0.9989094
0.9967243
0.98939
0.9905058
0.996695
0.9995625
0.9999639
0.9999941
0.9999972
0.9999971
0.9999915
0.9999846
0.9999884
0.9999965
0.9999995
0.9999999
1
1
0.9999999
0.9999993
0.9999863
0.9998105
0.9997042
0.9997907
0.9999491
0.9999949
0.9999948
0.9999594
0.9997601
0.9996927
0.9996732
0.9974789
0.9404594
0.8905266
0.9218245
0.9679046
0.9291894
0.880538
0.9348662
0.9873727
0.9992413
0.9999449
0.9999501
0.9999501
0.9998837
0.995733
0.9727212
0.9762791
0.9777168
0.9010035
0.5011178
0.4513784
0.4553188
0.4521584
0.4513784
0.4513784
0.6263951
0.936076
0.9977171
0.999966
0.9999701
0.9999699
0.9999739
0.9999851
0.9999966
0.9999995
0.9999988
0.9999975
0.9999981
0.9999993
0.9999999
0.9999999
0.9999997
0.9999953
0.9999593
0.9999559
0.9999815
0.9999972
0.9999989
0.9999979
0.999989
0.9998934
0.9983334
0.9823847
0.972944
0.9806684
0.9954464
0.9996413
0.9997547
0.999636
0.9963733
0.9183913
0.8403605
0.8448734
0.9385429
0.9866784
0.9801232
0.9672128
0.9707864
0.9886729
0.9987628
0.9999547
0.9998903
0.9985305
0.9909115
0.9883139
0.9936612
0.9984482
0.9951578
0.9606036
0.9558389
0.9803574
0.9974375
0.9952442
0.9391029
0.8410034
0.8409358
0.8992952
0.9819328
0.9992509
0.9999694
0.9998571
0.9994172
0.9994454
0.9997796
0.9999723
0.9999988
0.9999995
0.999999
0.9999903
0.9999392
0.99994
0.9999796
0.9999978
0.9999999
1
1
1
0.9999999
0.9999994
0.9999977
0.9999973
0.9999987
0.9999998
1
1
1
1
1
1
1
1
1
1
1
1
1
1
1
1
1
1
1
1
1
1
1
1
1
1
1
1
1
1
1
1
1
1
1
1
1
1
1
1
1
1
1
1
1
1
1
1
1
1
1
1
1
1
1
1
1
1
1
1
1
1
1
1
1
1
1
1
1
1
1
1
1
1
1
1
1
1
1
1
1
1
1
1
1
1
1
1
1
0.9999999
0.9999998
0.9999998
0.9999999
0.9999999
0.9999999
0.9999994
0.9999947
0.9999932
0.9999955
0.9999989
0.9999995
0.9999975
0.9999838
0.9999518
0.9999405
0.9999501
0.9999743
0.9999947
0.9999997
1
1
1
1
1
1
1
1
1
0.9999999
0.9999997
0.9999998
0.9999999
1
1
1
0.9999999
0.9999986
0.9999823
0.9999725