/*--------------------------------*- C++ -*----------------------------------*\
| =========                 |                                                 |
| \\      /  F ield         | foam-extend: Open Source CFD                    |
|  \\    /   O peration     | Version:     3.1                                |
|   \\  /    A nd           | Web:         http://www.extend-project.de       |
|    \\/     M anipulation  |                                                 |
\*---------------------------------------------------------------------------*/
FoamFile
{
    version     2.0;
    format      ascii;
    class       volScalarField;
    location    "13.5";
    object      p;
}
// * * * * * * * * * * * * * * * * * * * * * * * * * * * * * * * * * * * * * //

dimensions      [1 -1 -2 0 0 0 0];

internalField   nonuniform List<scalar> 
119952
(
6307.643
5861.105
5815.964
5920.826
6033.226
6008.965
6028.593
6049.505
6075.06
6103.587
6134.226
6166.305
6199.179
6232.196
6264.828
6296.372
6325.667
6351.969
6370.847
6361.571
6523.334
6465.709
6459.294
6652.422
6644.821
6684.327
6704.898
6759.168
6894.435
7203.078
5198.177
5243.439
5292.047
5332.233
5359.955
5375.738
5375.723
5360.358
5327.947
5283.867
5184.358
5109.873
5020.703
4925.282
4832.488
4745.908
4670.41
4609.618
4562.465
4518.671
4501.357
4493.539
4511.35
4543.352
4584.619
4639.458
4701.784
4772.254
4850.771
4916.99
4995.901
5077.417
5150.912
5216.738
5276.164
5332.184
5390.99
5468.994
5575.738
5565.357
5587.662
5653.254
5701.78
5727.986
5748.171
5773.95
5802.04
5831.952
5863.788
5896.984
5930.83
5964.902
5998.458
6031.064
6061.976
6090.477
6116.741
6143.133
6179.353
6211.979
6232.653
6293.927
6366.003
6391.699
6411.806
6428.144
6410.213
6319.367
6312.846
6339.428
6355.304
6370.626
6384.429
6397.152
6409.487
6421.706
6434.037
6446.669
6459.738
6473.324
6487.454
6502.121
6517.277
6532.828
6548.669
6564.691
6580.794
6596.839
6612.707
6628.271
6643.401
6657.948
6671.757
6684.694
6696.57
6707.194
6716.395
6723.998
6729.827
6733.716
6735.521
6735.121
6732.423
6727.369
6719.941
6710.157
6698.05
6683.654
6666.991
6648.075
6626.946
6603.762
6578.861
6552.792
6526.281
6500.249
6477.276
6455.937
6437.471
6418.437
6401.526
6387.958
6377.513
6370.225
6366.134
6365.36
6367.473
6372.217
6379.55
6389.263
6401.231
6415.195
6430.629
6446.194
6458.623
6462.102
6458.666
6460.951
6473.87
6492.27
6511.234
6528.094
6542.703
6555.577
6567.108
6578.348
6589.942
6601.994
6614.33
6626.671
6638.796
6650.43
6661.27
6671.277
6680.377
6688.401
6695.444
6701.497
6706.59
6710.797
6714.21
6716.967
6719.224
6720.986
6722.364
6723.469
6725.733
6764.333
6768.724
6773.602
6778.74
6787.201
6794.483
6805.963
6817.848
6832.75
6849.845
6868.211
6882.634
6880.72
6874.404
6882.353
6903.091
6926.694
6946.221
6960.155
6970.367
6978.939
6986.821
6994.931
7004.41
7014.291
7021.164
7011.74
7015.568
7028.433
7040.391
7050.74
7059.078
7065.92
7071.525
7075.456
7078.256
7085.351
7089.647
7091.316
7091.368
7091.318
7092.373
7094.336
7096.746
7099.05
7100.877
7102.109
7102.674
7102.533
7101.714
7100.233
7098.184
7095.629
7092.647
7089.306
7085.657
7081.754
7077.618
7073.264
7068.693
7063.928
7058.951
7053.772
7048.406
7042.874
7037.209
7031.455
7025.665
7019.893
7014.298
6982.125
6973.514
6967.944
6963.371
6959.512
6956.395
6953.982
6952.338
6951.489
6951.424
6952.123
6953.548
6955.641
6958.324
6961.505
6965.076
6968.927
6972.939
6977.001
6981.002
6984.844
6988.438
6991.711
6994.602
6997.07
6999.084
7000.633
7001.714
7002.339
7002.528
7002.309
7001.718
7000.797
6999.589
6998.143
6996.51
6994.74
6992.881
6990.98
6989.083
6987.233
6985.472
6983.842
6982.393
6981.16
6980.009
6978.676
6977.434
6976.458
6975.683
6975.1
6974.709
6974.583
6974.585
6973.425
6973.428
6973.618
6973.485
6973.304
6973.048
6972.673
6972.143
6971.436
6970.55
6969.496
6968.273
6966.871
6965.285
6963.508
6961.537
6959.371
6957.008
6954.452
6951.71
6948.796
6945.73
6942.529
6939.212
6935.796
6932.299
6928.737
6925.133
6921.489
6917.825
6914.151
6910.479
6906.818
6903.174
6899.557
6895.971
6892.423
6888.919
6885.466
6882.063
6878.715
6875.426
6872.199
6869.035
6865.937
6862.908
6859.947
6857.057
6854.235
6851.483
6848.801
6846.192
6843.654
6841.186
6838.789
6836.459
6834.196
6831.998
6829.862
6827.786
6825.767
6823.801
6821.885
6820.015
6818.184
6816.389
6814.622
6812.876
6811.142
6809.41
6807.668
6805.899
6804.086
6802.206
6800.228
6798.113
6795.805
6793.225
6790.262
6786.732
6782.329
6776.755
6771.17
6773.944
6802.044
5319.147
5232.034
5130.493
5045.629
4972.253
4909.592
4856.145
4809.632
4768.386
4704.547
4660.876
4623.471
4576.24
4527.29
4473.146
4414.572
4352.44
4289.487
4177.114
4139.864
4082.826
4033.818
4007.102
3996.906
4004.978
4032.431
4078.253
4141.522
4208.99
4284.978
4376.342
4467.191
4557.09
4644.941
4728.814
4807.429
4879.837
4947.653
4990.938
5033.149
5067.092
5087.471
5093.182
5083.431
5057.11
5014.41
4956.155
4880.554
4792.304
4699.858
4603.715
4510.767
4426.382
4354.644
4298.707
4261.424
4156.172
4152.607
4164.432
4189.258
4225.449
4272.75
4330.042
4395.837
4466.538
4542.1
4619.49
4696.025
4771.882
4845.728
4916.377
4983.859
5049.565
5114.499
5177.521
5233.996
5276.224
5309.73
5346.981
5384.16
5416.217
5444.041
5471.197
5500.085
5531.297
5564.338
5598.502
5633.232
5667.983
5702.313
5735.666
5767.874
5798.677
5828.526
5858.852
5890.774
5924.196
5958.682
5995.722
6033.515
6061.036
6075.74
6078.312
6068.725
6051.176
6040.496
6046.292
6060.387
6072.848
6084.039
6095.471
6107.305
6119.424
6131.903
6144.881
6158.423
6172.524
6187.154
6202.269
6217.802
6233.658
6249.729
6265.902
6282.064
6298.09
6313.854
6329.217
6344.03
6358.158
6371.403
6383.658
6394.723
6404.406
6412.536
6418.936
6423.434
6425.868
6426.108
6424.055
6419.648
6412.841
6403.654
6392.146
6378.379
6362.333
6344.007
6323.393
6300.526
6275.682
6249.443
6222.657
6196.314
6171.386
6148.484
6127.859
6108.742
6091.289
6076.285
6064.464
6056.193
6051.176
6049.837
6051.173
6055.111
6061.431
6069.892
6080.204
6091.981
6104.958
6118.813
6132.398
6144.622
6154.705
6162.004
6169.953
6181.637
6196.109
6211.705
6226.976
6241.34
6254.776
6267.45
6279.763
6292.149
6304.395
6316.53
6328.401
6339.816
6350.651
6360.722
6369.912
6378.16
6385.443
6391.707
6397.023
6401.366
6404.8
6407.59
6409.745
6411.56
6413.172
6414.918
6417.042
6419.795
6486.063
6490.639
6495.323
6501.219
6508.652
6517.311
6527.55
6539.489
6552.864
6566.95
6580.742
6591.932
6597.982
6603.54
6615.223
6633.157
6652.978
6671.139
6685.906
6697.274
6706.173
6713.96
6721.69
6729.263
6736.387
6740.427
6741.341
6747.992
6758.159
6768.424
6777.783
6785.875
6792.821
6798.835
6804.096
6809.043
6814.059
6817.703
6818.562
6817.73
6817.05
6817.627
6819.358
6821.724
6824.008
6825.8
6827.076
6827.7
6827.565
6826.689
6825.183
6823.075
6820.452
6817.408
6814.021
6810.354
6806.455
6802.344
6798.031
6793.519
6788.802
6783.877
6778.745
6773.415
6767.905
6762.246
6756.48
6750.662
6744.868
6739.314
6671.969
6666.499
6660.966
6656.299
6652.451
6649.26
6646.768
6645.021
6644.065
6643.913
6644.541
6645.913
6647.972
6650.642
6653.828
6657.423
6661.313
6665.38
6669.506
6673.58
6677.5
6681.173
6684.522
6687.483
6690.011
6692.074
6693.658
6694.76
6695.39
6695.569
6695.324
6694.692
6693.714
6692.436
6690.907
6689.179
6687.304
6685.331
6683.308
6681.282
6679.296
6677.388
6675.59
6673.921
6672.38
6670.935
6669.553
6668.288
6667.21
6666.332
6665.645
6665.136
6664.785
6664.548
6664.356
6664.022
6663.734
6663.504
6663.268
6662.978
6662.597
6662.084
6661.38
6660.508
6659.499
6658.334
6656.996
6655.476
6653.778
6651.896
6649.825
6647.565
6645.12
6642.5
6639.717
6636.785
6633.722
6630.544
6627.266
6623.905
6620.475
6616.99
6613.463
6609.906
6606.33
6602.747
6599.164
6595.59
6592.032
6588.5
6584.998
6581.533
6578.109
6574.731
6571.404
6568.132
6564.917
6561.762
6558.676
6555.65
6552.696
6549.816
6546.99
6544.239
6541.56
6538.953
6536.417
6533.951
6531.555
6529.226
6526.965
6524.767
6522.632
6520.556
6518.537
6516.571
6514.656
6512.785
6510.956
6509.162
6507.397
6505.654
6503.924
6502.199
6500.466
6498.711
6496.919
6495.068
6493.138
6491.092
6488.903
6486.518
6483.926
6481.128
6478.362
6476.145
6475.573
6477.438
6482.083
3365.137
3413.789
3481.647
3565.054
3663.076
3775.176
3900.925
4040.238
4192.351
4353.648
4509.278
4690.018
4876.472
5067.911
5261.886
5453.111
5639.665
5816.318
5980.083
6112.919
6238.501
6341.814
6420.36
6471.838
6494.776
6488.799
6454.939
6395.073
6315.331
6212.553
6094.197
5962.87
5822.992
5678.149
5532.695
5390.242
5254.12
5127.784
5001.978
4895.329
4799.905
4716.109
4643.894
4581.692
4528.214
4481.815
4440.799
4401.775
4359.789
4318.986
4273.238
4222.389
4166.402
4105.656
4042.319
3982.003
3821.487
3761.141
3714.842
3677.854
3654.255
3648.355
3662.506
3696.641
3749.329
3818.358
3900.674
3991.459
4087.073
4185.106
4283.047
4378.046
4467.625
4550.033
4624.294
4688.062
4740.677
4780.573
4807.526
4820.166
4816.765
4796.156
4757.373
4700.561
4626.855
4538.348
4438.715
4333.395
4228.149
4129.459
4042.739
3972.477
3920.358
3886.406
3870.31
3870.626
3884.217
3910.675
3949.192
3998.719
4058.034
4124.775
4198.426
4274.574
4352.347
4430.888
4509.492
4587.136
4662.361
4734.702
4803.53
4868.411
4928.13
4982.814
5029.163
5065.341
5098.983
5133.162
5165.364
5194.517
5222.856
5252.739
5284.863
5318.809
5353.923
5389.644
5425.447
5460.825
5495.253
5528.663
5561.034
5592.455
5623.395
5654.385
5685.27
5716.166
5747.546
5777.179
5800.285
5814.093
5819.735
5818.337
5812.061
5805.575
5809.185
5820.151
5830.726
5840.643
5851.14
5862.37
5874.193
5886.626
5899.758
5913.617
5928.157
5943.305
5958.986
5975.104
5991.539
6008.163
6024.845
6041.452
6057.847
6073.887
6089.419
6104.304
6118.425
6131.577
6143.546
6154.204
6163.365
6170.854
6176.504
6180.15
6181.619
6180.784
6177.533
6171.882
6163.792
6153.342
6140.657
6125.819
6108.764
6089.434
6067.763
6043.712
6017.604
5990.189
5962.481
5935.604
5910.506
5887.689
5867.103
5848.247
5831.058
5816.305
5805.142
5798.166
5794.95
5794.928
5797.609
5802.72
5810.015
5819.195
5829.817
5841.591
5854.453
5868.37
5882.783
5896.739
5909.166
5919.885
5930.656
5942.968
5956.639
5970.958
5985.276
5999.391
6013.2
6026.628
6039.621
6052.396
6064.97
6077.283
6089.155
6100.45
6111.034
6120.764
6129.536
6137.299
6144.025
6149.689
6154.316
6157.999
6160.76
6162.829
6164.4
6165.656
6166.885
6168.186
6169.879
6172.243
6175.899
6180.259
6185.256
6191.101
6198.118
6206.481
6216.224
6227.24
6239.238
6251.597
6263.459
6274.604
6285.139
6295.869
6308.541
6323.616
6339.747
6355.322
6369.506
6382.121
6393.339
6403.768
6413.023
6422.097
6429.95
6436.283
6442.019
6448.915
6457.45
6466.082
6474.046
6481.343
6488.019
6494.099
6499.58
6504.437
6508.673
6511.821
6513.456
6514.273
6515.333
6516.655
6517.75
6518.537
6519.512
6520.945
6522.318
6522.929
6522.652
6521.673
6519.972
6517.534
6514.576
6511.267
6507.671
6503.857
6499.87
6495.711
6491.379
6486.868
6482.158
6477.233
6472.088
6466.729
6461.172
6455.447
6449.595
6443.685
6437.774
6432.127
6426.832
6421.129
6415.777
6411.124
6407.108
6403.694
6400.955
6398.96
6397.766
6397.378
6397.796
6398.991
6400.912
6403.487
6406.623
6410.211
6414.135
6418.272
6422.503
6426.709
6430.784
6434.629
6438.158
6441.301
6444.004
6446.234
6447.971
6449.208
6449.954
6450.225
6450.048
6449.458
6448.495
6447.206
6445.64
6443.852
6441.895
6439.819
6437.671
6435.5
6433.353
6431.266
6429.265
6427.372
6425.598
6423.941
6422.396
6420.986
6419.754
6418.716
6417.868
6417.194
6416.676
6416.265
6415.915
6415.592
6415.313
6415.059
6414.798
6414.501
6414.142
6413.686
6413.064
6412.243
6411.256
6410.122
6408.855
6407.423
6405.832
6404.074
6402.131
6400.001
6397.693
6395.215
6392.58
6389.799
6386.888
6383.86
6380.731
6377.514
6374.222
6370.869
6367.465
6364.022
6360.551
6357.063
6353.565
6350.067
6346.574
6343.099
6339.641
6336.212
6332.817
6329.461
6326.15
6322.888
6319.68
6316.529
6313.435
6310.413
6307.458
6304.6
6301.735
6298.967
6296.273
6293.651
6291.099
6288.619
6286.207
6283.864
6281.586
6279.374
6277.224
6275.134
6273.101
6271.123
6269.196
6267.316
6265.479
6263.68
6261.913
6260.171
6258.447
6256.734
6255.021
6253.297
6251.549
6249.763
6247.924
6246.014
6244.024
6241.948
6239.827
6237.739
6235.889
6234.505
6233.96
6234.564
6236.676
3123.971
3105.055
3084.157
3051.885
3034.591
2995.494
2998.384
3016.421
3046.452
3059.169
3056.587
3068.084
3098.424
3145.429
3208.522
3286.363
3377.831
3482.926
3601.335
3731.389
3873.801
4027.553
4191.145
4363.662
4543.441
4727.82
4914.326
5099.701
5280.604
5453.623
5615.288
5734.686
5863.299
5963.537
6036.451
6081.419
6097.406
6084.608
6044.395
5979.222
5892.565
5787.243
5666.603
5534.415
5393.956
5249.99
5107.185
4968.827
4837.417
4715.015
4603.093
4503.075
4415.222
4339.515
4275.411
4221.699
4176.633
4138.142
4103.567
4070.107
4035.1
3996.438
3951.96
3899.896
3840.072
3773.235
3700.771
3624.374
3545.479
3476.509
3421.529
3378.08
3349.133
3339.085
3351.183
3386.051
3441.699
3516.421
3606.648
3707.853
3816.088
3927.579
4038.551
4145.697
4246.269
4338.214
4420.153
4490.39
4547.474
4589.593
4616.558
4626.916
4618.311
4589.767
4540.695
4471.753
4384.585
4281.649
4167.167
4047.146
3928.366
3819.657
3726.115
3653.364
3602.888
3573.556
3562.45
3566.744
3585.052
3616.263
3658.816
3711.967
3774.541
3844.503
3919.737
3998.045
4078.378
4159.745
4241.275
4322.177
4401.224
4477.232
4548.89
4615.352
4675.768
4729.774
4776.017
4814.425
4848.679
4881.564
4913.068
4943.097
4972.993
5004.326
5037.733
5072.986
5109.52
5146.742
5184.083
5220.99
5256.972
5291.757
5325.227
5357.377
5388.376
5418.498
5447.77
5476.016
5502.79
5526.988
5546.484
5559.74
5566.986
5569.241
5568.101
5566.853
5570.251
5578.083
5586.758
5595.548
5605.019
5615.407
5626.696
5638.888
5652.019
5666.096
5681.064
5696.827
5713.271
5730.26
5747.638
5765.238
5782.893
5800.435
5817.698
5834.519
5850.732
5866.18
5880.69
5894.03
5906.09
5916.642
5925.531
5932.575
5937.608
5940.484
5940.998
5939.14
5934.797
5927.922
5918.56
5906.903
5893.172
5877.545
5859.913
5840.092
5817.826
5792.805
5765.293
5736.194
5706.712
5678.313
5652.318
5629.408
5609.243
5590.555
5572.814
5557.276
5545.919
5539.895
5538.246
5539.784
5543.881
5549.913
5557.767
5567.391
5578.437
5590.541
5603.605
5617.789
5632.89
5648.399
5663.365
5676.838
5689.284
5701.357
5713.673
5726.889
5740.564
5754.483
5768.757
5783.259
5797.52
5811.277
5824.58
5837.55
5849.943
5861.586
5872.336
5882.056
5890.644
5898.043
5904.239
5909.258
5913.156
5916.03
5917.921
5919.051
5919.761
5920.166
5920.689
5921.491
5922.544
5924.288
5926.992
5930.572
5935.037
5940.444
5946.985
5954.849
5964.049
5974.463
5985.843
5997.808
6009.852
6021.56
6032.912
6044.641
6057.629
6071.907
6086.863
6101.892
6116.375
6129.939
6142.36
6153.945
6164.739
6175.08
6184.488
6192.194
6198.806
6206.194
6214.467
6222.525
6229.957
6236.814
6243.161
6249.036
6254.429
6259.369
6263.911
6267.73
6270.114
6270.705
6270.434
6270.907
6272.89
6276.246
6279.37
6280.996
6281.382
6281.007
6280.263
6278.975
6276.902
6274.186
6271.08
6267.659
6263.886
6259.903
6255.815
6251.595
6247.248
6242.765
6238.102
6233.224
6228.119
6222.787
6217.234
6211.484
6205.578
6199.583
6193.568
6187.637
6181.826
6176.046
6170.603
6165.693
6161.372
6157.689
6154.718
6152.524
6151.159
6150.639
6150.964
6152.109
6154.022
6156.632
6159.842
6163.54
6167.602
6171.9
6176.306
6180.699
6184.965
6189
6192.709
6196.016
6198.865
6201.221
6203.062
6204.382
6205.187
6205.495
6205.333
6204.735
6203.744
6202.405
6200.771
6198.898
6196.844
6194.659
6192.383
6190.072
6187.779
6185.532
6183.36
6181.29
6179.338
6177.516
6175.832
6174.305
6172.959
6171.808
6170.848
6170.065
6169.442
6168.944
6168.544
6168.208
6167.916
6167.652
6167.393
6167.112
6166.784
6166.385
6165.894
6165.195
6164.221
6163.039
6161.725
6160.289
6158.755
6157.082
6155.22
6153.164
6150.929
6148.528
6145.971
6143.27
6140.439
6137.493
6134.445
6131.308
6128.095
6124.818
6121.489
6118.118
6114.716
6111.291
6107.853
6104.41
6100.969
6097.532
6094.119
6090.727
6087.362
6084.032
6080.742
6077.496
6074.301
6071.158
6068.07
6065.042
6062.071
6059.136
6056.347
6053.606
6050.913
6048.285
6045.728
6043.241
6040.823
6038.472
6036.189
6033.97
6031.814
6029.719
6027.683
6025.702
6023.773
6021.894
6020.06
6018.266
6016.508
6014.78
6013.076
6011.389
6009.712
6008.037
6006.354
6004.656
6002.935
6001.186
5999.416
5997.638
5995.906
5994.277
5992.904
5991.863
5991.432
5991.567
5992.76
3317.446
3290.469
3263.403
3212.092
3169.136
3093.795
3052.211
3010.727
2970.432
2931.182
2893.914
2859.905
2827.92
2799.524
2775.962
2757.125
2682.972
2679.543
2683.997
2692.732
2701.65
2715.184
2738.69
2775.113
2825.73
2889.52
2967.166
3059.193
3164.867
3283.713
3415.092
3558.226
3712.191
3875.821
4047.592
4226.426
4409.514
4594.169
4778.681
4959.295
5132.169
5291.001
5425.521
5549.653
5649.124
5720.998
5764.397
5778.466
5763.492
5720.803
5652.979
5563.266
5455.313
5332.517
5197.264
5054.218
4910.071
4768.981
4633.436
4505.531
4387.189
4279.642
4184.387
4102.43
4033.723
3977.468
3932.302
3896.341
3867.226
3840.994
3815.028
3786.783
3752.861
3710.331
3656.724
3591.851
3516.94
3433.406
3345.328
3257.757
3177.463
3108.735
3053.961
3015.74
2996.676
3000.949
3032.007
3090.134
3172.331
3273.85
3389.728
3515.076
3644.937
3774.598
3900.086
4018.177
4126.333
4222.555
4304.98
4371.501
4420.47
4450.337
4459.922
4447.446
4410.88
4349.114
4263.726
4157.09
4032.569
3895.823
3753.939
3613.968
3487.193
3384.382
3310.219
3261.924
3236.741
3231.809
3243.973
3270.355
3308.566
3356.087
3413.632
3480.187
3553.693
3632.31
3713.942
3797.168
3881.324
3965.986
4050.756
4134.502
4215.373
4291.245
4360.682
4422.826
4477.215
4523.755
4563.233
4597.829
4629.899
4660.745
4691.147
4722.149
4754.84
4789.75
4826.697
4865.099
4904.288
4943.594
4982.355
5019.996
5056.134
5090.583
5123.265
5154.227
5183.569
5211.254
5237.083
5260.662
5281.384
5298.286
5310.621
5318.419
5322.521
5324.339
5325.809
5328.969
5334.574
5341.465
5349.044
5357.461
5366.93
5377.563
5389.41
5402.466
5416.728
5432.137
5448.582
5465.917
5483.973
5502.557
5521.459
5540.46
5559.345
5577.908
5595.945
5613.256
5629.642
5644.904
5658.843
5671.263
5681.937
5690.741
5697.46
5701.903
5703.945
5703.451
5700.435
5694.913
5686.886
5676.387
5663.631
5648.973
5632.758
5614.707
5594.482
5571.619
5545.095
5515.21
5483.305
5450.94
5420.105
5392.766
5369.94
5350.733
5332.659
5314.065
5297.305
5285.813
5281.175
5281.671
5285.112
5290.187
5296.37
5304.495
5314.46
5325.917
5338.385
5351.537
5365.899
5381.853
5399.127
5416.86
5432.786
5447.183
5459.347
5470.383
5482.895
5495.964
5508.947
5523.191
5538.338
5553.454
5568.383
5582.86
5596.84
5610.113
5622.461
5633.714
5643.728
5652.393
5659.647
5665.468
5669.905
5673.067
5675.088
5675.881
5675.907
5675.656
5675.167
5674.609
5674.593
5674.801
5675.661
5677.523
5680.417
5684.265
5689.075
5694.992
5702.209
5710.797
5720.699
5731.764
5743.628
5755.786
5767.849
5779.87
5792.204
5805.206
5818.919
5832.973
5847.282
5861.735
5876.107
5890.082
5903.274
5915.376
5926.471
5936.189
5944.727
5952.772
5960.995
5969.408
5977.295
5984.539
5991.219
5997.39
6003.097
6008.31
6013.04
6017.267
6020.678
6022.944
6024.278
6025.531
6027.475
6029.689
6031.463
6033.161
6035.488
6038.12
6039.718
6039.369
6037.343
6034.394
6031.137
6027.62
6023.762
6019.702
6015.644
6011.551
6007.27
6002.864
5998.365
5993.694
5988.804
5983.687
5978.336
5972.747
5966.933
5960.935
5954.809
5948.623
5942.453
5936.391
5930.49
5924.894
5919.764
5915.213
5911.32
5908.165
5905.818
5904.332
5903.724
5904.012
5905.167
5907.14
5909.857
5913.218
5917.102
5921.375
5925.9
5930.542
5935.17
5939.666
5943.919
5947.823
5951.297
5954.284
5956.748
5958.669
5960.042
5960.875
5961.186
5961.005
5960.366
5959.313
5957.897
5956.172
5954.196
5952.035
5949.737
5947.315
5944.847
5942.412
5940.01
5937.674
5935.435
5933.318
5931.343
5929.524
5927.879
5926.426
5925.172
5924.116
5923.246
5922.544
5921.985
5921.542
5921.181
5920.88
5920.617
5920.366
5920.1
5919.791
5919.425
5918.995
5918.403
5917.561
5916.464
5915.114
5913.638
5912.059
5910.397
5908.573
5906.557
5904.367
5902.018
5899.511
5896.861
5894.084
5891.192
5888.201
5885.121
5881.965
5878.744
5875.471
5872.156
5868.809
5865.438
5862.052
5858.658
5855.264
5851.877
5848.499
5845.141
5841.808
5838.505
5835.239
5832.014
5828.836
5825.707
5822.631
5819.611
5816.649
5813.748
5810.93
5808.171
5805.506
5802.867
5800.307
5797.819
5795.4
5793.048
5790.762
5788.542
5786.385
5784.29
5782.254
5780.275
5778.35
5776.477
5774.651
5772.868
5771.126
5769.419
5767.742
5766.091
5764.459
5762.841
5761.234
5759.631
5758.035
5756.445
5754.877
5753.349
5751.909
5750.6
5749.53
5748.736
5748.415
5748.456
5749.312
3462.414
3431.913
3396.163
3347.973
3311.975
3240.972
3205.107
3168.998
3131.837
3094.042
3056.062
3018.002
2978.439
2938.464
2896.12
2786.864
2744.924
2703.859
2663.501
2624.266
2586.492
2551.003
2518.098
2488.13
2462.05
2441.271
2425.693
2416.21
2412.698
2414.39
2421.379
2436.163
2460.915
2497.17
2545.531
2607.823
2683.997
2773.928
2877.353
2993.81
3122.646
3263.151
3414.542
3575.641
3744.195
3918.359
4096.585
4276.695
4458.841
4636.142
4807.24
4966.141
5105.141
5224.662
5319.553
5386.441
5424.055
5431.835
5410.742
5362.289
5289.549
5196.088
5084.906
4958.799
4821.228
4678.065
4535.809
4397.985
4266.741
4143.914
4031.312
3930.211
3842.25
3768.858
3710.197
3665.299
3632.563
3609.993
3595.75
3582.408
3567.124
3548.627
3521.344
3480.433
3423.156
3350.349
3263.685
3165.147
3060.857
2956.476
2857.612
2770.47
2697.832
2642.178
2607.789
2600.565
2626.28
2688.136
2782.237
2901.931
3039.786
3189.044
3343.866
3498.907
3649.435
3791.474
3921.827
4037.941
4137.489
4218.25
4278.068
4313.894
4323.262
4304.999
4257.281
4178.307
4070.356
3936.664
3782.007
3614.201
3442.232
3275.983
3127.626
3010.742
2934.418
2893.165
2877.981
2881.602
2904.731
2941.553
2989.146
3042.801
3106.296
3177.445
3255.251
3339.148
3425.668
3512.666
3599.968
3687.889
3776.683
3865.432
3951.727
4032.492
4105.518
4169.784
4225.023
4271.797
4311.356
4345.686
4377.047
4407.224
4437.553
4469.205
4503.179
4539.895
4579.033
4619.85
4661.551
4703.32
4744.329
4783.867
4821.477
4856.956
4890.225
4921.229
4949.913
4976.232
5000.093
5021.293
5039.531
5054.403
5065.608
5073.253
5077.992
5080.873
5083.076
5085.829
5089.933
5095.267
5101.559
5108.865
5117.363
5127.187
5138.453
5151.257
5165.614
5181.434
5198.59
5216.901
5236.163
5256.154
5276.622
5297.289
5317.881
5338.136
5357.797
5376.615
5394.34
5410.736
5425.594
5438.683
5449.809
5458.662
5465.075
5468.977
5470.336
5469.084
5465.122
5458.362
5448.968
5437.013
5422.648
5406.645
5389.919
5371.613
5350.569
5327.311
5299.116
5265.947
5230.191
5193.848
5159.673
5130.543
5110.11
5096.004
5079.209
5058.642
5038.936
5025.66
5020.937
5023.815
5030.119
5036.898
5042.842
5051.652
5062.661
5074.783
5087.457
5099.951
5113.301
5128.731
5147.071
5168.568
5189.583
5205.575
5217.674
5228.038
5239.007
5251.313
5264.857
5279.205
5294.351
5309.701
5325.041
5340.192
5354.966
5369.124
5382.365
5394.4
5405.014
5414.073
5421.482
5427.2
5431.261
5433.808
5435.143
5434.565
5433.365
5432.147
5430.717
5428.72
5427.249
5426.469
5426.34
5427.389
5429.604
5432.798
5436.923
5442.134
5448.678
5456.679
5466.178
5477.254
5489.491
5502.128
5514.554
5527.081
5539.925
5553.044
5566.203
5579.452
5592.99
5606.972
5621.451
5636.089
5650.575
5664.136
5676.873
5688.382
5698.388
5707.324
5715.608
5723.579
5731.191
5738.323
5745.048
5751.156
5756.709
5761.695
5766.11
5769.979
5773.303
5776.045
5778.309
5780.334
5782.292
5784.153
5786.121
5788.573
5791.009
5792.548
5793.332
5793.896
5793.984
5792.459
5789.303
5785.013
5780.34
5775.834
5771.459
5767.056
5762.621
5758.242
5753.841
5749.206
5744.295
5739.149
5733.763
5728.113
5722.207
5716.09
5709.817
5703.458
5697.096
5690.832
5684.749
5678.968
5673.637
5668.878
5664.792
5661.469
5658.984
5657.391
5656.739
5657.026
5658.233
5660.314
5663.192
5666.761
5670.887
5675.426
5680.23
5685.152
5690.058
5694.823
5699.332
5703.452
5707.09
5710.203
5712.757
5714.734
5716.132
5716.961
5717.244
5717.01
5716.297
5715.151
5713.626
5711.78
5709.681
5707.41
5705.026
5702.452
5699.784
5697.221
5694.666
5692.165
5689.762
5687.488
5685.367
5683.419
5681.661
5680.108
5678.765
5677.629
5676.691
5675.933
5675.331
5674.858
5674.485
5674.184
5673.93
5673.693
5673.443
5673.148
5672.788
5672.345
5671.774
5671.047
5670.098
5668.892
5667.456
5665.831
5664.073
5662.192
5660.158
5657.973
5655.646
5653.171
5650.553
5647.81
5644.958
5642.01
5638.974
5635.859
5632.677
5629.444
5626.171
5622.865
5619.535
5616.188
5612.834
5609.477
5606.125
5602.781
5599.458
5596.156
5592.88
5589.639
5586.436
5583.277
5580.166
5577.104
5574.096
5571.147
5568.259
5565.439
5562.681
5559.978
5557.382
5554.831
5552.348
5549.932
5547.583
5545.3
5543.083
5540.93
5538.838
5536.808
5534.835
5532.919
5531.056
5529.244
5527.479
5525.759
5524.079
5522.436
5520.826
5519.246
5517.693
5516.165
5514.662
5513.187
5511.746
5510.355
5509.034
5507.823
5506.756
5505.91
5505.306
5505.082
5505.125
5505.851
3395.54
3354.774
3321.172
3276.178
3229.457
3186.04
3145.072
3106.664
3070.339
3033.661
2930.767
2894.944
2859.232
2822.857
2785.611
2747.603
2708.809
2668.975
2628.242
2587.306
2547.204
2505.826
2464.629
2423.793
2383.843
2345.014
2307.761
2272.559
2239.582
2209.395
2183.278
2162.824
2148.24
2139.508
2137.19
2142.451
2156.89
2181.696
2217.791
2266.335
2327.808
2402.657
2490.901
2592.351
2706.611
2833.058
2970.915
3119.178
3275.771
3438.981
3608.321
3782.401
3960.137
4138.165
4311.694
4477.066
4629.2
4762.585
4873.602
4959.386
5016.799
5044.555
5042.385
5012.16
4956.298
4877.204
4777.872
4662.301
4534.04
4397.543
4258.229
4120.664
3988.071
3862.925
3747.064
3642.214
3549.581
3470.999
3408.839
3363.657
3334.269
3318.876
3315.331
3318.864
3325.669
3330.395
3326.239
3308.291
3270.146
3207.658
3124.525
3023.265
2904.038
2775.839
2646.088
2521.231
2410.646
2316.942
2237.182
2174.329
2145.824
2163.203
2230.663
2341.958
2488.084
2657.209
2839.091
3026.834
3214.685
3397.215
3569.542
3727.763
3868.813
3990.005
4088.52
4161.141
4204.723
4216.136
4192.096
4129.46
4027.695
3890.633
3722.144
3528.708
3321.224
3110.287
2908.546
2735.046
2606.578
2530.201
2497.117
2500.788
2517.805
2553.61
2602.066
2666.235
2722.687
2792.172
2871.407
2953.78
3043.308
3135.478
3226.939
3317.877
3409.508
3503.094
3598.115
3691.268
3777.543
3853.995
3919.902
3975.329
4021.205
4059.373
4092.264
4122.375
4151.64
4181.551
4213.502
4248.711
4287.672
4329.752
4373.774
4418.725
4463.64
4507.458
4549.265
4588.565
4625.2
4659.085
4690.115
4718.203
4743.325
4765.498
4784.708
4800.887
4813.933
4823.8
4830.668
4835.049
4837.718
4839.544
4841.448
4844.143
4847.876
4852.678
4858.677
4866.09
4875.089
4885.772
4898.262
4912.639
4928.825
4946.693
4966.068
4986.7
5008.302
5030.577
5053.193
5075.818
5098.128
5119.806
5140.541
5160.018
5177.921
5194.009
5208.035
5219.727
5228.868
5235.314
5238.976
5239.813
5237.726
5232.632
5224.456
5213.397
5199.632
5182.906
5164.632
5146.548
5128.717
5109.52
5087.19
5056.498
5018.831
4979.092
4938.135
4900.633
4877.967
4870.832
4858.65
4830.622
4802.804
4777.395
4760.495
4756.348
4765.011
4776.653
4784.476
4790.459
4800.994
4814.353
4828.556
4841.438
4851.628
4863.968
4884.577
4908.716
4931.068
4952.052
4965.34
4975.445
4985.127
4994.417
5006.058
5020.412
5035.098
5049.736
5064.948
5080.748
5096.617
5112.318
5127.582
5141.937
5154.984
5166.421
5176.052
5183.754
5189.468
5193.211
5195.06
5195.016
5194.163
5192.073
5189.408
5186.411
5183
5179.803
5177.635
5176.269
5176.409
5178.027
5180.613
5183.984
5188.357
5194.113
5201.431
5210.417
5221.709
5234.861
5248.816
5262.581
5275.76
5288.593
5301.475
5314.305
5327.027
5340.039
5353.795
5368.567
5384.131
5399.723
5414.363
5427.637
5439.68
5450.529
5460.407
5469.648
5478.072
5485.684
5492.61
5498.971
5504.819
5510.15
5514.942
5519.296
5523.137
5526.514
5529.377
5531.744
5533.827
5535.877
5538.061
5540.423
5542.79
5544.739
5546.287
5547.653
5548.25
5547.564
5545.996
5544.058
5541.487
5537.678
5533.073
5528.021
5523.005
5518.326
5513.806
5509.248
5504.546
5499.64
5494.53
5489.185
5483.515
5477.522
5471.28
5464.856
5458.325
5451.774
5445.307
5439.024
5433.049
5427.518
5422.562
5418.298
5414.825
5412.222
5410.554
5409.869
5410.172
5411.454
5413.671
5416.749
5420.567
5424.97
5429.802
5434.903
5440.12
5445.311
5450.351
5455.143
5459.515
5463.33
5466.566
5469.201
5471.218
5472.619
5473.42
5473.646
5473.329
5472.511
5471.239
5469.573
5467.573
5465.307
5462.866
5460.308
5457.61
5454.869
5452.177
5449.454
5446.793
5444.238
5441.821
5439.57
5437.508
5435.653
5434.016
5432.603
5431.409
5430.425
5429.633
5429.009
5428.528
5428.159
5427.873
5427.64
5427.428
5427.206
5426.942
5426.599
5426.157
5425.589
5424.865
5423.965
5422.883
5421.539
5419.948
5418.126
5416.164
5414.085
5411.868
5409.506
5407.004
5404.375
5401.631
5398.784
5395.85
5392.84
5389.753
5386.599
5383.397
5380.158
5376.886
5373.586
5370.271
5366.948
5363.622
5360.301
5356.991
5353.692
5350.417
5347.168
5343.951
5340.771
5337.632
5334.541
5331.497
5328.504
5325.568
5322.694
5319.884
5317.137
5314.454
5311.844
5309.305
5306.829
5304.42
5302.078
5299.802
5297.591
5295.446
5293.363
5291.342
5289.38
5287.477
5285.63
5283.836
5282.094
5280.4
5278.752
5277.147
5275.584
5274.06
5272.575
5271.128
5269.721
5268.361
5267.055
5265.819
5264.672
5263.645
5262.766
5262.092
5261.631
5261.491
5261.557
5262.23
3142.836
3088.375
2975.617
2935.751
2896.001
2858.103
2821.945
2787.096
2752.999
2719.434
2686.524
2652.454
2617.647
2581.92
2545.285
2507.58
2468.783
2428.844
2387.729
2345.951
2304.767
2263.318
2221.762
2180.341
2139.437
2098.948
2059.006
2020.485
1984.202
1950.806
1921.269
1897.183
1879.459
1868.24
1864.241
1868.499
1882.191
1906.237
1941.728
1989.365
2049.719
2123.147
2209.689
2309.186
2421.303
2545.211
2679.553
2822.739
2972.985
3130.711
3295.953
3466.146
3638.983
3810.96
3977.55
4134.327
4276.462
4399.149
4498.095
4570.659
4614.504
4629.168
4615.375
4574.219
4507.702
4420.005
4314.535
4196.148
4068.636
3935.469
3801.025
3668.8
3542.049
3423.481
3315.633
3219.734
3137.229
3070.855
3023.286
2995.092
2985.798
2993.186
3012.428
3037.344
3068.402
3097.987
3114.805
3113.885
3084.084
3016.489
2919.129
2798.459
2652.315
2492.509
2327.793
2170.668