/*--------------------------------*- C++ -*----------------------------------*\
| =========                 |                                                 |
| \\      /  F ield         | foam-extend: Open Source CFD                    |
|  \\    /   O peration     | Version:     3.1                                |
|   \\  /    A nd           | Web:         http://www.extend-project.de       |
|    \\/     M anipulation  |                                                 |
\*---------------------------------------------------------------------------*/
FoamFile
{
    version     2.0;
    format      ascii;
    class       volScalarField;
    location    "12";
    object      nut;
}
// * * * * * * * * * * * * * * * * * * * * * * * * * * * * * * * * * * * * * //

dimensions      [0 2 -1 0 0 0 0];

internalField   nonuniform List<scalar> 
119952
(
5.298677e-05
3.538876e-05
3.619635e-05
4.016372e-05
4.271906e-05
4.042819e-05
3.889895e-05
3.776187e-05
3.684778e-05
3.601504e-05
3.521123e-05
3.440841e-05
3.358569e-05
3.273135e-05
3.185223e-05
3.096888e-05
3.010539e-05
2.928573e-05
2.851385e-05
2.775296e-05
3.652607e-05
3.425242e-05
3.335838e-05
4.469257e-05
4.248026e-05
4.105361e-05
4.006062e-05
3.956163e-05
3.877125e-05
2.805998e-05
3.292245e-05
3.576182e-05
4.042109e-05
4.517193e-05
5.018549e-05
5.546159e-05
6.103937e-05
6.677424e-05
7.260774e-05
8.271765e-05
0.000370525
0.0004310895
0.0004985211
0.0005693771
0.0006413492
0.0007129427
0.0007835117
0.0008528963
0.0009206672
0.001303181
0.00137239
0.001441852
0.001510893
0.001579847
0.00164866
0.001716842
0.001783667
0.001848273
0.001909402
0.001969496
0.002021881
0.002068938
0.002111767
0.002150909
0.002186842
0.002220148
0.002251868
0.002285063
0.002169999
0.00228896
0.002279324
0.002280932
0.00228482
0.002270881
0.002250199
0.002228158
0.002205529
0.002181439
0.002154922
0.002125058
0.002091211
0.002053275
0.002011849
0.001968349
0.001924893
0.001883998
0.001848479
0.001821191
0.001808966
0.001797636
0.001795869
0.001814809
0.001833465
0.001837136
0.00183237
0.001814281
0.001758243
0.001653365
0.001599996
0.001556162
0.001517963
0.001483672
0.001455811
0.00143672
0.001426908
0.001425325
0.001430217
0.001440552
0.001456397
0.001478423
0.001507204
0.001542185
0.0015829
0.001628693
0.001677749
0.001729726
0.001786105
0.001845704
0.001906914
0.001968297
0.002029013
0.002088733
0.002147402
0.002205024
0.002261312
0.002315602
0.002366922
0.002413922
0.002454812
0.002487276
0.002508249
0.002512656
0.002491746
0.00243079
0.00232923
0.002179865
0.001970519
0.001693165
0.001365175
0.001094617
0.0009604394
0.0008137067
0.0007754884
0.0008328714
0.0009770331
0.001107037
0.001180852
0.001256748
0.001299864
0.001314239
0.001318508
0.001329534
0.001352541
0.001383722
0.001419322
0.001458607
0.001501312
0.001546539
0.001593584
0.001642176
0.00169203
0.001742613
0.001793148
0.00184273
0.00188859
0.001929705
0.001967604
0.002002107
0.002032949
0.002059968
0.002083059
0.002102154
0.002117187
0.0021281
0.002134953
0.002138019
0.002137658
0.002134134
0.0021275
0.00211773
0.00210485
0.00208884
0.002069592
0.00204692
0.002020491
0.001989667
0.001954037
0.001914474
0.001871187
0.001824302
0.001774033
0.001720768
0.001665056
0.001607271
0.001546676
0.001481465
0.001415944
0.001179752
0.0009389123
0.000820058
0.0007454567
0.0006912164
0.0006485512
0.0006126382
0.0005811582
0.0005520762
0.0005258054
0.0005022839
0.0004810506
0.000461845
0.0004445074
0.0004288663
0.0004147848
0.0004022114
0.0003910008
0.0003809872
0.0003720778
0.0003641956
0.0003572361
0.0003510871
0.0003456542
0.0003408585
0.0003366188
0.0003328249
0.0003293385
0.0003259952
0.0003230047
0.0003206034
0.0003187707
0.0003175188
0.0003169842
0.0003176451
0.0003237837
0.0003381091
0.0003537696
0.0003692624
0.0003847735
0.0004002309
0.0004157073
0.0004312585
0.0004468662
0.0004624614
0.0004778988
0.0004929657
0.0005074071
0.0005209643
0.0005334402
0.00054477
0.0005550538
0.000564495
0.0005732347
0.0005811453
0.0005877007
0.0005920584
0.00059339
0.0005913814
0.0005867092
0.0005812091
0.0005773914
0.000577374
0.0005819657
0.0005910088
0.0006040699
0.0006199089
0.0006363723
0.0006512347
0.0006628301
0.0008963583
0.0009032756
0.0009013891
0.0008887723
0.0008640155
0.0008139663
0.0007188742
0.0005731998
0.0004572769
0.0004183396
0.0004045679
0.0004416709
0.0004947427
0.0005463098
0.0005958502
0.0006456273
0.000697808
0.0007367693
0.000752085
0.0007646971
0.0007766528
0.0007891888
0.0008017921
0.0008125253
0.0008189207
0.0008212924
0.0008219012
0.0008211231
0.0008180206
0.0008126411
0.0008059031
0.0007992838
0.0007944198
0.0007928596
0.0007958969
0.0008044333
0.0008188463
0.0008377104
0.0008590001
0.0008822495
0.0009089117
0.0009394329
0.0009741372
0.001013416
0.001056882
0.001103161
0.001150522
0.001200639
0.001253001
0.001307896
0.001366164
0.001427321
0.001489938
0.001553046
0.001612261
0.001677955
0.001755214
0.001843308
0.001934414
0.002022093
0.002102012
0.002171994
0.002231391
0.002280382
0.00231952
0.002349528
0.002371207
0.002385385
0.002392875
0.002394454
0.002390891
0.002382929
0.002371217
0.002356299
0.002338643
0.002318662
0.00229673
0.002273185
0.002248356
0.002222589
0.002196232
0.002169563
0.002142722
0.00211571
0.002088445
0.002060849
0.002032894
0.002004621
0.001976121
0.001947515
0.001918932
0.001890505
0.001862358
0.001834604
0.001807344
0.001780668
0.001754648
0.001729341
0.00170479
0.00168102
0.001658042
0.001635854
0.001614441
0.00159378
0.001573837
0.001554577
0.001535955
0.00151793
0.001500456
0.00148349
0.00146699
0.001450917
0.001435237
0.001419921
0.001404942
0.001390283
0.001375931
0.001361876
0.001348119
0.00133466
0.001321506
0.001308668
0.001296157
0.001283984
0.001272165
0.001260713
0.001249643
0.001238975
0.001228727
0.001218933
0.001209621
0.001200856
0.001192722
0.001185394
0.001179162
0.001174638
0.001173018
0.001178046
0.0009401992
5.408045e-05
5.854842e-05
6.924365e-05
8.136636e-05
9.306971e-05
0.0001039857
0.0001141851
0.0001238076
0.0001344415
0.0004517797
0.0006209351
0.0007968147
0.0009621124
0.001110243
0.001240114
0.001354173
0.001455781
0.001548144
0.002216452
0.002322929
0.002433062
0.002541319
0.002646776
0.002748727
0.002846807
0.002940563
0.003029702
0.003113131
0.003191942
0.003266019
0.003336395
0.003405193
0.003473186
0.003540232
0.003605876
0.003669887
0.003732157
0.003775163
0.003800898
0.003831843
0.003868473
0.003909974
0.003954744
0.004001399
0.004048794
0.004096164
0.004143325
0.004190933
0.004238021
0.004285882
0.004334717
0.004384272
0.004434312
0.004484565
0.004534837
0.004584413
0.005367335
0.005414279
0.005460893
0.005508029
0.005555062
0.005600922
0.005644277
0.005683892
0.005718595
0.005747027
0.005769068
0.005784522
0.00579309
0.005794642
0.005790146
0.005779592
0.005764687
0.00574648
0.005728591
0.005709873
0.005680961
0.005657221
0.005632833
0.005602231
0.005565649
0.005526974
0.005487755
0.005447408
0.005404746
0.005358449
0.005307142
0.005249505
0.005184515
0.005111672
0.005031268
0.004944461
0.004853361
0.004760854
0.004670536
0.004585474
0.004506056
0.0044364
0.004379837
0.004325821
0.004270243
0.004213418
0.004151858
0.004078656
0.004005244
0.003940575
0.003876423
0.003810809
0.003743681
0.003676568
0.003611391
0.003549883
0.003493652
0.003444389
0.003403942
0.003374168
0.003356626
0.003352289
0.003361567
0.003384374
0.00341997
0.003466704
0.003521603
0.003583576
0.003657904
0.003745065
0.003844543
0.003955868
0.004078616
0.004212396
0.004356751
0.004510961
0.004673821
0.004843394
0.005016752
0.005189895
0.005357845
0.005514407
0.005651575
0.005758741
0.00581936
0.005805751
0.005703412
0.005486731
0.005124738
0.004627735
0.004065373
0.003505492
0.003019731
0.002653691
0.002242427
0.00181754
0.00163781
0.001655488
0.001852433
0.002210998
0.002646257
0.00283044
0.003031055
0.003236851
0.003436831
0.003626672
0.003805564
0.003974054
0.004132879
0.00428288
0.004425138
0.004560718
0.004690441
0.004814871
0.004934403
0.005051631
0.005166144
0.005276989
0.005383331
0.005484412
0.005579597
0.0056684
0.005750451
0.005825402
0.00589288
0.00595276
0.006005498
0.006051669
0.00609147
0.006124205
0.006150139
0.006169644
0.006182632
0.006188781
0.00618768
0.006178887
0.00616187
0.006135861
0.006099808
0.00605372
0.005997698
0.005931638
0.005855891
0.005771437
0.005679236
0.005580445
0.005476298
0.00537745
0.00501481
0.00465562
0.004419813
0.004238491
0.004082214
0.003937946
0.003798741
0.003660209
0.003525531
0.00339661
0.003273589
0.003156708
0.003046121
0.002941945
0.002844308
0.002753371
0.002669308
0.002592292
0.002522513
0.00246017
0.002405428
0.002358386
0.002319074
0.002287466
0.002263474
0.002246947
0.002237687
0.002235508
0.002240346
0.002252362
0.00227192
0.002299615
0.002336597
0.002381378
0.002433411
0.002493406
0.002562632
0.002640436
0.002725524
0.002817201
0.002914559
0.003016481
0.003121598
0.003228265
0.00333453
0.003438124
0.003536529
0.003627183
0.003707861
0.003777205
0.003835166
0.003882966
0.003922353
0.003954311
0.003977808
0.003989324
0.003983747
0.003956686
0.003907583
0.003842286
0.003773175
0.003715433
0.003680845
0.00367399
0.003694759
0.003738723
0.003795228
0.003850758
0.00389355
0.003914785
0.004546194
0.004501852
0.004418025
0.004286571
0.004092173
0.003811427
0.003419812
0.002948676
0.002519517
0.002200376
0.001965083
0.001775305
0.001617349
0.001496055
0.00141814
0.001265219
0.001124661
0.001070197
0.001079619
0.001138638
0.001234672
0.001355334
0.001488564
0.001624063
0.001753478
0.00182129
0.0018818
0.001933888
0.001976588
0.002011436
0.00204089
0.002067541
0.002093781
0.002121777
0.002152884
0.002188271
0.002230808
0.002283035
0.002346691
0.00242274
0.002511485
0.002612708
0.002725768
0.002849589
0.00298265
0.003122998
0.00326896
0.00341922
0.003572451
0.00372771
0.00388419
0.004040814
0.004196471
0.004349269
0.004497664
0.004641485
0.00478012
0.004915567
0.00504704
0.005172193
0.005288942
0.005395412
0.005490067
0.005571841
0.005640204
0.005695177
0.005737262
0.005767321
0.005786372
0.005795476
0.005795846
0.005788665
0.005774911
0.005755375
0.005730721
0.005701514
0.00566824
0.005631315
0.005591137
0.00554819
0.00550303
0.005456091
0.005407645
0.005357775
0.005306473
0.005253741
0.005199658
0.005144378
0.005088107
0.005031073
0.004973514
0.004915663
0.004857746
0.004799982
0.004742558
0.004685668
0.004629479
0.00457414
0.004519773
0.00446648
0.004414333
0.004363381
0.004313652
0.004265146
0.004217851
0.004171722
0.004126716
0.004082772
0.004039826
0.003997805
0.003956637
0.003916253
0.003876585
0.003837572
0.003799163
0.003761316
0.003724
0.003687195
0.00365089
0.003615089
0.003579804
0.003545057
0.003510875
0.003477287
0.003444332
0.003412041
0.003380463
0.003349628
0.003319609
0.003290429
0.003262216
0.003234995
0.003209014
0.003184274
0.00316119
0.003139734
0.003121721
0.003108958
0.003100061
2.998296e-05
3.651532e-05
4.633896e-05
5.795069e-05
7.171609e-05
8.815741e-05
0.0001081862
0.0001328655
0.0001640733
0.0002182619
0.0009295152
0.001088208
0.001255766
0.001436167
0.001622978
0.00180559
0.001952573
0.002113733
0.002499588
0.004482518
0.004716719
0.004878261
0.005026723
0.005162632
0.005287433
0.005398408
0.005501628
0.005601596
0.005754532
0.006041315
0.006268609
0.006415062
0.006512685
0.006582614
0.006635596
0.006677242
0.006711058
0.006744592
0.006639647
0.006638257
0.006679973
0.006737399
0.006796875
0.006851799
0.006899376
0.006938796
0.006970455
0.006995237
0.007013803
0.007030386
0.007046517
0.007063232
0.007080823
0.007099007
0.007116921
0.00713197
0.007919196
0.007933289
0.007939793
0.007942456
0.007943352
0.007943326
0.007942983
0.007942603
0.00794262
0.007943089
0.00794352
0.007944258
0.007945387
0.007946234
0.007946428
0.007945814
0.00794434
0.007942271
0.007940188
0.00793797
0.00793603
0.007935891
0.007937852
0.00794148
0.007946142
0.007951089
0.007955687
0.007959529
0.007962471
0.007965246
0.007968725
0.007973324
0.007979482
0.007987413
0.007997008
0.00800799
0.008019955
0.008033958
0.008032917
0.008035265
0.008041496
0.008051647
0.008065114
0.008080677
0.008096696
0.008111445
0.008123228
0.008130599
0.008132611
0.008128261
0.008117003
0.008098914
0.008074817
0.008045643
0.008013277
0.007982167
0.007951492
0.007908728
0.007854691
0.007797862
0.00774121
0.007683559
0.007625249
0.007568406
0.007514194
0.007462061
0.007410615
0.007358159
0.007302894
0.007243003
0.007176836
0.007103055
0.007020893
0.00693023
0.006831776
0.006726969
0.006618078
0.0065079
0.006397809
0.006290744
0.006190449
0.006094035
0.005999598
0.005907298
0.005817627
0.005726627
0.005638971
0.005559887
0.005485866
0.005413314
0.005340667
0.00526726
0.005193178
0.005118976
0.005045674
0.004974848
0.004908605
0.004849405
0.00479973
0.004761789
0.004737367
0.004727788
0.004733793
0.004755352
0.004791576
0.004840218
0.004898052
0.004971084
0.005060522
0.005166719
0.005290168
0.005431291
0.005590317
0.005767075
0.005960697
0.006169244
0.006389418
0.006616589
0.006845046
0.007068084
0.007277895
0.00746504
0.007616448
0.007710932
0.007720081
0.007622739
0.007383235
0.006986559
0.006447997
0.00579968
0.005108939
0.004452348
0.00388379
0.003449148
0.002886508
0.002294877
0.00203779
0.002026214
0.002213619
0.002591993
0.003142625
0.003688369
0.003956567
0.004234622
0.004512756
0.004781729
0.005037164
0.005276361
0.005497988
0.005701731
0.00588797
0.006057724
0.006212246
0.006355679
0.006493664
0.006627687
0.006758229
0.006885109
0.007007793
0.007125635
0.007237991
0.007344171
0.007443294
0.00753444
0.007618302
0.007696044
0.007768099
0.007780918
0.007750429
0.007735345
0.00773552
0.007751531
0.007785892
0.007842824
0.007928709
0.00804171
0.008114731
0.008099958
0.008073311
0.008033327
0.007979284
0.007913052
0.007836323
0.007750429
0.007656433
0.007554807
0.007432832
0.007320603
0.007208668
0.007093133
0.006972862
0.006847737
0.006717914
0.00658346
0.006444007
0.006299063
0.0061529
0.006008163
0.005865596
0.005725957
0.005590033
0.005458633
0.005332589
0.005212748
0.005099968
0.004995095
0.004898932
0.00481222
0.004735618
0.00466969
0.004614907
0.004571651
0.004540246
0.004520993
0.004514221
0.004520305
0.004539666
0.004572677
0.004619794
0.004681596
0.004758596
0.004851397
0.004960365
0.005085031
0.005224342
0.005376872
0.005540617
0.005713041
0.005891193
0.006071594
0.006250384
0.006423378
0.006586297
0.006735219
0.00686727
0.006981357
0.007078485
0.007161068
0.007231319
0.007289536
0.00733312
0.007357024
0.007355842
0.007326968
0.007273945
0.007208073
0.007146015
0.007103415
0.007088583
0.007102554
0.007141134
0.007191818
0.00723956
0.007272911
0.007284173
0.007270658
0.007201792
0.007103504
0.00697058
0.006794132
0.006558393
0.006247547
0.005848108
0.005379927
0.004903681
0.004460973
0.00404548
0.003634945
0.003223813
0.002832098
0.002489904
0.002219517
0.002029264
0.001911267
0.001718682
0.001531761
0.001472718
0.001490058
0.001553593
0.001646016
0.001762681
0.001901597
0.002058873
0.002230052
0.00239039
0.002465712
0.00253595
0.002601883
0.002665022
0.002727759
0.002792872
0.002863358
0.002942232
0.003032221
0.003135463
0.003253315
0.003386301
0.00353424
0.003696228
0.0038708
0.004055963
0.004249219
0.004448012
0.004649824
0.004852298
0.005053406
0.005251556
0.005445448
0.005634064
0.005816091
0.005990162
0.006155717
0.006311638
0.006457399
0.006595211
0.006724805
0.006845318
0.006955624
0.007054556
0.00714112
0.007214715
0.00727522
0.007323064
0.007359174
0.007384696
0.007400404
0.007407632
0.00740819
0.007403159
0.00739321
0.007378811
0.007360276
0.007337822
0.00731149
0.007281146
0.007246774
0.007209043
0.007168396
0.007125024
0.007079004
0.007030417
0.006979368
0.00692604
0.006870695
0.006813597
0.006755055
0.00669532
0.006634664
0.006573342
0.006511575
0.006449598
0.006387614
0.006325845
0.006264482
0.006203705
0.006143646
0.006084457
0.006026216
0.005969011
0.0059129
0.005857891
0.005803998
0.005751183
0.005699422
0.005648662
0.005598843
0.005549896
0.005501753
0.005454331
0.00540758
0.005361421
0.005315811
0.005270713
0.005226092
0.00518194
0.005138246
0.005095029
0.005052316
0.005010141
0.00496854
0.004927565
0.004887257
0.004847669
0.004808864
0.004770886
0.004733818
0.004697709
0.004662678
0.004628792
0.004596242
0.00456512
0.004535848
0.004508801
0.004484905
0.004465324
3.749285e-05
6.069007e-05
0.0001346141
0.0004544718
0.0007830429
0.001402928
0.001884364
0.002467885
0.003143855
0.003701534
0.004115306
0.004448772
0.004781609
0.005125392
0.005480661
0.005843598
0.006215495
0.006596404
0.006977918
0.007339567
0.0076831
0.008000481
0.008258984
0.008480558
0.008686044
0.008875771
0.009050733
0.009212361
0.009367374
0.009528025
0.009720286
0.01
0.01
0.01
0.01
0.009753822
0.00951216
0.009311628
0.009160947
0.009040119
0.008918215
0.008843927
0.008808197
0.008796984
0.008807146
0.008837657
0.008889109
0.008960639
0.009053804
0.009176789
0.009314912
0.009445946
0.009604302
0.009771606
0.009940413
0.01
0.01
0.01
0.01
0.01
0.01
0.01
0.01
0.01
0.01
0.01
0.01
0.01
0.01
0.01
0.01
0.01
0.01
0.01
0.01
0.01
0.01
0.01
0.01
0.009995451
0.009985375
0.00997563
0.009965585
0.009954831
0.00994315
0.009930528
0.009917195
0.009903613
0.009890706
0.009879679
0.009871291
0.009865635
0.00986223
0.009860021
0.009857828
0.009854748
0.009850378
0.009844999
0.009839333
0.009834205
0.009830409
0.009828336
0.009827996
0.00982883
0.009830231
0.009831471
0.009831848
0.009831983
0.009832875
0.009835497
0.009840264
0.009846624
0.009853254
0.009858674
0.00986144
0.009860274
0.009854021
0.009841724
0.00982295
0.009797963
0.009767932
0.009735967
0.009703358
0.009664844
0.009620483
0.009568258
0.00950718
0.009439862
0.009370058
0.009300191
0.009231887
0.009166718
0.009105637
0.009048459
0.008994066
0.008940876
0.008887136
0.008830989
0.008770709
0.008704669
0.008631501
0.008550229
0.008460422
0.008362264
0.008256621
0.008144937
0.008028884
0.007910471
0.007792326
0.007675584
0.007560946
0.007449182
0.007341658
0.007238348
0.007140854
0.007051184
0.006968781
0.006891322
0.006816425
0.006742274
0.006667701
0.006592094
0.006515409
0.006438248
0.006361896
0.006288238
0.006219571
0.006158341
0.006106951
0.006067594
0.006042099
0.00603176
0.006037298
0.006058584
0.006094023
0.006142483
0.006209709
0.006297059
0.006405828
0.006537194
0.00669201
0.006870541
0.007072074
0.007294399
0.007533517
0.007783864
0.008038896
0.00829162
0.008534796
0.008760508
0.008959124
0.009117018
0.009212413
0.009228051
0.00893753
0.008583436
0.008265022
0.007828146
0.007296918
0.006532985
0.005753903
0.005035579
0.004441681
0.00400824
0.003329209
0.002682959
0.002400089
0.002388167
0.002580895
0.002939747
0.00344364
0.004058038
0.004682115
0.004987887
0.005289092
0.005584656
0.005867413
0.006131557
0.006373154
0.006591216
0.006786139
0.006959772
0.007119345
0.007270081
0.007415235
0.007556552
0.007694695
0.007829653
0.007961033
0.008088079
0.00820942
0.008260024
0.008165998
0.008084548
0.008019057
0.007973134
0.007948433
0.007942395
0.007953048
0.007981722
0.008032835
0.008111134
0.008220879
0.008365951
0.008550836
0.008780966
0.009050342
0.009321374
0.009321748
0.009284371
0.009235
0.009175108
0.009105791
0.009027949
0.008941471
0.008848358
0.008749633
0.008645839
0.008537314
0.008424294
0.008306967
0.008185453
0.008059716
0.007929463
0.007793585
0.0076544
0.007513981
0.00737331
0.007233381
0.007095205
0.006959828
0.006828345
0.00670189
0.006581631
0.00646874
0.006364361
0.006269585
0.006185428
0.006112821
0.006052593
0.006005511
0.005972278
0.005953559
0.005949977
0.005962025
0.005989969
0.006033879
0.006095437
0.006175728
0.006275646
0.006395687
0.006535629
0.00669436
0.006869909
0.00705949
0.007259654
0.007466411
0.007675246
0.007881285
0.0080795
0.008264928
0.008433243
0.008581576
0.008709269
0.008818337
0.008912894
0.008996161
0.009068502
0.009126749
0.009165351
0.009178912
0.009165151
0.009128086
0.009079784
0.009037616
0.009016533
0.009022136
0.009052269
0.00909766
0.009141961
0.009172911
0.009184136
0.00917189
0.009134212
0.009068149
0.008973416
0.008848674
0.008689684
0.008487104
0.008233942
0.007925529
0.007567861
0.007178399
0.006767334
0.006325835
0.005838158
0.005298049
0.004719937
0.004138764
0.003598485
0.003137619
0.002780583
0.002529466
0.00237139
0.002288129
0.002218464
0.002048512
0.001957093
0.001935639
0.001973092
0.002054648
0.002170968
0.002319496
0.002502067
0.002714442
0.002920158
0.003007627
0.003097762
0.003193233
0.003296874
0.003411559
0.003539643
0.003682814
0.003841962
0.004017116
0.004207493
0.004411595
0.00462744
0.004852796
0.005084724
0.005319901
0.005554727
0.005785622
0.006009191
0.00622288
0.006425775
0.006617596
0.006798323
0.006968019
0.007126899
0.00727496
0.007412152
0.007540904
0.007662063
0.007775423
0.007880184
0.007975244
0.008059465
0.008131978
0.008192492
0.00824131
0.008279269
0.008308609
0.008311907
0.008175902
0.008085444
0.008038247
0.008026844
0.008045984
0.008090705
0.008156345
0.008236845
0.008322649
0.008321182
0.008301113
0.008277585
0.008250199
0.00821834
0.008182331
0.008142567
0.008099468
0.008053466
0.008004976
0.007954332
0.007901859
0.007847835
0.007792516
0.007736144
0.007678954
0.007621179
0.007563049
0.007504783
0.007446586
0.007388659
0.007331147
0.007274212
0.007217972
0.007162523
0.007107927
0.007054223
0.007001425
0.006949526
0.006898498
0.006848298
0.006798872
0.006750156
0.006702088
0.006654587
0.006607597
0.00656106
0.006514927
0.00646916
0.006423738
0.006378656
0.006333922
0.006289562
0.006245612
0.006202124
0.006159139
0.006116719
0.006074919
0.006033801
0.00599342
0.005953847
0.005915141
0.005877394
0.005840691
0.005805159
0.005770952
0.005738253
0.005707393
0.005678799
0.005655487
2.083358e-05
3.373669e-05
5.094711e-05
0.0002195934
0.0003601522
0.0006111791
0.0008598198
0.001088712
0.001377546
0.001661328
0.001969832
0.00237053
0.002849212
0.003395702
0.004017662
0.004821462
0.006357383
0.00699488
0.007617881
0.008181576
0.00868361
0.009121724
0.009511817
0.009867865
0.01
0.01
0.01
0.01
0.01
0.01
0.01
0.01
0.01
0.01
0.01
0.01
0.01
0.01
0.01
0.01
0.01
0.01
0.00999634
0.009655105
0.009300235
0.00897288
0.008673443
0.008413668
0.008196226
0.008022719
0.007888561
0.007779023
0.007705965
0.007670285
0.007664094
0.007680896
0.007717245
0.007773889
0.007850931
0.007949603
0.008072728
0.008225706
0.008399328
0.008596814
0.008819501
0.009055543
0.009289816
0.00951324
0.00973412
0.009977894
0.01
0.01
0.01
0.01
0.01
0.01
0.01
0.01
0.01
0.01
0.01
0.01
0.01
0.01
0.01
0.01
0.01
0.01
0.01
0.01
0.01
0.01
0.01
0.01
0.01
0.01
0.01
0.01
0.01
0.01
0.01
0.01
0.01
0.01
0.01
0.01
0.01
0.01
0.01
0.01
0.01
0.01
0.01
0.01
0.01
0.01
0.01
0.01
0.01
0.01
0.01
0.01
0.01
0.01
0.01
0.01
0.01
0.01
0.01
0.01
0.01
0.01
0.01
0.01
0.01
0.01
0.01
0.01
0.01
0.01
0.01
0.01
0.01
0.01
0.01
0.01
0.01
0.009978358
0.009928413
0.009876949
0.009822499
0.009763619
0.00969896
0.009627403
0.009548216
0.009461198
0.009366734
0.009265679
0.00915909
0.009048594
0.008935978
0.008822983
0.008711326
0.008602949
0.008499329
0.008401717
0.008311254
0.008228039
0.008150757
0.008077391
0.008005977
0.007934911
0.007863011
0.007789554
0.007714358
0.007637859
0.007561125
0.00748579
0.007413909
0.0073478
0.007289884
0.007242508
0.007207753
0.007187383
0.0071826
0.007193873
0.007220015
0.007264428
0.007331014
0.007421899
0.007538985
0.007683582
0.007856087
0.008055516
0.00827882
0.008520646
0.008774082
0.00903165
0.009285895
0.009530673
0.009760091
0.009967445
0.01
0.01
0.01
0.01
0.00983475
0.009240186
0.008710684
0.008345724
0.008016299
0.007631457
0.006839208
0.006019481
0.005315312
0.004775143
0.004408301
0.003883633
0.003237702
0.002916498
0.002868847
0.003020648
0.003322971
0.003730471
0.004205716
0.004718689
0.005231935
0.005714905
0.006144947
0.00641973
0.006675949
0.006910891
0.007122834
0.007312379
0.007484725
0.007645045
0.007797338
0.007944427
0.008088079
0.008229215
0.008367942
0.008475045
0.008385015
0.008301739
0.00823356
0.008185181
0.008161461
0.008159431
0.008175237
0.008206376
0.008255365
0.00833067
0.008440172
0.008588021
0.00877749
0.00901124
0.009280811
0.009577823
0.009879651
0.01
0.01
0.01
0.01
0.01
0.009955581
0.009896639
0.009830184
0.00975699
0.009677743
0.009592967
0.009503076
0.009408411
0.009309227
0.009205542
0.009097178
0.00898395
0.008865312
0.0087431
0.008618253
0.00849164
0.008364144
0.008236708
0.008110384
0.007986342
0.007865847
0.007750239
0.007640892
0.007539168
0.007446422
0.007363942
0.007292959
0.007234637
0.007190094
0.007160394
0.007146545
0.007149459
0.007169834
0.007208129
0.007266575
0.007346655
0.007449475
0.007575566
0.007724574
0.007894988
0.008084067
0.008288062
0.008502592
0.008722787
0.008943236
0.009158003
0.009362191
0.009550904
0.009720116
0.009867718
0.009994561
0.01
0.01000001
0.01000007
0.01000039
0.01000036
0.01000013
0.01000001
0.01
0.01
0.01000001
0.01000006
0.01000058
0.01000353
0.01000413
0.01000168
0.0100002
0.01000001
0.01
0.01
0.01
0.01
0.01
0.01000001
0.01000026
0.009903734
0.009707174
0.009480039
0.009222979
0.008936425
0.00861278
0.008235914
0.007789096
0.00726133
0.006653559
0.005983227
0.005286587
0.004614765
0.004020148
0.003539286
0.003183473
0.00294193
0.002793962
0.002718224
0.002697
0.002690048
0.002456156
0.002350015
0.00233098
0.0023731
0.002460008
0.002586906
0.002760805
0.002985086
0.003243414
0.003462329
0.003580958
0.00371429
0.003864846
0.004033958
0.004221998
0.004428095
0.00465038
0.004886328
0.005056432
0.005238749
0.005448711
0.005690537
0.005968311
0.006283304
0.006631898
0.006863684
0.007061902
0.007242983
0.007408636
0.00756064
0.007700718
0.00783028
0.007950199
0.008062781
0.008169561
0.008270738
0.008365631
0.008452999
0.008531359
0.008599411
0.008656483
0.008703193
0.008491303
0.008237046
0.008049366
0.007920761
0.007845282
0.007816009
0.007825378
0.007865946
0.007931463
0.008016839
0.008118201
0.008233796
0.008366187
0.008522397
0.008705658
0.00889577
0.008925981
0.00890703
0.0088827
0.008853817
0.008821094
0.008785104
0.0087463
0.008705042
0.008661636
0.008616357
0.008569462
0.008521203
0.008471829
0.00842159
0.008370727
0.008319475
0.008268057
0.008216674
0.008165507
0.008114715
0.008064425
0.008014738
0.007965727
0.007917436
0.007869883
0.007823065
0.007776956
0.007731515
0.007686689
0.007642414
0.007598623
0.007555247
0.007512223
0.007469492
0.007427006
0.007384734
0.00734266
0.007300785
0.007259131
0.007217732
0.007176636
0.007135895
0.007095568
0.007055711
0.007016386
0.006977648
0.00693956
0.006902185
0.0068656
0.006829894
0.006795168
0.006761565
0.006729197
0.006698357
0.006669462
0.006646311
1.875544e-05
2.885447e-05
5.664145e-05
0.0001712323
0.0002756127
0.0004374755
0.0005616559
0.0007029299
0.0008697548
0.001033544
0.001225674
0.001474849
0.001760544
0.002101925
0.002547502
0.003404911
0.003814608
0.00425884
0.004729736
0.005226519
0.005754739
0.006306005
0.006866144
0.007421287
0.007956116
0.008457357
0.00894242
0.009480755
0.009986879
0.01
0.01
0.01
0.01
0.01
0.01
0.01
0.01
0.01
0.01
0.01
0.01
0.01
0.01
0.01
0.01
0.01
0.01
0.01
0.01
0.01
0.009706713
0.009270587
0.008870373
0.008430551
0.008060258
0.007742816
0.007478147
0.007258322
0.007080758
0.006944026
0.006846219
0.006784901
0.006759612
0.006769552
0.006810412
0.00687556
0.006960607
0.007064961
0.00718796
0.007337709
0.007519953
0.007747273
0.008038849
0.008386366
0.008768732
0.009161714
0.009537351
0.009868165
0.01
0.01
0.01
0.01
0.01
0.01
0.01
0.01
0.01
0.01
0.01
0.01
0.01
0.01
0.01
0.01
0.01
0.01
0.01
0.01
0.01
0.01
0.01
0.01
0.01
0.01
0.01
0.01
0.01
0.01
0.01
0.01
0.01
0.01
0.01
0.01
0.01
0.01
0.01
0.01
0.01
0.01
0.01
0.01
0.01
0.01
0.01
0.01
0.01
0.01
0.01
0.01
0.01
0.01
0.01
0.01
0.01
0.01
0.01
0.01
0.01
0.01
0.01
0.01
0.01
0.01
0.01
0.01
0.01
0.01
0.01
0.01
0.01
0.01
0.01
0.01
0.01
0.01
0.01
0.01
0.01
0.01
0.01
0.01
0.01
0.01
0.01
0.01
0.01
0.01
0.009962858
0.009881831
0.009796025
0.009706989
0.009616615
0.009526984
0.009439965
0.009356996
0.00927902
0.009206308
0.009138166
0.009073208
0.009009849
0.008946633
0.008882369
0.008816195
0.00874764
0.008676692
0.008603849
0.008530145
0.008457115
0.008386713
0.008321204
0.008263019
0.008214593
0.008178278
0.008156158
0.008149962
0.008160676
0.008189059
0.008240797
0.00831893
0.008425858
0.00856294
0.008730157
0.008925586
0.00914453
0.009379363
0.009622053
0.009865162
0.01
0.01
0.01
0.01
0.01
0.01
0.01
0.01
0.01
0.01
0.009699894
0.009223912
0.009014001
0.008937507
0.008571416
0.007687825
0.006822181
0.006058092
0.005451527
0.005021457
0.004756615
0.004611903
0.003981754
0.003623703
0.00351517
0.003590727
0.003794538
0.004087928
0.004448664
0.004850385
0.005274343
0.005707712
0.006137209
0.006544514
0.006926836
0.00727916
0.007491023
0.007670257
0.00783445
0.007987755
0.008134325
0.008277481
0.008419517
0.008561524
0.008599849
0.008563506
0.008531593
0.008509334
0.008501534
0.008510642
0.00853751
0.008582151
0.008650282
0.008753045
0.008894008
0.009072373
0.009284151
0.009528037
0.009794019
0.01
0.01
0.01
0.01
0.01
0.01
0.01
0.01
0.01
0.01
0.01
0.01
0.01
0.01
0.01
0.01
0.009995626
0.009910895
0.009821719
0.00972775
0.009629427
0.009527422
0.009422272
0.009314506
0.009204567
0.009093334
0.008981893
0.008871466
0.008763398
0.008659111
0.00856009
0.00846783
0.008383852
0.008309671
0.008246793
0.008196702
0.00816087
0.008140749
0.008137741
0.008153123
0.008187803
0.008244416
0.008324789
0.00843014
0.008560868
0.008716234
0.008894013
0.009090336
0.009299998
0.009518263
0.009740129
0.009960302
0.01000005
0.0100001
0.01000006
0.01000001
0.01
0.01
0.01
0.01000003
0.01000035
0.01000051
0.01000046
0.01000016
0.01000001
0.01
0.01000001
0.01000014
0.01000138
0.01000761
0.0100117
0.01000654
0.01000112
0.01000005
0.01
0.01
0.01
0.01
0.01
0.01
0.01000002
0.01000002
0.01000003
0.01000026
0.01000611
0.01001498
0.01001373
0.009971792
0.009667992
0.009294944
0.0088388
0.008289831
0.007649963
0.006937054
0.006188437
0.005456827
0.004799472
0.004259347
0.003849381
0.003556791
0.003359426
0.003236228
0.003171248
0.003150356
0.003159039
0.002910913
0.002776455
0.002723958
0.002722224
0.002768702
0.002869045
0.003029657
0.003251319
0.003519376
0.003803401
0.004068827
0.004254588
0.004452364
0.004671442
0.004835767
0.004993155
0.005160645
0.005345868
0.005555775
0.005797083
0.006074502
0.006390423
0.006747482
0.007141344