/*--------------------------------*- C++ -*----------------------------------*\
| =========                 |                                                 |
| \\      /  F ield         | foam-extend: Open Source CFD                    |
|  \\    /   O peration     | Version:     3.1                                |
|   \\  /    A nd           | Web:         http://www.extend-project.de       |
|    \\/     M anipulation  |                                                 |
\*---------------------------------------------------------------------------*/
FoamFile
{
    version     2.0;
    format      ascii;
    class       volScalarField;
    location    "12";
    object      p;
}
// * * * * * * * * * * * * * * * * * * * * * * * * * * * * * * * * * * * * * //

dimensions      [1 -1 -2 0 0 0 0];

internalField   nonuniform List<scalar> 
119952
(
5540.025
4347.774
4227.511
4465.624
4705.017
4636.297
4657.991
4697.663
4750.397
4807.713
4868.185
4930.587
4993.821
5057.101
5119.581
5180.719
5240.17
5296.858
5344.538
5358.866
5607.961
5566.918
5600.722
5892.439
5933.267
6026.007
6088.344
6194.601
6387.52
8087.651
3017.414
2966.637
2968.422
2964.256
2963.654
2960.406
2964.095
2968.417
2974.054
2954.168
2935.429
2953.779
2953.82
2957.423
2962.228
2969.945
2980.076
2991.86
3006.606
3016.657
3025.782
3025.208
3041.241
3063.082
3086.471
3113.735
3144.4
3177.138
3218.577
3248.789
3293.409
3348.151
3405.701
3468.894
3537.731
3612.988
3701.851
3840.794
4051.709
3994.059
4051.812
4185.646
4283.43
4338.056
4376.031
4425.922
4482.562
4542.422
4604.632
4668.483
4732.93
4797.221
4860.887
4923.581
4985.011
5045.149
5105.356
5170.062
5246.776
5330.82
5400.421
5519.344
5659.333
5736.304
5796.502
5852.95
5862.143
5777.661
5821.687
5890.281
5948.896
6005.872
6060.099
6112.418
6163.885
6214.65
6264.448
6312.993
6360.322
6406.653
6452.296
6497.291
6541.471
6584.876
6627.512
6669.25
6709.832
6749.331
6787.67
6824.736
6860.292
6894.163
6926.257
6956.509
6984.885
7011.395
7036.223
7059.592
7081.808
7103.315
7124.705
7146.728
7170.347
7197.055
7227.768
7264.125
7306.185
7349.187
7379.432
7386.782
7400.817
7425.98
7446.248
7459.645
7457.412
7448.13
7434.318
7413.634
7379.681
7336.297
7286.909
7234.787
7183.73
7136.753
7095.567
7061.048
7033.596
7013.244
6999.82
6993.1
6992.854
6998.856
7010.88
7028.678
7051.628
7079.611
7112.042
7148.4
7188.081
7230.403
7274.66
7320.157
7366.21
7412.155
7457.348
7501.2
7543.215
7582.989
7620.179
7654.547
7685.831
7713.882
7738.612
7759.971
7777.975
7792.707
7804.163
7812.413
7817.801
7820.475
7820.631
7818.461
7814.183
7808.035
7800.282
7791.234
7782.688
7808.677
7796.885
7786.135
7775.385
7764.625
7754.059
7743.768
7733.775
7724.472
7715.547
7707.151
7699.321
7692.065
7685.394
7679.314
7673.821
7668.904
7664.562
7660.774
7657.518
7654.772
7652.513
7650.709
7649.328
7648.327
7647.661
7647.279
7647.122
7647.145
7647.201
7647.172
7646.893
7646.081
7644.164
7639.663
7632.419
7643.889
7653.292
7658.836
7664.225
7668.466
7672.012
7674.9
7677.141
7678.752
7679.744
7680.103
7679.843
7678.976
7677.543
7675.611
7673.259
7670.56
7667.546
7664.201
7660.466
7656.294
7651.72
7646.923
7642.242
7638.113
7634.947
7633.012
7632.364
7632.902
7634.502
7636.932
7639.906
7643.975
7646.905
7640.599
7640.22
7634.564
7644.564
7654.727
7670.765
7691.285
7711.185
7707.519
7678.061
7663.595
7682.605
7709.551
7728.216
7735.518
7738.502
7740.781
7741.859
7740.5
7735.132
7726.386
7716.089
7706.618
7699.426
7695.172
7693.678
7694.415
7696.863
7700.502
7704.823
7709.282
7713.468
7717.012
7719.609
7721.003
7721.067
7719.712
7716.73
7712.149
7705.743
7697.669
7687.907
7676.64
7663.917
7649.9
7634.652
7617.835
7600.346
7582.854
7565.637
7549.121
7533.738
7519.851
7507.815
7496.91
7490.577
7486.373
7485.26
7487.039
7491.811
7499.453
7509.705
7522.222
7536.584
7552.325
7568.954
7585.995
7603.016
7619.646
7635.588
7650.602
7664.517
7677.224
7688.66
7698.796
7707.635
7715.204
7721.55
7726.734
7730.823
7733.894
7736.037
7737.339
7737.88
7737.73
7736.954
7735.614
7733.77
7731.483
7728.807
7725.795
7722.495
7718.951
7715.201
7711.28
7707.219
7703.047
7698.786
7694.46
7690.088
7685.685
7681.267
7676.846
7672.431
7668.031
7663.654
7659.302
7654.981
7650.692
7646.437
7642.214
7638.024
7633.863
7629.73
7625.622
7621.533
7617.46
7613.398
7609.34
7605.281
7601.213
7597.127
7593.012
7588.856
7584.643
7580.354
7575.962
7571.434
7566.732
7561.794
7556.527
7550.785
7544.412
7537.071
7528.175
7517.207
7506.611
7512.264
7565.038
5620.88
5474.964
5302.791
5137.502
4975.903
4819.536
4669.13
4524.692
4386.295
4229.093
4098.927
3983.462
3867.993
3762.484
3664.312
3573.713
3491.635
3411.836
3294.787
3253.619
3187.758
3125.188
3075.035
3030.249
2989.594
2953.128
2919.541
2890.811
2868.296
2832.146
2810.206
2792.065
2774.757
2760.232
2747.141
2735.221
2726.424
2725.621
2701.668
2687.415
2683.715
2680.554
2677.506
2675.976
2675.584
2676.153
2677.35
2673.509
2677.223
2681.871
2685.277
2689.824
2696.638
2705.706
2717.613
2738.078
2677.469
2694.298
2715.476
2736.827
2758.118
2780.875
2806.498
2835.421
2867.705
2903.45
2945.732
2993.109
3044.259
3100.961
3165.261
3238.074
3321.031
3414.828
3516.355
3615.479
3695.103
3764.164
3843.146
3924.736
3997.313
4060.119
4119.712
4180.814
4244.417
4309.599
4375.26
4440.752
4505.834
4570.457
4634.713
4698.91
4763.809
4830.684
4901.245
4977.011
5057.894
5143.159
5232.989
5322.231
5398.414
5455.87
5495.556
5518.835
5535.528
5564.324
5610.689
5665.041
5720.677
5774.815
5827.414
5879.134
5930.189
5980.399
6029.493
6077.39
6124.15
6169.857
6214.528
6258.152
6300.722
6342.169
6382.542
6421.451
6459.329
6496.026
6531.303
6564.991
6596.966
6627.151
6655.491
6681.966
6706.62
6729.605
6751.163
6771.609
6791.377
6811.059
6831.374
6853.078
6877.322
6904.333
6934.154
6966.58
6997.51
7023.664
7043.753
7067.002
7093.547
7110.858
7126.702
7144.918
7161.189
7153.121
7116.293
7067.171
7016.72
6963.078
6908.552
6857.435
6811.563
6771.887
6739.468
6714.463
6696.414
6685.041
6680.102
6681.377
6688.647
6701.635
6719.923
6743.852
6772.417
6805.28
6841.931
6881.767
6924.106
6968.243
7013.483
7059.168
7104.66
7149.281
7192.404
7233.601
7272.544
7308.9
7342.377
7372.781
7399.983
7423.892
7444.464
7461.719
7475.741
7486.663
7494.605
7499.728
7502.253
7502.396
7500.254
7496.101
7490.247
7483.007
7474.474
7464.172
7522.654
7511.114
7501.644
7491.86
7481.904
7472.066
7462.469
7453.12
7444.23
7435.762
7427.911
7420.553
7413.724
7407.451
7401.743
7396.599
7392.014
7387.975
7384.466
7381.463
7378.944
7376.879
7375.236
7373.98
7373.067
7372.454
7372.089
7371.914
7371.856
7371.828
7371.719
7371.4
7370.763
7369.603
7368.335
7368.446
7372.296
7378.346
7382.998
7387.033
7390.494
7393.245
7395.384
7396.907
7397.826
7398.153
7397.906
7397.113
7395.822
7394.103
7392.037
7389.687
7387.07
7384.149
7380.855
7377.126
7372.993
7368.617
7364.33
7360.541
7357.699
7355.999
7355.309
7355.444
7356.168
7357.694
7359.599
7361.872
7364.817
7368.715
7310.08
7318.141
7326.176
7333.252
7340.114
7352.044
7364.805
7371.674
7376.863
7375.513
7372.237
7378.481
7398.653
7413.305
7422.379
7429.602
7437.615
7444.772
7444.884
7435.493
7421.103
7406.944
7396.275
7389.737
7386.673
7386.264
7387.843
7391.018
7395.199
7399.873
7404.521
7408.853
7412.551
7415.302
7416.938
7416.999
7415.539
7412.443
7407.639
7401.077
7392.765
7382.741
7371.084
7357.867
7343.196
7327.217
7310.141
7292.373
7274.434
7256.789
7239.883
7224.153
7210.037
7197.914
7188.062
7180.506
7176.026
7174.588
7176.238
7180.958
7188.606
7198.918
7211.541
7226.038
7241.917
7258.66
7275.772
7292.804
7309.406
7325.29
7340.196
7353.987
7366.581
7377.919
7387.975
7396.75
7404.275
7410.6
7415.784
7419.868
7422.933
7425.078
7426.402
7426.979
7426.877
7426.155
7424.875
7423.1
7420.891
7418.303
7415.387
7412.188
7408.747
7405.102
7401.286
7397.329
7393.256
7389.093
7384.86
7380.576
7376.258
7371.919
7367.573
7363.23
7358.897
7354.583
7350.292
7346.028
7341.794
7337.59
7333.417
7329.274
7325.16
7321.072
7317.007
7312.962
7308.931
7304.911
7300.896
7296.879
7292.854
7288.812
7284.744
7280.637
7276.48
7272.25
7267.933
7263.494
7258.909
7254.118
7249.09
7243.73
7238.057
7232.078
7226.328
7221.75
7220.327
7222.704
7229.494
3064.464
3104.017
3163.468
3236.84
3326.685
3431.478
3550.91
3684.403
3831.592
3989.437
4140.699
4317.298
4499.55
4686.938
4877.707
5069.527
5257.888
5441.846
5620.399
5777.832
5932.144
6073.353
6198.668
6303.964
6386.643
6445.343
6478.951
6486.533
6473.371
6432.341
6366.965
6280.725
6175.939
6054.752
5919.483
5772.511
5616.653
5454.972
5277.919
5111.109
4942.29
4775.975
4613.878
4456.973
4306.265
4162.483
4026.521
3897.325
3771.59
3656.239
3546.497
3443.623
3348.305
3260.166
3179.829
3115.583
2943.579
2883.107
2833.884
2785.905
2739.47
2696.49
2657.716
2622.845
2591.327
2562.181
2535.48
2512.823
2492.623
2474.036
2457.462
2443.164
2430.755
2419.815
2409.738
2399.992
2391.529
2383.86
2377.069
2371.819
2368.387
2366.597
2365.952
2365.876
2366.104
2367.296
2368.912
2370.866
2374.114
2379.355
2386.694
2395.938
2406.704
2419.166
2433.112
2449.517
2466.941
2484.561
2503.576
2524.937
2549.299
2576.691
2607.217
2641.865
2681.004
2725.212
2775.318
2832.237
2896.591
2969.228
3049.118
3136.022
3227.516
3322.092
3408.335
3484.953
3562.397
3643.772
3722.411
3793.692
3860.064
3925.875
3992.805
4060.353
4127.633
4194.239
4260.211
4325.817
4391.4
4457.429
4524.506
4593.397
4664.881
4739.65
4818.047
4897.845
4977.169
5055.264
5126.01
5183.54
5228.519
5265.684
5296.971
5329.989
5373.833
5426.608
5481.976
5536.612
5590.048
5642.734
5694.866
5746.24
5796.532
5845.532
5893.183
5939.498
5984.462
6028.036
6070.197
6110.943
6150.389
6188.596
6225.445
6260.842
6294.713
6326.94
6357.386
6385.974
6412.639
6437.354
6460.154
6481.167
6500.615
6518.794
6536.094
6553.038
6570.252
6588.37
6608.113
6629.785
6653.2
6678.572
6704.54
6728.253
6747.812
6769.021
6792.871
6814.637
6840.197
6864.435
6867.866
6858.13
6848.374
6824.284
6770.129
6705.581
6645.495
6593.061
6547.864
6509.702
6479.306
6456.353
6439.826
6429.577
6425.476
6427.339
6434.955
6448.073
6466.508
6490.167
6518.59
6551.322
6587.854
6627.594
6669.862
6713.934
6759.114
6804.772
6850.317
6895.026
6938.185
6979.362
7018.276
7054.607
7088.109
7118.593
7145.877
7169.823
7190.368
7207.524
7221.386
7232.092
7239.792
7244.732
7247.231
7247.597
7245.797
7241.942
7236.438
7229.589
7221.801
7213.605
7206.821
7197.472
7187.229
7177.084
7167.235
7157.638
7148.327
7139.395
7130.943
7122.92
7115.49
7108.538
7102.127
7096.284
7091.018
7086.325
7082.199
7078.624
7075.581
7073.043
7070.982
7069.363
7068.147
7067.292
7066.752
7066.478
7066.419
7066.519
7066.717
7066.95
7067.151
7067.274
7067.335
7067.493
7068.041
7069.472
7072.117
7075.583
7079.008
7081.951
7084.31
7086.082
7087.278
7087.899
7087.953
7087.467
7086.474
7085.021
7083.183
7081.056
7078.732
7076.289
7073.722
7070.916
7067.734
7064.038
7059.81
7055.31
7050.984
7047.354
7044.899
7043.962
7044.625
7046.383
7047.452
7049.38
7051.475
7052.912
7054.54
7056.767
7059.353
7062.605
7066.711
7072.944
7082.012
7092.193
7102.691
7111.454
7116.772
7117.828
7120.49
7129.272
7140.888
7152.518
7163.916
7175.007
7183.448
7186.276
7183.755
7177.519
7168.735
7159.634
7151.59
7145.841
7142.848
7142.599
7144.486
7147.835
7152.027
7156.652
7161.422
7166.055
7170.04
7172.96
7174.694
7175.006
7173.752
7170.831
7166.165
7159.7
7151.432
7141.389
7129.626
7116.221
7101.264
7084.931
7067.461
7049.209
7030.648
7012.285
6994.619
6978.091
6963.113
6950.077
6939.375
6931.236
6925.952
6923.715
6924.67
6928.822
6936.043
6946.093
6958.619
6973.174
6989.227
7006.216
7023.61
7040.884
7057.701
7073.847
7089.02
7103.03
7115.824
7127.346
7137.567
7146.49
7154.151
7160.614
7165.969
7170.242
7173.48
7175.807
7177.332
7178.097
7178.158
7177.581
7176.437
7174.794
7172.716
7170.257
7167.469
7164.397
7161.079
7157.553
7153.85
7149.999
7146.028
7141.958
7137.812
7133.609
7129.365
7125.095
7120.811
7116.525
7112.246
7107.98
7103.734
7099.513
7095.318
7091.152
7087.016
7082.908
7078.829
7074.776
7070.746
7066.737
7062.744
7058.763
7054.789
7050.817
7046.841
7042.852
7038.844
7034.807
7030.729
7026.597
7022.397
7018.109
7013.716
7009.196
7004.54
6999.761
6994.932
6990.251
6986.035
6982.784
6980.898
6981.221
6983.635
2918.021
2894.849
2868.249
2829.166
2804.938
2757.19
2751.92
2762.027
2784.746
2788.537
2776.578
2778.055
2799.156
2836.883
2890.647
2959.341
3042.887
3140.618
3252.536
3377.895
3515.658
3666.035
3826.617
3996.106
4172.843
4354.902
4540.256
4726.525
4911.434
5092.784
5269.66
5411.285
5570.674
5708.702
5828.363
5928.072
6005.712
6059.761
6089.034
6093.553
6074.206
6030.057
5961.823
5872.224
5764.199
5640.355
5503.01
5354.447
5196.997
5033.112
4865.389
4696.77
4529.084
4364.537
4204.978
4051.643
3905.301
3766.144
3634.378
3509.551
3390.881
3278.593
3173.064
3074.444
2982.804
2898.006
2819.828
2747.171
2676.816
2617.275
2567.313
2520.068
2474.788
2433.111
2395.566
2361.72
2330.804
2302.66
2277.571
2255.06
2235.039
2217.695
2202.632
2189.408
2177.64
2166.93
2157.146
2148.587
2140.592
2132.612
2126.076
2121.474
2118.315
2116.759
2116.305
2116.46
2117.032
2117.597
2118.279
2119.88
2123.006
2128.094
2135.354
2144.755
2156.097
2169.029
2183.036
2197.838
2213.213
2229.6
2247.823
2268.475
2291.033
2315.888
2342.969
2373.606
2408.891
2450.251
2498.424
2553.642
2615.942
2685.655
2762.822
2846.546
2934.805
3025.238
3113.2
3196.925
3279.663
3363.453
3445.673
3523.342
3596.852
3668.375
3739.201
3809.3
3878.235
3945.873
4012.5
4078.646
4144.86
4211.653
4279.509
4348.916
4420.292
4493.824
4569.082
4644.675
4719.055
4790.887
4856.984
4914.549
4963.574
5006.599
5045.777
5085.846
5131.91
5184.185
5239.387
5294.904
5349.895
5404.361
5458.263
5511.329
5563.22
5613.689
5662.616
5709.949
5755.646
5799.687
5842.081
5882.864
5922.09
5959.779
5995.853
6030.241
6062.832
6093.644
6122.552
6149.436
6174.217
6196.851
6217.367
6235.876
6252.564
6267.697
6281.64
6294.835
6307.8
6321.111
6335.395
6350.812
6367.193
6385.211
6404.296
6423.111
6440.358
6458.291
6477.92
6498.725
6520.742
6536.624
6544.012
6550.515
6544.917
6515.777
6475.802
6431.94
6378.801
6323.29
6275.209
6237.85
6210.073
6190.077
6176.434
6168.621
6166.507
6170.038
6178.955
6192.968
6212.064
6236.197
6264.961
6298.071
6334.994
6375.161
6417.875
6462.365
6507.921
6553.96
6599.96
6645.063
6688.554
6730.123
6769.398
6806.008
6839.757
6870.466
6897.926
6921.996
6942.604
6959.751
6973.499
6983.929
6991.198
6995.651
6997.663
6997.448
6995.166
6991.056
6985.463
6978.693
6971.142
6963.11
6954.741
6945.011
6934.931
6925.148
6915.665
6906.415
6897.442
6888.849
6880.716
6873.02
6865.82
6859.148
6853.05
6847.522
6842.579
6838.222
6834.443
6831.224
6828.546
6826.38
6824.695
6823.451
6822.605
6822.109
6821.914
6821.97
6822.225
6822.627
6823.124
6823.67
6824.233
6824.802
6825.404
6826.117
6827.089
6828.502
6830.497
6832.963
6835.431
6837.478
6838.96
6839.864
6840.202
6839.988
6839.227
6837.971
6836.285
6834.249
6831.981
6829.611
6827.248
6824.905
6822.567
6820.047
6817.167
6813.653
6809.431
6804.909
6800.579
6796.746
6793.792
6792.469
6793.05
6796.305
6800.909
6802.452
6803.669
6804.051
6804.441
6805.446
6807.227
6810.272
6815.483
6823.783
6829.067
6836.907
6844.987
6851.958
6858.193
6863.298
6868.711
6876.277
6884.029
6892.82
6901.126
6908.131
6914.589
6920.01
6922.125
6919.896
6913.256
6905.178
6898.937
6896.91
6897.39
6899.608
6902.769
6906.745
6911
6915.479
6920.007
6924.28
6928.01
6930.961
6932.878
6933.345
6932.106
6929.135
6924.379
6917.769
6909.312
6899.043
6887.012
6873.246
6857.794
6840.861
6822.723
6803.744
6784.395
6765.243
6746.794
6729.476
6713.737
6699.968
6688.53
6679.706
6673.816
6671.121
6671.748
6675.714
6682.919
6693.136
6706.017
6721.087
6737.762
6755.391
6773.403
6791.264
6808.554
6825.064
6840.599
6855.004
6868.156
6879.949
6890.347
6899.363
6907.046
6913.474
6918.72
6922.855
6925.994
6928.277
6929.863
6930.77
6930.957
6930.449
6929.341
6927.731
6925.691
6923.276
6920.537
6917.516
6914.253
6910.782
6907.134
6903.337
6899.418
6895.398
6891.3
6887.141
6882.94
6878.709
6874.464
6870.213
6865.967
6861.734
6857.519
6853.327
6849.161
6845.023
6840.914
6836.834
6832.783
6828.758
6824.758
6820.779
6816.818
6812.872
6808.937
6805.007
6801.077
6797.143
6793.197
6789.234
6785.244
6781.221
6777.156
6773.04
6768.869
6764.645
6760.385
6756.135
6751.987
6748.086
6744.649
6741.889
6740.128
6739.541
6740.203
3119.799
3094.666
3069.173
3019.377
2977.938
2902.05
2859.803
2817.247
2775.173
2733.774
2693.389
2655.478
2618.757
2584.884
2555.094
2529.14
2446.215
2434.457
2430.625
2430.562
2430.22
2434.364
2448.341
2475.264
2516.505
2572.111
2640.947
2724.73
2823.42
2936.425
3063.119
3202.533
3353.498
3515.011
3685.646
3863.371
4046.126
4231.954
4418.394
4603.578
4784.103
4956.26
5110.174
5262.81
5399.827
5519.052
5618.403
5696.175
5750.233
5779.061
5782.207
5760.398
5714.21
5644.712
5554.244
5445.714
5321.89
5185.032
5037.255
4880.655
4717.359
4549.704
4380.617
4213.053
4049.195
3890.283
3737.921
3593.57
3457.204
3328.273
3206.238
3090.649
2981.604
2879.227
2783.492
2694.26
2611.651
2535.103
2465.097
2401.602
2345.187
2295.546
2250.275
2208.079
2169.049
2133.296
2100.59
2070.56
2043.092
2018.199
1996.128
1977.412
1961.766
1948.158
1935.865
1924.56
1914.13
1904.638
1896.056
1887.956
1880.446
1874.355
1870.967
1868.759
1867.242
1867.025
1867.23
1867.524
1867.435
1867.209
1867.782
1870.086
1874.786
1882.209
1892.212
1904.064
1916.956
1930.676
1944.885
1959.385
1974.891
1991.845
2011.014
2031.188
2051.287
2073.06
2097.818
2128.026
2165.277
2209.992
2262.039
2321.518
2388.998
2464.42
2546.332
2633.037
2722.643
2812.922
2902.508
2991.534
3080.377
3167.918
3252.31
3332.867
3410.239
3485.2
3557.936
3628.348
3696.605
3763.309
3829.281
3895.273
3961.899
4029.657
4098.934
4169.915
4242.391
4315.645
4388.572
4459.709
4527.618
4590.675
4647.666
4698.588
4745.083
4789.516
4834.826
4883.743
4936.989
4993.172
5050.505
5107.938
5165.035
5221.492
5276.955
5331.067
5383.551
5434.234
5483.021
5529.863
5574.746
5617.681
5658.694
5697.827
5735.115
5770.57
5804.096
5835.621
5865.093
5892.407
5917.422
5940.027
5960.139
5977.764
5993.015
6006.045
6017.092
6026.557
6034.883
6042.493
6049.878
6057.489
6065.624
6074.753
6084.497
6095.756
6107.756
6120.061
6133.627
6147.901
6162.49
6178.374
6194.686
6210.15
6219.021
6214.132
6198.489
6174.156
6135.434
6087.988
6043.915
6005.737
5971.702
5943.935
5924.291
5912.601
5907.436
5907.724
5913.082
5923.361
5938.502
5958.518
5983.271
6012.858
6046.51
6083.924
6124.635
6167.902
6212.873
6258.812
6305.106
6351.168
6396.302
6439.997
6481.921
6521.58
6558.525
6592.503
6623.343
6650.873
6674.966
6695.537
6712.593
6726.217
6736.545
6743.724
6748
6749.706
6748.869
6745.803
6741.162
6735.239
6728.24
6720.403
6711.892
6702.85
6693.307
6683.602
6674.017
6664.634
6655.487
6646.645
6638.195
6630.214
6622.708
6615.694
6609.23
6603.345
6598.064
6593.38
6589.299
6585.818
6582.918
6580.582
6578.787
6577.495
6576.664
6576.244
6576.185
6576.431
6576.928
6577.627
6578.476
6579.432
6580.457
6581.523
6582.614
6583.742
6584.938
6586.267
6587.791
6589.545
6591.431
6593.169
6594.473
6595.192
6595.293
6594.802
6593.771
6592.241
6590.282
6587.972
6585.387
6582.684
6580.015
6577.548
6575.424
6573.606
6571.852
6569.658
6566.508
6562.164
6557.224
6552.054
6546.57
6541.512
6538.266
6540.246
6547.734
6556.574
6557.735
6557.799
6556.892
6555.934
6555.658
6556.38
6558.392
6561.903
6566.196
6574.182
6581.614
6588.022
6594.683
6603.031
6610.12
6615.978
6621.971
6627.526
6632.762
6637.728
6643.102
6649.207
6654.291
6656.308
6654.031
6649.956
6647.474
6645.506
6648.825
6651.152
6654.597
6659.554
6664.917
6669.976
6675.013
6679.695
6683.703
6687.091
6689.735
6691.327
6691.573
6690.244
6687.234
6682.39
6675.582
6666.879
6656.277
6643.746
6629.38
6613.301
6595.695
6576.85
6557.128
6536.956
6516.864
6497.489
6479.384
6462.91
6448.396
6436.226
6426.766
6420.366
6417.301
6417.682
6421.598
6428.963
6439.561
6453.048
6468.926
6486.517
6505.082
6523.854
6542.327
6560.291
6577.452
6593.584
6608.549
6622.15
6634.28
6644.913
6654.071
6661.81
6668.199
6673.287
6677.198
6680.115
6682.164
6683.457
6684.13
6684.276
6683.789
6682.665
6681.039
6678.997
6676.594
6673.875
6670.882
6667.652
6664.217
6660.606
6656.848
6652.967
6648.985
6644.923
6640.8
6636.633
6632.436
6628.222
6624.002
6619.786
6615.581
6611.394
6607.229
6603.09
6598.979
6594.896
6590.843
6586.818
6582.821
6578.849
6574.901
6570.973
6567.062
6563.166
6559.28
6555.4
6551.524
6547.646
6543.762
6539.869
6535.963
6532.042
6528.106
6524.16
6520.219
6516.312
6512.49
6508.832
6505.45
6502.482
6500.081
6498.422
6497.557
6497.505
3241.971
3212.008
3178.033
3131.448
3098.439
3030.041
2996.9
2963.492
2929.315
2894.242
2858.725
2822.891
2784.964
2746.296
2704.939
2596.252
2553.837
2511.679
2469.741
2428.301
2387.553
2348.284
2310.723
2275.233
2242.823
2214.882
2191.473
2173.441
2161.059
2153.626
2151.333
2156.67
2171.732
2198.143
2237.249
2290.154
2358.07
2440.343
2537.067
2648.09
2772.878
2910.537
3059.865
3219.521
3387.997
3563.571
3744.133
3927.911
4112.155
4294.503
4472.476
4643.125
4802.021
4951.635
5087.285
5205.172
5302.385
5377.03
5427.313
5451.935
5450.406
5423.323
5372.004
5298.284
5204.699
5094.161
4969.56
4832.974
4686.255
4531.098
4369.097
4203.177
4035.703
3869.314
3707.146
3550.768
3401.429
3260.582
3128.522
3004.219
2886.622
2775.603
2671.215
2573.271
2481.519
2395.836
2316.459
2243.479
2177.468
2118.157
2064.914
2017.673
1975.575
1937.031
1900.999
1867.162
1835.568
1806.254
1779.212
1754.653
1733.537
1716.813
1703.505
1691.495
1679.971
1668.946
1658.706
1649.557
1641.366
1633.835
1627.158
1621.949
1619.571
1618.511
1617.414
1617.032
1617.176
1617.264
1616.361
1614.591
1613.415
1614.451
1618.69
1626.521
1637.612
1650.5
1663.753
1677.784
1691.985
1705.586
1719.756
1735.235
1751.849
1769.234
1783.566
1797.346
1813.528
1836.968
1868.985
1909.328
1957.624
2014.281
2080.123
2154.618
2235.384
2321.823
2412.762
2506.426
2601.932
2698.222
2794.484
2889.566
2981.688
3069.488
3152.802
3232.062
3307.436
3378.936
3447.045
3512.883
3577.758
3642.681
3708.355
3775.332
3844.057
3914.664
3986.671
4058.996
4130.327
4199.298
4264.733
4325.684
4381.653
4433.036
4481.396
4528.876
4577.577
4629.261
4684.658
4743.125
4803.345
4864.156
4924.775
4984.637
5043.262
5100.244
5155.271
5208.133
5258.716
5306.975
5352.911
5396.555
5437.966
5477.215
5514.357
5549.404
5582.295
5612.934
5641.155
5666.859
5689.905
5710.13
5727.374
5741.591
5752.847
5761.312
5767.296
5771.191
5773.374
5774.338
5774.543
5774.274
5773.929
5774.157
5775.926
5779.499
5783.698
5787.948
5793.685
5801.891
5812.811
5826.498
5843.245
5860.055
5871.424
5876.614
5874.969
5861.423
5835.722
5803.802
5769.844
5736.03
5706.37
5684.059
5668.954
5659.603
5655.561
5656.549
5662.447
5673.346
5689.276
5710.086
5735.47
5765.219
5798.756
5836.279
5877.413
5921.156
5966.42
6012.491
6058.718
6104.427
6149.18
6192.691
6234.544
6274.251
6311.282
6345.309
6376.156
6403.671
6427.733
6448.196
6465.055
6478.439
6488.546
6495.583
6499.671
6500.982
6499.733
6496.315
6491.357
6485.151
6477.863
6469.695
6460.858
6451.602
6442.065
6432.396
6422.78
6413.355
6404.204
6395.397
6387.004
6379.081
6371.668
6364.798
6358.51
6352.829
6347.754
6343.294
6339.475
6336.3
6333.74
6331.779
6330.397
6329.557
6329.211
6329.303
6329.775
6330.565
6331.615
6332.871
6334.286
6335.816
6337.422
6339.073
6340.745
6342.429
6344.113
6345.809
6347.512
6349.187
6350.731
6351.94
6352.593
6352.565
6351.847
6350.502
6348.63
6346.346
6343.722
6340.768
6337.536
6334.254
6331.156
6328.49
6326.641
6325.756
6325.446
6324.251
6321.492
6316.782
6311.3
6305.321
6297.005
6288.877
6283.259
6290.875
6305.932
6314.728
6315.57
6313.561
6310.6
6307.775
6305.882
6305.066
6305.499
6307.742
6312.205
6319.112
6326.974
6336.006
6347.494
6355.24
6359.812
6364.527
6368.999
6372.327
6375.442
6378.743
6381.963
6384.963
6388.816
6392.907
6392.619
6390.556
6388.934
6390.914
6401.212
6405.519
6410.242
6416.099
6422.028
6427.635
6432.899
6437.659
6441.983
6445.73
6448.38
6449.685
6449.652
6448.091
6444.807
6439.694
6432.636
6423.588
6412.546
6399.491
6384.555
6367.914
6349.727
6330.254
6309.849
6288.93
6267.94
6247.529
6228.455
6211.203
6195.988
6183.108
6173.015
6166.102
6162.686
6162.851
6166.774
6174.379
6185.462
6199.699
6216.605
6235.266
6254.606
6273.929
6293.07
6311.888
6329.93
6346.806
6362.321
6376.327
6388.748
6399.577
6408.851
6416.644
6423.048
6428.159
6432.082
6434.951
6436.866
6437.898
6438.237
6438.083
6437.382
6436.133
6434.446
6432.378
6429.97
6427.263
6424.293
6421.091
6417.688
6414.113
6410.391
6406.546
6402.601
6398.575
6394.488
6390.355
6386.192
6382.011
6377.823
6373.638
6369.463
6365.306
6361.17
6357.059
6352.975
6348.92
6344.895
6340.898
6336.93
6332.988
6329.071
6325.177
6321.304
6317.448
6313.608
6309.781
6305.965
6302.159
6298.359
6294.567
6290.781
6287.005
6283.244
6279.51
6275.823
6272.215
6268.734
6265.443
6262.433
6259.796
6257.652
6256.069
6255.128
6254.734
3177.122
3135.318
3100.438
3054.513
3007.545
2964.7
2924.884
2888.178
2853.952
2819.611
2720.231
2687.452
2654.701
2621.268
2586.879
2551.502
2515.012
2477.095
2437.804
2397.761
2357.81
2316.059
2273.951
2231.742
2189.841
2148.373
2107.673
2068.012
2029.466
1992.645
1959.001
1930.406
1906.983
1888.896
1877.359
1873.55
1878.649
1893.995
1920.763
1959.862
2012.237
2078.611
2159.212
2254.156
2363.289
2486.123
2621.81
2769.218
2926.963
3093.332
3266.667
3444.629
3624.351
3804.266
3982.35
4156.196
4323.63
4481.036
4626.361
4756.987
4869.389
4960.69
5028.814
5072.137
5089.59
5080.808
5046.429
4988.116
4908.347
4810.249
4696.789
4571.096
4435.263
4290.534
4138.368
3979.795
3817.366
3653.885
3490.904
3330.797
3177.014
3032.186
2897.077
2771.376
2653.932
2543.482
2439.719
2342.433
2251.054
2165.078
2084.383
2009.345
1940.522
1878.562
1823.399
1774.459
1731.623
1694.121
1660.008
1627.718
1596.404
1566.198
1537.483
1510.507
1485.821
1465.798
1452.371
1442.526
1432.777
1422.206
1410.902
1400.184
1391.225
1383.908
1377.656
1372.233
1368.343
1367.185
1367.121
1366.572
1366.219
1366.486
1366.379
1364.209
1359.863
1356.056
1355.564
1359.614
1368.454
1381.477
1395.784
1408.619
1423.732
1439.448
1452.134
1465.056
1479.775
1493.823
1506.579
1514.126
1516.384
1519.965
1534.028
1560.081
1596.011
1640.314
1693.694
1757.991
1833.225
1914.159
2001.465
2094.147
2191.485
2294.423
2400.385
2506.992
2612.109
2713.361
2808.946
2898.483
2982.278
3060.253
3132.213
3198.937
3262.362
3324.617
3387.157
3450.881
3516.406
3584.263
3654.643
3726.829
3799.213
3870.026
3937.881
4001.82
4061.175
4115.714
4166.288
4214.731
4263.26
4313.856
4368.035
4426.365
4488.284
4552.553
4617.848
4683.061
4747.329
4809.996
4870.576
4928.72
4984.2
5036.914
5086.848
5134.045
5178.591
5220.595
5260.167
5297.387
5332.278
5364.786
5394.751
5421.939
5446.143
5467.162
5484.775
5498.751
5509.107
5515.909
5519.131
5519.028
5516.067
5510.701
5503.643
5495.326
5485.858
5475.685
5465.961
5458.92
5454.385
5450.151
5444.882
5440.087
5440.246
5448.219
5462.072
5479.107
5498.318
5517.944
5534.704
5544.325
5544.498
5536.984
5522.053
5501.255
5478.399
5456.977
5439.217
5426.06
5418.365
5416.39
5418.911
5425.692
5436.893
5452.677
5473.164
5498.006
5526.641
5559.463
5596.194
5636.703
5680.126
5725.103
5770.78
5816.588
5861.858
5906.079
5948.996
5990.208
6029.234
6065.699
6099.317
6129.839
6157.083
6180.939
6201.179
6217.736
6230.769
6240.461
6246.965
6250.437
6251.103
6249.392
6245.756
6240.538
6234.017
6226.423
6218.002
6208.975
6199.571
6189.952
6180.258
6170.641
6161.234
6152.13
6143.392
6135.081
6127.239
6119.929
6113.211
6107.095
6101.585
6096.702
6092.461
6088.877
6085.969
6083.741
6082.182
6081.266
6080.946
6081.165
6081.859
6082.961
6084.393
6086.089
6087.995
6090.065
6092.254
6094.522
6096.83
6099.145
6101.43
6103.653
6105.761
6107.697
6109.382
6110.708
6111.532
6111.686
6111.007
6109.463
6107.193
6104.453
6101.329
6097.828
6093.889
6089.625
6085.448
6081.767
6078.828
6077.347
6077.628
6079.112
6080.15
6078.043
6073.064
6067.678
6060.939
6051.177
6043.581
6047.75
6058.29
6071.696
6076.846
6075.351
6070.163
6064.248
6058.942
6055.417
6053.158
6051.941
6052.842
6056.706
6062.649
6070.547
6083.65
6100.012
6108.939
6111.768
6115.317
6117.636
6119.02
6120.231
6121.504
6123.029
6125.417
6129.372
6134.529
6138.652
6140.784
6141.098
6145.748
6153.201
6157.55
6163.847
6171.531
6178.275
6184.033
6189.381
6194.132
6198.341
6202.056
6204.905
6206.58
6206.796
6205.148
6201.553
6196.074
6188.682
6179.267
6167.838
6154.46
6139.207
6122.168
6103.497
6083.452
6062.388
6040.744
6019.015
5997.742
5977.602
5959.39
5943.431
5929.843
5919.101
5911.665
5907.93
5907.867
5911.824
5919.696
5931.286
5946.321
5964.23
5983.591
6003.36
6023.483
6043.719
6063.484
6082.299
6099.81
6115.802
6130.152
6142.811
6153.792
6163.159
6171.002
6177.427
6182.547
6186.476
6189.341
6191.235
6192.268
6192.532
6192.035
6190.965
6189.548
6187.791
6185.695
6183.286
6180.595
6177.65
6174.48
6171.115
6167.578
6163.897
6160.093
6156.19
6152.206
6148.159
6144.066
6139.941
6135.797
6131.645
6127.496
6123.355
6119.231
6115.127
6111.047
6106.994
6102.97
6098.974
6095.007
6091.069
6087.159
6083.275
6079.416
6075.58
6071.767
6067.974
6064.201
6060.447
6056.713
6052.999
6049.307
6045.64
6042.004
6038.408
6034.866
6031.401
6028.042
6024.833
6021.826
6019.092
6016.692
6014.723
6013.197
6012.226
6011.609
2922.906
2867.278
2752.763
2712.515
2673.074
2636.196
2601.6
2568.765
2537.056
2506.16
2476.008
2444.978
2413.285
2380.628
2346.971
2312.049
2275.751
2237.944
2198.491
2157.748
2116.856
2075.025
2032.572
1989.971
1947.424
1904.604
1861.369
1818.278
1776.201
1735.882
1698.736
1666.547
1640.151
1619.906
1606.855
1602.084
1606.626
1621.519
1647.711
1686.22
1737.707
1802.787
1881.865
1975.125
2082.415
2203.282
2336.874
2482.109
2637.432
2800.895
2969.917
3142.384
3316.427
3490.954
3664.842
3834.713
3997.329
4149.25
4287.562
4409.739
4512.907
4594.595
4652.917
4686.412
4694.254
4676.19
4632.978
4566.614
4479.739
4376.302
4259.364
4132.122
3997.53
3856.591
3709.615
3558.014
3401.929
3242.549
3083.012
2926.185
2776.315
2637.215
2509.505
2392.029
2283.24
2181.745
2086.988
1998.612
1915.644
1837.025
1762.395
1692.182
1627.475
1569.582
1518.731