/*--------------------------------*- C++ -*----------------------------------*\
| =========                 |                                                 |
| \\      /  F ield         | foam-extend: Open Source CFD                    |
|  \\    /   O peration     | Version:     3.1                                |
|   \\  /    A nd           | Web:         http://www.extend-project.de       |
|    \\/     M anipulation  |                                                 |
\*---------------------------------------------------------------------------*/
FoamFile
{
    version     2.0;
    format      ascii;
    class       volScalarField;
    location    "12";
    object      pd;
}
// * * * * * * * * * * * * * * * * * * * * * * * * * * * * * * * * * * * * * //

dimensions      [1 -1 -2 0 0 0 0];

internalField   nonuniform List<scalar> 
119952
(
5570.72
4385.189
4264.304
4499.15
4735.729
4667.649
4689.955
4730.241
4783.588
4841.518
4902.602
4965.617
5029.465
5093.357
5156.45
5218.202
5278.266
5335.567
5383.859
5398.801
5643.25
5602.468
5636.53
5923.1
5963.929
6056.669
6119.006
6225.263
6418.215
8118.346
3307.9
3253.581
3252.099
3244.666
3240.797
3234.278
3234.704
3235.758
3238.127
3216.093
3211.335
3229.685
3229.726
3233.33
3238.134
3245.851
3255.982
3267.766
3282.513
3323.22
3332.344
3331.77
3347.803
3369.644
3393.033
3420.297
3450.962
3483.701
3525.139
3555.351
3599.971
3654.713
3712.264
3775.456
3844.293
3919.55
4008.413
4147.357
4358.271
4300.621
4358.374
4492.208
4589.992
4644.619
4682.593
4732.485
4789.125
4848.985
4911.195
4975.046
5039.492
5103.783
5167.45
5230.143
5291.573
5351.711
5411.918
5476.624
5553.338
5637.382
5706.984
5825.906
5965.896
6042.866
6103.065
6159.512
6168.706
6084.223
6128.249
6196.843
6255.458
6312.435
6366.662
6418.98
6470.447
6521.213
6571.011
6619.555
6666.884
6713.215
6758.859
6803.854
6848.034
6891.439
6934.075
6975.812
7016.395
7055.893
7094.233
7131.299
7166.855
7200.725
7232.82
7263.071
7291.448
7317.958
7342.786
7366.154
7388.37
7409.878
7431.268
7453.291
7476.909
7503.617
7534.331
7570.687
7612.748
7655.749
7685.995
7693.344
7707.379
7732.543
7752.81
7766.208
7763.974
7754.693
7740.88
7720.197
7686.243
7642.86
7593.472
7541.35
7490.293
7443.316
7402.129
7367.61
7340.158
7319.806
7306.383
7299.662
7299.417
7305.419
7317.442
7335.24
7358.191
7386.173
7418.604
7454.963
7494.643
7536.965
7581.222
7626.719
7672.772
7718.717
7763.911
7807.762
7849.777
7889.551
7926.742
7961.11
7992.393
8020.445
8045.175
8066.534
8084.537
8099.27
8110.726
8118.976
8124.364
8127.038
8127.194
8125.023
8120.745
8114.597
8106.844
8097.796
8089.25
8084.584
8072.791
8062.041
8051.291
8040.531
8029.965
8019.675
8009.681
8000.378
7991.453
7983.058
7975.227
7967.971
7961.3
7955.22
7949.727
7944.811
7940.468
7936.68
7933.424
7930.678
7928.419
7926.616
7925.234
7924.233
7923.567
7923.186
7923.028
7923.051
7923.107
7923.079
7922.8
7921.988
7920.07
7915.569
7908.325
7919.795
7929.198
7934.743
7940.131
7944.372
7947.918
7950.806
7953.047
7954.659
7955.65
7956.009
7955.749
7954.882
7953.449
7951.517
7949.166
7946.466
7943.452
7940.107
7936.372
7932.2
7927.627
7922.829
7918.148
7914.02
7910.853
7908.919
7908.271
7908.808
7910.408
7912.838
7915.812
7919.882
7922.811
7947.147
7946.782
7941.127
7951.126
7961.289
7977.327
7997.848
8017.747
8014.081
7984.624
7970.157
7989.168
8016.113
8034.779
8042.081
8045.064
8047.344
8048.422
8047.062
8041.695
8032.949
8022.651
8013.181
8005.988
8001.735
8000.24
8000.978
8003.426
8007.064
8011.385
8015.845
8020.03
8023.574
8026.171
8027.566
8027.63
8026.275
8023.293
8018.711
8012.305
8004.232
7994.47
7983.202
7970.48
7956.462
7941.215
7924.397
7906.909
7889.417
7872.2
7855.684
7840.301
7826.414
7814.377
7803.472
7797.139
7792.935
7791.823
7793.602
7798.373
7806.015
7816.268
7828.784
7843.147
7858.887
7875.516
7892.558
7909.578
7926.209
7942.15
7957.164
7971.08
7983.787
7995.223
8005.359
8014.198
8021.767
8028.113
8033.297
8037.385
8040.457
8042.6
8043.901
8044.442
8044.292
8043.516
8042.176
8040.333
8038.045
8035.369
8032.357
8029.058
8025.513
8021.763
8017.842
8013.782
8009.609
8005.349
8001.023
7996.65
7992.247
7987.829
7983.408
7978.994
7974.594
7970.216
7965.865
7961.544
7957.255
7952.999
7948.777
7944.586
7940.426
7936.293
7932.184
7928.096
7924.023
7919.96
7915.903
7911.844
7907.775
7903.689
7899.574
7895.419
7891.206
7886.916
7882.524
7877.997
7873.294
7868.357
7863.09
7857.348
7850.975
7843.634
7834.737
7823.77
7813.173
7818.827
7871.6
6154.723
6005.524
5830.085
5661.528
5496.662
5337.028
5183.354
5035.649
4894.148
4750.249
4620.083
4504.618
4389.15
4283.64
4185.468
4094.87
4012.791
3932.992
3846.599
3805.432
3739.571
3677
3626.848
3582.061
3541.407
3504.94
3471.354
3442.624
3420.108
3383.959
3362.019
3343.877
3326.57
3312.045
3298.954
3287.033
3278.236
3277.434
3253.48
3239.227
3235.528
3232.367
3229.319
3227.789
3227.396
3227.965
3229.163
3225.322
3229.036
3233.683
3237.09
3241.636
3248.45
3257.519
3269.425
3289.89
3290.594
3307.423
3328.601
3349.952
3371.243
3394
3419.623
3448.546
3480.83
3516.575
3558.857
3606.234
3657.384
3714.086
3778.386
3851.199
3934.156
4027.953
4129.48
4228.604
4308.228
4377.289
4456.271
4537.861
4610.438
4673.244
4732.837
4793.939
4857.542
4922.724
4988.385
5053.877
5118.959
5183.582
5247.838
5312.035
5376.934
5443.809
5514.37
5590.136
5671.019
5756.284
5846.114
5935.356
6011.539
6068.995
6108.681
6131.96
6148.653
6177.449
6223.814
6278.166
6333.802
6387.94
6440.539
6492.259
6543.314
6593.524
6642.618
6690.515
6737.275
6782.982
6827.653
6871.277
6913.847
6955.294
6995.667
7034.576
7072.454
7109.151
7144.428
7178.116
7210.091
7240.276
7268.616
7295.091
7319.745
7342.73
7364.288
7384.734
7404.502
7424.184
7444.499
7466.203
7490.447
7517.458
7547.279
7579.705
7610.635
7636.789
7656.878
7680.127
7706.672
7723.983
7739.827
7758.043
7774.314
7766.246
7729.418
7680.296
7629.845
7576.203
7521.677
7470.56
7424.688
7385.012
7352.593
7327.588
7309.539
7298.166
7293.227
7294.502
7301.772
7314.76
7333.048
7356.977
7385.542
7418.405
7455.056
7494.892
7537.231
7581.368
7626.608
7672.293
7717.785
7762.406
7805.529
7846.726
7885.669
7922.025
7955.502
7985.906
8013.108
8037.017
8057.589
8074.844
8088.866
8099.788
8107.73
8112.853
8115.378
8115.521
8113.379
8109.226
8103.371
8096.132
8087.599
8077.297
8074.467
8062.926
8053.457
8043.673
8033.717
8023.878
8014.281
8004.932
7996.043
7987.574
7979.723
7972.365
7965.537
7959.264
7953.556
7948.412
7943.826
7939.788
7936.278
7933.276
7930.756
7928.691
7927.049
7925.792
7924.88
7924.267
7923.902
7923.727
7923.669
7923.641
7923.531
7923.213
7922.575
7921.416
7920.147
7920.258
7924.108
7930.158
7934.811
7938.845
7942.306
7945.058
7947.197
7948.719
7949.638
7949.966
7949.719
7948.926
7947.634
7945.915
7943.849
7941.499
7938.882
7935.962
7932.668
7928.938
7924.805
7920.429
7916.142
7912.353
7909.511
7907.811
7907.115
7907.255
7907.98
7909.507
7911.41
7913.668
7916.62
7920.527
7923.151
7931.191
7939.263
7946.358
7953.214
7965.121
7977.859
7984.721
7989.918
7988.599
7985.334
7991.588
8011.771
8026.429
8035.504
8042.726
8050.739
8057.896
8058.009
8048.618
8034.228
8020.069
8009.4
8002.862
7999.798
7999.389
8000.968
8004.143
8008.324
8012.998
8017.646
8021.978
8025.676
8028.427
8030.063
8030.124
8028.664
8025.568
8020.764
8014.202
8005.89
7995.866
7984.209
7970.992
7956.321
7940.342
7923.266
7905.498
7887.559
7869.914
7853.008
7837.278
7823.162
7811.039
7801.187
7793.631
7789.151
7787.713
7789.363
7794.083
7801.731
7812.043
7824.666
7839.163
7855.042
7871.785
7888.897
7905.929
7922.531
7938.415
7953.321
7967.112
7979.706
7991.044
8001.1
8009.875
8017.4
8023.725
8028.909
8032.993
8036.058
8038.203
8039.527
8040.104
8040.002
8039.28
8038
8036.225
8034.016
8031.428
8028.512
8025.313
8021.872
8018.227
8014.411
8010.454
8006.381
8002.218
7997.985
7993.701
7989.383
7985.044
7980.698
7976.355
7972.022
7967.708
7963.417
7959.153
7954.919
7950.715
7946.542
7942.399
7938.285
7934.197
7930.132
7926.087
7922.056
7918.036
7914.021
7910.004
7905.979
7901.937
7897.869
7893.762
7889.605
7885.375
7881.058
7876.619
7872.034
7867.243
7862.215
7856.855
7851.182
7845.203
7839.453
7834.875
7833.452
7835.829
7842.619
3845.45
3881.462
3937.645
4007.75
4094.327
4195.849
4312.018
4442.243
4586.166
4741.861
4907.105
5083.704
5265.956
5453.344
5644.113
5835.933
6024.294
6208.252
6386.805
6574.895
6729.207
6870.415
6995.731
7101.026
7183.705
7242.405
7276.013
7283.595
7270.434
7229.403
7164.028
7077.788
6973.001
6851.814
6716.546
6569.574
6413.716
6252.034
6074.981
5908.171
5739.353
5573.037
5410.941
5254.035
5103.328
4959.545
4823.583
4694.388
4568.652
4453.302
4343.56
4240.686
4145.368
4057.229
3976.891
3912.645
3801.954
3741.482
3692.259
3644.28
3597.845
3554.865
3516.091
3481.22
3449.702
3420.556
3393.855
3371.198
3350.998
3332.411
3315.837
3301.539
3289.13
3278.19
3268.113
3258.367
3249.904
3242.235
3235.444
3230.194
3226.762
3224.972
3224.327
3224.251
3224.479
3225.671
3227.287
3229.241
3232.489
3237.73
3245.069
3254.313
3265.079
3277.541
3291.487
3307.892
3325.316
3342.936
3361.951
3383.312
3407.674
3435.066
3465.592
3500.24
3539.379
3583.587
3633.693
3690.612
3754.966
3827.603
3907.493
3994.397
4085.891
4180.467
4266.71
4343.328
4420.772
4502.147
4580.786
4652.067
4718.439
4784.25
4851.18
4918.728
4986.008
5052.614
5118.586
5184.192
5249.775
5315.804
5382.881
5451.772
5523.256
5598.025
5676.422
5756.22
5835.544
5913.639
5984.385
6041.915
6086.894
6124.059
6155.346
6188.364
6232.208
6284.983
6340.351
6394.987
6448.423
6501.109
6553.241
6604.614
6654.907
6703.907
6751.558
6797.873
6842.837
6886.411
6928.572
6969.318
7008.764
7046.971
7083.82
7119.217
7153.088
7185.315
7215.761
7244.349
7271.014
7295.729
7318.529
7339.542
7358.99
7377.169
7394.469
7411.413
7428.627
7446.745
7466.488
7488.16
7511.575
7536.947
7562.915
7586.628
7606.187
7627.396
7651.246
7673.012
7698.572
7722.81
7726.241
7716.505
7706.749
7682.659
7628.504
7563.956
7503.87
7451.436
7406.239
7368.077
7337.681
7314.728
7298.201
7287.952
7283.851
7285.714
7293.33
7306.448
7324.883
7348.542
7376.965
7409.697
7446.229
7485.969
7528.237
7572.309
7617.489
7663.146
7708.692
7753.401
7796.56
7837.737
7876.651
7912.982
7946.484
7976.968
8004.252
8028.198
8048.743
8065.899
8079.761
8090.466
8098.167
8103.107
8105.606
8105.972
8104.172
8100.317
8094.813
8087.964
8080.176
8071.98
8065.195
8055.847
8045.604
8035.459
8025.61
8016.013
8006.702
7997.77
7989.318
7981.294
7973.865
7966.913
7960.502
7954.659
7949.393
7944.7
7940.574
7936.999
7933.956
7931.418
7929.357
7927.738
7926.522
7925.667
7925.127
7924.853
7924.794
7924.894
7925.092
7925.325
7925.526
7925.649
7925.71
7925.868
7926.416
7927.847
7930.492
7933.958
7937.383
7940.326
7942.685
7944.457
7945.653
7946.274
7946.328
7945.842
7944.849
7943.396
7941.558
7939.431
7937.107
7934.664
7932.096
7929.288
7926.098
7922.386
7918.156
7913.667
7909.356
7905.729
7903.274
7902.335
7902.983
7904.65
7905.196
7906.04
7908.391
7910.8
7912.859
7915.138
7917.724
7920.975
7925.048
7930.919
7937.528
7945.153
7957.417
7968.94
7975.089
7976.197
7978.858
7987.64
7999.26
8010.892
8022.289
8033.368
8041.808
8044.64
8042.125
8035.892
8027.108
8018.006
8009.962
8004.213
8001.221
8000.974
8002.861
8006.21
8010.402
8015.027
8019.797
8024.43
8028.415
8031.335
8033.069
8033.381
8032.127
8029.206
8024.54
8018.075
8009.807
7999.764
7988.001
7974.596
7959.639
7943.306
7925.836
7907.584
7889.023
7870.66
7852.994
7836.466
7821.489
7808.452
7797.75
7789.611
7784.327
7782.09
7783.045
7787.197
7794.418
7804.468
7816.994
7831.549
7847.602
7864.591
7881.985
7899.259
7916.076
7932.222
7947.395
7961.405
7974.199
7985.721
7995.942
8004.865
8012.526
8018.989
8024.344
8028.617
8031.855
8034.182
8035.707
8036.472
8036.533
8035.956
8034.812
8033.169
8031.091
8028.632
8025.844
8022.772
8019.454
8015.928
8012.225
8008.374
8004.403
8000.333
7996.187
7991.984
7987.74
7983.47
7979.186
7974.9
7970.621
7966.355
7962.11
7957.888
7953.693
7949.527
7945.391
7941.283
7937.204
7933.151
7929.121
7925.112
7921.119
7917.138
7913.164
7909.192
7905.216
7901.227
7897.219
7893.182
7889.104
7884.972
7880.772
7876.484
7872.091
7867.571
7862.915
7858.136
7853.307
7848.626
7844.41
7841.159
7839.273
7839.596
7842.01
3935.225
3900.499
3870.426
3840.823
3816.595
3799.503
3794.233
3804.34
3827.059
3830.85
3818.891
3820.367
3841.469
3879.195
3932.959
4001.654
4085.2
4182.931
4294.848
4420.207
4557.971
4708.348
4868.93
5038.419
5215.155
5397.215
5582.568
5768.838
5953.747
6135.096
6311.973
6514.91
6674.299
6812.327
6931.988
7031.697
7109.337
7163.386
7192.659
7197.178
7177.831
7133.682
7065.448
6975.849
6867.824
6743.98
6606.635
6458.072
6300.622
6136.737
5969.014
5800.395
5632.709
5468.162
5308.603
5155.268
5008.926
4869.768
4738.003
4613.176
4494.506
4382.218
4276.689
4178.069
4086.429
4001.631
3923.453
3850.796
3780.441
3720.9
3670.938
3623.693
3578.413
3536.736
3499.191
3465.345
3434.429
3406.285
3381.196
3358.685
3338.664
3321.32
3306.257
3293.033
3281.265
3270.555
3260.771
3252.212
3244.217
3236.237
3229.701
3225.099
3221.94
3220.384
3219.93
3220.085
3220.657
3221.222
3221.904
3223.504
3226.631
3231.719
3238.979
3248.38
3259.722
3272.654
3286.661
3301.463
3316.838
3333.225
3351.448
3372.1
3394.658
3419.513
3446.594
3477.231
3512.516
3553.876
3602.049
3657.267
3719.567
3789.28
3866.447
3950.171
4038.43
4128.863
4216.825
4300.55
4383.288
4467.078
4549.298
4626.967
4700.477
4772
4842.826
4912.925
4981.86
5049.498
5116.125
5182.271
5248.485
5315.278
5383.134
5452.541
5523.917
5597.449
5672.707
5748.3
5822.68
5894.512
5960.609
6018.174
6067.199
6110.224
6149.402
6189.471
6235.535
6287.81
6343.012
6398.529
6453.52
6507.986
6561.888
6614.954
6666.845
6717.314
6766.241
6813.574
6859.271
6903.312
6945.706
6986.489
7025.715
7063.404
7099.478
7133.866
7166.457
7197.269
7226.177
7253.061
7277.842
7300.476
7320.992
7339.501
7356.189
7371.322
7385.265
7398.46
7411.425
7424.736
7439.02
7454.437
7470.818
7488.836
7507.921
7526.736
7543.983
7561.915
7581.545
7602.35
7624.366
7640.249
7647.636
7654.139
7648.542
7619.402
7579.427
7535.565
7482.426
7426.915
7378.834
7341.475
7313.698
7293.702
7280.059
7272.246
7270.132
7273.663
7282.58
7296.593
7315.689
7339.822
7368.586
7401.696
7438.619
7478.786
7521.5
7565.99
7611.546
7657.585
7703.585
7748.688
7792.179
7833.748
7873.023
7909.633
7943.382
7974.09
8001.551
8025.621
8046.229
8063.376
8077.124
8087.553
8094.823
8099.276
8101.288
8101.073
8098.791
8094.681
8089.088
8082.318
8074.767
8066.735
8058.366
8048.636
8038.556
8028.773
8019.29
8010.04
8001.067
7992.474
7984.341
7976.645
7969.445
7962.773
7956.675
7951.147
7946.204
7941.847
7938.068
7934.849
7932.17
7930.005
7928.32
7927.076
7926.23
7925.734
7925.539
7925.595
7925.85
7926.252
7926.749
7927.295
7927.858
7928.427
7929.029
7929.742
7930.714
7932.127
7934.122
7936.588
7939.056
7941.103
7942.585
7943.489
7943.827
7943.613
7942.852
7941.595
7939.908
7937.871
7935.603
7933.235
7930.872
7928.524
7926.135
7923.386
7920.271
7916.839
7912.902
7908.517
7904.203
7900.369
7897.404
7895.98
7895.646
7893.026
7895.082
7900.978
7906.382
7907.633
7908.061
7909.066
7910.848
7913.887
7918.92
7922.98
7917.077
7924.7
7941.34
7954.508
7961.755
7966.898
7972.311
7979.878
7987.634
7996.439
8004.749
8011.748
8018.126
8023.49
8025.643
8023.463
8016.835
8008.752
8002.5
8000.478
8000.994
8003.231
8006.394
8010.37
8014.625
8019.104
8023.632
8027.905
8031.635
8034.586
8036.503
8036.97
8035.731
8032.76
8028.004
8021.394
8012.937
8002.668
7990.637
7976.871
7961.419
7944.486
7926.348
7907.369
7888.02
7868.868
7850.419
7833.101
7817.362
7803.593
7792.155
7783.331
7777.441
7774.746
7775.373
7779.339
7786.544
7796.761
7809.642
7824.712
7841.387
7859.016
7877.028
7894.889
7912.179
7928.689
7944.224
7958.629
7971.781
7983.574
7993.972
8002.988
8010.671
8017.099
8022.345
8026.48
8029.619
8031.902
8033.488
8034.395
8034.582
8034.074
8032.966
8031.356
8029.316
8026.901
8024.162
8021.141
8017.878
8014.407
8010.759
8006.962
8003.043
7999.023
7994.925
7990.766
7986.565
7982.334
7978.089
7973.838
7969.592
7965.359
7961.144
7956.952
7952.786
7948.648
7944.539
7940.459
7936.408
7932.383
7928.383
7924.404
7920.443
7916.497
7912.562
7908.632
7904.702
7900.768
7896.822
7892.859
7888.869
7884.846
7880.781
7876.665
7872.494
7868.27
7864.01
7859.76
7855.612
7851.711
7848.274
7845.514
7843.753
7843.166
7843.828
4388.144
4351.293
4314.776
4276.283
4234.844
4189.613
4147.366
4104.81
4062.735
4021.337
3980.951
3943.041
3906.32
3872.447
3842.656
3816.703
3795.09
3783.332
3779.5
3779.437
3779.095
3783.239
3797.216
3824.139
3865.38
3920.986
3989.822
4073.605
4172.295
4285.3
4411.994
4551.408
4702.373
4863.886
5034.521
5212.246
5395.001
5580.829
5767.269
5952.453
6132.978
6305.135
6459.049
6611.685
6748.702
6867.927
6967.278
7045.05
7099.108
7127.936
7131.082
7109.273
7063.085
6993.587
6903.119
6794.589
6670.765
6533.907
6386.13
6229.53
6066.234
5898.579
5729.492
5561.928
5398.07
5239.158
5086.796
4942.445
4806.079
4677.148
4555.112
4439.523
4330.478
4228.102
4132.366
4043.135
3960.526
3883.978
3813.972
3750.477
3694.062
3644.421
3599.15
3556.954
3517.924
3482.171
3449.465
3419.435
3391.967
3367.074
3345.003
3326.287
3310.641
3297.033
3284.74
3273.435
3263.005
3253.513
3244.931
3236.83
3229.321
3223.23
3219.842
3217.634
3216.117
3215.9
3216.105
3216.399
3216.31
3216.084
3216.657
3218.961
3223.661
3231.084
3241.087
3252.939
3265.831
3279.551
3293.76
3308.26
3323.766
3340.72
3359.889
3380.063
3400.162
3421.935
3446.693
3476.901
3514.152
3558.867
3610.914
3670.393
3737.873
3813.295
3895.207
3981.912
4071.518
4161.797
4251.382
4340.408
4429.252
4516.793
4601.185
4681.742
4759.114
4834.075
4906.811
4977.223
5045.48
5112.184
5178.156
5244.148
5310.774
5378.532
5447.809
5518.79
5591.266
5664.52
5737.447
5808.584
5876.493
5939.55
5996.541
6047.463
6093.958
6138.391
6183.701
6232.618
6285.864
6342.047
6399.379
6456.813
6513.91
6570.367
6625.83
6679.942
6732.426
6783.109
6831.896
6878.738
6923.621
6966.556
7007.569
7046.702
7083.99
7119.445
7152.971
7184.496
7213.968
7241.282
7266.297
7288.902
7309.014
7326.639
7341.89
7354.92
7365.967
7375.432
7383.758
7391.368
7398.753
7406.364
7414.499
7423.628
7433.372
7444.631
7456.631
7468.933
7482.494
7496.756
7511.331
7527.206
7543.516
7558.988
7567.886
7563.007
7547.364
7523.031
7484.309
7436.863
7392.79
7354.612
7320.577
7292.81
7273.166
7261.476
7256.311
7256.599
7261.957
7272.236
7287.377
7307.393
7332.146
7361.733
7395.385
7432.799
7473.51
7516.777
7561.748
7607.687
7653.981
7700.043
7745.177
7788.872
7830.796
7870.455
7907.4
7941.378
7972.217
7999.748
8023.841
8044.412
8061.468
8075.092
8085.419
8092.599
8096.874
8098.581
8097.744
8094.678
8090.037
8084.114
8077.115
8069.278
8060.767
8051.725
8042.182
8032.477
8022.892
8013.509
8004.362
7995.52
7987.07
7979.089
7971.583
7964.569
7958.104
7952.22
7946.939
7942.255
7938.174
7934.693
7931.793
7929.457
7927.661
7926.37
7925.539
7925.119
7925.06
7925.306
7925.803
7926.502
7927.351
7928.307
7929.332
7930.398
7931.489
7932.616
7933.813
7935.142
7936.666
7938.42
7940.306
7942.044
7943.348
7944.067
7944.168
7943.677
7942.644
7941.101
7939.09
7936.746
7934.19
7931.54
7928.889
7926.419
7924.246
7921.891
7917.525
7915.587
7914.351
7910.931
7906.094
7900.922
7895.398
7889.926
7882.401
7860.994
7863.855
7891.944
7904.991
7906.623
7905.759
7904.803
7904.527
7905.249
7907.258
7910.676
7912.998
7907.296
7915.877
7929.71
7936.123
7939.331
7942.412
7955.245
7968.989
7976.309
7981.634
7986.6
7991.973
7998.057
8002.837
8003.736
8000.512
7996.317
7993.981
7992.857
7997.346
8000.011
8003.472
8008.429
8013.792
8018.851
8023.888
8028.57
8032.578
8035.966
8038.61
8040.202
8040.448
8039.119
8036.109
8031.265
8024.457
8015.754
8005.152
7992.621
7978.255
7962.176
7944.57
7925.725
7906.003
7885.831
7865.739
7846.364
7828.259
7811.785
7797.271
7785.101
7775.641
7769.241
7766.176
7766.557
7770.473
7777.838
7788.436
7801.923
7817.801
7835.392
7853.957
7872.729
7891.202
7909.166
7926.327
7942.459
7957.424
7971.025
7983.155
7993.788
8002.946
8010.685
8017.074
8022.162
8026.073
8028.99
8031.039
8032.332
8033.005
8033.151
8032.664
8031.54
8029.914
8027.872
8025.469
8022.75
8019.757
8016.527
8013.092
8009.481
8005.723
8001.842
7997.86
7993.798
7989.675
7985.508
7981.311
7977.097
7972.877
7968.661
7964.456
7960.269
7956.104
7951.965
7947.854
7943.771
7939.718
7935.693
7931.696
7927.724
7923.776
7919.848
7915.937
7912.041
7908.155
7904.275
7900.399
7896.521
7892.637
7888.744
7884.838
7880.917
7876.981
7873.035
7869.094
7865.187
7861.365
7857.707
7854.325
7851.357
7848.956
7847.297
7846.432
7846.38
4749.605
4708.094
4670.671
4633.604
4600.595
4562.854
4529.713
4496.304
4462.127
4427.054
4391.537
4355.704
4317.776
4279.109
4237.751
4190.377
4147.962
4105.804
4063.866
4022.426
3981.678
3942.409
3904.848
3869.358
3836.948
3809.007
3785.598
3767.566
3755.184
3747.751
3745.458
3750.795
3765.857
3792.268
3831.374
3884.279
3952.195
4034.468
4131.192
4242.215
4367.003
4504.662
4653.99
4813.646
4982.122
5157.696
5338.258
5522.036
5706.28
5888.628
6066.601
6237.25
6396.146
6545.76
6681.41
6799.297
6896.51
6971.155
7021.438
7046.06
7044.531
7017.448
6966.129
6892.409
6798.824
6688.286
6563.685
6427.099
6280.38
6125.223
5963.222
5797.302
5629.828
5463.439
5301.271
5144.893
4995.554
4854.707
4722.647
4598.344
4480.747
4369.728
4265.34
4167.396
4075.644
3989.96
3910.584
3837.604
3771.593
3712.282
3659.039
3611.798
3569.7
3531.156
3495.124
3461.287
3429.693
3400.379
3373.337
3348.778
3327.662
3310.938
3297.63
3285.62
3274.096
3263.071
3252.831
3243.682
3235.491
3227.96
3221.282
3216.073
3213.696
3212.636
3211.539
3211.157
3211.301
3211.389
3210.486
3208.716
3207.54
3208.576
3212.815
3220.646
3231.737
3244.625
3257.878
3271.909
3286.11
3299.711
3313.881
3329.36
3345.974
3363.359
3377.691
3391.471
3407.653
3431.093
3463.11
3503.453
3551.749
3608.406
3674.248
3748.743
3829.509
3915.948
4006.887
4100.551
4196.057
4292.347
4388.609
4483.69
4575.813
4663.613
4746.927
4826.187
4901.561
4973.061
5041.17
5107.008
5171.883
5236.806
5302.48
5369.457
5438.182
5508.789
5580.796
5653.121
5724.452
5793.423
5858.858
5919.809
5975.777
6027.161
6075.52
6123.001
6171.702
6223.386
6278.783
6337.25
6397.469
6458.281
6518.9
6578.762
6637.387
6694.369
6749.396
6802.258
6852.841
6901.1
6947.036
6990.68
7032.091
7071.34
7108.482
7143.529
7176.42
7207.059
7235.28
7260.984
7284.03
7304.255
7321.499
7335.716
7346.972
7355.437
7361.421
7365.316
7367.499
7368.463
7368.668
7368.399
7368.054
7368.282
7370.051
7373.624
7377.823
7382.059
7387.649
7395.268
7405.599
7419.416
7436.743
7454.077
7465.544
7470.739
7469.094
7455.548
7429.847
7397.927
7363.969
7330.155
7300.495
7278.184
7263.079
7253.728
7249.686
7250.674
7256.572
7267.471
7283.401
7304.211
7329.595
7359.344
7392.881
7430.404
7471.538
7515.281
7560.545
7606.616
7652.843
7698.552
7743.305
7786.816
7828.669
7868.376
7905.407
7939.434
7970.28
7997.796
8021.858
8042.32
8059.18
8072.564
8082.671
8089.708
8093.795
8095.107
8093.857
8090.44
8085.482
8079.276
8071.988
8063.82
8054.983
8045.727
8036.189
8026.52
8016.905
8007.48
7998.329
7989.522
7981.129
7973.206
7965.793
7958.923
7952.635
7946.954
7941.878
7937.418
7933.6
7930.424
7927.865
7925.904
7924.522
7923.682
7923.336
7923.427
7923.899
7924.69
7925.74
7926.996
7928.411
7929.941
7931.547
7933.198
7934.87
7936.553
7938.237
7939.934
7941.637
7943.312
7944.856
7946.065
7946.718
7946.69
7945.972
7944.618
7942.666
7939.998
7936.931
7934.338
7931.537
7928.371
7925.28
7922.605
7920.493
7916.488
7914.642
7913.93
7914.094
7910.763
7905.415
7899.366
7889.781
7869.825
7807.448
7779.908
7839.521
7898.113
7909.248
7907.676
7904.717
7901.892
7900.001
7899.184
7899.587
7901.711
7906.156
7912.946
7918.564
7873.516
7809.541
7827.449
7907.504
7953.062
7962.954
7966.448
7969.563
7972.865
7976.085
7979.065
7982.543
7980.997
7933.472
7893.824
7930.6
7973.959
7994.753
7999.639
8004.367
8010.224
8016.153
8021.76
8027.023
8031.784
8036.108
8039.855
8042.505
8043.81
8043.777
8042.216
8038.932
8033.819
8026.761
8017.714
8006.671
7993.616
7978.681
7962.039
7943.852
7924.379
7903.974
7883.055
7862.065
7841.654
7822.58
7805.328
7790.113
7777.233
7767.14
7760.227
7756.811
7756.976
7760.899
7768.504
7779.587
7793.824
7810.73
7829.391
7848.731
7868.054
7887.195
7906.013
7924.055
7940.931
7956.446
7970.452
7982.873
7993.702
8002.976
8010.769
8017.173
8022.284
8026.207
8029.076
8030.991
8032.023
8032.362
8032.208
8031.507
8030.258
8028.571
8026.503
8024.095
8021.388
8018.418
8015.216
8011.813
8008.238
8004.516
8000.671
7996.726
7992.7
7988.613
7984.48
7980.317
7976.136
7971.948
7967.763
7963.588
7959.431
7955.295
7951.184
7947.1
7943.045
7939.02
7935.023
7931.055
7927.113
7923.196
7919.302
7915.429
7911.573
7907.733
7903.906
7900.09
7896.284
7892.484
7888.692
7884.906
7881.13
7877.369
7873.635
7869.948
7866.34
7862.859
7859.568
7856.558
7853.921
7851.777
7850.194
7849.253
7848.859
4925.371
4913.38
4878.501
4832.575
4785.608
4742.763
4702.947
4666.24
4632.015
4597.673
4559.606
4526.827
4494.076
4460.643
4426.254
4390.877
4354.387
4316.47
4277.179
4237.136
4197.185
4155.434
4113.326
4071.117
4029.216
3987.748
3947.048
3907.387
3868.841
3832.02
3798.376
3769.781
3746.358
3728.271
3716.734
3712.925
3718.024
3733.37
3760.138
3799.237
3851.612
3917.986
3998.587
4093.531
4202.664
4325.499
4461.185
4608.593
4766.338
4932.707
5106.042
5284.004
5463.726
5643.641
5821.725
5995.571
6163.005
6320.411
6465.736
6596.362
6708.764
6800.065
6868.189
6911.512
6928.964
6920.183
6885.804
6827.491
6747.722
6649.624
6536.164
6410.471
6274.638
6129.909
5977.743
5819.17
5656.741
5493.26
5330.279
5170.172
5016.389
4871.561
4736.452
4610.751
4493.307
4382.857
4279.094
4181.808
4090.429
4004.452
3923.757
3848.72
3779.897
3717.937
3662.774
3613.834
3570.998
3533.496
3499.383
3467.093
3435.779
3405.573
3376.858
3349.882
3325.196
3305.173
3291.746
3281.901
3272.152
3261.581
3250.277
3239.559
3230.6
3223.283
3217.031
3211.608
3207.718
3206.56
3206.496
3205.947
3205.594
3205.861
3205.754
3203.584
3199.238
3195.431
3194.939
3198.989
3207.829
3220.852
3235.159
3247.994
3263.107
3278.823
3291.509
3304.431
3319.15
3333.198
3345.954
3353.501
3355.759
3359.34
3373.403
3399.456
3435.386
3479.689
3533.069
3597.366
3672.6
3753.534
3840.84
3933.522
4030.86
4133.798
4239.76
4346.367
4451.484
4552.736
4648.321
4737.858
4821.653
4899.627
4971.588
5038.312
5101.737
5163.992
5226.532
5290.256
5355.781
5423.638
5494.018
5566.204
5638.588
5709.401
5777.256
5841.195
5900.55
5955.089
6005.663
6054.105
6102.635
6153.231
6207.41
6265.74
6327.659
6391.928
6457.223
6522.436
6586.704
6649.371
6709.951
6768.095
6823.575
6876.289
6926.223
6973.42
7017.965
7059.969
7099.542
7136.762
7171.653
7204.161
7234.126
7261.314
7285.518
7306.537
7324.15
7338.126
7348.482
7355.284
7358.506
7358.403
7355.442
7350.076
7343.018
7334.701
7325.232
7315.058
7305.335
7298.294
7293.759
7289.523
7284.212
7278.704
7271.034
7273.867
7292.913
7316.773
7337.607
7357.319
7374.079
7383.7
7383.873
7376.359
7361.428
7340.63
7317.774
7296.352
7278.592
7265.435
7257.74
7255.765
7258.286
7265.067
7276.268
7292.052
7312.539
7337.381
7366.016
7398.838
7435.569
7476.078
7519.501
7564.478
7610.155
7655.963
7701.233
7745.454
7788.371
7829.583
7868.609
7905.074
7938.692
7969.214
7996.458
8020.314
8040.554
8057.11
8070.144
8079.836
8086.34
8089.812
8090.478
8088.767
8085.131
8079.913
8073.392
8065.798
8057.377
8048.35
8038.946
8029.326
8019.632
8010.016
8000.609
7991.505
7982.767
7974.456
7966.614
7959.304
7952.585
7946.469
7940.958
7936.071
7931.829
7928.25
7925.343
7923.116
7921.557
7920.641
7920.321
7920.54
7921.234
7922.335
7923.767
7925.463
7927.37
7929.44
7931.629
7933.897
7936.205
7938.52
7940.805
7943.027
7945.135
7947.071
7948.757
7950.083
7950.907
7951.061
7950.38
7948.81
7946.269
7941.822
7938.037
7935.313
7932.825
7928.972
7924.821
7921.14
7918.196
7916.588
7914.988
7914.051
7916.982
7916.91
7912.378
7906.942
7899.557
7881.167
7747.082
7379.911
7535.566
7814.207
7908.055
7914.567
7909.528
7903.612
7898.298
7894.768
7892.507
7891.287
7892.187
7896.049
7901.968
7909.401
7918.428
7917.818
7903.448
7915.233
7943.297
7955.91
7958.371
7959.602
7960.875
7962.397
7964.704
7967.106
7942.575
7775.449
7747.351
7757.689
7896.428
7981.439
7996.612
8003.22
8010.906
8017.65
8023.408
8028.756
8033.507
8037.716
8041.431
8044.28
8045.955
8046.171
8044.523
8040.928
8035.449
8028.057
8018.642
8007.213
7993.835
7978.582
7961.543
7942.873
7922.827
7901.763
7880.119
7858.39
7837.117
7816.977
7798.765
7782.806
7769.218
7758.476
7751.04
7747.305
7747.241
7751.199
7759.071
7770.661
7785.696
7803.605
7822.966
7842.735
7862.858
7883.094
7902.859
7921.674
7939.185
7955.177
7969.527
7982.186
7993.167
8002.534
8010.377
8016.802
8021.922
8025.851
8028.716
8030.61
8031.643
8031.907
8031.41
8030.34
8028.923
8027.166
8025.069
8022.66
8019.969
8017.025
8013.855
8010.49
8006.953
8003.272
7999.468
7995.565
7991.581
7987.534
7983.441
7979.316
7975.172
7971.02
7966.871
7962.73
7958.606
7954.502
7950.422
7946.369
7942.345
7938.349
7934.382
7930.444
7926.534
7922.65
7918.791
7914.955
7911.142
7907.349
7903.576
7899.822
7896.088
7892.374
7888.682
7885.015
7881.379
7877.783
7874.24
7870.775
7867.416
7864.208
7861.201
7858.467
7856.067
7854.098
7852.572
7851.601
7850.984
4915.559
4890.591
4837.388
4797.14
4757.699
4720.821
4686.225
4653.39
4621.681
4590.785
4560.633
4529.603
4497.91
4465.253
4431.596
4396.674
4360.376
4322.569
4283.116
4242.373
4201.481
4159.65
4117.197
4074.596
4032.049
3989.229
3945.994
3902.903
3860.826
3820.507
3783.361
3751.172
3724.776
3704.531
3691.48
3686.709
3691.251
3706.144
3732.336
3770.845
3822.332
3887.412
3966.49
4059.75
4167.04
4287.907
4421.499
4566.734
4722.057
4885.52
5054.542
5227.009
5401.052
5575.579
5749.467
5919.338
6081.954
6233.875
6372.187
6494.364
6597.532
6679.22
6737.542
6771.036
6778.878
6760.814
6717.602
6651.239
6564.364
6460.927
6343.989
6216.747
6082.155
5941.216
5794.24
5642.639
5486.554
5327.174
5167.637
5010.81
4860.94
4721.84
4594.13
4476.654
4367.865
4266.37
4171.613
4083.237
4000.269
3921.65
3847.02
3776.807
3712.1
3654.207
3603.356
3559.332
3522.592
3491.655
3462.887
3434.799
3406.432
3378.27