/*--------------------------------*- C++ -*----------------------------------*\
| =========                 |                                                 |
| \\      /  F ield         | foam-extend: Open Source CFD                    |
|  \\    /   O peration     | Version:     3.1                                |
|   \\  /    A nd           | Web:         http://www.extend-project.de       |
|    \\/     M anipulation  |                                                 |
\*---------------------------------------------------------------------------*/
FoamFile
{
    version     2.0;
    format      ascii;
    class       surfaceScalarField;
    location    "12";
    object      phi;
}
// * * * * * * * * * * * * * * * * * * * * * * * * * * * * * * * * * * * * * //

dimensions      [0 3 -1 0 0 0 0];

internalField   nonuniform List<scalar> 
275122
(
-0.0003471477
0.0003506783
-3.156839e-07
-3.21491e-06
-0.0003062066
0.000291245
1.205432e-06
1.375615e-05
-0.0002993221
0.0003058731
-3.115531e-07
-6.239407e-06
-0.000327978
0.00033556
-4.202206e-07
-7.161817e-06
-0.0003539886
0.0003555926
-4.740706e-07
-1.129943e-06
-0.0003521668
0.0003505176
-4.13945e-07
2.063185e-06
-0.0003443331
0.0003421068
-4.193967e-07
2.645684e-06
-0.0003349803
0.0003325091
-3.497641e-07
2.820955e-06
-0.0003250246
0.0003224793
-3.170387e-07
2.862299e-06
-0.0003148078
0.000312202
-2.887247e-07
2.89451e-06
-0.000304335
0.0003016722
-2.585759e-07
2.921395e-06
-0.000293618
0.0002908936
-2.312501e-07
2.955682e-06
-0.0002826375
0.0002798338
-2.059721e-07
3.009731e-06
-0.000271396
0.0002685245
-1.833344e-07
3.054894e-06
-0.0002599425
0.000257045
-1.612348e-07
3.05877e-06
-0.0002484284
0.0002455562
-1.401294e-07
3.012347e-06
-0.0002371002
0.0002343366
-1.247379e-07
2.888248e-06
-0.0002262456
0.0002237382
-1.229078e-07
2.630249e-06
-0.0002165232
0.0002145273
-1.560518e-07
2.152003e-06
-0.0002099517
0.0002097272
-4.026178e-07
6.27202e-07
-0.0002298077
0.0002382681
-8.710097e-07
-7.589387e-06
-0.0002389152
0.0002379863
-1.518577e-07
1.080694e-06
-0.0002384571
0.0002392904
-8.652783e-08
-7.466885e-07
-0.0002623926
0.0002709977
2.730788e-07
-8.878172e-06
-0.0002695803
0.0002684596
3.79945e-07
7.407436e-07
-0.0002681418
0.0002675584
-9.876562e-08
6.821495e-07
-0.0002649553
0.0002635498
-1.215708e-07
1.527062e-06
-0.0002581043
0.0002547419
-8.223357e-08
3.444614e-06
-0.0002368766
0.0002206249
-1.318837e-07
1.638366e-05
-0.0001864193
0.0001913463
3.989679e-09
-4.931059e-06
-0.0002562486
0.0002692832
-6.854754e-08
-1.296611e-05
-0.0003064619
0.0003187624
7.214122e-09
-1.230769e-05
-0.0003562831
0.0003689627
8.108674e-09
-1.268771e-05
-0.0004074927
0.0004203983
9.034562e-09
-1.291456e-05
-0.0004599141
0.0004732371
9.420109e-09
-1.333241e-05
-0.0005137383
0.0005274267
8.275036e-09
-1.36967e-05
-0.0005688879
0.0005828252
1.008483e-08
-1.394737e-05
-0.0006248235
0.0006388954
1.094484e-08
-1.408289e-05
-0.0006812064
0.0006953716
1.091285e-08
-1.417607e-05
-0.0007373921
0.0007527088
2.221162e-07
-1.553879e-05
1.228385e-05
-0.0005108503
0.0005127025
5.801373e-10
-1.413669e-05
1.248818e-05
-0.0005182236
0.0005199157
-7.546018e-10
-1.417956e-05
1.276225e-05
-0.0005246268
0.0005260612
-1.427405e-09
-1.419523e-05
1.299929e-05
-0.0005301691
0.0005313976
-1.509491e-09
-1.422623e-05
1.333612e-05
-0.0005346647
0.000535624
-1.613048e-09
-1.429382e-05
1.3598e-05
-0.0005382142
0.0005389754
-1.313648e-09
-1.435781e-05
1.379231e-05
-0.0005410913
0.0005417266
-1.398531e-09
-1.442624e-05
1.392858e-05
-0.0005435222
0.0005440967
-1.504129e-09
-1.450154e-05
1.439452e-05
-0.0005455991
0.0005452058
-7.235974e-10
-1.400052e-05
1.258863e-05
-0.002219993
0.002227961
-7.804677e-11
-5.873668e-05
1.284628e-05
1.254501e-05
1.278879e-05
1.354449e-05
-0.002233166
0.002237445
-9.568475e-12
-5.941009e-05
1.405091e-05
1.351783e-05
1.401765e-05
1.389835e-05
-0.002240919
0.002243983
2.343848e-11
-5.915489e-05
1.417417e-05
1.387003e-05
1.414896e-05
1.395814e-05
-0.002247211
0.00225044
-5.326232e-11
-5.934852e-05
1.412844e-05
1.39298e-05
1.410253e-05
1.408193e-05
-0.002253748
0.002256599
1.281727e-10
-5.944902e-05
1.424272e-05
1.40556e-05
1.421741e-05
1.418962e-05
-0.002259406
0.002261937
9.121186e-11
-5.942712e-05
1.428295e-05
1.41645e-05
1.425903e-05
1.418903e-05
-0.002264453
0.002266584
-1.276197e-12
-5.898001e-05
1.425789e-05
1.416589e-05
1.423557e-05
1.39975e-05
-0.002268748
0.00227071
-1.649177e-11
-5.806308e-05
1.407493e-05
1.397473e-05
1.405394e-05
1.385232e-05
-0.002272768
0.002274103
-6.300741e-11
-5.67835e-05
1.389526e-05
1.382959e-05
1.387145e-05
1.330894e-05
-0.002273648
0.002275366
-3.785399e-11
-5.476145e-05
1.323164e-05
1.328294e-05
1.322029e-05
1.394013e-05
-0.002277213
0.002276145
-5.174017e-11
-5.384264e-05
1.352569e-05
1.393312e-05
1.351181e-05
1.2997e-05
-0.002275451
0.002274076
-5.478029e-11
-5.029259e-05
1.284423e-05
1.298959e-05
1.283728e-05
1.25374e-05
-0.00227239
0.002270068
-5.027157e-11
-4.752382e-05
1.239248e-05
1.252994e-05
1.238559e-05
1.205675e-05
-0.002267406
0.002264118
-4.307566e-11
-4.46603e-05
1.192361e-05
1.204902e-05
1.191923e-05
1.156774e-05
-0.002260473
0.002256248
-3.909818e-11
-4.178249e-05
1.144551e-05
1.155438e-05
1.143944e-05
1.110614e-05
-0.002251778
0.002246694
-3.025606e-11
-3.905715e-05
1.101598e-05
1.104218e-05
1.097769e-05
1.086071e-05
-0.00224121
0.002235273
-1.34594e-11
-3.700331e-05
1.076283e-05
1.069069e-05
1.062621e-05
1.142962e-05
-0.002228738
0.002220406
1.36018e-11
-3.604277e-05
1.159579e-05
1.062651e-05
1.072235e-05
1.523123e-05
-0.00220775
0.00218518
4.414623e-11
-3.382916e-05
1.623663e-05
1.283768e-05
1.209362e-05
4.869396e-06
-0.002157077
0.002168549
7.4072e-11
-1.634121e-05
3.261924e-06
-0.002175992
0.002169793
1.056199e-10
2.93674e-06
1.603074e-05
-0.002158825
0.002146248
1.246511e-10
-3.453575e-06
1.099189e-05
-0.002134278
0.002123085
1.205766e-10
2.006348e-07
-3.143609e-06
-0.002112045
0.002103968
9.049809e-11
1.122019e-05
-1.484325e-05
-0.00209755
0.002091441
4.84034e-11
2.0952e-05
-1.829082e-05
-0.002084867
0.00207804
6.996459e-12
2.51184e-05
-1.999185e-05
-0.002071202
0.002064285
-3.664734e-11
2.690897e-05
-2.095392e-05
-0.002057264
0.002050188
-5.861067e-11
2.802946e-05
-2.179879e-05
-0.002043085
0.002035973
-6.991148e-11
2.89108e-05
-2.2537e-05
-0.002028819
0.002021696
-6.185349e-11
2.966042e-05
-2.332381e-05
-0.00201452
0.002007397
-4.730562e-11
3.044747e-05
-2.422005e-05
-0.002000192
0.001993031
-2.94157e-11
3.138152e-05
-2.520524e-05
-0.00198572
0.001978454
-1.34998e-11
3.247074e-05
-2.617775e-05
-0.001970932
0.001963469
-4.854393e-13
3.364036e-05
-2.697634e-05
-0.001955608
0.001947857
1.01082e-11
3.472713e-05
-2.738608e-05
-0.001939524
0.001931421
1.448932e-11
3.548905e-05
-2.706777e-05
-0.001922497
0.001913984
1.872814e-11
3.558068e-05
-2.540267e-05
-0.001904216
0.001894962
2.553453e-11
3.465591e-05
-2.240013e-05
-0.001883836
0.001873806
2.996742e-11
3.242972e-05
-1.376065e-05
-0.001859815
0.001845109
2.796304e-11
2.846716e-05
-1.862385e-05
-0.001833293
0.001823092
2.221476e-11
2.882453e-05
-1.031041e-05
-0.001810488
0.001796112
1.853185e-11
2.468641e-05
1.846192e-06
-0.001771714
0.001750853
1.495779e-11
1.901434e-05
-1.194467e-05
-0.001732739
0.001718402
7.385238e-12
2.628151e-05
-2.246153e-05
-0.001704759
0.001690202
3.595354e-12
3.701837e-05
-3.014389e-05
-0.001674926
0.001660122
1.551645e-12
4.494808e-05
-4.437778e-05
-0.001645969
0.00163506
1.347821e-12
5.528676e-05
-7.20715e-05
-0.001623914
0.001624965
2.579917e-12
7.102063e-05
-1.561762e-05
-0.001628893
0.00161825
9.361693e-12
6.663709e-05
-1.252818e-05
-1.550386e-05
-1.234501e-05
-1.019383e-05
-0.001603072
0.001590611
2.097693e-11
5.262646e-05
-1.027331e-05
-9.829933e-06
-9.868948e-06
-9.38774e-06
-0.001577811
0.001564213
2.761873e-11
5.003257e-05
-9.141319e-06
-9.062822e-06
-8.842978e-06
-8.789253e-06
-0.001550467
0.001537109
3.396583e-11
4.793733e-05
-8.746733e-06
-8.534166e-06
-8.510149e-06
-8.516715e-06
-0.001523919
0.001510832
4.139194e-11
4.67119e-05
-8.43846e-06
-8.363074e-06
-8.307101e-06
-8.039767e-06
-0.00149769
0.001484514
4.392371e-11
4.499111e-05
-7.914206e-06
-7.983111e-06
-7.87811e-06
-7.369839e-06
-0.00147117
0.001457788
3.826782e-11
4.260187e-05
-7.230453e-06
-7.373853e-06
-7.246357e-06
-6.628273e-06
-0.001444261
0.001430741
2.703706e-11
3.982943e-05
-6.478791e-06
-6.670644e-06
-6.531464e-06
-5.887899e-06
-0.001417171
0.001403784
1.262868e-11
3.682825e-05
-5.755807e-06
-5.96015e-06
-5.838061e-06
-5.209587e-06
-0.001390511
0.001377609
-4.328714e-12
3.367934e-05
-5.099263e-06
-5.290536e-06
-5.177413e-06
-4.571631e-06
-0.001364985
0.00135289
-2.107527e-11
3.027142e-05
-4.466798e-06
-4.626752e-06
-4.511154e-06
-3.911047e-06
-0.001341185
0.001330114
-3.501447e-11
2.652798e-05
-3.79699e-06
-3.933622e-06
-3.814558e-06
-3.200084e-06
-0.001319515
0.001309651
-4.468008e-11
2.242597e-05
-3.072358e-06
-3.207924e-06
-3.081863e-06
-2.447651e-06
-0.001300284
0.001291735
-4.776116e-11
1.810787e-05
-2.332592e-06
-2.448639e-06
-2.32977e-06
-1.766366e-06
-0.001283803
0.001276822
-4.480133e-11
1.382235e-05
-1.661181e-06
-1.758913e-06
-1.6548e-06
-1.122015e-06
-0.001270509
0.001265204
-3.728888e-11
9.583409e-06
-1.022912e-06
-1.115266e-06
-1.018025e-06
-5.091756e-07
-0.00126058
0.001256985
-2.725925e-11
5.443898e-06
-4.190262e-07
-5.042638e-07
-4.162103e-07
5.13039e-08
-0.001254075
0.001252154
-1.69712e-11
1.546104e-06
1.334979e-07
5.306668e-08
1.36532e-07
5.388047e-07
-0.001250909
0.00125065
-8.081418e-12
-2.044895e-06
6.087869e-07
5.4259e-07
6.136837e-07
9.872201e-07
-0.001251062
0.001252489
-1.103059e-12
-5.509916e-06
1.052419e-06
9.895497e-07
1.054258e-06
1.407207e-06
-0.001254502
0.001257398
6.747526e-12
-8.645427e-06
1.470736e-06
1.404365e-06
1.466864e-06
1.785594e-06
-0.001260797
0.001264998
1.558363e-11
-1.143663e-05
1.832675e-06
1.784929e-06
1.833298e-06
2.074159e-06
-0.001269686
0.001275117
2.373175e-11
-1.379919e-05
2.108283e-06
2.075823e-06
2.110124e-06
2.292567e-06
-0.001280984
0.001287519
2.956877e-11
-1.575532e-05
2.316704e-06
2.29344e-06
2.317505e-06
2.45526e-06
-0.001294429
0.001301925
3.473893e-11
-1.734841e-05
2.471067e-06
2.45482e-06
2.470839e-06
2.570482e-06
0.001318051
4.816243e-11
-1.860593e-05
2.577659e-06
2.567423e-06
2.575701e-06
-0.001309737
2.631884e-06
-0.001326635
0.001335643
3.909219e-11
-1.953721e-05
2.635155e-06
2.629716e-06
2.632335e-06
2.640613e-06
-0.001344867
0.001354443
4.296188e-11
-2.011329e-05
2.630405e-06
2.638837e-06
2.628048e-06
2.59764e-06
-0.001364194
0.001374197
4.014103e-11
-2.035217e-05
2.58034e-06
2.594085e-06
2.576775e-06
2.501239e-06
-0.001384328
0.001394606
3.666422e-11
-2.022353e-05
2.475224e-06
2.497172e-06
2.471171e-06
2.343383e-06
-0.001404958
0.001415337
3.183601e-11
-1.967068e-05
2.306891e-06
2.338708e-06
2.302202e-06
2.112033e-06
-0.001425728
0.001436001
2.629135e-11
-1.86108e-05
2.062739e-06
2.106582e-06
2.057332e-06
1.790629e-06
-0.001446207
0.001456124
2.065112e-11
-1.693804e-05
1.725881e-06
1.784465e-06
1.719932e-06
1.365967e-06
-0.001465887
0.001475173
1.582742e-11
-1.456764e-05
1.281361e-06
1.359141e-06
1.274964e-06
7.899936e-07
-0.00148423
0.001492575
1.234224e-11
-1.129918e-05
6.918419e-07
7.848037e-07
6.868029e-07
7.540858e-08
-0.001500508
0.001507416
1.113994e-11
-6.972897e-06
-3.833463e-08
7.189715e-08
-4.365918e-08
-8.651587e-07
-0.001513722
0.001518718
1.435701e-11
-1.180536e-06
-1.047811e-06
-8.595012e-07
-1.042832e-06
-2.243591e-06
-0.001523014
0.001525587
2.394737e-11
6.892957e-06
-2.519446e-06
-2.209066e-06
-2.493681e-06
-4.276778e-06
-0.001527054
0.00152653
4.889743e-11
1.822587e-05
-4.677338e-06
-4.160263e-06
-4.587194e-06
-7.277376e-06
-0.001524656
0.001520656
9.188136e-11
3.363017e-05
-7.902671e-06
-6.899885e-06
-7.550305e-06
-1.191729e-05
-0.001515608
0.001509325
1.66078e-10
5.391531e-05
-1.298204e-05
-1.088435e-05
-1.184892e-05
-1.812638e-05
-0.001501903
0.00149231
2.558096e-10
8.254105e-05
-2.004238e-05
-1.686984e-05
-1.790954e-05
-2.126758e-05
-0.001481711
0.001465066
1.552399e-10
0.0001000612
-1.991226e-05
-2.121703e-05
-2.101936e-05
-1.825827e-05
-0.001438947
0.001404242
1.977869e-10
0.0001078826
-1.808508e-05
-1.878926e-05
-1.804498e-05
-1.646628e-05
-0.001361574
0.00131027
3.187221e-10
0.0001157542
-1.578231e-05
-1.639652e-05
-1.58048e-05
-1.148495e-05
-0.001249453
0.001180479
4.710963e-10
0.000114015
-1.056048e-05
-1.19858e-05
-1.101102e-05
-6.450896e-06
-0.001107969
0.001038865
8.550277e-10
9.514067e-05
-6.148676e-06
-6.854887e-06
-6.583184e-06
-5.209622e-06
-0.0009786571
0.0009290386
6.673561e-10
7.158802e-05
-5.411175e-06
-5.595756e-06
-5.753596e-06
-5.350286e-06
-0.000889667
0.0008577072
-1.242455e-10
5.346957e-05
-5.285759e-06
-5.484521e-06
-5.389155e-06
-4.529406e-06
-0.0008315407
0.0008092455
-7.49422e-10
3.990822e-05
-4.252898e-06
-4.556986e-06
-4.272931e-06
-4.575425e-06
-0.0007892013
0.0007705069
-8.388148e-10
3.731915e-05
-4.732838e-06
-4.580507e-06
-4.735151e-06
-5.429583e-06
-0.0007513277
0.0007316717
-6.472439e-10
4.153958e-05
-5.512504e-06
-5.428789e-06
-5.511966e-06
-6.057098e-06
-0.0007114977
0.0006910372
-4.285794e-10
4.484038e-05
-6.135238e-06
-6.054447e-06
-6.132647e-06
-6.311256e-06
-0.0006704502
0.000649841
-2.714231e-10
4.583633e-05
-6.305142e-06
-6.308256e-06
-6.302224e-06
-6.156805e-06
-0.000629435
0.000609569
-1.730903e-10
4.435903e-05
-6.09231e-06
-6.154201e-06
-6.089547e-06
-5.672317e-06
-0.0005902789
0.0005720067
-1.123878e-10
4.077213e-05
-5.579848e-06
-5.670191e-06
-5.577516e-06
-5.069627e-06
-0.0005544905
0.0005381137
-7.342357e-11
3.646705e-05
-4.977207e-06
-5.067957e-06
-4.975366e-06
-4.473413e-06
-0.0005224718
0.0005079355
-4.70019e-11
3.225252e-05
-4.386037e-06
-4.472145e-06
-4.38461e-06
-3.895341e-06
-0.0004940989
0.0004813614
-2.853104e-11
2.815013e-05
-3.812024e-06
-3.894357e-06
-3.810895e-06
-3.340075e-06
-0.0004693185
0.0004583577
-1.538415e-11
2.416539e-05
-3.262986e-06
-3.339347e-06
-3.262132e-06
-2.823247e-06
-0.0004480677
0.0004388144
-5.836333e-12
2.040539e-05
-2.753322e-06
-2.822775e-06
-2.752765e-06
-2.343146e-06
-0.0004301959
0.0004225805
9.881601e-13
1.685796e-05
-2.278398e-06
-2.342906e-06
-2.278069e-06
-1.887419e-06
-0.0004155762
0.0004095634
4.849171e-12
1.343893e-05
-1.825835e-06
-1.887248e-06
-1.825561e-06
-1.447332e-06
-0.0004041531
0.0003997323
7.211539e-12
1.009092e-05
-1.38782e-06
-1.447293e-06
-1.387723e-06
-1.020159e-06
-0.0003959145
0.0003930805
8.140204e-12
6.800093e-06
-9.628229e-07
-1.020283e-06
-9.628786e-07
-6.079027e-07
-0.0003908536
0.0003895945
8.157081e-12
3.584197e-06
-5.545022e-07
-6.080849e-07
-5.546286e-07
-2.171745e-07
-0.0003889488
0.000389244
7.896375e-12
4.731551e-07
-1.668495e-07
-2.173479e-07
-1.669859e-07
1.534321e-07
-0.0003901065
0.0003919315
7.528241e-12
-2.530298e-06
1.994515e-07
1.532279e-07
1.991847e-07
5.136324e-07
-0.0003942637
0.0003975147
6.666069e-12
-5.393991e-06
5.583222e-07
5.131999e-07
5.578197e-07
8.456766e-07
-0.0004012514
0.0004058744
5.569985e-12
-8.086293e-06
8.866239e-07
8.450494e-07
8.859034e-07
1.144296e-06
-0.0004109598
0.00041688
4.325936e-12
-1.056976e-05
1.181317e-06
1.143512e-06
1.18042e-06
1.407235e-06
-0.000423236
0.0004303695
3.124045e-12
-1.282703e-05
1.440556e-06
1.406305e-06
1.439484e-06
1.640336e-06
-0.0004379011
0.0004461413
1.954216e-12
-1.485805e-05
1.66969e-06
1.639298e-06
1.668507e-06
1.841806e-06
-0.0004547435
0.0004639882
9.105255e-13
-1.665941e-05
1.866763e-06
1.840643e-06
1.86548e-06
2.011222e-06
-0.0004735599
0.0004837098
2.001099e-13
-1.823355e-05
2.031864e-06
2.010036e-06
2.030609e-06
2.149202e-06
0.0005051071
2.52365e-13
-1.958095e-05
-0.0004941526
2.165296e-06
2.147955e-06
2.163954e-06
2.254483e-06
-0.0005163188
0.000527969
-7.912914e-13
-2.068881e-05
2.266101e-06
2.253258e-06
2.264735e-06
2.325822e-06
-0.0005398359
0.0005520613
-2.451931e-12
-2.154006e-05
2.33276e-06
2.324723e-06
2.331313e-06
2.366739e-06
-0.0005644603
0.0005771426
-3.631259e-12
-2.215276e-05
2.369668e-06
2.365455e-06
2.3686e-06
2.381492e-06
-0.0005899632
0.0006030076
-4.370799e-12
-2.256857e-05
2.381735e-06
2.380318e-06
2.380547e-06
2.376865e-06
-0.0006161624
0.0006294909
-4.946615e-12
-2.282976e-05
2.374889e-06
2.375745e-06
2.373756e-06
2.351931e-06
-0.000642906
0.0006564441
-5.427166e-12
-2.293128e-05
2.345792e-06
2.350813e-06
2.344662e-06
2.296207e-06
-0.0006700586
0.0006837505
-5.684868e-12
-2.286051e-05
2.289129e-06
2.295181e-06
2.288099e-06
2.228675e-06
-0.0006974841
0.0007112415
-5.605e-12
-2.265322e-05
2.22015e-06
2.227741e-06
2.219245e-06
2.147636e-06
-0.0007250154
0.0007387637
-5.200207e-12
-2.231623e-05
2.137134e-06
2.1468e-06
2.136319e-06
2.049135e-06
-0.000752507
0.0007661764
-4.468382e-12
-2.183954e-05
2.036684e-06
2.048383e-06
2.035964e-06
1.933188e-06
-0.0007798155
0.0007933291
-3.493955e-12
-2.12169e-05
1.919098e-06
1.932552e-06
1.918457e-06
1.79802e-06
-0.000806785
0.0008200648
-2.417674e-12
-2.043836e-05
1.781784e-06
1.797506e-06
1.781262e-06
1.629623e-06
-0.00083327
0.0008463096
-1.356158e-12
-1.949438e-05
1.598475e-06
1.628942e-06
1.597823e-06
1.446702e-06
-0.0008593108
0.0008720616
-9.160934e-14
-1.851687e-05
1.436624e-06
1.446395e-06
1.436365e-06
1.314257e-06
-0.0008846768
0.0008970075
1.37636e-12
-1.755617e-05
1.298688e-06
1.314029e-06
1.298559e-06
1.161016e-06
-0.0009092109
0.0009211121
2.75049e-12
-1.65102e-05
1.143639e-06
1.160933e-06
1.143388e-06
9.941118e-07
-0.0009328769
0.0009443134
3.951506e-12
-1.537412e-05
9.749829e-07
9.938964e-07
9.746758e-07
8.149961e-07
-0.0009555938
0.0009665083
4.976476e-12
-1.413292e-05
7.94446e-07
8.146822e-07
7.942817e-07
6.250805e-07
-0.0009772382
0.0009875609
5.701148e-12
-1.277844e-05
6.029072e-07
6.249585e-07
6.027676e-07
4.297074e-07
-0.0009976643
0.001007341
6.101616e-12
-1.134959e-05
4.069932e-07
4.297479e-07
4.068573e-07
2.365733e-07
-0.001016774
0.00102578
6.360938e-12
-9.907594e-06
2.142358e-07
2.365853e-07
2.143147e-07
6.158117e-08
-0.001034508
0.001042835
6.474521e-12
-8.533625e-06
4.172026e-08
6.154134e-08
4.171689e-08
-7.959579e-08
-0.001050889
0.001058495
6.372225e-12
-7.311009e-06
-6.746624e-08
-7.950815e-08
-6.831197e-08
4.602155e-08
-0.00106515
0.00107058
5.818218e-12
-5.978587e-06
2.280099e-07
4.944881e-08
2.245658e-07
3.34425e-07
-0.0002676935
0.0002678317
-4.988342e-11
-4.726365e-07
-2.920795e-07
-0.0002687243
0.0002691329
-5.49584e-11
-1.165216e-07
-5.889582e-07
-0.0002705082
0.0002709705
1.125343e-10
1.265309e-07
-7.994592e-07
-0.0002723449
0.0002727772
3.664332e-10
3.668271e-07
-9.686723e-07
-0.0002740011
0.0002743665
5.271794e-10
6.02699e-07
-1.104819e-06
-0.0002753655
0.0002756538
4.332125e-10
8.160372e-07
-1.225493e-06
-0.0002764188
0.0002766336
2.93564e-10
1.010366e-06
-1.304603e-06
-0.0002771664
0.0002772935
2.744748e-10
1.17725e-06
-1.432872e-06
-0.0002776007
0.0002776688
3.604103e-10
1.364419e-06
-1.527988e-06
-0.0002777825
0.000277784
-1.112996e-10
1.526637e-06
-1.600465e-06
-0.0002776959
0.0002776317
-2.55226e-10
1.664932e-06
-1.660204e-06
-0.0002773546
0.000277231
-8.005083e-11
1.783897e-06
-1.706274e-06
-0.0002767838
0.0002766069
-4.824209e-11
1.883197e-06
-1.738713e-06
-0.000276009
0.0002757852
-7.680218e-11
1.962497e-06
-1.758496e-06
-0.000275055
0.0002747907
2.538556e-10
2.022508e-06
-1.766628e-06
-0.0002739494
0.0002736523
6.096842e-10
2.063149e-06
-1.759613e-06
-0.0002727234
0.0002724013
-8.189414e-11
2.081827e-06
-1.741125e-06
-0.0002714087
0.0002710696
-7.727348e-10
2.080968e-06
-1.713724e-06
-0.0002700372
0.0002696891
-7.168999e-10
2.062556e-06
-1.676904e-06
-0.0002686413
0.0002682927
-3.823877e-10
2.025918e-06
-1.631156e-06
-0.0002672561
0.000266916
-1.570061e-10
1.971384e-06
-1.578527e-06
-0.0002659175
0.000265595
-4.075154e-11
1.901128e-06
-1.520948e-06
-0.0002646608
0.000264364
8.692977e-11
1.817658e-06
-1.459874e-06
-0.0002635182
0.0002632548
2.61008e-10
1.723003e-06
-1.396516e-06
-0.0002625196
0.0002622969
3.396429e-10
1.618926e-06
-1.331776e-06
-0.000261693
0.0002615172
2.032438e-10
1.507333e-06
-1.266622e-06
-0.0002610609
0.000260937
-4.324387e-11
1.390575e-06
-1.201828e-06
-0.0002606393
0.0002605695
-2.112644e-10
1.271909e-06
-1.148774e-06
-0.0002604351
0.0002604259
-2.594455e-10
1.158214e-06
-1.099155e-06
-0.0002604824
0.0002605369
-3.188233e-10
1.044942e-06
-1.043839e-06
-0.0002607896
0.000260913
-2.858439e-10
9.206974e-07
-9.858404e-07
-0.0002613793
0.0002615792
-2.15166e-10
7.861679e-07
-9.223468e-07
-0.0002622815
0.0002625686
-1.265824e-10
6.353075e-07
-8.392839e-07
-0.0002635437
0.0002639412
-6.254524e-11
4.417649e-07
-6.850516e-07
-0.0002653029
0.0002658918
-1.459697e-11
9.61671e-08
4.77805e-07
-0.0002678983
0.0002682473
6.386598e-11
-8.268419e-07
1.678469e-06
-0.0002690411
0.0002694355
6.965114e-11
-2.072948e-06
1.687625e-06
-0.0002708393
0.0002713731
1.263036e-10
-2.22159e-06
1.850216e-06
-0.000273073
0.0002736761
1.61076e-10
-2.453518e-06
1.958541e-06
-0.0002755762
0.0002762529
1.790822e-10
-2.635477e-06
2.042835e-06
-0.0002783772
0.000279121
1.941347e-10
-2.786876e-06
2.134453e-06
-0.0002814299
0.0002822335
2.098471e-10
-2.938262e-06
2.214828e-06
-0.0002847204
0.0002855803
2.326638e-10
-3.074969e-06
2.294032e-06
-0.0002882252
0.0002891352
2.474434e-10
-3.204334e-06
2.367654e-06
-0.0002919233
0.0002928773
2.388122e-10
-3.321922e-06
2.435271e-06
-0.0002957878
0.0002967791
2.371261e-10
-3.426794e-06
2.494464e-06
-0.0002997897
0.0003008096
2.544372e-10
-3.514561e-06
2.542503e-06
-0.0003038908
0.0003049281
2.574347e-10
-3.580037e-06
2.577239e-06
-0.0003080438
0.0003090852
2.616176e-10
-3.618963e-06
2.59731e-06
-0.0003121952
0.0003132272
2.536504e-10
-3.629611e-06
2.605779e-06
-0.000316292
0.000317303
2.478492e-10
-3.617069e-06
2.608856e-06
-0.0003202942
0.0003212781
2.453106e-10
-3.59293e-06
2.613422e-06
-0.0003241875
0.0003251453
2.355806e-10
-3.571441e-06
2.622635e-06
-0.000327985
0.0003289228
2.268003e-10
-3.560742e-06
2.629819e-06
-0.0003317125
0.0003326354
2.235446e-10
-3.55295e-06
2.617544e-06
-0.0003353774
0.0003362791
2.12365e-10
-3.519411e-06
2.561062e-06
-0.0003389316
0.0003397875
1.932257e-10
-3.417084e-06
2.437689e-06
-0.0003422521
0.0003430198
1.750073e-10
-3.205612e-06
2.244045e-06
-0.0003451522
0.0003457806
1.544265e-10
-2.872596e-06
2.008663e-06
-0.0003474287
0.0003478753
1.215453e-10
-2.455353e-06
1.796061e-06
-0.0003489496
0.0003492063
7.773e-11
-2.052933e-06
1.678789e-06
-0.0003497512
0.0003498611
4.375204e-11
-1.788804e-06
1.686913e-06
-0.0003500704
0.0003501145
3.096136e-11
-1.731126e-06
1.782103e-06
-0.000350236
0.000350285
2.392477e-11
-1.831205e-06
1.920263e-06
-0.0003504828
0.0003505817
3.010354e-11
-2.019193e-06
2.092963e-06
-0.0003509889
0.0003511852
4.441011e-11
-2.289328e-06
2.266937e-06
-0.0003519152
0.000352233
6.085498e-11
-2.584881e-06
2.40342e-06
-0.000353297
0.0003537108
9.693415e-11
-2.817253e-06
2.477951e-06
-0.0003550032
0.0003554557
1.532091e-10
-2.930524e-06
2.428497e-06
-0.0003569116
0.0003574189
3.536155e-10
-2.936141e-06
2.85918e-06
-0.0003569725
0.001447766
-9.562135e-12
-1.114425e-05
7.032162e-07
2.858694e-06
6.877209e-07
-0.0003569758
-0.0003648908
-0.0003648917
1.35438e-06
-0.001454444
0.001457765
-1.084164e-11
-9.55376e-06
1.780608e-06
1.33506e-06
1.762888e-06
1.188109e-06
-0.001460292
0.001461872
-7.19502e-12
-6.411875e-06
1.242177e-06
1.173034e-06
1.228391e-06
6.07441e-07
-0.001463125
0.00146307
-1.443371e-11
-2.473505e-06
6.694962e-07
5.953941e-07
6.562036e-07
8.203332e-08
-0.001461967
0.001459217
3.008652e-14
2.583509e-06
1.007525e-08
7.006141e-08
4.039483e-09
-8.672986e-07
-0.001455372
0.001449857
-2.005161e-11
9.177816e-06
-9.565248e-07
-8.752637e-07
-9.641583e-07
-2.423054e-06
-0.001442535
0.001434163
-2.150157e-11
1.896802e-05
-2.87695e-06
-2.423204e-06
-2.873304e-06
-6.96412e-06
-0.001424995
0.001414726
9.806859e-12
4.04474e-05
-8.142855e-06
-6.942204e-06
-8.128948e-06
-1.302172e-05
-0.001403054
0.001390304
-2.034809e-10
6.548582e-05
-1.331229e-05
-1.30495e-05
-1.33525e-05
-1.133664e-05
-0.001374552
0.001352625
-1.910614e-10
6.503791e-05
-1.019041e-05
-1.136895e-05
-1.021438e-05
-4.616671e-06
-0.001325408
0.001296655
-1.141541e-10
4.56167e-05
-3.812854e-06
-4.619214e-06
-3.814431e-06
-7.117228e-07
-0.001266867
0.001236816
-1.315797e-11
3.243559e-05
-4.819884e-07
-7.103547e-07
-4.802894e-07
9.038447e-08
-0.001205829
0.001173862
2.747366e-10
3.169898e-05
4.265373e-08
9.167843e-08
4.310043e-08
-3.993307e-07
-0.001140929
0.001108064
4.654976e-10
3.474874e-05
-5.426085e-07
-3.995559e-07
-5.429702e-07
-8.009433e-07
-0.001076423
0.001046896
3.37306e-10
3.291279e-05
-8.918465e-07
-8.012134e-07
-8.920948e-07
-8.710881e-07
-0.001020286
0.0009966019
5.088648e-12
2.718772e-05
-8.80577e-07
-8.71201e-07
-8.810172e-07
-7.849801e-07
-0.0009758386
0.0009573328
-2.889903e-10
2.16219e-05
-7.727277e-07
-7.852623e-07
-7.728305e-07
-6.773266e-07
-0.0009410492
0.0009263806
-3.692648e-10
1.734855e-05
-6.619289e-07
-6.778721e-07
-6.624444e-07
-6.271818e-07
-0.0009131654
0.0009007907
-2.550132e-10
1.488998e-05
-6.298372e-07
-6.276833e-07
-6.303189e-07
-6.80273e-07
-0.0008889969
0.0008775336
-9.198196e-11
1.421382e-05
-6.945174e-07
-6.806937e-07
-6.949184e-07
-7.358158e-07
-0.0008662192
0.000855291
1.059389e-11
1.388565e-05
-7.425406e-07
-7.361738e-07
-7.429057e-07
-6.853755e-07
-0.0008445309
0.0008344321
3.915374e-11
1.281809e-05
-6.740403e-07
-6.856626e-07
-6.742916e-07
-4.896462e-07
-0.0008247747
0.0008160478
2.666201e-11
1.063584e-05
-4.646423e-07
-4.898488e-07
-4.64844e-07
-2.021927e-07
-0.00080797
0.0008009523
6.170361e-12
7.763416e-06
-1.705448e-07
-2.023581e-07
-1.706789e-07
1.281775e-07
-0.0007946826
0.0007894085
-7.968572e-12
4.690978e-06
1.636747e-07
1.279138e-07
1.634091e-07
4.38163e-07
-0.0007848149
0.0007811178
-1.280094e-11
1.873838e-06
4.739282e-07
4.376548e-07
4.734719e-07
7.042144e-07
-0.0007779999
0.0007756576
-1.124841e-11
-5.321886e-07
7.333377e-07
7.039017e-07
7.330221e-07
9.198515e-07
-0.0007737804
0.0007725708
-6.590022e-12
-2.511123e-06
9.408405e-07
9.195209e-07
9.405409e-07
1.086924e-06
-0.0007717237
0.0007713831
-1.069329e-12
-4.040742e-06
1.103998e-06
1.086618e-06
1.10373e-06
1.190227e-06
-0.0007713053
0.0007715408
3.690658e-12
-5.013866e-06
1.199247e-06
1.189952e-06
1.199012e-06
1.228899e-06
-0.0007719186
0.0007724208
7.391012e-12
-5.419885e-06
1.230134e-06
1.228715e-06
1.229926e-06
1.207239e-06
-0.0007729498
0.0007734306
9.365316e-12
-5.296698e-06
1.200844e-06
1.207104e-06
1.200713e-06
1.130021e-06
-0.0007738336
0.0007740341
9.704383e-12
-4.69299e-06
1.116246e-06
1.130057e-06
1.116241e-06
1.00526e-06
-0.000774063
0.0007737619
8.247811e-12
-3.679432e-06
9.849843e-07
1.005312e-06
9.850343e-07
8.431242e-07
-0.0007732154
0.0007722417
6.071264e-12
-2.349637e-06
8.184584e-07
8.432187e-07
8.185471e-07
6.593111e-07
-0.0007709682
0.0007692262
3.989011e-12
-8.493807e-07
6.362678e-07
6.594145e-07
6.363686e-07
4.558234e-07
-0.0007671497
0.0007645399
2.14401e-12
8.41056e-07
4.284281e-07
4.559378e-07
4.285546e-07
2.32421e-07
-0.0007615845
0.0007581143
8.032862e-13
2.597001e-06
2.040397e-07
2.325649e-07
2.041903e-07
-4.528075e-09
-0.0007543221
0.0007500333
-2.541477e-13
4.351832e-06
-2.714587e-08
-4.38044e-09
-2.702961e-08
-2.204755e-07
-0.000745421
0.0007403303
-4.509714e-13
6.025046e-06
-2.469874e-07
-2.200647e-07
-2.467417e-07
-4.362967e-07
-0.0007349749
0.000729185
-2.910506e-13
7.58321e-06
-4.606456e-07
-4.358143e-07
-4.605729e-07
-6.402468e-07
-0.0007231698
0.0007167818
-1.92306e-14
9.001361e-06
-6.656174e-07
-6.405029e-07
-6.669711e-07
-8.421559e-07
-0.0007102431
0.000703404
9.762395e-13
1.025217e-05
-8.648294e-07
-8.413304e-07
-8.647908e-07
-1.004235e-06
-0.000696426
0.0006892031
2.215853e-12
1.127393e-05
-1.021849e-06
-1.003664e-06
-1.02127e-06
-1.146454e-06
-0.000681871
0.0006743693
3.240881e-12
1.211769e-05
-1.162027e-06
-1.145985e-06
-1.161505e-06
-1.323297e-06
-0.0006668745
0.0006594537
4.093523e-12
1.28103e-05
-1.372177e-06
-1.322529e-06
-1.371463e-06
-1.487285e-06
-0.0006521315
0.0006447924
4.721758e-12
1.32792e-05
-1.483389e-06
-1.486688e-06
-1.482724e-06
-1.475016e-06
-0.0006374665
0.0006302476
5.166533e-12
1.31131e-05
-1.472795e-06
-1.474321e-06
-1.472092e-06
-1.440797e-06
-0.0006231208
0.0006161889
5.426161e-12
1.267224e-05
-1.430024e-06
-1.440105e-06
-1.429364e-06
-1.368371e-06
-0.0006094092
0.0006029227
5.611021e-12
1.192267e-05
-1.350325e-06
-1.367776e-06
-1.349743e-06
-1.239975e-06
-0.000596627
0.0005906993
5.896955e-12
1.083381e-05
-1.213538e-06
-1.239531e-06
-1.213071e-06
-1.066372e-06
-0.0005850022
0.0005797523
6.093584e-12
9.452188e-06
-1.035097e-06
-1.066083e-06
-1.034775e-06
-8.489689e-07
-0.0005747739
0.0005702633
6.13216e-12
7.804247e-06
-7.980827e-07
-8.488391e-07
-7.978164e-07
-6.671238e-07
-0.0005661136
0.0005627895
6.094812e-12
5.594958e-06
-4.678792e-07
-6.676704e-07
-4.681591e-07
-3.541862e-07
-0.0005598916
0.0005565808
7.04337e-12
4.686136e-06
-3.354343e-07
-3.522386e-07
-3.334174e-07
-1.27768e-07
-0.0005540133
0.0005523179
5.586127e-12
2.227647e-06
-1.410362e-07
-1.246345e-07
-1.387714e-07
1.840163e-07
-0.0005510292
0.0005504583
3.731902e-12
-2.368339e-07
2.190454e-07
1.849536e-07
2.197758e-07
5.296396e-07
-0.0005502696
0.0005507595
3.702114e-12
-2.708843e-06
5.798098e-07
5.297285e-07
5.79818e-07
8.860561e-07
-0.0005516003
0.0005531212
3.833223e-12
-5.176619e-06
9.421439e-07
8.857596e-07
9.417662e-07
1.236366e-06
-0.0005550039
0.0005575715
3.690659e-12
-7.617084e-06
1.289043e-06
1.235745e-06
1.288345e-06
1.566532e-06
-0.0005605075
0.0005641108
3.320669e-12
-9.966084e-06
1.615706e-06
1.565711e-06
1.614833e-06
1.875854e-06
-0.0005680702
0.0005726578
2.578149e-12
-1.217994e-05
1.92134e-06
1.874857e-06
1.920297e-06
2.16141e-06
-0.000577576
0.0005830667
1.426031e-12
-1.421659e-05
2.202722e-06
2.16025e-06
2.201528e-06
2.4185e-06
-0.000588854
0.0005951447
2.481026e-13
-1.603512e-05
2.454986e-06
2.417214e-06
2.453671e-06
2.642426e-06
-0.000601692
0.0006086647
-1.22204e-12
-1.760178e-05
2.673535e-06
2.641033e-06
2.672119e-06
2.82998e-06
-0.0006158502
0.0006233787
-2.324141e-12
-1.889647e-05
2.855454e-06
2.828509e-06
2.853968e-06
2.980086e-06
-0.0006310755
0.0006390336
-2.683187e-12
-1.991521e-05
2.999972e-06
2.978562e-06
2.998436e-06
3.09374e-06
-0.0006471168
0.0006553851
-2.651107e-12
-2.06693e-05