/*--------------------------------*- C++ -*----------------------------------*\
| =========                 |                                                 |
| \\      /  F ield         | foam-extend: Open Source CFD                    |
|  \\    /   O peration     | Version:     3.1                                |
|   \\  /    A nd           | Web:         http://www.extend-project.de       |
|    \\/     M anipulation  |                                                 |
\*---------------------------------------------------------------------------*/
FoamFile
{
    version     2.0;
    format      ascii;
    class       regIOobject;
    location    "4.5/uniform";
    object      profilingInfo;
}
// * * * * * * * * * * * * * * * * * * * * * * * * * * * * * * * * * * * * * //

profilingInfo
(

    {
        id              19;
        parentId        17;
        description     "Foam::Time::writeObject - outputTime";
        calls           9;
        totalTime       49.87623;
        childTime       0;
        onStack         1;
    }

    {
        id              17;
        parentId        1;
        description     "Foam::Time::writeObject";
        calls           4568;
        totalTime       49.88715;
        childTime       49.87623;
        onStack         1;
    }

    {
        id              1;
        description     "application::main";
        calls           1;
        totalTime       1103.743;
        childTime       253.9201;
        onStack         1;
    }

    {
        id              6;
        parentId        1;
        description     "MULES::explicitSolve";
        calls           9136;
        totalTime       24.56765;
        childTime       0;
        onStack         0;
    }

    {
        id              5;
        parentId        4;
        description     "functionObjectList::read";
        calls           1;
        totalTime       2e-06;
        childTime       0;
        onStack         0;
    }

    {
        id              18;
        parentId        1;
        description     "functionObjects_.execute()";
        calls           4567;
        totalTime       0.011475;
        childTime       0;
        onStack         0;
    }

    {
        id              4;
        parentId        1;
        description     "functionObjects_.start()";
        calls           1;
        totalTime       7e-06;
        childTime       2e-06;
        onStack         0;
    }

    {
        id              7;
        parentId        1;
        description     "fvMatrix::solve_U";
        calls           4568;
        totalTime       27.03996;
        childTime       23.32818;
        onStack         0;
    }

    {
        id              15;
        parentId        1;
        description     "fvMatrix::solve_k";
        calls           4568;
        totalTime       10.521;
        childTime       9.859638;
        onStack         0;
    }

    {
        id              13;
        parentId        1;
        description     "fvMatrix::solve_omega";
        calls           4568;
        totalTime       11.4879;
        childTime       8.044418;
        onStack         0;
    }

    {
        id              2;
        parentId        1;
        description     "fvMatrix::solve_pcorr";
        calls           1;
        totalTime       0.162762;
        childTime       0.162591;
        onStack         0;
    }

    {
        id              11;
        parentId        1;
        description     "fvMatrix::solve_pd";
        calls           18272;
        totalTime       130.2422;
        childTime       126.8873;
        onStack         0;
    }

    {
        id              8;
        parentId        7;
        description     "lduMatrix::solver_Ux";
        calls           4568;
        totalTime       7.813216;
        childTime       0;
        onStack         0;
    }

    {
        id              9;
        parentId        7;
        description     "lduMatrix::solver_Uy";
        calls           4568;
        totalTime       8.92771;
        childTime       0;
        onStack         0;
    }

    {
        id              10;
        parentId        7;
        description     "lduMatrix::solver_Uz";
        calls           4568;
        totalTime       6.587256;
        childTime       0;
        onStack         0;
    }

    {
        id              16;
        parentId        15;
        description     "lduMatrix::solver_k";
        calls           4568;
        totalTime       9.859638;
        childTime       0;
        onStack         0;
    }

    {
        id              14;
        parentId        13;
        description     "lduMatrix::solver_omega";
        calls           4568;
        totalTime       8.044418;
        childTime       0;
        onStack         0;
    }

    {
        id              3;
        parentId        2;
        description     "lduMatrix::solver_pcorr";
        calls           1;
        totalTime       0.162591;
        childTime       0;
        onStack         0;
    }

    {
        id              12;
        parentId        11;
        description     "lduMatrix::solver_pd";
        calls           18272;
        totalTime       126.8873;
        childTime       0;
        onStack         0;
    }
);


// ************************************************************************* //
