/*--------------------------------*- C++ -*----------------------------------*\
| =========                 |                                                 |
| \\      /  F ield         | foam-extend: Open Source CFD                    |
|  \\    /   O peration     | Version:     3.1                                |
|   \\  /    A nd           | Web:         http://www.extend-project.de       |
|    \\/     M anipulation  |                                                 |
\*---------------------------------------------------------------------------*/
FoamFile
{
    version     2.0;
    format      ascii;
    class       volScalarField;
    location    "4.5";
    object      omega;
}
// * * * * * * * * * * * * * * * * * * * * * * * * * * * * * * * * * * * * * //

dimensions      [0 0 -1 0 0 0 0];

internalField   nonuniform List<scalar> 
119952
(
140.7707
175.843
166.6143
146.4531
132.4989
133.9538
136.8346
140.4336
144.4674
148.7988
153.3557
158.1027
163.0299
168.1433
173.4601
179.0064
184.8183
190.9525
197.5338
205.0013
171.7764
172.0881
174.7655
147.0438
145.0282
144.3682
143.966
143.5515
141.5746
123.517
302.3696
231.8881
205.6378
188.991
174.3833
161.0985
149.1144
138.4677
129.038
118.512
86.73116
70.48539
61.7032
56.30216
52.5198
49.57629
47.11053
44.95421
42.99223
33.76148
32.10654
30.56745
29.18662
27.97309
26.90766
25.96347
25.11755
24.35054
23.66098
23.01947
22.36423
21.71636
21.08468
20.47667
19.89624
19.34142
18.8007
18.26428
18.19652
18.11524
17.88394
17.66721
17.48218
17.3126
17.13503
16.95864
16.78984
16.63012
16.48034
16.34093
16.21172
16.09217
15.98146
15.87831
15.78062
15.68442
15.58152
15.45941
15.3249
15.19489
15.02143
14.83418
14.7364
14.67823
14.6658
14.83844
15.55129
16.71778
16.97286
17.0397
17.01678
16.96243
16.8938
16.82007
16.74677
16.67637
16.61072
16.5521
16.50214
16.46208
16.43288
16.41534
16.41012
16.41777
16.43867
16.47296
16.52057
16.58114
16.65374
16.73693
16.83075
16.93537
17.05001
17.1737
17.30669
17.44931
17.60038
17.75816
17.92114
18.08844
18.25948
18.4336
18.61001
18.78803
18.96692
19.14571
19.32374
19.50043
19.67535
19.84831
20.01956
20.18931
20.35711
20.52238
20.68461
20.8372
20.95362
21.08001
21.27591
21.48248
21.69403
21.90742
22.11467
22.31698
22.51434
22.70698
22.89501
23.07952
23.26131
23.44108
23.61952
23.79729
23.97513
24.15374
24.33375
24.51577
24.70032
24.88787
25.0789
25.27387
25.47316
25.67717
25.88654
26.10152
26.3225
26.54988
26.78399
27.02521
27.27385
27.53027
27.79476
28.06776
28.34983
28.64155
28.94378
29.25733
29.58241
29.9186
30.26554
30.62381
30.99407
31.3758
31.77051
32.17855
32.5989
33.01159
33.34746
35.00869
38.34201
41.13913
43.43189
45.32017
46.89657
48.23801
49.39232
50.41379
51.3441
52.21383
53.04457
53.8527
54.65025
55.44631
56.24804
57.06119
57.89095
58.73966
59.60952
60.50221
61.41897
62.36436
63.3435
64.35748
65.40788
66.49747
67.62587
68.79444
70.00192
71.24685
72.52966
73.83416
75.12932
76.33524
76.3481
75.10745
73.94387
72.82284
71.72487
70.64626
69.5791
68.51917
67.46393
66.41243
65.3644
64.32047
63.28213
62.25096
61.22858
60.21668
59.21696
58.23122
57.26123
56.30868
55.37528
54.46269
53.57227
52.70559
51.86436
51.0505
50.26681
49.51111
48.76376
48.02505
47.29754
46.58327
45.88453
45.20542
44.54012
34.43379
33.85852
33.18413
32.41397
31.6352
30.87508
30.14843
29.45852
28.81089
28.20794
27.64944
27.13333
26.65657
26.21556
25.80654
25.42593
25.07051
24.73714
24.42269
24.125
23.84222
23.57301
23.31649
23.0716
22.83398
22.59379
22.34913
22.10129
21.85207
21.60319
21.35605
21.11172
20.87102
20.63454
20.40279
20.17617
19.9551
19.73997
19.53097
19.32809
19.13152
18.94141
18.75814
18.58254
18.41637
18.26253
18.11223
17.96326
17.81854
17.6793
17.54591
17.41852
17.29773
17.19757
17.13119
17.02494
16.91166
16.78621
16.6441
16.48615
16.31696
16.14155
15.96467
15.79041
15.62228
15.46321
15.31536
15.17995
15.05677
14.94385
14.83803
14.73718
14.64087
14.54892
14.46091
14.37632
14.29475
14.21593
14.13962
14.06566
13.9939
13.92425
13.85671
13.7911
13.72724
13.66499
13.60427
13.54503
13.48722
13.43079
13.37573
13.322
13.26959
13.21846
13.16859
13.11998
13.07258
13.02639
12.98137
12.9375
12.89475
12.85311
12.81253
12.773
12.73449
12.69696
12.6604
12.62476
12.59003
12.55617
12.52315
12.49094
12.45952
12.42885
12.3989
12.36965
12.34107
12.31312
12.28577
12.259
12.23278
12.20706
12.18181
12.157
12.13257
12.10847
12.08463
12.06097
12.03737
12.01369
11.98976
11.96545
11.94084
11.91416
11.88038
11.82982
11.74943
11.62165
11.78034
290.3033
230.9953
203.6301
186.8981
173.2232
160.7664
149.3945
139.2122
129.8928
105.8121
82.05976
71.12447
66.04693
63.20147
61.01185
58.99199
57.06049
55.223
44.59473
40.81726
37.8384
35.84716
34.50486
33.49295
32.64307
31.87688
31.15564
30.46095
29.55372
28.32388
27.1738
26.23634
25.47801
24.83748
24.26982
23.74784
23.26085
23.05843
22.72398
22.17836
21.59745
21.0448
20.53649
20.07114
19.64242
19.24445
18.87444
18.52515
18.17919
17.83439
17.49409
17.16315
16.84459
16.53986
16.24938
15.97559
14.622
14.39077
14.17336
13.9639
13.75927
13.55824
13.36024
13.16513
12.97241
12.78194
12.59459
12.40957
12.22609
12.04414
11.86389
11.68542
11.50936
11.33896
11.18171
11.03443
10.88303
10.73654
10.60078
10.47243
10.3475
10.22493
10.10499
9.987559
9.872527
9.759858
9.649513
9.541414
9.435438
9.33139
9.228982
9.127756
9.027165
8.92672
8.826688
8.727896
8.629931
8.534638
8.448545
8.373349
8.307088
8.253504
8.225121
8.213556
8.188119
8.145662
8.100355
8.052459
8.004307
7.95785
7.912792
7.869029
7.826618
7.785647
7.746236
7.708516
7.672627
7.638712
7.606917
7.57738
7.55023
7.525577
7.503519
7.484145
7.467544
7.453808
7.442976
7.435015
7.429868
7.427474
7.427826
7.430976
7.437039
7.4463
7.459246
7.475333
7.493829
7.514173
7.53586
7.558372
7.581124
7.60335
7.624737
7.645458
7.665511
7.684827
7.703353
7.721035
7.737806
7.753574
7.768173
7.781358
7.79302
7.802969
7.812436
7.82279
7.833564
7.844524
7.855785
7.867308
7.879106
7.891251
7.903731
7.916559
7.929773
7.943364
7.957318
7.971627
7.986278
8.001259
8.016558
8.032164
8.048063
8.064251
8.080718
8.097461
8.114482
8.131782
8.149373
8.167259
8.185444
8.203937
8.222748
8.241885
8.261357
8.281168
8.301327
8.321841
8.342724
8.363999
8.385692
8.407838
8.430451
8.453546
8.477132
8.501209
8.525757
8.550746
8.576098
8.601661
8.627117
8.651888
8.67484
8.683158
8.998722
9.38849
9.678945
9.896814
10.06269
10.19111
10.2927
10.37536
10.44479
10.50503
10.55888
10.60836
10.6549
10.69949
10.74284
10.78544
10.82759
10.86953
10.91139
10.95324
10.99502
11.03666
11.07825
11.11986
11.16143
11.20291
11.24419
11.28502
11.32512
11.36413
11.40148
11.43627
11.46662
11.48851
11.49153
11.47842
11.4543
11.42476
11.39141
11.35473
11.31545
11.27412
11.23113
11.18679
11.1414
11.09523
11.04854
11.0016
10.95463
10.90782
10.8613
10.8152
10.76964
10.72471
10.68051
10.63711
10.59458
10.55299
10.5124
10.47286
10.43441
10.39697
10.36021
10.32363
10.28684
10.2497
10.21228
10.17472
10.13722
10.10089
8.962119
8.909627
8.864985
8.825552
8.789782
8.756423
8.724776
8.694325
8.664624
8.635364
8.606346
8.577437
8.548551
8.519652
8.490747
8.46186
8.433043
8.404356
8.375865
8.347648
8.319789
8.292367
8.26544
8.239012
8.213005
8.187307
8.161818
8.136462
8.111179
8.085931
8.060807
8.035904
8.011256
7.98689
7.962837
7.939143
7.915866
7.893077
7.870868
7.849357
7.828704
7.809154
7.790884
7.773787
7.758039
7.74389
7.731011
7.718964
7.707536
7.69652
7.685763
7.675132
7.664751
7.656013
7.647813
7.638492
7.629024
7.619268
7.608704
7.597109
7.584206
7.56972
7.553441
7.535248
7.515113
7.493096
7.469336
7.44402
7.417364
7.389603
7.36101
7.331877
7.302482
7.27308
7.243894
7.215111
7.18688
7.159317
7.132497
7.106466
7.081237
7.056801
7.033135
7.010202
6.987957
6.966355
6.945351
6.924901
6.904966
6.885512
6.866509
6.847933
6.829764
6.811985
6.794585
6.777552
6.760879
6.74456
6.72859
6.712965
6.697681
6.682736
6.668128
6.653852
6.639907
6.626289
6.612996
6.600023
6.587366
6.575022
6.562985
6.55125
6.539811
6.528662
6.517795
6.507201
6.496874
6.486802
6.476975
6.467381
6.458005
6.448831
6.439841
6.431012
6.422317
6.41372
6.405178
6.396633
6.388007
6.379191
6.370031
6.360303
6.349683
6.337764
6.324352
6.310533
6.294725
6.277547
6.264933
411.4261
372.531
332.228
300.9731
275.6983
254.6075
236.5776
220.9413
207.2705
192.8213
116.0478
95.75363
89.6255
86.11409
82.9949
79.98164
77.0861
74.32827
71.69145
56.33687
52.47958
49.37012
47.01864
45.26092
43.90704
42.81135
41.87904
41.04984
40.31996
39.48712
38.50363
37.47906
36.501
35.61932
34.84886
34.17939
33.59219
33.06978
32.97192
32.5511
31.99371
31.38845
30.79108
30.23444
29.73633
29.28536
28.86789
28.47784
28.06337
27.59597
27.08269
26.55244
26.02974
25.52679
25.04638
24.59417
22.87006
22.42419
21.99287
21.56485
21.14465
20.74259
20.36381
20.00882
19.67602
19.3627
19.0603
18.76074
18.4637
18.17203
17.88787
17.61174
17.34305
17.08086
16.82452
16.57639
16.33358
16.09129
15.84779
15.60343
15.35935
15.11681
14.87697
14.64087
14.40928
14.18218
13.95941
13.74129
13.52809
13.31998
13.11722
12.9198
12.72823
12.53918
12.37797
12.21599
12.05525
11.8957
11.73768
11.58162
11.42772
11.27594
11.12617
10.97828
10.83226
10.68779
10.54472
10.40315
10.26318
10.12508
9.989351
9.857024
9.729313
9.606028
9.482891
9.360422
9.241125
9.125065
9.010748
8.897164
8.784298
8.67244
8.561822
8.452566
8.344721
8.2383
8.133283
8.029617
7.927201
7.825917
7.72564
7.626379
7.528308
7.431983
7.33785
7.246864
7.160704
7.080242
7.00452
6.932694
6.865928
6.805266
6.741143
6.672208
6.60378
6.537978
6.474695
6.413729
6.354976
6.298429
6.24411
6.192036
6.142223
6.094689
6.049453
6.006533
5.965944
5.927696
5.891794
5.858233
5.827004
5.798091
5.771473
5.747121
5.725
5.705067
5.687271
5.671568
5.657919
5.646294
5.636661
5.628984
5.623194
5.619166
5.61676
5.615849
5.616335
5.618176
5.621419
5.626256
5.632534
5.639633
5.647037
5.65423
5.660966
5.667301
5.673227
5.678712
5.683718
5.688207
5.692157
5.695539
5.698567
5.701612
5.704711
5.707726
5.710666
5.713556
5.716433
5.719341
5.722316
5.725392
5.728603
5.731971
5.735517
5.739255
5.743201
5.747362
5.751745
5.756354
5.76119
5.766253
5.771541
5.777053
5.782786
5.788739
5.794911
5.801303
5.807912
5.814738
5.821782
5.829045
5.836526
5.844225
5.852144
5.860283
5.868645
5.877236
5.886062
5.895127
5.904441
5.913996
5.923806
5.933844
5.944125
5.954592
5.965277
5.976035
5.986927
5.997668
6.008298
6.018411
6.040208
6.054664
6.064754
6.072391
6.078859
6.084948
6.091149
6.097754
6.104919
6.112706
6.121127
6.130163
6.139783
6.149947
6.160613
6.171738
6.18328
6.195196
6.207443
6.219976
6.232752
6.245733
6.258885
6.272166
6.285525
6.298895
6.312194
6.325318
6.33814
6.350486
6.362109
6.372936
6.382716
6.391078
6.397733
6.402552
6.405792
6.407831
6.408886
6.409073
6.408486
6.407196
6.405254
6.402699
6.399567
6.395898
6.391737
6.387127
6.382104
6.376707
6.370972
6.364937
6.358641
6.352123
6.345424
6.33858
6.331631
6.324615
6.317565
6.310507
6.303457
6.296417
6.289374
6.28232
6.275252
6.26818
6.261124
6.254095
6.247061
6.238496
6.246706
6.252716
6.256442
6.258315
6.258824
6.258257
6.256802
6.254659
6.251932
6.24872
6.245112
6.241172
6.236946
6.232472
6.227782
6.222899
6.217842
6.212628
6.207271
6.201789
6.19621
6.190606
6.185022
6.179478
6.173982
6.168536
6.163137
6.157776
6.15245
6.14715
6.141734
6.136075
6.13013
6.123878
6.117309
6.110428
6.103246
6.095792
6.088102
6.080228
6.072229
6.064179
6.056155
6.048254
6.040555
6.033155
6.026034
6.01908
6.012232
6.005456
5.998734
5.992046
5.985428
5.978636
5.971702
5.964812
5.957863
5.950805
5.943529
5.935916
5.92783
5.919155
5.909787
5.89963
5.888609
5.876668
5.863769
5.849898
5.835064
5.819302
5.802676
5.785277
5.767213
5.748606
5.729587
5.71029
5.690845
5.671373
5.651984
5.632769
5.613802
5.595143
5.576831
5.558894
5.541346
5.524194
5.507434
5.49106
5.475062
5.45943
5.444151
5.429213
5.414607
5.400323
5.386354
5.372692
5.359332
5.346269
5.3335
5.321021
5.308829
5.296922
5.285299
5.273956
5.262893
5.252107
5.241595
5.231356
5.221388
5.211686
5.202247
5.193069
5.184146
5.175473
5.167047
5.158859
5.150904
5.143173
5.135658
5.128348
5.121232
5.114297
5.107526
5.100902
5.0944
5.087994
5.081649
5.075323
5.068959
5.062486
5.055805
5.048783
5.04125
5.033007
5.023903
5.013994
5.00414
4.995578
4.987171
256.8019
201.0789
215.1942
98.85147
79.44591
50.54209
46.25871
43.25931
40.51046
39.88188
40.12873
40.34617
39.72038
39.47882
39.43139
39.37818
39.28446
39.14398
38.95726
38.72643
38.45251
38.13666
37.70563
37.15094
36.56786
36.01354
35.49967
35.01966
34.56444
34.12575
33.70281
32.79158
32.31747
31.85205
31.39035
30.93372
30.48486
30.04614
29.61929
29.205
28.80355
28.41278
28.03029
27.65465
27.28658
26.92603
26.57485
26.23822
25.91727
25.61323
25.32671
25.05678
24.80231
24.5595
24.32568
24.09899
23.8776
23.65995
23.44435
23.22695
23.00247
22.7679
22.52032
22.25793
21.98063
21.68994
21.38806
21.07634
20.80243
20.5106
20.2117
19.91471
19.62636
19.34654
19.07501
18.81171
18.55648
18.30875
18.06662
17.82784
17.59106
17.35535
17.11999
16.88433
16.64792
16.4105
16.17198
15.9322
15.69117
15.44891
15.20559
14.96166
14.71776
14.47469
14.23329
13.9944
13.75871
13.52664
13.29856
13.07494
12.85625
12.64282
12.43496
12.23269
12.03628
11.845
11.66019
11.48169
11.30908
11.14154
10.97865
10.82017
10.66588
10.51549
10.36872
10.22525
10.08482
9.94721
9.812243
9.679824
9.54992
9.42259
9.29796
9.17626
9.057753
8.942221
8.828141
8.714946
8.603434
8.493869
8.385563
8.277808
8.170444
8.063627
7.957511
7.852174
7.747653
7.643967
7.541129
7.439142
7.337999
7.237703
7.138279
7.039821
6.94253
6.846787
6.753001
6.661574
6.573177
6.488113
6.405886
6.32582
6.24739
6.16998
6.092529
6.015362
5.939669
5.866117
5.794819
5.725732
5.658855
5.594229
5.531905
5.47192
5.414306
5.359089
5.30629
5.255926
5.208002
5.162515
5.119453
5.078796
5.040514
5.004573
4.970931
4.939541
4.910352
4.883311
4.858362
4.83545
4.814514
4.795494
4.778319
4.762919
4.749214
4.73712
4.726554
4.717434
4.709689
4.703256
4.69808
4.694103
4.691239
4.689391
4.688496
4.688559
4.689429
4.690699
4.692015
4.693264
4.694444
4.695538
4.696531
4.697418
4.69824
4.699069
4.699928
4.700791
4.701648
4.702507
4.703379
4.704282
4.705231
4.706244
4.707336
4.708524
4.709819
4.711236
4.712784
4.714473
4.716311
4.718301
4.720449
4.722757
4.725226
4.727858
4.730652
4.73361
4.73673
4.740014
4.743462
4.747074
4.750851
4.754794
4.758902
4.763177
4.76762
4.772231
4.777011
4.781963
4.787088
4.792388
4.797863
4.803512
4.809335
4.815325
4.821475
4.827763
4.834173
4.84068
4.847339
4.854136
4.861117
4.868337
4.876369
4.884806
4.893355
4.901877
4.910324
4.918697
4.927021
4.935301
4.943621
4.951981
4.960405
4.968911
4.977514
4.986224
4.995047
5.003986
5.013041
5.02221
5.031485
5.040859
5.050321
5.059861
5.069465
5.079116
5.088794
5.098467
5.108106
5.117671
5.127109
5.136356
5.145296
5.153892
5.161991
5.169466
5.17621
5.182173
5.187417
5.192066
5.196214
5.199911
5.203185
5.206059
5.208548
5.210631
5.212382
5.213784
5.214854
5.215608
5.216063
5.216233
5.216136
5.21579
5.215216
5.214434
5.213442
5.21231
5.211034
5.209637
5.208136
5.20655
5.204893
5.203173
5.201401
5.199559
5.197706
5.195825
5.193911
5.192006
5.190101
5.188147
5.186854
5.185999
5.18546
5.18517
5.18507
5.185088
5.185162
5.185247
5.185312
5.185339
5.185327
5.185286
5.185249
5.185232
5.18525
5.185315
5.185441
5.18564
5.185926
5.186315
5.186816
5.187375
5.187967
5.188573
5.189166
5.189714
5.190181
5.190525
5.190702
5.190661
5.190351
5.189724
5.188741
5.187365
5.185572
5.183342
5.180668
5.177553
5.174012
5.170069
5.165761
5.161133
5.156233
5.151115
5.145827
5.140411
5.134888
5.129256
5.123521
5.117688
5.111761
5.105736
5.099603
5.093334
5.086971
5.080505
5.073882
5.067072
5.060058
5.052811
5.045296
5.037476
5.02931
5.020756
5.011772
5.002317
4.992354
4.981851
4.970785
4.959148
4.946941
4.934183
4.920907
4.907157
4.892993
4.878482
4.863696
4.848713
4.833606
4.818449
4.803309
4.788245
4.773308
4.75854
4.743974
4.729635
4.715541
4.701705
4.688135
4.674835
4.661808
4.649052
4.636569
4.624356
4.612411
4.600732
4.589318
4.578167
4.567276
4.556644
4.54627
4.536151
4.526287
4.516675
4.507314
4.498202
4.489337
4.480717
4.47234
4.464202
4.456301
4.448633
4.441196
4.433984
4.426995
4.420222
4.413661
4.407307
4.401152
4.39519
4.389412
4.383811
4.378375
4.373094
4.367953
4.362937
4.358005
4.353115
4.348228
4.343299
4.338273
4.333078
4.327633
4.321852
4.315673
4.309113
4.302347
4.295867
4.290041
250.1391
177.9386
140.9363
106.9512
86.50449
62.23652
51.52788
46.79675
42.25996
39.93727
38.27204
36.92117
35.88567
35.31093
35.24845
35.46903
35.82273
36.4095
37.00906
37.51985
38.03841
38.57143
39.05272
39.41089
39.64975
39.77772
39.80451
39.74009
39.59472
39.37891
39.10182
38.77297
38.4037
37.99871
37.56242
37.10169
36.62374
36.13405
35.63842
35.13873
34.64171
34.13835
33.6497
33.16768
32.69008
32.21543
31.7449
31.27934
30.8189
30.36352
29.91281
29.46649
29.02473
28.5926
28.16871
27.75143
27.34104
26.93807
26.54362
26.15926
25.78623
25.4253
25.0781
24.74604
24.4291
24.12715
23.83965
23.56556
23.30344
23.05136
22.80653
22.56596
22.32715
22.08757
21.84495
21.59785
21.3455
21.08871
20.82724
20.56785
20.30693
20.0468
19.78994
19.53751
19.29092
19.05155
18.81714
18.58566
18.35567
18.12574
17.89458
17.66125
17.42505
17.18545
16.94205
16.69475
16.44368
16.18918
15.93147
15.671
15.40846
15.14465
14.88042
14.61666
14.35429
14.09419
13.83718
13.58399
13.33517
13.09116
12.85241
12.61934
12.39225
12.17141
11.95686
11.74868
11.54677
11.35105
11.16157
10.97829
10.8009
10.62913
10.46275
10.30154
10.14525
9.993607
9.846341
9.703195
9.563947
9.428397
9.296379
9.16777
9.042487
8.920467
8.801663
8.686017
8.573252
8.462637
8.353663
8.246388
8.140815
8.036562
7.933173
7.83042
7.728273
7.626744
7.525824
7.425491
7.325723
7.226504
7.127823
7.029683
6.932102
6.835132
6.738877
6.643509
6.549278
6.456448
6.365258
6.275946
6.188614
6.103063
6.018884
5.935681
5.853111
5.770947
5.689514
5.609456
5.531218
5.454969
5.380761
5.308638
5.238661
5.170894
5.105391
5.042201
4.981364
4.922915
4.866878
4.813268
4.76209
4.713338
4.666998
4.623046
4.581455
4.542189
4.505207
4.470464
4.437911
4.407499
4.379177
4.352888
4.328567
4.306138
4.285522
4.266644
4.249424
4.233787
4.219658
4.206966
4.19564
4.18561
4.176805
4.169155
4.16259
4.157044
4.152452
4.148739
4.145835
4.143698
4.14213
4.140855
4.13977
4.138859
4.138104
4.137498
4.137039
4.13672
4.136522
4.13643
4.136432
4.136524
4.136706
4.136977
4.137341
4.137799
4.138357
4.139018
4.139787
4.140668
4.141663
4.142778
4.144012
4.145369
4.146849
4.148453
4.150181
4.152034
4.154011
4.156114
4.158342
4.160696
4.163177
4.165787
4.168526
4.171396
4.174397
4.177532
4.180801
4.184206
4.187749
4.19143
4.195251
4.199213
4.203313
4.207546
4.211936
4.21651
4.221279
4.226257
4.23144
4.236784
4.242273
4.247905
4.253688
4.259662
4.26583
4.272174
4.278667
4.285287
4.292019
4.298851
4.305778
4.312788
4.31988
4.327049
4.334293
4.341608
4.348994
4.356449
4.363971
4.371558
4.379206
4.386912
4.394671
4.402452
4.4103
4.418173
4.426066
4.433939
4.441828
4.449686
4.457489
4.465208
4.472805
4.480239
4.487456
4.494398
4.501006
4.507233
4.513054
4.518486
4.523574
4.528363
4.532877
4.53713
4.541128
4.544874
4.548368
4.551609
4.554606
4.557365
4.559894
4.562198
4.564287
4.566168
4.567855
4.569358
4.570691
4.57187
4.572908
4.573822
4.574626
4.575335
4.575964
4.576524
4.577026
4.57748
4.577896
4.578279
4.57864
4.578986
4.57932
4.579645
4.579963
4.58032
4.580735
4.581202
4.581711
4.582269
4.582895
4.583589
4.584344
4.58515
4.586005
4.586908
4.587856
4.588832
4.58984
4.590888
4.591983
4.593135
4.59435
4.595633
4.596988
4.598412
4.599899
4.601441
4.603022
4.604623
4.606215
4.607769
4.609248
4.610613
4.611823
4.612833
4.6136
4.614081
4.614237
4.614032
4.613439
4.612435
4.611008
4.609155
4.606879
4.604195
4.601123
4.59769
4.593922
4.589848
4.585493
4.580878
4.576023
4.570945
4.565663
4.56019
4.554534
4.548702
4.542701
4.536532
4.530185
4.523651
4.516927
4.510012
4.502898
4.495576
4.488036
4.480264
4.472243
4.463954
4.455378
4.446495
4.437286
4.427736
4.417834
4.407575
4.396962
4.386007
4.374729
4.36316
4.351336
4.339306
4.327119
4.314793
4.302363
4.289875
4.277374
4.264903
4.2525
4.240198
4.228025
4.216004
4.204155
4.192493
4.181029
4.169773
4.15873
4.147908
4.137308
4.126933
4.116786
4.106867
4.097176
4.087715
4.078482
4.069477
4.060699
4.052148
4.043821
4.035718
4.027837
4.020174
4.012729
4.005498
3.998479
3.991667
3.98506
3.978653
3.972442
3.966423
3.960589
3.954935
3.949455
3.944141
3.938987
3.933983
3.929119
3.924386
3.91977
3.915258
3.910833
3.90648
3.902183
3.897916
3.893651
3.889352
3.884977
3.880482
3.875823
3.870967
3.865913
3.860705
3.855624
3.850904
137.7874
103.698
147.2578
72.23957
60.25839
48.10412
44.71418
41.9242
39.08376
37.62591
36.23974
34.54319
33.1002
31.9572
31.15615
29.35899
29.58811
30.09206
30.83548
31.80221
32.90763
34.09227
35.29256
36.51804
37.84642
39.05917
39.96863
40.80489
41.51367
42.062
42.47402
42.78559
42.9973
43.08265
43.03252
42.86785
42.60815
42.27145
41.87367
41.43084
40.9513
40.44296
39.92121
39.39314
38.86362
38.33696
37.81707
37.30634
36.80703
36.31906
35.8438
35.37725
34.91879
34.47097
34.03332
33.60241
33.17601
32.75242
32.32997
31.90679
31.48078
31.04949
30.6133
30.16837
29.71663
29.26248
28.80826
28.35545
27.90574
27.46089
27.02256
26.59225
26.17163
25.7625
25.36612
24.98383
24.61667
24.26533
23.9299
23.60983
23.3037
23.00989
22.72676
22.4523
22.18438
21.92145
21.66231
21.40638
21.15286
20.90152
20.65168
20.40415
20.15955
19.91763
19.67737
19.43828
19.20035
18.9613
18.71944
18.4735
18.22255
17.96609
17.70393
17.43611
17.16285
16.88458
16.60197
16.3159
16.0273
15.73704
15.44606
15.1553
14.86575
14.57843
14.29423
14.01401
13.73858
13.46862
13.20462
12.94692
12.69584
12.45163
12.21446
11.98443
11.76151
11.54563
11.33667
11.13444
10.93879
10.74958
10.56658
10.38953
10.21821
10.05243
9.891962
9.736593
9.586103
9.44029
9.298962
9.161944
9.029075
8.900216
8.775237
8.654013
8.536402
8.422229
8.311219
8.20293
8.096955
7.993088
7.891165
7.790897
7.691937
7.594024
7.497006
7.40078
7.305252
7.210329
7.115928
7.021977
6.928421
6.835224
6.742373
6.649891
6.55784
6.466326
6.375492
6.285495
6.196471
6.108523
6.021683
5.935847
5.850797
5.76633
5.682311
5.598738
5.515857
5.43406
5.353679
5.274918
5.197895
5.122701
5.049428
4.978163
4.908982
4.841955
4.77714
4.714585
4.654328
4.596396
4.540807
4.487565
4.436669
4.388111
4.341875
4.297942
4.256287
4.216873
4.179663
4.144621
4.111714
4.080915
4.052195
4.025451
4.00059
3.977537
3.956218
3.936567
3.918515
3.901994
3.886935
3.873269
3.860926
3.849837
3.839932
3.831142
3.823398
3.816634
3.810785
3.805784
3.801563
3.798064
3.795127
3.792577
3.790374
3.788491
3.786902
3.78558
3.784498
3.783629
3.782952
3.78245
3.782108
3.781914
3.781861
3.78194
3.782147
3.782477
3.782927
3.783494
3.784175
3.78497
3.785877
3.786892
3.788016
3.789247
3.790583
3.792024
3.793569
3.795217
3.796969
3.798825
3.800785
3.802851
3.805023
3.807303
3.809691
3.81219
3.814801
3.817526
3.820365
3.82332
3.82639
3.829597
3.832965
3.836506
3.840206
3.844044
3.84801
3.852101
3.85631
3.860634
3.865069
3.869614
3.87427
3.879045
3.883944
3.888967
3.894112
3.899375
3.904754
3.910254
3.915876
3.921606
3.927435
3.933354
3.939358
3.94544
3.951595
3.957819
3.964108
3.970459
3.976866
3.983325
3.989831
3.99638
4.002937
4.009544
4.016171
4.022807
4.02944
4.036055
4.042636
4.049162
4.05561
4.061953
4.068161
4.074201
4.080043
4.085661
4.091044
4.096195
4.101134
4.10588
4.110448
4.114844
4.119067
4.123116
4.126989
4.130683
4.134198
4.137536
4.140697
4.143684
4.146501
4.149152
4.151645
4.153988
4.15619
4.158262
4.160216
4.162063
4.163815
4.165487
4.167088
4.168631
4.170127
4.171584
4.173013
4.17442
4.175813
4.177195
4.17857
4.17994
4.181302
4.182657
4.184022
4.185415
4.186838
4.188281
4.189716
4.191132
4.192522
4.193883
4.195211
4.196505
4.197767
4.199
4.200212
4.201411
4.202609
4.203816
4.205041
4.206297
4.20759
4.208928
4.210316
4.211752
4.213235
4.214754
4.216292
4.217821
4.219316
4.220745
4.222078
4.223279
4.224311
4.225137
4.225719
4.226024
4.22602
4.225681
4.224985
4.223918
4.222473
4.220647
4.218444
4.215872
4.212944
4.209673
4.206073
4.202159
4.197948
4.193457
4.188704
4.183705
4.178471
4.173014
4.167341
4.161458
4.155365
4.149068
4.142572
4.135878
4.12899
4.121907
4.11463
4.107155
4.099479
4.091594
4.083493
4.075168
4.066609
4.057808
4.048758
4.039454
4.029894
4.020082
4.010022
3.999728
3.989216
3.978506
3.967621
3.956596
3.945466
3.934268
3.923034
3.911798
3.900591
3.88944
3.878371
3.867407
3.856568
3.845869
3.835326
3.82495
3.81475
3.804735
3.794911
3.785284
3.775856
3.766632
3.757614
3.748804
3.740202
3.731809
3.723625
3.71565
3.707883
3.700324
3.692969
3.685819
3.67887
3.67212
3.665566
3.659206
3.653034
3.647048
3.641242
3.635613
3.630154
3.624861
3.619726
3.614743
3.609905
3.605202
3.600627
3.596167
3.591813
3.587551
3.583365
3.579254
3.575211
3.571219
3.567255
3.563295
3.559311
3.555273
3.551153
3.546929
3.54259
3.538143
3.533798
3.529676
67.96345
39.90339
35.04881
32.45045
31.25188
30.0004
28.94225
28.0888
27.43917
26.62391
24.32021
24.1979
24.16555
24.25566
24.45102
24.7524
25.20365
25.84085
26.69226
27.75104
29.02133
30.4706
32.02323
33.63575
35.30069
37.03375
38.71043
40.16353
41.44169
42.55688
43.45455
44.10817
44.54499
44.7468
44.72754
44.53466
44.20476
43.76239
43.19538
42.53455
41.83128
41.09799
40.34938
39.59869
38.84863
38.11965
37.41757
36.74801
36.115
35.52238
34.97259
34.46662
34.00461
33.58544
33.20769
32.86849
32.56824
32.30888
32.07619
31.86764
31.67918
31.50638
31.34235
31.1811
31.01278
30.81901
30.60409
30.36936
30.11433
29.83931
29.54513
29.23303
28.90385
28.55886
28.19949
27.8261
27.44162
27.05019
26.65443
26.25918
25.86708
25.48015
25.10063
24.73056
24.37136
24.02389
23.68856
23.36539
23.05378
22.75249
22.46053
22.17716
21.9015
21.63251
21.36904
21.10989
20.85441
20.6019
20.35117
20.10019
19.84576
19.58663
19.32173
19.05007
18.77106
18.48445
18.19039
17.88935
17.58205
17.26939
16.95238
16.63233
16.31062
15.98869
15.66765
15.34839
15.03183
14.71899
14.41094
14.10851
13.81249
13.52372
13.24286
12.97017
12.70577
12.44965
12.20182
11.96221
11.73067
11.50699
11.29092
11.08218
10.88048
10.68552
10.49703
10.31473
10.13835
9.967622
9.802336
9.64229
9.487296
9.337183
9.191794
9.050992
8.914648
8.782648
8.654879
8.531232
8.411584
8.295792
8.183675
8.074996
7.969451
7.866716
7.766533
7.668675
7.572877
7.478842
7.386302
7.29504
7.204879
7.115658
7.027222
6.939426
6.852141
6.765255
6.678679
6.592347
6.506223
6.420304
6.334621
6.249228
6.164193
6.079574
5.995408
5.911693
5.828369
5.74533
5.662493
5.579828
5.497398
5.415394
5.334097
5.253789
5.174682
5.096926
5.020646
4.945963
4.872988
4.801824
4.73256
4.665275
4.600034
4.536891
4.475887
4.417053
4.360409
4.30597
4.253744
4.203737
4.155957
4.110413
4.067056
4.025842
3.986733
3.949692
3.914676
3.881619
3.850484
3.821246
3.793873
3.768325
3.744556
3.722515
3.702148
3.683396
3.6662
3.650494
3.636211
3.623282
3.611637
3.601203
3.591911
3.583688
3.576466
3.570175
3.564747
3.560112
3.556183
3.55279
3.549875
3.547393
3.545303
3.543563
3.542137
3.540991
3.540093
3.53942
3.538948
3.538659
3.538536
3.538565
3.538735
3.539036
3.53946
3.539999
3.540648
3.541401
3.542254
3.543204
3.544248
3.545383
3.546608
3.547921
3.549322
3.550811
3.552387
3.554052
3.555807
3.557652
3.55959
3.561621
3.563747
3.56597
3.568292
3.570713
3.573258
3.575945
3.578766
3.581703
3.584752
3.587909
3.591171
3.594534
3.597999
3.601563
3.605224
3.608981
3.612834
3.616784
3.620832
3.624981
3.629232
3.633583
3.638031
3.642574
3.647204
3.65192
3.656717
3.661595
3.66655
3.671578
3.676676
3.681841
3.68707
3.69236
3.697706
3.703106
3.708554
3.714048
3.719583
3.725127
3.730725
3.736345
3.741979
3.747619
3.753252
3.758867
3.76445
3.769982
3.775448
3.780827
3.786098
3.791245
3.796253
3.801115
3.805833
3.810416
3.814873
3.819212
3.823436
3.827543
3.83153
3.835394
3.83913
3.842735
3.846208
3.849546
3.852748
3.855816
3.85875
3.861555
3.864235
3.866798
3.869249
3.871599
3.873856
3.87603
3.878133
3.880173
3.882162
3.88411
3.886025
3.887915
3.889789
3.891652
3.893509
3.895361
3.897219
3.899106
3.901027
3.902955
3.90487
3.906759
3.908613
3.910422
3.912182
3.913884
3.915526
3.917103
3.918612
3.920054
3.92143
3.922745
3.924004
3.925214
3.926384
3.927522
3.928639
3.929744
3.930845
3.931947
3.933055
3.93417
3.935288
3.936404
3.937508
3.938587
3.939622
3.940589
3.941463
3.942214
3.942812
3.943226
3.943423
3.943376
3.943055
3.942439
3.941506
3.940242
3.938636
3.936683
3.93438
3.931728
3.928731
3.925396
3.921732
3.917748
3.913459
3.908878
3.904019
3.898894
3.893513
3.887887
3.882024
3.875931
3.869616
3.863086
3.856348
3.849408
3.842273
3.834947
3.827432
3.819732
3.811845
3.803772
3.795511
3.787058
3.778411
3.769567
3.760524
3.751282
3.74184
3.732202
3.722373
3.712359
3.702169
3.691818
3.681349
3.670796
3.660186
3.649543
3.638892
3.628258
3.617664
3.607131
3.59668
3.586328
3.576091
3.565984
3.556019
3.546207
3.536558
3.527078
3.517775
3.508654
3.499719
3.490975
3.482424
3.474069
3.465912
3.457952
3.450192
3.44263
3.435268
3.428104
3.421136
3.414365
3.407787
3.4014
3.395203
3.389192
3.383364
3.377715
3.372242
3.366941
3.361806
3.356833
3.352017
3.347352
3.342831
3.338447
3.334194
3.330064
3.326047
3.322134
3.318314
3.314575
3.3109
3.307275
3.303679
3.300094
3.296498
3.292873
3.2892
3.285468
3.281673
3.277992
3.274446
81.02971
28.72283
21.76566
20.3601
19.77965
19.56201
19.55634
19.69252
19.94429
20.30096
20.71508
21.11202
21.60678
22.23789
23.02379
23.99385
25.19974
26.63362
28.3592
30.3003
32.32812
34.55218
36.7192
38.6648
40.41532
41.94523
43.1147
44.00113
44.59323
44.89248
44.91377
44.72801
44.2901
43.64723
42.82915
41.89225
40.87173
39.79696
38.6812
37.5517
36.44052
35.36193
34.32783
33.34699
32.41685
31.5526
30.75585
30.02758
29.36959
28.7815
28.26127
27.80789
27.41721
27.08497
26.80719
26.57978
26.39749
26.25403
26.15158
26.08674
26.0563
26.05735
26.08852
26.13641
26.18711
26.25586
26.3357
26.42051
26.5044
26.58168
26.64691
26.6959
26.722
26.71621
26.67684
26.59983
26.48515
26.33806
26.15996
25.95294
25.71992
25.46425
25.1899
24.90094
24.60089
24.29467
23.98673
23.67958
23.37491
23.07397
22.77756
22.4862
22.20006
21.91917
21.6435
21.3708
21.10032
20.8311