/*--------------------------------*- C++ -*----------------------------------*\
| =========                 |                                                 |
| \\      /  F ield         | foam-extend: Open Source CFD                    |
|  \\    /   O peration     | Version:     3.1                                |
|   \\  /    A nd           | Web:         http://www.extend-project.de       |
|    \\/     M anipulation  |                                                 |
\*---------------------------------------------------------------------------*/
FoamFile
{
    version     2.0;
    format      ascii;
    class       volScalarField;
    location    "4.5";
    object      p;
}
// * * * * * * * * * * * * * * * * * * * * * * * * * * * * * * * * * * * * * //

dimensions      [1 -1 -2 0 0 0 0];

internalField   nonuniform List<scalar> 
119952
(
9172.055
9060.718
9037.079
9057.656
9082.005
9067.284
9063.752
9060.859
9058.967
9057.52
9056.384
9055.468
9054.688
9053.979
9053.283
9052.521
9051.556
9050.036
9046.684
9035.872
9085.334
9054.976
9045.903
9108.498
9095.461
9103.589
9107.388
9123.076
9175.335
6709.647
8423.457
8448.864
8474.985
8500.147
8524.372
8547.496
8569.434
8590.17
8609.684
8626.089
8625.147
8638.513
8650.31
8661.241
8671.34
8680.646
8689.241
8697.283
8705.115
8684.909
8688.462
8693.011
8698.226
8703.141
8707.847
8712.411
8716.866
8721.129
8725.378
8728.09
8732.439
8736.547
8740.47
8744.568
8748.744
8753.003
8757.929
8766.881
8785.919
8774.455
8775.064
8783.486
8788.248
8788.142
8786.003
8784.798
8784.004
8783.444
8783.115
8782.943
8782.871
8782.856
8782.849
8782.79
8782.601
8782.202
8781.659
8781.798
8784.977
8787.628
8788.35
8800.541
8817.36
8820.857
8824.064
8827.472
8820.31
8786.456
8780.932
8786.934
8789.555
8792.002
8794.039
8795.65
8797.029
8798.255
8799.374
8800.403
8801.357
8802.243
8803.068
8803.833
8804.537
8805.177
8805.749
8806.248
8806.67
8807.008
8807.259
8807.412
8807.469
8807.425
8807.275
8807.024
8806.668
8806.199
8805.609
8804.911
8804.106
8803.19
8802.166
8801.038
8799.809
8798.482
8797.057
8795.541
8793.935
8792.243
8790.467
8788.613
8786.682
8784.671
8782.586
8780.405
8778.059
8775.636
8773.774
8772.935
8772.065
8769.337
8766.865
8764.482
8762.063
8759.741
8757.446
8755.171
8752.937
8750.71
8748.511
8746.346
8744.22
8742.138
8740.107
8738.13
8736.215
8734.366
8732.588
8730.887
8729.267
8727.73
8726.275
8724.935
8723.697
8722.559
8721.529
8720.612
8719.812
8719.132
8718.576
8718.144
8717.842
8717.67
8717.63
8717.724
8717.951
8718.309
8718.803
8719.42
8720.169
8721.041
8722.023
8723.128
8724.318
8725.571
8726.789
8727.989
8729.537
8764.912
8767.294
8769.283
8771.376
8773.657
8776.065
8778.579
8781.183
8783.873
8786.636
8789.467
8792.354
8795.294
8798.276
8801.292
8804.333
8807.388
8810.446
8813.48
8816.517
8819.52
8822.444
8825.322
8828.124
8830.843
8833.435
8835.865
8838.112
8840.141
8841.89
8843.281
8844.202
8844.443
8843.828
8840.948
8836.768
8845.566
8851.616
8856.208
8859.852
8862.897
8865.451
8867.575
8869.32
8870.716
8871.778
8872.519
8872.947
8873.071
8872.893
8872.418
8871.649
8870.59
8869.245
8867.617
8865.708
8863.524
8861.071
8858.347
8855.361
8852.12
8848.624
8844.874
8840.861
8836.594
8832.094
8827.378
8822.477
8817.287
8811.665
8788.273
8776.094
8761.961
8755.917
8749.496
8742.023
8734.721
8727.426
8719.871
8712.122
8704.195
8696.074
8687.753
8679.225
8670.48
8661.522
8652.334
8642.917
8633.278
8623.39
8613.265
8602.89
8592.255
8581.355
8570.173
8558.686
8546.904
8534.83
8522.466
8509.809
8496.84
8483.55
8469.937
8455.996
8441.724
8427.117
8412.175
8396.894
8381.267
8365.296
8348.989
8332.354
8315.399
8298.22
8280.796
8262.788
8243.524
8223.559
8203.454
8183.1
8162.438
8141.48
8120.083
8096.789
8072.143
8051.294
8029.703
8006.493
7982.961
7959.112
7934.93
7910.482
7885.756
7860.758
7835.503
7810.003
7784.266
7758.304
7732.125
7705.739
7679.155
7652.394
7625.481
7598.435
7571.275
7544.019
7516.688
7489.303
7461.883
7434.45
7407.022
7379.621
7352.267
7324.98
7297.781
7270.689
7243.723
7216.905
7190.252
7163.785
7137.522
7111.481
7085.68
7060.137
7034.87
7009.894
6985.227
6960.883
6936.878
6913.226
6889.943
6867.04
6844.532
6822.43
6800.746
6779.493
6758.68
6738.317
6718.415
6698.983
6680.03
6661.562
6643.589
6626.118
6609.154
6592.705
6576.776
6561.373
6546.501
6532.168
6518.37
6505.113
6492.402
6480.239
6468.625
6457.561
6447.045
6437.074
6427.644
6418.745
6410.361
6402.468
6395.025
6387.959
6381.151
6374.405
6367.92
6365.481
6376.966
7557.298
7576.568
7595.844
7615.199
7634.45
7653.405
7671.937
7689.936
7707.02
7704.655
7719.346
7731.914
7744.022
7755.795
7767.263
7778.492
7789.584
7800.757
7787.344
7795.587
7807.077
7820.003
7834.144
7849.336
7865.617
7883.039
7901.628
7921.538
7942.373
7964.22
7986.989
8010.596
8034.844
8059.49
8084.309
8109.105
8133.783
8157.575
8180.474
8203.196
8225.045
8245.854
8265.574
8284.189
8301.696
8318.14
8333.513
8347.692
8360.646
8372.532
8383.523
8393.71
8403.135
8411.869
8420.075
8428.168
8373.495
8379.991
8386.255
8391.573
8396.41
8401.108
8405.695
8410.122
8414.369
8418.513
8422.633
8426.531
8430.373
8434.326
8438.464
8442.848
8447.661
8453.134
8459.228
8464.647
8467.114
8468.724
8471.642
8474.484
8475.86
8475.878
8475.442
8475.104
8474.96
8474.949
8475.013
8475.131
8475.291
8475.476
8475.678
8475.909
8476.256
8476.917
8478.228
8480.48
8483.763
8488.183
8494.281
8501.417
8505.605
8506.729
8504.784
8499.13
8490.615
8484.549
8483.523
8485.06
8486.853
8488.254
8489.394
8490.471
8491.529
8492.534
8493.473
8494.35
8495.171
8495.939
8496.653
8497.31
8497.906
8498.438
8498.899
8499.285
8499.592
8499.813
8499.942
8499.977
8499.915
8499.753
8499.489
8499.121
8498.648
8498.068
8497.365
8496.577
8495.677
8494.671
8493.562
8492.352
8491.044
8489.626
8488.15
8486.572
8484.903
8483.145
8481.318
8479.412
8477.43
8475.385
8473.288
8471.176
8469.124
8467.192
8465.413
8463.608
8461.578
8459.362
8457.065
8454.755
8452.465
8450.194
8447.93
8445.676
8443.453
8441.262
8439.104
8436.986
8434.913
8432.89
8430.923
8429.017
8427.177
8425.409
8423.719
8422.111
8420.592
8419.171
8417.836
8416.606
8415.483
8414.471
8413.573
8412.793
8412.135
8411.601
8411.194
8410.916
8410.769
8410.756
8410.875
8411.128
8411.515
8412.035
8412.684
8413.465
8414.366
8415.394
8416.531
8417.803
8419.195
8420.763
8422.546
8424.614
8488.412
8490.861
8492.951
8495.218
8497.599
8500.049
8502.585
8505.206
8507.905
8510.674
8513.509
8516.403
8519.349
8522.338
8525.36
8528.407
8531.466
8534.528
8537.585
8540.621
8543.621
8546.573
8549.469
8552.28
8554.985
8557.572
8560.011
8562.271
8564.318
8566.107
8567.563
8568.598
8569.177
8569.296
8569.228
8569.973
8573.248
8577.864
8581.66
8584.899
8587.742
8590.159
8592.192
8593.874
8595.22
8596.241
8596.946
8597.342
8597.435
8597.229
8596.727
8595.932
8594.849
8593.479
8591.826
8589.895
8587.687
8585.207
8582.46
8579.448
8576.177
8572.649
8568.866
8564.827
8560.541
8556.026
8551.287
8546.345
8541.21
8536.114
8471.014
8466.05
8457.597
8449.023
8441.619
8434.407
8427.109
8419.689
8412.076
8404.268
8396.29
8388.128
8379.769
8371.198
8362.409
8353.399
8344.165
8334.707
8325.012
8315.08
8304.922
8294.5
8283.814
8272.858
8261.625
8250.103
8238.289
8226.18
8213.774
8201.106
8188.076
8174.732
8161.065
8147.071
8132.744
8118.079
8103.073
8087.722
8072.024
8055.98
8039.592
8022.876
8005.77
7988.279
7970.356
7951.897
7932.812
7913.176
7893.134
7872.757
7852.048
7831.003
7809.602
7787.658
7764.784
7741.726
7718.857
7695.8
7672.281
7648.349
7624.104
7599.57
7574.753
7549.663
7524.315
7498.722
7472.895
7446.843
7420.579
7394.113
7367.458
7340.635
7313.663
7286.56
7259.347
7232.043
7204.667
7177.24
7149.783
7122.316
7094.859
7067.433
7040.057
7012.752
6985.539
6958.437
6931.466
6904.647
6877.998
6851.538
6825.287
6799.263
6773.483
6747.966
6722.728
6697.785
6673.155
6648.853
6624.894
6601.292
6578.062
6555.216
6532.768
6510.731
6489.115
6467.932
6447.193
6426.908
6407.086
6387.737
6368.869
6350.49
6332.608
6315.23
6298.362
6282.011
6266.182
6250.882
6236.114
6221.884
6208.194
6195.048
6182.45
6170.4
6158.903
6147.957
6137.563
6127.719
6118.422
6109.665
6101.441
6093.741
6086.557
6079.897
6073.831
6068.592
6064.63
6062.328
6061.249
7249.189
7285.683
7312.858
7334.126
7349.995
7360.784
7366.859
7368.618
7366.41
7358.631
7331.961
7319.567
7305.557
7290.958
7276.093
7261.391
7247.249
7233.945
7223.38
7181.592
7171.017
7163.083
7157.762
7154.484
7153.298
7154.125
7156.881
7161.605
7168.484
7175.018
7184.887
7195.75
7207.84
7221.07
7235.3
7250.38
7266.036
7282.038
7297.029
7313.705
7330.73
7347.175
7363.273
7379.063
7394.458
7409.308
7423.636
7437.759
7450.488
7462.572
7474.288
7485.689
7496.783
7507.645
7518.408
7529.375
7483.255
7494.228
7505.495
7518.111
7531.841
7546.556
7562.388
7579.421
7597.698
7617.228
7637.904
7659.525
7682.084
7705.473
7729.494
7753.933
7778.581
7803.238
7827.699
7851.72
7875.088
7897.713
7919.466
7940.229
7959.922
7978.507
7995.973
8012.324
8027.555
8041.623
8054.557
8066.489
8077.504
8087.664
8097.026
8105.649
8113.541
8120.768
8127.121
8133.295
8139.235
8144.655
8149.695
8154.532
8159.208
8163.703
8168.04
8172.231
8176.275
8180.242
8184.215
8188.245
8192.395
8196.717
8201.253
8205.963
8210.787
8215.362
8218.573
8220.661
8222.944
8225.353
8226.994
8227.621
8227.734
8227.809
8227.982
8228.224
8228.5
8228.806
8229.152
8229.546
8230.003
8230.564
8231.304
8232.351
8233.865
8236.088
8239.096
8242.73
8247.016
8251.382
8254.383
8255.311
8254.128
8250.827
8245.787
8241.821
8240.687
8241.317
8242.376
8243.337
8244.212
8245.097
8246.009
8246.908
8247.765
8248.576
8249.342
8250.064
8250.738
8251.36
8251.926
8252.431
8252.87
8253.239
8253.531
8253.743
8253.869
8253.906
8253.85
8253.698
8253.448
8253.099
8252.649
8252.094
8251.426
8250.656
8249.781
8248.805
8247.731
8246.558
8245.289
8243.943
8242.464
8240.909
8239.27
8237.519
8235.773
8233.932
8232.009
8230.032
8228.015
8225.98
8223.952
8221.958
8220.032
8218.121
8216.08
8213.873
8211.593
8209.307
8207.035
8204.772
8202.515
8200.271
8198.049
8195.854
8193.691
8191.565
8189.482
8187.448
8185.468
8183.549
8181.695
8179.913
8178.208
8176.584
8175.049
8173.607
8172.259
8171.012
8169.873
8168.844
8167.93
8167.134
8166.46
8165.911
8165.489
8165.198
8165.038
8165.012
8165.12
8165.363
8165.741
8166.254
8166.898
8167.676
8168.582
8169.614
8170.771
8172.089
8173.55
8175.175
8177.006
8179.102
8181.544
8183.991
8186.306
8188.591
8190.961
8193.448
8196.029
8198.688
8201.423
8204.227
8207.095
8210.02
8212.995
8216.012
8219.06
8222.132
8225.216
8228.303
8231.381
8234.439
8237.461
8240.436
8243.347
8246.179
8248.911
8251.523
8253.994
8256.298
8258.408
8260.296
8261.949
8263.385
8264.592
8265.702
8266.979
8268.793
8271.377
8274.506
8277.643
8280.484
8282.971
8285.126
8286.968
8288.502
8289.727
8290.643
8291.254
8291.565
8291.578
8291.297
8290.723
8289.858
8288.705
8287.268
8285.548
8283.549
8281.275
8278.729
8275.915
8272.836
8269.497
8265.9
8262.049
8257.95
8253.605
8249.029
8244.22
8239.201
8233.916
8228.321
8221.967
8214.687
8207.774
8201.465
8195.271
8188.769
8181.886
8174.711
8167.291
8159.646
8151.798
8143.695
8135.38
8126.849
8118.097
8109.121
8099.919
8090.487
8080.821
8070.915
8060.818
8050.403
8039.726
8028.783
8017.567
8006.069
7994.282
7982.202
7969.822
7957.099
7944.121
7930.822
7917.196
7903.239
7888.944
7874.307
7859.324
7843.99
7828.303
7812.259
7795.854
7779.085
7761.937
7744.389
7726.405
7707.939
7688.941
7669.427
7649.483
7629.171
7608.494
7587.426
7565.928
7543.99
7521.901
7499.462
7476.516
7453.131
7429.398
7405.362
7381.033
7356.421
7331.54
7306.4
7281.008
7255.372
7229.501
7203.406
7177.098
7150.591
7123.898
7097.036
7070.024
7042.881
7015.625
6988.277
6960.857
6933.385
6905.882
6878.368
6850.862
6823.387
6795.96
6768.605
6741.34
6714.185
6687.162
6660.29
6633.588
6607.075
6580.771
6554.693
6528.86
6503.29
6478
6453.006
6428.324
6403.971
6379.961
6356.31
6333.031
6310.137
6287.641
6265.557
6243.895
6222.668
6201.885
6181.556
6161.692
6142.302
6123.394
6104.975
6087.055
6069.639
6052.735
6036.349
6020.486
6005.152
5990.352
5976.091
5962.371
5949.197
5936.572
5924.499
5912.979
5902.015
5891.608
5881.758
5872.463
5863.723
5855.538
5847.911
5840.856
5834.4
5828.607
5823.6
5819.511
5817.02
5815.375
6417.352
6483.422
6540.054
6589.42
6644.076
6670.923
6721.984
6770.436
6816.236
6857.483
6897.574
6935.877
6969.104
6997.274
7019.97
7037.298
7049.447
7056.717
7059.495
7058.255
7053.583
7046.318
7036.834
7025.122
7011.999
6998.239
6984.316
6970.661
6957.663
6945.843
6936.717
6859.797
6853.082
6847.932
6843.777
6841.443
6841.223
6843.03
6846.752
6852.312
6859.644
6868.434
6878.495
6889.98
6902.86
6916.85
6931.706
6947.172
6963.21
6979.63
6996.072
7012.538
7029.206
7045.802
7062.097
7077.983
7093.392
7108.267
7122.547
7136.156
7149.035
7161.31
7173.077
7184.404
7195.361
7206.058
7216.598
7227.534
7238.996
7249.848
7261.279
7273.695
7286.988
7301.253
7316.58
7333.121
7350.91
7369.945
7390.164
7411.454
7433.731
7456.869
7480.687
7504.98
7529.537
7554.146
7578.587
7602.619
7626.047
7648.759
7670.623
7691.513
7711.346
7730.074
7747.68
7764.162
7779.521
7793.755
7806.889
7818.992
7830.143
7840.417
7849.867
7858.557
7866.503
7873.808
7880.532
7886.846
7892.808
7898.364
7903.547
7908.448
7913.134
7917.626
7921.949
7926.117
7930.172
7934.169
7938.147
7942.14
7946.191
7950.324
7954.534
7958.778
7962.981
7966.939
7970.159
7972.623
7974.867
7977.003
7978.67
7979.7
7980.307
7980.774
7981.236
7981.71
7982.194
7982.698
7983.239
7983.836
7984.513
7985.31
7986.286
7987.529
7989.143
7991.238
7993.82
7996.766
7999.917
8002.878
8005.07
8005.942
8005.329
8003.435
8000.684
7998.269
7997.175
7997.239
7997.825
7998.526
7999.252
8000.017
8000.818
8001.626
8002.413
8003.169
8003.891
8004.575
8005.217
8005.812
8006.354
8006.839
8007.261
8007.615
8007.896
8008.098
8008.217
8008.249
8008.189
8008.037
8007.789
8007.443
8006.996
8006.446
8005.791
8005.036
8004.179
8003.222
8002.167
8001.015
7999.768
7998.433
7997.002
7995.488
7993.893
7992.251
7990.45
7988.604
7986.697
7984.761
7982.776
7980.763
7978.739
7976.722
7974.721
7972.704
7970.61
7968.42
7966.173
7963.909
7961.644
7959.38
7957.12
7954.87
7952.638
7950.431
7948.254
7946.113
7944.014
7941.963
7939.965
7938.028
7936.156
7934.354
7932.63
7930.987
7929.431
7927.968
7926.602
7925.337
7924.178
7923.131
7922.199
7921.386
7920.695
7920.131
7919.694
7919.389
7919.217
7919.18
7919.278
7919.512
7919.883
7920.391
7921.029
7921.807
7922.718
7923.754
7924.871
7926.266
7927.773
7929.427
7931.251
7933.25
7935.402
7937.652
7939.982
7942.365
7944.82
7947.353
7949.968
7952.659
7955.42
7958.249
7961.141
7964.089
7967.088
7970.129
7973.204
7976.304
7979.418
7982.538
7985.651
7988.746
7991.811
7994.833
7997.796
8000.685
8003.483
8006.174
8008.74
8011.161
8013.421
8015.511
8017.431
8019.189
8020.825
8022.432
8024.152
8026.126
8028.488
8031.199
8033.991
8036.595
8038.917
8040.957
8042.721
8044.203
8045.393
8046.288
8046.888
8047.194
8047.207
8046.928
8046.358
8045.499
8044.352
8042.921
8041.207
8039.213
8036.944
8034.401
8031.589
8028.511
8025.171
8021.574
8017.722
8013.619
8009.272
8004.684
7999.86
7994.786
7989.47
7983.899
7978.233
7972.42
7966.162
7959.444
7952.507
7945.454
7938.261
7930.906
7923.377
7915.676
7907.871
7899.691
7891.327
7882.768
7874.003
7865.024
7855.824
7846.398
7836.741
7826.844
7816.652
7806.274
7795.641
7784.742
7773.568
7762.113
7750.371
7738.335
7725.997
7713.34
7700.381
7687.106
7673.506
7659.575
7645.307
7630.695
7615.734
7600.419
7584.744
7568.704
7552.292
7535.501
7518.317
7500.724
7482.697
7464.212
7445.244
7425.802
7405.927
7385.654
7364.991
7343.933
7322.486
7300.673
7278.527
7255.949
7232.933
7209.552
7185.851
7161.838
7137.518
7112.904
7088.008
7062.84
7037.41
7011.726
6985.803
6959.65
6933.283
6906.713
6879.958
6853.034
6825.958
6798.751
6771.43
6744.016
6716.528
6688.991
6661.423
6633.844
6606.273
6578.73
6551.238
6523.815
6496.484
6469.263
6442.174
6415.236
6388.468
6361.891
6335.523
6309.383
6283.488
6257.857
6232.507
6207.454
6182.715
6158.306
6134.241
6110.536
6087.204
6064.259
6041.714
6019.582
5997.873
5976.6
5955.772
5935.401
5915.495
5896.065
5877.117
5858.661
5840.705
5823.254
5806.316
5789.897
5774.002
5758.639
5743.81
5729.521
5715.776
5702.578
5689.931
5677.839
5666.303
5655.326
5644.912
5635.06
5625.774
5617.056
5608.912
5601.352
5594.392
5588.063
5582.413
5577.52
5573.454
5570.41
5567.728
5834.599
5853.361
5875.753
5879.793
5899.713
5895.893
5925.617
5960.083
5999.165
6042.689
6090.332
6138.479
6190.413
6243.962
6298.295
6351.858
6356.326
6409.045
6457.808
6503.193
6545.773
6586.328
6624.281
6657.825
6685.553
6707.42
6723.741
6734.823
6741.02
6742.784
6740.656
6735.245
6727.169
6716.91
6704.92
6691.761
6678.007
6664.152
6650.619
6637.756
6625.776
6614.986
6605.165
6598.009
6592.92
6589.34
6587.537
6587.753
6589.974
6594.121
6600.126
6607.864
6617.126
6627.853
6639.974
6653.338
6667.727
6682.93
6698.81
6715.247
6732.086
6749.112
6766.17
6783.242
6800.21
6816.871
6833.108
6848.851
6864.029
6878.58
6892.468
6905.649
6918.158
6930.085
6941.513
6952.523
6963.23
6973.758
6984.375
6995.157
7005.887
7017.13
7029.197
7042.167
7056.121
7071.196
7087.451
7104.961
7123.732
7143.722
7164.841
7186.986
7210.021
7233.773
7258.039
7282.603
7307.246
7331.74
7355.851
7379.375
7402.157
7424.069
7445.004
7464.881
7483.652
7501.298
7517.824
7533.235
7547.526
7560.715
7572.86
7584.037
7594.32
7603.773
7612.464
7620.446
7627.812
7634.613
7640.932
7646.852
7652.392
7657.576
7662.465
7667.122
7671.583
7675.874
7680.022
7684.063
7688.033
7691.962
7695.876
7699.802
7703.747
7707.699
7711.62
7715.428
7718.994
7722.112
7724.72
7726.994
7729.039
7730.755
7732.055
7733.018
7733.801
7734.517
7735.211
7735.899
7736.597
7737.325
7738.107
7738.969
7739.944
7741.08
7742.43
7744.053
7745.984
7748.204
7750.614
7753.057
7755.293
7756.984
7757.796
7757.621
7756.626
7755.132
7753.712
7752.911
7752.831
7753.202
7753.754
7754.375
7755.048
7755.762
7756.494
7757.22
7757.929
7758.612
7759.263
7759.877
7760.448
7760.97
7761.437
7761.844
7762.184
7762.452
7762.644
7762.753
7762.776
7762.71
7762.553
7762.304
7761.956
7761.507
7760.957
7760.306
7759.555
7758.705
7757.756
7756.711
7755.571
7754.337
7753.013
7751.598
7750.097
7748.514
7746.859
7745.116
7743.306
7741.447
7739.514
7737.541
7735.544
7733.52
7731.48
7729.427
7727.347
7725.217
7723.027
7720.79
7718.529
7716.258
7713.983
7711.71
7709.447
7707.199
7704.974
7702.778
7700.618
7698.498
7696.424
7694.404
7692.444
7690.548
7688.722
7686.973
7685.306
7683.726
7682.238
7680.848
7679.559
7678.378
7677.308
7676.354
7675.52
7674.81
7674.226
7673.772
7673.45
7673.262
7673.211
7673.297
7673.518
7673.881
7674.381
7675.006
7675.803
7676.739
7677.824
7679.108
7680.395
7681.871
7683.514
7685.318
7687.282
7689.402
7691.644
7693.972
7696.365
7698.831
7701.378
7704.009
7706.718
7709.501
7712.353
7715.271
7718.247
7721.276
7724.348
7727.457
7730.593
7733.747
7736.909
7740.069
7743.214
7746.334
7749.415
7752.444
7755.407
7758.29
7761.077
7763.755
7766.31
7768.732
7771.016
7773.167
7775.199
7777.15
7779.077
7781.062
7783.186
7785.512
7788.015
7790.55
7792.955
7795.142
7797.089
7798.784
7800.216
7801.371
7802.244
7802.83
7803.129
7803.138
7802.858
7802.288
7801.429
7800.283
7798.851
7797.136
7795.141
7792.868
7790.321
7787.503
7784.418
7781.07
7777.463
7773.6
7769.486
7765.125
7760.519
7755.674
7750.585
7745.263
7739.694
7733.878
7727.72
7721.226
7714.493
7707.799
7700.982
7693.95
7686.691
7679.211
7671.5
7663.49
7655.459
7647.195
7638.703
7629.991
7621.059
7611.902
7602.517
7592.898
7583.036
7572.911
7562.548
7551.933
7541.057
7529.911
7518.487
7506.778
7494.777
7482.474
7469.863
7456.942
7443.703
7430.138
7416.24
7402.002
7387.418
7372.481
7357.184
7341.522
7325.488
7309.075
7292.273
7275.07
7257.454
7239.408
7220.916
7201.969
7182.57
7162.738
7142.492
7121.846
7100.802
7079.368
7057.543
7035.333
7012.725
6989.729
6966.374
6942.679
6918.656
6894.313
6869.666
6844.726
6819.505
6794.014
6768.266
6742.272
6716.046
6689.602
6662.955
6636.12
6609.115
6581.958
6554.667
6527.261
6499.76
6472.185
6444.557
6416.897
6389.222
6361.556
6333.917
6306.328
6278.809
6251.382
6224.066
6196.883
6169.852
6142.993
6116.325
6089.869
6063.641
6037.661
6011.947
5986.515
5961.383
5936.567
5912.083
5887.945
5864.17
5840.769
5817.759
5795.15
5772.956
5751.188
5729.858
5708.976
5688.552
5668.596
5649.117
5630.123
5611.623
5593.624
5576.133
5559.156
5542.701
5526.772
5511.375
5496.515
5482.197
5468.424
5455.202
5442.533
5430.42
5418.868
5407.878
5397.454
5387.6
5378.32
5369.619
5361.505
5353.99
5347.091
5340.832
5335.247
5330.376
5326.234
5322.898
5319.785
5642.955
5641.838
5635.354
5616.902
5609.9
5573.217
5569.313
5566.858
5566.171
5567.702
5571.361
5578.007
5588.096
5601.837
5619.586
5587.241
5616.965
5650.73
5689.248
5732.484
5779.753
5830.076
5883.049
5937.798
5992.9
6046.974
6098.644
6151.49
6201.179
6247.316
6290.099
6330.11
6367.219
6400.141
6427.652
6449.371
6465.459
6476.269
6482.216
6483.776
6481.487
6475.932
6467.725
6457.421
6445.502
6432.468
6418.851
6405.134
6391.728
6378.98
6367.14
6356.48
6347.363
6340.367
6335.368
6332.104
6330.632
6331.109
6333.568
6337.975
6344.3
6352.578
6362.413
6373.571
6386.096
6399.881
6414.737
6430.482
6446.951
6463.975
6481.391
6499.019
6516.674
6534.351
6551.953
6569.196
6585.941
6602.143
6617.75
6632.715
6647.017
6660.605
6673.469
6685.69
6697.362
6708.575
6719.432
6730.053
6740.62
6751.26
6762.067
6773.322
6785.289
6798.12
6811.929
6826.845
6842.933
6860.281
6878.9
6898.751
6919.759
6941.816
6964.786
6988.494
7012.739
7037.309
7061.983
7086.515
7110.668
7134.22
7156.993
7178.869
7199.754
7219.579
7238.288
7255.864
7272.333
7287.729
7302.024
7315.196
7327.307
7338.44
7348.674
7358.079
7366.725
7374.678
7382.011
7388.785
7395.07
7400.939
7406.434
7411.588
7416.452
7421.077
7425.501
7429.756
7433.87
7437.873
7441.792
7445.652
7449.477
7453.279
7457.06
7460.805
7464.477
7468.013
7471.331
7474.333
7476.964
7479.273
7481.328
7483.116
7484.603
7485.821
7486.861
7487.808
7488.71
7489.592
7490.474
7491.378
7492.326
7493.343
7494.457
7495.701
7497.107
7498.7
7500.488
7502.443
7504.485
7506.49
7508.294
7509.688
7510.486
7510.631
7510.227
7509.488
7508.723
7508.252
7508.219
7508.517
7508.987
7509.54
7510.151
7510.804
7511.482
7512.164
7512.836
7513.488
7514.115
7514.708
7515.262
7515.769
7516.224
7516.62
7516.95
7517.211
7517.395
7517.494
7517.506
7517.43
7517.265
7517.013
7516.666
7516.217
7515.666
7515.016
7514.267
7513.421
7512.476
7511.436
7510.301
7509.073
7507.754
7506.346
7504.852
7503.278
7501.626
7499.895
7498.095
7496.237
7494.321
7492.362
7490.355
7488.321
7486.257
7484.165
7482.043
7479.881
7477.673
7475.426
7473.154
7470.868
7468.576
7466.285
7464.002
7461.733
7459.485
7457.265
7455.079
7452.933
7450.832
7448.784
7446.794
7444.87
7443.015
7441.237
7439.54
7437.93
7436.414
7434.994
7433.678
7432.469
7431.373
7430.394
7429.535
7428.801
7428.195
7427.721
7427.38
7427.175
7427.108
7427.181
7427.388
7427.75
7428.254
7428.917
7429.692
7430.619
7431.697
7432.928
7434.276
7435.776
7437.43
7439.236
7441.19
7443.285
7445.5
7447.813
7450.209
7452.691
7455.259
7457.913
7460.648
7463.46
7466.344
7469.295
7472.307
7475.373
7478.485
7481.637
7484.819
7488.023
7491.238
7494.455
7497.663
7500.85
7504.005
7507.115
7510.167
7513.149
7516.047
7518.851
7521.551
7524.139
7526.613
7528.98
7531.253
7533.458
7535.635
7537.829
7540.085
7542.427
7544.831
7547.219
7549.495
7551.589
7553.468
7555.112
7556.504
7557.633
7558.487
7559.062
7559.354
7559.358
7559.076
7558.504
7557.643
7556.495
7555.061
7553.342
7551.342
7549.062
7546.507
7543.679
7540.583
7537.223
7533.602
7529.725
7525.595
7521.218
7516.595
7511.731
7506.628
7501.283
7495.691
7489.858
7483.77
7477.477
7471.039
7464.294
7457.355
7450.246
7442.947
7435.451
7427.746
7419.826
7411.745
7403.464
7394.974
7386.272
7377.355
7368.218
7358.857
7349.264
7339.433
7329.354
7319.029
7308.453
7297.615
7286.509
7275.127
7263.46
7251.501
7239.242
7226.676
7213.797
7200.598
7187.071
7173.209
7159.004
7144.449
7129.537
7114.261
7098.614
7082.588
7066.176
7049.368
7032.155
7014.525
6996.466
6977.97
6959.03
6939.649
6919.835
6899.601
6878.957
6857.907
6836.457
6814.607
6792.366
6769.737
6746.728
6723.351
6699.621
6675.552
6651.157
6626.448
6601.438
6576.139
6550.565
6524.727
6498.638
6472.313
6445.767
6419.014
6392.072
6364.957
6337.689
6310.285
6282.764
6255.145
6227.447
6199.693
6171.904
6144.099
6116.299
6088.527
6060.806
6033.156
6005.599
5978.154
5950.844
5923.689
5896.708
5869.921
5843.347
5817.006
5790.915
5765.093
5739.557
5714.325
5689.412
5664.834
5640.607
5616.745
5593.262
5570.172
5547.488
5525.222
5503.386
5481.991
5461.047
5440.565
5420.554
5401.023
5381.981
5363.435
5345.392
5327.861
5310.846
5294.356
5278.394
5262.967
5248.079
5233.735
5219.94
5206.698
5194.012
5181.886
5170.324
5159.33
5148.908
5139.062
5129.797
5121.119
5113.036
5105.558
5098.702
5092.483
5086.922
5082.041
5077.836
5074.369
5071.103
5518.985
5463.595
5433.327
5407.499
5387.151
5371.747
5359.513
5349.634
5341.49
5334.392
5267.14
5263.242
5260.692
5259.769
5260.824
5264.224
5270.347
5279.645
5292.566
5310.031
5331.769
5359.751
5392.505
5430.188
5472.598
5519.397
5570.139
5623.62
5678.559
5734.419
5790.614
5844.86
5897.246
5946.791
5992.751
6034.915
6073.475
6108.429
6139.144
6164.794
6184.932
6199.602
6209.144
6214.018
6214.727
6211.806
6205.818
6197.347
6186.948
6175.119
6162.34
6149.076
6135.765
6122.811
6110.586
6099.391
6089.559
6081.289
6074.813
6070.25
6067.574
6066.786
6067.956
6071.127
6076.291
6083.317
6091.954
6102.22
6114.08
6127.306
6141.728
6157.321
6173.934
6191.338
6209.317
6227.688
6246.277
6264.887
6283.385
6301.672
6319.601
6337.048
6353.932
6370.179
6385.757
6400.707
6414.937
6428.354
6441.056
6453.176
6464.797
6475.978
6486.857
6497.613
6508.411
6519.394
6530.777
6542.79
6555.616
6569.398
6584.241
6600.246
6617.493
6636.003
6655.744
6676.645
6698.6
6721.469
6745.079
6769.232
6793.723
6818.361
6842.843
6866.874
6890.296
6912.969
6934.747
6955.53
6975.253
6993.846
7011.282
7027.589
7042.805
7056.964
7070.04
7082.046
7093.074
7103.209
7112.522
7121.085
7128.967
7136.235
7142.954
7149.19
7155.005
7160.449
7165.562
7170.389
7174.975
7179.358
7183.57
7187.638
7191.59
7195.449
7199.238
7202.972
7206.659
7210.297
7213.871
7217.352
7220.695
7223.846
7226.748
7229.364
7231.704
7233.803
7235.671
7237.301
7238.716
7239.968
7241.119
7242.212
7243.273
7244.325
7245.388
7246.483
7247.633
7248.858
7250.179
7251.616
7253.178
7254.858
7256.627
7258.421
7260.147
7261.689
7262.921
7263.74
7264.115
7264.111
7263.878
7263.572
7263.378
7263.453
7263.757
7264.199
7264.722
7265.301
7265.921
7266.566
7267.218
7267.866
7268.499
7269.11
7269.691
7270.235
7270.735
7271.187
7271.577
7271.899
7272.158
7272.344
7272.442
7272.45
7272.369
7272.201
7271.942
7271.59
7271.142
7270.599
7269.958
7269.219
7268.38
7267.443
7266.408
7265.277
7264.051
7262.732
7261.323
7259.828
7258.25
7256.591
7254.856
7253.051
7251.184
7249.258
7247.282
7245.261
7243.2
7241.105
7238.977
7236.813
7234.612
7232.374
7230.102
7227.806
7225.495
7223.177
7220.86
7218.548
7216.251
7213.973
7211.721
7209.504
7207.326
7205.189
7203.107
7201.085
7199.126
7197.238
7195.425
7193.695
7192.052
7190.503
7189.051
7187.704
7186.465
7185.34
7184.333
7183.448
7182.69
7182.061
7181.565
7181.205
7180.984
7180.902
7180.965
7181.178
7181.524
7182.02
7182.668
7183.457
7184.393
7185.477
7186.708
7188.078
7189.593
7191.256
7193.066
7195.016
7197.101
7199.306
7201.618
7204.026
7206.528
7209.121
7211.802
7214.568
7217.414
7220.334
7223.324
7226.377
7229.488
7232.648
7235.851
7239.087
7242.35
7245.628
7248.913
7252.193
7255.459
7258.699
7261.902
7265.055
7268.147
7271.167
7274.106
7276.955
7279.708
7282.366
7284.931
7287.414
7289.834
7292.212
7294.577
7296.947
7299.329
7301.704
7304.025
7306.23
7308.266
7310.1
7311.708
7313.073
7314.182
7315.023
7315.589
7315.874
7315.875
7315.588
7315.013
7314.148
7312.995
7311.554
7309.827
7307.817
7305.526
7302.957
7300.115
7297.002
7293.624
7289.984
7286.087
7281.936
7277.537
7272.893
7268.008
7262.89
7257.518
7251.912
7246.069
7240.001
7233.706
7227.206
7220.494
7213.592
7206.503
7199.221
7191.739
7184.056
7176.172
7168.101
7159.834
7151.363
7142.684
7133.792
7124.683
7115.352
7105.792
7095.996
7085.959
7075.676
7065.141
7054.345
7043.281
7031.941
7020.318
7008.402
6996.186
6983.663
6970.825
6957.665
6944.174
6930.344
6916.168
6901.639
6886.747
6871.486
6855.848
6839.825
6823.408
6806.59
6789.361
6771.712
6753.634
6735.12
6716.168
6696.776
6676.951
6656.7
6636.031
6614.948
6593.455
6571.559
6549.265
6526.58
6503.509
6480.065
6456.26
6432.108
6407.621
6382.812
6357.693
6332.279
6306.581
6280.613
6254.39
6227.925
6201.235
6174.335
6147.243
6119.977
6092.554
6064.995
6037.319
6009.546
5981.696
5953.793
5925.859
5897.912
5869.975
5842.068
5814.213
5786.431
5758.745
5731.174
5703.74
5676.463
5649.364
5622.463
5595.778
5569.329
5543.135
5517.213
5491.581
5466.256
5441.254
5416.592
5392.284
5368.345
5344.79
5321.631
5298.882
5276.555
5254.661
5233.211
5212.217
5191.687
5171.631
5152.059
5132.977
5114.395
5096.319
5078.757
5061.714
5045.197
5029.211
5013.762
4998.855
4984.494
4970.685
4957.43
4944.734
4932.601
4921.036
4910.042
4899.625
4889.789
4880.538
4871.88
4863.821
4856.371
4849.542
4843.345
4837.795
4832.901
4828.654
4825.118
4821.781
5252.57
5199.697
5106.619
5087.774
5072.072
5059.374
5048.95
5040.211
5032.635
5026.373
5021.173
5017.035
5013.981
5012.304
5012.447
5014.744
5019.557
5027.598
5039.369
5055.52
5076.683
5103.843
5136.305
5173.863
5216.214
5263.291
5314.681
5369.031
5424.833
5480.945
5536.541
5590.11
5640.93
5688.553
5732.408
5772.18
5807.862
5839.453
5866.729
5889.266
5906.778
5919.271
5927.017
5930.461
5930.111
5926.487
5920.115
5911.522
5901.23
5889.719
5877.47
5864.884
5852.33
5840.201
5828.863
5818.628
5809.758
5802.434
5796.849
5793.178
5791.48
5791.757
5793.974
5798.119
5804.263
5812.359
5822.187
5833.728
5846.897
5861.492
5877.359
5894.392
5912.417
5931.218
5950.602
5970.383
5990.348
6010.299
6030.007
6049.373
6068.42
6087.03
6105.042
6122.338
6138.835
6154.508
6169.372
6183.444
6196.795
6209.618
6221.949
6233.719
6245.066
6256.209
6267.338
6278.618