/*--------------------------------*- C++ -*----------------------------------*\
| =========                 |                                                 |
| \\      /  F ield         | foam-extend: Open Source CFD                    |
|  \\    /   O peration     | Version:     3.1                                |
|   \\  /    A nd           | Web:         http://www.extend-project.de       |
|    \\/     M anipulation  |                                                 |
\*---------------------------------------------------------------------------*/
FoamFile
{
    version     2.0;
    format      ascii;
    class       surfaceScalarField;
    location    "4.5";
    object      phi;
}
// * * * * * * * * * * * * * * * * * * * * * * * * * * * * * * * * * * * * * //

dimensions      [0 3 -1 0 0 0 0];

internalField   nonuniform List<scalar> 
275122
(
-0.0001072924
0.0001085915
-2.527967e-08
-1.273788e-06
-9.721853e-05
9.285929e-05
3.63658e-07
3.995583e-06
-9.695573e-05
9.966865e-05
-9.284191e-08
-2.620078e-06
-0.0001091441
0.0001122426
-1.021115e-07
-2.996403e-06
-0.0001203155
0.0001215086
-1.074105e-07
-1.085632e-06
-0.0001222117
0.0001223052
-1.02079e-07
8.651793e-09
-0.0001220148
0.0001218246
-8.976221e-08
2.799204e-07
-0.000121097
0.0001208103
-7.874432e-08
3.654351e-07
-0.0001198653
0.0001195247
-6.968283e-08
4.103317e-07
-0.0001184399
0.0001180573
-6.196603e-08
4.445352e-07
-0.0001168545
0.0001164357
-5.52863e-08
4.741312e-07
-0.0001151322
0.0001146826
-4.930051e-08
4.988747e-07
-0.000113293
0.0001128168
-4.405029e-08
5.202148e-07
-0.0001113518
0.0001108525
-3.944901e-08
5.386946e-07
-0.0001093221
0.0001088036
-3.54219e-08
5.538955e-07
-0.0001072193
0.0001066867
-3.196951e-08
5.645075e-07
-0.0001050652
0.0001045279
-2.955886e-08
5.668865e-07
-0.0001029084
0.0001023918
-3.159419e-08
5.481362e-07
-0.0001009122
0.0001004951
-5.575873e-08
4.728637e-07
-9.971602e-05
9.994222e-05
-1.719393e-07
-5.4263e-08
-0.0001111151
0.0001151753
-3.475305e-07
-3.712712e-06
-0.0001171417
0.0001176246
-1.027323e-07
-3.800964e-07
-0.0001192462
0.0001201659
-4.614638e-08
-8.73553e-07
-0.0001336404
0.0001387467
1.284173e-07
-5.234692e-06
-0.0001402622
0.0001406
1.839856e-07
-5.218024e-07
-0.0001423487
0.000142712
-1.580417e-08
-3.475095e-07
-0.000143279
0.000143229
-3.020555e-08
8.016988e-08
-0.0001423606
0.0001413852
-2.384434e-08
9.9917e-07
-0.0001336253
0.0001251809
-2.723991e-08
8.471687e-06
-9.441838e-05
9.677396e-05
2.960096e-09
-2.358541e-06
-4.33088e-05
4.538372e-05
-1.192321e-08
-2.063e-06
-5.20919e-05
5.448179e-05
1.633032e-09
-2.391525e-06
-6.246171e-05
6.533807e-05
1.763461e-09
-2.878121e-06
-7.448967e-05
7.770197e-05
1.688992e-09
-3.213988e-06
-8.770244e-05
9.115359e-05
1.557993e-09
-3.45271e-06
-0.0001018036
0.0001054521
1.42733e-09
-3.649972e-06
-0.0001166476
0.0001204681
1.346692e-09
-3.821885e-06
-0.0001321582
0.00013614
1.448548e-09
-3.983279e-06
-0.0001483185
0.000152491
1.619272e-09
-4.174189e-06
-0.0001652556
0.0001698235
4.81397e-08
-4.616027e-06
2.964264e-06
-0.0001168484
0.0001180665
-1.194768e-12
-4.182382e-06
3.154543e-06
-0.0001217197
0.00012286
-2.055762e-10
-4.29467e-06
3.451282e-06
-0.0001259474
0.0001269032
-3.17751e-10
-4.406734e-06
3.686207e-06
-0.0001295194
0.0001303364
-2.377677e-10
-4.502941e-06
3.850902e-06
-0.0001326387
0.0001333722
-1.847807e-10
-4.584218e-06
3.973587e-06
-0.0001354696
0.000136144
-1.548419e-10
-4.647845e-06
4.0781e-06
-0.0001380806
0.0001387045
-2.383339e-10
-4.701706e-06
4.143058e-06
-0.0001404793
0.0001410752
-1.602277e-11
-4.738903e-06
4.556401e-06
-0.0001427766
0.000142883
1.078313e-09
-4.663819e-06
3.515724e-06
-0.0005892878
0.0005955416
-3.403348e-11
-2.090147e-05
3.915739e-06
3.416872e-06
3.799355e-06
4.031945e-06
-0.0006002766
0.0006044145
-4.133342e-11
-2.0555e-05
4.180916e-06
4.024689e-06
4.179615e-06
4.159747e-06
-0.0006082659
0.0006119231
-1.719272e-11
-2.044474e-05
4.239281e-06
4.15412e-06
4.234394e-06
4.282694e-06
-0.0006154135
0.0006187005
7.961676e-13
-2.047611e-05
4.319293e-06
4.275302e-06
4.311805e-06
4.361779e-06
-0.0006218753
0.0006248734
5.296796e-12
-2.047802e-05
4.385365e-06
4.354585e-06
4.378206e-06
4.411525e-06
-0.0006277886
0.0006305537
6.546623e-12
-2.043345e-05
4.428834e-06
4.405187e-06
4.422802e-06
4.45429e-06
-0.0006332384
0.0006357802
4.85852e-12
-2.037854e-05
4.469514e-06
4.448756e-06
4.464181e-06
4.474524e-06
-0.0006382563
0.0006406282
2.498902e-12
-2.029623e-05
4.49243e-06
4.4696e-06
4.48778e-06
4.483791e-06
-0.0006430029
0.0006450867
4.330632e-11
-2.00345e-05
4.496552e-06
4.47858e-06
4.491724e-06
4.217667e-06
-0.0006469854
0.000650112
2.769139e-11
-2.041521e-05
4.429241e-06
4.212701e-06
4.429002e-06
4.605084e-06
-0.0006521581
0.000653781
1.376486e-11
-1.991476e-05
4.53953e-06
4.606704e-06
4.540526e-06
4.524302e-06
-0.0006555885
0.0006574296
8.137365e-12
-1.986005e-05
4.484044e-06
4.52657e-06
4.484068e-06
4.534523e-06
-0.0006592443
0.0006610171
6.160116e-12
-1.987054e-05
4.517237e-06
4.530934e-06
4.515015e-06
4.563433e-06
-0.0006627422
0.0006644084
6.638829e-12
-1.993917e-05
4.563421e-06
4.57434e-06
4.571804e-06
4.611076e-06
-0.0006660344
0.0006676109
5.820544e-12
-2.000034e-05
4.612537e-06
4.600111e-06
4.600194e-06
4.651545e-06
-0.0006691547
0.0006706483
5.682224e-12
-2.00819e-05
4.652677e-06
4.638954e-06
4.645162e-06
4.746269e-06
-0.0006721298
0.0006735419
2.341934e-11
-2.031502e-05
4.7544e-06
4.696254e-06
4.705989e-06
5.107242e-06
-0.0006748391
0.0006756505
-1.226299e-11
-2.088431e-05
5.188393e-06
4.85916e-06
4.918063e-06
6.261076e-06
-0.00067541
0.0006728531
-9.197856e-12
-2.166444e-05
6.690502e-06
5.624217e-06
5.645504e-06
9.540948e-06
-0.0006691697
0.0006758855
-5.64131e-12
-1.625678e-05
9.126189e-06
-0.0006816618
0.0006836901
-3.219274e-12
-1.11545e-05
1.385882e-05
-0.000684201
0.0006846889
-1.475438e-12
-1.434673e-05
1.259573e-05
-0.0006850652
0.000685599
-2.105719e-13
-1.312962e-05
8.270056e-06
-0.0006863303
0.0006880547
1.270572e-13
-9.994467e-06
4.478117e-06
-0.0006905748
0.0006929482
2.298524e-14
-6.851525e-06
3.138751e-06
-0.0006952338
0.0006974415
3.235785e-13
-5.346444e-06
2.429248e-06
-0.0006996136
0.000701687
1.440384e-13
-4.502661e-06
1.928363e-06
-0.0007037214
0.0007056907
-3.929939e-13
-3.897592e-06
1.572103e-06
-0.0007076249
0.0007095091
-6.39979e-13
-3.456352e-06
1.305721e-06
-0.0007113706
0.0007131968
-1.29405e-13
-3.131938e-06
1.099993e-06
-0.0007150082
0.0007167943
6.446904e-13
-2.886179e-06
9.372538e-07
-0.0007185709
0.000720332
5.263308e-13
-2.698396e-06
8.112776e-07
-0.0007220855
0.0007238363
-1.03758e-12
-2.562097e-06
7.241179e-07
-0.0007255786
0.0007273348
-3.69655e-12
-2.480312e-06
6.883478e-07
-0.0007290788
0.0007308616
-6.695775e-12
-2.471116e-06
7.406933e-07
-0.0007326249
0.0007344622
-9.13963e-12
-2.577937e-06
9.81827e-07
-0.000736262
0.0007381799
-1.036592e-11
-2.899747e-06
1.682131e-06
-0.000740005
0.000741951
-1.015832e-11
-3.62811e-06
3.507211e-06
-0.0007435575
0.000745036
-8.548583e-12
-4.985687e-06
5.92554e-06
-0.0007453215
0.0007460026
-5.544677e-12
-6.606591e-06
4.639228e-06
-0.0007479837
0.0007501229
-2.153672e-12
-6.77841e-06
8.637643e-06
-0.0007515068
0.0007520342
3.399174e-13
-9.165067e-06
1.47719e-05
-0.0007487929
0.000745806
1.923142e-12
-1.178497e-05
6.991285e-06
-0.000744764
0.0007456908
2.347014e-12
-7.918072e-06
2.565112e-06
-0.0007467961
0.0007474505
2.08332e-12
-3.219498e-06
-1.201515e-06
-0.0007478413
0.0007483113
1.20253e-12
7.315203e-07
-7.804941e-06
-0.0007490645
0.000750377
-2.228103e-13
6.492456e-06
-2.581029e-05
-0.0007531166
0.0007642664
-1.61403e-12
1.466049e-05
-4.997579e-06
-0.0007759626
0.000777684
-2.399997e-12
1.499312e-05
-3.36335e-06
-4.993412e-06
-3.360144e-06
-1.769962e-06
-0.000777843
0.0007793095
-3.008941e-12
5.478537e-06
-1.717451e-06
-1.751073e-06
-1.706625e-06
-9.94751e-07
-0.0007805634
0.0007812844
-2.576549e-12
3.011898e-06
-8.740276e-07
-9.911567e-07
-8.730414e-07
-6.273351e-07
-0.0007818983
0.0007826484
-2.135147e-12
1.711708e-06
-5.985572e-07
-6.317955e-07
-6.041417e-07
-4.901835e-07
-0.000783506
0.0007844699
-2.106361e-12
9.803504e-07
-4.741086e-07
-4.980396e-07
-4.819289e-07
-4.057348e-07
-0.0007854818
0.0007865574
-2.176883e-12
5.424076e-07
-3.944652e-07
-4.145632e-07
-4.032263e-07
-3.542283e-07
-0.0007876801
0.0007888519
-2.150808e-12
2.506185e-07
-3.477442e-07
-3.634997e-07
-3.568938e-07
-3.249947e-07
-0.0007900607
0.0007913081
-2.005014e-12
6.395854e-08
-3.213699e-07
-3.344281e-07
-3.306447e-07
-3.084964e-07
-0.000792587
0.0007938951
-1.961925e-12
-5.926086e-08
-3.068377e-07
-3.176996e-07
-3.15802e-07
-2.990093e-07
-0.0007952293
0.0007965958
-2.142238e-12
-1.552999e-07
-2.980965e-07
-3.075951e-07
-3.064405e-07
-2.934596e-07
-0.0007979857
0.0007994068
-2.420784e-12
-2.31936e-07
-2.932826e-07
-3.014005e-07
-3.01013e-07
-2.91508e-07
-0.0008008501
0.0008023227
-2.669839e-12
-2.915551e-07
-2.918468e-07
-2.987641e-07
-2.988963e-07
-2.926111e-07
-0.0008038157
0.0008053363
-2.865675e-12
-3.355414e-07
-2.934759e-07
-2.991032e-07
-2.99797e-07
-2.96508e-07
-0.0008068759
0.0008084408
-3.014235e-12
-3.64669e-07
-2.978195e-07
-3.023432e-07
-3.035178e-07
-3.03047e-07
-0.0008100233
0.0008116284
-3.102819e-12
-3.790183e-07
-3.047896e-07
-3.083036e-07
-3.09945e-07
-3.122632e-07
-0.0008132496
0.0008148902
-3.137878e-12
-3.777901e-07
-3.144442e-07
-3.170278e-07
-3.191337e-07
-3.242532e-07
-0.0008165451
0.0008182159
-3.111538e-12
-3.598779e-07
-3.268822e-07
-3.28581e-07
-3.311496e-07
-3.390681e-07
-0.0008198987
0.0008215933
-3.048272e-12
-3.244169e-07
-3.421396e-07
-3.429788e-07
-3.459945e-07
-3.566381e-07
-0.0008232976
0.0008250092
-2.994169e-12
-2.710929e-07
-3.601048e-07
-3.601389e-07
-3.635539e-07
-3.767649e-07
-0.0008267277
0.0008284485
-2.917835e-12
-2.000305e-07
-3.805428e-07
-3.798735e-07
-3.836036e-07
-3.992225e-07
-0.0008301732
0.0008318952
-2.663611e-12
-1.115871e-07
-4.032696e-07
-4.019655e-07
-4.059681e-07
-4.236035e-07
-0.0008336185
0.0008353355
-2.272912e-12
-9.173599e-09
-4.279134e-07
-4.260094e-07
-4.302825e-07
-4.503383e-07
-0.0008370486
0.0008387484
-1.816408e-12
1.15036e-07
-4.550265e-07
-4.52432e-07
-4.570924e-07
-4.787328e-07
-0.0008404437
0.0008421208
-1.507073e-12
2.511446e-07
-4.835671e-07
-4.805752e-07
-4.853272e-07
-5.086019e-07
-0.0008437908
0.0008454371
-7.828904e-13
4.009663e-07
-5.135625e-07
-5.101088e-07
-5.149963e-07
-5.396463e-07
0.0008486809
-5.577859e-13
5.635311e-07
-5.445665e-07
-5.408594e-07
-5.457571e-07
-0.0008470736
-5.691328e-07
-0.0008502759
0.0008518355
-5.763848e-13
7.277444e-07
-5.733249e-07
-5.703899e-07
-5.74477e-07
-5.999791e-07
-0.0008533789
0.0008548835
-2.000784e-12
9.078656e-07
-6.050652e-07
-6.011509e-07
-6.062674e-07
-6.354209e-07
-0.0008563733
0.0008578235
5.586724e-13
1.105813e-06
-6.413942e-07
-6.365895e-07
-6.426604e-07
-6.71804e-07
-0.000859259
0.0008606519
5.8766e-13
1.30773e-06
-6.773266e-07
-6.7298e-07
-6.784499e-07
-7.064694e-07
-0.0008620252
0.0008633471
7.267873e-13
1.516368e-06
-7.117285e-07
-7.074476e-07
-7.126784e-07
-7.399958e-07
-0.0008646469
0.0008658933
7.568047e-13
1.724727e-06
-7.447813e-07
-7.408195e-07
-7.45575e-07
-7.716332e-07
-0.0008671168
0.0008682855
9.79446e-13
1.928051e-06
-7.760858e-07
-7.723352e-07
-7.76763e-07
-8.017036e-07
-0.0008694303
0.0008705195
1.172199e-12
2.127046e-06
-8.058462e-07
-8.022887e-07
-8.064048e-07
-8.302852e-07
-0.0008715839
0.0008725925
1.205948e-12
2.321282e-06
-8.341452e-07
-8.307849e-07
-8.346321e-07
-8.572743e-07
-0.0008735756
0.0008745025
9.980828e-13
2.51002e-06
-8.608012e-07
-8.576839e-07
-8.612322e-07
-8.823454e-07
-0.0008754035
0.0008762494
5.472172e-13
2.691763e-06
-8.856596e-07
-8.830916e-07
-8.865129e-07
-9.068228e-07
-0.00087707
0.0008778379
1.578568e-13
2.866468e-06
-9.100026e-07
-9.072541e-07
-9.102624e-07
-9.288705e-07
-0.0008785815
0.0008792742
4.270095e-14
3.028228e-06
-9.316042e-07
-9.287936e-07
-9.316076e-07
-9.489175e-07
-0.0008799431
0.0008805636
2.161319e-13
3.180555e-06
-9.514926e-07
-9.490337e-07
-9.516201e-07
-9.673097e-07
-0.0008811608
0.0008817124
-3.015425e-13
3.322035e-06
-9.694335e-07
-9.673592e-07
-9.695517e-07
-9.833735e-07
-0.0008822413
0.0008827277
-1.804285e-12
3.451378e-06
-9.852918e-07
-9.837052e-07
-9.85444e-07
-9.970902e-07
-0.0008831932
0.0008836196
2.534583e-12
3.565268e-06
-9.979224e-07
-9.978333e-07
-9.988127e-07
-1.008879e-06
-0.0008840263
0.000884398
-4.944404e-12
3.665647e-06
-1.008427e-06
-1.010325e-06
-1.00964e-06
-1.020176e-06
-0.0008847525
0.0008850792
1.254316e-12
3.749954e-06
-1.016146e-06
-1.022443e-06
-1.017876e-06
-1.031833e-06
-0.0008853887
0.0008856827
8.156706e-13
3.816116e-06
-1.021859e-06
-1.033447e-06
-1.022934e-06
-1.032146e-06
-0.0008859525
0.0008862129
4.371846e-13
3.852244e-06
-1.025581e-06
-1.030944e-06
-1.02401e-06
-1.019383e-06
-0.0008864728
0.0008867289
2.150667e-13
3.826698e-06
-1.020679e-06
-1.021292e-06
-1.021525e-06
-9.812302e-07
-0.000886991
0.0008871981
7.088789e-13
3.69267e-06
-9.684243e-07
-9.816251e-07
-9.684578e-07
-8.132855e-07
-0.0008871986
0.000886876
1.509108e-12
3.417449e-06
-7.339017e-07
-8.128233e-07
-7.348138e-07
-6.279988e-07
-0.0008869859
0.0008863766
2.450805e-12
3.268154e-06
-7.05159e-07
-6.236963e-07
-7.020508e-07
-9.788408e-07
-0.0008865472
0.0008866635
3.981955e-12
3.764583e-06
-9.649394e-07
-9.756772e-07
-9.613679e-07
-9.918671e-07
-0.0008866814
0.00088667
4.753998e-12
3.955527e-06
-9.841286e-07
-9.882782e-07
-9.798342e-07
-1.001437e-06
-0.0008866436
0.0008865977
6.558984e-12
4.040894e-06
-9.935572e-07
-1.002194e-06
-9.978284e-07
-1.029275e-06
-0.0008865848
0.0008865216
8.119259e-12
4.119172e-06
-1.010793e-06
-1.015558e-06
-1.000321e-06
-1.016561e-06
-0.0008864257
0.0008863168
6.444877e-12
4.153663e-06
-1.013421e-06
-1.009225e-06
-1.005581e-06
-1.01686e-06
-0.0008862071
0.0008860883
5.417674e-12
4.179648e-06
-1.01471e-06
-1.015616e-06
-1.013692e-06
-1.020671e-06
-0.0008859697
0.0008858447
5.708621e-12
4.202159e-06
-1.019454e-06
-1.019094e-06
-1.018015e-06
-1.024415e-06
-0.0008857167
0.000885586
8.537024e-12
4.223084e-06
-1.023647e-06
-1.022575e-06
-1.021774e-06
-1.026135e-06
-0.0008854613
0.0008853383
1.091148e-11
4.221972e-06
-1.025624e-06
-1.023884e-06
-1.023351e-06
-1.028903e-06
-0.0008852167
0.0008850963
1.195404e-11
4.230965e-06
-1.028437e-06
-1.026771e-06
-1.026383e-06
-1.031436e-06
-0.0008849787
0.0008848631
1.279728e-11
4.236862e-06
-1.030932e-06
-1.029635e-06
-1.029201e-06
-1.033624e-06
-0.0008847506
0.0008846411
1.359334e-11
4.239922e-06
-1.033133e-06
-1.032063e-06
-1.031597e-06
-1.035547e-06
-0.000884535
0.0008844326
1.374426e-11
4.240903e-06
-1.035091e-06
-1.034155e-06
-1.033719e-06
-1.037152e-06
-0.0008843336
0.0008842388
1.485266e-11
4.240049e-06
-1.036691e-06
-1.035906e-06
-1.035468e-06
-1.038483e-06
-0.0008841477
0.0008840613
1.58926e-11
4.237366e-06
-1.038088e-06
-1.037362e-06
-1.037007e-06
-1.039553e-06
-0.0008839787
0.0008839011
1.658659e-11
4.233061e-06
-1.0392e-06
-1.038544e-06
-1.03822e-06
-1.040419e-06
-0.0008838274
0.0008837593
1.660559e-11
4.227338e-06
-1.040119e-06
-1.039492e-06
-1.039198e-06
-1.041094e-06
-0.0008836952
0.0008836372
1.725218e-11
4.220085e-06
-1.040761e-06
-1.040262e-06
-1.039946e-06
-1.041545e-06
-0.0008835833
0.000883536
1.71916e-11
4.211338e-06
-1.041212e-06
-1.040796e-06
-1.040474e-06
-1.041732e-06
-0.0008834925
0.0008834557
1.64197e-11
4.201519e-06
-1.0413e-06
-1.041041e-06
-1.040611e-06
-1.041663e-06
-0.0008834233
0.0008833982
1.58147e-11
4.189672e-06
-1.041234e-06
-1.041024e-06
-1.040601e-06
-1.041574e-06
-0.0008833773
0.0008833636
1.43906e-11
4.177807e-06
-1.041016e-06
-1.041007e-06
-1.040476e-06
-1.041711e-06
-0.000883354
0.0008833514
1.522783e-11
4.167303e-06
-1.041186e-06
-1.041192e-06
-1.040625e-06
-1.039766e-06
-0.0008833547
0.0008833679
1.385686e-11
4.143591e-06
-1.039191e-06
-1.039206e-06
-1.038633e-06
-1.039285e-06
0.0008834115
1.271331e-11
4.129039e-06
-0.0008833858
-1.038588e-06
-1.038756e-06
-1.038034e-06
-1.038292e-06
-0.0008834423
0.0008834814
1.136218e-11
4.111788e-06
-1.037536e-06
-1.037867e-06
-1.037198e-06
-1.036973e-06
-0.000883526
0.000883579
1.647988e-11
4.092697e-06
-1.036203e-06
-1.036671e-06
-1.035857e-06
-1.035559e-06
-0.0008836381
0.0008837056
9.47073e-12
4.072262e-06
-1.03472e-06
-1.035172e-06
-1.034342e-06
-1.033923e-06
-0.0008837793
0.0008838617
1.096637e-11
4.050988e-06
-1.033106e-06
-1.033577e-06
-1.032766e-06
-1.032105e-06
-0.0008839508
0.0008840484
5.122963e-12
4.028669e-06
-1.031364e-06
-1.031801e-06
-1.03104e-06
-1.030159e-06
-0.0008841527
0.000884266
1.115335e-11
4.005313e-06
-1.029448e-06
-1.02984e-06
-1.029122e-06
-1.028015e-06
-0.0008843861
0.0008845155
6.006012e-12
3.980796e-06
-1.027335e-06
-1.027768e-06
-1.02701e-06
-1.025713e-06
-0.0008846518
0.000884797
8.721378e-12
3.955861e-06
-1.02505e-06
-1.025507e-06
-1.02477e-06
-1.023371e-06
-0.000884949
0.0008851109
8.591711e-12
3.929916e-06
-1.022823e-06
-1.02302e-06
-1.022646e-06
-1.020937e-06
-0.0008852799
0.0008854588
7.110249e-12
3.903305e-06
-1.020256e-06
-1.020709e-06
-1.020251e-06
-1.01833e-06
-0.0008856443
0.0008858402
7.447586e-12
3.875753e-06
-1.017679e-06
-1.018196e-06
-1.017487e-06
-1.016013e-06
-0.0008860419
0.0008862548
8.909533e-12
3.849069e-06
-1.015046e-06
-1.015655e-06
-1.015282e-06
-1.014214e-06
-0.0008864746
0.0008867065
1.505385e-11
3.822588e-06
-1.013816e-06
-1.013817e-06
-1.012643e-06
-1.012205e-06
-0.0008869417
0.0008871915
-5.045561e-12
3.796193e-06
-1.011587e-06
-1.011377e-06
-1.010857e-06
-1.010297e-06
-0.0008874464
0.0008877173
-4.848668e-12
3.768992e-06
-1.01002e-06
-1.009812e-06
-1.009787e-06
-1.008647e-06
-0.000887992
0.0008882853
4.598001e-12
3.740467e-06
-1.008429e-06
-1.008468e-06
-1.008208e-06
-1.006665e-06
-0.0008885779
0.0008888949
6.891457e-12
3.709007e-06
-1.006463e-06
-1.00645e-06
-1.00647e-06
-1.005091e-06
-0.0008892089
0.000889553
-7.344841e-12
3.676245e-06
-1.005065e-06
-1.005024e-06
-1.005137e-06
-1.001654e-06
-0.0008898901
0.0008902602
-2.059121e-12
3.636087e-06
-1.001544e-06
-1.001575e-06
-1.001401e-06
-9.98503e-07
-0.0008906141
0.0008910182
7.027707e-12
3.589264e-06
-9.983377e-07
-9.98352e-07
-9.981598e-07
-9.943099e-07
-0.0008914052
0.0008918623
7.636578e-12
3.516039e-06
-9.923421e-07
-9.942444e-07
-9.92269e-07
-9.9105e-07
-0.0008923124
0.0008928893
-4.609242e-12
3.372691e-06
-9.83896e-07
-9.909026e-07
-9.83823e-07
-9.524453e-07
-0.0008933632
0.0008940685
-3.057942e-12
3.103541e-06
-9.518041e-07
-9.524749e-07
-9.521347e-07
-7.661925e-07
-0.0008946937
0.0008948009
-9.996798e-12
2.527109e-06
-5.484724e-07
-7.677663e-07
-5.518817e-07
-8.964336e-08
-0.0002232873
0.0002224497
1.657508e-11
9.272206e-07
-7.188713e-07
-0.0002214286
0.0002211414
-3.699386e-13
1.006108e-06
-7.898442e-07
-0.0002204842
0.0002203133
1.87841e-11
9.607956e-07
-8.269595e-07
-0.0002199104
0.0002198067
2.44451e-11
9.305856e-07
-8.512971e-07
-0.0002195712
0.0002195135
2.597788e-11
9.08995e-07
-8.693242e-07
-0.0002193912
0.0002193648
2.21534e-11
8.957578e-07
-8.867258e-07
-0.0002193219
0.0002193194
1.682912e-11
8.892213e-07
-9.035053e-07
-0.0002193416
0.0002193575
1.513975e-11
8.875661e-07
-9.173392e-07
-0.0002194256
0.0002194542
1.39501e-11
8.887329e-07
-9.289321e-07
-0.0002195543
0.0002195915
1.210738e-11
8.916722e-07
-9.382468e-07
-0.0002197137
0.0002197576
-2.064782e-13
8.943135e-07
-9.456956e-07
-0.0002198967
0.0002199455
-6.382017e-12
8.969816e-07
-9.521961e-07
-0.0002200971
0.0002201494
-4.09998e-12
8.998639e-07
-9.580537e-07
-0.0002203107
0.000220366
-3.1393e-12
9.02838e-07
-9.633329e-07
-0.0002205348
0.0002205923
-2.024393e-12
9.058721e-07
-9.68227e-07
-0.0002207672
0.0002208264
-3.329183e-12
9.09028e-07
-9.729796e-07
-0.000221006
0.0002210666
-3.38361e-12
9.123642e-07
-9.772627e-07
-0.0002212509
0.0002213124
1.680087e-11
9.157365e-07
-9.793607e-07
-0.0002215012
0.0002215627
3.598166e-12
9.177894e-07
-9.844928e-07
-0.0002217522
0.0002218151
1.033849e-12
9.21512e-07
-9.882624e-07
-0.000222006
0.0002220699
7.32657e-13
9.243576e-07
-9.91266e-07
-0.0002222628
0.000222328
1.725611e-12
9.26117e-07
-9.958664e-07
-0.0002225218
0.0002225901
2.99791e-12
9.275462e-07
-9.989394e-07
-0.0002227848
0.0002228511
3.302101e-12
9.326652e-07
-1.003269e-06
-0.0002230452
0.0002231126
1.032969e-11
9.358446e-07
-1.006375e-06
-0.0002233078
0.0002233757
1.207591e-11
9.383871e-07
-1.005935e-06
-0.0002235747
0.000223641
2.238008e-13
9.396295e-07
-1.00512e-06
-0.000223844
0.0002239094
-6.353745e-12
9.39734e-07
-1.008114e-06
-0.0002241159
0.0002241852
-2.673699e-12
9.388367e-07
-1.008869e-06
-0.0002243965
0.0002244708
-1.521272e-12
9.345724e-07
-1.002205e-06
-0.0002246947
0.0002247729
-1.753718e-12
9.240407e-07
-9.97345e-07
-0.0002250175
0.0002251076
-6.267027e-12
9.072611e-07
-9.750357e-07
-0.0002253923
0.0002254973
-5.657149e-12
8.70079e-07
-9.589011e-07
-0.0002258228
0.0002259735
8.131728e-13
8.081864e-07
-8.600227e-07
-0.0002264928
0.0002267409
-1.230757e-11
6.11924e-07
2.899474e-07
-0.0002275703
0.0002274697
4.961321e-12
-1.894315e-07
9.068181e-07
-0.0002274403
0.0002274991
-1.835885e-11
-9.656045e-07
9.637302e-07
-0.0002276638
0.0002277551
-9.16166e-12
-1.054951e-06
1.029013e-06
-0.0002280442
0.0002281489
-3.832506e-12
-1.133766e-06
1.060952e-06
-0.0002284712
0.0002285824
-2.931111e-12
-1.172083e-06
1.085017e-06
-0.0002289204
0.0002290343
-2.785287e-12
-1.198917e-06
1.10585e-06
-0.0002293776
0.000229492
-8.672276e-13
-1.220327e-06
1.123216e-06
-0.0002298335
0.0002299465
4.395073e-12
-1.236229e-06
1.138694e-06
-0.0002302823
0.0002303929
8.711553e-12
-1.249373e-06
1.152564e-06
-0.0002307203
0.0002308277
6.358048e-13
-1.260036e-06
1.165033e-06
-0.0002311448
0.0002312486
-1.141844e-11
-1.268804e-06
1.176323e-06
-0.0002315541
0.000231654
-9.710423e-12
-1.276173e-06
1.186533e-06
-0.0002319474
0.0002320431
-5.889141e-12
-1.282158e-06
1.195759e-06
-0.0002323235
0.0002324146
-2.239351e-12
-1.286918e-06
1.204097e-06
-0.0002326814
0.0002327679
-2.628196e-12
-1.290641e-06
1.211626e-06
-0.0002330208
0.0002331027
-3.93491e-12
-1.293528e-06
1.218544e-06
-0.0002333414
0.0002334186
-2.791003e-12
-1.295697e-06
1.22469e-06
-0.0002336431
0.0002337155
-7.102966e-12
-1.297114e-06
1.230253e-06
-0.0002339259
0.0002339935
-1.876561e-11
-1.297866e-06
1.235048e-06
-0.0002341894
0.0002342524
-1.768078e-11
-1.298036e-06
1.239538e-06
-0.0002344339
0.000234492
-3.370572e-11
-1.297554e-06
1.242926e-06
-0.0002346596
0.0002347128
-3.205368e-11
-1.29617e-06
1.245444e-06
-0.0002348656
0.0002349144
-1.248694e-11
-1.294225e-06
1.247687e-06
-0.0002350523
0.0002350964
-2.688791e-11
-1.291762e-06
1.248421e-06
-0.0002352196
0.0002352591
-3.199232e-11
-1.287815e-06
1.247947e-06
-0.0002353667
0.0002354014
-2.806026e-11
-1.282548e-06
1.245394e-06
-0.0002354936
0.0002355228
-3.643873e-11
-1.27448e-06
1.233064e-06
-0.0002355994
0.0002356261
-3.079776e-11
-1.259785e-06
1.21654e-06
-0.000235705
0.0002357332
-2.549252e-11
-1.244707e-06
1.208752e-06
-0.0002358117
0.0002358388
-2.162434e-11
-1.235864e-06
1.206399e-06
-0.0002359117
0.0002359367
-2.564334e-11
-1.23136e-06
1.205473e-06
-0.0002360016
0.0002360239
-1.656583e-11
-1.227704e-06
1.203822e-06
-0.0002360764
0.0002360945
-1.114633e-11
-1.221889e-06
1.19775e-06
-0.0002361453
0.0002361652
-2.038245e-11
-1.217637e-06
1.194677e-06
-0.0002362329
0.0002362352
8.703374e-11
-1.197094e-06
1.499097e-06
-0.000234555
0.0009572166
2.268591e-12
-4.595333e-06
1.629985e-07
1.503266e-06
1.489034e-07
-0.0002345607
-0.0002434088
-0.000243411
7.544682e-07
-0.0009600757
0.0009603728
-1.768499e-12
-3.993897e-06
1.11026e-06
7.376102e-07
1.094466e-06
9.145939e-07
-0.0009604884
0.000960738
-5.797725e-12
-3.995295e-06
9.708086e-07
9.016439e-07
9.586415e-07
9.492242e-07
-0.0009613607
0.0009618593
-1.200959e-11
-4.369704e-06
9.973465e-07
9.380781e-07
9.864607e-07
1.004528e-06
-0.000962217
0.0009623387
-1.501216e-11
-4.202438e-06
1.045933e-06
9.944215e-07
1.035908e-06
1.028721e-06
-0.0009623989
0.0009624079
-1.5735e-11
-4.146242e-06
1.049182e-06
1.019405e-06
1.039978e-06
1.03012e-06
-0.0009624709
0.0009625182
-1.729287e-11
-4.174226e-06
1.042076e-06
1.021257e-06
1.033502e-06
1.040414e-06
-0.0009625758
0.0009625937
-1.967705e-11
-4.179835e-06
1.048931e-06
1.031385e-06
1.041247e-06
1.051224e-06
-0.0009626065
0.000962588
-2.224658e-11
-4.180607e-06
1.056107e-06
1.043325e-06
1.048492e-06
1.058275e-06
-0.0009625651
0.0009625159
-2.493879e-11
-4.176399e-06
1.061405e-06
1.051576e-06
1.054331e-06
1.065327e-06
-0.0009624624
0.0009623808
-2.614922e-11
-4.16094e-06
1.062167e-06
1.059312e-06
1.055845e-06
1.068083e-06
-0.0009622822
0.0009621592
-2.760935e-11
-4.139014e-06
1.068252e-06
1.062648e-06
1.063031e-06
1.073421e-06
-0.0009620195
0.0009618544
-2.920479e-11
-4.118215e-06
1.072911e-06
1.068753e-06
1.068275e-06
1.078107e-06
-0.0009616715
0.0009614651
-2.971299e-11
-4.095881e-06
1.07721e-06
1.073895e-06
1.073094e-06
1.082316e-06
-0.0009612405
0.0009609912
-3.248047e-11
-4.070388e-06
1.081144e-06
1.07868e-06
1.077549e-06
1.085845e-06
-0.0009607224
0.0009604271
-3.501726e-11
-4.038366e-06
1.084144e-06
1.082606e-06
1.08111e-06
1.087369e-06
-0.0009601156
0.0009597793
-3.634393e-11
-4.006311e-06
1.085926e-06
1.085336e-06
1.084019e-06
1.086493e-06
-0.0009594278
0.0009590532
-4.1512e-11
-3.967376e-06
1.087126e-06
1.083885e-06
1.084522e-06
1.090356e-06
-0.0009586445
0.0009582131
-4.234844e-11
-3.926981e-06
1.090893e-06
1.088052e-06
1.089134e-06
1.091338e-06
-0.0009577621
0.0009572846
-4.554753e-11
-3.883116e-06
1.09058e-06
1.089726e-06
1.08898e-06
1.091392e-06
-0.0009567877
0.0009562623
-4.88914e-11
-3.836214e-06
1.090786e-06
1.090018e-06
1.089392e-06
1.090512e-06
-0.0009557167
0.0009551417
-5.093755e-11
-3.783519e-06
1.089909e-06
1.089335e-06
1.088772e-06
1.087561e-06
-0.0009545464
0.0009539215
-5.188855e-11
-3.722068e-06
1.086853e-06
1.086634e-06
1.085981e-06
1.081973e-06
-0.0009532748
0.0009525979
-5.17081e-11
-3.646624e-06
1.080494e-06
1.081272e-06
1.079857e-06
1.066446e-06
-0.0009519092
0.0009512003
-5.100605e-11
-3.551205e-06
1.064335e-06
1.065721e-06
1.063586e-06
1.049903e-06
-0.0009504843
0.0009497501
-5.028239e-11
-3.459365e-06
1.047579e-06
1.049233e-06
1.046824e-06
1.038149e-06
-0.0009490064
0.0009482397
-4.955661e-11
-3.381902e-06
1.036815e-06
1.037511e-06
1.036217e-06
1.0299e-06
-0.0009474597
0.0009466539
-4.733472e-11
-3.310896e-06
1.028973e-06
1.029403e-06
1.028465e-06
1.021811e-06
-0.0009458336
0.0009449864
-4.440027e-11
-3.237204e-06
1.020868e-06
1.021396e-06
1.02043e-06
1.012345e-06
-0.0009441239
0.0009432326
-4.187463e-11
-3.155068e-06
1.011256e-06
1.011938e-06
1.010832e-06
1.001351e-06
-0.0009423249
0.0009413873
-3.894325e-11
-3.064651e-06
1.000116e-06
1.001033e-06
9.9979e-07
9.893336e-07
-0.0009404329
0.0009394481
-3.598791e-11
-2.969246e-06
9.879167e-07
9.89106e-07
9.876736e-07
9.762861e-07
-0.0009384464
0.0009374138
-3.236887e-11
-2.86885e-06
9.746383e-07
9.7614e-07
9.744841e-07
9.623557e-07
-0.0009363639
0.0009352827
-2.909625e-11
-2.763833e-06
9.603548e-07
9.621689e-07
9.601269e-07
9.473681e-07
-0.0009341844
0.0009330542
-2.574136e-11
-2.654127e-06
9.449527e-07
9.472057e-07
9.447867e-07
9.315946e-07
-0.0009319063
0.0009307265
-2.326353e-11
-2.539825e-06
9.286172e-07
9.311538e-07
9.283207e-07
9.142542e-07
-0.0009295295
0.0009283002
-2.014819e-11
-2.420487e-06
9.109614e-07
9.139771e-07
9.106812e-07
8.963905e-07
-0.0009270534
0.0009257718
-1.786895e-11
-2.297622e-06
8.935015e-07
8.961111e-07
8.931535e-07
8.769356e-07
-0.0009244712
0.0009231348
-1.536351e-11
-2.166263e-06
8.745714e-07
8.767669e-07
8.743705e-07
8.557834e-07
-0.0009217795
0.0009203863
-1.285261e-11
-2.024736e-06
8.533245e-07
8.556103e-07
8.532681e-07
8.324904e-07
-0.0009189741
0.0009175207
-1.091601e-11
-1.871127e-06
8.299938e-07
8.32283e-07
8.297823e-07
8.059349e-07
-0.000916048
0.0009145265
-9.443141e-12
-1.697555e-06
8.038594e-07
8.05724e-07
8.035183e-07
7.758831e-07
-0.0009129855
0.0009113949
-8.059885e-12
-1.509846e-06
7.745552e-07
7.756926e-07
7.743505e-07
7.365334e-07
-0.0009097779
0.0009080983
-7.068078e-12
-1.26522e-06
7.3607e-07
7.363679e-07
7.35906e-07
6.663219e-07
-0.0009063863
0.0009046451
-5.986721e-12
-9.086171e-07
6.587053e-07
6.661991e-07
6.585782e-07
5.140249e-07
-0.0009029431
0.0009013517
-5.121102e-12
-3.150696e-07
4.394054e-07
5.138509e-07
4.392181e-07
3.533293e-07
-0.0008998688
0.0008982958
-3.772133e-12
1.712044e-07
3.477291e-07
3.531861e-07
3.475658e-07
3.03226e-07
-0.0008966745
0.0008950112
-2.618008e-12
4.576166e-07
2.997582e-07
3.030881e-07
2.996196e-07
2.675786e-07
-0.0008933199
0.0008915868
-1.869981e-12
6.659456e-07
2.661368e-07
2.674561e-07
2.660165e-07
2.380566e-07
-0.0008898195
0.0008880136
-1.005425e-12
8.511102e-07
2.394495e-07
2.379525e-07
2.39357e-07
2.082185e-07
-0.0008861718
0.0008842991
-5.586085e-13
1.024185e-06
2.161453e-07
2.081022e-07
2.160821e-07
1.73591e-07
-0.0008823824
0.0008804265
-3.14078e-13
1.209339e-06
1.998116e-07
1.733721e-07
1.997334e-07
1.14289e-07
-0.0008784184
0.0008764364
-1.070522e-12
1.404533e-06
1.749896e-07
1.136709e-07
1.7457e-07
-1.1261e-07
-0.0008748819
0.0008737467
-2.521338e-12
1.226569e-06
6.907258e-08
-1.141843e-07
6.644255e-08
1.589421e-07
-0.0008721677
0.0008690419
-5.215535e-12
2.505501e-06
1.478092e-07
1.632336e-07
1.503361e-07
5.158782e-08
-0.0008662902
0.0008640845
-4.736592e-12
2.220951e-06
-6.527334e-08
5.553027e-08
-5.705817e-08
-2.995063e-08
-0.0008619523
0.00085986
-6.436207e-12
2.299697e-06
-7.899089e-08
-2.404647e-08
-7.445193e-08
-7.323833e-08
-0.0008577239
0.0008556277
-8.189071e-12
2.434984e-06
-9.948413e-08
-6.975501e-08
-9.631707e-08
-9.678666e-08
-0.0008535173
0.000851407
-9.733955e-12
2.518468e-06
-1.098887e-07
-9.410418e-08
-1.073784e-07
-1.091636e-07
-0.0008492641
0.0008471013
-1.244781e-11
2.609186e-06
-1.162961e-07
-1.068379e-07
-1.140464e-07
-1.187612e-07
-0.0008449084
0.0008426889
-1.407174e-11
2.698775e-06
-1.229529e-07
-1.166699e-07
-1.208792e-07
-1.276638e-07
-0.0008404459
0.000838177
-1.701307e-11
2.780443e-06
-1.299452e-07
-1.25739e-07
-1.281661e-07
-1.348236e-07
-0.000835887
0.0008335691
-2.017308e-11
2.855665e-06
-1.354726e-07
-1.333559e-07
-1.341054e-07
-1.403519e-07
-0.0008312307
0.0008288619
-2.233033e-11
2.927708e-06
-1.401295e-07
-1.392638e-07
-1.390916e-07
-1.455123e-07
-0.0008264722
0.0008240515