/*--------------------------------*- C++ -*----------------------------------*\
| =========                 |                                                 |
| \\      /  F ield         | foam-extend: Open Source CFD                    |
|  \\    /   O peration     | Version:     3.1                                |
|   \\  /    A nd           | Web:         http://www.extend-project.de       |
|    \\/     M anipulation  |                                                 |
\*---------------------------------------------------------------------------*/
FoamFile
{
    version     2.0;
    format      ascii;
    class       volScalarField;
    location    "1";
    object      k;
}
// * * * * * * * * * * * * * * * * * * * * * * * * * * * * * * * * * * * * * //

dimensions      [0 2 -2 0 0 0 0];

internalField   nonuniform List<scalar> 
119952
(
0.01804129
0.01484511
0.01452115
0.01531851
0.0158512
0.01572168
0.01583193
0.01600128
0.01615822
0.01628035
0.01636441
0.01641413
0.01643518
0.01643318
0.0164131
0.0163795
0.016337
0.01629198
0.01626043
0.0163223
0.01811474
0.01767212
0.01769203
0.01960127
0.01902578
0.01873005
0.01844652
0.0181743
0.01745275
0.02123528
0.0190821
0.01623139
0.01599918
0.01676795
0.01787872
0.01902336
0.02009198
0.02106257
0.02194512
0.02289015
0.02494596
0.02811157
0.03127277
0.03418674
0.03676026
0.03900768
0.04098188
0.04274229
0.04432611
0.05260862
0.05373943
0.05495018
0.0562614
0.05764464
0.05905041
0.06043342
0.06176322
0.06302393
0.06419588
0.06520747
0.06613451
0.0670553
0.06800903
0.06900155
0.07002115
0.07105323
0.0720961
0.07322308
0.07403326
0.07419028
0.07445068
0.07480094
0.07510273
0.07527638
0.07539325
0.07549899
0.0755945
0.07568356
0.07577434
0.07586333
0.07594675
0.07602337
0.07609266
0.07615558
0.0762156
0.07628153
0.0763769
0.0765421
0.07679429
0.07705939
0.07739782
0.07793966
0.07841092
0.07859824
0.07859883
0.07836274
0.07761974
0.07636798
0.07577124
0.07532373
0.07491819
0.07453996
0.07419573
0.07388808
0.07361542
0.07337325
0.07315562
0.07295637
0.07276999
0.07259215
0.07241981
0.07225122
0.07208569
0.07192324
0.07176423
0.07160907
0.07145804
0.07131134
0.07116883
0.07102981
0.0708935
0.07075928
0.07062648
0.07049431
0.07036194
0.07022846
0.07009291
0.06995436
0.0698121
0.06966578
0.06951558
0.0693623
0.06920729
0.06905217
0.06889859
0.06874777
0.0686004
0.06845649
0.06831558
0.06817689
0.06803958
0.067903
0.06776673
0.06763081
0.06749593
0.06736473
0.06725116
0.06718851
0.0670638
0.0668313
0.06651935
0.06616042
0.06578124
0.06539937
0.06502553
0.06466568
0.06432263
0.06399719
0.06368955
0.06339907
0.06312406
0.06286277
0.06261368
0.06237549
0.06214697
0.06192695
0.06171434
0.06150817
0.06130751
0.06111155
0.06091956
0.06073088
0.06054488
0.06036105
0.06017889
0.05999802
0.059818
0.05963848
0.05945917
0.05927984
0.05910034
0.05892052
0.05874018
0.05855919
0.05837656
0.05819307
0.05800852
0.05782398
0.05763861
0.05745317
0.05726835
0.05708483
0.05690323
0.05672413
0.05654773
0.05637796
0.05623386
0.05330309
0.04944012
0.04785146
0.04680101
0.04593191
0.04517075
0.04449795
0.04390173
0.04337067
0.0428962
0.04246768
0.04207544
0.04171334
0.04137597
0.04105889
0.04075843
0.04047164
0.04019615
0.03992999
0.03967157
0.0394196
0.03917304
0.03893103
0.03869285
0.03845799
0.03822618
0.03799719
0.03777087
0.03754729
0.03732665
0.03710956
0.03689718
0.03669306
0.03649934
0.03633778
0.03633442
0.03680045
0.03732078
0.03780962
0.03825451
0.03865472
0.03901617
0.03934601
0.03965085
0.0399364
0.04020707
0.04046637
0.0407168
0.0409603
0.0411982
0.04143142
0.04166059
0.04188616
0.04210846
0.04232773
0.04254418
0.04275797
0.04296926
0.04317818
0.04338484
0.04358942
0.04379192
0.04399249
0.0441911
0.04438785
0.04458281
0.04477601
0.04496764
0.04515828
0.04534759
0.05243271
0.05250546
0.05259662
0.05280018
0.05314694
0.05362351
0.0541921
0.05480969
0.05544039
0.05605742
0.0566438
0.05719087
0.05769599
0.05815988
0.05858457
0.05897395
0.05933193
0.05966229
0.05996876
0.06025473
0.06052322
0.06077688
0.06101797
0.06124839
0.06146972
0.06168329
0.06189021
0.06209143
0.06228778
0.06247999
0.06266872
0.06285454
0.06303794
0.06321934
0.06339906
0.06357728
0.06375409
0.06392946
0.06410325
0.06427518
0.06444484
0.06461158
0.06477423
0.0649311
0.06507824
0.06520823
0.06531176
0.06540407
0.06549024
0.06557261
0.06565231
0.06572973
0.06580521
0.06588682
0.06588311
0.06579562
0.06572139
0.06570612
0.06577468
0.06593164
0.06616483
0.06645379
0.06677575
0.06711071
0.06744362
0.06776456
0.06806789
0.06835109
0.06861369
0.06885654
0.06908111
0.06928921
0.06948274
0.06966348
0.06983313
0.06999318
0.07014497
0.07028968
0.07042836
0.07056195
0.07069128
0.07081713
0.07094021
0.07106118
0.07118064
0.07129911
0.07141706
0.07153485
0.07165273
0.07177088
0.07188937
0.0720082
0.07212728
0.07224648
0.07236553
0.07248413
0.07260188
0.07271829
0.07283289
0.07294518
0.07305473
0.07316117
0.07326426
0.07336387
0.07345997
0.07355264
0.07364205
0.07372843
0.07381206
0.07389324
0.07397228
0.07404951
0.07412524
0.07419975
0.07427335
0.07434628
0.07441881
0.07449116
0.07456357
0.07463625
0.07470944
0.07478337
0.0748583
0.07493452
0.07501236
0.07509226
0.07517471
0.07526041
0.07535025
0.07544551
0.07554805
0.0756607
0.07578799
0.07593773
0.07612502
0.0763822
0.07678578
0.07754744
0.07833869
0.01780317
0.01648812
0.01666125
0.01747737
0.01851841
0.01958247
0.02058499
0.02150431
0.022373
0.02338731
0.02614405
0.02927011
0.03233164
0.03513674
0.03762808
0.03982085
0.04176577
0.04351427
0.05209484
0.05325931
0.05449128
0.05582524
0.05725337
0.05873272
0.06021225
0.06165156
0.06302752
0.064331
0.06549721
0.06652456
0.06751427
0.06852507
0.06957947
0.07067035
0.07177748
0.07287921
0.07396088
0.07483552
0.07552636
0.07624956
0.07701639
0.07783441
0.07870074
0.07960392
0.08052863
0.08145955
0.08238214
0.08326829
0.08410798
0.08491254
0.08570261
0.08649592
0.08730148
0.08812015
0.08894684
0.08976115
0.09764653
0.09843125
0.09915231
0.09983021
0.1004811
0.1011153
0.1017353
0.1023343
0.1029175
0.103491
0.1040531
0.1046015
0.1051355
0.1056574
0.1061712
0.1066808
0.1071896
0.1077003
0.1082072
0.1086453
0.1090009
0.1093193
0.1095902
0.1097932
0.1099304
0.1100208
0.110081
0.1101237
0.1101575
0.1101879
0.1102183
0.1102493
0.1102832
0.1103233
0.1103724
0.1104342
0.1105117
0.1106079
0.1107293
0.1108746
0.1110391
0.1112335
0.1114452
0.1116102
0.1116929
0.1116837
0.1115577
0.1113221
0.1111127
0.1109661
0.1108516
0.1107507
0.1106509
0.1105467
0.1104364
0.1103198
0.1101977
0.1100705
0.1099388
0.1098031
0.1096641
0.1095226
0.1093796
0.1092364
0.1090942
0.1089542
0.1088174
0.1086847
0.1085563
0.1084326
0.1083132
0.1081977
0.1080855
0.1079759
0.1078681
0.1077611
0.107654
0.1075459
0.107436
0.1073238
0.1072093
0.1070926
0.1069744
0.1068558
0.1067378
0.1066216
0.1065082
0.1063981
0.1062917
0.1061887
0.106089
0.105992
0.1058973
0.1058046
0.105714
0.1056259
0.1055414
0.1054622
0.105392
0.105333
0.1052782
0.10522
0.1051531
0.1050749
0.1049846
0.104883
0.1047717
0.1046523
0.1045267
0.1043966
0.1042633
0.1041281
0.1039918
0.1038552
0.1037188
0.103583
0.1034481
0.1033143
0.1031817
0.1030503
0.10292
0.1027907
0.1026624
0.1025348
0.1024077
0.102281
0.1021545
0.1020279
0.101901
0.1017729
0.1016435
0.1015127
0.1013804
0.1012467
0.1011118
0.1009756
0.1008385
0.1007007
0.1005626
0.1004248
0.100288
0.1001531
0.1000207
0.0998917
0.09976698
0.0996475
0.09953438
0.09943106
0.09529412
0.09307617
0.09232909
0.09199057
0.09175948
0.09154958
0.09133746
0.09111875
0.09089492
0.090669
0.0904437
0.09022115
0.09000291
0.08978998
0.08958288
0.08938179
0.08918662
0.08899715
0.08881302
0.08863387
0.08845928
0.08828887
0.08812221
0.08795932
0.08779965
0.08764328
0.08749012
0.08734025
0.08719394
0.0870517
0.08691453
0.08678423
0.08666435
0.08656197
0.08649303
0.08648455
0.08653327
0.08661735
0.08672354
0.08684467
0.08697615
0.08711469
0.08725792
0.08740415
0.08755226
0.08770157
0.0878517
0.08800241
0.08815351
0.0883048
0.08845606
0.08860704
0.08875748
0.0889071
0.08905565
0.0892029
0.08934866
0.08949278
0.08963513
0.08977563
0.08991421
0.09005084
0.0901855
0.09031819
0.09044892
0.09057768
0.09070446
0.09082923
0.09095155
0.09106073
0.09799194
0.09825271
0.09844242
0.09858291
0.0986938
0.09879128
0.09888764
0.0989912
0.09910665
0.09923578
0.09937818
0.09953216
0.09969539
0.09986531
0.1000394
0.1002156
0.1003921
0.1005675
0.1007406
0.1009107
0.1010772
0.1012397
0.101398
0.1015534
0.1017069
0.1018589
0.1020094
0.1021586
0.1023066
0.1024536
0.1025998
0.1027453
0.1028904
0.1030353
0.1031799
0.1033242
0.1034682
0.1036116
0.1037541
0.1038953
0.1040345
0.1041708
0.1043034
0.1044307
0.1045511
0.1046621
0.1047635
0.104857
0.1049435
0.1050236
0.1050977
0.1051661
0.105229
0.1052856
0.1053306
0.105363
0.1053838
0.1053952
0.1054015
0.1054078
0.1054193
0.1054401
0.105473
0.105519
0.1055779
0.1056486
0.1057295
0.1058186
0.105914
0.1060141
0.1061173
0.1062224
0.1063285
0.1064349
0.1065411
0.1066466
0.1067514
0.1068553
0.1069584
0.1070606
0.1071623
0.1072636
0.1073647
0.107466
0.1075678
0.1076702
0.1077736
0.1078781
0.1079838
0.1080908
0.1081989
0.1083081
0.108418
0.1085283
0.1086387
0.1087486
0.1088575
0.1089647
0.1090696
0.1091718
0.1092706
0.1093656
0.1094566
0.1095433
0.1096257
0.1097039
0.109778
0.1098483
0.1099151
0.1099787
0.1100396
0.110098
0.1101545
0.1102093
0.1102629
0.1103155
0.1103676
0.1104194
0.1104711
0.1105232
0.1105758
0.1106293
0.1106839
0.11074
0.110798
0.1108585
0.1109219
0.110989
0.1110609
0.111139
0.111225
0.1113218
0.1114334
0.1115658
0.1117284
0.1119352
0.1122066
0.1125491
0.1128514
0.02689943
0.02229205
0.0233176
0.02527145
0.02693964
0.02816771
0.02903511
0.0296369
0.03005032
0.03051736
0.03243617
0.03539436
0.03811252
0.04042268
0.04230992
0.04384586
0.04511738
0.04621018
0.0471747
0.05499995
0.05547941
0.05609992
0.05689338
0.05784048
0.05889674
0.06001599
0.06116053
0.06230156
0.0634106
0.06440104
0.06531917
0.06623832
0.06719855
0.06821264
0.06927551
0.07037098
0.0714812
0.07260552
0.07338676
0.07418366
0.07501449
0.07589418
0.07682892
0.07781519
0.07883978
0.07988589
0.080937
0.08197078
0.08295692
0.08389768
0.08480779
0.08570779
0.08661334
0.08753112
0.08845976
0.08938367
0.09747966
0.09838337
0.09921972
0.100004
0.100752
0.1014755
0.1021789
0.1028572
0.1035213
0.1041792
0.1048286
0.1054658
0.1060884
0.1066976
0.1072974
0.1078928
0.1084879
0.109085
0.1096841
0.110281
0.1108702
0.1114473
0.1120106
0.1125628
0.1131084
0.1136517
0.1141963
0.1147435
0.1152929
0.1158424
0.1163889
0.1169299
0.1174647
0.1179941
0.1185201
0.1190455
0.1195751
0.1201292
0.1205254
0.1209669
0.1214312
0.1219059
0.1223847
0.1228654
0.1233478
0.1238331
0.1243207
0.1248088
0.1252951
0.1257771
0.1262529
0.1267211
0.127181
0.1276323
0.1280747
0.1285068
0.1289218
0.1292984
0.1296315
0.1299331
0.1302005
0.1304243
0.1306023
0.1307413
0.1308496
0.1309352
0.1310046
0.1310633
0.1311154
0.1311642
0.1312124
0.1312628
0.1313179
0.1313807
0.1314539
0.1315403
0.1316423
0.1317592
0.131888
0.1320274
0.1321673
0.1322822
0.132346
0.132333
0.1322475
0.1321041
0.1319724
0.1318806
0.1318169
0.1317682
0.1317248
0.1316799
0.1316289
0.1315692
0.1314992
0.1314183
0.1313265
0.1312242
0.1311123
0.1309921
0.1308654
0.1307338
0.1305992
0.1304636
0.1303285
0.1301953
0.1300649
0.1299379
0.1298145
0.1296945
0.1295777
0.1294634
0.1293509
0.1292393
0.1291277
0.1290152
0.1289012
0.1287852
0.128667
0.1285469
0.1284255
0.1283038
0.1281828
0.1280636
0.1279473
0.1278343
0.1277252
0.1276198
0.1275181
0.1274195
0.1273239
0.1272307
0.1271399
0.1270517
0.1269664
0.1268844
0.1268063
0.1267338
0.1266663
0.1266022
0.126539
0.1264748
0.1264075
0.1263359
0.1262593
0.1261773
0.12609
0.1259978
0.1259009
0.1257999
0.1256953
0.1255875
0.125477
0.1253645
0.1252501
0.1251341
0.1250169
0.1248987
0.1247795
0.1246594
0.1245386
0.1244169
0.1242944
0.1241709
0.1240465
0.1239209
0.1237941
0.1236661
0.1235368
0.1234062
0.1232744
0.1231413
0.1230071
0.1228721
0.1227363
0.1226004
0.1224646
0.1223298
0.1221965
0.1220657
0.121938
0.1218144
0.1216957
0.1215819
0.121471
0.1213458
0.1211058
0.1210629
0.1210538
0.1210402
0.121015
0.1209776
0.1209283
0.120868
0.1207975
0.1207175
0.1206293
0.1205337
0.1204319
0.1203248
0.1202135
0.1200987
0.1199811
0.1198614
0.1197401
0.1196175
0.1194942
0.1193703
0.1192464
0.1191226
0.1189991
0.1188763
0.1187544
0.1186341
0.1185157
0.1184002
0.1182886
0.1181832
0.1180869
0.1180048
0.1179443
0.1179112
0.1178995
0.1179046
0.1179227
0.1179511
0.1179881
0.1180327
0.1180844
0.1181428
0.1182078
0.1182794
0.1183573
0.1184412
0.1185309
0.1186259
0.1187258
0.1188298
0.1189374
0.119048
0.1191608
0.1192754
0.1193912
0.1195076
0.1196243
0.1197409
0.119857
0.1199725
0.1200871
0.1202007
0.1203131
0.1204242
0.1205339
0.1206427
0.1207536
0.1208872
0.1208725
0.1209008
0.1209514
0.1210116
0.1210748
0.1211378
0.1212004
0.1212635
0.1213286
0.1213972
0.1214706
0.1215495
0.1216345
0.1217257
0.1218231
0.1219262
0.1220349
0.1221485
0.1222667
0.122389
0.1225148
0.1226438
0.1227755
0.1229095
0.1230452
0.1231825
0.1233211
0.1234609
0.1236017
0.1237435
0.1238862
0.12403
0.1241747
0.1243204
0.1244669
0.1246142
0.124762
0.1249099
0.1250575
0.1252042
0.1253493
0.1254919
0.125631
0.1257654
0.1258937
0.1260147
0.1261278
0.1262333
0.1263316
0.1264229
0.1265072
0.1265849
0.126656
0.1267202
0.1267765
0.1268251
0.1268662
0.1269004
0.1269284
0.1269518
0.1269725
0.1269928
0.1270148
0.1270404
0.127071
0.1271075
0.1271503
0.1271996
0.1272551
0.1273164
0.127383
0.1274542
0.1275294
0.1276081
0.1276897
0.1277739
0.1278602
0.1279484
0.1280382
0.1281296
0.1282225
0.1283169
0.128413
0.1285108
0.1286104
0.1287121
0.1288158
0.1289218
0.1290299
0.1291402
0.1292523
0.1293662
0.1294814
0.1295975
0.129714
0.1298302
0.1299456
0.1300593
0.1301707
0.1302792
0.1303841
0.1304849
0.1305814
0.1306732
0.1307602
0.1308425
0.1309203
0.1309937
0.1310631
0.1311289
0.1311915
0.1312514
0.1313088
0.1313644
0.1314184
0.1314714
0.1315236
0.1315754
0.1316272
0.1316793
0.131732
0.1317856
0.1318405
0.1318971
0.1319559
0.1320173
0.1320821
0.132151
0.1322252
0.1323058
0.1323949
0.1324948
0.1326088
0.1327414
0.1328981
0.1330858
0.13331
0.1335617
0.1337796
0.04145899
0.05141672
0.06243208
0.09157691
0.1018483
0.1213483
0.1236395
0.1250145
0.1254241
0.1253436
0.1246236
0.1234161
0.1215152
0.1193689
0.1174092
0.1155522
0.1137633
0.1120183
0.1103024
0.1086113
0.1069499
0.1053266
0.1037395
0.1021985
0.1007402
0.0994043
0.09822088
0.09720757
0.09637095
0.09570896
0.09519828
0.1017562
0.1016099
0.1015209
0.1015048
0.1015709
0.1017229
0.1019587
0.1022711
0.1026475
0.1030687
0.1035274
0.1040179
0.1045332
0.1050694
0.1056257
0.1062032
0.106803
0.1074254
0.1080672
0.1087232
0.1093874
0.1100527
0.1107161
0.1113782
0.112041
0.1127067
0.1133763
0.1140493
0.1147233
0.1153947
0.1160601
0.1167169
0.1173651
0.1180063
0.1186434
0.1192823
0.1199448
0.1204507
0.1210005
0.1215733
0.1221555
0.1227399
0.123324
0.1239079
0.1244932
0.1250801
0.1256668
0.1262514
0.1268319
0.1274065
0.1279739
0.1285343
0.1290884
0.1296374
0.1301827
0.1307255
0.1312661
0.1318045
0.1323394
0.1328691
0.1333925
0.1339096
0.134421
0.1349279
0.1354312
0.1359315
0.136429
0.1369235
0.1374143
0.1379008
0.1383829
0.1388607
0.1393351
0.1398074
0.1402783
0.1407317
0.1411782
0.141622
0.1420651
0.1425084
0.1429541
0.143406
0.1438733
0.1443527
0.1448359
0.1453186
0.1457982
0.1462728
0.1467407
0.1472003
0.1476503
0.1480888
0.1485129
0.1489171
0.1492915
0.1496325
0.1499436
0.1502246
0.1504715
0.150683
0.1508619
0.1510133
0.1511419
0.1512525
0.1513491
0.1514356
0.151515
0.1515902
0.1516638
0.1517384
0.1518164
0.1519002
0.1519921
0.1520933
0.1522033
0.1523196
0.152439
0.152554
0.1526501
0.1527096
0.152706
0.1526489
0.1525498
0.1524457
0.15236
0.1522942
0.152243
0.1522005
0.1521611
0.1521202
0.1520741
0.1520199
0.1519556
0.1518802
0.1517929
0.1516943
0.151585
0.1514665
0.1513406
0.1512093
0.1510747
0.1509385
0.1508025
0.1506678
0.1505354
0.1504057
0.1502789
0.1501547
0.1500326
0.1499121
0.1497921
0.149672
0.1495508
0.1494279
0.1493027
0.1491753
0.1490458
0.148915
0.1487837
0.1486532
0.1485245
0.1483987
0.1482764
0.1481581
0.1480439
0.1479336
0.1478268
0.1477232
0.1476225
0.1475243
0.1474286
0.1473355
0.147245
0.1471571
0.1470722
0.1469905
0.1469116
0.1468347
0.1467589
0.1466834
0.1466069
0.1465288
0.1464482
0.1463647
0.1462781
0.1461881
0.1460947
0.145998
0.1458981
0.1457952
0.1456895
0.1455811
0.1454704
0.1453573
0.1452421
0.145125
0.1450059
0.1448849
0.1447621
0.1446375
0.1445109
0.1443823
0.1442518
0.1441193
0.1439854
0.1438502
0.1437136
0.1435755
0.1434361
0.1432955
0.143154
0.1430118
0.1428694
0.1427273
0.1425863
0.1424472
0.1423108
0.142178
0.1420496
0.1419263
0.1418087
0.1416959
0.1415836
0.1414618
0.1413604
0.1412779
0.1412088
0.141148
0.1410919
0.1410376
0.1409829
0.1409262
0.1408663
0.1408023
0.1407338
0.1406606
0.1405825
0.1405
0.1404129
0.1403218
0.1402269
0.1401286
0.1400273
0.1399235
0.1398174
0.1397094
0.1396
0.1394898
0.1393788
0.1392678
0.1391573
0.1390481
0.1389411
0.1388379
0.1387401
0.1386508
0.1385739
0.1385159
0.1384731
0.1384443
0.1384276
0.1384213
0.1384235
0.1384334
0.1384506
0.1384747
0.1385058
0.1385441
0.1385898
0.1386428
0.1387032
0.1387709
0.1388455
0.1389266
0.1390137
0.1391062
0.1392032
0.1393043
0.1394086
0.1395155
0.1396243
0.1397347
0.1398459
0.1399577
0.1400695
0.1401814
0.1402928
0.1404036
0.1405135
0.1406225
0.1407305
0.1408377
0.1409444
0.1410352
0.1411192
0.1411999
0.1412783
0.1413537
0.1414259
0.1414945
0.1415599
0.1416229
0.1416846
0.141746
0.1418084
0.141873
0.1419408
0.1420128
0.1420897
0.1421721
0.1422605
0.1423551
0.142456
0.1425634
0.1426772
0.1427973
0.1429222
0.1430507
0.1431823
0.1433168
0.1434539
0.1435935
0.1437355
0.1438797
0.1440261
0.1441747
0.1443252
0.1444776
0.1446316
0.1447869
0.144943
0.1450994
0.1452555
0.1454104
0.1455632
0.1457128
0.1458581
0.1459979
0.146131
0.146257
0.1463755
0.1464865
0.14659
0.1466861
0.1467749
0.1468565
0.1469308
0.1469978
0.147058
0.1471121
0.1471605
0.1472039
0.147243
0.1472788
0.1473124
0.147345
0.1473778
0.147412
0.1474486
0.1474884
0.1475319
0.1475795
0.1476313
0.1476875
0.1477479
0.1478124
0.1478807
0.1479527
0.148028
0.1481065
0.1481879
0.1482722
0.1483592
0.148449
0.1485414
0.1486367
0.1487347
0.1488358
0.1489399
0.1490471
0.1491575
0.1492709
0.1493872
0.1495063
0.1496277
0.1497511
0.1498759
0.1500014
0.1501271
0.1502521
0.1503755
0.1504967
0.1506149
0.1507294
0.1508396
0.150945
0.1510455
0.1511409
0.1512311
0.1513162
0.1513966
0.1514726
0.1515445
0.1516129
0.1516781
0.1517407
0.1518011
0.1518598
0.1519173
0.1519739
0.1520301
0.1520862
0.1521426
0.1521997
0.1522579
0.1523176
0.1523792
0.1524432
0.1525103
0.152581
0.1526564
0.1527374
0.1528255
0.1529223
0.15303
0.1531515
0.1532901
0.1534496
0.1536338
0.1538438
0.1540703
0.1542681
0.03474235
0.04660249
0.06021158
0.1017965
0.1267048
0.1676059
0.1785412
0.1857464
0.1909791
0.1936255
0.1944268
0.1933865
0.1922084
0.1901098
0.1871386
0.183489
0.1863552
0.1823668
0.1786766
0.1753755
0.1723593
0.1694308
0.1665424
0.1636933
0.1608918
0.1581479
0.1554644
0.1528435
0.150287
0.147798
0.1453814
0.1430448
0.1407977
0.13865
0.1366126
0.1346984
0.1329211
0.1312939
0.1298286
0.1285339
0.1274178
0.1265003
0.1255805
0.1248867
0.1243804
0.1240338
0.1238264
0.1237417
0.1237664
0.1238884
0.1240963
0.1243792
0.1247256
0.1251245
0.1255662
0.1260427
0.1265482
0.1270786
0.1276316
0.1282053
0.1287977
0.1294076
0.1300323
0.1306678
0.13131
0.1319554
0.1326015
0.133247
0.1338907
0.1345319
0.1351695
0.1358026
0.1364302
0.1370513
0.1376653
0.1382723
0.1388731
0.1394692
0.140062
0.1406353
0.1412008
0.1417634
0.1423252
0.1428872
0.1434521
0.1440241
0.1446131
0.1452123
0.1458136
0.1464129
0.1470082
0.1475984
0.1481825
0.1487604
0.1493319
0.1498975
0.1504577
0.1510131
0.1515643
0.1521118
0.1526557
0.1531956
0.153731
0.1542615
0.1547868
0.155307
0.1558223
0.1563329
0.1568388
0.1573402
0.1578371
0.1583295
0.1588173
0.1593007
0.1597799
0.1602553
0.1607271
0.1611931
0.1616539
0.1621107
0.1625648
0.1630174
0.16347
0.1639243
0.1643813
0.1648397
0.1652971
0.1657516
0.1662014
0.1666454
0.1670821
0.1675103
0.1679286
0.168335
0.168727
0.1691011
0.1694522
0.1697776
0.170078
0.1703532
0.1706017
0.170823
0.1710186
0.1711912
0.1713438
0.1714795
0.1716012
0.1717117
0.1718136
0.1719092
0.1720008
0.1720905
0.1721803
0.172272
0.1723671
0.1724664
0.1725696
0.1726747
0.172779
0.1728776
0.1729622
0.1730227
0.1730432
0.1730161
0.1729599
0.1728932
0.1728317
0.1727805
0.1727385
0.1727032
0.1726711
0.1726388
0.1726031
0.1725611
0.1725108
0.1724501
0.1723779
0.1722938
0.1721983
0.1720926
0.1719781
0.1718571
0.1717313
0.1716026
0.1714726
0.1713427
0.1712139
0.1710868
0.1709616
0.1708384
0.1707168
0.1705962
0.1704758
0.1703549
0.1702327
0.1701085
0.1699819
0.169853
0.1697219
0.1695894
0.1694565
0.1693242
0.1691937
0.1690659
0.1689418
0.1688216
0.1687056
0.1685936
0.1684853
0.1683804
0.1682785
0.1681792
0.1680825
0.1679881
0.1678961
0.1678063
0.1677187
0.1676336
0.1675509
0.1674703
0.1673914
0.1673139
0.1672371
0.1671602
0.1670832
0.1670049
0.1669253
0.1668438
0.16676
0.166674
0.1665853
0.166494
0.1664
0.1663033
0.166204
0.166102
0.1659973
0.1658901
0.1657803
0.1656679
0.1655528
0.1654351
0.1653147
0.1651916
0.1650656
0.1649367
0.164805
0.1646705
0.1645332
0.1643933
0.164251
0.1641064
0.1639599
0.1638121
0.1636633
0.1635144
0.1633661
0.1632193
0.1630751
0.1629343
0.1627979
0.1626667
0.1625413
0.1624218
0.1623072
0.1621958
0.1620909
0.1619944
0.1619063
0.1618257
0.1617513
0.1616815
0.1616147
0.1615494
0.1614844
0.1614185
0.1613509
0.1612807
0.1612075
0.161131
0.1610511
0.1609675
0.1608805
0.16079
0.1606963
0.1605996
0.1605001
0.1603983
0.1602944
0.1601888
0.1600822
0.159975
0.1598679
0.1597617
0.1596574
0.1595565
0.1594608
0.1593729
0.1592967
0.1592357
0.1591854
0.1591461
0.1591169
0.1590968
0.1590851
0.1590812
0.1590847
0.1590955
0.1591137
0.1591396
0.1591735
0.1592154
0.1592655
0.1593236
0.1593896
0.1594632
0.1595438
0.1596308
0.1597234
0.1598211
0.159923
0.1600285
0.1601368
0.1602474
0.1603597
0.1604731
0.1605875
0.1607022
0.1608169
0.1609315
0.1610456
0.161159
0.1612715
0.161383
0.1614929
0.1615984
0.1616997
0.1617969
0.1618904
0.1619802
0.162066
0.1621479
0.162226
0.1623007
0.1623726
0.1624424
0.1625111
0.1625796
0.1626489
0.16272
0.1627937
0.1628708
0.162952
0.1630376
0.1631279
0.163223
0.1633229
0.1634273
0.1635361
0.1636489
0.1637657
0.1638862
0.1640105
0.1641382
0.1642694
0.164404
0.1645418
0.1646827
0.1648266
0.1649733
0.1651225
0.1652739
0.165427
0.1655812
0.1657358
0.1658898
0.1660425
0.1661927
0.1663393
0.1664813
0.1666176
0.1667475
0.1668705
0.1669864
0.1670949
0.167196
0.1672897
0.1673761
0.1674553
0.1675275
0.1675932
0.167653
0.1677075
0.1677574
0.1678031
0.1678455
0.167885
0.1679226
0.167959
0.1679951
0.1680315
0.168069
0.1681082
0.1681496
0.1681937
0.1682407
0.1682909
0.1683443
0.1684011
0.1684614
0.168525
0.1685919
0.1686622
0.1687359
0.1688129
0.1688933
0.1689772
0.1690646
0.1691558
0.1692507
0.1693494
0.1694521
0.1695586
0.169669
0.169783
0.1699004
0.1700209
0.1701438
0.1702686
0.1703947
0.1705213
0.1706475
0.1707725
0.1708955
0.1710155
0.171132
0.1712443
0.1713518
0.1714543
0.1715516
0.1716437
0.1717306
0.1718126
0.1718899
0.1719631
0.1720325
0.1720986
0.172162
0.172223
0.1722823
0.1723402
0.1723971
0.1724536
0.17251
0.1725668
0.1726242
0.1726827
0.1727427
0.1728047
0.1728691
0.1729366
0.1730079
0.1730837
0.173165
0.1732531
0.1733494
0.1734557
0.1735741
0.1737071
0.173857
0.1740259
0.1742137
0.1744125
0.174587
0.01841985
0.02361873
0.0280317
0.0478764
0.06694782
0.09174987
0.1076671
0.1237557
0.1391491
0.1537815
0.1678947
0.1822965
0.1953747
0.2067361
0.2164344
0.2288154
0.2326818
0.2352436
0.2360783
0.2350305
0.2328938
0.2299365
0.2264576
0.2225389
0.2181565
0.2133874
0.2080284
0.2032643
0.1990695
0.1953945
0.1921233
0.1891034
0.1862592
0.1835532
0.1809637
0.1784672
0.1760405
0.1736645
0.1713261
0.1690186
0.1667418
0.1645012
0.1623072
0.1601736
0.1581165
0.1561535
0.1543023
0.1525794
0.1509994
0.1495743
0.1483129
0.1472197
0.146278
0.1454978
0.1448781
0.1444117
0.1440883
0.1438966
0.1438252
0.1438637
0.1440032
0.1442383
0.1445532
0.1449324
0.1453645
0.1458403
0.1463526
0.1468955
0.147465
0.1480575
0.1486704
0.1493014
0.1499481
0.1506079
0.1512773
0.1519528
0.1526314
0.1533103
0.1539873
0.1546605
0.1553286
0.1559906
0.1566458
0.1572937
0.1579341
0.1585671
0.159193
0.1598126
0.1604262
0.1610319
0.1616306
0.1622243
0.1628146
0.1634029
0.1639904
0.1645786
0.1651682
0.1657572
0.166343
0.1669238
0.1674987
0.1680671
0.1686287
0.1691834
0.1697313
0.1702727
0.1708079
0.1713375
0.1718619
0.1723817
0.1728973
0.1734088
0.173916
0.1744188
0.174917
0.1754103
0.1758987
0.176382
0.1768602
0.1773333
0.1778015
0.1782648
0.1787233
0.1791771
0.1796264
0.1800716
0.1805129
0.1809501
0.1813834
0.1818133
0.18224
0.1826641
0.1830861
0.1835061
0.1839239
0.1843389
0.1847499
0.185156
0.1855562
0.1859497
0.1863356
0.1867129
0.1870806
0.1874374
0.1877814
0.1881106
0.1884224
0.1887149
0.1889878
0.1892411
0.189474
0.1896866
0.1898796
0.1900545
0.1902132
0.1903575
0.1904895
0.190611
0.1907238
0.1908298
0.1909306
0.1910278
0.1911228
0.1912171
0.1913115
0.1914065
0.1915019
0.1915966
0.1916887
0.1917752
0.1918518
0.1919134
0.1919536
0.1919642
0.1919446
0.1919113
0.1918771
0.1918467
0.1918209
0.1917988
0.1917784
0.1917573
0.1917329
0.1917027
0.1916642
0.1916162
0.1915578
0.1914886
0.1914089
0.1913194
0.1912211
0.1911154
0.1910041
0.190889
0.1907718
0.1906537
0.1905358
0.1904188
0.1903031
0.1901885
0.1900749
0.1899618
0.1898484
0.1897343
0.1896185
0.1895006
0.1893802
0.1892572
0.1891322
0.1890056
0.1888784
0.1887517
0.1886267
0.1885043
0.1883853
0.1882702
0.1881592
0.1880521
0.1879486
0.1878485
0.1877514
0.1876569
0.1875648
0.1874749
0.1873872
0.1873015
0.1872178
0.1871362
0.1870567
0.1869791
0.1869035
0.1868295
0.1867568
0.186685
0.1866137
0.1865429
0.1864716
0.1863996
0.1863266
0.1862522
0.1861761
0.1860982
0.1860182
0.185936
0.1858514
0.1857643
0.1856747
0.1855823
0.1854872
0.1853893
0.1852884
0.1851845
0.1850775
0.1849672
0.1848537
0.1847367
0.1846164
0.1844927
0.1843656
0.1842353
0.1841019
0.1839657
0.1838271
0.1836866
0.1835447
0.1834021
0.1832597
0.1831184
0.1829793
0.1828432
0.1827111
0.1825838
0.1824621
0.1823462
0.182236
0.1821313
0.1820322
0.1819389
0.1818516
0.1817699
0.1816935
0.1816215
0.1815531
0.1814873
0.1814232
0.1813599
0.1812965
0.1812323
0.1811667
0.1810992
0.1810293
0.1809569
0.1808818
0.1808038
0.1807229
0.1806392
0.1805529
0.1804641
0.180373
0.1802801
0.1801857
0.1800904
0.1799947
0.1798994
0.1798055
0.1797143
0.1796274
0.1795477
0.1794784
0.1794159
0.1793612
0.1793145
0.1792759
0.1792449
0.1792212
0.1792047
0.1791951
0.1791927
0.1791978
0.1792104
0.179231
0.1792598
0.1792969
0.1793422
0.1793956
0.1794568
0.1795255
0.179601
0.1796826
0.1797698
0.1798617
0.1799577
0.1800571
0.1801593
0.1802636
0.1803698
0.1804771
0.1805854
0.1806941
0.180803
0.1809119
0.1810204
0.1811284
0.1812355
0.1813415
0.1814455
0.1815472
0.1816462
0.1817422
0.1818348
0.1819239
0.1820092
0.1820907
0.1821684
0.1822427
0.1823139
0.1823826
0.1824495
0.1825153
0.1825809
0.182647
0.1827143
0.1827836
0.1828554
0.1829301
0.1830081
0.1830897
0.183175
0.1832642
0.1833573
0.1834544
0.1835554
0.1836605
0.1837694
0.1838823
0.1839991
0.1841198
0.1842442
0.1843722
0.1845038
0.1846385
0.1847761
0.1849161
0.185058
0.1852009
0.1853441
0.1854867
0.1856278
0.1857662
0.1859009
0.1860311
0.1861559
0.1862748
0.1863873
0.186493
0.1865919
0.1866839
0.1867689
0.1868472
0.186919
0.1869847
0.1870449
0.1871001
0.1871508
0.1871976
0.187241
0.1872816
0.1873199
0.1873565
0.1873919
0.1874267
0.1874615
0.1874967
0.1875327
0.1875701
0.1876092
0.1876503
0.1876937
0.1877396
0.1877881
0.1878395
0.1878939
0.1879513
0.188012
0.188076
0.1881436
0.1882148
0.1882898
0.1883688
0.1884519
0.1885392
0.1886308
0.1887267
0.1888269
0.188931
0.189039
0.1891503
0.1892646
0.1893812
0.1894994
0.1896184
0.1897374
0.1898556
0.1899721
0.1900861
0.1901968
0.1903037
0.1904062
0.1905039
0.1905967
0.1906845
0.1907674
0.1908455
0.1909192
0.1909887
0.1910546
0.1911173
0.1911773
0.1912349
0.1912908
0.1913453
0.1913989
0.191452
0.1915049
0.1915581
0.191612
0.1916668
0.1917231
0.1917811
0.1918415
0.1919047
0.1919712
0.1920419
0.1921176
0.1921992
0.1922878
0.1923848
0.1924918
0.1926103
0.1927419
0.1928877
0.1930473
0.1932142
0.1933608
0.005425086
0.02495674
0.03922824
0.05384759
0.06788672
0.08205023
0.09653796
0.1103046
0.1233593
0.1367401
0.1567141
0.1651788
0.1733246
0.1810782
0.188644
0.196155
0.2036518
0.2110283
0.2177315
0.2226641
0.22581
0.2291479
0.2321861
0.2341225
0.2349557
0.234702
0.2334133
0.2312794
0.2285544
0.2251998
0.221452
0.2174831
0.2137369
0.210333
0.2073027
0.204618
0.2022063
0.2000088
0.1979827
0.1960911
0.1942962
0.1925609
0.190852
0.189143
0.1874157
0.1856607
0.1838768
0.1820712
0.1802572
0.1784535
0.1766823
0.1749671
0.1733314
0.1717969
0.1703828
0.1691046
0.1679732
0.1669932
0.1661677
0.1654969
0.1649773
0.1646023
0.1643629
0.164249
0.1642498
0.164354
0.16455
0.1648251
0.1651674
0.1655662
0.1660127
0.1664991
0.1670193
0.1675682
0.1681418
0.1687365
0.1693495
0.1699783
0.1706201
0.1712718
0.1719303
0.1725926
0.1732557
0.1739172
0.1745748
0.175227
0.1758723
0.1765102
0.1771401
0.1777619
0.1783757
0.1789818
0.1795808
0.1801729
0.1807584
0.1813377
0.1819115
0.1824803
0.183045
0.1836052
0.1841613
0.1847129
0.185259
0.1857986
0.186331
0.1868558
0.1873728
0.187882
0.1883836
0.1888779
0.1893652
0.189846
0.1903207
0.1907899
0.1912539
0.1917134
0.1921685
0.1926193
0.1930659
0.1935081
0.1939458
0.1943788
0.194807
0.1952304
0.1956488
0.1960623
0.1964709
0.1968748
0.1972741
0.197669
0.1980596
0.1984464
0.1988293
0.1992087
0.1995847
0.1999575
0.200327
0.2006932
0.201056
0.201415
0.2017696
0.2021192
0.2024633
0.2028011
0.2031323
0.2034562
0.2037722
0.2040797
0.2043777
0.2046653
0.2049412
0.2052042
0.2054531
0.2056877
0.2059076
0.2061127
0.206303
0.206479
0.2066414
0.2067914
0.2069301
0.2070587
0.2071784
0.2072905
0.2073961
0.2074964
0.2075924
0.2076852
0.2077757
0.2078645
0.2079518
0.2080377
0.2081215
0.208202
0.2082778
0.2083466
0.2084061
0.2084534
0.208486
0.2085029
0.2085066
0.2085015
0.2084927
0.2084824
0.2084712
0.2084586
0.2084437
0.2084252
0.2084017