/*--------------------------------*- C++ -*----------------------------------*\
| =========                 |                                                 |
| \\      /  F ield         | foam-extend: Open Source CFD                    |
|  \\    /   O peration     | Version:     3.1                                |
|   \\  /    A nd           | Web:         http://www.extend-project.de       |
|    \\/     M anipulation  |                                                 |
\*---------------------------------------------------------------------------*/
FoamFile
{
    version     2.0;
    format      ascii;
    class       volScalarField;
    location    "1";
    object      omega;
}
// * * * * * * * * * * * * * * * * * * * * * * * * * * * * * * * * * * * * * //

dimensions      [0 0 -1 0 0 0 0];

internalField   nonuniform List<scalar> 
119952
(
191.4631
227.3416
215.1636
194.9101
180.3194
183.0816
187.5688
192.5997
197.7691
202.9483
208.1201
213.3101
218.5585
223.9082
229.4016
235.0823
240.9989
247.219
253.8923
261.6974
227.0237
226.6175
229.1458
199.7722
196.8223
195.2892
193.808
192.3753
188.3224
207.6737
362.5601
284.5326
241.9903
216.6728
198.8091
184.5509
172.3717
161.7597
152.4016
141.4397
106.4022
86.24907
74.67826
67.71231
63.24526
60.12058
57.72139
55.72489
53.94451
42.09422
39.48455
37.19933
35.29636
33.75729
32.5271
31.53961
30.73425
30.06172
29.48546
28.87544
28.15728
27.38953
26.63851
25.9501
25.34389
24.81856
24.35712
23.93895
24.26034
24.40227
24.2014
23.86738
23.51917
23.19524
22.90221
22.65512
22.4636
22.32487
22.22866
22.16811
22.13734
22.13045
22.14195
22.16675
22.19947
22.23275
22.25136
22.2319
22.18887
22.14297
22.06154
21.95013
21.89278
21.87924
21.93347
22.189
23.19049
25.15726
25.63953
25.76473
25.76732
25.7197
25.64905
25.57121
25.49608
25.42986
25.37602
25.33597
25.30979
25.29662
25.29516
25.30387
25.32118
25.34563
25.37596
25.41113
25.45028
25.49261
25.53752
25.58487
25.63452
25.68612
25.7394
25.79416
25.85027
25.90766
25.96633
26.02636
26.08781
26.15077
26.21529
26.28132
26.34877
26.41752
26.48749
26.55871
26.63131
26.70554
26.78168
26.86001
26.94074
27.02402
27.1099
27.19824
27.28848
27.37769
27.4638
27.95365
28.62648
29.227
29.71506
30.10036
30.40227
30.64086
30.83294
30.99161
31.12673
31.24561
31.35251
31.45144
31.54616
31.63856
31.72994
31.82126
31.9132
32.00631
32.10096
32.19743
32.29595
32.39665
32.49962
32.60494
32.71267
32.82283
32.93542
33.05044
33.16795
33.28802
33.41072
33.53613
33.66428
33.79526
33.92909
34.06537
34.20527
34.3495
34.4985
34.65052
34.80758
34.96963
35.13692
35.30972
35.48839
35.67315
35.86516
36.05334
36.25286
43.49146
51.93355
55.40357
57.02934
57.88479
58.39238
58.74054
59.02121
59.28317
59.54159
59.81226
60.10714
60.42503
60.76436
61.12415
61.50345
61.90115
62.31629
62.7481
63.19589
63.65917
64.1376
64.63097
65.13938
65.66265
66.20055
66.75376
67.32189
67.90519
68.50357
69.11635
69.74163
70.36213
70.98552
71.50281
70.94086
69.4724
68.43669
67.65152
67.00767
66.44001
65.91243
65.40606
64.91142
64.42394
63.94226
63.46662
62.99643
62.53218
62.07427
61.62294
61.17834
60.74053
60.30946
59.88509
59.46731
59.056
58.65106
58.25235
57.85974
57.47292
57.09199
56.71733
56.34814
55.98443
55.62614
55.27324
54.92577
54.58252
54.23586
44.30532
42.33052
40.43712
38.75709
37.3501
36.22185
35.34655
34.68186
34.18192
33.80484
33.51624
33.28983
33.10644
32.95241
32.81855
32.69829
32.58717
32.48216
32.38121
32.28293
32.18641
32.09104
31.99645
31.90243
31.80887
31.71578
31.62315
31.53103
31.43949
31.34859
31.25842
31.16906
31.08057
30.99301
30.90645
30.8209
30.73638
30.6529
30.57045
30.48899
30.40854
30.32917
30.2511
30.17509
30.10267
30.0381
29.98093
29.92605
29.87251
29.81979
29.76766
29.71599
29.66441
29.61295
29.5485
29.33239
28.98095
28.5533
28.10934
27.69391
27.33293
27.03577
26.8005
26.61895
26.4807
26.37557
26.29478
26.23132
26.17987
26.13656
26.09861
26.06411
26.03172
26.00057
25.97005
25.93981
25.9096
25.8793
25.84886
25.81824
25.78749
25.75663
25.72571
25.6948
25.66396
25.63324
25.6027
25.57238
25.54233
25.51255
25.48308
25.45389
25.42496
25.39625
25.36771
25.33928
25.31088
25.28244
25.25391
25.22521
25.19628
25.16709
25.1376
25.10779
25.07767
25.04724
25.01652
24.98554
24.95433
24.92294
24.89141
24.85978
24.82809
24.79637
24.76465
24.73296
24.70131
24.66971
24.63818
24.6067
24.57528
24.5439
24.51254
24.48116
24.44974
24.41821
24.3865
24.35449
24.32203
24.28888
24.25463
24.21866
24.17984
24.13604
24.08255
24.00812
23.88789
23.68226
23.99809
324.7763
264.5694
230.3886
208.1392
191.6517
178.2842
166.875
156.9028
147.6688
122.7391
96.06052
80.70872
71.50021
65.74654
61.91761
59.1441
56.94939
55.07326
43.73015
41.04031
38.56388
36.43492
34.68241
33.27448
32.15154
31.24845
30.50771
29.88074
29.3115
28.63551
27.86944
27.08595
26.34705
25.68825
25.12013
24.63698
24.22484
24.14836
24.07301
23.75275
23.31833
22.84869
22.38987
21.96543
21.5844
21.24724
20.95005
20.67957
20.40812
20.12294
19.82624
19.52812
19.23973
18.96956
18.72247
18.50847
16.68977
16.50112
16.33058
16.16644
16.00502
15.84669
15.69362
15.54873
15.41294
15.28599
15.16599
15.04982
14.93493
14.82012
14.70551
14.59216
14.48168
14.37659
14.28385
14.21688
14.16712
14.12505
14.08825
14.0555
14.02414
13.99206
13.95889
13.92536
13.8926
13.86188
13.83413
13.8103
13.79051
13.77424
13.7608
13.74913
13.73824
13.72717
13.71452
13.70039
13.68493
13.66766
13.65271
13.64628
13.65278
13.68231
13.74812
13.86555
13.99415
14.10259
14.19302
14.26617
14.32418
14.36929
14.40364
14.42924
14.44796
14.46145
14.47116
14.47825
14.48365
14.48804
14.49188
14.49551
14.49909
14.50276
14.50658
14.51059
14.5148
14.51927
14.52402
14.52909
14.53448
14.5402
14.54628
14.55272
14.55957
14.56685
14.5746
14.58287
14.59166
14.60096
14.61073
14.62089
14.63135
14.64207
14.653
14.66415
14.67557
14.68734
14.69952
14.7122
14.72539
14.73909
14.7532
14.76756
14.78193
14.79743
14.81994
14.85244
14.89476
14.94448
14.99856
15.05426
15.10939
15.16245
15.21251
15.25908
15.302
15.3413
15.37718
15.40996
15.43997
15.46755
15.49299
15.5166
15.53864
15.55934
15.57893
15.59758
15.61546
15.63269
15.64939
15.66565
15.68157
15.69721
15.71262
15.72786
15.74297
15.75807
15.77318
15.78832
15.80354
15.81886
15.83434
15.85004
15.86603
15.88238
15.89913
15.91634
15.93402
15.95219
15.97083
15.98993
16.0094
16.02896
16.04733
16.05316
16.9282
17.59227
17.92711
18.13733
18.29638
18.42904
18.54343
18.64255
18.72811
18.80161
18.86472
18.91911
18.96633
19.00776
19.04459
19.07783
19.1083
19.13664
19.1634
19.18899
19.21372
19.23785
19.26157
19.28507
19.30829
19.33127
19.35402
19.37652
19.39868
19.4203
19.44103
19.46019
19.47637
19.48646
19.48281
19.45336
19.40686
19.35173
19.29251
19.23268
19.17464
19.11977
19.06872
19.02163
18.97832
18.93844
18.9016
18.86739
18.83542
18.80536
18.7769
18.74978
18.72379
18.69874
18.67445
18.65081
18.62768
18.60499
18.58264
18.56058
18.53876
18.51714
18.4957
18.4744
18.45325
18.43223
18.41135
18.39061
18.37012
18.35445
16.70962
16.62875
16.56442
16.50176
16.43446
16.36116
16.28305
16.20242
16.12178
16.04332
15.96871
15.89902
15.83481
15.77627
15.72328
15.67553
15.63262
15.59408
15.55945
15.52827
15.50014
15.47468
15.45155
15.43034
15.41069
15.3924
15.37527
15.35917
15.34397
15.32958
15.31591
15.3029
15.29049
15.27862
15.26725
15.25634
15.24585
15.23574
15.22597
15.21652
15.20735
15.19847
15.18992
15.18179
15.17423
15.16737
15.16098
15.15476
15.14856
15.14225
15.1358
15.12918
15.12249
15.11586
15.10878
15.09883
15.08365
15.06165
15.03241
14.99662
14.95573
14.91159
14.8661
14.82091
14.77734
14.73631
14.69838
14.66379
14.63257
14.6046
14.57964
14.5574
14.5376
14.51993
14.50411
14.48989
14.47704
14.46536
14.45469
14.44489
14.43582
14.42741
14.41955
14.41219
14.40527
14.39874
14.39256
14.3867
14.38112
14.3758
14.3707
14.3658
14.36105
14.35642
14.35186
14.34733
14.34279
14.33821
14.33355
14.32877
14.32386
14.31879
14.31355
14.30812
14.30251
14.29671
14.29073
14.28458
14.27828
14.27183
14.26526
14.25858
14.2518
14.24494
14.23801
14.23101
14.22396
14.21686
14.20969
14.20247
14.19519
14.18783
14.18037
14.1728
14.16509
14.15721
14.14909
14.14067
14.13186
14.12251
14.11243
14.1013
14.08863
14.07365
14.05515
14.03146
14.00089
13.9674
13.9474
429.969
333.1264
291.8454
265.7395
243.8208
224.3787
207.0473
191.734
178.207
163.1968
120.1245
95.8929
82.00082
73.49697
67.89824
63.89424
60.7955
58.23787
55.999
43.55272
40.86707
38.48327
36.45143
34.76532
33.38666
32.26466
31.34651
30.58501
29.94431
29.31574
28.60877
27.85346
27.10123
26.39539
25.76222
25.21064
24.73711
24.32148
24.40756
24.20071
23.83078
23.38358
22.91571
22.46266
22.04381
21.66703
21.33289
21.0366
20.75719
20.47175
20.17292
19.86553
19.56017
19.26766
18.99581
18.75324
16.85727
16.65711
16.48031
16.31118
16.14374
15.9776
15.8152
15.66005
15.51337
15.37557
15.24616
15.12226
15.00068
14.87933
14.75765
14.63649
14.51739
14.40209
14.29247
14.19414
14.10689
14.02527
13.94469
13.8626
13.77831
13.69239
13.60603
13.5206
13.43728
13.35658
13.2781
13.20092
13.12414
13.04728
12.97035
12.89375
12.81803
12.74256
12.72161
12.68515
12.63893
12.58602
12.52822
12.4668
12.40279
12.33688
12.27026
12.20412
12.13907
12.07519
12.01234
11.95031
11.88901
11.82859
11.76946
11.71256
11.65977
11.61375
11.57388
11.53935
11.51004
11.48555
11.46465
11.44598
11.42858
11.4119
11.39568
11.37993
11.36474
11.35033
11.33684
11.32429
11.31262
11.30162
11.29097
11.28035
11.26944
11.25834
11.24722
11.23649
11.22756
11.22271
11.22426
11.23769
11.26485
11.30594
11.34935
11.38966
11.42707
11.46175
11.49352
11.52227
11.54798
11.57077
11.59083
11.60843
11.62388
11.63748
11.64951
11.66022
11.66979
11.67836
11.68606
11.69296
11.69915
11.70471
11.7097
11.71422
11.71836
11.72221
11.72584
11.72934
11.73279
11.73627
11.73985
11.74361
11.74763
11.75195
11.7566
11.76158
11.76686
11.77239
11.77811
11.78397
11.78993
11.79598
11.80215
11.80848
11.81502
11.82183
11.82892
11.83632
11.84399
11.85188
11.85992
11.86831
11.87787
11.88935
11.90333
11.92
11.93919
11.96049
11.98334
12.00717
12.03149
12.05585
12.07987
12.10329
12.1259
12.1476
12.1683
12.18798
12.20666
12.22436
12.2411
12.25696
12.27201
12.28632
12.29991
12.31286
12.32524
12.3371
12.3485
12.35951
12.37016
12.38045
12.39045
12.40017
12.40961
12.41881
12.42782
12.43669
12.44545
12.45415
12.46285
12.47158
12.48039
12.4893
12.49833
12.50747
12.51673
12.52609
12.53553
12.54494
12.55426
12.56412
12.58889
12.58918
12.58849
12.59341
12.60463
12.62108
12.64131
12.66396
12.68786
12.71212
12.73608
12.75928
12.78143
12.80236
12.82198
12.8403
12.85734
12.87318
12.8879
12.90159
12.91435
12.92625
12.93741
12.94781
12.9575
12.96653
12.97492
12.98266
12.98973
12.99604
13.00144
13.00564
13.00814
13.00807
13.00418
12.99627
12.98557
12.97261
12.95794
12.94203
12.92534
12.90827
12.89116
12.87429
12.85785
12.84198
12.82678
12.81229
12.79853
12.7855
12.77317
12.76151
12.75046
12.73998
12.73001
12.7205
12.7114
12.70267
12.69424
12.6861
12.67819
12.67049
12.66296
12.6556
12.64837
12.64127
12.63429
12.6274
12.62039
12.61115
12.65085
12.67393
12.68578
12.68907
12.68533
12.67553
12.66054
12.6412
12.61841
12.59306
12.56599
12.53796
12.5096
12.48144
12.45388
12.42719
12.40158
12.37716
12.35398
12.33206
12.31138
12.29188
12.27352
12.25628
12.24013
12.225
12.21084
12.19759
12.18517
12.17353
12.16263
12.1524
12.1428
12.13379
12.12531
12.11733
12.1098
12.10269
12.09596
12.08958
12.08351
12.07775
12.07229
12.06714
12.06233
12.05786
12.05368
12.04966
12.04574
12.04185
12.03796
12.03406
12.03015
12.02626
12.02234
12.01797
12.01264
12.00582
11.99708
11.98617
11.97305
11.95788
11.94098
11.92274
11.90361
11.88403
11.8644
11.84503
11.82621
11.80812
11.7909
11.77464
11.75937
11.74509
11.7318
11.71943
11.70796
11.69732
11.68745
11.6783
11.6698
11.6619
11.65455
11.6477
11.64131
11.63533
11.62973
11.62447
11.61952
11.61485
11.61042
11.60621
11.60217
11.59829
11.59453
11.59085
11.58724
11.58366
11.58008
11.5765
11.5729
11.56925
11.56556
11.5618
11.55798
11.5541
11.55014
11.54612
11.54204
11.53789
11.53368
11.52943
11.52512
11.52077
11.51637
11.51193
11.50745
11.50292
11.49833
11.4937
11.48899
11.48421
11.47933
11.47433
11.4692
11.46389
11.45836
11.45256
11.44641
11.43981
11.43261
11.42463
11.41558
11.40509
11.39266
11.37776
11.36006
11.34065
11.32422
354.3887
269.8471
177.2442
96.39785
79.30361
51.58339
44.14388
39.46621
35.94193
33.21063
31.22011
29.72651
28.96838
28.19822
27.21685
26.24562
25.36462
24.59158
23.91912
23.33237
22.81635
22.35817
21.93949
21.53007
21.11888
20.70986
20.31273
19.93705
19.58965
19.27409
18.9984
17.067
16.84773
16.65366
16.47223
16.29777
16.12861
15.96518
15.80888
15.66137
15.52406
15.3955
15.27262
15.15256
15.03338
14.91431
14.79566
14.67849
14.56427
14.45585
14.3582
14.26861
14.18253
14.09629
14.00788
13.91685
13.8239
13.73034
13.63764
13.54701
13.45879
13.3725
13.28721
13.20209
13.11678
13.03142
12.94636
12.86054
12.82777
12.78106
12.72594
12.66504
12.5997
12.53077
12.45903
12.38508
12.31031
12.23602
12.16303
12.09159
12.02147
11.95236
11.88398
11.81624
11.74925
11.68332
11.61893
11.55697
11.49797
11.44171
11.3876
11.33495
11.28321
11.23202
11.18128
11.13105
11.08151
11.03281
10.98498
10.93794
10.89152
10.84554
10.79988
10.75451
10.70951
10.66548
10.6276
10.59239
10.55803
10.52346
10.48808
10.45148
10.41329
10.37297
10.33111
10.28859
10.24597
10.20359
10.16162
10.12018
10.07937
10.03932
10.00023
9.962527
9.926868
9.894066
9.864179
9.837173
9.813257
9.792503
9.77457
9.758898
9.744944
9.732257
9.720487
9.709379
9.698771
9.688569
9.678717
9.669166
9.659856
9.650705
9.641601
9.632438
9.623155
9.613852
9.604746
9.596168
9.588815
9.583743
9.58213
9.586898
9.598086
9.614978
9.633613
9.651756
9.669231
9.68626
9.702898
9.719113
9.734854
9.750069
9.76472
9.778782
9.792247
9.805114
9.817378
9.829026
9.840031
9.850362
9.859987
9.868878
9.877024
9.88443
9.891122
9.897146
9.902565
9.907453
9.911893
9.915975
9.91979
9.923436
9.927005
9.930587
9.934261
9.938087
9.942102
9.946315
9.950709
9.955247
9.959881
9.964566
9.96927
9.973981
9.978711
9.983489
9.988358
9.99336
9.998532
10.00389
10.00944
10.01516
10.02103
10.02706
10.03341
10.04024
10.04776
10.05615
10.06554
10.07596
10.08737
10.09967
10.11274
10.12639
10.14046
10.15479
10.16925
10.18369
10.19803
10.21216
10.22602
10.23953
10.25265
10.26537
10.27768
10.28958
10.30106
10.31214
10.32282
10.33313
10.34308
10.3527
10.36201
10.37103
10.37977
10.38821
10.39636
10.40426
10.41194
10.41942
10.42675
10.43396
10.44107
10.44812
10.45513
10.46211
10.46907
10.476
10.4829
10.48974
10.49653
10.50322
10.5098
10.51648
10.52444
10.53098
10.53648
10.54188
10.54794
10.55511
10.56355
10.5732
10.58392
10.5955
10.60772
10.62034
10.63315
10.64599
10.65871
10.67115
10.68323
10.6949
10.70611
10.71685
10.72709
10.73681
10.74601
10.75469
10.76285
10.77043
10.77745
10.78388
10.78967
10.79477
10.79907
10.80236
10.80439
10.80474
10.8028
10.79927
10.79438
10.78833
10.78133
10.77353
10.7651
10.75621
10.74701
10.73761
10.72815
10.71867
10.70925
10.69998
10.69091
10.68204
10.67341
10.66503
10.65692
10.64908
10.6415
10.63418
10.62711
10.62027
10.61365
10.60724
10.60102
10.59497
10.58907
10.58332
10.57769
10.57219
10.56681
10.56152
10.55635
10.55161
10.55183
10.55398
10.5564
10.55811
10.55854
10.55734
10.55431
10.54939
10.5426
10.53408
10.52397
10.5125
10.49989
10.48635
10.47212
10.45738
10.44231
10.42708
10.4118
10.3966
10.38157
10.36679
10.35231
10.33826
10.32474
10.31178
10.29939
10.28756
10.27631
10.26562
10.25547
10.24585
10.23674
10.22812
10.21995
10.21222
10.2049
10.19796
10.19137
10.18512
10.17919
10.17356
10.16823
10.16319
10.15845
10.15401
10.14982
10.14585
10.14205
10.13838
10.13482
10.13136
10.12799
10.1247
10.12149
10.11826
10.11486
10.11112
10.10687
10.10194
10.0962
10.08957
10.08203
10.0736
10.06437
10.05446
10.04398
10.03311
10.02196
10.0107
9.999435
9.98828
9.977324
9.96664
9.956283
9.946294
9.9367
9.927516
9.91875
9.910399
9.902456
9.894908
9.887739
9.880929
9.874459
9.868305
9.862447
9.856863
9.851531
9.846431
9.841542
9.836844
9.832314
9.827935
9.823687
9.819554
9.815519
9.81157
9.807695
9.803886
9.800135
9.796435
9.792779
9.789163
9.78558
9.782024
9.778492
9.774977
9.771474
9.76798
9.76449
9.760999
9.757502
9.753997
9.750476
9.746936
9.74337
9.73977
9.736128
9.732436
9.72868
9.724849
9.720924
9.716887
9.712712
9.70837
9.703822
9.69902
9.693902
9.688388
9.682375
9.675726
9.668271
9.659794
9.650053
9.638807
9.625963
9.611963
9.59912
413.1714
305.1112
249.8225
133.7675
103.9264
58.75445
49.64697
46.16289
40.84517
37.9183
35.49255
33.20337
31.17414
29.40277
27.65275
26.10922
22.75575
21.72883
20.80236
19.97734
19.24757
18.59227
17.99968
17.47087
16.99539
16.56062
16.15945
15.78894
15.44793
15.13576
14.85167
14.59457
14.36304
14.155
13.96756
13.79772
13.64273
13.50039
13.36907
13.24758
13.13495
13.02879
12.98128
12.92468
12.86332
12.79923
12.7333
12.666
12.59771
12.5288
12.45966
12.39056
12.32203
12.25432
12.18726
12.12056
12.05389
11.98709
11.92014
11.85328
11.78703
11.72227
11.65936
11.59812
11.53809
11.47876
11.41971
11.36077
11.30196
11.24348
11.18561
11.12856
11.07239
11.01703
10.96232
10.90809
10.85421
10.80072
10.74809
10.70144
10.65762
10.61484
10.57211
10.52875
10.48423
10.43806
10.38969
10.33991
10.28964
10.23945
10.18968
10.14047
10.09188
10.0439
9.996503
9.949688
9.903497
9.858029
9.813464
9.769973
9.727646
9.686484
9.646404
9.607278
9.568973
9.531383
9.494443
9.458126
9.422424
9.387324
9.352801
9.318807
9.285282
9.25216
9.219389
9.186947
9.154951
9.124033
9.0942
9.065226
9.036817
9.008677
8.980541
8.952194
8.92352
8.894601
8.865602
8.836679
8.807964
8.779564
8.751569
8.724066
8.697155
8.670971
8.645707
8.621629
8.59902
8.577959
8.558474
8.540678
8.524658
8.510345
8.497552
8.486053
8.475627
8.466068
8.457193
8.448848
8.440906
8.433265
8.425835
8.418542
8.411315
8.404092
8.39683
8.389528
8.38226
8.375181
8.368511
8.362601
8.35794
8.35508
8.355145
8.358977
8.365478
8.373217
8.381112
8.388908
8.396686
8.40454
8.412535
8.420716
8.429115
8.437741
8.446568
8.455593
8.464783
8.474083
8.483412
8.492669
8.501743
8.510524
8.518913
8.526841
8.534255
8.541123
8.547437
8.553213
8.558487
8.563309
8.567745
8.571866
8.575753
8.579487
8.583146
8.5868
8.590502
8.594288
8.598167
8.60213
8.606149
8.610187
8.614209
8.618187
8.62211
8.625984
8.629832
8.633684
8.63758
8.641552
8.645627
8.649815
8.654117
8.658522
8.66303
8.667659
8.672437
8.67741
8.682636
8.688179
8.694095
8.70042
8.707178
8.714377
8.722
8.729985
8.738297
8.746886
8.755706
8.764711
8.773822
8.782995
8.792182
8.801341
8.810436
8.819437
8.828317
8.837056
8.845637
8.854048
8.862284
8.87034
8.878216
8.885915
8.89344
8.900795
8.907986
8.915023
8.921915
8.928677
8.935323
8.941869
8.948334
8.954731
8.961074
8.967367
8.97361
8.979795
8.985908
8.991931
8.997845
9.003634
9.009279
9.014772
9.02016
9.025588
9.030874
9.035932
9.04082
9.045682
9.050683
9.055963
9.061626
9.067733
9.074304
9.081328
9.088766
9.09656
9.104646
9.112953
9.121398
9.129906
9.138412
9.146861
9.155202
9.163387
9.171372
9.17912
9.186596
9.193767
9.200587
9.207011
9.212996
9.218493
9.223436
9.227734
9.231265
9.233863
9.235279
9.23529
9.234373
9.232568
9.229973
9.226699
9.222834
9.21846
9.213653
9.208483
9.203011
9.197287
9.191352
9.185249
9.179018
9.172703
9.166332
9.159939
9.153527
9.147134
9.140787
9.134508
9.128315
9.12222
9.116232
9.110358
9.104602
9.098972
9.093469
9.088059
9.082751
9.077545
9.072441
9.067436
9.062526
9.057722
9.053122
9.049268
9.046193
9.043735
9.041666
9.039744
9.037748
9.035477
9.032764
9.029481
9.025534
9.020871
9.015467
9.009331
9.002492
8.994998
8.986913
8.978309
8.969268
8.959873
8.95021
8.940363
8.930415
8.920441
8.910512
8.900686
8.891012
8.881533
8.872282
8.863288
8.85457
8.846144
8.838019
8.830198
8.822682
8.815465
8.808544
8.801909
8.795553
8.789466
8.783643
8.778075
8.772759
8.767695
8.762882
8.758322
8.75401
8.749936
8.746078
8.742416
8.738931
8.735607
8.732433
8.729399
8.726497
8.723713
8.721017
8.71836
8.715686
8.712927
8.710013
8.706872
8.703437
8.699654
8.695484
8.690907
8.685919
8.680534
8.674782
8.668702
8.662344
8.655759
8.649003
8.642132
8.635196
8.628244
8.621318
8.614457
8.607691
8.601048
8.594546
8.588201
8.582022
8.576015
8.570181
8.564519
8.559026
8.553696
8.548523
8.5435
8.538621
8.533877
8.529262
8.524768
8.520389
8.516121
8.511958
8.507898
8.50394
8.500082
8.496325
8.492668
8.489111
8.485651
8.482286
8.479011
8.475821
8.472709
8.469667
8.466686
8.463757
8.460873
8.458022
8.455197
8.452389
8.449588
8.446785
8.443973
8.44114
8.438279
8.435378
8.432425
8.429408
8.426312
8.423119
8.419809
8.416356
8.412732
8.408897
8.404808
8.400406
8.395623
8.390372
8.384552
8.378045
8.370729
8.362496
8.353309
8.343398
8.334107
235.902
182.6701
249.3579
122.8307
97.98654
71.14382
62.28295
54.44016
47.50914
43.16953
39.91331
37.2003
35.48991
34.46924
33.7168
31.78441
31.06869
30.07119
28.70905
27.39213
26.08255
24.79933
23.59197
22.48576
21.46147
20.49202
19.62877
18.79972
18.02452
17.30941
16.65257
16.04648
15.48655
14.9708
14.49746
14.06398
13.66772
13.30641
12.97814
12.68125
12.41421
12.17543
11.96324
11.7757
11.61067
11.46584
11.33883
11.22731
11.12905
11.04203
10.96448
10.89518
10.83749
10.78725
10.74177
10.69922
10.65827
10.61796
10.57755
10.53649
10.49429
10.45053
10.40566
10.36011
10.31408
10.26762
10.22072
10.17334
10.12545
10.07708
10.02834
9.979451
9.93065
9.882118
9.833965
9.786235
9.73894
9.692084
9.645691
9.599811
9.554516
9.509875
9.465932
9.422694
9.380125
9.338163
9.296736
9.255796
9.215425
9.176234
9.138256
9.101271
9.064998
9.029148
8.993432
8.957649
8.921716
8.885742
8.849886
8.814288
8.779047
8.744229
8.709868
8.675977
8.642552
8.609587
8.577077
8.545028
8.513465
8.482422
8.451931
8.42202
8.392702
8.363973
8.335815
8.308204
8.281116
8.254529
8.228425
8.202784
8.177585
8.152802
8.128407
8.104364
8.080638
8.057198
8.03404
8.011229
7.988806
7.966773
7.945096
7.923724
7.902598
7.881669
7.860918
7.840359
7.820023
7.799949
7.780174
7.760737
7.741676
7.723036
7.704871
7.687252
7.670268
7.65403
7.638644
7.62415
7.610566
7.597928
7.586272
7.575581
7.56579
7.556807
7.548538
7.540885
7.533753
7.527051
7.520695
7.514611
7.508728
7.502986
7.497331
7.491721
7.486132
7.480567
7.475072
7.469733
7.464677
7.460078
7.45616
7.453147
7.451338
7.451236
7.453
7.455739
7.45875
7.461832
7.464976
7.46823
7.471664
7.475352
7.479365
7.483763
7.488601
7.493873
7.499555
7.5056
7.511944
7.518506
7.525195
7.531911
7.538554
7.545021
7.551232
7.557128
7.562672
7.567851
7.572667
7.577143
7.581314
7.585228
7.58894
7.592509
7.595993
7.599445
7.602904
7.606397
7.609928
7.61349
7.617057
7.620598
7.624082
7.627485
7.630795
7.634015
7.637161
7.640263
7.64335
7.64645
7.649589
7.652783
7.65604
7.65936
7.66274
7.666179
7.669674
7.67323
7.676855
7.680566
7.684384
7.688334
7.692438
7.696721
7.701202
7.705887
7.710753
7.715807
7.721044
7.726454
7.732022
7.737726
7.743546
7.749461
7.755448
7.761487
7.767558
7.773642
7.779723
7.785787
7.791822
7.797817
7.803764
7.809658
7.815493
7.821267
7.82698
7.832631
7.838224
7.843761
7.849248
7.854691
7.860094
7.865461
7.870793
7.876084
7.881327
7.886506
7.891604
7.8966
7.901474
7.906208
7.910787
7.915203
7.919464
7.923595
7.927603
7.931483
7.935247
7.938924
7.942561
7.946211
7.949932
7.953776
7.957785
7.961992
7.966416
7.971064
7.975933
7.98101
7.986273
7.991694
7.997242
8.002886
8.00859
8.01432
8.020038
8.025708
8.031294
8.036756
8.042055
8.047144
8.051979
8.056509
8.060674
8.064406
8.067613
8.070157
8.071851
8.072972
8.0735
8.07345
8.072864
8.071795
8.070291
8.068396
8.066147
8.063575
8.060708
8.057565
8.054167
8.050531
8.046679
8.042634
8.03842
8.034062
8.029579
8.024995
8.020335
8.015626
8.010891
8.006151
8.001423
7.996724
7.992071
7.987478
7.982929
7.978435
7.974001
7.96963
7.965327
7.961092
7.956926
7.952833
7.948835
7.945008
7.941411
7.93807
7.934979
7.932109
7.929411
7.92682
7.924265
7.921674
7.918976
7.916106
7.91301
7.909644
7.905973
7.901977
7.897645
7.892978
7.887988
7.882693
7.87712
7.8713
7.865271
7.859068
7.852733
7.846303
7.839816
7.833309
7.826816
7.820365
7.813984
7.807694
7.801514
7.795457
7.789535
7.783756
7.778127
7.772653
7.767337
7.762183
7.757196
7.75238
7.74774
7.743283
7.739014
7.734939
7.731061
7.72738
7.723889
7.720582
7.71745
7.714487
7.711683
7.709032
7.706522
7.704145
7.701883
7.699714
7.697613
7.695552
7.6935
7.691424
7.689288
7.687058
7.684702
7.682193
7.679507
7.676629
7.67355
7.670266
7.666784
7.663111
7.659263
7.655257
7.651115
7.646857
7.642507
7.638088
7.633618
7.62912
7.624609
7.620101
7.615609
7.611143
7.60671
7.602316
7.597967
7.593666
7.589414
7.585215
7.581071
7.576983
7.572955
7.56899
7.565092
7.561264
7.557514
7.553846
7.550268
7.546786
7.543407
7.540136
7.536976
7.53393
7.530998
7.528176
7.525461
7.522846
7.520323
7.517882
7.515515
7.513209
7.510955
7.508742
7.50656
7.504398
7.502247
7.500097
7.497939
7.495763
7.493559
7.491318
7.489028
7.486678
7.484252
7.481736
7.47911
7.476353
7.473439
7.470337
7.467008
7.463411
7.459492
7.455194
7.450455
7.445212
7.439414
7.433045
7.42624
7.419831
106.1115
64.83632
59.79895
55.39479
52.34992
48.90192
45.40246
42.20084
39.46257
36.65577
31.8021
30.64085
29.80412
29.39607
29.38339
29.73519
30.32162
30.95288
31.47831
31.68524
31.39389
30.7411
29.71249
28.5054
27.16224
25.75377
24.35094
23.02277
21.81652
20.72213
19.70788
18.76435
17.88912
17.07652
16.32231
15.62234
14.9714
14.36579
13.80331
13.28249
12.80196
12.36035
11.95638
11.58881
11.25644
10.95806
10.69225
10.45739
10.2516
10.07276
9.918511
9.786348
9.673655
9.577807
9.496254
9.426603
9.366758
9.31532
9.270652
9.231167
9.19545
9.162297
9.130721
9.099933
9.069333
9.038491
9.007167
8.975297
8.942884
8.909944
8.876486
8.842509
8.808003
8.772959
8.737382
8.701305
8.664799
8.627973
8.590957
8.553886
8.516894
8.480099
8.443607
8.407505
8.37187
8.336762
8.30223
8.268302
8.234989
8.202279
8.170143
8.138541
8.10743
8.076789
8.046671
8.017116
7.988121
7.959657
7.931681
7.904125
7.876958
7.850167
7.823765
7.797772
7.772206
7.747074
7.722378
7.698112
7.674266
7.650822
7.627764
7.605072
7.582731
7.560728
7.539056
7.517713
7.496704
7.476034
7.455709
7.435735
7.416112
7.39684
7.377916
7.359335
7.341087
7.323163
7.305548
7.288228
7.271183
7.254393
7.237836
7.221496
7.205366
7.189449
7.173745
7.15826
7.142993
7.127948
7.11313
7.098549
7.084218
7.070152
7.056366
7.042875
7.029692
7.016833
7.004318
6.992172
6.980426
6.969119
6.958295
6.947991
6.938224
6.928997
6.920318
6.912191
6.904605
6.89753
6.890927
6.884751
6.878959
6.873505
6.868344
6.863432
6.858726
6.854186
6.849775
6.845461
6.841218
6.837033
6.832906
6.828862
6.824945
6.821219
6.817769
6.814692
6.812078
6.810015
6.808606
6.807909
6.807847
6.80827
6.808975
6.809887
6.810994
6.812312
6.813871
6.81571
6.817864
6.820367
6.823234
6.826467
6.830049
6.833947
6.838111
6.842478
6.846979
6.85154
6.856091
6.860569
6.864922
6.869112
6.873112
6.876913
6.880516
6.883936
6.887195
6.890323
6.893355
6.896324
6.899261
6.902189
6.905124
6.908067
6.911012
6.913943
6.91684
6.919681
6.92245
6.925135
6.927737
6.93026
6.932718
6.935133
6.937528
6.939923
6.942335
6.944774
6.947245
6.949747
6.952277
6.954831
6.957402
6.959987
6.962584
6.965197
6.967832
6.970506
6.973231
6.976025
6.978902
6.98185
6.984887
6.988021
6.991256
6.994597
6.99804
7.001584
7.005224
7.008953
7.012763
7.016647
7.020596
7.024601
7.028655
7.032749
7.036877
7.041031
7.045206
7.049396
7.053598
7.057808
7.062023
7.066242
7.070463
7.074686
7.078908
7.083128
7.087342
7.091544
7.095723
7.099868
7.10396
7.107982
7.111913
7.115734
7.119429
7.122983
7.126389
7.129645
7.132758
7.135737
7.138594
7.14134
7.143991
7.146568
7.149094
7.151598
7.154107
7.156649
7.15925
7.161932
7.164713
7.167607
7.170621
7.173759
7.177018
7.180391
7.183869
7.187438
7.191081
7.194778
7.198505
7.202239
7.205952
7.209613
7.21319
7.216647
7.219944
7.223035
7.225864
7.228322
7.230366
7.232105
7.233511
7.234567
7.235273
7.235641
7.235692
7.235446
7.23492
7.234129
7.233086
7.231798
7.230274
7.228519
7.226541
7.224348
7.221953
7.219371
7.216617
7.213711
7.21067
7.207514
7.204266
7.200945
7.19757
7.194158
7.190726
7.187291
7.183868
7.180447
7.177043
7.173663
7.170312
7.166995
7.163716
7.160477
7.157281
7.154134
7.151052
7.148052
7.145152
7.142369
7.139712
7.137182
7.134775
7.132476
7.130263
7.128109
7.125984
7.123855
7.121688
7.119452
7.117117
7.114656
7.112049
7.10928
7.106338
7.10322
7.099924
7.096458
7.092832
7.089058
7.085154
7.081139
7.077031
7.072852
7.068621
7.064356
7.060075
7.055791
7.05152
7.047272
7.043059
7.038891
7.034776
7.030725
7.026746
7.022849
7.019044
7.015342
7.011752
7.008286
7.004953
7.001761
6.998715
6.995818
6.99307
6.990471
6.988017
6.985705
6.983529
6.981483
6.979557
6.977741
6.976022
6.974385
6.972817
6.971299
6.969816
6.96835
6.966882
6.965393
6.963866
6.962283
6.960629
6.958891
6.957058
6.955122
6.953078
6.950925
6.948662
6.946292
6.94382
6.941252
6.938595
6.935858
6.933048
6.930174
6.927245
6.924266
6.921244
6.918186
6.915096
6.91198
6.908842
6.905688
6.902521
6.899349
6.896177
6.893012
6.889863
6.886737
6.883645
6.880597
6.877603
6.874675
6.871822
6.869055
6.86638
6.863806
6.861335
6.858971
6.856711
6.854554
6.852493
6.850524
6.848637
6.846824
6.845074
6.843378
6.841727
6.84011
6.838518
6.836942
6.835374
6.833805
6.832227
6.830633
6.829013
6.82736
6.825664
6.823915
6.822102
6.820212
6.81823
6.816141
6.813922
6.811553
6.809006
6.806254
6.803263
6.800002
6.796438
6.792547
6.788321
6.783844
6.779631
132.9707
47.47623
37.63102
34.7389
32.75403
31.2727
30.18612
29.41069
28.88105
28.56307
28.41903
28.31528
28.44792
28.85552
29.53103
30.36572
31.23104
32.00984
32.51007
32.54098
32.0156
31.20894
30.1249
28.847
27.43791
25.96005
24.47334
23.04048
21.72319
20.54591
19.47942
18.49403
17.58158
16.73423
15.94531
15.20932
14.52132
13.87755
13.2755
12.71343
12.19006
11.70438
11.25565
10.84328
10.46675
10.12549
9.818787
9.545637
9.304724
9.09437
8.912546
8.756912
8.62489
8.513753
8.420724
8.343075
8.27823
8.223875
8.177935
8.13858
8.104237
8.073585
8.045543
8.01925
7.994041
7.969428
7.945067
7.920732
7.896278
7.87161
7.846669
7.821413
7.795813
7.769849
7.743512
7.71681
7.68977
7.662446
7.634911
7.607255
7.579581
7.551994
7.524594
7.497474
7.470712
7.444371
7.418496
7.393119
7.368252
7.343894
7.320031
7.296641
7.273695
7.251166
7.229041
7.207315
7.185989