/*--------------------------------*- C++ -*----------------------------------*\
| =========                 |                                                 |
| \\      /  F ield         | foam-extend: Open Source CFD                    |
|  \\    /   O peration     | Version:     3.1                                |
|   \\  /    A nd           | Web:         http://www.extend-project.de       |
|    \\/     M anipulation  |                                                 |
\*---------------------------------------------------------------------------*/
FoamFile
{
    version     2.0;
    format      ascii;
    class       volScalarField;
    location    "1";
    object      pd;
}
// * * * * * * * * * * * * * * * * * * * * * * * * * * * * * * * * * * * * * //

dimensions      [1 -1 -2 0 0 0 0];

internalField   nonuniform List<scalar> 
119952
(
7682.382
7573.094
7549.487
7568.033
7592.996
7581.75
7581.827
7582.712
7584.489
7586.744
7589.299
7592.051
7594.929
7597.879
7600.848
7603.766
7606.511
7608.768
7609.326
7602.078
7642.378
7620.023
7613.25
7662.636
7655.736
7663.444
7668.598
7684.782
7740.477
7869.242
7385.354
7384.031
7386.065
7388.083
7390.565
7393.135
7395.924
7398.885
7402.005
7404.394
7406.561
7410.872
7414.671
7418.308
7422.147
7426.163
7430.323
7434.611
7439.065
7446.307
7449.595
7453.724
7458.214
7462.987
7467.871
7472.842
7477.904
7483.139
7488.887
7493.286
7498.696
7504.133
7509.614
7515.174
7520.757
7526.341
7532.276
7542.055
7562.702
7553.836
7557.419
7567.283
7574.92
7577.337
7579.006
7581.14
7583.478
7586.04
7588.796
7591.683
7594.658
7597.689
7600.729
7603.718
7606.577
7609.202
7611.555
7613.872
7619.137
7623.367
7625.172
7636.812
7651.936
7657.246
7664.36
7671.375
7671.564
7646.545
7645.625
7651.149
7655.858
7660.343
7664.419
7668.224
7671.828
7675.275
7678.597
7681.815
7684.945
7687.999
7690.985
7693.908
7696.774
7699.585
7702.345
7705.056
7707.721
7710.343
7712.927
7715.464
7717.964
7720.427
7722.852
7725.24
7727.592
7729.91
7732.194
7734.443
7736.659
7738.842
7740.991
7743.108
7745.193
7747.244
7749.262
7751.247
7753.2
7755.121
7757.009
7758.865
7760.687
7762.474
7764.222
7765.922
7767.557
7769.113
7770.857
7772.619
7774.372
7776.082
7777.695
7779.295
7780.85
7782.374
7783.869
7785.335
7786.773
7788.181
7789.566
7790.93
7792.266
7793.567
7794.842
7796.092
7797.316
7798.514
7799.686
7800.832
7801.952
7803.046
7804.114
7805.156
7806.172
7807.161
7808.124
7809.061
7809.972
7810.856
7811.713
7812.544
7813.347
7814.121
7814.868
7815.581
7816.256
7816.942
7817.595
7818.193
7818.775
7819.325
7819.841
7820.323
7820.766
7821.16
7821.466
7821.688
7822.21
7824.006
7823.169
7823.667
7824.095
7824.45
7824.754
7825.017
7825.245
7825.431
7825.582
7825.702
7825.821
7825.907
7825.963
7825.99
7825.988
7825.958
7825.899
7825.811
7825.693
7825.544
7825.362
7825.145
7824.891
7824.597
7824.258
7823.867
7823.416
7822.896
7822.284
7821.55
7820.636
7819.455
7817.807
7814.857
7810.305
7813.633
7815.59
7816.988
7817.979
7818.755
7819.384
7819.903
7820.335
7820.696
7820.999
7821.253
7821.465
7821.642
7821.788
7821.908
7822.004
7822.08
7822.137
7822.178
7822.203
7822.215
7822.215
7822.204
7822.183
7822.154
7822.116
7822.072
7822.021
7821.967
7821.911
7821.856
7821.744
7821.683
7821.592
7827.532
7823.649
7821.579
7821.23
7820.818
7820.574
7820.332
7820.129
7819.954
7819.76
7819.58
7819.399
7819.218
7819.021
7818.8
7818.594
7818.384
7818.17
7817.952
7817.729
7817.502
7817.27
7817.035
7816.797
7816.554
7816.307
7816.057
7815.803
7815.546
7815.286
7815.023
7814.758
7814.492
7814.225
7813.957
7813.69
7813.424
7813.163
7812.908
7812.664
7812.437
7812.237
7812.09
7812.016
7812.053
7812.069
7811.356
7810.585
7809.927
7809.307
7808.725
7808.165
7807.641
7807.1
7804.89
7805.15
7804.873
7804.285
7803.701
7803.116
7802.522
7801.936
7801.347
7800.754
7800.16
7799.562
7798.959
7798.351
7797.738
7797.12
7796.496
7795.866
7795.231
7794.59
7793.942
7793.289
7792.629
7791.963
7791.291
7790.613
7789.929
7789.238
7788.541
7787.838
7787.128
7786.412
7785.69
7784.962
7784.228
7783.487
7782.74
7781.987
7781.228
7780.463
7779.692
7778.914
7778.131
7777.341
7776.545
7775.742
7774.933
7774.118
7773.296
7772.468
7771.632
7770.79
7769.94
7769.082
7768.216
7767.342
7766.46
7765.568
7764.666
7763.754
7762.831
7761.895
7760.946
7759.981
7759
7758
7756.979
7755.933
7754.858
7753.75
7752.603
7751.408
7750.156
7748.833
7747.421
7745.892
7744.21
7742.316
7740.118
7737.433
7733.942
7729.191
7723.389
7723.038
7749.86
7485.718
7479.494
7472.813
7465.956
7459.797
7453.664
7447.813
7442.246
7436.659
7428.994
7424.848
7420.124
7415.587
7411.216
7407.029
7403.164
7399.524
7396.034
7394.928
7391.857
7388.028
7385.493
7383.267
7381.472
7379.96
7378.684
7377.621
7377.152
7376.543
7375.825
7375.913
7376.11
7376.57
7377.256
7378.185
7379.35
7380.873
7382.838
7383.468
7385.544
7387.863
7390.298
7392.865
7395.584
7398.482
7401.587
7404.87
7408.091
7411.569
7415.147
7418.838
7422.707
7426.724
7430.882
7435.195
7439.776
7444.737
7449.389
7454.14
7458.888
7463.71
7468.634
7473.656
7478.776
7483.982
7489.266
7494.582
7499.905
7505.304
7510.824
7516.482
7522.328
7528.515
7535.285
7542.87
7550.576
7554.789
7558.786
7564.438
7569.867
7573.813
7576.768
7579.545
7582.403
7585.35
7588.372
7591.458
7594.602
7597.783
7600.959
7604.113
7607.238
7610.378
7613.635
7617.273
7621.626
7626.527
7631.772
7638.986
7647.26
7653.27
7657.483
7659.763
7658.802
7654.553
7653.118
7655.422
7658.935
7662.532
7666.046
7669.499
7672.877
7676.17
7679.382
7682.519
7685.589
7688.597
7691.547
7694.442
7697.286
7700.078
7702.823
7705.521
7708.174
7710.783
7713.351
7715.879
7718.367
7720.817
7723.23
7725.606
7727.946
7730.251
7732.523
7734.761
7736.967
7739.14
7741.282
7743.391
7745.469
7747.514
7749.526
7751.506
7753.452
7755.367
7757.249
7759.099
7760.916
7762.7
7764.45
7766.168
7767.859
7769.548
7771.265
7772.995
7774.634
7776.26
7777.874
7779.461
7781.016
7782.54
7784.034
7785.499
7786.935
7788.343
7789.722
7791.075
7792.404
7793.708
7794.984
7796.233
7797.456
7798.653
7799.823
7800.967
7802.085
7803.177
7804.243
7805.283
7806.297
7807.284
7808.245
7809.18
7810.089
7810.971
7811.827
7812.656
7813.458
7814.234
7814.982
7815.704
7816.395
7817.064
7817.7
7818.308
7818.889
7819.44
7819.96
7820.448
7820.903
7821.322
7821.72
7822.098
7822.579
7823.055
7823.266
7823.611
7823.954
7824.264
7824.542
7824.79
7825.008
7825.196
7825.358
7825.492
7825.599
7825.677
7825.728
7825.75
7825.744
7825.709
7825.646
7825.553
7825.429
7825.274
7825.085
7824.861
7824.599
7824.296
7823.947
7823.547
7823.087
7822.555
7821.935
7821.201
7820.315
7819.222
7817.862
7816.311
7815.188
7815.786
7816.901
7817.844
7818.636
7819.289
7819.831
7820.284
7820.664
7820.984
7821.254
7821.48
7821.67
7821.827
7821.957
7822.062
7822.145
7822.21
7822.257
7822.289
7822.306
7822.311
7822.305
7822.288
7822.262
7822.228
7822.186
7822.138
7822.084
7822.027
7821.967
7821.907
7821.854
7821.831
7821.927
7822.054
7822.018
7821.408
7820.909
7820.652
7820.463
7820.273
7820.076
7819.885
7819.697
7819.508
7819.313
7819.112
7818.921
7818.724
7818.516
7818.304
7818.09
7817.872
7817.65
7817.424
7817.194
7816.961
7816.724
7816.482
7816.237
7815.987
7815.735
7815.479
7815.22
7814.959
7814.695
7814.43
7814.164
7813.897
7813.63
7813.366
7813.104
7812.848
7812.601
7812.365
7812.146
7811.945
7811.754
7811.539
7811.226
7810.737
7810.158
7809.581
7809.021
7808.479
7807.956
7807.464
7806.973
7806.273
7805.516
7804.864
7804.244
7803.632
7803.031
7802.438
7801.847
7801.256
7800.662
7800.064
7799.461
7798.853
7798.239
7797.621
7796.997
7796.367
7795.732
7795.091
7794.445
7793.792
7793.134
7792.47
7791.8
7791.123
7790.441
7789.752
7789.057
7788.356
7787.649
7786.936
7786.216
7785.49
7784.758
7784.019
7783.274
7782.523
7781.766
7781.002
7780.232
7779.456
7778.673
7777.884
7777.089
7776.288
7775.48
7774.666
7773.845
7773.018
7772.185
7771.345
7770.497
7769.643
7768.78
7767.91
7767.032
7766.145
7765.248
7764.342
7763.425
7762.497
7761.556
7760.602
7759.632
7758.645
7757.639
7756.611
7755.558
7754.476
7753.361
7752.206
7751.004
7749.747
7748.421
7747.012
7745.5
7743.86
7742.059
7740.065
7737.854
7735.52
7733.384
7732.556
7733.483
7737.347
7920.16
7900.128
7881.618
7863.885
7846.601
7829.922
7813.784
7798.207
7783.116
7768.35
7752.461
7740.003
7727.013
7714.518
7702.519
7690.967
7679.816
7668.942
7658.428
7650.067
7638.133
7627.783
7618.146
7608.609
7599.333
7590.347
7581.432
7572.881
7564.887
7555.376
7547.19
7539.105
7531.112
7523.255
7515.57
7508.03
7500.729
7493.941
7486.031
7478.775
7472.295
7465.855
7459.558
7453.423
7447.457
7441.711
7436.247
7430.922
7425.716
7420.833
7416.118
7411.665
7407.49
7403.585
7399.954
7396.656
7392.752
7389.78
7387.148
7384.854
7382.825
7381.052
7379.545
7378.31
7377.349
7376.645
7376.217
7375.93
7375.86
7376.055
7376.516
7377.23
7378.188
7379.385
7380.81
7382.431
7384.13
7386.023
7388.18
7390.555
7393.122
7395.869
7398.794
7401.889
7405.14
7408.501
7411.968
7415.584
7419.35
7423.26
7427.307
7431.481
7435.766
7440.169
7444.573
7449.112
7453.744
7458.472
7463.309
7468.25
7473.281
7478.394
7483.585
7488.85
7494.151
7499.501
7504.946
7510.505
7516.193
7522.051
7528.133
7534.47
7540.989
7547.395
7552.412
7556.954
7561.983
7566.892
7570.987
7574.43
7577.674
7580.904
7584.145
7587.401
7590.68
7593.981
7597.296
7600.618
7603.951
7607.316
7610.758
7614.36
7618.256
7622.631
7627.446
7632.499
7638.389
7644.629
7649.524
7653.023
7655.172
7655.714
7654.703
7654.927
7657.121
7660.194
7663.42
7666.661
7669.911
7673.144
7676.334
7679.471
7682.554
7685.585
7688.563
7691.491
7694.369
7697.2
7699.983
7702.72
7705.412
7708.061
7710.667
7713.231
7715.756
7718.241
7720.688
7723.097
7725.47
7727.808
7730.111
7732.38
7734.615
7736.819
7738.99
7741.13
7743.238
7745.314
7747.358
7749.37
7751.35
7753.298
7755.214
7757.098
7758.951
7760.773
7762.565
7764.327
7766.063
7767.778
7769.48
7771.18
7772.876
7774.532
7776.16
7777.765
7779.342
7780.888
7782.406
7783.894
7785.356
7786.789
7788.196
7789.575
7790.929
7792.258
7793.56
7794.835
7796.084
7797.307
7798.503
7799.674
7800.819
7801.937
7803.029
7804.096
7805.136
7806.15
7807.137
7808.098
7809.033
7809.942
7810.825
7811.68
7812.509
7813.312
7814.088
7814.836
7815.558
7816.252
7816.92
7817.559
7818.17
7818.753
7819.307
7819.833
7820.329
7820.796
7821.236
7821.657
7822.058
7822.466
7822.886
7823.297
7823.65
7823.968
7824.261
7824.525
7824.76
7824.967
7825.145
7825.297
7825.422
7825.52
7825.59
7825.633
7825.648
7825.635
7825.594
7825.523
7825.423
7825.293
7825.131
7824.936
7824.706
7824.439
7824.131
7823.78
7823.379
7822.924
7822.407
7821.819
7821.151
7820.398
7819.572
7818.728
7818.007
7817.633
7817.816
7818.334
7818.913
7819.448
7819.923
7820.339
7820.7
7821.011
7821.277
7821.504
7821.696
7821.858
7821.992
7822.102
7822.191
7822.26
7822.311
7822.348
7822.37
7822.379
7822.376
7822.363
7822.34
7822.308
7822.268
7822.221
7822.167
7822.109
7822.046
7821.98
7821.912
7821.846
7821.775
7821.722
7821.574
7821.165
7820.839
7820.674
7820.553
7820.418
7820.261
7820.092
7819.918
7819.74
7819.557
7819.369
7819.176
7818.982
7818.783
7818.578
7818.369
7818.155
7817.937
7817.715
7817.489
7817.258
7817.023
7816.785
7816.542
7816.296
7816.046
7815.793
7815.537
7815.277
7815.015
7814.75
7814.484
7814.216
7813.947
7813.678
7813.409
7813.143
7812.879
7812.62
7812.366
7812.116
7811.866
7811.604
7811.31
7810.954
7810.501
7809.979
7809.443
7808.911
7808.385
7807.862
7807.341
7806.798
7806.235
7805.598
7804.938
7804.292
7803.665
7803.056
7802.458
7801.864
7801.272
7800.678
7800.081
7799.478
7798.871
7798.258
7797.639
7797.014
7796.384
7795.748
7795.107
7794.459
7793.805
7793.146
7792.48
7791.808
7791.131
7790.447
7789.757
7789.06
7788.358
7787.649
7786.934
7786.213
7785.486
7784.752
7784.011
7783.265
7782.512
7781.752
7780.987
7780.215
7779.436
7778.652
7777.861
7777.063
7776.259
7775.45
7774.633
7773.811
7772.982
7772.146
7771.304
7770.455
7769.599
7768.735
7767.864
7766.984
7766.096
7765.199
7764.293
7763.376
7762.447
7761.507
7760.553
7759.585
7758.6
7757.597
7756.573
7755.525
7754.451
7753.345
7752.204
7751.02
7749.787
7748.497
7747.14
7745.705
7744.183
7742.569
7740.873
7739.143
7737.509
7736.186
7735.569
7735.972
7737.217
7890.484
7923.27
7942.079
7954.849
7959.931
7958.627
7957.146
7954.018
7952.303
7949.621
7936.211
7919.562
7901.513
7883.631
7867.173
7850.771
7834.768
7819.183
7804.099
7789.544
7775.558
7762.147
7749.001
7736.328
7724.032
7712.124
7700.631
7689.498
7678.694
7668.222
7658.078
7645.174
7635.383
7625.732
7616.292
7607.059
7597.989
7589.067
7580.297
7571.69
7563.235
7554.882
7546.562
7538.373
7530.369
7522.527
7514.845
7507.326
7499.972
7492.774
7485.653
7478.6
7471.77
7465.183
7458.799
7452.612
7446.632
7440.866
7435.325
7430.002
7424.846
7419.91
7415.23
7410.807
7406.647
7402.752
7399.121
7395.807
7392.823
7389.911
7387.182
7384.788
7382.704
7380.895
7379.353
7378.076
7377.063
7376.308
7375.795
7375.483
7375.417
7375.61
7376.057
7376.751
7377.683
7378.844
7380.225
7381.805
7383.531
7385.454
7387.614
7389.987
7392.549
7395.292
7398.208
7401.291
7404.527
7407.894
7411.393
7415.034
7418.816
7422.736
7426.786
7430.96
7435.243
7439.634
7444.101
7448.645
7453.295
7458.052
7462.908
7467.852
7472.878
7477.979
7483.154
7488.396
7493.693
7499.057
7504.502
7510.04
7515.681
7521.439
7527.319
7533.309
7539.324
7545.169
7550.362
7555.199
7560.053
7564.736
7568.954
7572.757
7576.353
7579.864
7583.335
7586.784
7590.227
7593.673
7597.124
7600.588
7604.075
7607.606
7611.221
7614.978
7618.955
7623.238
7627.807
7632.559
7637.618
7642.65
7646.985
7650.398
7652.864
7654.365
7655.135
7656.377
7658.563
7661.328
7664.307
7667.372
7670.484
7673.609
7676.718
7679.795
7682.833
7685.828
7688.779
7691.685
7694.546
7697.362
7700.134
7702.861
7705.545
7708.187
7710.787
7713.347
7715.868
7718.35
7720.794
7723.201
7725.572
7727.908
7730.209
7732.476
7734.71
7736.911
7739.081
7741.218
7743.323
7745.397
7747.439
7749.449
7751.428
7753.376
7755.292
7757.178
7759.033
7760.859
7762.655
7764.425
7766.169
7767.892
7769.597
7771.292
7772.972
7774.623
7776.246
7777.843
7779.414
7780.957
7782.471
7783.959
7785.418
7786.851
7788.257
7789.637
7790.99
7792.317
7793.618
7794.893
7796.141
7797.364
7798.56
7799.73
7800.875
7801.993
7803.085
7804.151
7805.191
7806.204
7807.192
7808.153
7809.088
7809.996
7810.877
7811.732
7812.56
7813.362
7814.137
7814.886
7815.607
7816.302
7816.969
7817.608
7818.22
7818.804
7819.361
7819.89
7820.391
7820.866
7821.316
7821.745
7822.157
7822.56
7822.962
7823.333
7823.673
7823.986
7824.274
7824.534
7824.765
7824.968
7825.144
7825.293
7825.416
7825.512
7825.581
7825.622
7825.636
7825.623
7825.582
7825.512
7825.413
7825.285
7825.126
7824.934
7824.709
7824.449
7824.152
7823.814
7823.433
7823.006
7822.529
7822.001
7821.423
7820.803
7820.168
7819.567
7819.087
7818.861
7818.944
7819.251
7819.636
7820.02
7820.379
7820.708
7821.003
7821.264
7821.491
7821.687
7821.855
7821.996
7822.115
7822.212
7822.289
7822.349
7822.392
7822.422
7822.437
7822.441
7822.434
7822.416
7822.389
7822.353
7822.31
7822.259
7822.202
7822.139
7822.07
7821.997
7821.918
7821.834
7821.736
7821.616
7821.441
7821.188
7820.971
7820.799
7820.639
7820.477
7820.308
7820.134
7819.957
7819.777
7819.592
7819.404
7819.212
7819.015
7818.815
7818.611
7818.401
7818.187
7817.969
7817.747
7817.52
7817.288
7817.052
7816.812
7816.569
7816.322
7816.072
7815.818
7815.56
7815.3
7815.036
7814.77
7814.502
7814.231
7813.959
7813.686
7813.412
7813.139
7812.865
7812.592
7812.319
7812.043
7811.759
7811.459
7811.13
7810.755
7810.319
7809.836
7809.332
7808.821
7808.305
7807.785
7807.259
7806.724
7806.169
7805.56
7804.926
7804.3
7803.687
7803.085
7802.489
7801.895
7801.302
7800.707
7800.108
7799.505
7798.897
7798.284
7797.665
7797.041
7796.411
7795.775
7795.134
7794.486
7793.832
7793.173
7792.507
7791.836
7791.158
7790.474
7789.784
7789.087
7788.385
7787.676
7786.961
7786.239
7785.512
7784.777
7784.037
7783.29
7782.537
7781.777
7781.012
7780.239
7779.461
7778.676
7777.885
7777.087
7776.284
7775.474
7774.658
7773.835
7773.006
7772.171
7771.329
7770.481
7769.625
7768.762
7767.892
7767.014
7766.127
7765.232
7764.328
7763.414
7762.489
7761.553
7760.605
7759.642
7758.665
7757.671
7756.658
7755.624
7754.566
7753.482
7752.367
7751.217
7750.028
7748.795
7747.514
7746.182
7744.8
7743.378
7741.941
7740.541
7739.269
7738.254
7737.672
7737.651
7737.962
6697.649
6802.209
6929.064
7064.237
7205.62
7346.675
7471.033
7576.137
7668.484
7740.493
7798.339
7840.013
7873.019
7897.666
7914.983
7925.339
7924.037
7928.248
7928.01
7924.357
7917.877
7907.385
7894.186
7879.832
7865.118
7850.383
7835.733
7821.295
7807.157
7793.379
7779.994
7767.015
7754.429
7742.187
7730.25
7718.646
7707.373
7696.408
7685.726
7675.301
7665.104
7655.134
7645.342
7635.669
7626.118
7616.788
7607.649
7598.658
7589.802
7581.079
7572.488
7564.02
7555.632
7547.33
7539.167
7531.155
7523.288
7515.566
7507.991
7500.562
7493.281
7486.106
7479.044
7472.188
7465.547
7459.1
7452.849
7446.8
7440.962
7435.34
7429.932
7424.731
7419.758
7415.03
7410.555
7406.341
7402.392
7398.712
7395.312
7392.178
7389.207
7386.484
7384.075
7381.965
7380.13
7378.562
7377.259
7376.222
7375.441
7374.906
7374.61
7374.562
7374.764
7375.215
7375.907
7376.836
7377.992
7379.365
7380.94
7382.701
7384.664
7386.842
7389.223
7391.793
7394.544
7397.468
7400.557
7403.8
7407.187
7410.714
7414.379
7418.181
7422.117
7426.18
7430.364
7434.658
7439.057
7443.544
7448.12
7452.796
7457.57
7462.432
7467.377
7472.401
7477.498
7482.665
7487.898
7493.19
7498.546
7503.968
7509.464
7515.034
7520.678
7526.387
7532.132
7537.847
7543.418
7548.641
7553.578
7558.382
7563.009
7567.341
7571.38
7575.223
7578.953
7582.615
7586.233
7589.827
7593.41
7596.991
7600.581
7604.193
7607.847
7611.572
7615.407
7619.393
7623.568
7627.922
7632.385
7636.894
7641.304
7645.327
7648.736
7651.478
7653.632
7655.376
7657.239
7659.536
7662.207
7665.076
7668.044
7671.069
7674.117
7677.162
7680.189
7683.186
7686.149
7689.074
7691.959
7694.802
7697.605
7700.367
7703.081
7705.757
7708.391
7710.986
7713.541
7716.057
7718.535
7720.976
7723.38
7725.748
7728.081
7730.38
7732.644
7734.876
7737.075
7739.242
7741.377
7743.48
7745.551
7747.591
7749.6
7751.578
7753.525
7755.441
7757.328
7759.185
7761.013
7762.813
7764.587
7766.335
7768.061
7769.768
7771.456
7773.126
7774.771
7776.389
7777.982
7779.548
7781.088
7782.601
7784.087
7785.546
7786.978
7788.383
7789.762
7791.115
7792.441
7793.742
7795.016
7796.264
7797.487
7798.683
7799.853
7800.997
7802.115
7803.207
7804.273
7805.313
7806.326
7807.314
7808.275
7809.209
7810.117
7810.999
7811.853
7812.682
7813.484
7814.259
7815.007
7815.729
7816.423
7817.091
7817.731
7818.344
7818.93
7819.489
7820.02
7820.526
7821.006
7821.461
7821.896
7822.311
7822.71
7823.092
7823.451
7823.786
7824.096
7824.381
7824.637
7824.867
7825.069
7825.244
7825.393
7825.515
7825.611
7825.68
7825.722
7825.737
7825.725
7825.686
7825.619
7825.524
7825.399
7825.246
7825.062
7824.846
7824.598
7824.316
7823.998
7823.644
7823.253
7822.825
7822.361
7821.869
7821.362
7820.862
7820.41
7820.058
7819.869
7819.875
7820.035
7820.276
7820.542
7820.808
7821.063
7821.3
7821.514
7821.704
7821.871
7822.014
7822.136
7822.238
7822.321
7822.387
7822.437
7822.472
7822.494
7822.504
7822.502
7822.489
7822.467
7822.436
7822.396
7822.348
7822.294
7822.232
7822.164
7822.09
7822.009
7821.921
7821.824
7821.714
7821.586
7821.434
7821.246
7821.054
7820.871
7820.695
7820.523
7820.349
7820.173
7819.993
7819.811
7819.625
7819.435
7819.242
7819.044
7818.843
7818.637
7818.427
7818.213
7817.994
7817.771
7817.543
7817.311
7817.075
7816.835
7816.591
7816.343
7816.092
7815.837
7815.578
7815.317
7815.051
7814.783
7814.512
7814.239
7813.963
7813.685
7813.406
7813.124
7812.841
7812.555
7812.265
7811.969
7811.662
7811.338
7810.989
7810.605
7810.18
7809.72
7809.237
7808.741
7808.235
7807.72
7807.196
7806.659
7806.102
7805.515
7804.913
7804.31
7803.712
7803.117
7802.525
7801.932
7801.339
7800.743
7800.144
7799.541
7798.933
7798.319
7797.701
7797.077
7796.447
7795.812
7795.171
7794.523
7793.87
7793.211
7792.546
7791.874
7791.196
7790.513
7789.823
7789.126
7788.424
7787.715
7787
7786.278
7785.551
7784.817
7784.076
7783.33
7782.576
7781.817
7781.051
7780.279
7779.501
7778.717
7777.926
7777.129
7776.326
7775.516
7774.7
7773.879
7773.05
7772.216
7771.375
7770.527
7769.673
7768.811
7767.942
7767.066
7766.182
7765.29
7764.389
7763.48
7762.56
7761.63
7760.688
7759.734
7758.767
7757.785
7756.786
7755.77
7754.733
7753.675
7752.592
7751.482
7750.343
7749.174
7747.974
7746.746
7745.496
7744.238
7743
7741.822
7740.768
7739.914
7739.341
7739.09
7739.023
6673.705
6627.046
6589.897
6555.827
6533.508
6516.953
6514.529
6525.925
6553.886
6602.32
6671.517
6763.055
6875.443
7003.297
7138.896
7303.793
7436.446
7550.591
7645.766
7720.687
7778.077
7821.216
7853.516
7878.311
7895.746
7905.31
7907.16
7909.931
7909.98
7906.723
7900.718
7891.802
7880.592
7868.08
7854.94
7841.56
7828.113
7814.726
7801.502
7788.516
7775.811
7763.412
7751.32
7739.519
7727.997
7716.759
7705.797
7695.098
7684.643
7674.411
7664.38
7654.537
7644.836
7635.231
7625.781
7616.515
7607.407
7598.435
7589.587
7580.862
7572.254
7563.757
7555.36
7547.074
7538.914
7530.885
7522.992
7515.235
7507.619
7500.143
7492.808
7485.602
7478.544
7471.669
7464.988
7458.498
7452.202
7446.109
7440.226
7434.557
7429.107
7423.877
7418.879
7414.123
7409.619
7405.373
7401.391
7397.673
7394.217
7391.017
7388.055
7385.358
7382.949
7380.824
7378.975
7377.397
7376.087
7375.044
7374.261
7373.732
7373.452
7373.42
7373.636
7374.098
7374.802
7375.74
7376.906
7378.29
7379.884
7381.678
7383.674
7385.874
7388.273
7390.86
7393.628
7396.569
7399.675
7402.938
7406.35
7409.903
7413.595
7417.422
7421.38
7425.463
7429.665
7433.977
7438.393
7442.903
7447.506
7452.203
7456.99
7461.862
7466.815
7471.843
7476.942
7482.107
7487.334
7492.619
7497.96
7503.357
7508.809
7514.315
7519.865
7525.443
7531.021
7536.546
7541.951
7547.136
7552.1
7556.9
7561.531
7565.947
7570.142
7574.166
7578.073
7581.9
7585.671
7589.405
7593.116
7596.817
7600.519
7604.236
7607.985
7611.786
7615.663
7619.639
7623.725
7627.906
7632.134
7636.341
7640.429
7644.236
7647.624
7650.563
7653.113
7655.403
7657.699
7660.171
7662.869
7665.712
7668.638
7671.611
7674.607
7677.606
7680.592
7683.556
7686.491
7689.392
7692.256
7695.082
7697.869
7700.612
7703.323
7705.991
7708.618
7711.206
7713.755
7716.266
7718.74
7721.176
7723.576
7725.941
7728.271
7730.566
7732.828
7735.057
7737.253
7739.417
7741.549
7743.649
7745.718
7747.756
7749.764
7751.74
7753.686
7755.603
7757.489
7759.347
7761.177
7762.979
7764.755
7766.507
7768.234
7769.94
7771.625
7773.289
7774.929
7776.543
7778.132
7779.696
7781.233
7782.743
7784.227
7785.684
7787.115
7788.519
7789.898
7791.25
7792.576
7793.876
7795.15
7796.398
7797.62
7798.816
7799.986
7801.13
7802.248
7803.34
7804.405
7805.445
7806.459
7807.446
7808.407
7809.342
7810.25
7811.131
7811.987
7812.815
7813.617
7814.393
7815.142
7815.864
7816.559
7817.227
7817.868
7818.483
7819.07
7819.631
7820.166
7820.674
7821.158
7821.618
7822.055
7822.472
7822.869
7823.245
7823.601
7823.932
7824.239
7824.52
7824.774
7825.002
7825.203
7825.378
7825.526
7825.648
7825.744
7825.814
7825.857
7825.874
7825.864
7825.827
7825.763
7825.672
7825.554
7825.407
7825.231
7825.027
7824.792
7824.527
7824.232
7823.907
7823.551
7823.169
7822.763
7822.342
7821.919
7821.514
7821.153
7820.871
7820.701
7820.659
7820.73
7820.871
7821.049
7821.24
7821.431
7821.614
7821.785
7821.938
7822.075
7822.193
7822.295
7822.379
7822.447
7822.5
7822.539
7822.565
7822.579
7822.581
7822.573
7822.554
7822.527
7822.49
7822.446
7822.394
7822.334
7822.268
7822.195
7822.115
7822.028
7821.933
7821.828
7821.712
7821.582
7821.433
7821.262
7821.084
7820.907
7820.734
7820.561
7820.388
7820.211
7820.031
7819.848
7819.662
7819.471
7819.277
7819.079
7818.877
7818.671
7818.46
7818.245
7818.026
7817.802
7817.574
7817.342
7817.105
7816.865
7816.62
7816.372
7816.119
7815.863
7815.603
7815.34
7815.073
7814.803
7814.529
7814.252
7813.972
7813.69
7813.404
7813.115
7812.822
7812.525
7812.221
7811.909
7811.585
7811.245
7810.882
7810.493
7810.073
7809.625
7809.156
7808.671
7808.173
7807.664
7807.144
7806.609
7806.059
7805.49
7804.909
7804.323
7803.735
7803.147
7802.559
7801.969
7801.377
7800.782
7800.183
7799.581
7798.973
7798.36
7797.742
7797.119
7796.489
7795.854
7795.213
7794.566
7793.913
7793.254
7792.589
7791.918
7791.24
7790.556
7789.866
7789.17
7788.468
7787.759
7787.044
7786.322
7785.594
7784.86
7784.12
7783.373
7782.62
7781.861
7781.095
7780.323
7779.545
7778.76
7777.97
7777.173
7776.37
7775.561
7774.745
7773.924
7773.096
7772.262
7771.422
7770.575
7769.722
7768.862
7767.995
7767.121
7766.24
7765.351
7764.454
7763.549
7762.635
7761.711
7760.777
7759.833
7758.876
7757.907
7756.925
7755.927
7754.914
7753.883
7752.834
7751.766
7750.679
7749.572
7748.449
7747.315
7746.179
7745.056
7743.97
7742.952
7742.047
7741.301
7740.752
7740.422
7740.21
6960.763
6917.307
6853.391
6787.012
6725.215
6672.661
6626.744
6588.198
6556.876
6531.347
6510.015
6501.169
6505.029
6525.088
6565.688
6628.394
6719.171
6835.443
6970.591
7115.559
7257.229
7396.639
7518.853
7620.635
7700.725
7760.983
7804.99
7836.789
7860.252
7877.637
7888.754
7894.157
7897.185
7897.212
7894.184
7888.551
7880.54
7870.612
7859.406
7847.456
7835.104
7822.552
7809.947
7797.399
7784.991
7772.775
7760.784
7749.034
7737.527
7726.263
7715.24
7704.457
7693.905
7683.57
7673.435
7663.482
7653.692
7644.037
7634.511
7625.131
7615.902
7606.812
7597.85
7589.007
7580.279
7571.664
7563.159
7554.761
7546.474
7538.303
7530.256
7522.338
7514.551
7506.899
7499.385
7492.012
7484.782
7477.705
7470.8
7464.079
7457.548
7451.212
7445.078
7439.153
7433.444
7427.956
7422.695
7417.669
7412.886
7408.355
7404.082
7400.071
7396.323
7392.84
7389.622
7386.663
7383.971
7381.558
7379.425
7377.568
7375.985
7374.673
7373.629
7372.849
7372.326
7372.058
7372.041
7372.273
7372.751
7373.47
7374.425
7375.608
7377.012
7378.629
7380.453
7382.479
7384.708
7387.132
7389.744
7392.538
7395.504
7398.635
7401.925
7405.365
7408.949
7412.672
7416.529
7420.516
7424.625
7428.852
7433.189
7437.629
7442.166
7446.796
7451.515
7456.322
7461.21
7466.176
7471.214
7476.319
7481.486
7486.71
7491.988
7497.315
7502.688
7508.103
7513.554
7519.028
7524.509
7529.97
7535.372
7540.67
7545.812
7550.78
7555.593
7560.251
7564.736
7569.048
7573.212
7577.264
7581.232
7585.137
7588.996
7592.824
7596.632
7600.432
7604.238
7608.061
7611.918
7615.821
7619.781
7623.799
7627.86
7631.923
7635.939
7639.833
7643.512
7646.899
7649.975
7652.78
7655.398
7657.961
7660.631
7663.404
7666.261
7669.175
7672.123
7675.089
7678.056
7681.013
7683.95
7686.861
7689.741
7692.588
7695.398
7698.171
7700.906
7703.603
7706.261
7708.881
7711.462
7714.004
7716.509
7718.978
7721.409
7723.805
7726.165
7728.491
7730.783
7733.041
7735.267
7737.459
7739.62
7741.749
7743.847
7745.913
7747.949
7749.954
7751.929
7753.874
7755.789
7757.676
7759.534
7761.365
7763.168
7764.945
7766.697
7768.426
7770.131
7771.813
7773.473
7775.109
7776.72
7778.305
7779.866
7781.4
7782.908
7784.39
7785.846
7787.275
7788.679
7790.056
7791.407
7792.733
7794.032
7795.306
7796.554
7797.775
7798.971
7800.141
7801.285
7802.403
7803.495
7804.561
7805.6
7806.614
7807.601
7808.562
7809.497
7810.405
7811.287
7812.143
7812.972
7813.774
7814.55
7815.299
7816.022
7816.717
7817.386
7818.029
7818.644
7819.233
7819.796
7820.333
7820.844
7821.331
7821.793
7822.232
7822.649
7823.045
7823.419
7823.771
7824.099
7824.402
7824.68
7824.932
7825.158
7825.358
7825.532
7825.68
7825.801
7825.898
7825.968
7826.012
7826.03
7826.022
7825.988
7825.928
7825.842
7825.729
7825.589
7825.423
7825.229
7825.009
7824.762
7824.489
7824.19
7823.868
7823.526
7823.169
7822.805
7822.446
7822.107
7821.808
7821.57
7821.413
7821.346
7821.36
7821.434
7821.544
7821.673
7821.81
7821.945
7822.074
7822.193
7822.299
7822.392
7822.472
7822.538
7822.59
7822.629
7822.657
7822.672
7822.676
7822.67
7822.655
7822.63
7822.596
7822.554
7822.504
7822.447
7822.383
7822.312
7822.234
7822.149
7822.056
7821.955
7821.846
7821.725
7821.593
7821.446
7821.285
7821.117
7820.947
7820.776
7820.604
7820.431
7820.254
7820.074
7819.89
7819.703
7819.512
7819.318
7819.119
7818.916
7818.709
7818.498
7818.282
7818.063
7817.838
7817.61
7817.377
7817.14
7816.899
7816.654
7816.404
7816.151
7815.894
7815.632
7815.367
7815.098
7814.826
7814.549
7814.269
7813.985
7813.698
7813.406
7813.11
7812.809
7812.502
7812.187
7811.863
7811.526
7811.174
7810.803
7810.409
7809.991
7809.55
7809.09
7808.613
7808.123
7807.62
7807.105
7806.577
7806.034
7805.479
7804.911
7804.337
7803.758
7803.177
7802.593
7802.007
7801.417
7800.824
7800.227
7799.625
7799.018
7798.406
7797.789
7797.166
7796.537
7795.902
7795.261
7794.615
7793.962
7793.303
7792.638
7791.967
7791.29
7790.606
7789.916
7789.22
7788.517
7787.809
7787.093
7786.372
7785.644
7784.91
7784.169
7783.422
7782.669
7781.91
7781.144
7780.372
7779.594
7778.81
7778.019
7777.222
7776.42
7775.611
7774.796
7773.975
7773.148
7772.314
7771.475
7770.629
7769.777
7768.919
7768.054
7767.183
7766.304
7765.419
7764.526
7763.626
7762.718
7761.801
7760.876
7759.941
7758.997
7758.042
7757.077
7756.1
7755.11
7754.109
7753.094
7752.068
7751.03
7749.984
7748.932
7747.882
7746.844
7745.831
7744.863
7743.966
7743.168
7742.501
7741.982
7741.632
7741.368
6925.424
6883.626
6809.307
6753.887
6701.107
6653.735
6611.995
6575.814
6544.485
6517.028
6494.276
6478.297
6472.636
6481.631
6509.909
6564.405
6647.602
6760.233
6898.515
7053.477
7210.376
7358.593
7489.385
7597.81
7682.849
7746.561
7792.598
7825.143
7848.032
7864.259
7875.054
7880.99
7883.713
7883.586
7880.796
7875.683
7868.544
7859.75
7849.75
7838.949
7827.647
7816.045
7804.292
7792.499
7780.751
7769.105
7757.603
7746.27
7735.119
7724.16
7713.395
7702.827
7692.452
7682.263
7672.247
7662.392
7652.686
7643.114
7633.671
7624.358
7615.175
7606.117
7597.177
7588.349
7579.629
7571.016
7562.507
7554.103
7545.805
7537.618
7529.548
7521.6
7513.778
7506.087
7498.531
7491.116
7483.846
7476.732
7469.784
7463.017
7456.436
7450.05
7443.867
7437.893
7432.137
7426.604
7421.301
7416.237
7411.418
7406.853
7402.547
7398.504
7394.727
7391.219
7387.98
7385.01
7382.312
7379.892
7377.752