/*--------------------------------*- C++ -*----------------------------------*\
| =========                 |                                                 |
| \\      /  F ield         | foam-extend: Open Source CFD                    |
|  \\    /   O peration     | Version:     3.1                                |
|   \\  /    A nd           | Web:         http://www.extend-project.de       |
|    \\/     M anipulation  |                                                 |
\*---------------------------------------------------------------------------*/
FoamFile
{
    version     2.0;
    format      ascii;
    class       volScalarField;
    location    "16.5";
    object      nut;
}
// * * * * * * * * * * * * * * * * * * * * * * * * * * * * * * * * * * * * * //

dimensions      [0 2 -1 0 0 0 0];

internalField   nonuniform List<scalar> 
119952
(
5.489186e-05
3.725494e-05
3.863913e-05
4.304216e-05
4.601229e-05
4.381694e-05
4.238137e-05
4.132148e-05
4.049022e-05
3.974185e-05
3.90404e-05
3.836356e-05
3.768697e-05
3.700061e-05
3.629723e-05
3.557321e-05
3.482559e-05
3.405255e-05
3.32431e-05
3.233425e-05
4.064826e-05
3.860002e-05
3.763816e-05
4.848048e-05
4.69404e-05
4.582051e-05
4.511276e-05
4.487971e-05
4.477824e-05
3.217134e-05
3.317504e-05
3.627861e-05
4.109597e-05
4.59219e-05
5.094264e-05
5.621177e-05
6.175516e-05
6.745547e-05
7.325994e-05
8.335348e-05
0.0003785706
0.0004372176
0.0005028346
0.0005721434
0.0006428566
0.0007135616
0.0007836204
0.000852713
0.0009202025
0.001297966
0.001364249
0.001430018
0.001494836
0.001559293
0.001624111
0.001689395
0.001754905
0.001820392
0.001883842
0.001949875
0.002012319
0.002072508
0.002131856
0.002190915
0.002249859
0.002308811
0.002367658
0.002429799
0.00224864
0.002492136
0.002498376
0.002513959
0.002524971
0.002526079
0.002516272
0.002499686
0.002480498
0.002459527
0.002437572
0.002415149
0.002392632
0.002370096
0.002347391
0.002324451
0.002301418
0.00227894
0.002258826
0.002244427
0.002242257
0.002236305
0.002232926
0.002240016
0.002251825
0.00224492
0.002223155
0.002181695
0.00208645
0.001923123
0.00186305
0.001821358
0.001793961
0.001774469
0.001759154
0.001747019
0.001737167
0.00172885
0.001721564
0.001714932
0.001708665
0.001702543
0.00169641
0.001690179
0.001683836
0.001677447
0.001671138
0.001665065
0.001659384
0.001654206
0.001649572
0.00164542
0.001641581
0.001637776
0.00163364
0.001628759
0.001622685
0.001614959
0.001605165
0.001592976
0.001578162
0.001560644
0.001540536
0.001518129
0.00149384
0.001468141
0.001441469
0.001414138
0.001386284
0.001357876
0.001328787
0.001298904
0.001268249
0.001237077
0.00120594
0.001175674
0.001147301
0.001121921
0.001101677
0.001086364
0.001071479
0.001059887
0.001050964
0.001047494
0.001046984
0.001050466
0.001055465
0.001061685
0.001069069
0.001077173
0.001085639
0.001094215
0.001102637
0.001110671
0.001118165
0.001125071
0.001131392
0.001136966
0.001141772
0.00114585
0.00114934
0.001152392
0.001155307
0.001159099
0.001164456
0.001171247
0.001179295
0.001187957
0.001196234
0.001204179
0.001211846
0.001219229
0.001226305
0.001233038
0.001239378
0.00124526
0.001250601
0.001255311
0.001259277
0.001262385
0.001264501
0.001265517
0.001265328
0.001263888
0.001261142
0.001257105
0.001251741
0.001245068
0.001235987
0.001023147
0.0009836792
0.0009323783
0.0008772443
0.0008311551
0.0007908788
0.0007528841
0.0007158913
0.0006790601
0.0006431386
0.0006072122
0.0005702695
0.0005340551
0.0005006114
0.0004722973
0.0004508526
0.0004363884
0.000427101
0.0004127036
0.0004019691
0.0003956171
0.0003931918
0.0003938705
0.0003968332
0.0004012124
0.0004059122
0.0004095394
0.0004083422
0.0004032235
0.0003953916
0.0003837483
0.0003656467
0.0003356548
0.0002413613
0.0002129597
0.0002832491
0.0003617739
0.0004266372
0.000471194
0.0005006028
0.00051074
0.0005127083
0.0005126438
0.0005135203
0.0005172191
0.0005248006
0.0005358963
0.0005490096
0.000562536
0.0005761388
0.0005877785
0.0005951197
0.00059806
0.0005977654
0.0005954411
0.0005919971
0.0005880184
0.0005839543
0.0005801369
0.0005766556
0.0005734943
0.0005706378
0.0005680088
0.0005654272
0.0005627247
0.000559951
0.000557358
0.0005551374
0.0005533848
0.0005521317
0.0007090805
0.0007173572
0.0007259962
0.0007351513
0.0007446285
0.0007546489
0.0007656278
0.0007773319
0.0007894082
0.0008015186
0.0008135566
0.0008253747
0.0008368425
0.0008479013
0.000858564
0.0008689107
0.0008790641
0.0008891652
0.0008993659
0.0009098368
0.000920716
0.0009320522
0.0009438366
0.0009560056
0.0009684618
0.0009810961
0.0009937994
0.001006461
0.001018969
0.001031204
0.001043046
0.001054395
0.001065153
0.001075235
0.001084576
0.001093133
0.001100875
0.001107778
0.001113825
0.001119004
0.001123299
0.001126691
0.001129165
0.001130711
0.001131336
0.001130965
0.001129384
0.001127355
0.001125409
0.001124023
0.001123778
0.001125205
0.001128863
0.001136211
0.00114595
0.001157695
0.00117467
0.001196231
0.001221926
0.001251835
0.001286443
0.001326356
0.001371698
0.001422122
0.001476862
0.001534826
0.001594789
0.001655638
0.001716454
0.001776441
0.001834911
0.001892175
0.00194886
0.002005941
0.002064473
0.002123736
0.002182944
0.002241635
0.002299567
0.002356573
0.002412508
0.002467218
0.002520517
0.002572183
0.002621961
0.002669559
0.002714652
0.002756884
0.002795874
0.002831239
0.002862612
0.002889658
0.002912095
0.002929686
0.002942231
0.002949569
0.002951575
0.002948173
0.002939334
0.002925071
0.002905423
0.002880442
0.002850174
0.002814664
0.002773969
0.002728201
0.002677581
0.002622392
0.002562902
0.00249938
0.002432172
0.002361736
0.002288646
0.002213587
0.002137344
0.002060803
0.001984904
0.001910483
0.001838207
0.001768669
0.001702412
0.001639901
0.001581491
0.001527414
0.001477752
0.001432426
0.001391196
0.001353728
0.001319679
0.001288768
0.001260768
0.001235521
0.001212896
0.001192857
0.001175468
0.001161065
0.001150311
0.001145595
0.0009048789
5.377087e-05
5.792188e-05
6.801207e-05
7.96668e-05
9.107816e-05
0.0001018208
0.0001119189
0.0001214851
0.0001320567
0.0004535896
0.0006171888
0.0007885276
0.0009508889
0.001097622
0.001227167
0.001341401
0.001443299
0.001535937
0.00219597
0.00229919
0.002406181
0.002511482
0.002614174
0.002713378
0.002808772
0.002899972
0.002986774
0.003068163
0.003145271
0.003218206
0.003287785
0.003356437
0.003425372
0.003494675
0.003563764
0.003632068
0.00369878
0.003746222
0.003775833
0.003809102
0.00384668
0.003888655
0.003934323
0.003982772
0.004033011
0.004083977
0.004134705
0.004185747
0.004235246
0.00428425
0.004333452
0.004383118
0.004433472
0.004484424
0.004535531
0.004585375
0.00536601
0.005408604
0.005448676
0.00548789
0.00552664
0.005565084
0.00560315
0.005640421
0.005676606
0.005710935
0.005743092
0.005773925
0.005803709
0.005832615
0.005860982
0.005888699
0.005915564
0.005942164
0.005970608
0.005993322
0.006002569
0.006008684
0.00601538
0.006017237
0.006012072
0.006000865
0.005983735
0.005962285
0.005936971
0.005908542
0.005877757
0.005845233
0.005811288
0.005776009
0.005739366
0.005701586
0.005663331
0.005625989
0.005591504
0.005561653
0.005533545
0.00551134
0.005495474
0.005471661
0.005432024
0.005380487
0.005312465
0.005223853
0.005132309
0.005061308
0.004997906
0.004940302
0.004887885
0.004839343
0.004794247
0.004752221
0.004712936
0.004676162
0.004641713
0.004609405
0.004579032
0.004550374
0.004523218
0.004497418
0.004472916
0.004449751
0.00442804
0.004407939
0.004389609
0.00437315
0.004358549
0.004345615
0.004333924
0.004322888
0.004311779
0.004299684
0.004285656
0.004268812
0.00424827
0.004223228
0.004193136
0.004157752
0.004117121
0.0040715
0.004021256
0.003966731
0.003908149
0.00384557
0.003778938
0.003708144
0.003633174
0.00355417
0.003471576
0.003386112
0.00329892
0.003211403
0.003125206
0.003042134
0.002963619
0.002888665
0.002819953
0.002758805
0.002705799
0.002661575
0.002626295
0.002599835
0.00258178
0.002571482
0.002568146
0.002570919
0.002578931
0.002591368
0.002607507
0.002626717
0.002648465
0.002672291
0.002697828
0.002724763
0.00275285
0.002781907
0.002811696
0.002841507
0.00287141
0.00290263
0.002935238
0.002969309
0.003004922
0.003042167
0.003081139
0.003121928
0.003164609
0.003209254
0.003255892
0.003304536
0.003355131
0.003407595
0.003461761
0.003517428
0.003574299
0.003632069
0.003690421
0.003749045
0.003807759
0.00386625
0.003924527
0.003982131
0.004039735
0.004099008
0.00399878
0.003899868
0.003842887
0.00381002
0.003788625
0.003769458
0.003745288
0.003709879
0.003657168
0.003580444
0.003470402
0.003333338
0.003174656
0.003000521
0.002819313
0.002640004
0.002469717
0.002312454
0.002169809
0.00204258
0.001931924
0.00183948
0.001766871
0.001715023
0.001683722
0.001671584
0.001676162
0.001694141
0.001721593
0.001752726
0.001779355
0.00178619
0.001746248
0.001639211
0.001526749
0.001447021
0.001397798
0.001375455
0.001379123
0.001344875
0.001330643
0.001348064
0.001388624
0.001451202
0.001537725
0.001651723
0.001795244
0.001964334
0.002132526
0.002263381
0.002378973
0.002471568
0.00254033
0.002590021
0.002623168
0.002642846
0.002651475
0.002651137
0.002643698
0.00263051
0.00261246
0.00259028
0.002564372
0.002534773
0.002501253
0.002463863
0.002423295
0.002380325
0.00233555
0.002289324
0.002554557
0.00251243
0.002472644
0.0024359
0.002403536
0.002376799
0.002356231
0.002341438
0.002332139
0.00232806
0.002328839
0.002334034
0.002343165
0.002355747
0.002371326
0.002389499
0.002409921
0.002432296
0.002456359
0.002481828
0.002508488
0.00253619
0.002564795
0.002594167
0.002624167
0.002654659
0.002685523
0.002716665
0.002748045
0.002779716
0.002811462
0.002842739
0.002873141
0.002902338
0.002930045
0.002956012
0.002980022
0.003001892
0.003021474
0.003038649
0.003053327
0.003065452
0.003075015
0.003082059
0.003086695
0.003089068
0.0030895
0.003088709
0.003087596
0.003087161
0.00308857
0.00309307
0.003102216
0.003117453
0.003138171
0.003163565
0.003195518
0.003235906
0.003285551
0.003345064
0.003414948
0.0034955
0.003586777
0.003688554
0.00380027
0.003921003
0.004049508
0.004184305
0.004323789
0.004466328
0.004610349
0.004754372
0.004897011
0.005036985
0.005173138
0.005305778
0.005437202
0.005566128
0.005691603
0.005813063
0.005930182
0.006042757
0.00615062
0.006253584
0.006351418
0.006443824
0.006530428
0.006610785
0.006684408
0.006750796
0.006809465
0.00685998
0.00690199
0.006935216
0.006959408
0.006974351
0.006979875
0.006975871
0.006962297
0.00693918
0.00690659
0.006864605
0.006813274
0.006752606
0.006682576
0.006603254
0.006514928
0.006417997
0.006312867
0.006199984
0.006079861
0.005953128
0.005820546
0.005683011
0.005541525
0.005397176
0.005251107
0.005104468
0.004958371
0.004813868
0.004671929
0.004533428
0.004399113
0.004269596
0.00414531
0.004026542
0.00391342
0.003805982
0.003704181
0.003607941
0.003517195
0.003431829
0.0033519
0.003277213
0.003207995
0.003143923
0.003086509
0.003037163
0.002995041
3.116941e-05
3.791924e-05
4.80778e-05
6.006111e-05
7.426081e-05
9.120929e-05
0.000111844
0.0001372833
0.0001695039
0.0002255868
0.0009666478
0.001130632
0.001304063
0.00149096
0.001682881
0.001867168
0.002009798
0.002171514
0.00255657
0.004570096
0.004801042
0.004958058
0.005094925
0.005222333
0.005338269
0.005442654
0.005538483
0.005629417
0.005763575
0.006022626
0.006239818
0.006383241
0.00647855
0.006545091
0.006594187
0.006631921
0.006661919
0.006691841
0.006586407
0.006576574
0.006607862
0.006655197
0.006705979
0.006754233
0.006797485
0.006834903
0.00686656
0.006892946
0.006913889
0.006932876
0.006951005
0.00696881
0.006986225
0.007002909
0.007018363
0.007030762
0.007798933
0.007812125
0.00781866
0.007821826
0.007823353
0.007823749
0.00782339
0.007822437
0.007821308
0.007820143
0.007818563
0.007817234
0.007816905
0.007817595
0.007819502
0.007822737
0.007827083
0.00783227
0.007838074
0.007843448
0.007847945
0.007852634
0.007858006
0.007864382
0.007872112
0.007881267
0.007891623
0.007902613
0.007913331
0.007923611
0.00793361
0.007943382
0.007953567
0.007964977
0.007978237
0.007993489
0.008010496
0.008029604
0.008032398
0.008036688
0.008042206
0.008049052
0.008057555
0.008068059
0.008080619
0.008094789
0.00810967
0.008124116
0.008137487
0.008149698
0.008160933
0.008171637
0.008182438
0.008193566
0.008205115
0.008216653
0.008227537
0.008235077
0.008236186
0.008232313
0.008226415
0.008218547
0.008207923
0.008194102
0.008175636
0.008152727
0.00812574
0.00809524
0.008062091
0.008027171
0.007991066
0.007953882
0.007915409
0.0078754
0.007833958
0.007791753
0.007750227
0.007710643
0.007672159
0.007635887
0.007601873
0.007564245
0.007517376
0.007460942
0.007394875
0.007317176
0.007236818
0.00716375
0.00709865
0.007037656
0.006980409
0.006926479
0.006875391
0.006826923
0.006780889
0.006737135
0.006695562
0.00665609
0.006618603
0.006582918
0.006548813
0.006516095
0.006484666
0.006454553
0.006425888
0.006398892
0.006373819
0.006350897
0.006330251
0.006311778
0.006295056
0.006279497
0.006264262
0.006248166
0.006230033
0.006208793
0.006183254
0.006152255
0.006114989
0.006071087
0.006020586
0.005963809
0.005901196
0.005833109
0.00575971
0.005680895
0.005596378
0.005505772
0.005408797
0.005305349
0.005195701
0.005080449
0.004960693
0.004837756
0.004713472
0.004589789
0.004468661
0.004350934
0.004238149
0.004132493
0.004035223
0.003947349
0.003869699
0.003802787
0.003746847
0.003701817
0.003667385
0.003643037
0.003628095
0.00362181
0.003623401
0.003632082
0.00364712
0.003667834
0.003693581
0.003723778
0.003757916
0.003795547
0.003836215
0.003879237
0.003922811
0.003967176
0.00401367
0.004062283
0.004113093
0.004166259
0.004221998
0.004280567
0.004342263
0.004407368
0.004476162
0.004548853
0.004625584
0.00470636
0.004791112
0.004879574
0.004971443
0.005066178
0.005163429
0.005262557
0.005363433
0.005465347
0.00556858
0.005672127
0.005776568
0.005879439
0.005968873
0.006061345
0.006152483
0.006237356
0.00631116
0.006369206
0.006407007
0.006420423
0.006405765
0.006359802
0.006279368
0.006164157
0.006022758
0.005858446
0.005675463
0.00547829
0.005270829
0.005056253
0.004837532
0.004618202
0.004402883
0.004197187
0.00400706
0.003838003
0.003694358
0.003578604
0.003491586
0.00343262
0.003398707
0.003384765
0.003383304
0.003382017
0.003365464
0.003329553
0.003280571
0.003218235
0.003141605
0.003053633
0.00296111
0.002871693
0.002792485
0.002728918
0.002684039
0.002580201
0.002459919
0.002390875
0.002375683
0.002410427
0.002488966
0.002604476
0.002749609
0.002916503
0.003095515
0.003272741
0.003440306
0.003595438
0.003716498
0.003782825
0.0038389
0.00388497
0.003921732
0.003950012
0.003970334
0.003982942
0.003988073
0.003985771
0.003975714
0.003957695
0.003931237
0.003897252
0.003851375
0.00379943
0.003741872
0.003680581
0.003617661
0.003554967
0.003494186
0.003437216
0.003385532
0.003340207
0.003301942
0.003271107
0.003247791
0.003231873
0.003223072
0.003221011
0.00322526
0.00323537
0.003250886
0.003271384
0.00329649
0.003325845
0.003359026
0.003395548
0.003434917
0.003476625
0.003520135
0.003564863
0.003610143
0.003655181
0.003699529
0.003743197
0.00378616
0.003828455
0.003869828
0.003909763
0.003947864
0.003983811
0.004017342
0.004048249
0.004076371
0.004101603
0.004123899
0.004143273
0.00415982
0.004173722
0.004185303
0.004195131
0.004203993
0.004212835
0.004222744
0.00423496
0.004250617
0.00426997
0.004294138
0.004325537
0.00436588
0.004416606
0.004479037
0.004554207
0.004642792
0.0047451
0.004861084
0.004990346
0.005132142
0.005285396
0.005448717
0.005620445
0.00579871
0.005981499
0.006166723
0.006352279
0.006536102
0.006716206
0.006890717
0.007057786
0.007217005
0.007370026
0.00751633
0.007655677
0.007788036
0.00791351
0.008032254
0.008144434
0.008250187
0.008349551
0.008442427
0.008528595
0.008607739
0.008679483
0.008743417
0.008799115
0.008846231
0.008884696
0.008914346
0.008934964
0.008946335
0.008948285
0.008940702
0.008923557
0.008896885
0.008860731
0.008815089
0.008759859
0.008694805
0.00861958
0.008534337
0.00843939
0.00833513
0.008221986
0.008100413
0.007970933
0.00783419
0.007690956
0.007542091
0.007388563
0.007231457
0.007071904
0.006911021
0.00674988
0.006589482
0.006430759
0.006274552
0.006121598
0.0059725
0.005827743
0.005687668
0.005552534
0.005422482
0.005297644
0.005178047
0.005063802
0.00495491
0.004851504
0.004753618
0.004661468
0.004575395
0.004495751
0.004425973
3.935389e-05
6.36117e-05
0.0001420282
0.0004788855
0.0008244262
0.001475966
0.001982296
0.002596083
0.003304279
0.003886525
0.0043144
0.004657523
0.004999166
0.005350022
0.005711831
0.006079545
0.006453508
0.006833743
0.007204979
0.007551844
0.007881876
0.008181906
0.008426808
0.008636285
0.008828479
0.009003827
0.009162802
0.009306771
0.009441565
0.009578248
0.009739484
0.01
0.01
0.009939187
0.009661016
0.009400137
0.009175987
0.00899024
0.008852021
0.008744217
0.008638729
0.008576422
0.008550862
0.008550199
0.008573382
0.008619607
0.008687465
0.008774962
0.008879526
0.009006472
0.0091419
0.009262439
0.009403022
0.009550835
0.009702632
0.009869591
0.01
0.01
0.01
0.01
0.01
0.01
0.01
0.01
0.01
0.01
0.01
0.01
0.01
0.009997873
0.009973534
0.009951882
0.009932457
0.009914852
0.009898663
0.009883494
0.009869033
0.009855028
0.009841344
0.009828265
0.009816141
0.009805295
0.009796154
0.009789019
0.009783803
0.00978006
0.009777114
0.009774198
0.009770909
0.009767454
0.009764419
0.009762649
0.009762964
0.009765782
0.009770945
0.009777674
0.009784812
0.009791419
0.009797064
0.009801865
0.009806709
0.009812788
0.009821234
0.009832437
0.00984636
0.009861742
0.009876634
0.009890299
0.009902477
0.009913604
0.009924788
0.009937225
0.009951609
0.009967725
0.009984459
0.01
0.01
0.01
0.01
0.01
0.01
0.01
0.01
0.01
0.01
0.01
0.01
0.01
0.01
0.01
0.01
0.009991468
0.009971164
0.009947002
0.009918595
0.00988615
0.009850621
0.009813279
0.009775164
0.009736634
0.009697341
0.009656591
0.009613867
0.009569247
0.009523556
0.009477959
0.009433144
0.009389261
0.009345944
0.009301106
0.009251773
0.009196202
0.009134511
0.00906732
0.00899825
0.008931168
0.008868223
0.00880897
0.008752639
0.00869884
0.00864722
0.008597612
0.008549906
0.008504016
0.00845992
0.008417648
0.008377192
0.008338413
0.00830105
0.008264823
0.008229555
0.008195221
0.008161935
0.008129926
0.008099506
0.008071022
0.008044794
0.008020911
0.007999075
0.00797888
0.007959578
0.007940056
0.007919168
0.007895714
0.007868278
0.00783549
0.007796255
0.007749953
0.007696524
0.007636352
0.007570025
0.007498071
0.007420763
0.007338013
0.007249412
0.007154343
0.00705218
0.006942424
0.006824872
0.006699656
0.006567368
0.006429026
0.006286171
0.006140645
0.005994508
0.005849576
0.005707658
0.005570706
0.005440398
0.00531811
0.005204999
0.005102018
0.005009931
0.004929276
0.004860381
0.004803336
0.004758002
0.004724046
0.00470097
0.004688161
0.00468493
0.004690541
0.004704238
0.00472528
0.004752955
0.004786584
0.004825519
0.004869082
0.004916287
0.004964946
0.00501591
0.005070157
0.005127693
0.005188686
0.005253436
0.00532235
0.005395924
0.005474685
0.005559161
0.005649802
0.00574693
0.00585067
0.005960954
0.006077469
0.006199698
0.006326896
0.006458297
0.006593058
0.006730488
0.006869911
0.007010963
0.007153179
0.00729604
0.007438459
0.00757796
0.007712337
0.00783871
0.007953314
0.008051915
0.008130131
0.008183733
0.008208979
0.008202955
0.008163867
0.008090912
0.007982973
0.007845762
0.007685113
0.007505466
0.00731031
0.007101928
0.006881749
0.006651134
0.006412249
0.006168658
0.00592525
0.005687947
0.005463111
0.005256498
0.005072651
0.004915154
0.004785795
0.004684189
0.004608866
0.004555694
0.004516394
0.004482321
0.004448938
0.004413179
0.004369542
0.004311939
0.004236421
0.004142512
0.004032212
0.00391045
0.003784423
0.003662227
0.003552305
0.003462301
0.003401434
0.003375199
0.003384508
0.003389118
0.003296959
0.003268076
0.00329878
0.003378419
0.003494626
0.003633668
0.003784522
0.003942364
0.004101947
0.004255127
0.004371154
0.004432555
0.004487746
0.004537561
0.004582172
0.004621576
0.004655347
0.004682895
0.004703256
0.004715799
0.004719399
0.004713406
0.004697237
0.004670892
0.004634665
0.004589027
0.004534769
0.004473751
0.004408252
0.004340549
0.004272934
0.00420754
0.004146213
0.004090469
0.004041474
0.004000048
0.0039667
0.003941667
0.003924966
0.003916449
0.003915867
0.003922925
0.003936236
0.003958548
0.003985944
0.004018854
0.00405662
0.004098579
0.004144054
0.004192355
0.004242786
0.004294691
0.004347434
0.004400349
0.004452672
0.004503978
0.004554151
0.00460306
0.004650587
0.004696319
0.004739889
0.004781032
0.004819565
0.004855381
0.004888445
0.004918797
0.004946571
0.004972011
0.004995524
0.005017723
0.005039449
0.005061466
0.005084246
0.005108499
0.00513595
0.005168417
0.005207864
0.005256302
0.005315612
0.005387428
0.005473052
0.005573394
0.00568893
0.005819691
0.005965257
0.006124777
0.006297
0.006480316
0.006672803
0.006872291
0.007076428
0.007282754
0.00748877
0.007692019
0.007890147
0.008080959
0.008262437
0.00843274
0.0085927
0.00874269
0.008883003
0.009014093
0.009136522
0.009250846
0.009357559
0.009457436
0.009551056
0.009638715
0.009720498
0.009796338
0.009866065
0.009929438
0.00998616
0.01
0.01
0.01
0.01
0.01000001
0.01
0.01
0.01
0.01
0.01
0.01
0.01
0.01
0.009950487
0.009881112
0.009802025
0.009713431
0.009615641
0.009509002
0.009393906
0.009270843
0.009140413
0.009003191
0.008859701
0.008711066
0.008558425
0.008402859
0.008245374
0.0080869
0.007928309
0.007770451
0.007614109
0.007459967
0.007308602
0.007160481
0.007015984
0.006875404
0.006738977
0.006606885
0.006479291
0.006356361
0.006238232
0.006125147
0.00601716
0.005914731
0.005817965
0.005733495
2.206146e-05
3.570965e-05
5.389559e-05
0.0002336666
0.0003825849
0.0006479071
0.0009104747
0.001151696
0.001455668
0.001753872
0.002077841
0.002498719
0.003000719
0.003572603
0.004221723
0.005057616
0.006640862
0.007290166
0.007918546
0.008486102
0.008987599
0.009420231
0.009800554
0.01
0.01
0.01
0.01
0.01
0.01
0.01
0.01
0.01
0.01
0.01
0.01
0.01
0.01
0.01
0.01
0.01
0.01
0.009724482
0.009590022
0.009240048
0.008894082
0.008578592
0.008299424
0.008062639
0.007869699
0.007718768
0.007604765
0.00751374
0.007454635
0.007429832
0.007434628
0.007464474
0.007518941
0.007597969
0.007699251
0.007822004
0.007963262
0.008123746
0.008291946
0.008472139
0.008661669
0.008870056
0.009100079
0.009361904
0.009657077
0.009992698
0.01
0.01
0.01
0.01
0.01
0.01
0.01
0.01
0.01
0.01
0.01
0.01
0.01
0.01
0.01
0.01
0.01
0.01
0.01
0.01
0.01
0.01
0.01
0.01
0.01
0.01
0.01
0.01
0.01
0.01
0.01
0.01
0.01
0.01
0.01
0.01
0.01
0.01
0.01
0.01
0.01
0.01
0.01
0.01
0.01
0.01
0.01
0.01
0.01
0.01
0.01
0.01
0.01
0.01
0.01
0.01
0.01
0.01
0.01
0.01
0.01
0.01
0.01
0.01
0.01
0.01
0.01
0.01
0.01
0.01
0.01
0.01
0.01
0.01
0.01
0.01
0.01
0.01
0.01
0.01
0.01
0.01
0.01
0.01
0.01
0.01
0.01
0.01
0.01
0.01
0.01
0.01
0.01
0.01
0.01
0.01
0.01
0.01
0.01
0.01
0.01
0.009962198
0.009915454
0.009869979
0.009825578
0.0097822
0.009739971
0.009699041
0.00965938
0.009620727
0.00958273
0.009545148
0.009507951
0.009471272
0.009435357
0.009400516
0.009367162
0.009335767
0.009306621
0.009279601
0.009254472
0.009230741
0.009207349
0.009183472
0.009158275
0.0091301
0.009097279
0.009058551
0.009013066
0.00896063
0.008901681
0.008837012
0.008767453
0.008693596
0.008615613
0.00853323
0.008445824
0.008352598
0.00825274
0.008145575
0.008030622
0.007907682
0.007776959
0.007639206
0.00749571
0.007348213
0.007198662
0.007049038
0.006901308
0.0067573
0.006618591
0.00648653
0.006362291
0.006246928
0.006141391
0.006046504
0.005962934
0.005891149
0.005831394
0.00578368
0.005747808
0.005723389
0.005709869
0.005706586
0.005712802
0.005727737
0.005750606
0.005780641
0.005817091
0.005859136
0.005905574
0.005954221
0.006006979
0.006064209
0.006126153
0.006193243
0.006266077
0.006345379
0.006431936
0.006526516
0.006629775
0.006742158
0.006863808
0.006994546
0.007133837
0.007280768
0.007434109
0.007592508
0.007754607
0.007919194
0.008085323
0.008252423
0.008420119
0.008587822
0.008754273
0.008916928
0.009072311
0.0092169
0.009346481
0.009456584
0.009542871
0.009601425
0.009629068
0.009623826
0.009585373
0.00951511
0.009415419
0.009290547
0.009146685
0.008987318
0.008814159
0.008627745
0.008428409
0.008216407
0.007992623
0.007759078
0.007519074
0.007277182
0.007038866
0.006809561
0.006594172
0.006397066
0.006221486
0.006069316
0.005941425
0.005836915
0.005752456
0.005683509
0.005626337
0.005577226
0.005530131
0.005477409
0.005411947
0.005328162
0.005222685
0.005095078
0.004948284
0.004788215
0.004623322
0.004465018
0.004323358
0.00420866
0.004128203
0.004083728
0.004075228
0.004098524
0.004147149
0.004214001
0.004289318
0.004288336
0.004335968
0.004423135
0.004536968
0.004664273
0.004762064
0.004826869
0.004887341
0.004944399
0.004999164
0.005052569
0.005104786
0.005154934
0.005201851
0.005244299
0.005280768
0.0053099
0.005330459
0.005341132
0.005340759
0.005328598
0.005304364
0.005268237
0.00522132
0.00516514
0.005101579
0.005032801
0.004961113
0.004888835
0.004818187
0.004751196
0.004689615
0.004634877
0.00458807
0.004549937
0.004520901
0.004501111
0.004490474
0.004488714
0.004495407
0.004510014
0.004531928
0.004560497
0.004595034
0.004634824
0.004679137
0.004727232
0.004778372
0.004831826
0.004886872
0.00494284
0.004999105
0.005055031
0.005110003
0.005163762
0.005216068
0.005266685
0.005315412
0.005362093
0.005406629
0.005448985
0.005489189
0.005527341
0.005563616
0.005598266
0.005631568
0.005664077
0.005696774
0.005730823
0.005767661
0.005808932
0.00585645
0.005912134
0.005977891
0.006055481
0.006146409
0.006251823
0.006372437
0.006508478
0.006659659
0.006825185
0.00700378
0.007193736
0.007392982
0.007599151
0.007809669
0.008021842
0.008232946
0.00844032
0.008641442
0.008834004
0.009015948
0.009185472
0.009341811
0.00948579
0.009618015
0.00973939
0.009851141
0.009954351
0.01
0.01
0.01
0.01
0.01
0.01
0.01
0.01
0.01
0.01
0.01
0.01
0.01
0.01000001
0.01000001
0.01
0.01
0.01
0.01
0.01
0.01
0.01
0.01
0.01000001
0.01000008
0.01000016
0.01000016
0.01000015
0.01000005
0.01
0.01
0.01
0.009899829
0.009769171
0.009633716
0.009494376
0.009351993
0.009207257
0.009060663
0.008913119
0.008765496
0.008618531
0.008472833
0.008328903
0.008187183
0.008048063
0.00791187
0.00777888
0.007649327
0.007523455
0.007401479
0.00728369
0.007170225
0.007061538
0.006958117
0.006868294
2.009118e-05
3.092275e-05
6.12617e-05
0.0001852732
0.0002977083
0.0004722532
0.000605215
0.0007559077
0.000933423
0.001107057
0.001310456
0.001573848
0.001875162
0.002234695
0.002703714
0.00360474
0.004032081
0.004494297
0.004982995
0.005497165
0.006042147
0.006608528
0.007181019
0.007744877
0.008283367
0.008784833
0.009268743
0.009801413
0.01
0.01
0.01
0.01
0.01
0.01
0.01
0.01
0.01
0.01
0.01
0.01
0.01
0.01
0.01
0.01
0.01
0.01
0.01
0.01
0.01
0.009765241
0.009306684
0.008854958
0.00846424
0.008042204
0.00769514
0.007410328
0.007170742
0.006974693
0.006821634
0.006709199
0.006633805
0.006591273
0.006579897
0.006599082
0.006648227
0.006724654
0.006829253
0.006962589
0.007126753
0.007324266
0.007551688
0.007818888
0.008108234
0.008406044
0.008716395
0.009037599
0.009372688
0.009763548
0.01
0.01
0.01
0.01
0.01
0.01
0.01
0.01
0.01
0.01
0.01
0.01
0.01
0.01
0.01
0.01
0.01
0.01
0.01
0.01
0.01
0.01
0.01
0.01
0.01
0.01
0.01
0.01
0.01
0.01
0.01
0.01
0.01
0.01
0.01
0.01
0.01
0.01
0.01
0.01
0.01
0.01
0.01
0.01
0.01
0.01
0.01
0.01
0.01
0.01
0.01
0.01
0.01
0.01
0.01
0.01
0.01
0.01
0.01
0.01
0.01
0.01
0.01
0.01
0.01
0.01
0.01
0.01
0.01
0.01
0.01
0.01
0.01
0.01
0.01
0.01
0.01
0.01
0.01
0.01
0.01
0.01
0.01
0.01
0.01
0.01
0.01
0.01
0.01
0.01
0.01
0.01
0.01
0.01
0.01
0.01
0.01
0.01
0.01
0.01
0.01
0.01
0.01
0.01
0.01
0.01
0.01
0.01
0.01
0.01
0.01
0.01
0.01
0.01
0.01
0.01
0.01
0.01
0.01
0.01
0.01
0.00999298
0.009963194
0.009935102
0.009908144
0.009881841
0.009855665
0.009828441
0.009798609
0.009764593
0.009725136
0.009679729
0.00962865
0.009572707
0.009512962
0.009450416
0.009385723
0.009319048
0.009250088
0.00917818
0.009102432
0.00902189
0.008935563
0.008842431
0.008741623
0.008632687
0.008515779
0.008391743
0.008262001
0.008128325
0.007992625
0.007856775
0.007722489
0.007591278
0.007464488
0.007343354
0.007229046
0.007122705
0.007025405
0.006938105
0.006861588
0.006796428
0.006742917
0.006701107
0.00667081
0.006651632
0.006643017
0.006644294
0.006654726
0.006673553
0.006700027
0.006733411
0.00677288
0.00681708
0.006864834
0.006918331
0.006977952
0.007044303
0.007118206
0.007200622
0.007292558
0.00739496
0.007508587
0.007633859
0.007770731
0.007918683
0.008076683
0.008243095
0.008415842
0.008592812
0.008772121
0.008952305
0.009132154
0.009311219
0.009489791
0.009667628
0.009843471
0.01
0.01
0.01
0.01
0.01000001
0.01000001
0.01
0.01
0.01
0.01
0.01
0.01
0.01
0.01
0.01
0.009978158
0.009819578
0.009650226
0.009469867
0.009278642
0.009077274
0.008867069
0.008650701
0.008432256
0.008215944
0.00800576
0.007805324
0.00761768
0.007445329
0.007290217
0.007153227
0.007033936
0.006931084
0.006843255
0.006768092
0.006701055
0.006635854
0.006565632
0.006483711
0.006384278
0.00626334
0.006119571
0.005954711
0.005773594
0.005584033
0.005395938
0.005220478
0.005068086
0.004946178
0.004858545
0.004804326
0.004782209
0.004787489
0.004814338
0.00485675
0.004909248
0.004967383
0.005027819
0.005088322
0.005147745
0.00520582
0.005262924
0.005319456
0.005375963
0.005432527
0.005489219
0.005546317
0.005603645
0.005660639
0.005715697
0.005767098
0.005813058
0.00585175
0.005881536
0.005901027
0.00590895
0.00590382
0.005885485
0.005854355
0.005811258
0.00575745
0.005694583
0.005624635
0.005549829
0.005472533
0.005395145
0.005319971
0.005249109
0.005184364
0.005127185
0.005078646
0.005039456
0.005009979
0.004990282
0.004980183
0.004979311
0.004987164
0.005003139
0.005026571
0.005056744
0.005092914
0.005134317
0.005180177
0.005229718
0.005282174
0.005336808
0.005392911
0.005449814
0.005506932
0.005563758
0.005619856
0.005674859
0.005728475
0.005780484
0.005830739
0.005879166
0.005925767
0.005970635
0.006013975
0.006056124
0.006097598
0.006139126
0.006181657
0.006226374
0.006274677
0.006328157
0.006388541
0.006457613
0.006537107
0.00662859
0.006733348
0.006852285
0.00698584
0.007133934
0.007295944
0.007470723
0.007656637
0.00785163
0.008053311
0.008259051
0.008466084
0.008671615
0.008872926
0.009067468
0.009252936
0.009427322
0.009588931
0.009736532
0.009870447
0.009991445
0.01
0.01
0.01
0.01