/*--------------------------------*- C++ -*----------------------------------*\
| =========                 |                                                 |
| \\      /  F ield         | foam-extend: Open Source CFD                    |
|  \\    /   O peration     | Version:     3.1                                |
|   \\  /    A nd           | Web:         http://www.extend-project.de       |
|    \\/     M anipulation  |                                                 |
\*---------------------------------------------------------------------------*/
FoamFile
{
    version     2.0;
    format      ascii;
    class       volScalarField;
    location    "16.5";
    object      omega;
}
// * * * * * * * * * * * * * * * * * * * * * * * * * * * * * * * * * * * * * //

dimensions      [0 0 -1 0 0 0 0];

internalField   nonuniform List<scalar> 
119952
(
409.1606
522.4511
496.9027
433.3907
389.2169
392.5638
399.019
407.0544
416.0886
425.8401
436.1959
447.0573
458.3671
470.1177
482.3187
494.9795
508.1569
521.9533
536.6639
553.6478
463.8317
460.8851
464.4375
390.5699
381.5325
376.0768
371.5978
367.477
359.7981
229.6052
830.3252
696.8317
589.9628
512.5211
454.5086
409.7061
373.8071
344.3519
319.5696
292.0198
245.8717
213.2937
190.5775
173.7266
160.4842
149.578
140.3105
132.2793
125.234
97.44464
93.5935
89.82364
86.14851
82.66184
79.41588
76.42722
73.69538
71.19681
68.91606
66.91585
65.02424
63.20224
61.45855
59.79284
58.20341
56.67757
55.1884
53.73652
53.40004
53.25564
52.71424
52.29066
52.02074
51.85218
51.73818
51.68728
51.68049
51.71002
51.7655
51.8418
51.936
52.04832
52.18093
52.33239
52.49424
52.64357
52.72472
52.64772
52.37165
52.24432
51.89143
51.51579
51.4539
51.68108
52.14319
53.22286
55.74617
59.30741
60.10257
60.56562
60.65671
60.61114
60.5089
60.36983
60.2152
60.05677
59.90011
59.74897
59.60636
59.47444
59.35453
59.24651
59.14842
59.05641
58.96523
58.86902
58.76246
58.64203
58.50718
58.36112
58.2109
58.0668
57.94117
57.84772
57.80122
57.81611
57.90575
58.08223
58.35497
58.72909
59.20515
59.77983
60.44713
61.20009
62.03293
62.94323
63.93313
65.00902
66.17973
67.45355
68.83453
70.31816
71.88715
73.50827
75.13189
76.68487
78.00786
79.21882
80.52612
81.48058
82.09857
82.35768
82.23442
81.75603
80.95161
79.87011
78.56702
77.09978
75.52379
73.88818
72.23997
70.6174
69.04674
67.54427
66.12839
64.80198
63.56499
62.41761
61.35376
60.36626
59.44344
58.55435
57.67587
56.81141
55.9648
55.15206
54.40723
53.72395
53.09583
52.52061
51.99812
51.52935
51.11577
50.75913
50.46117
50.22361
50.04809
49.93624
49.88943
49.90871
49.99492
50.14869
50.37065
50.66198
51.02295
51.44816
51.94595
56.43157
63.65015
69.07634
73.35849
77.29793
81.0248
84.7711
88.64886
92.78163
97.10128
101.7268
106.9809
112.809
119.0694
125.4158
131.3622
136.515
140.7561
144.0651
146.3954
147.6976
147.9979
147.416
146.1319
144.3936
142.5087
140.7735
139.4286
138.7283
138.9659
140.5237
144.4103
153.002
181.3083
203.5476
197.6395
177.6762
158.3265
143.5908
132.174
122.4747
113.8766
106.2992
99.74305
94.19768
89.60084
85.81976
82.68483
80.0327
77.64752
75.48017
73.56662
71.87196
70.37511
69.0595
67.91181
66.92027
66.06762
65.33314
64.6987
64.14567
63.65517
63.21635
62.82749
62.48635
62.17743
61.87839
61.57249
61.24539
60.88792
51.42676
50.85853
50.07194
49.14956
48.20819
47.27238
46.35386
45.46494
44.61255
43.79624
43.00666
42.23671
41.48485
40.75146
40.03757
39.34397
38.67136
38.02046
37.39158
36.78401
36.1979
35.63305
35.08913
34.56619
34.06428
33.58326
33.12279
32.68227
32.26087
31.85723
31.46985
31.09711
30.73717
30.38806
30.04777
29.71446
29.38661
29.06318
28.74374
28.42875
28.11971
27.81923
27.53111
27.26063
27.01553
26.80408
26.62578
26.48075
26.37277
26.30174
26.26668
26.26736
26.29806
26.36181
26.48958
26.54162
26.56196
26.55274
26.52601
26.48764
26.43651
26.36955
26.28759
26.19273
26.08736
25.97435
25.857
25.73825
25.62092
25.5086
25.40576
25.30818
25.21054
25.10645
24.98997
24.86781
24.74495
24.6236
24.50488
24.38943
24.27761
24.16959
24.06541
23.96495
23.86798
23.77415
23.68303
23.59413
23.50693
23.42085
23.33527
23.24955
23.1631
23.07541
22.98617
22.89525
22.80273
22.70884
22.61401
22.51885
22.42415
22.33096
22.24057
22.1545
22.0744
22.00204
21.93917
21.88777
21.85021
21.82907
21.82686
21.84579
21.88767
21.95382
22.04477
22.15972
22.29643
22.4531
22.6279
22.81811
23.02017
23.22981
23.44206
23.65127
23.85143
24.03692
24.20398
24.35207
24.48279
24.59752
24.6964
24.77851
24.84117
24.8792
24.88138
24.82261
24.64784
24.30308
24.32679
754.81
624.7184
560.1224
514.4875
475.7326
441.4068
410.8858
383.7974
358.6919
298.3901
235.4092
198.505
175.416
159.9071
148.7582
140.2015
133.2547
127.3634
100.7699
96.25195
91.90063
87.81799
84.0918
80.75509
77.78671
75.14734
72.79059
70.65725
68.78708
67.04179
65.3193
63.62824
61.98352
60.402
58.89616
57.47144
56.12457
55.15768
54.48151
53.68287
52.802
51.87692
50.93134
49.98445
49.05169
48.14284
47.26761
46.42744
45.61232
44.82345
44.05664
43.30678
42.57329
41.8584
41.16621
40.51121
36.31522
35.81175
35.33266
34.87387
34.43181
34.00431
33.59128
33.19322
32.81055
32.44052
32.08157
31.73468
31.39784
31.06891
30.74751
30.43552
30.13637
29.85956
29.62094
29.41481
29.20284
28.9979
28.81957
28.66318
28.51569
28.3783
28.25865
28.15291
28.0587
27.97357
27.89598
27.82574
27.76337
27.70918
27.66203
27.61891
27.5746
27.5241
27.46431
27.39547
27.32436
27.24787
27.19682
27.2142
27.28247
27.39381
27.55767
27.75435
27.90244
27.97868
28.05769
28.12093
28.16689
28.20103
28.22381
28.23644
28.23991
28.2348
28.22177
28.20179
28.17598
28.14536
28.11049
28.07134
28.02739
27.97779
27.92156
27.8579
27.78652
27.70794
27.62379
27.53688
27.45077
27.36961
27.29813
27.2409
27.20198
27.18519
27.19367
27.22937
27.29302
27.38468
27.50423
27.65193
27.82896
28.03765
28.28152
28.56493
28.89255
29.26862
29.69625
30.17665
30.7085
31.28737
31.90514
32.55045
33.21185
33.87886
34.54075
35.20009
35.82208
36.39712
36.91647
37.36335
37.72417
37.98558
38.13682
38.171
38.08582
37.88411
37.57348
37.16545
36.67441
36.11594
35.50537
34.85794
34.18687
33.50305
32.81509
32.12976
31.45277
30.79204
30.1482
29.514
28.89163
28.28258
27.68796
27.10891
26.5466
26.00228
25.47724
24.97291
24.49065
24.03184
23.59753
23.18863
22.80554
22.4485
22.1171
21.81081
21.5285
21.26915
21.03141
20.81429
20.61669
20.43791
20.27757
20.12457
20.4886
20.90658
21.19089
21.39558
21.55743
21.70408
21.85817
22.04104
22.27788
22.60517
23.0886
23.72945
24.53129
25.49612
26.61117
27.85174
29.193
30.61927
32.12169
33.68699
35.28558
36.86512
38.35353
39.67249
40.75705
41.57103
42.11096
42.40848
42.52989
42.58369
42.73121
43.23901
44.5503
46.88101
49.19661
51.52453
54.12663
56.94756
59.65498
61.90769
63.42314
63.96094
63.39632
61.69743
58.98165
55.53019
51.72777
47.95047
44.46397
41.38296
38.71908
36.43623
34.47794
32.78334
31.31118
30.03319
28.92316
27.96179
27.13505
26.43102
25.83863
25.34809
24.95083
24.64126
24.41452
24.26407
24.18401
24.17019
24.21936
24.33342
22.72647
22.8344
22.98546
23.15066
23.31206
23.45728
23.5753
23.65851
23.69989
23.69416
23.63803
23.53044
23.37273
23.16828
22.92212
22.64052
22.33049
21.99944
21.65472
21.30306
20.94986
20.59958
20.25573
19.92093
19.59693
19.28472
18.98469
18.69673
18.42025
18.15424
17.89816
17.65198
17.41524
17.18719
16.967
16.75399
16.54759
16.34741
16.15333
15.9656
15.78487
15.61221
15.44917
15.29763
15.15963
15.03692
14.93089
14.84341
14.77637
14.7309
14.70766
14.70639
14.72755
14.77193
14.83241
14.90501
14.99076
15.08329
15.17551
15.26082
15.33328
15.38798
15.42127
15.43091
15.41611
15.37741
15.3165
15.23591
15.13876
15.02842
14.90833
14.78187
14.65238
14.52314
14.39717
14.27492
14.15344
14.03485
13.92064
13.81157
13.70795
13.60982
13.51699
13.4291
13.34565
13.26605
13.18962
13.11564
13.0434
12.97219
12.90133
12.83023
12.75837
12.68537
12.61093
12.5349
12.45725
12.37802
12.29738
12.2156
12.13303
12.05008
11.9672
11.88486
11.80354
11.7237
11.64585
11.57057
11.49846
11.4301
11.36601
11.30661
11.25226
11.2032
11.15955
11.1213
11.08838
11.06066
11.03789
11.0197
11.00561
10.99505
10.9874
10.98209
10.97863
10.97663
10.97587
10.97612
10.97723
10.97886
10.98068
10.98192
10.98167
10.97834
10.97
10.95501
10.93356
10.91444
10.90413
626.1794
553.4222
493.9253
450.2253
417.0058
391.3743
371.4253
356.2907
345.4487
330.5449
189.0495
176.4582
165.7506
156.2269
148.127
141.9108
139.1588
136.7919
127.4599
84.89493
83.16678
82.54395
81.92262
81.2358
80.52265
79.80947
79.05144
78.18268
76.66931
73.62574
71.35608
69.89159
68.80416
67.86724
66.98585
66.12291
65.26402
64.40515
64.46773
63.68305
62.56803
61.35856
60.16602
59.03199
57.96604
56.96434
56.02119
55.13737
54.28232
53.43884
52.59771
51.7569
50.92221
50.10058
49.29733
48.52454
44.80525
44.14662
43.51927
42.91557
42.33064
41.76045
41.2027
40.65619
40.12103
39.59635
39.07962
38.57207
38.0751
37.58732
37.10839
36.63932
36.18097
35.73406
35.29837
34.87157
34.45231
34.04147
33.63825
33.24192
32.85331
32.47398
32.10535
31.74767
31.39907
31.05819
30.72336
30.39168
30.06184
29.73465
29.41199
29.09641
28.78909
28.48255
28.23206
27.98243
27.73366
27.48466
27.23548
26.98795
26.74496
26.50913
26.28178
26.06242
25.84994
25.6425
25.43837
25.23704
25.03997
24.84989
24.6708
24.50607
24.35801
24.22424
24.09521
23.96619
23.84137
23.72363
23.61231
23.50655
23.40868
23.31799
23.23257
23.15054
23.07105
22.9945
22.92227
22.85543
22.79407
22.73669
22.68117
22.6251
22.56732
22.50814
22.45343
22.4048
22.36765
22.34943
22.35404
22.36935
22.39531
22.42319
22.43922
22.43638
22.42373
22.40964
22.39228
22.37096
22.34594
22.31723
22.28482
22.24868
22.20886
22.1657
22.11976
22.0716
22.02143
21.96906
21.91396
21.85542
21.79273
21.72526
21.65275
21.57552
21.49476
21.41259
21.33154
21.25454
21.185
21.1259
21.07956
21.04854
21.03471
21.03837
21.0588
21.09492
21.14571
21.21085
21.2911
21.38846
21.50605
21.64775
21.81761
22.01946
22.25625
22.52983
22.8402
23.18547
23.56119
23.96131
24.37782
24.80196
25.22465
25.64115
26.04422
26.42519
26.77976
27.10306
27.38876
27.62971
27.81808
27.94621
28.0075
27.99738
27.91395
27.75824
27.53414
27.24789
26.90751
26.52212
26.10084
25.65233
25.18445
24.70394
24.21653
23.72811
23.24975
22.78196
22.31963
21.86401
21.41625
20.9774
20.54861
20.13116
19.72653
19.33637
18.96247
18.60652
18.27018
17.95459
17.66079
17.38903
17.13958
16.91156
16.70473
16.51737
16.34952
16.19872
16.06619
15.94845
15.84864
15.76262
15.71887
15.67612
15.6401
15.61301
15.59589
15.58927
15.59365
15.61014
15.64117
15.69166
15.77126
15.89216
16.05353
16.25834
16.50924
16.80924
17.16227
17.57286
18.04482
18.57924
19.17266
19.81617
20.49572
21.19408
21.89419
22.58135
23.24395
23.87651
24.4786
25.05306
25.61648
26.18788
26.77576
27.37613
28.01261
28.73681
29.59633
30.62611
31.84303
33.24719
34.80909
36.47131
38.15834
39.76533
41.15239
42.15772
42.66017
42.60886
42.0148
40.94358
39.48055
37.73837
35.8419
33.90445
32.00979
30.21535
28.55417
27.03949
25.6735
24.45164
23.36627
22.40815
21.5675
20.83506
20.20332
19.66587
19.21536
18.84608
18.55045
18.31777
18.19425
18.12819
18.11057
18.13837
18.20894
18.31603
18.45115
18.60394
18.76439
18.92279
19.06998
19.19734
19.29715
19.36296
19.38992
19.375
19.3171
19.21706
19.07743
18.90227
18.69672
18.46647
18.21748
17.95558
17.68607
17.41362
17.14216
16.87494
16.61461
16.36338
16.12215
15.89046
15.66767
15.45301
15.24601
15.04637
14.8536
14.66723
14.48693
14.31261
14.14443
13.98281
13.82848
13.68237
13.54563
13.41947
13.30514
13.20406
13.11777
13.04762
12.99468
12.95966
12.94286
12.94522
12.96631
13.00271
13.05028
13.10441
13.16063
13.21454
13.26185
13.29863
13.32155
13.32803
13.31642
13.286
13.23701
13.17048
13.08818
12.9924
12.88581
12.77124
12.65163
12.52985
12.40872
12.29106
12.17818
12.06884
11.96355
11.86261
11.76606
11.67381
11.58561
11.50109
11.41976
11.34103
11.26425
11.1888
11.11404
11.03943
10.96452
10.88896
10.81248
10.73476
10.65566
10.57515
10.49326
10.41012
10.32593
10.24097
10.15556
10.07008
9.984879
9.900253
9.81652
9.73401
9.652789
9.573026
9.494998
9.418986
9.345229
9.27392
9.205233
9.139341
9.076398
9.016514
8.959743
8.906087
8.855494
8.807858
8.763033
8.720841
8.6811
8.643644
8.60834
8.575096
8.543828
8.514477
8.486922
8.461068
8.436629
8.413404
8.390778
8.3685
8.345641
8.32237
8.297846
8.274164
8.252329
358.8768
260.8352
373.0243
169.364
133.1712
98.494
85.48541
74.58394
65.5239
61.19345
59.41921
58.47359
57.59445
56.79747
56.01985
55.31954
54.67795
54.0792
53.57984
53.21862
52.92875
52.77044
52.90331
53.20401
53.55012
53.93403
54.34938
54.79234
55.23685
55.60859
55.81608
54.5709
55.09702
55.71301
56.18824
56.56115
56.8218
56.96403
56.97879
56.87448
56.66763
56.33879
55.90845
55.40236
54.83635
54.22013
53.56235
52.8714
52.15548
51.42242
50.68277
49.94235
49.196
48.4435
47.68649
46.92668
46.16756
45.41416
44.67139
43.9465
43.24087
42.55561
41.89003
41.2425
40.61208
39.99637
39.39672
38.80243
38.25958
37.72588
37.20615
36.70037
36.20809
35.72917
35.26321
34.80944
34.36661
33.93343
33.50867
33.09184
32.68258
32.28086
31.88769
31.50481
31.13362
30.77447
30.42621
30.08656
29.75256
29.42162
29.09253
28.76618
28.44516
28.13254
27.83084
27.54105
27.26199
26.99062
26.72325
26.45661
26.18946
25.92255
25.65882
25.40145
25.1539
24.9163
24.68964
24.47093
24.25646
24.04337
23.83146
23.6231
23.42213
23.23202
23.05441
22.8882
22.73025
22.57703
22.42629
22.27789
22.13387
21.99744
21.8719
21.75915
21.6592
21.56933
21.48298
21.39473
21.30532
21.21821
21.13579
21.05912
20.98874
20.924
20.86182
20.79962
20.73663
20.67402
20.61415
20.55909
20.50941
20.46379
20.41988
20.3752
20.32885
20.28198
20.23761
20.19799
20.16505
20.13952
20.11984
20.1009
20.07978
20.0547
20.02329
19.98532
19.94421
19.90195
19.85838
19.81291
19.76553
19.71627
19.66504
19.61169
19.55618
19.49886
19.44037
19.38129
19.32177
19.2615
19.19987
19.13621
19.06989
19.00035
18.92734
18.85113
18.77276
18.69406
18.61692
18.54357
18.47663
18.41837
18.37004
18.33305
18.30837
18.29559
18.2931
18.29892
18.3115
18.33026
18.35584
18.39012
18.43596
18.49678
18.57611
18.67722
18.80284
18.95491
19.13424
19.34015
19.57005
19.81953
20.0825
20.35207
20.62151
20.88551
21.13982
21.38092
21.60691
21.81654
22.00797
22.17825
22.32306
22.43706
22.51437
22.54942
22.53772
22.47647
22.36497
22.20466
21.99893
21.7526
21.47149
21.16182
20.82971
20.48091
20.12055
19.75335
19.38433
19.02187
18.6651
18.3123
17.96459
17.62305
17.28884
16.96327
16.64794
16.3446
16.05522
15.78176
15.52609
15.28969
15.07373
14.87886
14.70533
14.5528
14.42071
14.30809
14.21419
14.138
14.07915
14.03706
14.01154
14.00231
14.00892
14.02875
14.059
14.09614
14.13629
14.17552
14.21029
14.23809
14.25811
14.27227
14.28607
14.31045
14.35499
14.42225
14.51483
14.63574
14.78858
14.97724
15.20514
15.47437
15.78492
16.13438
16.51778
16.9283
17.35902
17.80402
18.25858
18.72048
19.18948
19.66515
20.1482
20.63961
21.13415
21.62123
22.10683
22.61642
23.17536
23.80766
24.53562
25.37914
26.34723
27.43594
28.62431
29.8676
31.10966
32.25991
33.2338
33.96482
34.41631
34.5762
34.43484
34.00793
33.3179
32.40202
31.30828
30.08826
28.79391
27.47381
26.16981
24.91425
23.72793
22.62397
21.61052
20.69108
19.86515
19.12889
18.47829
17.90761
17.41359
16.98974
16.6347
16.34419
16.1159
15.94775
15.8367
15.77908
15.76976
15.8031
15.87332
15.97408
16.09846
16.23896
16.3876
16.53612
16.67633
16.80042
16.90144
16.97359
17.01261
17.01589
16.98253
16.91343
16.81123
16.67981
16.52375
16.34803
16.15768
15.95747
15.7517
15.54396
15.33711
15.13332
14.9342
14.741
14.55411
14.37319
14.19777
14.02743
13.8621
13.70167
13.54615
13.39564
13.25047
13.11113
12.97829
12.85277
12.73553
12.62761
12.53025
12.44471
12.37229
12.31436
12.27192
12.2449
12.2323
12.23236
12.24299
12.26162
12.28518
12.31031
12.33352
12.35146
12.36111
12.35994
12.34602
12.31816
12.27592
12.21958
12.15005
12.06882
11.97774
11.87891
11.77459
11.66701
11.55837
11.45071
11.34593
11.24403
11.14494
11.04861
10.95493
10.8637
10.77468
10.68756
10.60181
10.5169
10.43233
10.34762
10.26236
10.17626
10.08912
10.00087
9.911458
9.821016
9.729731
9.637814
9.545476
9.452943
9.360476
9.268405
9.177133
9.087074
8.998541
8.911701
8.82659
8.743045
8.660874
8.579988
8.500446
8.422371
8.345867
8.270995
8.197819
8.126469
8.057176
7.990206
7.925506
7.863024
7.802723
7.744568
7.688527
7.634559
7.582612
7.532638
7.484606
7.438494
7.394291
7.351977
7.311521
7.272861
7.235894
7.200465
7.166368
7.133371
7.101211
7.069731
7.038734
7.008539
6.980308
318.51
214.525
162.1306
144.8955
118.1218
99.36548
85.71189
80.45645
74.54689
71.11567
68.14807
64.14093
60.11013
56.28682
52.78368
48.92482
42.95366
41.56826
40.55382
39.99986
39.85304
39.97045
40.20087
40.49049
40.8332
41.22928
41.69296
42.24369
42.84889
43.49273
44.16993
44.87521
45.60216
46.34805
47.10731
47.87916
48.66559
49.47375
50.32403
51.23276
52.19013
53.10408
53.73721
54.36579
54.9206
55.33407
55.59334
55.69219
55.63112
55.41767
55.06692
54.60344
54.03854
53.38217
52.64803
51.85169
51.00738
50.12848
49.22815
48.318
47.40876
46.50743
45.62086
44.75107
43.89755
43.05742
42.22992
41.41409
40.61548
39.84217
39.10107
38.39484
37.72417
37.08773
36.48186
35.90167
35.34178
34.79833
34.26753
33.74954
33.24765
32.76503
32.30221
31.85887
31.43448
31.02763
30.636
30.25671
29.88712
29.52494
29.16843
28.81694
28.47111
28.13298
27.80562
27.49157
27.1917
26.90474
26.62733
26.35458
26.08173
25.80631
25.52913
25.25413
24.98685
24.73227
24.49289
24.26714
24.05033
23.83655
23.62079
23.40066
23.17724
22.95488
22.73924
22.53565
22.34676
22.17105
22.00373
21.83935
21.67452
21.50962
21.34868
21.19764
21.06177
20.94334
20.84032
20.74731
20.65888
20.57197
20.4867
20.40609
20.3346
20.27584
20.23037
20.19524
20.16479
20.13238
20.09424
20.05186
20.00996
19.97303
19.943
19.91916
19.89981
19.88034
19.85706
19.82939
19.7997
19.7718
19.74864
19.73062
19.71564
19.70016
19.68054
19.65515
19.6257
19.5956
19.56763
19.54268
19.51933
19.49412
19.46279
19.42311
19.3754
19.32166
19.2642
19.20477
19.14377
19.08091
19.0162
18.95001
18.88273
18.81449
18.74519
18.67491
18.6042
18.53402
18.46507
18.39736
18.33026
18.26287
18.19444
18.12437
18.05217
17.97754
17.90075
17.82287
17.74565
17.67067
17.59957
17.53472
17.47732
17.42799
17.38816
17.35769
17.33482
17.31734
17.30266
17.28881
17.27513
17.26237
17.25246
17.24813
17.25244
17.26833
17.29843
17.34502
17.40998
17.49455
17.59895
17.72179
17.85992
18.00874
18.16287
18.31697
18.46659
18.6086
18.74133
18.86447
18.97842
19.08349
19.1791
19.26337
19.33301
19.38361
19.41028
19.40829
19.37376
19.30416
19.19857
19.05774
18.88393
18.68056
18.45183
18.20227
17.93642
17.65853
17.37247
17.0818
16.79061
16.50511
16.2237
15.94696
15.67598
15.41197
15.15639
14.91093
14.67754
14.45828
14.25526
14.07049
13.90561
13.76189
13.64011
13.54055
13.46294
13.40657
13.37049
13.35372
13.35547
13.37534
13.41316
13.4686
13.54077
13.62768
13.72572
13.82994
13.93411
14.03131
14.11463
14.17771
14.21571
14.22631
14.21095
14.17557
14.13105
14.09231
14.06621
14.05604
14.0642
14.0931
14.14553
14.22406
14.33057
14.46587
14.62951
14.81972
15.03369
15.2683
15.52088
15.78984
16.07521
16.37799
16.6991
17.03967
17.39914
17.77149
18.14985
18.53553
18.93601
19.35949
19.81604
20.31898
20.88227
21.51807
22.23374
23.02812
23.88782
24.77972
25.66706
26.4997
27.23049
27.83084
28.27096
28.54108
28.63978
28.56552
28.32189
27.91626
27.36004
26.67134
25.87513
25.0006
24.07717
23.13227
22.1907
21.27331
20.39455
19.56463
18.79116
18.07951
17.43151
16.84724
16.32481
15.86251
15.45881
15.1113
14.81739
14.57531
14.38406
14.24283
14.14928
14.10024
14.09217
14.12116
14.18278
14.27193
14.38281
14.50897
14.64351
14.77929
14.90929
15.0269
15.12626
15.2026
15.25248
15.27386
15.26616
15.23022
15.16808
15.08271
14.97771
14.85694
14.72421
14.58311
14.43681
14.28799
14.13872
13.99046
13.84426
13.70088
13.56079
13.42392
13.29013
13.15934
13.03159
12.90704
12.78602
12.66899
12.55655
12.44941
12.34844
12.25465
12.16924
12.09332
12.02772
11.97301
11.92946
11.89692
11.87477
11.86195
11.85695
11.8578
11.86216
11.86749
11.87111
11.87049
11.8633
11.84763
11.82207
11.78578
11.73853
11.68065
11.61295
11.53661
11.45307
11.3639
11.27067
11.1749
11.07799
10.98118
10.88513
10.78969
10.69477
10.60013
10.50547
10.41052
10.31493
10.21832
10.12043
10.02108
9.920138
9.817598
9.713545
9.608169
9.501754
9.394677
9.287458
9.180579
9.074452
8.969408
8.865724
8.763667
8.663572
8.56588
8.471062
8.379438
8.291048
8.205659
8.122824
8.042196
7.963481
7.886492
7.81115
7.737416
7.665231
7.594532
7.525293
7.457509
7.391102
7.326052
7.262368
7.20007
7.139202
7.079851
7.022147
6.966031
6.911451
6.858402
6.8069
6.756979
6.708661
6.661959
6.616862
6.573338
6.531319
6.490713
6.451403
6.413257
6.37619
6.34006
6.305037
6.272527
162.2795
119.7708
183.9018
90.45789
77.61117
66.63716
63.45208
61.24282
58.80645
57.9199
56.71118
54.90409
53.21513
51.39175
49.19887
44.70297
43.71511
42.78387
41.87503
40.99318
40.09243
39.22208
38.44084
37.78599
37.2833
36.93936
36.67342
36.40447
36.32348
36.45692
36.78574
37.24971
37.78342
38.35808
38.96739
39.62307
40.32446
41.0563
41.81058
42.58458
43.37511
44.17827
44.98675
45.79818
46.61747
47.4548
48.30224
49.17004
50.07689
51.03411
51.9255
52.69772
53.26756
53.71852
53.97586
54.01761
53.85517
53.50343
52.97999
52.30701
51.51034
50.61684
49.6506
48.63085
47.57315
46.49159
45.39785
44.30308
43.21805
42.15387
41.12216
40.13191
39.19023
38.29903
37.45644
36.65804
35.89763
35.16871
34.47075
33.80691
33.17654
32.58424
32.03311
31.52269
31.0484
30.60237
30.17582
29.76112
29.35393
28.95308
28.56064
28.18049
27.81625
27.47044
27.14393
26.83544
26.5419
26.25935
25.98366
25.71103
25.43877
25.16601
24.89394
24.62542
24.36527
24.11844
23.8879
23.67273
23.46821
23.26729
23.06287
22.85053
22.63059
22.40839
22.19197
21.98925
21.80528
21.63907
21.4843
21.33279
21.17739
21.01446
20.84534
20.67614
20.51562
20.37194
20.24913
20.14496
20.05262
19.96525
19.88009
19.80001
19.73227
19.68555
19.66566
19.67119
19.69384
19.72322
19.75213
19.77936
19.80899
19.84809
19.90368
19.9785
20.06697
20.15719
20.2335
20.28911
20.32829
20.36235
20.40462
20.46331
20.53395
20.60597
20.67027
20.72201
20.76024
20.78831
20.81237
20.83866
20.86987
20.90333
20.93304
20.95286
20.95864
20.94705
20.92567
20.89969
20.87186
20.84262
20.80924
20.76716
20.70971
20.63638
20.54515
20.44564
20.3427
20.23744
20.12956
20.01908
19.90725
19.79584
19.68605
19.57836
19.47281
19.36963
19.26969
19.17413
19.08355
18.99728
18.91383
18.83168
18.74982
18.66768
18.58496
18.5015
18.41766
18.33469
18.25414
18.17718
18.1048
18.0383
17.97804
17.92417
17.87696
17.83516
17.796
17.75627
17.71307
17.66488
17.61182
17.55532
17.49762
17.44126
17.38858
17.34144
17.3014
17.27
17.24893
17.23986
17.24406
17.26152
17.29066
17.32853
17.37132
17.41514
17.45675
17.4941
17.52645
17.55423
17.57857
17.60064
17.62096
17.63891
17.65248
17.65843
17.65269
17.63095
17.58924
17.5244
17.43455
17.31908
17.17872
17.01531
16.83158
16.63074
16.41624
16.19148
15.9596
15.7235
15.48598
15.25056
15.0212
14.79746
14.58061
14.37208
14.17352
13.98685
13.81421
13.65791
13.52026
13.40338
13.30901
13.2384
13.19222
13.17039
13.17202
13.19577
13.24012
13.30388
13.38631
13.48733
13.60729
13.74607
13.9023
14.07277
14.25208
14.43265
14.60513
14.75942
14.88546
14.97399
15.01778
15.01358
14.96395
14.87803
14.77094
14.66221
14.56293
14.47656
14.40362
14.34449
14.30107
14.2758
14.27053
14.2863
14.32328
14.38104
14.45849
14.55398
14.66603
14.79397
14.93837
15.10093
15.28386
15.48907
15.71676
15.96479
16.23037
16.51255
16.81196
17.13006
17.46979
17.83599
18.2347
18.67229
19.1543
19.68338
20.25659
20.86273
21.48293
22.09191
22.66245
23.17131
23.60048
23.94286
24.18315
24.31544
24.3356
24.24166
24.03497
23.71914
23.30124
22.7921
22.20606
21.56057
20.87387
20.16477
19.44996
18.74508
18.06266
17.41107
16.79619
16.22187
15.69148
15.20667
14.76774
14.37405
14.0249
13.71984
13.45833
13.2403
13.06446
12.92947
12.83373
12.77537
12.75215
12.76136
12.7997
12.86324
12.94746
13.04734
13.15742
13.27206
13.3856
13.49263
13.58824
13.6683
13.72971
13.77043
13.78958
13.78738
13.765
13.72439
13.66802
13.59859
13.5189
13.43156
13.33894
13.243
13.14538
13.04728
12.9495
12.85255
12.75674
12.66225
12.56922
12.4778
12.38819
12.30069
12.21569
12.13369
12.05528
11.98115
11.91206
11.84873
11.79186
11.74202
11.69962
11.66482
11.6375
11.61722
11.60318
11.59424
11.58893
11.58551
11.58206
11.57662
11.56728
11.55235
11.53043
11.50052
11.46209
11.41502
11.35962
11.29651
11.22655
11.15072
11.07
10.98532
10.89747
10.8071
10.71458
10.61992
10.52302
10.4235
10.321
10.21532
10.10634
9.994082
9.878716
9.760496
9.639791
9.517076
9.392925
9.267991
9.142988
9.01866
8.895726
8.774818
8.656427
8.54089
8.428413
8.319157
8.213359
8.111422
8.013829
7.920863
7.832446
7.748219
7.667711
7.590433
7.515917
7.443759
7.373654
7.305389
7.238785
7.173666
7.109857
7.047161
6.985366
6.924473
6.864473
6.80535
6.74709
6.689686
6.633081
6.577272
6.522311
6.468276
6.415273
6.363448
6.312882
6.263583
6.215568
6.168852
6.123431
6.079285
6.036375
5.994636
5.954052
5.914512
5.876218
5.840892
66.44824
49.48627
47.86617
45.47896
44.47721
43.26983
42.32839
41.53982
40.89528
39.86014
37.25322
37.17479
37.11601
37.06933
37.00192
36.90055
36.80136
36.73434
36.70942
36.71181
36.59442
36.23296
35.87174
35.51554
35.17242
34.84721
34.56449
34.34551
34.19956
34.1314
34.13502
34.20029
34.34699
34.60749
34.99366
35.49235
36.06722
36.68085
37.31379
37.97738
38.67616
39.40375
40.15895
40.93729
41.73709
42.55705
43.39881
44.25094
45.09728
45.95235
46.86271
47.77082
48.66662
49.52885
50.29694
50.91167
51.32368
51.50805
51.46702
51.19465
50.69936
50.00278
49.13206
48.11656
46.98734
45.77768
44.51996
43.24433
41.97396
40.72511
39.50719
38.3239
37.1785
36.07471
35.02148
34.03198
33.12475
32.30206
31.56048
30.8885
30.2727
29.6998
29.15881
28.64005
28.14103
27.66699
27.22549
26.82259
26.45974
26.13245
25.83141
25.54562
25.26554
24.98528
24.70307
24.42082
24.14323
23.87609
23.62433
23.39067
23.17481
22.97366
22.78253
22.5961
22.40917
22.21795
22.02101
21.81935
21.61691
21.42038
21.23679
21.07125
20.92381
20.78866
20.65719
20.52084
20.37385
20.21565
20.05211
19.89433
19.7535
19.63518
19.53763
19.45356
19.374
19.2921
19.20597
19.11994
19.04373
18.98927
18.96549
18.97312
19.00379
19.04684
19.0991
19.16979
19.27718
19.4394
19.66524
19.94708
20.25873
20.5659
20.84369
21.08692
21.30894
21.53343
21.78447
22.07715
22.40697
22.74372
23.04834
23.28411
23.44911
23.57072
23.68883
23.84105
24.03537
24.2452
24.4418
24.59844
24.70944
24.785
24.84335
24.9021
24.97169
25.05071
25.1269
25.18554
25.21639
25.21653
25.18543
25.14371
25.09827
25.04787
24.98861
24.91467
24.82125
24.70063
24.55742
24.38684
24.20818
24.02744
23.84303
23.65303
23.45809
23.26118
23.06544
22.87303
22.68511
22.50246
22.32632
22.15869
22.00107
21.85347
21.7139
21.57985
21.44951
21.3222
21.19805
21.07773
20.96209
20.8523
20.74975
20.65512
20.56841
20.48953
20.41718
20.34906
20.28258
20.21397
20.13858
20.05201
19.95091
19.83452
19.70532
19.56754
19.42534
19.28179
19.13855
18.99581
18.85277
18.70868
18.56422
18.42216
18.28403
18.1518
18.02707
17.91079
17.80308
17.70284
17.60833
17.51804
17.43104
17.34712
17.26677
17.19094
17.12065
17.05643
16.99785
16.94332
16.89013
16.83476
16.7733
16.702
16.61765
16.51793
16.40161
16.2685
16.11947
15.95615
15.78076
15.59583
15.40398
15.20773
15.00943
14.81128
14.61558
14.42558
14.24369
14.07122
13.90986
13.76158
13.62865
13.51354
13.41878
13.34682
13.29977
13.27919
13.28594
13.31985
13.37972
13.46335
13.56845
13.69309
13.83618
13.99779
14.17896
14.38097
14.60404
14.84621
15.10276
15.3657
15.62378
15.86406
16.07314
16.23783
16.34561
16.38667
16.35743
16.26372
16.1209
15.95127
15.78031
15.62179
15.47735
15.34304
15.21656
15.10049
14.99903
14.91463
14.84823
14.80037
14.7714
14.76095
14.7679
14.79086
14.82855
14.88047
14.94764
15.0317
15.1341
15.25559
15.39626
15.55584
15.73389
15.92984
16.14337
16.37463
16.62441
16.89415
17.18604
17.50278
17.84648
18.21709
18.61076
19.01909
19.42963
19.82769
20.19873
20.52989
20.81116
21.03397
21.19161
21.27864
21.2906
21.22403
21.07701
20.84993
20.54595
20.17111
19.73409
19.24569
18.71821
18.16465
17.59786
17.02977
16.4708
15.92983
15.41397
14.92714
14.47186
14.04962
13.66139
13.30771
12.98898
12.70568
12.45753
12.24388
12.06407
11.91737
11.80294
11.7197
11.66633
11.6411
11.6419
11.66612
11.71071
11.77216
11.84658
11.92974
12.01729
12.10492
12.18858
12.26465
12.33015
12.38282
12.42124
12.44484
12.45384
12.44912
12.4321
12.40454
12.36837
12.32552
12.2778
12.22681
12.17384
12.11989
12.06568
12.01168
11.95818
11.90535
11.8533
11.80214
11.75199
11.70306
11.65561
11.60999
11.56661
11.52592
11.48843
11.4546
11.42485
11.39949
11.37871
11.36251
11.35069
11.34282
11.33821
11.33596
11.33492
11.33378
11.33113
11.32552
11.31561
11.30018
11.27827
11.24921
11.21266
11.16855
11.1171
11.05868
10.99376
10.92284
10.84634
10.76456
10.67763
10.58553
10.48816
10.3854
10.27694
10.16282
10.04317
9.918332
9.788784
9.655173
9.518284
9.379004
9.238291
9.097137
8.956542
8.817477
8.680855
8.547482
8.418013
8.292898
8.172365
8.056449
7.945113
7.83842
7.736672
7.640286
7.549446
7.463944
7.383329
7.307073
7.23463
7.165453
7.099033
7.034929
6.972789
6.912319
6.853264
6.795414
6.7386
6.682688
6.627564
6.573117
6.519238
6.465819
6.412739
6.359872
6.307256
6.254958
6.203054
6.151631
6.10076
6.050504
6.000964
5.95225
5.904458
5.857675
5.811974
5.767358
5.723798
5.681327
5.639873
5.599686
5.562758
90.67737
38.3415
32.10193
30.81355
30.15921
29.89377
29.92606
30.1318
30.46662
30.89207
31.25229
31.43181
31.61367
31.78241
31.94026
32.07961
32.20823
32.3273
32.42356
32.47415
32.45369
32.37887
32.30466
32.23825
32.18681
32.1566
32.15927
32.20451
32.29102
32.42017
32.59337
32.81371
33.09196
33.43578
33.85088
34.32963
34.85273
35.40061
35.99802
36.65418
37.36126
38.11958
38.93119
39.77104
40.63436
41.51793
42.4387
43.37566
44.27709
45.17823
46.08429
46.95942
47.73914
48.36693
48.79277
48.97718
48.90846
48.59451
48.02022
47.21329
46.20514
45.03122
43.73008
42.34034
40.89882
39.44142
38.00219
36.61234
35.29472
34.06193
32.91542
31.84814
30.84944
29.91954
29.06404
28.28727
27.5938
26.98676
26.46284
26.00757
25.6003
25.22023
24.85131
24.48571
24.12495
23.7775
23.45476
23.16661
22.91696
22.70137
22.50867
22.32563
22.1412
21.94909
21.74797
21.54046
21.33215
21.1303