/*--------------------------------*- C++ -*----------------------------------*\
| =========                 |                                                 |
| \\      /  F ield         | foam-extend: Open Source CFD                    |
|  \\    /   O peration     | Version:     3.1                                |
|   \\  /    A nd           | Web:         http://www.extend-project.de       |
|    \\/     M anipulation  |                                                 |
\*---------------------------------------------------------------------------*/
FoamFile
{
    version     2.0;
    format      ascii;
    class       volScalarField;
    location    "16.5";
    object      p;
}
// * * * * * * * * * * * * * * * * * * * * * * * * * * * * * * * * * * * * * //

dimensions      [1 -1 -2 0 0 0 0];

internalField   nonuniform List<scalar> 
119952
(
5061.981
3359.988
3124.44
3363.289
3616.577
3406.155
3344.83
3298.696
3275.254
3258.362
3246.937
3240.756
3238.503
3239.155
3242.471
3247.894
3253.42
3255.727
3242.264
3156.02
3542.468
3366.368
3292.568
3795.841
3790.438
3850.367
3915.667
4055.537
4452.885
7850.11
2931.445
2872.623
2869.105
2858.554
2849.15
2839.792
2833.468
2829.068
2826.729
2797.765
2768.864
2781.585
2770.864
2763.736
2757.095
2752.511
2749.336
2746.993
2745.969
2735.762
2732.763
2711.468
2706.371
2707.656
2708.597
2711.493
2716.116
2720.42
2733.742
2733.956
2737.502
2753.076
2768.859
2785.31
2804.253
2825.874
2859.849
2956.794
3149.448
3009.74
2956.195
3056.436
3105.183
3084.625
3038.283
3008.942
2990.246
2976.768
2968.603
2965.114
2964.976
2967.719
2972.887
2979.783
2987.551
2995.315
3004.146
3022.161
3073.29
3123.744
3152.986
3289.453
3483.444
3543.648
3578.858
3614.886
3560.512
3300.115
3262.52
3354.931
3402.207
3445.627
3489.666
3529.728
3568.452
3607.289
3646.654
3686.92
3728.287
3770.788
3814.377
3858.93
3904.274
3950.187
3996.401
4042.608
4088.481
4133.684
4177.901
4220.852
4262.31
4302.124
4340.251
4376.749
4411.798
4445.735
4478.976
4511.968
4545.214
4579.244
4614.546
4651.536
4690.532
4731.757
4775.328
4821.267
4869.501
4919.864
4972.101
5025.895
5080.886
5136.711
5193.007
5249.449
5305.713
5361.802
5420.566
5488.408
5550.436
5601.615
5655.177
5708.618
5760.828
5812.365
5863.05
5912.803
5961.514
6009.079
6055.42
6100.445
6144.118
6186.349
6227.065
6266.317
6304.042
6340.151
6374.674
6407.627
6438.967
6468.71
6496.832
6523.416
6548.407
6571.766
6593.468
6613.487
6631.836
6648.346
6663.001
6675.74
6686.507
6695.249
6701.916
6706.462
6708.847
6709.033
6706.995
6702.719
6696.194
6687.443
6676.462
6663.319
6647.96
6630.452
6610.703
6589.388
6569.243
6589.542
6559.97
6533.441
6506.754
6478.034
6449.105
6420.678
6393.274
6367.719
6344.744
6326.232
6311.972
6302.019
6296.427
6294.83
6296.909
6302.814
6312.776
6326.526
6343.804
6364.317
6387.651
6413.263
6440.766
6469.971
6500.698
6532.796
6566.043
6600.347
6635.712
6672.145
6709.909
6745.122
6753.748
6683.054
6711.442
6767.148
6807.145
6839.576
6869.107
6896.11
6919.254
6938.794
6954.982
6967.419
6976.012
6981.913
6987.268
6994.394
7004.639
7018.081
7034.203
7052.07
7071.022
7090.455
7109.944
7129.225
7148.083
7166.371
7184.004
7200.918
7217.056
7232.409
7246.991
7260.782
7273.719
7285.796
7297.083
7307.568
7317.184
7311.497
7310.221
7310.507
7317.478
7322.327
7326.793
7331.05
7334.773
7337.934
7340.604
7342.816
7344.583
7345.909
7346.771
7347.247
7347.39
7347.208
7346.729
7345.982
7344.954
7343.767
7342.429
7340.985
7339.484
7337.971
7336.483
7335.057
7333.723
7332.505
7331.428
7330.484
7329.689
7329.042
7328.534
7328.151
7327.877
7327.694
7327.584
7327.525
7327.497
7327.483
7327.47
7327.454
7327.449
7327.416
7326.975
7325.607
7323.762
7321.892
7319.806
7317.472
7314.878
7311.869
7307.028
7299.248
7298.01
7294.303
7289.253
7283.659
7277.608
7271.118
7264.26
7257.036
7249.481
7241.641
7233.576
7225.36
7217.079
7208.829
7200.717
7192.851
7185.351
7178.334
7171.864
7166.21
7161.329
7157.387
7154.455
7152.599
7151.865
7152.28
7153.848
7156.553
7160.352
7165.182
7170.957
7177.57
7184.897
7192.797
7201.112
7209.678
7218.324
7226.879
7235.18
7243.082
7250.454
7257.187
7263.194
7268.408
7272.787
7276.31
7278.98
7280.814
7281.84
7282.1
7281.649
7280.559
7278.919
7276.82
7274.34
7271.559
7268.551
7265.384
7262.12
7258.813
7255.501
7252.215
7248.971
7245.829
7242.792
7239.847
7236.976
7234.149
7231.329
7228.468
7225.513
7222.38
7219.024
7215.341
7211.2
7206.428
7200.795
7193.974
7185.417
7174.357
7159.982
7145.942
7155.31
7228.185
5746.706
5595.844
5416.955
5245.56
5077.765
4914.902
4757.735
4606.338
4461.001
4297.201
4159.637
4039.224
3918.72
3808.93
3706.998
3612.719
3526.633
3443.594
3321.233
3274.786
3203.074
3133.762
3077.458
3026.955
2980.95
2939.585
2901.007
2867.737
2840.541
2797.375
2768.328
2743.295
2718.578
2696.909
2676.932
2658.658
2644.036
2637.925
2607.533
2585.87
2574.773
2564.009
2552.708
2542.864
2533.984
2526.121
2519.33
2506.162
2501.438
2496.92
2490.265
2483.325
2477.484
2472.949
2470.457
2477.016
2392.186
2392.321
2396.906
2399.589
2399.917
2399.99
2401.653
2405.424
2410.867
2416.656
2425.831
2438.009
2450.407
2463.653
2479.931
2501.613
2531.528
2572.416
2620.122
2663.351
2678.251
2674.274
2684.16
2697.493
2699.44
2688.534
2672.259
2658.719
2650.66
2647.351
2647.426
2650.212
2655.55
2663.448
2673.877
2687.063
2703.844
2726.198
2756.847
2798.48
2852.677
2919.384
2999.779
3085.186
3150.096
3182.534
3182.75
3152.365
3096.955
3069.23
3089.591
3126.07
3165.184
3203.001
3239.252
3275.392
3312.57
3351.197
3391.331
3432.922
3475.872
3520.042
3565.275
3611.376
3658.097
3705.122
3752.076
3798.547
3844.129
3888.442
3931.161
3972.038
4010.903
4047.747
4082.707
4115.988
4148.092
4179.638
4211.103
4243.049
4276.171
4311.019
4347.983
4387.319
4429.15
4473.473
4520.197
4569.152
4620.12
4672.836
4727.027
4782.403
4838.721
4895.757
4953.421
5011.768
5071.107
5131.412
5192.091
5252.014
5309.006
5364.277
5418.737
5472.355
5525.064
5576.689
5627.079
5676.126
5723.758
5769.933
5814.592
5857.707
5899.249
5939.189
5977.52
6014.31
6049.537
6083.142
6115.157
6145.613
6174.481
6201.754
6227.432
6251.547
6274.057
6294.882
6313.97
6331.294
6346.788
6360.387
6372.03
6381.665
6389.238
6394.706
6398.018
6399.149
6398.048
6394.737
6389.16
6381.406
6371.392
6359.327
6345.038
6328.89
6310.495
6290.475
6267.923
6245.169
6294.903
6264.487
6239.966
6213.082
6184.445
6155.528
6127.044
6099.801
6074.795
6052.756
6034.958
6021.319
6012.454
6008.253
6008.409
6012.686
6020.966
6033.171
6049.069
6068.369
6090.709
6115.588
6142.477
6171.001
6200.846
6231.772
6263.679
6296.374
6329.479
6362.938
6395.966
6425.042
6449.66
6455.198
6447.584
6472.954
6508.976
6545.179
6576.264
6604.365
6630.3
6653.371
6673.098
6688.741
6700.335
6707.94
6712.747
6717.039
6723.261
6732.756
6745.591
6761.157
6778.598
6797.53
6816.846
6836.108
6855.252
6873.983
6892.139
6909.655
6926.464
6942.466
6957.679
6972.148
6985.884
6998.763
7010.791
7022.065
7032.851
7045.188
6993.953
7003.552
7009.047
7012.893
7017.407
7022.588
7026.672
7030.434
7033.607
7036.184
7038.283
7039.953
7041.181
7042.055
7042.448
7042.448
7042.116
7041.486
7040.565
7039.427
7038.115
7036.668
7035.122
7033.522
7031.916
7030.344
7028.844
7027.444
7026.172
7025.055
7024.058
7023.227
7022.552
7022.028
7021.629
7021.344
7021.153
7021.035
7020.965
7020.918
7020.873
7020.806
7020.685
7020.456
7020.036
7019.297
7018.131
7016.591
7014.81
7012.806
7010.525
7007.872
7004.652
7000.511
6995.97
6991.632
6987.786
6983.133
6977.651
6971.65
6965.207
6958.352
6951.115
6943.534
6935.65
6927.522
6919.22
6910.833
6902.455
6894.193
6886.162
6878.479
6871.267
6864.649
6858.748
6853.58
6849.33
6846.099
6843.933
6842.868
6842.928
6844.115
6846.414
6849.785
6854.162
6859.463
6865.586
6872.411
6879.802
6887.608
6895.67
6903.825
6911.897
6919.735
6927.204
6934.186
6940.577
6946.296
6951.282
6955.495
6958.92
6961.561
6963.439
6964.583
6965.033
6964.817
6963.985
6962.667
6960.94
6958.871
6956.531
6953.988
6951.3
6948.526
6945.715
6942.907
6940.132
6937.415
6934.779
6932.226
6929.744
6927.311
6924.899
6922.471
6919.986
6917.387
6914.621
6911.613
6908.299
6904.545
6900.271
6895.289
6889.614
6883.201
6876.886
6871.851
6870.766
6874.012
6882.704
2919.842
2967.665
3037.939
3124.832
3229.651
3351.028
3488.424
3641.316
3808.927
3987.257
4159.894
4358.143
4562.146
4771.315
4983.693
5196.771
5405.267
5608.542
5804.759
5979.13
6146.603
6299.193
6432.741
6542.95
6628.043
6686.77
6718.006
6721.11
6701.466
6652.292
6577.507
6480.502
6364.202
6231.008
6083.724
5925.271
5758.984
5588.289
5403.085
5229.665
5055.026
4883.111
4715.314
4552.248
4395.024
4244.373
4101.26
3964.936
3832.124
3710.771
3596.062
3488.879
3389.918
3298.387
3214.577
3147.212
2967.921
2901.544
2846.572
2792.526
2739.955
2691.168
2647.173
2607.664
2571.835
2538.208
2506.285
2477.621
2450.557
2424.264
2399.669
2377.666
2358.241
2341.026
2325.197
2309.734
2295.347
2281.328
2267.187
2253.629
2241.412
2230.73
2221.381
2212.982
2205.13
2198.469
2192.204
2185.281
2178.204
2171.643
2165.875
2160.926
2156.488
2153.008
2150.175
2150.29
2151.335
2150.473
2148.827
2148.053
2149.202
2152.584
2157.91
2165.225
2174.356
2184.385
2195.527
2208.668
2224.912
2245.615
2271.35
2301.142
2333.6
2366.605
2387.87
2392.733
2395.934
2404.439
2409.468
2405.919
2397.685
2390.521
2386.943
2386.804
2389.364
2394.264
2401.657
2411.941
2425.418
2442.452
2463.673
2489.863
2522.255
2562.95
2613.177
2669.96
2732.049
2796.397
2851.012
2883.725
2894.815
2888.296
2869.5
2856.9
2868.669
2897.614
2931.967
2965.931
2999.202
3033.062
3068.578
3106.155
3145.785
3187.312
3230.523
3275.189
3321.105
3368.065
3415.806
3463.97
3512.096
3559.669
3606.178
3651.156
3694.189
3734.958
3773.224
3808.939
3842.294
3873.594
3903.585
3932.93
3962.139
3991.994
4023.458
4057.118
4093.358
4132.397
4174.254
4218.798
4265.817
4315.056
4366.238
4419.104
4473.407
4528.95
4585.562
4643.152
4701.643
4761.008
4821.039
4881.51
4942.254
5003.019
5062.612
5120.293
5176.644
5232.054
5286.411
5339.5
5391.128
5441.172
5489.561
5536.252
5581.226
5624.463
5665.947
5705.706
5743.775
5780.178
5814.931
5848.054
5879.578
5909.516
5937.875
5964.7
5989.932
6013.592
6035.585
6055.896
6074.468
6091.237
6106.135
6119.101
6130.071
6138.985
6145.791
6150.441
6152.894
6153.12
6151.086
6146.808
6140.283
6131.575
6120.684
6107.769
6092.804
6076.028
6057.346
6037.198
6015.736
5994.459
5972.277
5946.781
5918.233
5887.92
5857.017
5826.215
5796.097
5767.432
5741.195
5718.503
5700.137
5687.618
5680.069
5677.574
5680.056
5687.157
5698.466
5713.61
5732.266
5754.098
5778.691
5805.583
5834.282
5864.301
5895.285
5926.864
5958.713
5990.662
6022.227
6052.882
6081.611
6107.958
6126.66
6142.811
6158.551
6180.675
6210.151
6241.228
6271.175
6299.277
6325.038
6347.573
6367.19
6383.828
6396.864
6406.512
6413.794
6420.573
6428.735
6438.981
6451.274
6465.616
6481.729
6499.218
6517.865
6536.766
6555.617
6573.987
6591.9
6609.147
6625.612
6641.17
6655.898
6670.039
6683.472
6695.671
6707.142
6718.097
6728.144
6737.772
6746.254
6753.072
6759.429
6765.685
6771.504
6776.045
6781.406
6785.619
6789.027
6791.798
6794.051
6795.84
6797.176
6798.082
6798.548
6798.612
6798.313
6797.687
6796.768
6795.614
6794.266
6792.761
6791.153
6789.491
6787.816
6786.17
6784.591
6783.113
6781.762
6780.542
6779.513
6778.632
6777.906
6777.361
6776.898
6776.569
6776.343
6776.201
6776.11
6776.04
6775.962
6775.845
6775.65
6775.33
6774.824
6774.079
6773.02
6771.626
6769.955
6768.049
6765.871
6763.425
6760.761
6758.103
6754.903
6750.621
6745.659
6740.314
6734.636
6728.603
6722.185
6715.372
6708.174
6700.619
6692.742
6684.593
6676.239
6667.761
6659.252
6650.815
6642.562
6634.61
6627.078
6620.086
6613.751
6608.163
6603.482
6599.761
6597.079
6595.485
6594.998
6595.624
6597.361
6600.167
6603.973
6608.705
6614.275
6620.57
6627.456
6634.79
6642.421
6650.199
6657.943
6665.486
6672.703
6679.477
6685.707
6691.309
6696.223
6700.407
6703.847
6706.549
6708.538
6709.846
6710.516
6710.581
6710.058
6709.034
6707.612
6705.884
6703.924
6701.783
6699.511
6697.162
6694.79
6692.419
6690.082
6687.81
6685.616
6683.5
6681.45
6679.443
6677.453
6675.446
6673.385
6671.222
6668.909
6666.39
6663.606
6660.493
6656.991
6653.103
6648.866
6644.555
6640.54
6637.433
6635.782
6636.455
6639.848
2765.85
2738.044
2707.402
2664.402
2636.928
2588.285
2583.865
2596.866
2623.747
2630.709
2620.053
2625.454
2653.061
2699.484
2763.886
2845.623
2943.84
3057.789
3187.571
3331.448
3489.51
3660.707
3841.965
4032.803
4231.067
4434.631
4641.203
4848.253
5053.433
5254.257
5448.99
5609.417
5782.461
5931.43
6059.048
6164.121
6244.361
6297.961
6324.204
6323.61
6297.441
6245.145
6167.536
6067.386
5947.739
5811.481
5661.633
5501.186
5333.143
5160.468
4985.795
4811.792
4639.659
4470.647
4306.032
4146.639
3993.181
3846.215
3706.466
3573.761
3447.781
3329.375
3219.11
3116.93
3022.502
2935.112
2853.973
2777.485
2701.936
2636.294
2579.906
2525.958
2474.013
2426.316
2383.742
2345.771
2311.219
2279.373
2249.907
2221.709
2194.389
2168.552
2144.699
2123.292
2104.425
2087.663
2072.571
2058.974
2045.618
2031.309
2016.926
2003.398
1991.088
1980.18
1970.697
1962.771
1956.078
1949.74
1943.278
1936.702
1929.903
1923.126
1917.072
1911.594
1906.771
1904.153
1902.897
1902.049
1901.024
1899.368
1897.654
1896.82
1897.783
1900.825
1905.856
1912.787
1920.957
1930.018
1940.219
1952.057
1966.11
1983.205
2003.705
2027.26
2052.974
2078.555
2097.231
2106.281
2111
2116.463
2120.906
2121.898
2120.538
2119.611
2120.554
2123.403
2128.191
2135.041
2144.458
2157.08
2173.184
2192.929
2216.8
2244.922
2277.851
2316.801
2362.151
2412.532
2465.916
2519.302
2566.443
2600.633
2620.176
2628.098
2628.379
2630.544
2643.466
2667.008
2695.697
2725.485
2755.728
2787.325
2821.179
2857.687
2896.871
2938.523
2982.285
3027.779
3074.734
3122.957
3172.196
3222.055
3271.978
3321.308
3369.374
3415.562
3459.328
3500.249
3537.979
3572.377
3603.659
3631.915
3658.689
3685.091
3711.314
3737.91
3766.708
3798.455
3833.537
3872.11
3914.023
3958.944
4006.467
4056.181
4107.716
4160.784
4215.172
4270.745
4327.443
4385.258
4444.143
4504.05
4564.844
4626.401
4688.492
4750.711
4812.244
4872.441
4931.312
4989.002
5045.435
5100.407
5153.722
5205.244
5254.886
5302.603
5348.378
5392.197
5434.074
5474.054
5512.178
5548.496
5583.071
5615.952
5647.178
5676.785
5704.802
5731.247
5756.095
5779.305
5800.833
5820.678
5838.78
5855.046
5869.402
5881.781
5892.111
5900.325
5906.363
5910.169
5911.702
5910.935
5907.842
5902.445
5894.782
5884.921
5872.936
5859
5843.194
5825.695
5806.569
5786.178
5764.609
5742.164
5717.78
5689.591
5658.792
5626.837
5594.339
5561.701
5529.55
5498.851
5470.834
5446.817
5427.968
5415.104
5408.173
5406.911
5411.008
5420.04
5433.485
5450.752
5471.391
5495.061
5521.35
5549.773
5579.812
5610.923
5642.667
5674.534
5706.106
5737.176
5767.572
5796.711
5824.055
5850
5872.739
5891.548
5910.01
5933.947
5962.424
5991.726
6020.423
6048.063
6074.135
6098.045
6119.359
6137.892
6153.698
6166.577
6176.53
6184.49
6192.405
6202.213
6214.635
6229.329
6245.813
6263.573
6281.988
6300.213
6318.023
6335.475
6352.456
6368.953
6384.709
6399.694
6413.955
6427.459
6440.325
6452.295
6463.522
6474.1
6483.997
6493.068
6501.259
6509.04
6516.264
6522.5
6527.865
6532.914
6537.172
6541.067
6544.451
6547.259
6549.535
6551.348
6552.727
6553.681
6554.213
6554.346
6554.113
6553.546
6552.683
6551.566
6550.238
6548.739
6547.117
6545.425
6543.71
6542.016
6540.383
6538.848
6537.438
6536.17
6535.069
6534.137
6533.378
6532.753
6532.327
6532.005
6531.775
6531.631
6531.526
6531.442
6531.342
6531.193
6530.958
6530.595
6530.058
6529.302
6528.28
6526.968
6525.384
6523.566
6521.449
6519.071
6516.356
6513.272
6509.683
6505.569
6501.026
6496.069
6490.677
6484.836
6478.546
6471.816
6464.665
6457.124
6449.231
6441.038
6432.611
6424.031
6415.388
6406.787
6398.337
6390.156
6382.365
6375.085
6368.439
6362.54
6357.497
6353.406
6350.364
6348.422
6347.576
6347.829
6349.212
6351.692
6355.167
6359.568
6364.822
6370.823
6377.436
6384.517
6391.915
6399.47
6407.017
6414.409
6421.51
6428.191
6434.34
6439.873
6444.724
6448.854
6452.25
6454.929
6456.922
6458.266
6458.994
6459.142
6458.765
6457.871
6456.556
6454.947
6453.135
6451.187
6449.13
6447.018
6444.916
6442.847
6440.834
6438.902
6437.061
6435.309
6433.633
6432.003
6430.397
6428.788
6427.144
6425.423
6423.587
6421.591
6419.398
6416.978
6414.317
6411.445
6408.443
6405.484
6402.812
6400.642
6399.472
6399.4
6400.894
3031.546
2999.973
2971.159
2915.927
2868.387
2786.351
2738.15
2689.578
2641.476
2594.026
2547.765
2504.258
2462.316
2423.745
2390.079
2360.994
2275.819
2263.959
2260.922
2262.38
2264.405
2272.165
2291.705
2326.301
2377.007
2443.373
2525.313
2624.606
2740.107
2871.227
3017.069
3176.49
3348.401
3531.438
3723.6
3922.775
4126.923
4333.594
4540.93
4746.435
4945.538
5134.572
5303.833
5470.18
5617.614
5744.645
5849.619
5929.647
5982.718
6008.017
6005.774
5977.225
5923.297
5845.073
5744.68
5624.915
5488.648
5338.818
5178.462
5010.702
4838.532
4664.287
4490.964
4320.728
4154.284
3992.498
3835.825
3684.36
3539.229
3401.046
3269.647
3145.69
3029.977
2922.832
2824.064
2732.951
2648.751
2569.997
2496.543
2428.06
2365.156
2308
2254.821
2205.173
2159.99
2119.727
2083.845
2051.35
2021.404
1993.082
1965.583
1938.957
1913.692
1890.239
1869.172
1850.787
1834.936
1821.17
1808.513
1795.653
1782.025
1768.09
1754.472
1741.876
1730.753
1720.841
1713.206
1707.383
1701.888
1696.019
1689.542
1682.278
1674.42
1667.205
1661.518
1656.992
1654.762
1654.257
1653.491
1652.05
1649.954
1647.566
1645.505
1644.594
1647.37
1652.353
1658.293
1665.72
1674.001
1682.66
1692.015
1702.606
1715.398
1731.452
1750.8
1772.408
1794.716
1810.058
1819.834
1825.386
1829.386
1833.355
1837.407
1841.553
1846.417
1851.779
1857.11
1863.715
1872.044
1883.039
1897.742
1916.196
1937.996
1963.858
1993.011
2025.444
2062.39
2104.402
2150.751
2199.424
2247.654
2291.774
2327.824
2353.92
2371.701
2384.268
2396.04
2411.32
2431.67
2455.654
2481.445
2508.626
2537.886
2570.031
2605.49
2644.392
2686.5
2731.221
2777.933
2826.3
2876.223
2927.524
2979.759
3032.228
3084.102
3134.526
3182.681
3227.8
3269.232
3306.476
3339.314
3367.984
3392.93
3415.083
3436.068
3457.482
3480.067
3505.219
3534.274
3567.878
3606.075
3648.4
3694.178
3742.697
3793.297
3845.468
3898.888
3953.374
4008.855
4065.382
4123.091
4182.069
4242.417
4304.155
4367.153
4431.077
4495.405
4559.466
4622.648
4684.614
4745.214
4804.289
4861.637
4917.066
4970.441
5021.679
5070.734
5117.592
5162.26
5204.769
5245.17
5283.532
5319.937
5354.469
5387.202
5418.201
5447.523
5475.208
5501.274
5525.731
5548.556
5569.708
5589.101
5606.744
5622.53
5636.358
5648.143
5657.797
5665.248
5670.43
5673.279
5673.745
5671.799
5667.41
5660.635
5651.539
5640.193
5626.716
5611.393
5594.396
5575.942
5556.143
5535.103
5512.708
5488.684
5462.346
5433.161
5401.591
5368.256
5333.608
5298.212
5262.949
5229.054
5198.06
5171.608
5151.068
5137.388
5130.778
5130.846
5136.901
5148.298
5164.316
5184.043
5206.899
5232.615
5260.788
5290.881
5322.317
5354.453
5386.754
5418.707
5449.864
5479.994
5509.024
5536.979
5563.823
5589.368
5612.646
5634.228
5656.772
5682.212
5709.843
5738.148
5766.374
5794.024
5820.424
5844.916
5867.184
5887.177
5904.747
5919.752
5932.54
5943.943
5955.145
5967.543
5981.642
5997.038
6013.367
6030.432
6048.036
6065.733
6083.119
6099.976
6116.113
6131.537
6146.371
6160.596
6174.176
6187.043
6199.253
6210.64
6221.394
6231.513
6240.965
6249.65
6257.752
6265.237
6271.877
6277.686
6282.937
6287.789
6292.119
6295.955
6299.258
6302.046
6304.34
6306.187
6307.617
6308.639
6309.26
6309.496
6309.374
6308.92
6308.167
6307.151
6305.912
6304.494
6302.934
6301.281
6299.59
6297.904
6296.267
6294.717
6293.284
6291.995
6290.868
6289.912
6289.126
6288.494
6288.016
6287.669
6287.437
6287.275
6287.165
6287.069
6286.955
6286.788
6286.53
6286.139
6285.574
6284.801
6283.786
6282.51
6280.971
6279.152
6277.099
6274.733
6272.009
6268.902
6265.377
6261.415
6257.011
6252.155
6246.84
6241.062
6234.822
6228.128
6220.995
6213.45
6205.531
6197.29
6188.79
6180.111
6171.344
6162.591
6153.963
6145.578
6137.559
6130.028
6123.109
6116.921
6111.58
6107.203
6103.885
6101.703
6100.608
6100.563
6101.619
6103.776
6106.989
6111.192
6116.289
6122.157
6128.655
6135.631
6142.921
6150.349
6157.765
6165.046
6172.048
6178.638
6184.706
6190.16
6194.937
6198.997
6202.335
6204.979
6206.973
6208.339
6209.077
6209.225
6208.866
6208.019
6206.743
6205.135
6203.326
6201.39
6199.379
6197.359
6195.384
6193.483
6191.694
6190.035
6188.503
6187.087
6185.775
6184.537
6183.344
6182.169
6180.985
6179.755
6178.444
6177.019
6175.459
6173.753
6171.903
6169.944
6167.941
6166.013
6164.316
6162.988
6162.343
6162.29
6163.361
3208.037
3171.198
3131.261
3078.976
3041.175
2967.095
2929.079
2890.871
2851.899
2811.84
2771.332
2730.435
2687.177
2643.072
2595.983
2480.626
2432.281
2384.128
2336.103
2288.526
2241.743
2196.671
2153.551
2113.062
2076.34
2044.501
2018.017
1998.616
1986.134
1979.759
1979.804
1988.939
2009.414
2043.244
2092.025
2156.887
2238.073
2335.387
2448.824
2577.964
2721.978
2879.724
3049.781
3230.665
3420.565
3617.423
3819.339
4023.559
4227.351
4428.964
4625.238
4813.484
4988.873
5152.414
5298.502
5423.509
5525.061
5600.882
5649.304
5669.658
5662.339
5628.696
5570.419
5489.207
5387.053
5266.379
5129.765
4980.013
4820.055
4652.86
4481.846
4309.397
4138.392
3971.564
3809.616
3652.763
3501.446
3355.428
3214.556
3079.071
2950.053
2829.196
2717.201
2614.211
2519.959
2433.548
2353.951
2279.985
2211.247
2147.022
2086.705
2030.59
1978.777
1931.31
1888.697
1851.211
1818.076
1788.161
1760.441
1733.738
1707.432
1681.583
1656.6
1633.25
1612.911
1595.58
1580.633
1568.425
1557.278
1545.477
1532.634
1518.917
1504.832
1490.294
1478.241
1469.892
1462.999
1458.143
1454.014
1448.941
1442.417
1434.399
1425.522
1416.895
1410.257
1406.251
1404.852
1405.247
1405.265
1403.788
1400.748
1396.761
1392.722
1389.723
1390.834
1396.515
1402.703
1409.13
1416.259
1422.716
1428.708
1435.065
1443.474
1456.074
1472.918
1492.509
1512.401
1524.837
1533.963
1539.153
1541.929
1545.334
1551.546
1560.013
1570.531
1581.665
1588.56
1596.47
1605.785
1617.861
1634.306
1654.625
1677.368
1705.878
1736.19
1766.936
1801.704
1841.563
1885.804
1932.377
1978.918
2023.173
2061.947
2093.353
2118.342
2138.895
2156.987
2174.478
2192.868
2212.811
2234.282
2257.671
2284.019
2314.25
2348.705
2387.575
2430.573
2476.746
2525.082
2575.192
2627.24
2681.246
2736.74
2792.788
2848.221
2901.909
2952.889
3000.228
3042.826
3079.871
3110.909
3135.679
3156.042
3172.656
3186.329
3200.519
3217.482
3237.788
3263.275
3295.163
3333.325
3376.771
3424.262
3474.58
3526.678
3579.872
3633.807
3688.366
3743.583
3799.685
3856.977
3915.662
3976.143
4038.716
4103.317
4169.554
4236.775
4304.196
4371.055
4436.758
4500.897
4563.173
4623.351
4681.25
4736.759
4789.822
4840.416
4888.547
4934.241
4977.548
5018.536
5057.296
5093.93
5128.543
5161.235
5192.096
5221.206
5248.626
5274.394
5298.527
5321.017
5341.815
5360.891
5378.127
5393.465
5406.802
5418.028
5427.021
5433.687
5437.936
5439.688
5438.898
5435.55
5429.538
5421.035
5410.188
5397.113
5381.997
5365.099
5346.661
5326.999
5306.322
5284.616
5261.577
5236.813
5209.781
5179.99
5147.289
5111.869
5074.19
5035.015
4995.441
4956.975
4921.555
4891.368
4868.358
4853.55
4847.095
4848.384
4856.594
4870.977
4890.362
4913.102
4938.518
4966.654
4997.166
5029.414
5062.793
5096.634
5130.107
5162.55
5193.647
5223.113
5250.81
5277.062
5302.254
5326.611
5350.386
5374.36
5399.158
5425.447
5453.222
5481.707
5510.174
5538.055
5564.815
5590.028
5613.459
5634.984
5654.562
5672.301
5688.484
5703.569
5718.277
5733.359
5749.065
5765.336
5782.051
5799.038
5816.271
5833.507
5850.302
5866.415
5881.731
5896.308
5910.276
5923.61
5936.283
5948.32
5959.695
5970.517
5980.665
5990.173
5999.054
6007.29
6014.9
6021.84
6028.115
6033.796
6038.93
6043.559
6047.574
6051.143
6054.241
6056.87
6059.055
6060.83
6062.218
6063.233
6063.885
6064.187
6064.159
6063.823
6063.205
6062.332
6061.236
6059.95
6058.512
6056.972
6055.375
6053.765
6052.184
6050.672
6049.262
6047.983
6046.853
6045.885
6045.08
6044.434
6043.939
6043.578
6043.326
6043.144
6043.005
6042.88
6042.736
6042.535
6042.24
6041.819
6041.236
6040.454
6039.443
6038.182
6036.66
6034.862
6032.787
6030.402
6027.677
6024.588
6021.107
6017.204
6012.858
6008.059
6002.8
5997.075
5990.881
5984.224
5977.114
5969.577
5961.649
5953.378
5944.829
5936.078
5927.216
5918.345
5909.576
5901.027
5892.822
5885.085
5877.941
5871.514
5865.923
5861.299
5857.764
5855.317
5853.912
5853.606
5854.403
5856.298
5859.295
5863.324
5868.259
5873.969
5880.31
5887.126
5894.253
5901.527
5908.789
5915.904
5922.737
5929.165
5935.081
5940.393
5945.035
5948.968
5952.19
5954.754
5956.731
5958.118
5958.894
5959.088
5958.771
5958.006
5956.85
5955.364
5953.648
5951.787
5949.882
5947.996
5946.164
5944.427
5942.841
5941.417
5940.148
5939.031
5938.047
5937.167
5936.371
5935.634
5934.922
5934.2
5933.436
5932.605
5931.694
5930.698
5929.622
5928.495
5927.363
5926.309
5925.446
5924.848
5924.72
5924.931
5926.124
3181.39
3135.333
3091.587
3035.92
2980.1
2929.781
2883.453
2840.882
2801.373
2761.864
2656.886
2619.383
2581.911
2543.72
2504.465
2464.114
2422.507
2379.268
2334.47
2288.809
2243.181
2195.583
2147.522
2099.207
2051.04
2003.25
1956.298
1910.176
1865.411
1823.346
1785.329
1753.354
1727.736
1709.213
1698.884
1697.501
1706.593
1727.621
1761.858
1810.475
1874.311
1953.929
2049.502
2161.04
2288.182
2430.166
2585.956
2754.077
2932.93
3120.584
3314.776
3512.734
3712.35
3911.743
4108.77
4301.362
4486.435
4659.496
4817.802
4958.297
5077.257
5171.808
5239.945
5280.388
5292.713
5277.653
5236.93
5172.769
5087.432
4982.918
4861.434
4725.085
4576.272
4417.982
4252.616
4083.939
3914.861
3747.748
3585.353
3429.236
3279.561
3135.833
2997.133
2862.463
2732.52
2609.045
2493.383
2386.455
2288.917
2200.739
2120.737
2047.439
1979.541
1916.082
1856.168
1799.244
1745.518
1695.6
1650.231
1610.278
1576.217
1546.907
1520.721
1496.24
1471.834
1446.89
1421.609
1396.517
1372.477
1350.773
1336.114
1324.748
1314.467
1305.631
1295.113
1282.82
1268.798
1253.417
1237.364
1224.214
1216.54
1211.821
1208.932
1206.284
1202.018
1195.28
1186.127
1175.62
1165.336
1157.104
1152.851
1153.558
1156.305
1157.627
1155.869
1151.198
1144.903
1138.105
1132.265
1131.221
1137.963
1145.885
1152.171
1157.721
1161.547
1163.583
1164.519
1166.885
1175.674
1194.222
1215.712
1229.841
1239.658
1248.042
1251.754
1252.663
1255.434
1264.022
1279.139
1294.821
1307.931
1316.937
1326.118
1335.365
1348.131
1367.437
1390.719
1413.885
1442.932
1475.052
1503.148
1534.827
1573.227
1617.563
1664.831
1712.075
1758.55
1800.812
1836.965
1867.977
1894.841
1917.863
1936.85
1952.972
1968.47
1984.78
2003.276
2025.554
2053.232
2086.7
2126.118
2170.811
2219.068
2269.237
2321.107
2375.533
2432.831
2492.489
2553.376
2613.879
2672.265
2727.199
2777.626
2822.138
2859.463
2888.58
2909.126
2922.563
2930.575
2935.55
2941.192
2949.808
2962.866
2983.471
3013.587
3052.504
3098.289
3148.888
3202.314
3256.84
3311.583
3366.211
3420.698
3475.173
3530.19
3586.552
3644.399
3704.565
3767.757
3834.076
3903.158
3974.131
4045.869
4117.298
4187.542
4255.943
4322.035
4385.523
4446.251
4504.16
4559.251
4611.551
4661.104
4707.965
4752.205
4793.913
4833.197
4870.178
4904.981
4937.732
4968.547
4997.529
5024.764
5050.312
5074.202
5096.436
5116.987
5135.786
5152.729
5167.718
5180.639
5191.352
5199.725
5205.666
5208.989
5209.563
5207.33
5202.324
5194.579
5184.182
5171.21
5155.931
5138.739
5119.988
5099.977
5079.17
5057.774
5035.741
5012.618
4987.868
4960.656
4930.147
4895.807
4857.602
4815.985
4771.911
4726.702
4682.174
4640.836
4605.734
4579.608
4563.682
4557.642
4560.287
4570.655
4588.648
4612.999
4639.555
4667.292
4697.821
4731.04
4765.993
4801.85
4837.871
4873.089
4906.447
4937.524
4966.258
4992.995
5017.92
5041.427
5064.548
5087.973
5112.275
5137.931
5165.214
5193.836
5223.107
5252.315
5280.914
5308.579
5334.996
5359.961
5383.4
5405.336
5425.838
5445.054
5463.273
5480.904
5498.354
5515.84
5533.396
5550.959
5568.458
5585.82
5602.779
5619.067
5634.562
5649.234
5663.123
5676.28
5688.724
5700.487
5711.607
5722.089
5731.965
5741.259
5750.013
5758.197
5765.788
5772.787
5779.216
5785.083
5790.381
5795.122
5799.328
5803.078
5806.377
5809.232
5811.656
5813.673
5815.312
5816.6
5817.553
5818.187
5818.516
5818.556
5818.325
5817.842
5817.128
5816.205
5815.102
5813.851
5812.488
5811.052
5809.583
5808.121
5806.703
5805.364
5804.133
5803.031
5802.073
5801.266
5800.608
5800.092
5799.701
5799.411
5799.196
5799.025
5798.867
5798.688
5798.45
5798.118
5797.657
5797.033
5796.214
5795.173
5793.888
5792.344
5790.525
5788.421
5786.01
5783.267
5780.169
5776.688
5772.8
5768.483
5763.722
5758.507
5752.829
5746.683
5740.069
5732.998
5725.491
5717.582
5709.318
5700.76
5691.984
5683.079
5674.146
5665.296
5656.648
5648.324
5640.449
5633.149
5626.546
5620.759
5615.904
5612.094
5609.342
5607.68
5607.185
5607.835
5609.603
5612.45
5616.298
5621.035
5626.532
5632.644
5639.219
5646.096
5653.114
5660.122
5666.98
5673.56
5679.744
5685.427
5690.519
5694.95
5698.676
5701.705
5704.14
5706.082
5707.451
5708.205
5708.4
5708.107
5707.385
5706.308
5704.94
5703.345
5701.628
5699.891
5698.201
5696.611
5695.158
5693.878
5692.781
5691.86
5691.105
5690.491
5689.995
5689.607
5689.3
5689.047
5688.821
5688.595
5688.347
5688.069
5687.758
5687.414
5687.054
5686.713
5686.436
5686.309
5686.344
5686.735
5687.298
5688.834
2923.234
2861.599
2735.733
2687.822
2641.282
2598.115
2557.852
2519.809
2483.204
2447.642
2412.985
2377.42
2341.15
2303.82
2265.382
2225.53
2184.128
2141.012
2096.019
2049.551
2002.922
1955.301
1906.99
1858.241
1808.974
1758.85
1708.269
1658.211
1609.561
1563.588
1522.205
1486.923
1458.414
1437.488
1425.267
1422.775
1431.224
1451.723
1485.397
1533.193
1595.847
1673.947
1767.827
1877.498
2002.634
2142.472
2296.113
2461.859
2637.886
2821.562
3010.296
3202.155
3396.049
3590.998
3784.069
3971.935
4151.127
4317.596
4467.877
4599.093
4708.095
4792.14
4849.403
4878.978
4880.797
4856.011
4806.797
4735.751
4645.818
4539.082
4417.338
4282.671
4136.68
3981.973
3821.162
3656.11
3490.205
3327.775
3171.497
3022.86
2881.895
2747.15
2617.132
2490.945
2368.992
2252.487
2142.723
2041.165
1949.408
1868.306
1796.159
1730.64
1670.053
1613.006
1558.292
1505.34
1454.342
1406.161
1362.397
1325.766