/*--------------------------------*- C++ -*----------------------------------*\
| =========                 |                                                 |
| \\      /  F ield         | foam-extend: Open Source CFD                    |
|  \\    /   O peration     | Version:     3.1                                |
|   \\  /    A nd           | Web:         http://www.extend-project.de       |
|    \\/     M anipulation  |                                                 |
\*---------------------------------------------------------------------------*/
FoamFile
{
    version     2.0;
    format      ascii;
    class       volScalarField;
    location    "16.5";
    object      pd;
}
// * * * * * * * * * * * * * * * * * * * * * * * * * * * * * * * * * * * * * //

dimensions      [1 -1 -2 0 0 0 0];

internalField   nonuniform List<scalar> 
119952
(
5092.676
3397.403
3161.234
3396.815
3647.29
3437.507
3376.795
3331.274
3308.445
3292.166
3281.354
3275.787
3274.146
3275.411
3279.341
3285.377
3291.516
3294.436
3281.586
3195.955
3577.756
3401.918
3328.377
3826.503
3821.1
3881.029
3946.329
4086.199
4483.58
7880.804
3221.93
3159.567
3152.782
3138.965
3126.293
3113.663
3104.076
3096.408
3090.802
3059.69
3044.77
3057.491
3046.77
3039.643
3033.002
3028.418
3025.242
3022.899
3021.875
3042.324
3039.325
3018.031
3012.934
3014.218
3015.159
3018.055
3022.679
3026.983
3040.305
3040.519
3044.065
3059.638
3075.422
3091.873
3110.815
3132.437
3166.412
3263.356
3456.011
3316.303
3262.758
3362.998
3411.745
3391.187
3344.846
3315.504
3296.808
3283.33
3275.166
3271.676
3271.538
3274.282
3279.449
3286.346
3294.113
3301.878
3310.709
3328.723
3379.852
3430.306
3459.548
3596.016
3790.006
3850.211
3885.42
3921.449
3867.075
3606.678
3569.082
3661.493
3708.77
3752.189
3796.229
3836.29
3875.014
3913.851
3953.217
3993.483
4034.849
4077.351
4120.94
4165.492
4210.837
4256.75
4302.963
4349.171
4395.043
4440.247
4484.463
4527.414
4568.872
4608.687
4646.813
4683.311
4718.36
4752.297
4785.538
4818.531
4851.777
4885.806
4921.109
4958.098
4997.095
5038.32
5081.89
5127.83
5176.064
5226.426
5278.663
5332.458
5387.449
5443.273
5499.569
5556.012
5612.275
5668.365
5727.129
5794.971
5856.999
5908.177
5961.739
6015.181
6067.391
6118.927
6169.612
6219.365
6268.077
6315.642
6361.983
6407.007
6450.68
6492.912
6533.627
6572.879
6610.604
6646.713
6681.236
6714.19
6745.53
6775.273
6803.394
6829.979
6854.969
6878.329
6900.03
6920.049
6938.399
6954.909
6969.564
6982.303
6993.07
7001.811
7008.478
7013.025
7015.409
7015.596
7013.557
7009.281
7002.757
6994.005
6983.025
6969.881
6954.523
6937.015
6917.266
6895.95
6875.805
6865.448
6835.877
6809.347
6782.66
6753.941
6725.011
6696.584
6669.181
6643.625
6620.65
6602.138
6587.878
6577.926
6572.334
6570.736
6572.815
6578.72
6588.682
6602.433
6619.71
6640.223
6663.557
6689.17
6716.672
6745.877
6776.605
6808.703
6841.95
6876.253
6911.618
6948.051
6985.815
7021.029
7029.655
6958.96
6987.348
7043.054
7083.051
7115.483
7145.014
7172.016
7195.16
7214.7
7230.888
7243.326
7251.919
7257.82
7263.174
7270.3
7280.545
7293.988
7310.109
7327.977
7346.928
7366.362
7385.85
7405.132
7423.99
7442.277
7459.91
7476.824
7492.962
7508.315
7522.898
7536.689
7549.625
7561.703
7572.989
7583.474
7593.091
7618.06
7616.784
7617.07
7624.04
7628.89
7633.355
7637.613
7641.336
7644.496
7647.166
7649.378
7651.146
7652.471
7653.333
7653.81
7653.952
7653.771
7653.292
7652.545
7651.516
7650.33
7648.991
7647.548
7646.047
7644.533
7643.046
7641.62
7640.286
7639.067
7637.99
7637.046
7636.252
7635.604
7635.096
7634.713
7634.439
7634.257
7634.146
7634.087
7634.06
7634.046
7634.032
7634.017
7634.012
7633.979
7633.538
7632.17
7630.325
7628.454
7626.369
7624.035
7621.441
7618.432
7613.59
7605.811
7604.573
7600.866
7595.816
7590.221
7584.17
7577.68
7570.823
7563.599
7556.043
7548.203
7540.139
7531.923
7523.641
7515.391
7507.279
7499.413
7491.914
7484.897
7478.426
7472.772
7467.891
7463.95
7461.017
7459.161
7458.427
7458.842
7460.411
7463.115
7466.915
7471.745
7477.519
7484.132
7491.46
7499.359
7507.675
7516.241
7524.887
7533.441
7541.743
7549.644
7557.016
7563.75
7569.756
7574.97
7579.349
7582.873
7585.543
7587.376
7588.401
7588.662
7588.211
7587.121
7585.482
7583.383
7580.903
7578.122
7575.113
7571.946
7568.683
7565.375
7562.063
7558.777
7555.534
7552.391
7549.354
7546.41
7543.538
7540.711
7537.892
7535.031
7532.075
7528.942
7525.586
7521.904
7517.762
7512.99
7507.357
7500.536
7491.98
7480.919
7466.544
7452.505
7461.872
7534.748
6280.548
6126.405
5944.249
5769.587
5598.524
5432.394
5271.96
5117.295
4968.854
4818.357
4680.794
4560.38
4439.876
4330.087
4228.154
4133.875
4047.789
3964.75
3873.046
3826.598
3754.886
3685.574
3629.271
3578.768
3532.762
3491.397
3452.819
3419.549
3392.354
3349.188
3320.14
3295.107
3270.391
3248.722
3228.744
3210.47
3195.848
3189.737
3159.345
3137.682
3126.586
3115.821
3104.521
3094.676
3085.797
3077.933
3071.142
3057.975
3053.25
3048.733
3042.077
3035.138
3029.297
3024.761
3022.269
3028.829
3005.311
3005.446
3010.031
3012.714
3013.042
3013.115
3014.778
3018.549
3023.992
3029.781
3038.956
3051.134
3063.532
3076.778
3093.056
3114.738
3144.653
3185.541
3233.247
3276.476
3291.376
3287.399
3297.285
3310.618
3312.565
3301.659
3285.384
3271.844
3263.785
3260.476
3260.551
3263.337
3268.675
3276.573
3287.002
3300.188
3316.969
3339.323
3369.972
3411.605
3465.802
3532.509
3612.904
3698.311
3763.221
3795.659
3795.875
3765.49
3710.08
3682.355
3702.716
3739.195
3778.309
3816.126
3852.377
3888.517
3925.695
3964.322
4004.456
4046.047
4088.997
4133.167
4178.4
4224.501
4271.222
4318.247
4365.201
4411.672
4457.254
4501.567
4544.286
4585.163
4624.028
4660.872
4695.832
4729.113
4761.217
4792.763
4824.228
4856.174
4889.296
4924.144
4961.108
5000.444
5042.275
5086.598
5133.322
5182.277
5233.245
5285.961
5340.152
5395.528
5451.846
5508.882
5566.546
5624.893
5684.232
5744.537
5805.216
5865.139
5922.131
5977.402
6031.862
6085.48
6138.189
6189.814
6240.204
6289.251
6336.883
6383.058
6427.717
6470.832
6512.374
6552.314
6590.645
6627.435
6662.662
6696.267
6728.282
6758.738
6787.606
6814.879
6840.557
6864.672
6887.182
6908.007
6927.095
6944.419
6959.913
6973.512
6985.155
6994.79
7002.363
7007.831
7011.143
7012.274
7011.173
7007.862
7002.285
6994.531
6984.517
6972.452
6958.163
6942.015
6923.62
6903.6
6881.048
6858.294
6846.716
6816.299
6791.779
6764.894
6736.258
6707.341
6678.856
6651.614
6626.607
6604.569
6586.77
6573.132
6564.266
6560.065
6560.221
6564.498
6572.778
6584.984
6600.881
6620.181
6642.521
6667.4
6694.29
6722.813
6752.659
6783.585
6815.492
6848.186
6881.291
6914.751
6947.779
6976.854
7001.473
7007.01
6999.397
7024.766
7060.789
7096.991
7128.076
7156.178
7182.113
7205.184
7224.91
7240.553
7252.148
7259.752
7264.559
7268.852
7275.074
7284.568
7297.403
7312.969
7330.41
7349.343
7368.658
7387.921
7407.064
7425.795
7443.952
7461.467
7478.277
7494.278
7509.492
7523.96
7537.696
7550.576
7562.603
7573.877
7584.663
7597
7607.078
7616.677
7622.172
7626.018
7630.532
7635.713
7639.797
7643.559
7646.732
7649.309
7651.408
7653.078
7654.306
7655.18
7655.573
7655.573
7655.241
7654.611
7653.69
7652.552
7651.24
7649.793
7648.247
7646.647
7645.041
7643.469
7641.969
7640.569
7639.297
7638.18
7637.183
7636.352
7635.677
7635.154
7634.754
7634.469
7634.278
7634.16
7634.09
7634.043
7633.998
7633.931
7633.81
7633.581
7633.161
7632.422
7631.256
7629.716
7627.935
7625.931
7623.65
7620.997
7617.777
7613.636
7609.095
7604.757
7600.911
7596.258
7590.776
7584.775
7578.332
7571.477
7564.24
7556.659
7548.775
7540.647
7532.345
7523.958
7515.58
7507.318
7499.287
7491.604
7484.392
7477.774
7471.873
7466.705
7462.455
7459.224
7457.058
7455.993
7456.053
7457.24
7459.539
7462.91
7467.287
7472.588
7478.711
7485.536
7492.927
7500.733
7508.795
7516.95
7525.022
7532.86
7540.329
7547.311
7553.702
7559.421
7564.407
7568.62
7572.045
7574.686
7576.564
7577.707
7578.138
7577.86
7577.015
7575.726
7574.044
7571.994
7569.656
7567.113
7564.425
7561.651
7558.84
7556.032
7553.257
7550.54
7547.904
7545.351
7542.869
7540.436
7538.024
7535.596
7533.111
7530.512
7527.746
7524.738
7521.424
7517.67
7513.396
7508.414
7502.739
7496.326
7490.011
7484.976
7483.891
7487.137
7495.829
3700.828
3745.109
3812.117
3895.742
3997.294
4115.399
4249.532
4399.156
4563.501
4739.682
4926.3
5124.549
5328.552
5537.721
5750.1
5963.178
6171.673
6374.948
6571.166
6776.192
6943.665
7096.255
7229.803
7340.013
7425.105
7483.832
7515.069
7518.172
7498.529
7449.355
7374.57
7277.564
7161.264
7028.071
6880.786
6722.334
6556.047
6385.352
6200.147
6026.728
5852.089
5680.174
5512.377
5349.31
5192.087
5041.435
4898.322
4761.999
4629.186
4507.833
4393.125
4285.941
4186.98
4095.45
4011.64
3944.274
3826.296
3759.919
3704.947
3650.901
3598.33
3549.543
3505.548
3466.039
3430.21
3396.583
3364.66
3335.996
3308.932
3282.639
3258.044
3236.041
3216.616
3199.401
3183.572
3168.109
3153.722
3139.703
3125.562
3112.004
3099.787
3089.105
3079.756
3071.357
3063.505
3056.844
3050.579
3043.656
3036.579
3030.018
3024.25
3019.301
3014.863
3011.383
3008.55
3008.665
3009.71
3008.848
3007.202
3006.428
3007.577
3010.959
3016.285
3023.6
3032.731
3042.76
3053.902
3067.043
3083.287
3103.99
3129.725
3159.517
3191.975
3224.98
3246.245
3251.108
3254.309
3262.814
3267.843
3264.294
3256.06
3248.896
3245.318
3245.179
3247.739
3252.639
3260.032
3270.316
3283.793
3300.827
3322.048
3348.238
3380.63
3421.325
3471.552
3528.335
3590.424
3654.772
3709.387
3742.1
3753.19
3746.671
3727.874
3715.275
3727.044
3755.989
3790.342
3824.306
3857.577
3891.437
3926.953
3964.53
4004.16
4045.687
4088.898
4133.564
4179.48
4226.44
4274.181
4322.345
4370.471
4418.044
4464.553
4509.531
4552.564
4593.333
4631.599
4667.314
4700.669
4731.969
4761.96
4791.305
4820.514
4850.369
4881.833
4915.493
4951.733
4990.772
5032.629
5077.173
5124.192
5173.431
5224.613
5277.479
5331.782
5387.325
5443.937
5501.527
5560.018
5619.383
5679.414
5739.885
5800.629
5861.394
5920.987
5978.668
6035.019
6090.429
6144.786
6197.875
6249.503
6299.547
6347.936
6394.627
6439.601
6482.838
6524.322
6564.081
6602.15
6638.553
6673.306
6706.429
6737.953
6767.891
6796.25
6823.075
6848.307
6871.967
6893.96
6914.271
6932.843
6949.612
6964.51
6977.476
6988.446
6997.36
7004.166
7008.816
7011.269
7011.495
7009.461
7005.183
6998.658
6989.95
6979.059
6966.144
6951.179
6934.403
6915.721
6895.573
6874.111
6852.834
6830.652
6805.156
6776.608
6746.295
6715.392
6684.59
6654.472
6625.807
6599.57
6576.878
6558.512
6545.993
6538.444
6535.949
6538.431
6545.532
6556.841
6571.985
6590.641
6612.473
6637.066
6663.958
6692.657
6722.676
6753.66
6785.239
6817.088
6849.037
6880.602
6911.257
6939.986
6966.333
6985.035
7001.186
7016.926
7039.05
7068.526
7099.603
7129.55
7157.652
7183.413
7205.948
7225.565
7242.203
7255.239
7264.887
7272.169
7278.948
7287.11
7297.356
7309.649
7323.991
7340.104
7357.593
7376.24
7395.141
7413.992
7432.362
7450.275
7467.522
7483.987
7499.545
7514.273
7528.414
7541.847
7554.046
7565.517
7576.472
7586.519
7596.147
7604.629
7611.447
7617.804
7624.06
7629.879
7634.42
7639.781
7643.994
7647.402
7650.173
7652.426
7654.215
7655.551
7656.457
7656.923
7656.987
7656.688
7656.062
7655.143
7653.989
7652.641
7651.136
7649.528
7647.866
7646.191
7644.545
7642.966
7641.487
7640.137
7638.917
7637.888
7637.007
7636.281
7635.736
7635.273
7634.944
7634.718
7634.576
7634.485
7634.415
7634.337
7634.22
7634.025
7633.705
7633.199
7632.454
7631.395
7630.001
7628.33
7626.424
7624.246
7621.8
7619.136
7616.478
7613.278
7608.996
7604.034
7598.689
7593.011
7586.978
7580.56
7573.747
7566.549
7558.994
7551.117
7542.968
7534.614
7526.136
7517.627
7509.19
7500.937
7492.985
7485.453
7478.461
7472.126
7466.538
7461.857
7458.136
7455.454
7453.86
7453.373
7453.999
7455.736
7458.542
7462.348
7467.08
7472.65
7478.945
7485.831
7493.165
7500.796
7508.574
7516.318
7523.861
7531.077
7537.85
7544.078
7549.681
7554.597
7558.782
7562.222
7564.924
7566.913
7568.22
7568.88
7568.787
7567.658
7566.802
7565.762
7564.221
7562.297
7560.158
7557.886
7555.537
7553.165
7550.793
7548.457
7546.184
7543.991
7541.875
7539.825
7537.818
7535.828
7533.821
7531.76
7529.597
7527.284
7524.765
7521.981
7518.868
7515.366
7511.478
7507.241
7502.93
7498.915
7495.808
7494.157
7494.83
7498.223
3783.054
3743.694
3709.579
3676.058
3648.585
3630.598
3626.177
3639.178
3666.059
3673.021
3662.365
3667.766
3695.373
3741.797
3806.198
3887.936
3986.153
4100.101
4229.884
4373.761
4531.823
4703.02
4884.277
5075.116
5273.379
5476.943
5683.515
5890.565
6095.746
6296.569
6491.303
6713.042
6886.086
7035.055
7162.673
7267.746
7347.986
7401.586
7427.829
7427.235
7401.066
7348.77
7271.161
7171.011
7051.364
6915.106
6765.258
6604.811
6436.768
6264.093
6089.42
5915.417
5743.284
5574.272
5409.657
5250.264
5096.806
4949.84
4810.091
4677.386
4551.406
4433
4322.735
4220.555
4126.127
4038.737
3957.598
3881.11
3805.561
3739.919
3683.531
3629.583
3577.638
3529.941
3487.367
3449.396
3414.844
3382.998
3353.532
3325.334
3298.014
3272.177
3248.324
3226.917
3208.05
3191.288
3176.196
3162.599
3149.243
3134.934
3120.551
3107.023
3094.713
3083.805
3074.322
3066.396
3059.703
3053.365
3046.903
3040.327
3033.528
3026.751
3020.697
3015.219
3010.396
3007.778
3006.522
3005.674
3004.649
3002.993
3001.279
3000.445
3001.408
3004.45
3009.481
3016.412
3024.582
3033.643
3043.844
3055.682
3069.735
3086.83
3107.33
3130.885
3156.599
3182.18
3200.856
3209.906
3214.625
3220.088
3224.531
3225.523
3224.163
3223.236
3224.179
3227.028
3231.816
3238.666
3248.083
3260.705
3276.809
3296.554
3320.425
3348.547
3381.476
3420.426
3465.776
3516.157
3569.541
3622.927
3670.068
3704.258
3723.801
3731.723
3732.004
3734.169
3747.091
3770.633
3799.322
3829.11
3859.353
3890.95
3924.804
3961.312
4000.496
4042.148
4085.91
4131.404
4178.359
4226.582
4275.821
4325.68
4375.603
4424.933
4472.999
4519.187
4562.953
4603.874
4641.604
4676.002
4707.283
4735.54
4762.314
4788.716
4814.939
4841.535
4870.333
4902.08
4937.162
4975.735
5017.648
5062.569
5110.092
5159.806
5211.341
5264.409
5318.797
5374.37
5431.068
5488.883
5547.768
5607.675
5668.469
5730.026
5792.117
5854.336
5915.869
5976.066
6034.937
6092.627
6149.06
6204.032
6257.347
6308.869
6358.511
6406.228
6452.003
6495.822
6537.699
6577.679
6615.803
6652.121
6686.696
6719.577
6750.803
6780.41
6808.427
6834.872
6859.72
6882.93
6904.458
6924.303
6942.405
6958.671
6973.027
6985.406
6995.736
7003.95
7009.988
7013.794
7015.327
7014.56
7011.467
7006.07
6998.407
6988.546
6976.561
6962.625
6946.819
6929.32
6910.194
6889.803
6868.234
6845.789
6821.405
6793.216
6762.417
6730.462
6697.964
6665.326
6633.175
6602.476
6574.459
6550.442
6531.593
6518.729
6511.798
6510.536
6514.633
6523.665
6537.11
6554.377
6575.016
6598.686
6624.975
6653.398
6683.437
6714.548
6746.292
6778.159
6809.731
6840.801
6871.197
6900.336
6927.68
6953.625
6976.364
6995.173
7013.635
7037.572
7066.049
7095.351
7124.048
7151.688
7177.76
7201.67
7222.984
7241.517
7257.323
7270.202
7280.155
7288.115
7296.03
7305.838
7318.26
7332.954
7349.438
7367.198
7385.613
7403.838
7421.648
7439.1
7456.081
7472.578
7488.334
7503.319
7517.579
7531.084
7543.95
7555.92
7567.147
7577.725
7587.622
7596.693
7604.884
7612.665
7619.889
7626.125
7631.49
7636.539
7640.797
7644.692
7648.076
7650.884
7653.16
7654.973
7656.352
7657.306
7657.838
7657.971
7657.738
7657.171
7656.308
7655.191
7653.863
7652.364
7650.742
7649.05
7647.335
7645.641
7644.008
7642.473
7641.063
7639.795
7638.694
7637.762
7637.003
7636.378
7635.952
7635.63
7635.4
7635.256
7635.151
7635.067
7634.967
7634.818
7634.583
7634.22
7633.683
7632.927
7631.905
7630.593
7629.009
7627.191
7625.074
7622.696
7619.981
7616.897
7613.308
7609.194
7604.651
7599.694
7594.302
7588.461
7582.171
7575.441
7568.29
7560.749
7552.856
7544.663
7536.236
7527.656
7519.013
7510.412
7501.962
7493.781
7485.99
7478.71
7472.064
7466.165
7461.122
7457.031
7453.989
7452.047
7451.201
7451.454
7452.837
7455.317
7458.792
7463.193
7468.447
7474.448
7481.061
7488.142
7495.54
7503.095
7510.642
7518.034
7525.134
7531.804
7537.931
7543.473
7548.342
7552.478
7555.875
7558.554
7560.547
7561.891
7562.609
7562.63
7561.511
7560.405
7559.09
7557.857
7556.561
7554.786
7552.754
7550.643
7548.539
7546.464
7544.449
7542.521
7540.685
7538.934
7537.258
7535.628
7534.022
7532.413
7530.769
7529.048
7527.212
7525.216
7523.023
7520.603
7517.942
7515.07
7512.068
7509.109
7506.437
7504.267
7503.096
7503.025
7504.519
4299.892
4256.601
4216.762
4172.833
4125.294
4073.914
4025.713
3977.14
3929.038
3881.588
3835.328
3791.821
3749.878
3711.307
3677.642
3648.557
3624.694
3612.834
3609.797
3611.255
3613.28
3621.04
3640.58
3675.176
3725.882
3792.248
3874.188
3973.481
4088.982
4220.102
4365.944
4525.365
4697.276
4880.313
5072.475
5271.65
5475.798
5682.469
5889.805
6095.31
6294.413
6483.447
6652.708
6819.055
6966.489
7093.52
7198.494
7278.522
7331.593
7356.892
7354.649
7326.1
7272.172
7193.948
7093.555
6973.79
6837.523
6687.693
6527.337
6359.577
6187.407
6013.162
5839.839
5669.603
5503.159
5341.373
5184.7
5033.235
4888.104
4749.921
4618.522
4494.565
4378.852
4271.707
4172.939
4081.826
3997.626
3918.872
3845.418
3776.935
3714.031
3656.875
3603.696
3554.048
3508.865
3468.602
3432.72
3400.225
3370.279
3341.957
3314.458
3287.832
3262.567
3239.114
3218.047
3199.662
3183.811
3170.045
3157.388
3144.528
3130.9
3116.965
3103.347
3090.751
3079.628
3069.716
3062.081
3056.258
3050.763
3044.894
3038.417
3031.153
3023.295
3016.08
3010.393
3005.867
3003.637
3003.132
3002.366
3000.925
2998.829
2996.441
2994.38
2993.469
2996.245
3001.228
3007.168
3014.595
3022.876
3031.535
3040.89
3051.481
3064.273
3080.327
3099.675
3121.283
3143.591
3158.933
3168.709
3174.261
3178.261
3182.23
3186.282
3190.428
3195.292
3200.654
3205.985
3212.59
3220.919
3231.914
3246.617
3265.071
3286.871
3312.733
3341.886
3374.319
3411.265
3453.277
3499.626
3548.299
3596.529
3640.649
3676.699
3702.795
3720.576
3733.143
3744.915
3760.195
3780.545
3804.529
3830.32
3857.501
3886.761
3918.906
3954.365
3993.267
4035.375
4080.096
4126.808
4175.175
4225.098
4276.399
4328.634
4381.103
4432.977
4483.401
4531.556
4576.675
4618.107
4655.351
4688.189
4716.859
4741.804
4763.958
4784.943
4806.357
4828.942
4854.094
4883.149
4916.753
4954.95
4997.275
5043.053
5091.572
5142.172
5194.343
5247.763
5302.249
5357.73
5414.257
5471.966
5530.944
5591.292
5653.03
5716.028
5779.952
5844.28
5908.341
5971.523
6033.489
6094.089
6153.164
6210.512
6265.941
6319.316
6370.554
6419.609
6466.467
6511.135
6553.644
6594.045
6632.407
6668.812
6703.344
6736.077
6767.076
6796.398
6824.083
6850.149
6874.606
6897.431
6918.583
6937.976
6955.619
6971.405
6985.233
6997.018
7006.672
7014.123
7019.305
7022.154
7022.62
7020.674
7016.285
7009.51
7000.414
6989.068
6975.591
6960.268
6943.271
6924.817
6905.018
6883.978
6861.582
6837.558
6811.221
6782.036
6750.466
6717.131
6682.482
6647.084
6611.82
6577.926
6546.934
6520.483
6499.943
6486.263
6479.653
6479.721
6485.776
6497.173
6513.191
6532.918
6555.774
6581.49
6609.663
6639.756
6671.192
6703.328
6735.629
6767.582
6798.739
6828.869
6857.899
6885.854
6912.698
6938.243
6961.521
6983.103
7005.647
7031.087
7058.718
7087.023
7115.249
7142.898
7169.297
7193.789
7216.058
7236.052
7253.622
7268.627
7281.415
7292.818
7304.02
7316.418
7330.517
7345.913
7362.242
7379.307
7396.911
7414.608
7431.994
7448.851
7464.988
7480.412
7495.246
7509.471
7523.051
7535.918
7548.128
7559.515
7570.269
7580.388
7589.84
7598.525
7606.627
7614.112
7620.752
7626.561
7631.812
7636.664
7640.994
7644.83
7648.133
7650.921
7653.215
7655.062
7656.492
7657.514
7658.135
7658.371
7658.249
7657.795
7657.042
7656.026
7654.787
7653.369
7651.809
7650.156
7648.465
7646.779
7645.142
7643.592
7642.159
7640.87
7639.743
7638.787
7638.001
7637.369
7636.891
7636.544
7636.312
7636.15
7636.04
7635.944
7635.83
7635.663
7635.405
7635.014
7634.449
7633.676
7632.661
7631.385
7629.846
7628.027
7625.974
7623.608
7620.884
7617.777
7614.252
7610.29
7605.886
7601.03
7595.715
7589.937
7583.697
7577.003
7569.87
7562.325
7554.406
7546.165
7537.665
7528.986
7520.219
7511.466
7502.838
7494.453
7486.434
7478.903
7471.984
7465.796
7460.455
7456.078
7452.76
7450.578
7449.483
7449.438
7450.494
7452.651
7455.864
7460.067
7465.164
7471.032
7477.53
7484.506
7491.796
7499.224
7506.64
7513.921
7520.921
7527.486
7533.531
7538.987
7543.792
7547.87
7551.21
7553.854
7555.846
7557.21
7557.947
7558.09
7557.676
7556.268
7554.284
7552.677
7550.982
7549.859
7548.218
7546.233
7544.251
7542.326
7540.54
7538.9
7537.377
7535.962
7534.65
7533.412
7532.219
7531.044
7529.86
7528.63
7527.319
7525.894
7524.334
7522.628
7520.777
7518.817
7516.805
7514.872
7513.179
7511.859
7511.217
7511.165
7512.236
4715.672
4667.284
4623.898
4581.133
4543.332
4499.907
4461.891
4423.684
4384.711
4344.653
4304.144
4263.247
4219.989
4175.885
4128.795
4074.751
4026.406
3978.253
3930.228
3882.651
3835.868
3790.796
3747.676
3707.187
3670.465
3638.626
3612.142
3592.741
3580.259
3573.884
3573.929
3583.064
3603.539
3637.369
3686.15
3751.012
3832.198
3929.512
4042.949
4172.089
4316.103
4473.849
4643.906
4824.79
5014.69
5211.548
5413.464
5617.684
5821.476
6023.089
6219.363
6407.609
6582.998
6746.539
6892.627
7017.634
7119.186
7195.007
7243.429
7263.783
7256.464
7222.821
7164.544
7083.332
6981.178
6860.504
6723.89
6574.138
6414.18
6246.985
6075.971
5903.522
5732.517
5565.689
5403.741
5246.888
5095.571
4949.553
4808.681
4673.196
4544.178
4423.321
4311.326
4208.336
4114.084
4027.673
3948.076
3874.11
3805.372
3741.147
3680.83
3624.715
3572.902
3525.435
3482.822
3445.336
3412.201
3382.286
3354.566
3327.863
3301.557
3275.708
3250.725
3227.375
3207.036
3189.705
3174.758
3162.55
3151.403
3139.602
3126.759
3113.042
3098.957
3084.419
3072.366
3064.017
3057.124
3052.268
3048.139
3043.066
3036.542
3028.524
3019.647
3011.02
3004.382
3000.376
2998.977
2999.372
2999.39
2997.913
2994.873
2990.886
2986.847
2983.848
2984.959
2990.64
2996.828
3003.255
3010.384
3016.841
3022.833
3029.19
3037.599
3050.199
3067.043
3086.634
3106.526
3118.962
3128.088
3133.278
3136.054
3139.459
3145.671
3154.138
3164.656
3175.79
3182.685
3190.595
3199.91
3211.986
3228.431
3248.75
3271.493
3300.003
3330.315
3361.061
3395.829
3435.688
3479.929
3526.502
3573.043
3617.298
3656.072
3687.478
3712.467
3733.02
3751.112
3768.603
3786.993
3806.936
3828.407
3851.796
3878.144
3908.375
3942.83
3981.7
4024.697
4070.871
4119.207
4169.317
4221.365
4275.371
4330.865
4386.913
4442.346
4496.034
4547.014
4594.353
4636.951
4673.996
4705.034
4729.804
4750.167
4766.781
4780.454
4794.644
4811.607
4831.913
4857.4
4889.288
4927.45
4970.896
5018.387
5068.705
5120.803
5173.997
5227.932
5282.491
5337.708
5393.81
5451.102
5509.787
5570.268
5632.841
5697.442
5763.679
5830.9
5898.321
5965.18
6030.883
6095.022
6157.298
6217.476
6275.375
6330.884
6383.947
6434.541
6482.672
6528.366
6571.673
6612.661
6651.421
6688.055
6722.668
6755.36
6786.221
6815.331
6842.751
6868.519
6892.652
6915.142
6935.94
6955.016
6972.252
6987.59
7000.927
7012.153
7021.146
7027.812
7032.061
7033.813
7033.023
7029.675
7023.663
7015.16
7004.313
6991.238
6976.122
6959.224
6940.786
6921.124
6900.444
6878.736
6855.698
6830.937
6803.906
6774.114
6741.407
6705.956
6668.223
6629.047
6589.518
6551.091
6515.679
6485.493
6462.483
6447.675
6441.22
6442.508
6450.719
6465.101
6484.484
6507.219
6532.61
6560.696
6591.216
6623.514
6656.916
6690.759
6724.232
6756.675
6787.772
6817.238
6844.935
6871.187
6896.379
6920.736
6944.511
6968.485
6993.283
7019.572
7047.346
7075.824
7104.267
7132.142
7158.924
7184.151
7207.584
7229.109
7248.687
7266.426
7282.609
7297.694
7312.402
7327.484
7343.19
7359.461
7376.176
7393.162
7410.395
7427.632
7444.427
7460.54
7475.856
7490.433
7504.401
7517.735
7530.408
7542.445
7553.82
7564.642
7574.79
7584.298
7593.179
7601.415
7609.025
7615.965
7622.24
7627.921
7633.055
7637.684
7641.699
7645.268
7648.366
7650.995
7653.18
7654.955
7656.343
7657.358
7658.01
7658.312
7658.284
7657.948
7657.33
7656.457
7655.361
7654.075
7652.637
7651.097
7649.5
7647.89
7646.309
7644.797
7643.387
7642.108
7640.978
7640.01
7639.205
7638.559
7638.064
7637.703
7637.451
7637.269
7637.13
7637.005
7636.861
7636.66
7636.365
7635.944
7635.361
7634.579
7633.568
7632.307
7630.785
7628.987
7626.912
7624.527
7621.802
7618.713
7615.232
7611.329
7606.983
7602.184
7596.925
7591.2
7585.006
7578.349
7571.239
7563.702
7555.774
7547.503
7538.954
7530.203
7521.341
7512.47
7503.701
7495.152
7486.947
7479.21
7472.066
7465.639
7460.048
7455.424
7451.889
7449.442
7448.037
7447.731
7448.528
7450.423
7453.42
7457.449
7462.384
7468.094
7474.435
7481.251
7488.378
7495.652
7502.914
7510.029
7516.862
7523.287
7529.184
7534.494
7539.148
7543.089
7546.305
7548.834
7550.731
7552.117
7552.96
7553.206
7552.888
7552.076
7550.346
7548.076
7546.937
7545.727
7543.995
7542.119
7540.275
7538.513
7536.929
7535.527
7534.271
7533.156
7532.172
7531.292
7530.496
7529.759
7529.047
7528.325
7527.561
7526.73
7525.819
7524.823
7523.746
7522.594
7521.356
7520.33
7519.54
7518.97
7518.844
7519.056
7520.248
4929.639
4913.396
4869.65
4813.982
4758.162
4707.844
4661.515
4618.945
4579.436
4539.927
4496.261
4458.758
4421.286
4383.095
4343.84
4303.489
4261.882
4218.643
4173.845
4128.184
4082.556
4034.958
3986.897
3938.582
3890.415
3842.625
3795.673
3749.551
3704.786
3662.721
3624.704
3592.729
3567.111
3548.588
3538.259
3536.876
3545.968
3566.996
3601.233
3649.85
3713.686
3793.304
3888.877
4000.415
4127.557
4269.541
4425.331
4593.452
4772.305
4959.959
5154.151
5352.109
5551.725
5751.118
5948.145
6140.737
6325.81
6498.871
6657.177
6797.672
6916.632
7011.183
7079.32
7119.763
7132.088
7117.028
7076.305
7012.144
6926.807
6822.293
6700.809
6564.46
6415.647
6257.357
6091.991
5923.314
5754.236
5587.123
5424.728
5268.611
5118.936
4975.208
4836.508
4701.838
4571.895
4448.42
4332.758
4225.83
4128.292
4040.114
3960.112
3886.814
3818.916
3755.457
3695.543
3638.619
3584.893
3534.975
3489.606
3449.653
3415.592
3386.282
3360.096
3335.615
3311.209
3286.265
3260.984
3235.892
3211.852
3190.148
3175.489
3164.123
3153.842
3145.006
3134.488
3122.195
3108.173
3092.792
3076.739
3063.589
3055.915
3051.196
3048.307
3045.659
3041.393
3034.655
3025.502
3014.995
3004.711
2996.479
2992.226
2992.933
2995.68
2997.002
2995.244
2990.573
2984.278
2977.48
2971.64
2970.596
2977.338
2985.26
2991.546
2997.096
3000.922
3002.958
3003.894
3006.26
3015.049
3033.597
3055.087
3069.216
3079.033
3087.417
3091.129
3092.038
3094.809
3103.397
3118.514
3134.196
3147.306
3156.312
3165.493
3174.74
3187.506
3206.812
3230.094
3253.26
3282.307
3314.427
3342.523
3374.202
3412.602
3456.938
3504.206
3551.45
3597.925
3640.187
3676.34
3707.352
3734.216
3757.238
3776.225
3792.347
3807.845
3824.155
3842.651
3864.929
3892.607
3926.075
3965.493
4010.186
4058.443
4108.612
4160.482
4214.908
4272.206
4331.864
4392.751
4453.254
4511.64
4566.574
4617.001
4661.513
4698.838
4727.955
4748.501
4761.938
4769.95
4774.925
4780.567
4789.183
4802.241
4822.846
4852.962
4891.879
4937.664
4988.263
5041.689
5096.215
5150.958
5205.586
5260.073
5314.548
5369.565
5425.927
5483.774
5543.94
5607.132
5673.451
5742.533
5813.506
5885.244
5956.673
6026.917
6095.318
6161.41
6224.898
6285.626
6343.535
6398.626
6450.926
6500.479
6547.34
6591.58
6633.288
6672.572
6709.553
6744.356
6777.107
6807.922
6836.904
6864.139
6889.687
6913.577
6935.811
6956.362
6975.161
6992.104
7007.093
7020.014
7030.727
7039.1
7045.041
7048.364
7048.938
7046.705
7041.699
7033.954
7023.557
7010.585
6995.306
6978.114
6959.362
6939.347
6918.529
6897.132
6875.107
6851.99
6827.24
6800.014
6769.376
6734.566
6695.827
6654.527
6611.047
6566.053
6521.548
6480.21
6445.109
6418.981
6403.051
6396.996
6399.591
6409.736
6426.573
6446.238
6470.709
6502.509
6536.54
6570.389
6605.367
6641.225
6677.246
6712.464
6745.822
6776.899
6805.633
6832.37
6857.295
6880.802
6903.923
6927.348
6951.649
6977.301
7004.557
7033.033
7062.051
7091.395
7120.219
7147.949
7174.371
7199.336
7222.775
7244.711
7265.213
7284.429
7302.648
7320.279
7337.729
7355.215
7372.77
7390.331
7407.827
7425.189
7442.151
7458.442
7473.937
7488.609
7502.498
7515.654
7528.098
7539.862
7550.982
7561.464
7571.34
7580.634
7589.388
7597.572
7605.163
7612.162
7618.591
7624.458
7629.756
7634.497
7638.703
7642.453
7645.752
7648.607
7651.031
7653.048
7654.687
7655.974
7656.928
7657.562
7657.891
7657.931
7657.7
7657.217
7656.503
7655.58
7654.477
7653.226
7651.863
7650.427
7648.958
7647.496
7646.078
7644.739
7643.508
7642.406
7641.448
7640.641
7639.983
7639.467
7639.076
7638.786
7638.571
7638.4
7638.242
7638.063
7637.825
7637.493
7637.032
7636.408
7635.589
7634.548
7633.263
7631.719
7629.9
7627.796
7625.385
7622.642
7619.544
7616.063
7612.175
7607.858
7603.097
7597.882
7592.204
7586.058
7579.444
7572.373
7564.866
7556.957
7548.693
7540.135
7531.359
7522.454
7513.521
7504.671
7496.023
7487.699
7479.824
7472.524
7465.921
7460.134
7455.279
7451.469
7448.717
7447.055
7446.56
7447.21
7448.978
7451.825
7455.673
7460.41
7465.907
7472.019
7478.594
7485.471
7492.489
7499.497
7506.355
7512.935
7519.119
7524.802
7529.894
7534.324
7538.03
7540.877
7542.682
7544.483
7546.354
7547.506
7547.771
7547.48
7546.753
7545.655
7544.241
7542.595
7540.892
7539.226
7537.572
7535.98
7534.509
7533.233
7532.15
7531.235
7530.48
7529.866
7529.37
7528.982
7528.675
7528.422
7528.196
7527.97
7527.722
7527.444
7527.132
7526.786
7526.378
7525.915
7525.637
7525.607
7525.708
7526.104
7526.663
7528.199
4915.888
4884.912
4820.358
4772.447
4725.907
4682.74
4642.477
4604.434
4567.829
4532.267
4497.61
4462.045
4425.775
4388.445
4350.007
4310.155
4268.753
4225.637
4180.644
4134.176
4087.547
4039.926
3991.615
3942.866
3893.599
3843.475
3792.894
3742.836
3694.186
3648.213
3606.83
3571.548
3543.039
3522.113
3509.892
3507.4
3515.849
3536.348
3570.022
3617.818
3680.472
3758.572
3852.452
3962.123
4087.259
4227.097
4380.738
4546.484
4722.511
4906.187
5094.921
5286.78
5480.674
5675.623
5868.694
6056.56
6235.752
6402.221
6552.502
6683.718
6792.72
6876.765
6934.028
6963.603
6965.422
6940.636
6891.422
6820.376
6730.443
6623.707
6501.963
6367.296
6221.305
6066.598
5905.787
5740.735
5574.83
5412.4
5256.122
5107.485
4966.52
4831.775
4701.757
4575.57
4453.617
4337.112
4227.348
4125.79
4034.033
3952.931
3880.784
3815.265
3754.678
3697.631
3642.917
3589.965
3538.967
3490.786
3447.022
3410.391
3381.386