/*--------------------------------*- C++ -*----------------------------------*\
| =========                 |                                                 |
| \\      /  F ield         | foam-extend: Open Source CFD                    |
|  \\    /   O peration     | Version:     3.1                                |
|   \\  /    A nd           | Web:         http://www.extend-project.de       |
|    \\/     M anipulation  |                                                 |
\*---------------------------------------------------------------------------*/
FoamFile
{
    version     2.0;
    format      ascii;
    class       volScalarField;
    location    "3.5";
    object      nut;
}
// * * * * * * * * * * * * * * * * * * * * * * * * * * * * * * * * * * * * * //

dimensions      [0 2 -1 0 0 0 0];

internalField   nonuniform List<scalar> 
119952
(
2.439617e-05
1.667824e-05
1.730124e-05
1.918639e-05
2.050056e-05
1.964076e-05
1.910132e-05
1.8706e-05
1.839182e-05
1.811064e-05
1.784275e-05
1.757895e-05
1.731296e-05
1.704157e-05
1.676331e-05
1.64774e-05
1.618327e-05
1.587956e-05
1.555505e-05
1.520944e-05
1.860048e-05
1.774643e-05
1.740885e-05
2.176691e-05
2.119349e-05
2.092103e-05
2.076251e-05
2.08108e-05
2.082805e-05
2.427299e-05
1.38414e-05
1.49384e-05
1.681424e-05
1.879269e-05
2.092935e-05
2.319159e-05
2.55791e-05
2.803643e-05
3.052437e-05
3.47831e-05
0.0001394737
0.0001650329
0.0001932164
0.0002226985
0.0002528914
0.0002833623
0.0003141261
0.00034517
0.0003764174
0.0005525318
0.0005903822
0.000629087
0.0006688153
0.0007097211
0.0007516454
0.0007942633
0.0008371531
0.0008797834
0.000921558
0.000962539
0.001001151
0.001038531
0.001074874
0.001110094
0.001144048
0.001176778
0.001208488
0.00124167
0.001260119
0.001249874
0.001244552
0.001243374
0.001239611
0.001230619
0.001218582
0.001205897
0.001193342
0.001180614
0.001167289
0.001154088
0.001141561
0.001130303
0.001120371
0.001111758
0.001104627
0.001099374
0.001097251
0.00109884
0.001104496
0.001111793
0.001121449
0.001138043
0.001155694
0.001165347
0.001166152
0.001152344
0.001097317
0.0009965577
0.0009677902
0.0009528436
0.000947284
0.0009457732
0.0009464033
0.0009484341
0.0009511979
0.0009542991
0.000957484
0.00096057
0.0009634536
0.0009660912
0.0009684711
0.0009705925
0.0009724539
0.0009740519
0.0009753824
0.0009764435
0.0009772368
0.0009777671
0.0009780403
0.0009780623
0.0009778398
0.0009773738
0.0009766695
0.0009757311
0.0009745664
0.0009731873
0.000971607
0.0009698387
0.0009678951
0.0009657873
0.0009635234
0.0009611073
0.0009585388
0.0009558151
0.0009529354
0.0009499036
0.0009467269
0.0009434096
0.0009399521
0.0009363529
0.0009326122
0.000928736
0.000924734
0.0009206239
0.0009164444
0.0009123872
0.0009093514
0.000905285
0.0008997141
0.0008939969
0.0008881148
0.0008818992
0.0008754884
0.0008688674
0.0008620819
0.000855188
0.0008482169
0.0008412061
0.000834182
0.0008271799
0.000820215
0.0008133029
0.0008064615
0.0007997067
0.0007930526
0.0007865013
0.0007800465
0.0007736984
0.000767479
0.0007614008
0.0007554709
0.000749698
0.0007440886
0.0007386436
0.0007333591
0.0007282293
0.0007232455
0.0007183994
0.0007136824
0.0007090851
0.0007045981
0.0007002097
0.0006959084
0.000691682
0.0006875168
0.0006833991
0.0006793155
0.000675252
0.0006711942
0.0006671285
0.0006630413
0.0006589217
0.0006547571
0.0006505416
0.0006462716
0.0006420239
0.0006390265
0.0005689988
0.0004740175
0.0004252778
0.0003971297
0.0003784326
0.0003649691
0.000354226
0.00034533
0.000337684
0.0003309364
0.0003248274
0.0003193462
0.0003143794
0.0003098024
0.0003055441
0.0003015596
0.0002977961
0.000294194
0.0002907176
0.0002873492
0.0002840734
0.0002808746
0.0002777392
0.0002746539
0.0002716066
0.0002685887
0.0002655949
0.0002626184
0.0002596534
0.0002567044
0.0002537812
0.0002508986
0.0002481114
0.0002454732
0.0002433795
0.0002463855
0.0002578744
0.0002688818
0.0002789417
0.0002879936
0.0002961883
0.000303736
0.000310769
0.0003173755
0.0003236553
0.0003296923
0.0003355524
0.0003412887
0.0003469388
0.0003525293
0.0003580772
0.000363592
0.0003690793
0.0003745437
0.000379989
0.0003854189
0.0003908365
0.0003962444
0.0004016449
0.0004070396
0.0004124318
0.00041782
0.0004232019
0.0004285807
0.0004339558
0.0004393262
0.0004446922
0.0004500542
0.0004554219
0.0004608316
0.0006541575
0.0006827697
0.0007138051
0.0007459347
0.0007780483
0.0008091452
0.0008383467
0.0008650848
0.0008891648
0.0009106793
0.0009298704
0.0009470468
0.0009625287
0.0009766109
0.0009895473
0.001001549
0.001012787
0.001023401
0.001033502
0.001043177
0.001052496
0.001061516
0.001070281
0.001078827
0.001087182
0.001095368
0.001103404
0.001111305
0.001119085
0.001126752
0.001134316
0.001141783
0.00114916
0.00115645
0.001163658
0.001170787
0.001177838
0.001184811
0.001191707
0.001198524
0.001205253
0.001211882
0.001218382
0.001224692
0.00123067
0.001236003
0.001240515
0.001244677
0.001248673
0.001252556
0.001256367
0.001260119
0.001263801
0.001267862
0.001269889
0.001275485
0.001286284
0.001301188
0.00131871
0.001337436
0.0013562
0.001374185
0.001390893
0.0014061
0.001419783
0.001432043
0.001443044
0.001452972
0.001462004
0.001470303
0.001478004
0.001485221
0.001492043
0.001498544
0.00150478
0.001510795
0.001516623
0.001522292
0.001527821
0.001533227
0.001538524
0.00154372
0.001548824
0.001553843
0.001558783
0.001563648
0.001568444
0.001573175
0.001577844
0.001582456
0.001587014
0.001591522
0.001595983
0.001600403
0.001604783
0.001609128
0.001613441
0.001617726
0.001621985
0.001626222
0.00163044
0.001634641
0.001638829
0.001643006
0.001647175
0.001651336
0.001655494
0.001659649
0.001663804
0.001667961
0.001672122
0.00167629
0.001680465
0.00168465
0.001688848
0.00169306
0.001697291
0.001701544
0.001705821
0.001710129
0.001714473
0.001718859
0.001723296
0.001727796
0.001732371
0.00173704
0.001741827
0.001746763
0.001751892
0.001757277
0.001763009
0.00176923
0.00177617
0.001784227
0.001794164
0.001807596
0.001828149
0.001864874
0.001866782
2.330038e-05
2.46496e-05
2.792465e-05
3.200781e-05
3.634493e-05
4.064567e-05
4.480067e-05
4.878262e-05
5.309411e-05
0.0001728304
0.0002263246
0.000281385
0.0003335874
0.0003811895
0.0004242674
0.0004633088
0.0004991947
0.0005326837
0.0007638335
0.0008036714
0.0008445243
0.0008849379
0.0009248525
0.0009643823
0.001003278
0.001041394
0.001078556
0.001114315
0.001149705
0.00118273
0.001215552
0.001249068
0.001283455
0.001318483
0.001354037
0.001389966
0.001426095
0.001454772
0.001475077
0.001498729
0.00152623
0.001557004
0.001590537
0.001626504
0.001664731
0.001705021
0.001747307
0.001791601
0.001837631
0.00188583
0.001936215
0.001988953
0.002044118
0.002101702
0.00216153
0.002222912
0.002728492
0.002798061
0.002867089
0.002935501
0.003002991
0.003069235
0.003133808
0.003196342
0.003256277
0.003313125
0.003366545
0.003416204
0.003461669
0.0035027
0.003539111
0.003570704
0.003597288
0.003619037
0.003636556
0.003645821
0.003644862
0.003638887
0.003628602
0.003612337
0.003590321
0.003564252
0.003535877
0.00350634
0.003476515
0.003447117
0.003418673
0.003391517
0.003365863
0.003341903
0.003319903
0.003300283
0.003283586
0.003270306
0.003261135
0.003256068
0.003254202
0.003256193
0.003261657
0.003266583
0.003267214
0.003260391
0.003243067
0.003212345
0.003182648
0.003165414
0.003152122
0.003141956
0.003134134
0.003127875
0.003122826
0.003118698
0.003115333
0.003112638
0.003110548
0.00310902
0.003108033
0.003107568
0.003107603
0.003108105
0.003109035
0.003110347
0.003111996
0.003113936
0.003116123
0.003118513
0.003121066
0.003123744
0.003126507
0.003129321
0.003132155
0.003134983
0.003137783
0.003140538
0.003143237
0.003145867
0.003148421
0.003150887
0.003153255
0.003155512
0.003157645
0.003159643
0.003161498
0.0031632
0.003164744
0.003166124
0.003167336
0.003168382
0.003169271
0.003170022
0.003170686
0.003171349
0.003172135
0.003173146
0.003174207
0.003174612
0.003174512
0.003174022
0.003173121
0.003171809
0.003170068
0.00316788
0.00316524
0.00316214
0.00315858
0.003154569
0.003150122
0.003145257
0.003140001
0.003134386
0.003128452
0.003122236
0.00311578
0.003109132
0.003102352
0.003095502
0.00308865
0.003081864
0.003075213
0.003068761
0.003062565
0.003056678
0.00305114
0.003045987
0.003041245
0.003036933
0.003033064
0.003029642
0.003026666
0.003024126
0.003022008
0.003020293
0.003018957
0.003017974
0.003017314
0.003016947
0.003016839
0.003016962
0.003017284
0.003017788
0.003018463
0.003019382
0.003020925
0.003027331
0.002822875
0.002647573
0.002559436
0.002512531
0.002485476
0.00246799
0.002454937
0.002443835
0.002433564
0.002423692
0.002414169
0.00240515
0.002396817
0.002389316
0.002382742
0.002377139
0.002372485
0.002368713
0.00236574
0.002363481
0.002361853
0.002360773
0.002360165
0.002359954
0.002360071
0.00236046
0.002361077
0.002361892
0.002362897
0.002364108
0.002365578
0.00236743
0.002369932
0.002373703
0.002380268
0.002392759
0.002412201
0.00243473
0.002458701
0.002483115
0.002507228
0.002530517
0.002552716
0.002573737
0.002593561
0.00261222
0.002629789
0.002646378
0.002662113
0.002677123
0.002691521
0.0027054
0.002718836
0.002731889
0.002744609
0.00275704
0.002769213
0.002781156
0.002792888
0.002804427
0.002815782
0.002826959
0.002837962
0.002848788
0.002859428
0.002869873
0.002880194
0.002890415
0.002900517
0.002909555
0.00347704
0.003508146
0.003532595
0.003553909
0.003574504
0.003595611
0.003617685
0.003640727
0.003664487
0.003688529
0.003712466
0.003735986
0.003758852
0.003780903
0.003802047
0.003822244
0.0038415
0.003859844
0.003877325
0.003894003
0.003909938
0.003925193
0.003939826
0.003953892
0.00396744
0.003980516
0.003993159
0.004005405
0.004017284
0.004028824
0.004040048
0.004050977
0.004061626
0.004072012
0.004082146
0.004092038
0.004101694
0.004111118
0.004120311
0.004129266
0.00413797
0.004146398
0.004154508
0.004162228
0.004169455
0.004176081
0.004182154
0.004187828
0.004193202
0.004198333
0.00420326
0.004207988
0.004212557
0.004216821
0.004220584
0.004224438
0.004228964
0.004234579
0.00424152
0.004249838
0.004259434
0.004270106
0.004281596
0.004293634
0.004305963
0.004318362
0.004330652
0.0043427
0.004354413
0.004365732
0.004376627
0.004387087
0.004397117
0.00440673
0.004415948
0.004424793
0.00443329
0.004441462
0.004449333
0.004456923
0.004464252
0.004471339
0.004478198
0.004484846
0.004491296
0.004497562
0.004503655
0.004509587
0.00451537
0.004521014
0.00452653
0.004531929
0.004537221
0.004542416
0.004547523
0.004552553
0.004557514
0.004562415
0.004567265
0.004572073
0.004576846
0.004581591
0.004586316
0.004591027
0.004595731
0.004600433
0.004605139
0.004609854
0.004614584
0.004619333
0.004624106
0.004628908
0.004633744
0.00463862
0.00464354
0.004648512
0.004653542
0.004658638
0.00466381
0.004669068
0.004674426
0.004679899
0.004685509
0.00469128
0.004697242
0.004703437
0.004709916
0.004716749
0.004724028
0.00473188
0.004740484
0.004750095
0.004761086
0.004774003
0.004789642
0.004809069
0.004833822
0.004863462
0.004889104
5.64248e-05
7.521737e-05
9.346136e-05
0.000111392
0.0001300058
0.0001493781
0.0001696284
0.0001905322
0.0002127987
0.0002504877
0.0008391237
0.0009041007
0.0009664109
0.00102929
0.001092077
0.001154523
0.001216138
0.00127697
0.001337542
0.002194619
0.002434918
0.002567
0.00264637
0.002699746
0.002737286
0.002763718
0.002781759
0.002793141
0.002800394
0.002818878
0.00284909
0.002878113
0.002898373
0.002907869
0.00290782
0.002900144
0.002886412
0.002870137
0.002801969
0.002758292
0.002728052
0.002705172
0.002686273
0.002669707
0.00265476
0.00264122
0.002629118
0.002618596
0.002609337
0.002602657
0.002598816
0.002598081
0.00260051
0.002605911
0.002613976
0.002623882
0.003018286
0.003031355
0.003044647
0.003058477
0.003072872
0.003087979
0.003103882
0.003120641
0.00313827
0.003156679
0.003175923
0.003196142
0.003217247
0.00323928
0.003262392
0.003286684
0.003312272
0.0033393
0.003367832
0.003397739
0.003429093
0.003462147
0.003497005
0.003533813
0.003572763
0.003614036
0.003657861
0.003704361
0.003753746
0.003806289
0.003862031
0.003921101
0.003983664
0.004049789
0.004119488
0.004192652
0.004269298
0.004350414
0.004418691
0.004490948
0.004566179
0.004643401
0.004721753
0.004800387
0.004878407
0.004954911
0.005028988
0.005099774
0.005166526
0.005228537
0.005285157
0.005335863
0.00538021
0.005417814
0.005448379
0.005471745
0.005487822
0.005495658
0.005494234
0.005485033
0.00546937
0.00544744
0.005419609
0.005386924
0.005350793
0.005312508
0.005273168
0.005233708
0.005194907
0.005157397
0.005121677
0.005088136
0.005057102
0.005028893
0.005003834
0.004982246
0.004964475
0.004950627
0.004940455
0.00493374
0.004929905
0.004927281
0.004922369
0.004912155
0.004896024
0.004873162
0.004850493
0.004834604
0.004823564
0.004815262
0.004809011
0.00480427
0.004800695
0.004798033
0.00479607
0.004794662
0.004793724
0.004793209
0.004793099
0.004793385
0.004794058
0.004795105
0.004796509
0.00479825
0.004800305
0.00480265
0.004805259
0.00480811
0.004811177
0.004814434
0.004817862
0.004821435
0.00482513
0.004828929
0.004832815
0.004836774
0.004840796
0.004844869
0.004848983
0.004853129
0.004857294
0.004861465
0.004865626
0.004869764
0.004873867
0.00487792
0.004881914
0.004885838
0.004889688
0.004893462
0.004897168
0.004900822
0.004904457
0.004908109
0.004911847
0.004915705
0.004919595
0.004923192
0.004926468
0.004929522
0.004932341
0.004934913
0.004937216
0.00493922
0.004940893
0.004942205
0.004943125
0.004943624
0.004943677
0.004943265
0.004942372
0.004940993
0.004939128
0.004936783
0.004933976
0.004930735
0.004927101
0.00492313
0.004918888
0.004914453
0.004909909
0.004905348
0.004900861
0.004896538
0.004892467
0.004888728
0.004885395
0.004882532
0.004880193
0.004878421
0.004877247
0.00487669
0.004876759
0.004877451
0.004878755
0.004880649
0.004883107
0.004886098
0.004889586
0.004893536
0.004897913
0.004902686
0.004907844
0.004913321
0.00491908
0.004924236
0.004921168
0.00493451
0.004953728
0.004973839
0.004992655
0.005009364
0.005023752
0.005035851
0.005045794
0.005053773
0.005060032
0.00506486
0.005068565
0.005071458
0.005073839
0.005075973
0.005078084
0.005080353
0.005082917
0.005085878
0.005089305
0.005093234
0.005097676
0.005102623
0.005108057
0.005113952
0.005120285
0.005127048
0.005134251
0.005141943
0.005150229
0.005159311
0.005169561
0.005181622
0.005196429
0.005214803
0.005236305
0.005259949
0.0052851
0.00531127
0.005338045
0.005365061
0.005391998
0.005418578
0.005444573
0.005469813
0.00549419
0.005517657
0.005540215
0.005561897
0.005582758
0.005602856
0.005622256
0.00564102
0.005659204
0.005676861
0.005694034
0.005710765
0.00572709
0.005743043
0.00575865
0.00577394
0.005788931
0.005803636
0.005818058
0.005832199
0.005846058
0.005859649
0.005873178
0.005888616
0.005871662
0.005865577
0.005865736
0.005870079
0.005877536
0.0058875
0.00589957
0.005913397
0.005928684
0.005945301
0.005963011
0.005981546
0.006000664
0.006020073
0.006039477
0.006058694
0.006077595
0.006096087
0.006114111
0.006131631
0.006148629
0.006165101
0.006181051
0.006196492
0.006211439
0.006225912
0.006239931
0.006253517
0.006266688
0.006279465
0.006291865
0.006303905
0.006315599
0.006326961
0.006338001
0.006348729
0.006359151
0.00636927
0.006379088
0.006388598
0.006397789
0.006406641
0.006415123
0.006423191
0.006430789
0.006437876
0.006444477
0.006450664
0.006456503
0.006462042
0.006467317
0.006472343
0.00647714
0.006481659
0.006485853
0.0064899
0.00649403
0.006498455
0.006503362
0.006508888
0.006515111
0.006522053
0.006529681
0.00653793
0.006546702
0.006555892
0.006565388
0.006575084
0.006584884
0.006594702
0.006604469
0.006614128
0.006623633
0.006632952
0.006642059
0.006650939
0.006659579
0.006667973
0.006676121
0.006684022
0.006691679
0.006699096
0.00670628
0.006713237
0.006719975
0.006726503
0.00673283
0.006738966
0.006744923
0.00675071
0.006756339
0.006761823
0.006767173
0.006772402
0.006777521
0.006782543
0.00678748
0.006792343
0.006797144
0.006801894
0.006806604
0.006811284
0.006815942
0.00682059
0.006825234
0.006829884
0.006834546
0.006839229
0.006843939
0.006848683
0.006853468
0.0068583
0.006863186
0.006868133
0.006873149
0.006878242
0.00688342
0.006888695
0.006894079
0.006899586
0.006905233
0.006911041
0.006917036
0.006923247
0.006929716
0.006936489
0.006943631
0.006951222
0.006959366
0.006968202
0.006977914
0.006988748
0.007001028
0.00701518
0.007031732
0.007051272
0.007074278
0.007100017
0.007123211
4.767375e-05
9.319115e-05
0.00014778
0.0005471775
0.0009032711
0.001780883
0.002236892
0.002771978
0.003347336
0.00378889
0.004062855
0.004303445
0.00453687
0.004646722
0.004745983
0.004837295
0.004920056
0.004992053
0.005054768
0.005111652
0.005165404
0.005253325
0.005399545
0.005463144
0.005491743
0.005507342
0.005516143
0.005519924
0.005519255
0.005514409
0.005502253
0.005925374
0.005921033
0.005911722
0.00589781
0.005879153
0.005856085
0.005829224
0.005799183
0.005766446
0.005731149
0.005693451
0.005652744
0.005608749
0.005561642
0.005511623
0.00545881
0.005403311
0.005345214
0.005284399
0.005220603
0.005154785
0.005087894
0.005020854
0.004954559
0.004889788
0.004827216
0.004767378
0.004710716
0.004657622
0.004608304
0.004562935
0.004521721
0.004484787
0.004452169
0.004423848
0.004399668
0.004380434
0.004356224
0.004337172
0.004322811
0.004312614
0.004306151
0.004303096
0.004303138
0.004306062
0.004311639
0.004319699
0.004330148
0.004342864
0.004357748
0.004374791
0.004394033
0.004415503
0.004439241
0.004465299
0.004493733
0.004524602
0.004557969
0.004593942
0.004632689
0.00467437
0.004719126
0.004767087
0.0048184
0.004873207
0.00493167
0.004993968
0.005060231
0.005130602
0.00520522
0.005284161
0.00536745
0.005455009
0.00554674
0.005642336
0.005740287
0.005840503
0.005942598
0.00604602
0.006150128
0.006254186
0.006357355
0.006458721
0.006557333
0.006652217
0.006742429
0.00682708
0.006905354
0.006976521
0.007039922
0.007094976
0.007141181
0.007178115
0.007205494
0.007222983
0.007230181
0.00722755
0.007216139
0.007196748
0.007170065
0.007137051
0.007098979
0.007057198
0.007012975
0.006967444
0.006921601
0.006876309
0.006832322
0.0067903
0.006750786
0.006714216
0.006680941
0.006651242
0.006625331
0.006603332
0.006585166
0.006570517
0.006558918
0.006549437
0.006539318
0.00652664
0.006511253
0.006493394
0.0064755
0.00646073
0.00644967
0.006441418
0.006435322
0.006430986
0.006428109
0.006426446
0.006425787
0.006425952
0.00642681
0.006428267
0.006430257
0.006432728
0.006435633
0.006438931
0.006442581
0.006446544
0.006450786
0.006455274
0.006459977
0.006464869
0.006469926
0.006475126
0.006480451
0.006485884
0.00649141
0.006497018
0.006502698
0.006508445
0.006514253
0.006520119
0.006526039
0.00653201
0.006538024
0.006544076
0.006550157
0.006556257
0.006562369
0.006568484
0.006574595
0.006580697
0.006586787
0.006592867
0.006598945
0.006605035
0.006611158
0.006617336
0.0066236
0.006629952
0.006636345
0.006642653
0.006648824
0.006654874
0.006660812
0.006666631
0.006672314
0.006677839
0.006683179
0.006688304
0.006693181
0.006697778
0.006702059
0.00670599
0.006709539
0.006712673
0.006715368
0.0067176
0.006719356
0.006720632
0.006721438
0.006721796
0.006721745
0.006721341
0.00672065
0.006719755
0.006718747
0.006717724
0.006716789
0.006716045
0.006715593
0.006715528
0.00671594
0.006716904
0.006718485
0.006720735
0.006723692
0.006727377
0.006731802
0.006736962
0.006742845
0.006749427
0.006756679
0.006764565
0.006773052
0.006782096
0.006791665
0.006801685
0.006812129
0.006822699
0.006833026
0.006845002
0.006859038
0.006874922
0.006892068
0.006909854
0.006927725
0.006945232
0.006962022
0.006977851
0.006992578
0.007006161
0.007018635
0.007030102
0.00704071
0.007050632
0.007060052
0.007069152
0.007078103
0.00708706
0.007096152
0.007105482
0.007115124
0.007125132
0.007135545
0.007146386
0.007157675
0.007169441
0.007181732
0.007194629
0.00720826
0.007222836
0.007238681
0.007256256
0.007276106
0.007298601
0.007323456
0.007350053
0.007377911
0.007406674
0.007436041
0.007465746
0.007495539
0.007525189
0.007554482
0.007583239
0.007611324
0.007638645
0.007665154
0.007690836
0.007715698
0.007739769
0.007763084
0.007785681
0.007807604
0.007828886
0.007849553
0.007869633
0.007889145
0.0079081
0.007926504
0.007944384
0.007961859
0.007978968
0.007995712
0.008012089
0.0080281
0.008043732
0.008058964
0.008073378
0.008082227
0.008089076
0.008095559
0.008102388
0.008109906
0.00811833
0.008127784
0.00813831
0.008149892
0.008162469
0.008175924
0.008190108
0.008204848
0.008220106
0.00823589
0.008252106
0.008268513
0.00828492
0.008301219
0.008317335
0.008333209
0.008348801
0.008364078
0.008379018
0.008393607
0.008407837
0.008421703
0.008435206
0.008448348
0.008461131
0.008473563
0.008485647
0.008497389
0.008508796
0.008519872
0.008530621
0.008541045
0.008551144
0.008560917
0.008570357
0.008579455
0.008588194
0.008596554
0.008604506
0.008612024
0.008619091
0.008625721
0.008631956
0.008637842
0.008643416
0.008648708
0.008653738
0.008658522
0.008663053
0.008667331
0.008671426
0.008675441
0.008679483
0.008683654
0.008688049
0.008692743
0.008697795
0.008703239
0.008709088
0.008715334
0.008721952
0.008728904
0.008736145
0.008743622
0.008751283
0.008759075
0.008766949
0.008774858
0.00878276
0.00879062
0.008798406
0.00880609
0.00881365
0.008821068
0.008828327
0.008835416
0.008842327
0.008849054
0.008855594
0.008861945
0.008868108
0.008874086
0.008879885
0.008885511
0.008890972
0.008896276
0.008901435
0.008906458
0.008911359
0.008916149
0.008920841
0.008925447
0.00892998
0.008934454
0.00893888
0.00894327
0.008947636
0.008951989
0.008956339
0.008960697
0.008965073
0.008969474
0.008973911
0.008978391
0.008982922
0.008987511
0.008992168
0.008996899
0.009001714
0.00900662
0.009011628
0.009016748
0.009021993
0.009027376
0.009032915
0.009038629
0.009044542
0.009050684
0.009057089
0.0090638
0.009070873
0.009078375
0.00908639
0.009095026
0.009104419
0.009114741
0.009126209
0.009139092
0.009153709
0.009170416
0.009189544
0.009211204
0.009234594
0.009255391
2.360494e-05
4.325327e-05
7.387965e-05
0.0002910554
0.000485748
0.0009560989
0.001346816
0.001684485
0.002083396
0.002439155
0.002790446
0.003189817
0.003620978
0.004062425
0.004491736
0.004959179
0.00614982
0.006482557
0.006783388
0.007028571
0.007211258
0.007343853
0.007439357
0.007500777
0.007532325
0.00754703
0.007549279
0.007541038
0.007523288
0.007497074
0.007463385
0.007422685
0.007275058
0.007136683
0.007003789
0.006873583
0.006748609
0.006629571
0.006516272
0.006416048
0.006280132
0.006182723
0.006209338
0.006137911
0.006092732
0.006076214
0.006073072
0.006083697
0.006112125
0.006158547
0.006218075
0.006294407
0.006394365
0.006427633
0.006400645
0.006370805
0.006338019
0.006301401
0.006260502
0.006215451
0.006166504
0.006113999
0.006058481
0.006000611
0.005941093
0.005880632
0.005819903
0.005759555
0.005700187
0.005642351
0.005586537
0.00553315
0.005482557
0.005435102
0.005391038
0.005350578
0.005313813
0.005280888
0.005251727
0.005225927
0.005203476
0.005184427
0.005168872
0.005156842
0.005148306
0.005143157
0.005141358
0.00514281
0.005147443
0.00515519
0.00516599
0.005179813
0.005196656
0.005216528
0.005239448
0.005265434
0.005294518
0.005326745
0.005362155
0.005400786
0.005442731
0.005488127
0.005537113
0.005589809
0.005646336
0.005706828
0.005771432
0.0058403
0.005913596
0.005991487
0.006074127
0.006161655
0.006254179
0.00635176
0.006454378
0.006561952
0.00667427
0.006790933
0.006911502
0.007035426
0.007162022
0.007290506
0.007420001
0.007549544
0.007678095
0.007804559
0.007927786
0.008046578
0.008159799
0.008266458
0.008365625
0.008456403
0.008537936
0.008609429
0.008670121
0.008719197
0.008756383
0.008781672
0.008795331
0.008798067
0.008790702
0.008774073
0.008749179
0.008717257
0.008679671
0.008637792
0.008592904
0.008546156
0.008498487
0.008450702
0.008403892
0.008358923
0.008316461
0.008277014
0.008240952
0.008208526
0.008179893
0.008155053
0.008133789
0.008115707
0.008100044
0.008084929
0.008069429
0.008053378
0.008037032
0.008021363
0.008007812
0.007997103
0.007988954
0.007983018
0.007979022
0.007976678
0.00797578
0.007976152
0.007977627
0.007980063
0.007983344
0.007987377
0.00799208
0.007997377
0.008003198
0.008009478
0.008016156
0.008023173
0.008030477
0.00803802
0.008045761
0.008053663
0.008061692
0.008069821
0.008078028
0.008086293
0.008094601
0.008102942
0.008111309
0.008119696
0.008128099
0.008136519
0.008144951
0.008153395
0.008161846
0.008170301
0.008178757
0.00818721
0.008195657
0.008204097
0.008212531
0.008220963
0.0082294
0.008237853
0.008246339
0.008254875
0.008263481
0.008272171
0.008280947
0.008289785
0.00829863
0.008307441
0.008316216
0.008324953
0.008333649
0.008342287
0.008350849
0.008359313
0.008367653
0.008375843
0.00838385
0.008391652
0.008399239
0.008406579
0.00841364
0.008420386
0.008426786
0.008432811
0.008438437
0.008443651
0.008448449
0.008452842
0.008456855
0.008460528
0.008463917
0.008467094
0.008470141
0.00847315
0.008476224
0.008479466
0.00848298
0.008486869
0.008491228
0.008496142
0.008501685
0.008507918
0.008514886
0.008522622
0.008531141
0.008540448
0.008550534
0.00856138
0.00857296
0.008585243
0.008598189
0.008611763
0.008625913
0.008640617
0.008655771
0.008671402
0.0086876
0.008704515
0.008722312
0.008741018
0.00876052
0.008780613
0.008801048
0.00882156
0.008841896
0.008861842
0.008881232
0.00889996
0.008917974
0.008935277
0.008951914
0.008967969
0.008983547
0.008998769
0.009013766
0.009028662
0.00904356
0.009058552
0.009073719
0.009089128
0.009104835
0.009120895
0.009137364
0.009154316
0.009171843
0.009190074
0.009209191
0.009229437
0.009251118
0.009274546
0.0092999
0.009327033
0.009355598
0.009385255
0.009415726
0.009446775
0.009478185
0.009509757
0.009541296
0.009572625
0.009603578
0.009634025
0.009663864
0.009693029
0.009721483
0.009749213
0.009776229
0.009802552
0.009828213
0.009853246
0.009877684
0.009901558
0.009924898
0.009947733
0.009970085
0.009991974
0.01
0.01
0.01
0.01
0.01
0.01
0.01
0.01
0.01
0.01
0.01
0.01
0.01
0.01
0.01
0.01
0.01
0.01
0.01
0.01
0.01
0.01
0.01
0.01
0.01
0.01
0.01
0.01
0.01
0.01
0.01
0.01
0.01
0.01
0.01
0.01
0.01
0.01
0.01
0.01
0.01
0.01
0.01
0.01
0.01
0.01
0.01
0.01
0.01
0.01
0.01
0.01
0.01
0.01
0.01
0.01
0.01
0.01
0.01
0.01
0.01
0.01
0.01
0.01
0.01
0.01
0.01
0.01
0.01
0.01
0.01
0.01
0.01
0.01
0.01
0.01
0.01
0.01
0.01
0.01
0.01
0.01
0.01
0.01
0.01
0.01
0.01
0.01
0.01
0.01
0.01
0.01
0.01
0.01
0.01
0.01
0.01
0.01
0.01
0.01
0.01
0.01
0.01
0.01
0.01
0.01
0.01
0.01
0.01
0.01
0.01
0.01
0.01
0.01
0.01
0.01
0.01
0.01
0.01
0.01
0.01
0.01
0.01
0.01
0.01
0.01
0.01
0.01
0.01
0.01
0.01
0.01
0.01
0.01
0.01
0.01
0.01
0.01
0.01
0.01
0.01
0.01
0.01
0.01
0.01
0.01
0.01
0.01
2.12534e-05
3.497141e-05
6.69454e-05
0.0002234065
0.000376821
0.0006487964
0.0008423786
0.00106191
0.001316068
0.00155735
0.001826706
0.002155974
0.002513906
0.002900277
0.003344517
0.004296693
0.00468018
0.00506608
0.005444043
0.005802843
0.006145501
0.006467474
0.006758161
0.007024401
0.007264738
0.007475629
0.007642411
0.00780463
0.00794497
0.008050574
0.008124387
0.008170217
0.008135112
0.007958579
0.007790573
0.007628033
0.007467603
0.007309969
0.007153937
0.006996989
0.006837235
0.006673251
0.006514125
0.006373209
0.006243986
0.006121611
0.00600604
0.005898491
0.005799073
0.005712602
0.005636931
0.005575816
0.005548297
0.005505098
0.005477449
0.005474501
0.005489601
0.005520136
0.005567601
0.005633212
0.005715488
0.005813782
0.005930264
0.006062302
0.006206819
0.006372463
0.006560946
0.006651044
0.00663988
0.006622036
0.006598237
0.006569159
0.006535465
0.006497852
0.006457004
0.006413571
0.006368181
0.006321452
0.006273982
0.006226333
0.006179032
0.006132576
0.006087419
0.006043976
0.006002607
0.005963636
0.005927312
0.005893878
0.005863478
0.005836206
0.005812089
0.005791197
0.005773643
0.005759521
0.005748895
0.00574176
0.005738185
0.005738171
0.005741735
0.005748888
0.005759648
0.005774037
0.005792081
0.005813808
0.005839248
0.005868432
0.005901389
0.005938153
0.005978755
0.006023232
0.006071647
0.006124091
0.006180659
0.006241449
0.006306566
0.006376129
0.006450274
0.006529146
0.006612913
0.006701749
0.006795825
0.006895309
0.007000349
0.007111059
0.007227494
0.007349646
0.00747741
0.007610574
0.007748821
0.00789171
0.008038654
0.008188927
0.008341682
0.008495948
0.008650639
0.008804637
0.008956724
0.0091054
0.009248923
0.009386498
0.009517145
0.009639727
0.009753079
0.009856095
0.009947787
0.01
0.01
0.01
0.01
0.01
0.01
0.01
0.01
0.01
0.01
0.01
0.01
0.01
0.01
0.009959752
0.009912159
0.009865455
0.009820444
0.009777776
0.00973795
0.009701326
0.009668139
0.009638479
0.009612256
0.009589193
0.009568696
0.009549641
0.009531644
0.009514486
0.009498271
0.009483422
0.009470594
0.009460244
0.009452375
0.00944675
0.0094431
0.009441254
0.009441054
0.00944233
0.009444922
0.009448688
0.009453508
0.009459275
0.009465893
0.009473275
0.009481337
0.009490001
0.009499191
0.009508835
0.009518868
0.009529229
0.009539861
0.009550714
0.009561744
0.00957291
0.009584179
0.009595523
0.009606916
0.00961834
0.009629779
0.009641221
0.009652658
0.009664082
0.009675488
0.00968687
0.009698223
0.009709543
0.009720827
0.009732072
0.009743278
0.009754447
0.009765584
0.009776697
0.0097878
0.009798907
0.00981004
0.009821219
0.009832466
0.009843799
0.009855225
0.009866739
0.009878321
0.009889951
0.009901626
0.009913345
0.009925105
0.009936896
0.009948706
0.009960519
0.009972319
0.009984085
0.009995796
0.01
0.01
0.01
0.01
0.01
0.01
0.01
0.01
0.01
0.01
0.01
0.01
0.01
0.01
0.01
0.01
0.01
0.01
0.01
0.01
0.01
0.01
0.01
0.01
0.01
0.01
0.01
0.01
0.01
0.01
0.01
0.01
0.01
0.01
0.01
0.01
0.01
0.01
0.01
0.01
0.01
0.01
0.01
0.01
0.01
0.01
0.01
0.01
0.01
0.01
0.01
0.01
0.01
0.01
0.01
0.01
0.01
0.01
0.01
0.01
0.01
0.01
0.01
0.01
0.01
0.01
0.01
0.01
0.01
0.01
0.01
0.01
0.01
0.01
0.01
0.01
0.01
0.01
0.01
0.01
0.01
0.01
0.01
0.01
0.01
0.01
0.01
0.01
0.01
0.01
0.01
0.01
0.01
0.01
0.01
0.01
0.01
0.01
0.01
0.01
0.01
0.01
0.01
0.01
0.01
0.01
0.01
0.01
0.01
0.01
0.01
0.01
0.01
0.01
0.01
0.01
0.01
0.01
0.01
0.01
0.01
0.01
0.01
0.01
0.01
0.01
0.01
0.01
0.01
0.01
0.01
0.01
0.01
0.01
0.01
0.01
0.01
0.01
0.01
0.01
0.01
0.01
0.01
0.01
0.01
0.01
0.01
0.01
0.01
0.01
0.01
0.01
0.01
0.01
0.01
0.01
0.01
0.01
0.01
0.01
0.01
0.01
0.01
0.01
0.01
0.01
0.01
0.01
0.01
0.01
0.01
0.01
0.01
0.01
0.01
0.01
0.01
0.01
0.01
0.01
0.01
0.01
0.01
0.01
0.01