/*--------------------------------*- C++ -*----------------------------------*\
| =========                 |                                                 |
| \\      /  F ield         | foam-extend: Open Source CFD                    |
|  \\    /   O peration     | Version:     3.1                                |
|   \\  /    A nd           | Web:         http://www.extend-project.de       |
|    \\/     M anipulation  |                                                 |
\*---------------------------------------------------------------------------*/
FoamFile
{
    version     2.0;
    format      ascii;
    class       volScalarField;
    location    "3.5";
    object      omega;
}
// * * * * * * * * * * * * * * * * * * * * * * * * * * * * * * * * * * * * * //

dimensions      [0 0 -1 0 0 0 0];

internalField   nonuniform List<scalar> 
119952
(
164.0375
210.7419
201.3528
175.8444
158.2312
160.3781
163.7647
167.7686
172.1773
176.8929
181.8717
187.0938
192.5555
198.2658
204.2418
210.508
217.0993
224.0744
231.5856
240.159
198.8064
198.979
201.7598
167.5529
165.1337
164.168
163.4677
162.7497
160.4173
134.8122
294.7553
245.3165
207.3183
180.4548
160.6922
145.4786
133.2825
123.2264
114.7108
105.14
86.95992
74.78119
66.54078
60.44906
55.66244
51.69137
48.30474
45.37385
42.77896
32.59393
31.0369
29.5144
28.06622
26.73466
25.52832
24.44144
23.46564
22.59069
21.80935
21.11562
20.45855
19.83564
19.24733
18.69373
18.17433
17.68457
17.21307
16.74965
16.73128
16.78877
16.69385
16.59778
16.53686
16.50215
16.4627
16.4178
16.37271
16.33554
16.31321
16.29953
16.28986
16.27868
16.265
16.24851
16.22656
16.19261
16.12924
16.02818
15.90691
15.7869
15.62408
15.441
15.33904
15.28364
15.3082
15.54327
16.39349
17.81743
18.1392
18.27721
18.28348
18.24566
18.18777
18.1194
18.0487
17.97929
17.91316
17.85159
17.79504
17.74344
17.69653
17.65403
17.61582
17.58183
17.55206
17.52649
17.50509
17.48782
17.47462
17.46545
17.46026
17.45908
17.46186
17.46854
17.47904
17.49323
17.51095
17.53207
17.55644
17.58394
17.61449
17.64808
17.68473
17.72451
17.76748
17.81366
17.86303
17.91565
17.97161
18.03105
18.09405
18.16065
18.23081
18.30436
18.38062
18.45562
18.51466
18.61023
18.76127
18.92384
19.09077
19.2599
19.42675
19.59026
19.74927
19.90278
20.05069
20.19291
20.32955
20.46059
20.58643
20.70744
20.82385
20.9359
21.04383
21.1481
21.24931
21.34775
21.44347
21.53673
21.62786
21.71714
21.80488
21.89146
21.97734
22.06295
22.14877
22.23522
22.32266
22.41143
22.50184
22.59419
22.68875
22.78575
22.88548
22.98816
23.09404
23.20337
23.31642
23.43346
23.55477
23.68059
23.81124
23.94685
24.0874
24.22925
24.33817
26.88772
31.03245
33.65675
35.34645
36.50289
37.30765
37.90742
38.35975
38.71214
38.99642
39.23971
39.44793
39.63465
39.81251
39.98852
40.16651
40.35031
40.54409
40.74942
40.96619
41.19435
41.43397
41.68504
41.94764
42.22191
42.50774
42.80498
43.11394
43.435
43.76738
44.10993
44.46081
44.81283
45.159
45.43195
44.86955
43.42648
42.32705
41.46221
40.76126
40.17017
39.65101
39.18014
38.74265
38.32841
37.93152
37.54882
37.17804
36.81808
36.46812
36.12748
35.79557
35.47191
35.15613
34.84797
34.54717
34.25351
33.96676
33.68669
33.41309
33.1456
32.88415
32.62878
32.37896
32.13454
31.89538
31.66124
31.43187
31.20657
30.98157
25.12095
24.09123
23.06209
22.12788
21.32955
20.6758
20.15713
19.75383
19.44183
19.19914
19.00708
18.85108
18.72041
18.60741
18.50675
18.41474
18.3289
18.24752
18.16943
18.09386
18.02025
17.94826
17.87763
17.80819
17.73984
17.6725
17.60613
17.54067
17.4761
17.4124
17.34955
17.28753
17.22633
17.16594
17.10635
17.04755
16.98954
16.93231
16.87588
16.82025
16.76547
16.71164
16.65897
16.60799
16.56007
16.51743
16.4798
16.44411
16.40971
16.37638
16.34395
16.31242
16.28179
16.25323
16.22862
16.13091
15.97138
15.77492
15.5676
15.36951
15.19272
15.04231
14.91847
14.8185
14.73845
14.6742
14.62196
14.57861
14.54165
14.5092
14.47987
14.45266
14.42687
14.402
14.37774
14.35387
14.33025
14.30679
14.28344
14.26018
14.237
14.21389
14.19086
14.16792
14.14506
14.12231
14.09967
14.07714
14.05474
14.03248
14.01034
13.98836
13.96651
13.94482
13.92328
13.90189
13.88067
13.8596
13.8387
13.81796
13.79738
13.77696
13.7567
13.7366
13.71667
13.69689
13.67727
13.6578
13.63848
13.6193
13.60026
13.58136
13.56257
13.54391
13.52536
13.5069
13.48854
13.47025
13.45202
13.43384
13.41569
13.39754
13.37937
13.36114
13.34281
13.32431
13.30559
13.28652
13.26696
13.24671
13.22543
13.2026
13.17733
13.14798
13.11117
13.05915
12.97439
12.82911
12.99743
345.6332
277.8745
240.0059
214.4247
194.6437
178.1589
163.9738
151.5998
140.2873
117.5779
94.94554
81.55652
72.88677
66.74539
62.03436
58.20155
54.94666
52.08557
41.19082
39.06044
37.02942
35.12041
33.38572
31.83225
30.44421
29.20031
28.07943
27.05805
26.15547
25.27722
24.41315
23.5754
22.77128
22.00675
21.28414
20.60344
19.96203
19.49531
19.13056
18.70509
18.25126
17.78532
17.3177
16.85566
16.40439
15.9673
15.54667
15.14254
14.75506
14.3822
14.02106
13.67108
13.33254
13.00618
12.69292
12.39587
10.86541
10.63853
10.42861
10.23239
10.04766
9.873136
9.708194
9.55243
9.405534
9.266984
9.136864
9.014779
8.90011
8.792331
8.691053
8.595964
8.507043
8.425202
8.354085
8.297669
8.24819
8.203608
8.167683
8.140862
8.120661
8.104566
8.091053
8.079253
8.068607
8.058754
8.049479
8.040758
8.032668
8.025179
8.018037
8.010629
8.002037
7.991408
7.978172
7.962867
7.946103
7.928604
7.914793
7.908241
7.91104
7.930101
7.970332
8.031738
8.085367
8.116346
8.143257
8.166244
8.186416
8.204852
8.221917
8.237961
8.253099
8.26737
8.280798
8.293374
8.30507
8.315854
8.325709
8.33464
8.342672
8.349839
8.356188
8.361768
8.366638
8.370859
8.374501
8.377635
8.38034
8.382694
8.384772
8.386647
8.388385
8.390048
8.391691
8.393367
8.395125
8.397016
8.399091
8.401404
8.404007
8.406949
8.410275
8.41403
8.418252
8.422981
8.428249
8.434077
8.440471
8.447412
8.454828
8.462587
8.470541
8.478643
8.487276
8.497635
8.509482
8.522836
8.537774
8.554257
8.572256
8.59171
8.612512
8.634558
8.657718
8.681853
8.706815
8.732453
8.758608
8.785121
8.811828
8.838575
8.865215
8.891596
8.917559
8.94295
8.967621
8.99144
9.01429
9.036077
9.056737
9.07623
9.094547
9.111701
9.127726
9.142671
9.156597
9.169575
9.181684
9.193003
9.203612
9.213592
9.223018
9.231961
9.240489
9.248661
9.256531
9.264148
9.271544
9.278756
9.285736
9.292424
9.297891
9.290853
9.666442
10.05023
10.27818
10.41807
10.51023
10.5773
10.63171
10.67965
10.72379
10.76496
10.80299
10.83725
10.86717
10.89243
10.91297
10.92898
10.94085
10.94915
10.95446
10.95736
10.95834
10.95786
10.9563
10.954
10.9512
10.94813
10.9449
10.94159
10.9382
10.93463
10.93068
10.92591
10.91942
10.90924
10.89077
10.8553
10.80053
10.73715
10.6704
10.60391
10.54028
10.48117
10.42713
10.37808
10.33369
10.29351
10.25702
10.22369
10.19295
10.16432
10.13735
10.1117
10.08707
10.06327
10.04013
10.01754
9.995412
9.973701
9.952368
9.931394
9.91077
9.890494
9.870577
9.851034
9.83189
9.813171
9.794714
9.776469
9.758482
9.742989
8.78103
8.728564
8.687572
8.649945
8.611436
8.570643
8.527722
8.483553
8.439254
8.395963
8.354527
8.315483
8.279115
8.245499
8.214567
8.18616
8.16006
8.13603
8.113833
8.09324
8.074045
8.056061
8.039127
8.023103
8.007868
7.99332
7.979374
7.965956
7.953006
7.940473
7.928313
7.916493
7.904981
7.893755
7.882795
7.872085
7.861614
7.851377
7.841372
7.831604
7.82209
7.812861
7.803976
7.795526
7.787634
7.780365
7.773594
7.767169
7.761016
7.755089
7.749366
7.743853
7.738588
7.733808
7.729251
7.723821
7.71667
7.707143
7.694998
7.680404
7.663824
7.645869
7.627181
7.608344
7.589833
7.572003
7.555088
7.539222
7.524454
7.510777
7.498142
7.486475
7.475691
7.465699
7.456408
7.447736
7.439605
7.431946
7.424698
7.417807
7.411227
7.404919
7.398849
7.392988
7.387311
7.381797
7.376428
7.37119
7.366068
7.361052
7.356133
7.351303
7.346554
7.34188
7.337277
7.33274
7.328265
7.323849
7.319487
7.315179
7.310921
7.30671
7.302545
7.298423
7.294342
7.2903
7.286294
7.282321
7.27838
7.274466
7.270577
7.266709
7.262858
7.25902
7.255191
7.251364
7.247535
7.243695
7.239838
7.235955
7.232034
7.228064
7.224029
7.219911
7.215687
7.211328
7.206794
7.202034
7.196978
7.191526
7.185533
7.178781
7.170935
7.161476
7.149605
7.134301
7.114494
7.092675
7.078068
426.3253
380.3164
341.3962
311.3776
287.0436
267.1597
250.6281
236.5263
225.0859
218.8188
111.4358
106.5974
102.1828
98.12128
94.3564
90.80204
87.4361
84.21628
81.06701
58.40367
53.28013
50.77276
49.12948
47.76118
46.49837
45.29061
44.11836
42.97006
41.83708
40.42437
38.87117
37.39639
36.07926
34.91641
33.87932
32.94008
32.0776
31.2705
30.94089
30.34297
29.62989
28.88333
28.14218
27.42478
26.73784
26.08213
25.45645
24.85872
24.27732
23.70894
23.14717
22.58988
22.03864
21.49592
20.96443
20.45081
18.56754
18.1225
17.69714
17.28667
16.88705
16.49683
16.11552
15.74324
15.38015
15.02588
14.68112
14.34639
14.02078
13.70366
13.39495
13.09447
12.80204
12.51757
12.24075
11.97179
11.71124
11.45894
11.21429
10.97684
10.74625
10.52216
10.30433
10.09244
9.886309
9.686038
9.491302
9.301959
9.118072
8.939693
8.766874
8.59968
8.438201
8.280495
8.151432
8.024483
7.90063
7.780411
7.664342
7.552869
7.446341
7.344944
7.248816
7.157944
7.072337
6.991961
6.916693
6.846426
6.781072
6.720612
6.66512
6.61495
6.570794
6.533827
6.501995
6.47406
6.450695
6.43222
6.417829
6.406357
6.396991
6.389235
6.382739
6.377213
6.372398
6.368093
6.364154
6.360478
6.356958
6.353444
6.349744
6.345667
6.341056
6.336045
6.330893
6.326083
6.322562
6.321337
6.324664
6.3338
6.349044
6.369906
6.389186
6.402599
6.413003
6.422416
6.431242
6.439721
6.447997
6.456173
6.464335
6.472515
6.48071
6.488888
6.497006
6.50502
6.512885
6.520563
6.52802
6.535229
6.542165
6.548806
6.555139
6.56115
6.566835
6.572195
6.577232
6.581958
6.586388
6.59054
6.594434
6.598094
6.601542
6.604804
6.607908
6.610883
6.61376
6.616572
6.619354
6.622139
6.624959
6.627848
6.630836
6.633951
6.637218
6.640657
6.644279
6.648089
6.652079
6.656242
6.660554
6.665003
6.669657
6.674758
6.680347
6.686372
6.692872
6.699883
6.707431
6.715545
6.724244
6.733539
6.743435
6.753925
6.764997
6.776628
6.788787
6.801433
6.814516
6.827978
6.841752
6.85576
6.869916
6.884121
6.898274
6.912267
6.925992
6.939346
6.952233
6.964565
6.97627
6.987285
6.997567
7.007082
7.015815
7.02376
7.030926
7.037331
7.043
7.047968
7.052273
7.055954
7.059055
7.061619
7.063686
7.065295
7.066477
7.067267
7.067674
7.067755
7.067494
7.06715
7.07188
7.062855
7.048592
7.033743
7.020471
7.009603
7.001328
6.995541
6.991996
6.99037
6.990279
6.991311
6.993046
6.995088
6.997085
6.998745
6.99985
7.000248
6.999849
6.998614
6.996548
6.993684
6.990082
6.985811
6.980948
6.975564
6.969723
6.963467
6.956818
6.949761
6.942233
6.934097
6.9251
6.914825
6.902685
6.888149
6.871408
6.852936
6.833108
6.812344
6.791067
6.76968
6.748536
6.727931
6.708093
6.689177
6.671266
6.654376
6.638471
6.623485
6.609329
6.595913
6.583147
6.570951
6.559253
6.547989
6.537108
6.526569
6.516337
6.506384
6.496687
6.48723
6.478
6.468986
6.460185
6.451595
6.443221
6.435066
6.42706
6.41817
6.437214
6.446516
6.449886
6.449085
6.444999
6.438165
6.429013
6.417979
6.405479
6.391814
6.37734
6.362399
6.347279
6.332253
6.317554
6.303315
6.289619
6.276511
6.264006
6.252097
6.240767
6.229987
6.219722
6.209939
6.2006
6.19167
6.183115
6.174906
6.167014
6.159413
6.152079
6.144994
6.138139
6.1315
6.125062
6.118815
6.112752
6.106866
6.101154
6.095618
6.090262
6.085101
6.080153
6.075449
6.071018
6.066872
6.062977
6.059289
6.055779
6.052429
6.049227
6.046171
6.043263
6.040553
6.038012
6.035439
6.032643
6.029439
6.025678
6.021271
6.016193
6.010483
6.004224
5.997531
5.990531
5.983348
5.9761
5.968886
5.961786
5.954863
5.948162
5.941712
5.935528
5.929618
5.923981
5.918608
5.91349
5.908613
5.903962
5.899522
5.895278
5.891214
5.887317
5.883574
5.879971
5.876498
5.873145
5.8699
5.866757
5.863706
5.860741
5.857856
5.855044
5.8523
5.849619
5.846998
5.844432
5.841918
5.839452
5.837032
5.834655
5.832317
5.830017
5.827753
5.825521
5.82332
5.821148
5.819001
5.816877
5.814775
5.812691
5.810621
5.808565
5.806516
5.804473
5.802431
5.800385
5.79833
5.796262
5.794172
5.792053
5.789897
5.787692
5.785426
5.783083
5.780643
5.778081
5.775363
5.772444
5.769265
5.765743
5.76176
5.757151
5.751694
5.745092
5.737044
5.727352
5.716768
5.707736
266.7623
205.1562
241.3682
114.6667
92.2941
63.77515
57.29127
51.40075
46.38958
44.12441
43.59569
43.00257
42.11722
42.17245
42.15447
42.1058
42.03391
41.95126
41.85267
41.72527
41.57284
41.14133
40.23556
39.85067
39.59202
39.33603
39.05355
38.73298
38.36601
37.94636
37.47559
36.16949
35.51901
34.84607
34.15715
33.45296
32.73451
32.00434
31.2665
30.5263
29.78759
29.05036
28.31897
27.5979
26.89139
26.20302
25.53635
24.89477
24.27999
23.69214
23.13287
22.60132
22.09456
21.60987
21.14519
20.69871
20.26879
19.85376
19.45197
19.06217
18.68252
18.31135
17.94759
17.59038
17.2388
16.89231
16.54946
16.20633
15.89161
15.57662
15.26277
14.95077
14.64129
14.33502
14.03256
13.73427
13.4405
13.15156
12.86783
12.58943
12.31639
12.04887
11.78708
11.53114
11.28106
11.03683
10.79839
10.56572
10.33865
10.11706
9.900974
9.690422
9.485359
9.285677
9.091256
8.901982
8.71774
8.53847
8.364071
8.194503
8.029782
7.869933
7.715011
7.565051
7.420165
7.280288
7.146727
7.019264
6.897681
6.781793
6.671489
6.566693
6.467343
6.373371
6.284714
6.20128
6.122984
6.049734
5.981433
5.917988
5.859324
5.805409
5.756255
5.711959
5.672719
5.638758
5.609484
5.584162
5.562712
5.545129
5.531013
5.519721
5.510691
5.503521
5.497897
5.493543
5.490203
5.48765
5.485688
5.484147
5.482886
5.481783
5.480744
5.479695
5.478597
5.477497
5.476471
5.475745
5.475667
5.476571
5.479527
5.484883
5.492348
5.501364
5.510309
5.517787
5.523978
5.529549
5.534805
5.539837
5.544715
5.549504
5.554262
5.559026
5.563815
5.568633
5.573477
5.578339
5.583209
5.588076
5.592926
5.597748
5.602526
5.607245
5.611891
5.616449
5.620905
5.625247
5.629465
5.633551
5.637501
5.64131
5.64498
5.648512
5.65191
5.655181
5.658333
5.661377
5.664326
5.667194
5.669998
5.672755
5.67548
5.678191
5.680905
5.683637
5.6864
5.689206
5.692063
5.694978
5.697955
5.700995
5.704098
5.707272
5.710537
5.71394
5.7175
5.721218
5.725106
5.729179
5.733455
5.737949
5.74268
5.747663
5.752913
5.758445
5.764268
5.770392
5.776819
5.783549
5.790578
5.797893
5.805475
5.8133
5.821331
5.829524
5.837826
5.846177
5.854509
5.862751
5.87083
5.878672
5.886206
5.893367
5.900094
5.906335
5.91205
5.917204
5.921775
5.92575
5.929125
5.931904
5.934099
5.935728
5.936812
5.937376
5.937449
5.937058
5.93623
5.934996
5.933379
5.931413
5.929099
5.926462
5.923651
5.919723
5.914463
5.908043
5.900873
5.893374
5.885907
5.87876
5.872139
5.866165
5.860882
5.85627
5.852254
5.84872
5.845533
5.842549
5.839631
5.836653
5.833511
5.830118
5.826415
5.822362
5.81794
5.813145
5.807983
5.80247
5.796621
5.790448
5.783957
5.777135
5.769957
5.762361
5.754252
5.745493
5.735921
5.725396
5.713943
5.701701
5.688805
5.675393
5.661621
5.647649
5.633637
5.61974
5.606098
5.592824
5.580005
5.567693
5.555912
5.54466
5.53392
5.523662
5.513853
5.504457
5.495437
5.486762
5.478405
5.470343
5.462557
5.455034
5.447763
5.440728
5.433894
5.427247
5.420782
5.414498
5.408394
5.402476
5.39677
5.391536
5.389412
5.388426
5.387636
5.386561
5.384934
5.382598
5.379474
5.375553
5.370872
5.365507
5.359564
5.353163
5.346433
5.339439
5.332229
5.324879
5.317507
5.3102
5.303011
5.295974
5.289115
5.282449
5.275984
5.269725
5.263671
5.257818
5.25216
5.246692
5.241406
5.236293
5.231346
5.226558
5.221921
5.217429
5.213076
5.208858
5.204771
5.200813
5.196981
5.193277
5.189705
5.186269
5.182979
5.179846
5.17688
5.174085
5.171447
5.16895
5.166578
5.164322
5.162175
5.160134
5.158197
5.156375
5.154656
5.152992
5.151326
5.149601
5.147761
5.145756
5.14355
5.14112
5.13846
5.135578
5.132497
5.129244
5.125853
5.122362
5.118805
5.115216
5.111624
5.108057
5.104534
5.101074
5.097689
5.094388
5.09118
5.088067
5.085051
5.082133
5.079312
5.076586
5.073952
5.071406
5.068946
5.066567
5.064265
5.062037
5.059878
5.057785
5.055753
5.053781
5.051864
5.049998
5.048182
5.046412
5.044686
5.043
5.041354
5.039743
5.038168
5.036624
5.035112
5.033627
5.03217
5.030737
5.029327
5.027938
5.026569
5.025216
5.023878
5.022552
5.021237
5.019928
5.018624
5.017321
5.016015
5.014703
5.01338
5.01204
5.010678
5.009287
5.007859
5.006384
5.00485
5.003242
5.001542
4.999727
4.997766
4.995619
4.993234
4.990541
4.987448
4.983842
4.979591
4.974576
4.968756
4.962452
4.956783
277.357
194.0807
151.7054
117.4322
95.26158
71.46938
59.95621
54.98822
50.10676
47.41151
45.39341
43.32643
41.42987
39.80421
38.58641
37.4911
34.66781
34.31967
34.12291
34.13174
34.41722
34.89338
35.39665
35.89971
36.3986
36.84958
37.25239
37.60662
37.91298
38.17344
38.39474
38.58107
38.69909
38.73279
38.70847
38.6267
38.48098
38.26676
37.98225
37.62555
37.218
36.7369
36.15449
35.51297
34.81881
34.07788
33.30164
32.49969
31.67952
30.84857
30.01461
29.18317
28.35953
27.55214
26.76523
26.00042
25.25999
24.54736
23.86483
23.21362
22.59382
22.00477
21.44557
20.91509
20.41193
19.93443
19.48069
19.04871
18.63649
18.24202
17.86337
17.49858
17.14592
16.80393
16.47123
16.1467
15.82907
15.51776
15.21124
14.91109
14.61584
14.32463
14.03728
13.75373
13.47392
13.19788
12.9255
12.65687
12.39207
12.13119
11.87431
11.62156
11.37309
11.12907
10.88961
10.65479
10.42469
10.19934
9.978747
9.762833
9.551582
9.345057
9.143294
8.946273
8.753942
8.566247
8.383135
8.20455
8.030455
7.860835
7.695681
7.53501
7.378859
7.227288
7.080355
6.938148
6.800737
6.668267
6.540888
6.418712
6.301797
6.190166
6.083828
5.982774
5.886983
5.796418
5.711033
5.630778
5.55559
5.485387
5.420091
5.359632
5.303962
5.253063
5.206954
5.165712
5.129299
5.097391
5.069562
5.045575
5.025266
5.008337
4.994373
4.982956
4.973735
4.966411
4.960714
4.956401
4.953265
4.951123
4.949736
4.948908
4.948487
4.948359
4.948446
4.948703
4.949127
4.949744
4.950631
4.951912
4.953763
4.956655
4.960588
4.965327
4.970542
4.975733
4.980431
4.984567
4.988351
4.991895
4.995253
4.998479
5.001606
5.004663
5.007674
5.010655
5.013618
5.01657
5.019518
5.022465
5.025415
5.028369
5.031327
5.034289
5.037252
5.040211
5.043161
5.046096
5.04901
5.051895
5.054745
5.057555
5.060321
5.063038
5.065704
5.068318
5.070881
5.073395
5.075862
5.078288
5.080678
5.083039
5.085377
5.087701
5.090016
5.092331
5.09465
5.096979
5.099322
5.101681
5.104059
5.106456
5.108874
5.111312
5.113775
5.116269
5.118804
5.121386
5.12402
5.126714
5.129474
5.13231
5.13523
5.138245
5.141363
5.144597
5.147957
5.151451
5.155085
5.158867
5.162803
5.1669
5.171161
5.175584
5.180164
5.184892
5.18975
5.194716
5.199758
5.204842
5.209924
5.214957
5.219892
5.224674
5.229252
5.233575
5.237593
5.241264
5.244549
5.247417
5.249842
5.251809
5.253307
5.254332
5.254888
5.254981
5.254625
5.253836
5.252631
5.25103
5.249055
5.246726
5.244062
5.241078
5.237791
5.234239
5.230337
5.225989
5.221138
5.215807
5.210073
5.204046
5.197853
5.191622
5.185466
5.179478
5.173719
5.168223
5.162993
5.158008
5.153228
5.1486
5.144064
5.139559
5.135026
5.130416
5.125686
5.120805
5.115749
5.110505
5.105064
5.099423
5.093578
5.087527
5.081262
5.074772
5.068033
5.061012
5.053666
5.045942
5.037794
5.029205
5.020195
5.010806
5.001094
4.991132
4.980999
4.97078
4.960563
4.950432
4.940463
4.930719
4.921247
4.912078
4.903227
4.894696
4.886478
4.878558
4.87092
4.863545
4.856413
4.849507
4.842811
4.836312
4.829998
4.823859
4.817887
4.812086
4.806453
4.800982
4.795671
4.79052
4.785532
4.780723
4.776191
4.772293
4.768993
4.766145
4.763592
4.761184
4.758793
4.756311
4.753658
4.750781
4.747651
4.744264
4.74063
4.736771
4.732717
4.728508
4.724184
4.719737
4.715178
4.71058
4.705984
4.701415
4.696895
4.692437
4.688055
4.683757
4.67955
4.675439
4.671427
4.667514
4.663703
4.659992
4.656381
4.652869
4.649455
4.646138
4.642917
4.639792
4.636762
4.633828
4.630992
4.628257
4.625625
4.623102
4.620694
4.618405
4.616237
4.614183
4.612236
4.610387
4.608631
4.606961
4.605376
4.603872
4.60245
4.601104
4.599816
4.598565
4.597328
4.596084
4.594809
4.593485
4.592091
4.590617
4.589052
4.587394
4.585643
4.583805
4.581889
4.579904
4.577862
4.575777
4.573661
4.571526
4.569385
4.567246
4.565119
4.563013
4.560933
4.558885
4.556874
4.554903
4.552975
4.551091
4.549253
4.547461
4.545716
4.544016
4.542362
4.540752
4.539185
4.537659
4.536174
4.534728
4.533319
4.531945
4.530605
4.529297
4.52802
4.526771
4.52555
4.524355
4.523183
4.522035
4.520908
4.5198
4.518711
4.517639
4.516581
4.515538
4.514506
4.513484
4.51247
4.511462
4.510458
4.509455
4.508451
4.507442
4.506425
4.505397
4.504352
4.503287
4.502194
4.501068
4.4999
4.49868
4.497396
4.496034
4.494575
4.492997
4.491269
4.489355
4.487209
4.484775
4.481987
4.478776
4.475087
4.47091
4.466434
4.462337
164.1314
121.6134
177.0479
85.14405
71.12793
57.45324
53.24395
49.80826
46.45274
44.64651
42.81441
40.74951
38.94011
37.3687
35.93735
32.75913
32.24418
31.88395
31.64359
31.53911
31.52338
31.59777
31.78041
32.05126
32.39064
32.74144
33.11474
33.51871
33.95432
34.43331
35.00016
35.64581
36.31834
36.97184
37.58284
38.13699
38.62833
39.05221
39.40604
39.68881
39.90286
40.04974
40.12005
40.09806
39.98139
39.77259
39.47427
39.08904
38.62084
38.07264
37.45197
36.76464
36.00825
35.21092
34.38062
33.52162
32.64252
31.75259
30.85956
29.97003
29.09014
28.22489
27.37783
26.55202
25.75031
24.97366
24.22497
23.51044
22.83243
22.18935
21.58007
21.00324
20.45732
19.94077
19.452
18.98921
18.55051
18.13398
17.73773
17.35983
16.99845
16.65186
16.31846
15.99679
15.68549
15.38338
15.08933
14.80246
14.52184
14.2468
13.97655
13.71054
13.44844
13.19
12.93499
12.68326
12.43458
12.18889
11.94613
11.70628
11.46938
11.23549
11.00469
10.77708
10.55277
10.33184
10.11439
9.900504
9.690229
9.483606
9.280695
9.081574
8.886304
8.694918
8.507431
8.323847
8.14417
7.968401
7.796551
7.628643
7.464707
7.30479
7.148958
6.997293
6.849883
6.706829
6.568232
6.434191
6.30482
6.180224
6.060485
5.94566
5.835792
5.73091
5.631034
5.536171
5.446329
5.361531
5.281801
5.207034
5.137153
5.07211
5.011865
4.956389
4.905654
4.859601
4.818162
4.781204
4.748514
4.71989
4.695145
4.674028
4.656221
4.64138
4.629181
4.619316
4.611492
4.605425
4.600837
4.597473
4.59512
4.593589
4.592718
4.592378
4.592466
4.592913
4.593672
4.594727
4.596088
4.597783
4.599885
4.602555
4.6057
4.609172
4.612783
4.616328
4.619625
4.622618
4.62536
4.627909
4.630317
4.632599
4.634772
4.636857
4.638868
4.640819
4.642719
4.644577
4.646402
4.648201
4.64998
4.651744
4.6535
4.655251
4.657
4.65875
4.6605
4.662251
4.664002
4.665751
4.667497
4.669238
4.670972
4.672699
4.674417
4.676127
4.67783
4.679527
4.681221
4.682914
4.68461
4.686313
4.688025
4.689751
4.691493
4.693253
4.695031
4.69683
4.698647
4.70048
4.702328
4.704186
4.706053
4.707926
4.709802
4.71168
4.71356
4.715442
4.717328
4.719221
4.721123
4.723038
4.724971
4.726926
4.72891
4.730927
4.732983
4.735086
4.737243
4.739461
4.741746
4.744104
4.746541
4.74906
4.751664
4.754352
4.757118
4.759955
4.762848
4.765779
4.768725
4.771657
4.774541
4.777343
4.780022
4.782538
4.784853
4.786928
4.788727
4.790217
4.791372
4.792169
4.792592
4.792628
4.792274
4.791526
4.790391
4.788874
4.786988
4.784744
4.78216
4.77925
4.776032
4.772524
4.768744
4.764714
4.760431
4.755875
4.751029
4.745892
4.740475
4.734807
4.728932
4.722905
4.716788
4.710641
4.704519
4.698468
4.692518
4.686687
4.68098
4.675387
4.66989
4.664464
4.659081
4.653709
4.648324
4.6429
4.637414
4.631848
4.626191
4.62043
4.61456
4.608574
4.602464
4.596225
4.589845
4.583313
4.576612
4.569722
4.562624
4.555299
4.547739
4.539954
4.531964
4.523806
4.515522
4.507162
4.49878
4.49043
4.482165
4.474029
4.46606
4.458287
4.450725
4.443383
4.436263
4.429359
4.422662
4.416161
4.409846
4.403705
4.397727
4.391903
4.386225
4.380684
4.375278
4.370025
4.364925
4.359974
4.355171
4.350514
4.346002
4.341642
4.33746
4.333523
4.329865
4.326484
4.323359
4.320449
4.317704
4.31507
4.312495
4.309932
4.307345
4.304705
4.301995
4.299203
4.296328
4.293374
4.290348
4.287261
4.284122
4.280904
4.277639
4.274361
4.271084
4.26782
4.26458
4.261371
4.258201
4.255077
4.252003
4.248983
4.246021
4.243119
4.240281
4.237507
4.234799
4.232158
4.229585
4.227083
4.224651
4.222292
4.220008
4.217802
4.215676
4.213634
4.211679
4.209814
4.208039
4.206353
4.204751
4.203228
4.20178
4.200403
4.199094
4.197851
4.196671
4.195551
4.194482
4.193453
4.192454
4.191474
4.190504
4.189532
4.188549
4.187545
4.186513
4.185446
4.18434
4.183192
4.182001
4.180768
4.179496
4.178187
4.176846
4.175478
4.174088
4.172682
4.171265
4.169842
4.168419
4.167
4.165589
4.164189
4.162806
4.16144
4.160094
4.158771
4.157472
4.156198
4.154949
4.153726
4.152529
4.151358
4.150212
4.149091
4.147995
4.146922
4.145871
4.144841
4.143832
4.142842
4.14187
4.140915
4.139975
4.139051
4.138139
4.13724
4.136352
4.135474
4.134604
4.133741
4.132885
4.132032
4.131183
4.130334
4.129485
4.128633
4.127775
4.12691
4.126034
4.125145
4.124237
4.123308
4.122352
4.121362
4.120333
4.119255
4.118119
4.116912
4.115619
4.114223
4.112701
4.111025
4.109165
4.107081
4.104735
4.102085
4.099101
4.095783
4.092262
4.089012
72.68887
49.4046
44.40443
41.34067
39.83922
38.09879
36.6282
35.38131
34.31202
32.98399
30.07161
29.58731
29.16259
28.80927
28.51221
28.26701
28.1078
28.0468
28.09157
28.21626
28.33707
28.54337
28.84594
29.26931
29.76942
30.32458
30.93144
31.58925
32.31476
33.04603
33.75666
34.44739
35.15791
35.84686
36.50887
37.16191
37.81226
38.4416
39.01841
39.52052
39.9405
40.27286
40.51341
40.65953
40.708
40.66214
40.52366
40.29267
39.96713
39.54681
39.03602
38.44127
37.76942
37.02844
36.22769
35.3769
34.48972
33.58046
32.65672
31.72896
30.8051
29.89256
28.998
28.12658
27.28194
26.46646
25.68119
24.92655
24.20245
23.5097
22.84801
22.21677
21.61489
21.04263
20.49833
19.98049
19.48788
19.01933
18.57361
18.1495
17.74566
17.36068
16.99323
16.64196
16.3055
15.98256
15.67203
15.37293
15.08429
14.80522
14.53485
14.27236
14.01698
13.76798
13.52467
13.28639
13.05252
12.82253
12.59601
12.37258
12.152
11.93393
11.71816
11.50452
11.2929
11.08321
10.8754
10.66946
10.4654
10.26327
10.06311
9.865001
9.668997
9.47518
9.283629
9.094437
8.907705
8.723534
8.542018
8.363236
8.187261
8.014163
7.844008
7.676867
7.512818
7.351944
7.194346
7.040133
6.88943
6.742365
6.599074
6.459695
6.324357
6.193191
6.066314
5.943826
5.825806
5.712325
5.603446
5.499228
5.399692
5.304844
5.214691
5.129137
5.048161
4.971828
4.900191
4.833281
4.77111
4.713669
4.660904
4.612796
4.5693
4.530303
4.495663
4.465216
4.438753
4.416014
4.396707
4.38053
4.367175
4.356336
4.347697
4.340939
4.335759
4.331934
4.329257
4.327539
4.326616
4.326351
4.326634
4.327377
4.328519
4.330015
4.331838
4.333981
4.336478
4.339206
4.342057
4.344915
4.347666
4.350222
4.35255
4.354665
4.356597
4.358378
4.360018
4.361531
4.362932
4.364234
4.365448
4.366584
4.367651
4.368656
4.369608
4.370513
4.371379
4.372211
4.373016
4.373798
4.374561
4.375309
4.376046
4.376773
4.377493
4.378208
4.37892
4.37963
4.380342
4.381057
4.381778
4.38251
4.383255
4.384019
4.384805
4.385618
4.386461
4.38734
4.388256
4.389211
4.390207
4.391244
4.392319
4.393429
4.394571
4.395738
4.396927
4.39813
4.399341
4.400554
4.401765
4.402967
4.404158
4.405335
4.406498
4.407646
4.40878
4.409902
4.411013
4.412117
4.413215
4.414312
4.41541
4.416519
4.417641
4.418782
4.419945
4.421134
4.422354
4.423606
4.424894
4.426216
4.427571
4.428952
4.430351
4.431755
4.433147
4.434506
4.435807
4.437023
4.438125
4.439081
4.439859
4.440429
4.440762
4.440831
4.440614
4.440091
4.439247
4.438073
4.436562
4.434712
4.432526
4.43001
4.427172
4.424022
4.420574
4.416842
4.41284
4.408586
4.404095
4.399378
4.394439
4.38928
4.383906
4.378323
4.372544
4.366586
4.360475
4.354242
4.347921
4.341549
4.33516
4.328785
4.322448
4.316167
4.30995
4.3038
4.297713
4.291679
4.285685
4.279721
4.273768
4.267813
4.261842
4.255845
4.249811
4.243733
4.237603
4.231417
4.225168
4.218851
4.212459
4.205985
4.199419
4.192748
4.18596
4.179043
4.171997
4.16483
4.157559
4.150209
4.142813
4.135404
4.128021
4.120701
4.113477
4.106378
4.099428
4.092644
4.086035
4.079605
4.073354
4.06728
4.061377
4.055641
4.050064
4.044643
4.039373
4.03425
4.029272
4.024438
4.019744
4.015189
4.010771
4.006486
4.002333
3.99831
3.994418
3.990662
3.987055
3.983609
3.980334
3.977231
3.974295
3.971514
3.96887
3.96634
3.963902
3.961531
3.959209
3.956915
3.954636
3.952361
3.950082
3.947794
3.945496
3.943188
3.940871
3.938517
3.936142
3.933765
3.931392
3.929028
3.926678
3.924346
3.922037
3.919754
3.917501
3.915281
3.913097
3.910951
3.908845
3.906782
3.904764
3.902792
3.900868
3.898994
3.897172
3.895403
3.893692
3.892039
3.890447
3.888919
3.887456
3.886058
3.884726
3.883457
3.882247
3.881095
3.879997
3.878951
3.877956
3.877008
3.876105
3.875242
3.874413
3.873613
3.872836
3.872076
3.87133
3.870591
3.869855
3.869116
3.868371
3.867615
3.866846
3.86606
3.865256
3.864432
3.863589
3.862726
3.861846
3.860949
3.860038
3.859114
3.85818
3.857239
3.856294
3.855346
3.8544
3.853456
3.852518
3.851586
3.850663
3.849751
3.84885
3.847962
3.847086
3.846224
3.845376
3.844541
3.84372
3.842912
3.842117
3.841335
3.840563
3.839803
3.839053
3.838313
3.837581
3.836856
3.836139
3.835428
3.834722
3.83402
3.833321
3.832626
3.831931
3.831237
3.830543
3.829846
3.829146
3.828442
3.827731
3.827012
3.826284
3.825542
3.824786
3.824011
3.823215
3.822393
3.821539
3.82065
3.819717
3.818732
3.817687
3.816569
3.815364
3.814056
3.812626
3.811051
3.809308
3.807371
3.805215
3.802826
3.800202
3.797444
3.794886
88.39968
36.19718
28.03962
26.32492
25.50588
25.0994
24.93536
24.89441
24.92838
25.00644
25.02548
24.95694
24.89645
24.88778
24.94061
25.06957
25.29441
25.62628
26.06998
26.61825
27.26886
28.03866
28.8789
29.81476
30.78086
31.75218
32.73064
33.7128
34.68426
35.61874
36.49321
37.30342
38.05494
38.7218
39.28939
39.76949
40.16924
40.48248
40.68699
40.78244
40.78643
40.69588
40.51005
40.22946
39.85545
39.3932
38.84859
38.22758
37.53532
36.77658
35.95802
35.08768
34.17128
33.22004
32.2469
31.26431
30.2851
29.32212
28.37879
27.46434
26.58557
25.74699
24.95077
24.19646
23.48287
22.80983
22.17773
21.58489
21.02892
20.50703
20.01664
19.55469
19.11639
18.69711
18.29522
17.90931
17.53833
17.18146
16.83779
16.50656
16.18692
15.87812
15.57955
15.2905
15.00994
14.73729
14.47329
14.2181
13.9716
13.73345
13.50318
13.28026
13.06411
12.85414
12.64977
12.4502
12.2544
12.06199