/*--------------------------------*- C++ -*----------------------------------*\
| =========                 |                                                 |
| \\      /  F ield         | foam-extend: Open Source CFD                    |
|  \\    /   O peration     | Version:     3.1                                |
|   \\  /    A nd           | Web:         http://www.extend-project.de       |
|    \\/     M anipulation  |                                                 |
\*---------------------------------------------------------------------------*/
FoamFile
{
    version     2.0;
    format      ascii;
    class       volScalarField;
    location    "3.5";
    object      p;
}
// * * * * * * * * * * * * * * * * * * * * * * * * * * * * * * * * * * * * * //

dimensions      [1 -1 -2 0 0 0 0];

internalField   nonuniform List<scalar> 
119952
(
9473.186
9262.139
9225.453
9259.641
9299.93
9272.686
9265.843
9260.463
9257.089
9254.464
9252.174
9250.086
9248.074
9246.017
9243.812
9241.327
9238.339
9234.313
9227.106
9208.233
9275.394
9231.042
9213.33
9299.913
9280.468
9288.008
9289.913
9309.194
9379.681
6840.953
8761.631
8765.738
8773.874
8782.144
8790.18
8798.542
8806.542
8814.971
8823.757
8827.548
8818.647
8824.882
8829.511
8834.408
8839.61
8844.828
8850.374
8855.669
8861.63
8840.943
8844.371
8848.073
8853.647
8859.637
8865.62
8871.777
8878.139
8884.38
8891.029
8895.808
8902.037
8908.751
8915.147
8921.716
8928.352
8934.993
8942.86
8957.816
8988.397
8969.531
8969.222
8983.635
8991.552
8991.015
8986.586
8983.878
8982.038
8980.383
8978.939
8977.66
8976.411
8975.093
8973.62
8971.895
8969.79
8967.2
8964.216
8961.877
8964.097
8965.931
8962.858
8978.355
9000.794
9002.803
9003.307
9003.623
8988.73
8936.333
8923.366
8928.742
8927.04
8925.224
8922.664
8919.063
8914.907
8910.268
8905.195
8899.723
8893.873
8887.666
8881.115
8874.232
8867.024
8859.498
8851.658
8843.511
8835.059
8826.307
8817.26
8807.921
8798.295
8788.387
8778.201
8767.743
8757.019
8746.035
8734.798
8723.315
8711.594
8699.642
8687.469
8675.083
8662.493
8649.709
8636.739
8623.594
8610.283
8596.815
8583.2
8569.444
8555.556
8541.541
8527.4
8513.127
8498.698
8484.132
8469.794
8456.242
8442.699
8427.796
8413.031
8398.347
8383.595
8368.819
8354.01
8339.161
8324.274
8309.346
8294.374
8279.359
8264.298
8249.184
8234.011
8218.775
8203.473
8188.098
8172.645
8157.108
8141.481
8125.757
8109.93
8093.995
8077.945
8061.773
8045.474
8029.043
8012.474
7995.762
7978.903
7961.891
7944.723
7927.396
7909.906
7892.251
7874.429
7856.438
7838.278
7819.948
7801.447
7782.775
7763.935
7744.925
7725.747
7706.397
7686.851
7667.061
7647.128
7661.476
7641.383
7620.941
7600.927
7580.567
7560.163
7539.636
7519.035
7498.354
7477.61
7456.813
7435.969
7415.092
7394.194
7373.285
7352.375
7331.479
7310.606
7289.767
7268.973
7248.235
7227.562
7206.967
7186.457
7166.044
7145.735
7125.535
7105.452
7085.488
7065.64
7045.896
7026.233
7006.591
6986.84
6966.546
6945.979
6929.899
6913.402
6896.797
6880.233
6863.818
6847.598
6831.598
6815.841
6800.338
6785.101
6770.14
6755.46
6741.07
6726.973
6713.175
6699.678
6686.486
6673.601
6661.025
6648.759
6636.804
6625.16
6613.828
6602.806
6592.095
6581.693
6571.6
6561.815
6552.342
6543.18
6534.303
6525.72
6517.427
6509.517
6473.473
6463.819
6455.696
6448.731
6441.993
6435.622
6429.547
6423.745
6418.189
6412.908
6407.865
6403.064
6398.5
6394.166
6390.059
6386.175
6382.509
6379.058
6375.817
6372.781
6369.945
6367.309
6364.859
6362.597
6360.518
6358.617
6356.889
6355.329
6353.934
6352.7
6351.621
6350.694
6349.914
6349.279
6348.783
6348.424
6348.197
6348.1
6348.13
6348.284
6348.562
6348.964
6349.495
6350.165
6350.98
6351.85
6352.593
6353.352
6354.254
6355.256
6356.354
6357.546
6358.822
6360.063
6360.633
6362.512
6364.19
6365.744
6367.357
6369.028
6370.749
6372.52
6374.339
6376.2
6378.098
6380.032
6381.997
6383.993
6386.015
6388.062
6390.132
6392.221
6394.329
6396.452
6398.588
6400.736
6402.894
6405.059
6407.229
6409.403
6411.578
6413.753
6415.926
6418.095
6420.259
6422.416
6424.564
6426.701
6428.827
6430.939
6433.036
6435.118
6437.181
6439.226
6441.25
6443.253
6445.233
6447.189
6449.12
6451.025
6452.902
6454.751
6456.57
6458.359
6460.116
6461.84
6463.53
6465.185
6466.805
6468.387
6469.932
6471.437
6472.902
6474.326
6475.707
6477.043
6478.335
6479.578
6480.773
6481.917
6483.007
6484.042
6485.016
6485.928
6486.771
6487.54
6488.227
6488.823
6489.313
6489.679
6489.894
6489.918
6489.688
6489.1
6487.982
6486.086
6483.637
6484.547
6499.999
8161.651
8182.911
8201.627
8220.196
8238.266
8255.947
8273.163
8290.259
8306.035
8300.305
8315.378
8327.184
8338.547
8349.354
8359.99
8370.228
8380.073
8389.439
8373.427
8381.71
8387.118
8394.863
8402.551
8410.137
8417.604
8424.889
8431.96
8438.921
8444.843
8450.356
8456.945
8462.88
8468.708
8474.438
8480.033
8485.556
8491.145
8496.788
8499.646
8504.546
8509.907
8514.947
8519.992
8524.959
8529.921
8534.879
8539.535
8544.24
8549.429
8554.215
8558.969
8563.943
8569.049
8574.329
8579.808
8585.936
8529.39
8535.431
8541.743
8547.527
8553.172
8559
8565.034
8571.19
8577.374
8583.512
8589.919
8596.24
8602.465
8608.822
8615.46
8622.48
8630.177
8638.923
8648.652
8657.257
8661.544
8663.923
8668.287
8672.632
8674.701
8674.444
8673.293
8672.171
8671.251
8670.426
8669.579
8668.658
8667.644
8666.506
8665.216
8663.79
8662.349
8661.168
8660.762
8661.566
8663.679
8667.163
8672.847
8679.629
8682.84
8680.951
8674.072
8662.017
8645.882
8632.755
8626.738
8623.789
8620.93
8617.319
8613.077
8608.459
8603.539
8598.284
8592.666
8586.688
8580.37
8573.723
8566.753
8559.464
8551.86
8543.946
8535.725
8527.202
8518.38
8509.262
8499.854
8490.16
8480.184
8469.93
8459.405
8448.614
8437.565
8426.262
8414.715
8402.931
8390.917
8378.683
8366.237
8353.588
8340.747
8327.723
8314.525
8301.163
8287.647
8273.986
8260.19
8246.265
8232.222
8218.068
8203.819
8189.505
8175.182
8160.899
8146.663
8132.401
8117.948
8103.344
8088.656
8073.921
8059.152
8044.345
8029.497
8014.609
7999.68
7984.708
7969.69
7954.623
7939.503
7924.326
7909.087
7893.78
7878.4
7862.942
7847.398
7831.764
7816.032
7800.196
7784.25
7768.188
7752.003
7735.691
7719.244
7702.659
7685.929
7669.05
7652.017
7634.827
7617.476
7599.962
7582.281
7564.431
7546.413
7528.223
7509.863
7491.332
7472.63
7453.761
7434.722
7415.52
7396.157
7376.669
7357.137
7337.767
7383.791
7364.287
7343.9
7323.617
7303.262
7282.796
7262.247
7241.615
7220.911
7200.146
7179.329
7158.47
7137.579
7116.669
7095.748
7074.83
7053.924
7033.042
7012.194
6991.393
6970.649
6949.972
6929.373
6908.861
6888.446
6868.136
6847.938
6827.857
6807.896
6788.056
6768.329
6748.701
6729.147
6709.65
6690.289
6671.474
6653.868
6636.888
6620.056
6603.404
6586.94
6570.689
6554.672
6538.902
6523.391
6508.151
6493.188
6478.511
6464.124
6450.033
6436.242
6422.753
6409.571
6396.696
6384.131
6371.877
6359.934
6348.303
6336.984
6325.977
6315.28
6304.894
6294.817
6285.046
6275.576
6266.39
6257.546
6248.997
6240.757
6232.884
6162.84
6155.258
6147.574
6140.444
6133.815
6127.512
6121.48
6115.717
6110.229
6104.973
6099.967
6095.209
6090.694
6086.401
6082.334
6078.492
6074.869
6071.46
6068.26
6065.264
6062.468
6059.869
6057.459
6055.236
6053.194
6051.329
6049.636
6048.111
6046.75
6045.549
6044.502
6043.607
6042.858
6042.253
6041.786
6041.456
6041.257
6041.186
6041.242
6041.42
6041.72
6042.138
6042.673
6043.317
6044.053
6044.846
6045.664
6046.531
6047.484
6048.528
6049.66
6050.876
6052.178
6053.54
6054.847
6056.211
6057.706
6059.271
6060.887
6062.56
6064.29
6066.07
6067.896
6069.764
6071.67
6073.609
6075.581
6077.582
6079.609
6081.66
6083.734
6085.827
6087.937
6090.063
6092.202
6094.352
6096.511
6098.677
6100.848
6103.022
6105.197
6107.372
6109.544
6111.713
6113.875
6116.03
6118.176
6120.311
6122.434
6124.544
6126.638
6128.716
6130.776
6132.816
6134.836
6136.835
6138.81
6140.761
6142.686
6144.585
6146.456
6148.299
6150.111
6151.893
6153.642
6155.359
6157.041
6158.688
6160.299
6161.873
6163.408
6164.904
6166.36
6167.774
6169.144
6170.47
6171.751
6172.983
6174.167
6175.299
6176.377
6177.399
6178.361
6179.26
6180.091
6180.848
6181.525
6182.113
6182.6
6182.972
6183.21
6183.29
6183.189
6182.888
6182.438
6182.027
6182.247
6183.681
6186.842
7018.317
7046.395
7070.065
7093.447
7116.982
7140.859
7165.013
7189.842
7215.19
7239.163
7246.669
7271.649
7295.595
7320.111
7345.559
7371.943
7399.135
7426.872
7455.161
7455.942
7483.988
7512.923
7541.444
7569.39
7596.652
7623.133
7648.759
7673.647
7698.558
7720.747
7743.293
7764.731
7785.569
7805.822
7825.505
7844.639
7863.364
7882.057
7897.973
7913.957
7930.426
7946.298
7961.586
7976.334
7990.539
8004.245
8017.496
8029.893
8042.171
8053.848
8064.882
8075.594
8086.029
8096.164
8106.032
8116.135
8065.646
8074.529
8082.713
8090.501
8098.127
8105.632
8112.97
8120.099
8126.991
8133.611
8140.148
8146.384
8152.261
8157.975
8163.636
8169.234
8174.732
8180.12
8185.363
8190.512
8195.471
8200.146
8204.827
8209.621
8214.471
8219.313
8224.135
8228.924
8233.703
8238.502
8243.253
8248.031
8252.911
8257.901
8262.991
8268.185
8273.443
8278.734
8283.865
8289.351
8294.954
8300.522
8306.183
8312.018
8318.019
8324.119
8330.297
8336.523
8342.757
8348.987
8355.316
8361.793
8368.479
8375.438
8382.716
8390.234
8397.838
8405.287
8410.68
8413.98
8417.462
8421.216
8423.739
8424.56
8424.401
8424.055
8423.758
8423.44
8423.025
8422.496
8421.857
8421.115
8420.284
8419.412
8418.61
8418.054
8418.007
8418.727
8420.234
8422.443
8425.58
8428.84
8429.95
8427.689
8422.215
8413.844
8402.869
8392.573
8385.987
8381.953
8378.281
8374.159
8369.6
8364.76
8359.687
8354.331
8348.645
8342.625
8336.282
8329.621
8322.645
8315.354
8307.752
8299.841
8291.625
8283.107
8274.29
8265.177
8255.773
8246.08
8236.105
8225.851
8215.325
8204.531
8193.476
8182.167
8170.612
8158.818
8146.793
8134.546
8122.086
8109.422
8096.565
8083.523
8070.308
8056.928
8043.395
8029.718
8015.908
8001.974
7987.927
7973.781
7959.553
7945.262
7930.929
7916.581
7902.241
7887.889
7873.42
7858.808
7844.122
7829.397
7814.637
7799.838
7784.998
7770.119
7755.198
7740.236
7725.23
7710.176
7695.07
7679.907
7664.684
7649.394
7634.032
7618.593
7603.069
7587.454
7571.743
7555.929
7540.005
7523.965
7507.803
7491.513
7475.088
7458.524
7441.816
7424.957
7407.944
7390.773
7373.441
7355.943
7338.278
7320.443
7302.438
7284.261
7265.912
7247.391
7228.7
7209.839
7190.812
7171.625
7152.284
7132.808
7113.171
7093.32
7072.983
7053.12
7033.106
7012.864
6992.479
6971.995
6951.423
6930.766
6910.035
6889.24
6868.394
6847.506
6826.588
6805.651
6784.705
6763.763
6742.836
6721.935
6701.071
6680.256
6659.501
6638.816
6618.212
6597.699
6577.287
6556.985
6536.801
6516.741
6496.812
6477.019
6457.366
6437.86
6418.518
6399.385
6380.56
6362.197
6344.411
6327.096
6310.084
6293.316
6276.788
6260.508
6244.482
6228.718
6213.225
6198.009
6183.078
6168.436
6154.089
6140.041
6126.295
6112.855
6099.722
6086.9
6074.388
6062.189
6050.303
6038.729
6027.469
6016.52
6005.884
5995.558
5985.541
5975.829
5966.419
5957.315
5948.515
5940.015
5931.808
5923.891
5916.145
5908.572
5901.463
5894.719
5888.227
5881.973
5875.965
5870.208
5864.689
5859.443
5854.44
5849.68
5845.181
5840.859
5836.776
5832.924
5829.292
5825.873
5822.665
5819.661
5816.858
5814.251
5811.834
5809.604
5807.555
5805.684
5803.985
5802.455
5801.088
5799.881
5798.83
5797.93
5797.177
5796.567
5796.097
5795.762
5795.559
5795.484
5795.534
5795.705
5795.995
5796.399
5796.912
5797.526
5798.23
5799.006
5799.836
5800.727
5801.697
5802.751
5803.887
5805.101
5806.384
5807.74
5809.159
5810.591
5812.062
5813.597
5815.199
5816.866
5818.592
5820.37
5822.195
5824.063
5825.969
5827.911
5829.884
5831.886
5833.915
5835.968
5838.043
5840.137
5842.249
5844.376
5846.517
5848.668
5850.828
5852.995
5855.168
5857.343
5859.52
5861.696
5863.87
5866.04
5868.204
5870.36
5872.508
5874.645
5876.769
5878.881
5880.977
5883.056
5885.118
5887.16
5889.182
5891.182
5893.158
5895.111
5897.038
5898.939
5900.811
5902.655
5904.469
5906.252
5908.003
5909.721
5911.405
5913.053
5914.665
5916.24
5917.777
5919.274
5920.731
5922.146
5923.517
5924.845
5926.127
5927.361
5928.546
5929.681
5930.762
5931.787
5932.755
5933.66
5934.499
5935.269
5935.962
5936.574
5937.095
5937.519
5937.836
5938.041
5938.138
5938.15
5938.15
5938.269
5938.721
5939.74
5941.445
6544.05
6577.626
6600.22
6614.665
6634.728
6625.727
6644.503
6662.911
6681.813
6697.225
6713.574
6732.894
6751.842
6770.717
6789.762
6808.661
6827.566
6846.575
6866.023
6886.252
6907.675
6930.982
6953.302
6975.531
6998.659
7022.708
7047.784
7073.899
7101.023
7129.222
7158.911
7130.974
7162.305
7192.516
7221.173
7249.422
7277.343
7304.661
7331.253
7357.129
7382.275
7406.573
7430.102
7452.79
7474.686
7495.948
7516.601
7536.56
7555.821
7574.4
7592.236
7609.333
7625.824
7641.819
7657.308
7672.25
7686.635
7700.463
7713.745
7726.501
7738.653
7750.28
7761.487
7772.306
7782.733
7792.8
7802.438
7811.944
7821.326
7830.014
7837.979
7845.719
7853.395
7860.936
7868.273
7875.371
7882.234
7888.872
7895.268
7901.39
7907.31
7913.085
7918.739
7924.282
7929.704
7935
7940.185
7945.25
7950.107
7954.815
7959.533
7964.305
7969.09
7973.857
7978.596
7983.327
7988.041
7992.746
7997.488
8002.276
8007.116
8012.029
8017.022
8022.099
8027.224
8032.436
8037.696
8043.032
8048.526
8054.148
8059.872
8065.701
8071.64
8077.666
8083.764
8089.901
8096.066
8102.292
8108.606
8115.018
8121.548
8128.213
8134.986
8141.808
8148.557
8154.975
8160.235
8164.227
8167.81
8171.187
8173.767
8175.264
8175.992
8176.382
8176.63
8176.751
8176.729
8176.569
8176.29
8175.913
8175.468
8175.005
8174.605
8174.383
8174.486
8175.014
8175.976
8177.303
8178.831
8180.043
8179.875
8177.582
8173.04
8166.57
8158.687
8150.853
8144.611
8139.822
8135.456
8130.977
8126.229
8121.241
8116.046
8110.595
8104.844
8098.782
8092.41
8085.73
8078.741
8071.441
8063.833
8055.918
8047.698
8039.176
8030.355
8021.238
8011.828
8002.128
7992.144
7981.88
7971.342
7960.534
7949.463
7938.136
7926.561
7914.745
7902.696
7890.424
7877.937
7865.246
7852.359
7839.288
7826.043
7812.634
7799.072
7785.368
7771.533
7757.577
7743.514
7729.356
7715.116
7700.812
7686.458
7672.075
7657.67
7643.227
7628.703
7614.089
7599.412
7584.692
7569.935
7555.139
7540.304
7525.432
7510.522
7495.572
7480.581
7465.543
7450.455
7435.313
7420.111
7404.844
7389.506
7374.09
7358.592
7343.003
7327.318
7311.53
7295.632
7279.618
7263.481
7247.215
7230.814
7214.273
7197.586
7180.748
7163.754
7146.601
7129.285
7111.802
7094.149
7076.326
7058.331
7040.162
7021.819
7003.304
6984.616
6965.758
6946.733
6927.546
6908.197
6888.693
6869.015
6849.182
6829.21
6809.307
6789.28
6769.033
6748.637
6728.139
6707.55
6686.873
6666.12
6645.301
6624.429
6603.513
6582.566
6561.599
6540.622
6519.647
6498.687
6477.752
6456.854
6436.004
6415.214
6394.495
6373.857
6353.312
6332.869
6312.539
6292.331
6272.254
6252.318
6232.531
6212.905
6193.457
6174.212
6155.212
6136.517
6118.2
6100.319
6082.842
6065.682
6048.791
6032.161
6015.795
5999.696
5983.868
5968.318
5953.051
5938.072
5923.387
5908.998
5894.911
5881.129
5867.654
5854.488
5841.633
5829.092
5816.863
5804.949
5793.348
5782.062
5771.088
5760.426
5750.076
5740.035
5730.301
5720.871
5711.745
5702.919
5694.392
5686.155
5678.213
5670.538
5663.109
5655.963
5649.11
5642.541
5636.239
5630.203
5624.428
5618.905
5613.639
5608.621
5603.842
5599.275
5594.997
5590.937
5587.096
5583.465
5580.049
5576.842
5573.84
5571.037
5568.43
5566.014
5563.785
5561.737
5559.867
5558.17
5556.641
5555.276
5554.072
5553.022
5552.124
5551.374
5550.766
5550.298
5549.965
5549.763
5549.689
5549.739
5549.909
5550.195
5550.592
5551.095
5551.697
5552.388
5553.158
5553.997
5554.907
5555.893
5556.96
5558.104
5559.323
5560.612
5561.97
5563.385
5564.831
5566.325
5567.882
5569.503
5571.183
5572.917
5574.701
5576.532
5578.404
5580.315
5582.26
5584.238
5586.245
5588.279
5590.337
5592.418
5594.517
5596.634
5598.766
5600.912
5603.068
5605.233
5607.405
5609.582
5611.762
5613.943
5616.124
5618.302
5620.476
5622.644
5624.805
5626.956
5629.097
5631.226
5633.341
5635.441
5637.524
5639.589
5641.635
5643.66
5645.664
5647.644
5649.6
5651.531
5653.434
5655.31
5657.157
5658.974
5660.76
5662.514
5664.235
5665.922
5667.573
5669.188
5670.766
5672.306
5673.806
5675.266
5676.684
5678.059
5679.39
5680.676
5681.915
5683.106
5684.246
5685.334
5686.368
5687.345
5688.263
5689.118
5689.907
5690.627
5691.274
5691.843
5692.332
5692.741
5693.074
5693.345
5693.583
5693.845
5694.207
5694.779
5695.596
5696.823
6136.902
6151.542
6169.085
6166.818
6177.486
6160.658
6176.012
6192.808
6211.201
6230.876
6251.79
6271.12
6292.006
6312.841
6332.898
6351.862
6315.487
6335.824
6353.598
6370.065
6386.315
6404.063
6423.058
6441.751
6459.997
6478.097
6496.148
6514.262
6532.642
6551.612
6571.542
6592.669
6614.572
6636.42
6658.562
6681.533
6705.559
6730.698
6756.941
6784.156
6812.043
6840.198
6868.348
6899.364
6930.286
6960.143
6989.375
7018.153
7046.329
7073.762
7100.407
7126.254
7151.181
7175.22
7198.507
7221.101
7243.188
7264.881
7285.854
7305.903
7325.152
7343.597
7361.27
7378.323
7394.824
7410.748
7426.071
7440.79
7454.918
7468.461
7481.417
7493.811
7505.691
7517.085
7528.034
7538.562
7548.706
7558.487
7567.95
7577.061
7585.655
7593.786
7601.665
7609.38
7616.897
7624.178
7631.212
7638.008
7644.568
7650.885
7656.985
7662.904
7668.656
7674.257
7679.723
7685.062
7690.277
7695.373
7700.34
7705.171
7709.911
7714.621
7719.326
7724.022
7728.701
7733.363
7738.019
7742.669
7747.332
7752.03
7756.766
7761.547
7766.394
7771.314
7776.316
7781.39
7786.558
7791.793
7797.112
7802.57
7808.15
7813.823
7819.586
7825.443
7831.387
7837.401
7843.468
7849.587
7855.758
7861.98
7868.257
7874.594
7880.981
7887.383
7893.738
7899.912
7905.699
7910.776
7915.031
7918.721
7921.99
7924.668
7926.618
7927.953
7928.896
7929.6
7930.118
7930.468
7930.668
7930.739
7930.705
7930.598
7930.462
7930.354
7930.343
7930.504
7930.878
7931.448
7932.09
7932.621
7932.703
7931.801
7929.459
7925.565
7920.354
7914.245
7907.95
7902.246
7897.267
7892.561
7887.883
7883.04
7877.954
7872.67
7867.145
7861.34
7855.241
7848.843
7842.142
7835.137
7827.826
7820.209
7812.287
7804.06
7795.531
7786.703
7777.576
7768.156
7758.445
7748.447
7738.167
7727.61
7716.781
7705.687
7694.335
7682.732
7670.885
7658.804
7646.497
7633.974
7621.244
7608.319
7595.208
7581.922
7568.473
7554.872
7541.13
7527.259
7513.271
7499.177
7484.991
7470.725
7456.394
7442.01
7427.584
7413.12
7398.614
7384.049
7369.422
7354.741
7340.018
7325.258
7310.463
7295.635
7280.772
7265.873
7250.938
7235.964
7220.946
7205.88
7190.761
7175.585
7160.345
7145.036
7129.651
7114.183
7098.626
7082.972
7067.216
7051.349
7035.366
7019.259
7003.022
6986.65
6970.135
6953.473
6936.658
6919.686
6902.552
6885.252
6867.784
6850.145
6832.332
6814.344
6796.18
6777.84
6759.325
6740.636
6721.774
6702.743
6683.546
6664.186
6644.669
6624.999
6605.199
6585.279
6565.273
6545.139
6524.845
6504.419
6483.885
6463.257
6442.54
6421.745
6400.885
6379.969
6359.01
6338.017
6317.004
6295.981
6274.961
6253.953
6232.972
6212.028
6191.132
6170.297
6149.534
6128.855
6108.27
6087.79
6067.427
6047.191
6027.093
6007.145
5987.358
5967.749
5948.335
5929.143
5910.203
5891.558
5873.249
5855.307
5837.718
5820.441
5803.449
5786.732
5770.29
5754.125
5738.24
5722.638
5707.325
5692.305
5677.581
5663.159
5649.04
5635.229
5621.728
5608.538
5595.661
5583.099
5570.852
5558.921
5547.305
5536.004
5525.017
5514.342
5503.98
5493.927
5484.182
5474.742
5465.607
5456.772
5448.236
5439.991
5432.039
5424.365
5416.949
5409.808
5402.954
5396.386
5390.09
5384.06
5378.292
5372.779
5367.52
5362.509
5357.738
5353.2
5348.908
5344.843
5341
5337.383
5333.976
5330.778
5327.786
5324.993
5322.396
5319.99
5317.77
5315.733
5313.873
5312.186
5310.668
5309.314
5308.119
5307.081
5306.193
5305.453
5304.855
5304.397
5304.073
5303.881
5303.815
5303.872
5304.048
5304.338
5304.738
5305.242
5305.843
5306.535
5307.31
5308.162
5309.09
5310.095
5311.178
5312.336
5313.567
5314.866
5316.229
5317.649
5319.118
5320.641
5322.223
5323.862
5325.557
5327.303
5329.098
5330.938
5332.82
5334.739
5336.694
5338.681
5340.697
5342.74
5344.807
5346.896
5349.005
5351.131
5353.272
5355.426
5357.591
5359.764
5361.944
5364.129
5366.317
5368.506
5370.694
5372.88
5375.062
5377.237
5379.405
5381.563
5383.711
5385.846
5387.967
5390.074
5392.163
5394.234
5396.286
5398.317
5400.326
5402.312
5404.274
5406.209
5408.118
5410
5411.852
5413.674
5415.465
5417.224
5418.949
5420.641
5422.297
5423.917
5425.5
5427.045
5428.55
5430.015
5431.439
5432.821
5434.158
5435.451
5436.698
5437.897
5439.047
5440.147
5441.193
5442.186
5443.122
5443.999
5444.816
5445.57
5446.259
5446.883
5447.442
5447.94
5448.385
5448.794
5449.192
5449.619
5450.123
5450.764
5451.523
5452.59
5978.566
5969.322
5957.593
5935.102
5925.063
5886.156
5880.23
5875.705
5872.998
5872.25
5872.806
5875.927
5881.424
5889.039
5898.564
5853.641
5869.817
5886.836
5905.336
5924.886
5945.304
5966.547
5988.035
6009.109
6029.337
6049.052
6066.482
6085.367
6102.501
6118.708
6134.926
6151.913
6169.418
6186.887
6204.334
6221.796
6239.247
6256.765
6274.521
6292.76
6311.717
6331.438
6351.965
6373.124
6394.831
6417.382
6441.038
6465.889
6491.937
6519.044
6547.141
6576.422
6606.464
6637.623
6668.989
6699.821
6730.041
6759.739
6788.869
6817.295
6844.917
6871.692
6897.405
6922.019
6945.916
6969.261
6991.91
7014.013
7035.559
7056.263
7076.116
7095.166
7113.463
7131.083
7148.065
7164.406
7180.102
7195.156
7209.584
7223.397
7236.598
7249.227
7261.311
7272.878
7283.97
7294.617
7304.849
7314.682
7324.117
7333.168
7341.817
7350.085
7358.046
7365.756
7373.223
7380.441
7387.412
7394.141
7400.635
7406.904
7412.966
7418.836
7424.529
7430.062
7435.451
7440.708
7445.84
7450.85
7455.744
7460.535
7465.244
7469.899
7474.526
7479.135
7483.73
7488.314
7492.895
7497.482
7502.086
7506.72
7511.393
7516.115
7520.901
7525.761
7530.701
7535.722
7540.831
7546.024
7551.313
7556.717
7562.232
7567.845
7573.553
7579.353
7585.238
7591.185
7597.185
7603.245
7609.348
7615.475
7621.625
7627.793
7633.958
7640.077
7646.082
7651.864
7657.293
7662.212
7666.527
7670.304
7673.619
7676.436
7678.698
7680.451
7681.819
7682.909
7683.781
7684.466
7684.984
7685.361
7685.622
7685.796
7685.915
7686.018
7686.143
7686.323
7686.566
7686.826
7687.002
7686.937
7686.396
7685.08
7682.737
7679.299
7674.912
7669.856
7664.526
7659.332
7654.431
7649.663
7644.895
7639.99
7634.863
7629.524
7623.945
7618.098
7611.966
7605.542
7598.82
7591.798
7584.472
7576.841
7568.906
7560.667
7552.125
7543.281
7534.139
7524.7
7514.968
7504.947
7494.641
7484.055
7473.195
7462.067
7450.677
7439.033
7427.144
7415.017
7402.661
7390.088
7377.307
7364.328
7351.163
7337.823
7324.32
7310.665
7296.871
7282.95
7268.914
7254.775
7240.546
7226.239
7211.867
7197.439
7182.966
7168.45
7153.893
7139.289
7124.638
7109.942
7095.21
7080.445
7065.651
7050.827
7035.972
7021.086
7006.165
6991.209
6976.211
6961.169
6946.076
6930.927
6915.717
6900.439
6885.086
6869.651
6854.128
6838.508
6822.785
6806.951
6791
6774.924
6758.716
6742.371
6725.882
6709.243
6692.449
6675.495
6658.376
6641.089
6623.63
6605.996
6588.185
6570.196
6552.028
6533.681
6515.155
6496.451
6477.572
6458.52
6439.299
6419.914
6400.37
6380.675
6360.839
6340.865
6320.772
6300.554
6280.201
6259.722
6239.132
6218.444
6197.666
6176.81
6155.886
6134.907
6113.883
6092.825
6071.747
6050.659
6029.573
6008.502
5987.457
5966.45
5945.494
5924.6
5903.78
5883.046
5862.41
5841.883
5821.477
5801.204
5781.076
5761.106
5741.307
5721.696
5702.292
5683.116
5664.194
5645.555
5627.227
5609.227
5591.551
5574.181
5557.103
5540.309
5523.799
5507.574
5491.636
5475.989
5460.635
5445.58
5430.826
5416.377
5402.236
5388.406
5374.888
5361.685
5348.799
5336.229
5323.977
5312.043
5300.426
5289.126
5278.142
5267.473
5257.118
5247.075
5237.341
5227.913
5218.791
5209.969
5201.445
5193.215
5185.273
5177.613
5170.226
5163.119
5156.295
5149.751
5143.477
5137.47
5131.724
5126.234
5120.997
5116.008
5111.261
5106.751
5102.478
5098.435
5094.614
5091.013
5087.628
5084.453
5081.482
5078.712
5076.137
5073.753
5071.556
5069.54
5067.702
5066.036
5064.539
5063.205
5062.032
5061.013
5060.145
5059.424
5058.846
5058.406
5058.1
5057.925
5057.875
5057.948
5058.138
5058.441
5058.853
5059.367
5059.98
5060.684
5061.474
5062.345
5063.294
5064.321
5065.425
5066.602
5067.851
5069.168
5070.548
5071.987
5073.481
5075.029
5076.634
5078.294
5080.006
5081.769
5083.579
5085.433
5087.328
5089.261
5091.228
5093.228
5095.256
5097.312
5099.391
5101.492
5103.612
5105.75
5107.902
5110.067
5112.243
5114.427
5116.618
5118.813
5121.011
5123.21
5125.408
5127.603
5129.793
5131.978
5134.154
5136.321
5138.478
5140.621
5142.75
5144.864
5146.961
5149.04
5151.099
5153.137
5155.154
5157.146
5159.114
5161.057
5162.972
5164.859
5166.718
5168.546
5170.343
5172.107
5173.839
5175.536
5177.199
5178.825
5180.414
5181.965
5183.476
5184.948
5186.379
5187.768
5189.114
5190.415
5191.672
5192.881
5194.043
5195.156
5196.218
5197.229
5198.186
5199.088
5199.935
5200.726
5201.459
5202.137
5202.761
5203.338
5203.877
5204.392
5204.905
5205.443
5206.036
5206.722
5207.471
5208.484
5933.546
5867.522
5814.97
5767.817
5731.484
5705.189
5685.594
5670.887
5659.311
5649.678
5580.526
5574.92
5570.482
5567.711
5566.75
5567.801
5571.041
5576.491
5584.066
5594.001
5605.768
5620.916
5637.719
5656.074
5675.688
5696.433
5717.97
5739.649
5760.876
5781.553
5801.218
5819.733
5837.926
5855.08
5871.432
5887.491
5903.602
5919.702
5935.915
5952.38
5968.855
5985.258
6001.672
6018.257
6035.226
6052.811
6071.205
6090.5
6110.606
6131.441
6153.194
6176.119
6200.353
6225.933
6252.826
6280.973
6310.435
6340.8
6371.788
6403.188
6434.557
6465.585
6496.183
6526.305
6555.83
6584.661
6612.716
6639.823
6665.942
6691.254
6715.956
6739.754
6762.356
6784.178
6805.462
6826.053
6845.871
6864.917
6883.218
6900.804
6917.692
6933.883
6949.384
6964.213
6978.394
6991.891
7004.795
7017.125
7028.909
7040.181
7050.973
7061.31
7071.213
7080.696
7089.782
7098.476
7106.789
7114.771
7122.465
7129.887
7137.047
7143.956
7150.622
7157.052
7163.258
7169.253
7175.052
7180.671
7186.126
7191.431
7196.599
7201.639
7206.56
7211.374
7216.094
7220.733
7225.315
7229.86
7234.383
7238.892
7243.393
7247.894
7252.406
7256.938
7261.502
7266.108
7270.767
7275.491
7280.288
7285.165
7290.128
7295.18
7300.327
7305.573
7310.929
7316.394
7321.964
7327.63
7333.383
7339.225
7345.125
7351.063
7357.041
7363.052
7369.091
7375.144
7381.192
7387.202
7393.127
7398.901
7404.441
7409.666
7414.481
7418.817
7422.679
7426.1
7429.076
7431.59
7433.668
7435.381
7436.805
7437.988
7438.964
7439.755
7440.385
7440.883
7441.272
7441.575
7441.817
7442.017
7442.186
7442.313
7442.351
7442.216
7441.785
7440.897
7439.375
7437.083
7433.974
7430.137
7425.751
7421.052
7416.278
7411.554
7406.837
7402.04
7397.086
7391.925
7386.544
7380.922
7375.036
7368.87
7362.416
7355.666
7348.618
7341.267
7333.613
7325.653
7317.388
7308.818
7299.946
7290.772
7281.3
7271.531
7261.47
7251.121
7240.489
7229.578
7218.396
7206.949
7195.245
7183.292
7171.099
7158.675
7146.031
7133.178
7120.125
7106.886
7093.472
7079.896
7066.169
7052.305
7038.315
7024.213
7010.012
6995.723
6981.359
6966.931
6952.448
6937.92
6923.351
6908.744
6894.1
6879.418
6864.701
6849.955
6835.183
6820.386
6805.564
6790.717
6775.843
6760.939
6746.003
6731.031
6716.016
6700.954
6685.838
6670.662
6655.419
6640.103
6624.704
6609.217
6593.634
6577.946
6562.146
6546.227
6530.182
6514.003
6497.683
6481.217
6464.598
6447.821
6430.88
6413.771
6396.49
6379.034
6361.399
6343.583
6325.586
6307.405
6289.041
6270.495
6251.768
6232.861
6213.779
6194.524
6175.101
6155.517
6135.776
6115.888
6095.856
6075.694
6055.404
6034.985
6014.442
5993.787
5973.031
5952.185
5931.26
5910.266
5889.216
5868.121
5846.992
5825.842
5804.682
5783.526
5762.385
5741.272
5720.198
5699.177
5678.221
5657.341
5636.55
5615.861
5595.286
5574.836
5554.526
5534.366
5514.371
5494.556
5474.936
5455.528
5436.352
5417.43
5398.783
5380.429
5362.382
5344.643
5327.206
5310.063
5293.212
5276.651
5260.381
5244.404
5228.724
5213.343
5198.264
5183.492
5169.029
5154.877
5141.039
5127.517
5114.312
5101.426
5088.86
5076.614
5064.687
5053.08
5041.792
5030.821
5020.168
5009.829
4999.804
4990.09
4980.683
4971.581
4962.782
4954.281
4946.074
4938.157
4930.524
4923.173
4916.101
4909.31
4902.794
4896.55
4890.571
4884.854
4879.395
4874.188
4869.228
4864.511
4860.033
4855.79
4851.776
4847.985
4844.414
4841.057
4837.91
4834.968
4832.227
4829.68
4827.325
4825.155
4823.168
4821.357
4819.718
4818.248
4816.941
4815.793
4814.8
4813.957
4813.26
4812.706
4812.289
4812.006
4811.852
4811.824
4811.917
4812.126
4812.448
4812.877
4813.409
4814.039
4814.761
4815.57
4816.463
4817.436
4818.487
4819.614
4820.815
4822.086
4823.424
4824.825
4826.287
4827.806
4829.38
4831.009
4832.691
4834.424
4836.207
4838.035
4839.906
4841.818
4843.766
4845.749
4847.764
4849.808
4851.877
4853.971
4856.086
4858.22
4860.372
4862.537
4864.715
4866.904
4869.101
4871.304
4873.511
4875.721
4877.931
4880.14
4882.346
4884.548
4886.743
4888.929
4891.106
4893.272
4895.425
4897.564
4899.687
4901.793
4903.88
4905.947
4907.994
4910.018
4912.018
4913.994
4915.944
4917.867
4919.761
4921.627
4923.462
4925.265
4927.037
4928.775
4930.479
4932.148
4933.781
4935.377
4936.935
4938.454
4939.934
4941.372
4942.77
4944.124
4945.435
4946.702
4947.923
4949.098
4950.226
4951.305
4952.334
4953.314
4954.242
4955.12
4955.946
4956.723
4957.451
4958.135
4958.78
4959.397
4959.996
4960.596
4961.215
4961.874
4962.599
4963.355
4964.355
5653.766
5586.347
5468.065
5435.339
5409.252
5389.361
5374.153
5362.209
5352.398
5344.177
5337.075
5331.301
5326.604
5323.346
5321.776
5322.171
5324.763
5329.721
5337.179
5347.215
5359.378
5374.478
5391.495
5410
5429.883
5450.83
5472.454
5494.353
5516.134
5537.334
5557.399
5575.856
5593.364
5610.186
5626.126
5641.385
5656.349
5671.235
5686.123
5701.057
5715.914
5730.651
5745.371
5760.252
5775.517
5791.401
5808.113
5825.792
5844.458
5864.103
5884.844
5906.88
5930.36
5955.35
5981.843
6009.776
6039.019
6069.247
6100.21
6131.759
6163.599
6195.406
6226.976
6258.212
6288.976
6319.204
6348.846
6377.686
6405.579
6432.529
6458.539
6483.508
6507.288
6530.209
6552.608
6574.33
6595.232
6615.275
6634.49
6652.887
6670.502
6687.353
6703.452
6718.822
6733.563
6747.365
6760.597
6773.226
6785.266
6796.75
6807.711
6818.179
6828.18
6837.74
6846.881
6855.614
6863.93
6871.907
6879.575
6886.951