/*--------------------------------*- C++ -*----------------------------------*\
| =========                 |                                                 |
| \\      /  F ield         | foam-extend: Open Source CFD                    |
|  \\    /   O peration     | Version:     3.1                                |
|   \\  /    A nd           | Web:         http://www.extend-project.de       |
|    \\/     M anipulation  |                                                 |
\*---------------------------------------------------------------------------*/
FoamFile
{
    version     2.0;
    format      ascii;
    class       volScalarField;
    location    "3.5";
    object      pd;
}
// * * * * * * * * * * * * * * * * * * * * * * * * * * * * * * * * * * * * * //

dimensions      [1 -1 -2 0 0 0 0];

internalField   nonuniform List<scalar> 
119952
(
9503.881
9299.553
9262.247
9293.168
9330.642
9304.037
9297.807
9293.041
9290.28
9288.268
9286.591
9285.116
9283.717
9282.274
9280.681
9278.81
9276.434
9273.022
9266.428
9248.168
9310.682
9266.592
9249.138
9330.575
9311.13
9318.67
9320.575
9339.856
9410.375
6871.648
9052.117
9052.682
9057.551
9062.554
9067.323
9072.413
9077.15
9082.312
9087.83
9089.473
9094.554
9100.788
9105.418
9110.314
9115.517
9120.735
9126.28
9131.575
9137.536
9147.506
9150.933
9154.636
9160.21
9166.199
9172.183
9178.34
9184.701
9190.942
9197.592
9202.37
9208.6
9215.313
9221.71
9228.279
9234.915
9241.556
9249.423
9264.378
9294.96
9276.094
9275.785
9290.198
9298.115
9297.578
9293.149
9290.441
9288.601
9286.946
9285.501
9284.223
9282.974
9281.655
9280.183
9278.458
9276.352
9273.762
9270.779
9268.44
9270.66
9272.494
9269.421
9284.917
9307.357
9309.365
9309.87
9310.185
9295.293
9242.895
9229.929
9235.304
9233.603
9231.787
9229.227
9225.626
9221.47
9216.831
9211.757
9206.286
9200.436
9194.228
9187.678
9180.794
9173.586
9166.06
9158.221
9150.073
9141.621
9132.87
9123.822
9114.483
9104.858
9094.95
9084.764
9074.306
9063.581
9052.597
9041.36
9029.877
9018.156
9006.205
8994.032
8981.646
8969.056
8956.271
8943.302
8930.157
8916.846
8903.378
8889.762
8876.007
8862.118
8848.103
8833.962
8819.689
8805.26
8790.694
8776.357
8762.804
8749.261
8734.358
8719.593
8704.91
8690.157
8675.381
8660.572
8645.724
8630.836
8615.908
8600.937
8585.922
8570.861
8555.746
8540.573
8525.338
8510.035
8494.66
8479.208
8463.67
8448.043
8432.319
8416.493
8400.558
8384.507
8368.335
8352.036
8335.605
8319.036
8302.325
8285.465
8268.453
8251.286
8233.958
8216.468
8198.814
8180.991
8163.001
8144.84
8126.51
8108.009
8089.338
8070.497
8051.488
8032.31
8012.959
7993.413
7973.623
7953.69
7937.382
7917.29
7896.847
7876.833
7856.474
7836.069
7815.542
7794.941
7774.261
7753.516
7732.719
7711.875
7690.998
7670.1
7649.191
7628.281
7607.385
7586.512
7565.673
7544.879
7524.141
7503.468
7482.873
7462.364
7441.951
7421.641
7401.441
7381.359
7361.395
7341.546
7321.802
7302.139
7282.497
7262.747
7242.452
7221.885
7205.805
7189.309
7172.703
7156.139
7139.724
7123.504
7107.504
7091.747
7076.245
7061.008
7046.046
7031.367
7016.976
7002.879
6989.081
6975.584
6962.392
6949.508
6936.931
6924.666
6912.71
6901.067
6889.734
6878.712
6868.001
6857.599
6847.506
6837.721
6828.248
6819.086
6810.209
6801.626
6793.334
6785.423
6780.035
6770.382
6762.258
6755.293
6748.555
6742.185
6736.11
6730.307
6724.752
6719.471
6714.428
6709.626
6705.062
6700.729
6696.621
6692.737
6689.072
6685.621
6682.379
6679.343
6676.507
6673.872
6671.421
6669.159
6667.081
6665.179
6663.451
6661.892
6660.497
6659.262
6658.183
6657.256
6656.477
6655.841
6655.346
6654.986
6654.76
6654.662
6654.692
6654.846
6655.124
6655.526
6656.057
6656.728
6657.543
6658.413
6659.156
6659.915
6660.817
6661.819
6662.916
6664.108
6665.384
6666.626
6667.195
6669.075
6670.753
6672.306
6673.92
6675.59
6677.311
6679.083
6680.902
6682.762
6684.661
6686.594
6688.56
6690.555
6692.578
6694.625
6696.694
6698.784
6700.891
6703.014
6705.151
6707.299
6709.456
6711.621
6713.792
6715.965
6718.141
6720.316
6722.489
6724.658
6726.822
6728.978
6731.126
6733.264
6735.389
6737.502
6739.599
6741.68
6743.744
6745.788
6747.813
6749.816
6751.796
6753.752
6755.683
6757.587
6759.465
6761.313
6763.133
6764.921
6766.678
6768.402
6770.092
6771.748
6773.367
6774.95
6776.494
6778
6779.465
6780.888
6782.269
6783.606
6784.897
6786.141
6787.336
6788.48
6789.57
6790.604
6791.579
6792.49
6793.333
6794.103
6794.79
6795.386
6795.876
6796.242
6796.456
6796.48
6796.25
6795.663
6794.544
6792.649
6790.2
6791.109
6806.561
8695.493
8713.472
8728.921
8744.223
8759.025
8773.438
8787.387
8801.216
8813.888
8821.461
8836.535
8848.341
8859.704
8870.51
8881.146
8891.384
8901.229
8910.595
8925.24
8933.522
8938.931
8946.676
8954.363
8961.95
8969.416
8976.701
8983.773
8990.734
8996.656
9002.169
9008.758
9014.693
9020.521
9026.25
9031.846
9037.368
9042.957
9048.601
9051.458
9056.359
9061.719
9066.759
9071.804
9076.771
9081.734
9086.691
9091.348
9096.052
9101.241
9106.028
9110.781
9115.755
9120.861
9126.142
9131.62
9137.749
9142.515
9148.556
9154.868
9160.652
9166.297
9172.125
9178.159
9184.315
9190.499
9196.637
9203.044
9209.365
9215.59
9221.947
9228.585
9235.606
9243.302
9252.048
9261.777
9270.382
9274.669
9277.048
9281.412
9285.757
9287.826
9287.569
9286.418
9285.296
9284.376
9283.551
9282.704
9281.783
9280.769
9279.631
9278.342
9276.915
9275.474
9274.293
9273.887
9274.691
9276.804
9280.288
9285.972
9292.754
9295.965
9294.076
9287.197
9275.142
9259.008
9245.88
9239.863
9236.914
9234.055
9230.444
9226.202
9221.584
9216.664
9211.409
9205.791
9199.813
9193.495
9186.848
9179.878
9172.589
9164.985
9157.071
9148.85
9140.327
9131.505
9122.387
9112.979
9103.285
9093.309
9083.055
9072.53
9061.739
9050.69
9039.387
9027.84
9016.056
9004.042
8991.808
8979.362
8966.713
8953.872
8940.848
8927.65
8914.288
8900.772
8887.111
8873.315
8859.39
8845.347
8831.193
8816.944
8802.63
8788.307
8774.024
8759.788
8745.526
8731.073
8716.469
8701.781
8687.046
8672.277
8657.47
8642.622
8627.734
8612.805
8597.833
8582.815
8567.748
8552.628
8537.451
8522.212
8506.905
8491.525
8476.067
8460.523
8444.889
8429.157
8413.321
8397.375
8381.313
8365.128
8348.816
8332.369
8315.784
8299.054
8282.175
8265.142
8247.952
8230.601
8213.087
8195.406
8177.556
8159.538
8141.348
8122.988
8104.457
8085.755
8066.886
8047.847
8028.645
8009.282
7989.794
7970.262
7950.892
7935.603
7916.099
7895.713
7875.429
7855.075
7834.609
7814.059
7793.427
7772.723
7751.958
7731.141
7710.282
7689.392
7668.481
7647.561
7626.642
7605.736
7584.854
7564.007
7543.206
7522.461
7501.785
7481.185
7460.674
7440.258
7419.948
7399.75
7379.669
7359.709
7339.868
7320.141
7300.513
7280.96
7261.462
7242.101
7223.286
7205.68
7188.7
7171.869
7155.217
7138.752
7122.502
7106.484
7090.714
7075.204
7059.963
7045.001
7030.324
7015.937
7001.846
6988.054
6974.566
6961.383
6948.509
6935.944
6923.689
6911.747
6900.116
6888.797
6877.789
6867.093
6856.707
6846.629
6836.859
6827.389
6818.202
6809.358
6800.81
6792.569
6784.697
6775.965
6768.383
6760.699
6753.569
6746.94
6740.637
6734.605
6728.842
6723.354
6718.098
6713.092
6708.334
6703.819
6699.526
6695.459
6691.617
6687.994
6684.585
6681.385
6678.389
6675.593
6672.994
6670.584
6668.361
6666.319
6664.454
6662.761
6661.236
6659.875
6658.674
6657.627
6656.732
6655.983
6655.378
6654.911
6654.581
6654.382
6654.311
6654.367
6654.545
6654.845
6655.263
6655.798
6656.442
6657.178
6657.971
6658.789
6659.656
6660.609
6661.653
6662.785
6664.001
6665.303
6666.665
6667.972
6669.336
6670.831
6672.396
6674.012
6675.685
6677.415
6679.195
6681.021
6682.889
6684.795
6686.734
6688.706
6690.707
6692.734
6694.785
6696.859
6698.952
6701.062
6703.188
6705.327
6707.477
6709.636
6711.802
6713.973
6716.147
6718.322
6720.497
6722.669
6724.838
6727
6729.155
6731.301
6733.436
6735.559
6737.669
6739.763
6741.841
6743.901
6745.941
6747.961
6749.96
6751.935
6753.886
6755.811
6757.71
6759.581
6761.424
6763.236
6765.018
6766.767
6768.484
6770.166
6771.813
6773.424
6774.998
6776.533
6778.03
6779.485
6780.899
6782.269
6783.595
6784.876
6786.108
6787.292
6788.424
6789.502
6790.524
6791.486
6792.385
6793.216
6793.973
6794.65
6795.238
6795.725
6796.097
6796.335
6796.415
6796.314
6796.013
6795.563
6795.152
6795.372
6796.806
6799.967
7799.303
7823.84
7844.242
7864.357
7884.625
7905.23
7926.121
7947.683
7969.763
7991.587
8013.076
8038.056
8062.002
8086.517
8111.965
8138.349
8165.542
8193.279
8221.567
8253.005
8281.051
8309.985
8338.507
8366.453
8393.715
8420.196
8445.822
8470.709
8495.621
8517.809
8540.356
8561.794
8582.632
8602.885
8622.568
8641.702
8660.427
8679.12
8695.036
8711.019
8727.489
8743.361
8758.648
8773.396
8787.601
8801.308
8814.559
8826.955
8839.233
8850.91
8861.945
8872.656
8883.091
8893.227
8903.095
8913.197
8924.021
8932.904
8941.088
8948.876
8956.502
8964.007
8971.345
8978.474
8985.366
8991.986
8998.523
9004.759
9010.636
9016.35
9022.011
9027.609
9033.107
9038.495
9043.738
9048.887
9053.846
9058.522
9063.202
9067.996
9072.846
9077.688
9082.51
9087.299
9092.078
9096.877
9101.628
9106.406
9111.286
9116.276
9121.366
9126.56
9131.818
9137.109
9142.24
9147.726
9153.329
9158.897
9164.558
9170.393
9176.394
9182.494
9188.672
9194.898
9201.132
9207.362
9213.691
9220.168
9226.854
9233.813
9241.091
9248.609
9256.213
9263.662
9269.055
9272.355
9275.837
9279.591
9282.114
9282.935
9282.776
9282.43
9282.133
9281.815
9281.4
9280.871
9280.232
9279.49
9278.659
9277.788
9276.985
9276.429
9276.382
9277.102
9278.609
9280.818
9283.955
9287.215
9288.325
9286.064
9280.59
9272.219
9261.244
9250.948
9244.362
9240.328
9236.656
9232.534
9227.975
9223.135
9218.062
9212.706
9207.02
9201
9194.657
9187.996
9181.02
9173.729
9166.127
9158.216
9150
9141.482
9132.665
9123.552
9114.148
9104.455
9094.48
9084.226
9073.7
9062.906
9051.851
9040.542
9028.987
9017.193
9005.168
8992.921
8980.461
8967.797
8954.94
8941.898
8928.683
8915.303
8901.77
8888.093
8874.283
8860.349
8846.302
8832.156
8817.928
8803.637
8789.304
8774.956
8760.616
8746.264
8731.795
8717.183
8702.497
8687.772
8673.012
8658.213
8643.373
8628.494
8613.573
8598.611
8583.605
8568.551
8553.445
8538.282
8523.059
8507.769
8492.407
8476.968
8461.444
8445.829
8430.118
8414.304
8398.38
8382.34
8366.178
8349.888
8333.463
8316.899
8300.191
8283.332
8266.319
8249.148
8231.816
8214.318
8196.653
8178.818
8160.813
8142.636
8124.287
8105.766
8087.075
8068.214
8049.187
8030
8010.659
7991.183
7971.546
7951.695
7931.358
7911.495
7891.481
7871.239
7850.854
7830.37
7809.798
7789.141
7768.41
7747.615
7726.769
7705.881
7684.963
7664.026
7643.08
7622.138
7601.211
7580.31
7559.446
7538.631
7517.876
7497.191
7476.587
7456.074
7435.662
7415.36
7395.176
7375.116
7355.187
7335.394
7315.741
7296.235
7276.893
7257.76
7238.935
7220.572
7202.786
7185.471
7168.459
7151.691
7135.163
7118.883
7102.857
7087.093
7071.6
7056.384
7041.453
7026.811
7012.464
6998.416
6984.67
6971.23
6958.097
6945.275
6932.763
6920.564
6908.678
6897.104
6885.844
6874.895
6864.259
6853.933
6843.916
6834.204
6824.794
6815.69
6806.89
6798.39
6790.183
6782.266
6774.52
6766.947
6759.838
6753.094
6746.602
6740.348
6734.34
6728.583
6723.064
6717.818
6712.815
6708.055
6703.556
6699.234
6695.151
6691.299
6687.667
6684.248
6681.04
6678.036
6675.233
6672.626
6670.209
6667.979
6665.93
6664.059
6662.36
6660.83
6659.463
6658.256
6657.205
6656.305
6655.552
6654.942
6654.472
6654.137
6653.934
6653.859
6653.909
6654.08
6654.37
6654.774
6655.287
6655.901
6656.605
6657.381
6658.211
6659.102
6660.072
6661.126
6662.262
6663.476
6664.759
6666.115
6667.534
6668.966
6670.437
6671.972
6673.574
6675.241
6676.967
6678.745
6680.57
6682.438
6684.344
6686.286
6688.259
6690.261
6692.29
6694.343
6696.418
6698.512
6700.624
6702.751
6704.892
6707.043
6709.203
6711.37
6713.543
6715.718
6717.895
6720.071
6722.245
6724.415
6726.579
6728.735
6730.883
6733.02
6735.144
6737.256
6739.352
6741.431
6743.493
6745.535
6747.557
6749.557
6751.533
6753.486
6755.413
6757.314
6759.186
6761.03
6762.844
6764.627
6766.378
6768.096
6769.78
6771.428
6773.04
6774.615
6776.152
6777.649
6779.106
6780.521
6781.892
6783.22
6784.502
6785.736
6786.921
6788.056
6789.137
6790.162
6791.13
6792.035
6792.874
6793.644
6794.337
6794.949
6795.47
6795.894
6796.211
6796.416
6796.513
6796.525
6796.525
6796.644
6797.096
6798.115
6799.82
7561.255
7583.277
7602.396
7626.321
7646.384
7668.04
7686.816
7705.224
7724.126
7739.537
7755.886
7775.206
7794.154
7813.029
7832.074
7850.974
7869.878
7888.887
7908.336
7928.565
7949.988
7973.294
7995.615
8017.843
8040.972
8065.021
8090.097
8116.211
8143.336
8171.534
8201.224
8234.599
8265.93
8296.141
8324.798
8353.047
8380.968
8408.286
8434.878
8460.754
8485.9
8510.198
8533.727
8556.415
8578.311
8599.573
8620.226
8640.185
8659.446
8678.026
8695.861
8712.958
8729.45
8745.444
8760.933
8775.875
8790.26
8804.088
8817.37
8830.126
8842.278
8853.905
8865.112
8875.931
8886.358
8896.425
8906.063
8915.569
8924.951
8933.639
8941.604
8949.344
8957.02
8964.561
8971.898
8978.996
8985.859
8992.497
8998.893
9005.015
9010.935
9016.71
9022.364
9027.907
9033.329
9038.625
9043.81
9048.875
9053.732
9058.44
9063.158
9067.93
9072.715
9077.482
9082.221
9086.952
9091.666
9096.371
9101.113
9105.901
9110.741
9115.654
9120.647
9125.724
9130.849
9136.061
9141.321
9146.657
9152.151
9157.773
9163.497
9169.326
9175.265
9181.291
9187.389
9193.526
9199.691
9205.917
9212.231
9218.643
9225.173
9231.838
9238.611
9245.433
9252.182
9258.6
9263.861
9267.852
9271.435
9274.812
9277.392
9278.889
9279.617
9280.007
9280.255
9280.376
9280.354
9280.194
9279.915
9279.538
9279.093
9278.63
9278.23
9278.008
9278.111
9278.639
9279.601
9280.928
9282.456
9283.668
9283.5
9281.207
9276.665
9270.195
9262.312
9254.478
9248.236
9243.447
9239.081
9234.602
9229.854
9224.866
9219.671
9214.22
9208.469
9202.407
9196.035
9189.355
9182.366
9175.066
9167.458
9159.543
9151.323
9142.801
9133.98
9124.863
9115.453
9105.753
9095.769
9085.505
9074.967
9064.159
9053.088
9041.761
9030.186
9018.37
9006.321
8994.049
8981.562
8968.871
8955.984
8942.913
8929.668
8916.259
8902.697
8888.993
8875.158
8861.202
8847.139
8832.981
8818.741
8804.437
8790.083
8775.7
8761.295
8746.852
8732.328
8717.714
8703.037
8688.317
8673.56
8658.764
8643.929
8629.057
8614.147
8599.197
8584.206
8569.168
8554.08
8538.938
8523.736
8508.469
8493.131
8477.715
8462.217
8446.628
8430.943
8415.155
8399.257
8383.243
8367.106
8350.84
8334.439
8317.898
8301.211
8284.373
8267.379
8250.226
8232.91
8215.426
8197.774
8179.951
8161.956
8143.787
8125.444
8106.929
8088.241
8069.383
8050.358
8031.171
8011.822
7992.318
7972.64
7952.807
7932.835
7912.932
7892.905
7872.658
7852.262
7831.764
7811.175
7790.498
7769.745
7748.926
7728.054
7707.138
7686.191
7665.224
7644.247
7623.272
7602.312
7581.377
7560.479
7539.629
7518.839
7498.12
7477.482
7456.937
7436.494
7416.164
7395.956
7375.879
7355.943
7336.156
7316.53
7297.082
7277.837
7258.837
7240.142
7221.825
7203.944
7186.467
7169.307
7152.416
7135.786
7119.42
7103.321
7087.493
7071.943
7056.676
7041.697
7027.012
7012.623
6998.536
6984.754
6971.279
6958.113
6945.258
6932.717
6920.488
6908.574
6896.973
6885.687
6874.713
6864.051
6853.701
6843.66
6833.926
6824.496
6815.37
6806.544
6798.017
6789.78
6781.838
6774.163
6766.734
6759.588
6752.735
6746.166
6739.864
6733.828
6728.053
6722.53
6717.264
6712.246
6707.467
6702.9
6698.622
6694.562
6690.721
6687.09
6683.674
6680.467
6677.465
6674.662
6672.055
6669.639
6667.41
6665.362
6663.492
6661.795
6660.266
6658.901
6657.697
6656.647
6655.749
6654.999
6654.391
6653.923
6653.59
6653.388
6653.314
6653.364
6653.534
6653.82
6654.217
6654.72
6655.322
6656.013
6656.783
6657.622
6658.531
6659.518
6660.585
6661.729
6662.948
6664.237
6665.595
6667.01
6668.456
6669.95
6671.507
6673.128
6674.808
6676.542
6678.326
6680.157
6682.029
6683.94
6685.885
6687.863
6689.87
6691.904
6693.962
6696.043
6698.142
6700.259
6702.391
6704.537
6706.693
6708.858
6711.03
6713.207
6715.387
6717.568
6719.749
6721.927
6724.101
6726.269
6728.43
6730.581
6732.722
6734.851
6736.966
6739.066
6741.149
6743.214
6745.26
6747.285
6749.289
6751.269
6753.225
6755.156
6757.059
6758.935
6760.782
6762.599
6764.385
6766.139
6767.86
6769.547
6771.198
6772.813
6774.391
6775.931
6777.431
6778.891
6780.309
6781.684
6783.015
6784.301
6785.54
6786.731
6787.871
6788.959
6789.993
6790.97
6791.888
6792.743
6793.532
6794.252
6794.899
6795.468
6795.957
6796.366
6796.699
6796.97
6797.208
6797.47
6797.832
6798.404
6799.221
6800.448
7405.248
7408.169
7414.688
7423.725
7434.392
7448.221
7463.575
7480.371
7498.763
7518.439
7539.353
7558.683
7579.569
7600.404
7620.461
7639.424
7664.362
7684.699
7702.473
7718.94
7735.19
7752.938
7771.933
7790.626
7808.872
7826.972
7845.023
7863.137
7881.517
7900.488
7920.417
7941.544
7963.447
7985.295
8007.437
8030.408
8054.434
8079.573
8105.816
8133.031
8160.918
8189.073
8217.223
8248.239
8279.161
8309.018
8338.25
8367.028
8395.204
8422.637
8449.282
8475.129
8500.056
8524.095
8547.382
8569.976
8592.063
8613.756
8634.729
8654.778
8674.027
8692.472
8710.145
8727.198
8743.699
8759.623
8774.947
8789.665
8803.793
8817.336
8830.292
8842.686
8854.566
8865.96
8876.909
8887.437
8897.581
8907.362
8916.825
8925.936
8934.53
8942.661
8950.54
8958.255
8965.772
8973.053
8980.087
8986.883
8993.443
8999.76
9005.86
9011.779
9017.531
9023.132
9028.598
9033.937
9039.152
9044.248
9049.215
9054.046
9058.786
9063.496
9068.201
9072.897
9077.576
9082.238
9086.894
9091.544
9096.207
9100.905
9105.641
9110.422
9115.269
9120.189
9125.191
9130.265
9135.433
9140.668
9145.987
9151.445
9157.025
9162.698
9168.461
9174.318
9180.262
9186.276
9192.343
9198.462
9204.633
9210.855
9217.132
9223.469
9229.856
9236.258
9242.613
9248.787
9254.574
9259.651
9263.906
9267.596
9270.865
9273.543
9275.493
9276.828
9277.771
9278.475
9278.993
9279.343
9279.543
9279.614
9279.58
9279.473
9279.337
9279.229
9279.218
9279.379
9279.753
9280.323
9280.965
9281.496
9281.578
9280.676
9278.334
9274.44
9269.229
9263.12
9256.825
9251.121
9246.142
9241.436
9236.758
9231.915
9226.829
9221.545
9216.02
9210.215
9204.116
9197.718
9191.017
9184.012
9176.701
9169.084
9161.162
9152.935
9144.406
9135.578
9126.451
9117.031
9107.32
9097.322
9087.042
9076.485
9065.656
9054.562
9043.21
9031.607
9019.76
9007.679
8995.372
8982.849
8970.119
8957.194
8944.083
8930.797
8917.348
8903.747
8890.005
8876.134
8862.146
8848.052
8833.866
8819.6
8805.269
8790.885
8776.459
8761.995
8747.489
8732.924
8718.297
8703.616
8688.893
8674.133
8659.338
8644.51
8629.647
8614.748
8599.813
8584.839
8569.821
8554.755
8539.636
8524.46
8509.22
8493.911
8478.526
8463.058
8447.501
8431.847
8416.091
8400.224
8384.241
8368.134
8351.897
8335.525
8319.01
8302.348
8285.533
8268.561
8251.427
8234.127
8216.659
8199.02
8181.207
8163.219
8145.055
8126.715
8108.2
8089.511
8070.649
8051.618
8032.421
8013.061
7993.544
7973.873
7954.074
7934.154
7914.148
7894.014
7873.72
7853.294
7832.76
7812.132
7791.415
7770.62
7749.76
7728.844
7707.885
7686.892
7665.879
7644.856
7623.836
7602.828
7581.847
7560.903
7540.007
7519.172
7498.409
7477.73
7457.145
7436.665
7416.302
7396.066
7375.968
7356.02
7336.233
7316.624
7297.21
7278.018
7259.078
7240.433
7222.124
7204.182
7186.593
7169.316
7152.324
7135.607
7119.165
7103
7087.115
7071.513
7056.2
7041.18
7026.456
7012.034
6997.915
6984.104
6970.603
6957.413
6944.536
6931.974
6919.727
6907.796
6896.18
6884.879
6873.892
6863.217
6852.855
6842.802
6833.057
6823.617
6814.482
6805.647
6797.111
6788.866
6780.914
6773.24
6765.824
6758.683
6751.829
6745.261
6738.965
6732.935
6727.167
6721.654
6716.395
6711.384
6706.613
6702.075
6697.783
6693.718
6689.875
6686.258
6682.851
6679.653
6676.661
6673.868
6671.271
6668.865
6666.645
6664.608
6662.748
6661.061
6659.543
6658.189
6656.994
6655.956
6655.068
6654.328
6653.73
6653.272
6652.948
6652.756
6652.69
6652.747
6652.923
6653.213
6653.613
6654.117
6654.718
6655.41
6656.185
6657.037
6657.965
6658.97
6660.053
6661.211
6662.442
6663.741
6665.104
6666.524
6667.993
6669.516
6671.098
6672.737
6674.432
6676.178
6677.973
6679.813
6681.695
6683.614
6685.569
6687.556
6689.572
6691.615
6693.682
6695.771
6697.88
6700.006
6702.147
6704.301
6706.466
6708.639
6710.819
6713.004
6715.192
6717.381
6719.569
6721.755
6723.936
6726.112
6728.28
6730.438
6732.586
6734.721
6736.842
6738.949
6741.038
6743.109
6745.161
6747.192
6749.201
6751.187
6753.149
6755.084
6756.993
6758.875
6760.727
6762.549
6764.34
6766.099
6767.824
6769.516
6771.172
6772.792
6774.375
6775.92
6777.425
6778.89
6780.314
6781.696
6783.033
6784.326
6785.573
6786.772
6787.922
6789.022
6790.068
6791.061
6791.997
6792.874
6793.691
6794.445
6795.134
6795.758
6796.317
6796.815
6797.26
6797.669
6798.067
6798.494
6798.998
6799.639
6800.398
6801.465
7486.201
7465.409
7450.231
7437.259
7427.22
7418.969
7413.043
7408.518
7405.811
7405.063
7405.619
7408.74
7414.236
7421.852
7431.376
7447.767
7463.942
7480.961
7499.461
7519.011
7539.429
7560.672
7582.16
7603.234
7623.462
7643.177
7660.607
7679.492
7696.627
7712.833
7729.051
7746.038
7763.543
7781.012
7798.459
7815.921
7833.373
7850.89
7868.646
7886.885
7905.842
7925.563
7946.091
7967.249
7988.956
8011.507
8035.163
8060.014
8086.062
8113.169
8141.266
8170.547
8200.589
8231.748
8263.114
8293.946
8324.166
8353.864
8382.994
8411.42
8439.042
8465.817
8491.53
8516.144
8540.041
8563.387
8586.035
8608.138
8629.684
8650.388
8670.241
8689.291
8707.588
8725.208
8742.19
8758.531
8774.227
8789.281
8803.709
8817.522
8830.723
8843.352
8855.436
8867.003
8878.095
8888.742
8898.974
8908.807
8918.242
8927.293
8935.942
8944.21
8952.171
8959.881
8967.348
8974.566
8981.537
8988.266
8994.76
9001.029
9007.091
9012.961
9018.654
9024.187
9029.576
9034.833
9039.965
9044.975
9049.869
9054.66
9059.369
9064.024
9068.651
9073.26
9077.855
9082.439
9087.02
9091.607
9096.211
9100.845
9105.518
9110.24
9115.026
9119.886
9124.826
9129.847
9134.956
9140.149
9145.438
9150.842
9156.357
9161.97
9167.678
9173.478
9179.363
9185.31
9191.311
9197.37
9203.473
9209.6
9215.75
9221.918
9228.083
9234.202
9240.207
9245.989
9251.418
9256.337
9260.652
9264.429
9267.744
9270.561
9272.823
9274.576
9275.944
9277.034
9277.906
9278.591
9279.109
9279.486
9279.747
9279.921
9280.041
9280.143
9280.268
9280.449
9280.691
9280.951
9281.127
9281.062
9280.521
9279.205
9276.862
9273.424
9269.037
9263.981
9258.651
9253.457
9248.556
9243.788
9239.02
9234.115
9228.988
9223.649
9218.07
9212.223
9206.091
9199.667
9192.945
9185.923
9178.597
9170.966
9163.031
9154.792
9146.25
9137.406
9128.264
9118.825
9109.093
9099.072
9088.766
9078.18
9067.32
9056.192
9044.802
9033.158
9021.269
9009.142
8996.786
8984.213
8971.432
8958.453
8945.288
8931.948
8918.445
8904.79
8890.996
8877.075
8863.039
8848.9
8834.671
8820.364
8805.992
8791.564
8777.091
8762.575
8748.018
8733.414
8718.763
8704.067
8689.335
8674.57
8659.776
8644.952
8630.097
8615.211
8600.29
8585.334
8570.336
8555.294
8540.201
8525.052
8509.842
8494.564
8479.211
8463.776
8448.253
8432.633
8416.91
8401.076
8385.125
8369.049
8352.841
8336.496
8320.007
8303.368
8286.574
8269.62
8252.501
8235.214
8217.755
8200.121
8182.31
8164.321
8146.153
8127.806
8109.28
8090.576
8071.697
8052.645
8033.424
8014.039
7994.495
7974.8
7954.964
7934.99
7914.897
7894.679
7874.326
7853.847
7833.257
7812.569
7791.791
7770.935
7750.011
7729.032
7708.008
7686.95
7665.872
7644.784
7623.698
7602.627
7581.582
7560.575
7539.619
7518.725
7497.905
7477.171
7456.535
7436.008
7415.602
7395.329
7375.201
7355.231
7335.432
7315.821
7296.417
7277.241
7258.319
7239.68
7221.352
7203.352
7185.676
7168.306
7151.228
7134.434
7117.924
7101.699
7085.761
7070.114
7054.76
7039.705
7024.951
7010.502
6996.361
6982.531
6969.013
6955.81
6942.924
6930.354
6918.102
6906.168
6894.551
6883.251
6872.267
6861.598
6851.243
6841.2
6831.466
6822.038
6812.916
6804.094
6795.57
6787.34
6779.398
6771.738
6764.351
6757.244
6750.42
6743.876
6737.602
6731.595
6725.849
6720.359
6715.122
6710.133
6705.386
6700.876
6696.603
6692.56
6688.739
6685.138
6681.753
6678.578
6675.607
6672.837
6670.262
6667.878
6665.681
6663.665
6661.827
6660.161
6658.664
6657.33
6656.157
6655.138
6654.27
6653.549
6652.971
6652.531
6652.225
6652.05
6652
6652.073
6652.263
6652.566
6652.978
6653.492
6654.105
6654.809
6655.599
6656.47
6657.419
6658.446
6659.55
6660.727
6661.976
6663.293
6664.673
6666.112
6667.606
6669.154
6670.759
6672.419
6674.131
6675.894
6677.704
6679.558
6681.453
6683.386
6685.353
6687.353
6689.381
6691.436
6693.516
6695.617
6697.737
6699.875
6702.027
6704.192
6706.368
6708.552
6710.743
6712.938
6715.136
6717.335
6719.533
6721.728
6723.918
6726.103
6728.279
6730.446
6732.603
6734.746
6736.875
6738.989
6741.086
6743.165
6745.224
6747.262
6749.279
6751.271
6753.239
6755.182
6757.097
6758.984
6760.843
6762.671
6764.468
6766.232
6767.964
6769.661
6771.324
6772.95
6774.539
6776.09
6777.601
6779.073
6780.504
6781.893
6783.239
6784.54
6785.797
6787.006
6788.168
6789.281
6790.343
6791.354
6792.311
6793.213
6794.06
6794.851
6795.584
6796.262
6796.886
6797.463
6798.002
6798.517
6799.03
6799.568
6800.161
6800.847
6801.596
6802.609
7681.794
7645.585
7593.032
7545.88
7509.547
7483.252
7463.656
7448.95
7437.374
7427.74
7419.901
7414.295
7409.857
7407.086
7406.125
7407.176
7410.416
7415.866
7423.441
7433.376
7445.143
7460.291
7477.094
7495.449
7515.063
7535.808
7557.345
7579.024
7600.251
7620.928
7640.594
7659.109
7677.301
7694.455
7710.807
7726.867
7742.977
7759.077
7775.29
7791.755
7808.23
7824.633
7841.047
7857.632
7874.601
7892.186
7910.58
7929.875
7949.981
7970.816
7992.569
8015.494
8039.728
8065.308
8092.201
8120.348
8149.81
8180.175
8211.163
8242.563
8273.932
8304.96
8335.558
8365.68
8395.205
8424.036
8452.091
8479.198
8505.317
8530.629
8555.331
8579.129
8601.731
8623.553
8644.837
8665.428
8685.246
8704.292
8722.594
8740.179
8757.067
8773.258
8788.759
8803.588
8817.769
8831.266
8844.17
8856.5
8868.284
8879.556
8890.348
8900.685
8910.588
8920.071
8929.157
8937.851
8946.164
8954.146
8961.84
8969.262
8976.422
8983.331
8989.997
8996.427
9002.633
9008.628
9014.427
9020.046
9025.501
9030.806
9035.974
9041.014
9045.935
9050.749
9055.469
9060.108
9064.69
9069.235
9073.758
9078.267
9082.768
9087.269
9091.781
9096.313
9100.877
9105.483
9110.142
9114.866
9119.663
9124.54
9129.503
9134.555
9139.702
9144.948
9150.304
9155.769
9161.339
9167.005
9172.758
9178.6
9184.5
9190.438
9196.416
9202.427
9208.466
9214.519
9220.567
9226.577
9232.502
9238.276
9243.816
9249.041
9253.856
9258.192
9262.054
9265.475
9268.452
9270.965
9273.043
9274.757
9276.18
9277.363
9278.339
9279.13
9279.76
9280.258
9280.647
9280.95
9281.192
9281.392
9281.561
9281.688
9281.726
9281.591
9281.16
9280.272
9278.75
9276.458
9273.349
9269.512
9265.126
9260.427
9255.653
9250.929
9246.212
9241.415
9236.46
9231.3
9225.919
9220.297
9214.411
9208.245
9201.791
9195.041
9187.993
9180.642
9172.988
9165.028
9156.763
9148.193
9139.321
9130.147
9120.675
9110.906
9100.845
9090.496
9079.864
9068.953
9057.771
9046.324
9034.62
9022.667
9010.474
8998.05
8985.406
8972.553
8959.5
8946.261
8932.847
8919.271
8905.544
8891.68
8877.69
8863.589
8849.387
8835.098
8820.734
8806.306
8791.823
8777.295
8762.726
8748.119
8733.475
8718.793
8704.076
8689.33
8674.558
8659.761
8644.939
8630.092
8615.218
8600.314
8585.379
8570.406
8555.391
8540.329
8525.213
8510.037
8494.794
8479.478
8464.079
8448.592
8433.009
8417.321
8401.521
8385.602
8369.557
8353.378
8337.058
8320.592
8303.973
8287.196
8270.255
8253.146
8235.865
8218.409
8200.774
8182.958
8164.961
8146.78
8128.416
8109.87
8091.143
8072.236
8053.154
8033.899
8014.476
7994.892
7975.151
7955.263
7935.231
7915.069
7894.779
7874.36
7853.817
7833.162
7812.406
7791.56
7770.635
7749.641
7728.591
7707.495
7686.367
7665.217
7644.057
7622.901
7601.76
7580.647
7559.573
7538.552
7517.596
7496.716
7475.925
7455.236
7434.661
7414.211
7393.901
7373.741
7353.746
7333.931
7314.311
7294.903
7275.727
7256.805
7238.158
7219.804
7201.757
7184.018
7166.581
7149.438
7132.587
7116.026
7099.756
7083.779
7068.099
7052.718
7037.639
7022.867
7008.404
6994.252
6980.414
6966.892
6953.687
6940.801
6928.235
6915.989
6904.062
6892.455
6881.167
6870.196
6859.542
6849.204
6839.179
6829.464
6820.058
6810.956
6802.157
6793.656
6785.449
6777.532
6769.899
6762.548
6755.476
6748.685
6742.169
6735.924
6729.946
6724.229
6718.77
6713.563
6708.603
6703.886
6699.408
6695.165
6691.151
6687.36
6683.789
6680.432
6677.285
6674.343
6671.602
6669.055
6666.7
6664.53
6662.543
6660.732
6659.093
6657.623
6656.316
6655.168
6654.175
6653.332
6652.635
6652.081
6651.664
6651.381
6651.227
6651.199
6651.292
6651.501
6651.823
6652.252
6652.784
6653.414
6654.136
6654.945
6655.838
6656.811
6657.862
6658.989
6660.19
6661.461
6662.799
6664.2
6665.662
6667.181
6668.755
6670.384
6672.066
6673.799
6675.582
6677.41
6679.281
6681.193
6683.141
6685.124
6687.139
6689.183
6691.252
6693.346
6695.461
6697.595
6699.747
6701.912
6704.09
6706.279
6708.476
6710.679
6712.886
6715.096
6717.306
6719.515
6721.721
6723.923
6726.118
6728.304
6730.481
6732.647
6734.8
6736.939
6739.062
6741.168
6743.255
6745.322
6747.369
6749.393
6751.393
6753.369
6755.319
6757.242
6759.136
6761.002
6762.837
6764.64
6766.412
6768.15
6769.854
6771.523
6773.156
6774.752
6776.31
6777.829
6779.309
6780.747
6782.145
6783.499
6784.81
6786.077
6787.298
6788.473
6789.601
6790.68
6791.709
6792.689
6793.617
6794.495
6795.321
6796.098
6796.826
6797.51
6798.155
6798.772
6799.371
6799.971
6800.59
6801.249
6801.974
6802.73
6803.73
7646.42
7609.659
7552.69
7519.964
7493.877
7473.986
7458.778
7446.834
7437.023
7428.802
7421.701
7415.926
7411.229
7407.971
7406.401
7406.796
7409.388
7414.346
7421.804
7431.84
7444.003
7459.103
7476.12
7494.625
7514.508
7535.455
7557.079
7578.978
7600.759
7621.959
7642.024
7660.481
7677.989
7694.812
7710.751
7726.01
7740.974
7755.86
7770.748
7785.682
7800.539
7815.276
7829.996
7844.877
7860.142
7876.026
7892.738
7910.417
7929.083
7948.728
7969.469
7991.505
8014.985
8039.975
8066.468
8094.401
8123.644
8153.872
8184.835
8216.384
8248.224
8280.031
8311.601
8342.838
8373.601
8403.829
8433.471
8462.311
8490.204
8517.154
8543.164
8568.133
8591.913
8614.834
8637.233
8658.955
8679.857
8699.9
8719.115
8737.512
8755.127
8771.978
8788.077
8803.447
8818.188
8831.99
8845.222
8857.851
8869.891
8881.375
8892.336
8902.804
8912.805
8922.365
8931.506
8940.239
8948.555
8956.532
8964.2
8971.576