/*--------------------------------*- C++ -*----------------------------------*\
| =========                 |                                                 |
| \\      /  F ield         | foam-extend: Open Source CFD                    |
|  \\    /   O peration     | Version:     3.1                                |
|   \\  /    A nd           | Web:         http://www.extend-project.de       |
|    \\/     M anipulation  |                                                 |
\*---------------------------------------------------------------------------*/
FoamFile
{
    version     2.0;
    format      ascii;
    class       surfaceScalarField;
    location    "3.5";
    object      phi;
}
// * * * * * * * * * * * * * * * * * * * * * * * * * * * * * * * * * * * * * //

dimensions      [0 3 -1 0 0 0 0];

internalField   nonuniform List<scalar> 
275122
(
-0.0001450856
0.0001469819
-7.615815e-08
-1.820131e-06
-0.0001304394
0.0001246248
4.952187e-07
5.31939e-06
-0.0001298835
0.0001333706
-1.358682e-07
-3.351246e-06
-0.0001456137
0.0001496646
-1.572476e-07
-3.89371e-06
-0.0001599165
0.0001612596
-1.730833e-07
-1.16999e-06
-0.000161596
0.0001614524
-1.610829e-07
3.046757e-07
-0.0001603296
0.0001598739
-1.498442e-07
6.055507e-07
-0.0001582877
0.0001576999
-1.398065e-07
7.276553e-07
-0.0001558226
0.0001551682
-1.314716e-07
7.858038e-07
-0.0001531471
0.0001524558
-1.226942e-07
8.140052e-07
-0.0001503367
0.0001496159
-1.138425e-07
8.346309e-07
-0.0001474154
0.0001466708
-1.052004e-07
8.498294e-07
-0.0001444072
0.0001436444
-9.688432e-08
8.596303e-07
-0.000141332
0.0001405553
-8.881778e-08
8.655974e-07
-0.000138205
0.0001374176
-8.087107e-08
8.682354e-07
-0.000135041
0.0001342481
-7.300947e-08
8.658877e-07
-0.0001318635
0.000131075
-6.57897e-08
8.543547e-07
-0.0001287276
0.0001279725
-6.332923e-08
8.184707e-07
-0.0001258582
0.000125255
-8.980189e-08
6.929813e-07
-0.0001240584
0.000124298
-2.22507e-07
-1.705189e-08
-0.0001380374
0.0001435988
-4.983102e-07
-5.06313e-06
-0.0001454116
0.0001454902
-1.084684e-07
2.985275e-08
-0.0001473749
0.0001484186
-5.245177e-08
-9.912106e-07
-0.0001649044
0.000171156
1.540005e-07
-6.405523e-06
-0.0001724386
0.0001725722
2.432849e-07
-3.768929e-07
-0.0001742316
0.0001745955
-5.149474e-08
-3.123723e-07
-0.0001748962
0.0001746425
-6.985885e-08
3.234755e-07
-0.0001731551
0.0001717615
-5.745484e-08
1.451099e-06
-0.0001619297
0.0001514939
-6.651277e-08
1.050234e-05
-0.0001004811
0.0001032118
2.882528e-09
-2.733579e-06
-7.962655e-05
8.360814e-05
-2.033421e-08
-3.961256e-06
-9.494096e-05
9.879639e-05
4.133594e-09
-3.859563e-06
-0.0001106859
0.0001146974
3.891825e-09
-4.015417e-06
-0.0001270677
0.0001312532
3.66994e-09
-4.189106e-06
-0.0001443753
0.0001488523
3.270746e-09
-4.480278e-06
-0.0001624651
0.0001670716
2.897205e-09
-4.609395e-06
-0.0001811107
0.0001858702
2.442826e-09
-4.761918e-06
-0.0002002968
0.0002051747
2.309561e-09
-4.880162e-06
-0.0002198216
0.0002247486
2.504454e-09
-4.929565e-06
-0.0002394513
0.0002449876
7.214517e-08
-5.608525e-06
4.102306e-06
-0.0001674065
0.0001683474
-2.433939e-10
-5.042937e-06
4.191021e-06
-0.0001710799
0.0001719541
-4.721894e-10
-5.06478e-06
4.356737e-06
-0.0001743973
0.0001751757
-6.883659e-10
-5.134538e-06
4.616522e-06
-0.0001772211
0.0001778497
-7.138136e-10
-5.244334e-06
4.76549e-06
-0.0001796171
0.0001801681
-5.529355e-10
-5.315972e-06
4.936808e-06
-0.0001816999
0.0001821887
-4.322199e-10
-5.425189e-06
5.075304e-06
-0.0001835615
0.0001840072
-3.959965e-10
-5.520577e-06
5.163361e-06
-0.0001853177
0.0001857609
-2.23396e-10
-5.606263e-06
5.553913e-06
-0.000187053
0.0001870956
-5.332876e-11
-5.596441e-06
4.692985e-06
-0.0007631136
0.0007681665
-1.494736e-10
-2.442894e-05
5.011133e-06
4.677712e-06
4.994447e-06
5.203193e-06
-0.0007721032
0.0007755984
-1.11469e-11
-2.464487e-05
5.380255e-06
5.194731e-06
5.371519e-06
5.371218e-06
-0.0007788435
0.0007820119
-1.539691e-11
-2.486486e-05
5.487501e-06
5.359881e-06
5.477843e-06
5.539969e-06
-0.0007851387
0.0007882446
-4.799034e-11
-2.536313e-05
5.595225e-06
5.532818e-06
5.589234e-06
5.660535e-06
-0.0007913407
0.0007944072
-4.768833e-12
-2.577544e-05
5.701731e-06
5.653422e-06
5.693326e-06
5.766736e-06
-0.0007974611
0.0008004961
3.48279e-11
-2.614558e-05
5.79999e-06
5.755394e-06
5.788455e-06
5.861105e-06
-0.0008035218
0.0008065037
3.808831e-11
-2.647058e-05
5.893189e-06
5.85084e-06
5.883535e-06
5.923944e-06
-0.0008094559
0.0008124404
3.50938e-11
-2.6734e-05
5.958627e-06
5.915925e-06
5.950958e-06
5.981067e-06
-0.0008155618
0.0008184823
-7.328151e-11
-2.684619e-05
5.98796e-06
5.975045e-06
5.981659e-06
5.691308e-06
-0.0008207342
0.0008246816
-5.044032e-11
-2.712148e-05
5.90072e-06
5.682858e-06
5.899303e-06
6.187489e-06
-0.0008279755
0.0008305497
-2.733279e-11
-2.727825e-05
6.164637e-06
6.18757e-06
6.164381e-06
6.140225e-06
-0.0008332165
0.000835979
-1.915758e-11
-2.721296e-05
6.086417e-06
6.13805e-06
6.085797e-06
6.151387e-06
-0.0008387719
0.0008415633
-1.057894e-11
-2.733381e-05
6.123782e-06
6.147537e-06
6.119684e-06
6.198411e-06
-0.0008443105
0.0008469948
-2.138929e-11
-2.744935e-05
6.184649e-06
6.199995e-06
6.182027e-06
6.233646e-06
-0.0008496655
0.0008522711
5.152937e-12
-2.751675e-05
6.226303e-06
6.22965e-06
6.22162e-06
6.27556e-06
-0.0008548495
0.0008573585
1.798223e-11
-2.756025e-05
6.260572e-06
6.25852e-06
6.256577e-06
6.382147e-06
-0.0008598562
0.0008622419
-5.054779e-11
-2.777711e-05
6.374981e-06
6.315012e-06
6.319288e-06
6.868084e-06
-0.0008644313
0.0008657175
-4.96688e-11
-2.827301e-05
6.991542e-06
6.526646e-06
6.600574e-06
8.254597e-06
-0.0008655585
0.0008625989
-2.478232e-11
-2.913344e-05
8.841422e-06
7.517229e-06
7.479766e-06
1.264066e-05
-0.0008575251
0.0008668955
-1.453063e-11
-2.201102e-05
1.147752e-05
-0.0008757462
0.0008782088
-1.226987e-11
-1.39401e-05
1.755182e-05
-0.0008784945
0.0008791669
-1.257311e-11
-1.822425e-05
1.579397e-05
-0.0008796238
0.0008801537
-1.208972e-11
-1.632382e-05
9.502585e-06
-0.0008809866
0.0008831781
-1.214136e-11
-1.169406e-05
4.019783e-06
-0.00088638
0.0008894458
-1.152362e-11
-7.085486e-06
2.091769e-06
-0.0008922345
0.0008948379
-1.137711e-11
-4.695107e-06
1.070589e-06
-0.0008973447
0.0008996224
-1.221563e-11
-3.348327e-06
3.114455e-07
-0.0009018088
0.0009038308
-1.274284e-11
-2.33343e-06
-2.467323e-07
-0.0009057839
0.0009075824
-1.139865e-11
-1.5517e-06
-6.640385e-07
-0.0009093012
0.0009109099
-9.676046e-12
-9.446466e-07
-9.83761e-07
-0.000912447
0.0009138983
-9.132337e-12
-4.675261e-07
-1.234045e-06
-0.0009152857
0.0009166058
-9.815252e-12
-8.605012e-08
-1.423776e-06
-0.0009178707
0.0009190911
-1.027294e-11
2.034569e-07
-1.551112e-06
-0.0009202618
0.000921407
-9.772065e-12
4.05927e-07
-1.5993e-06
-0.0009225078
0.0009236112
-8.734859e-12
4.958963e-07
-1.518408e-06
-0.000924674
0.000925774
-7.925888e-12
4.183978e-07
-1.175854e-06
-0.0009268281
0.0009279431
-7.629115e-12
6.088867e-08
-3.367671e-07
-0.0009289991
0.00093012
-7.475814e-12
-7.841319e-07
1.838881e-06
-0.0009309702
0.0009315636
-6.926317e-12
-2.432263e-06
5.237494e-06
-0.0009303123
0.0009297545
-6.773535e-12
-4.679694e-06
3.439056e-06
-0.0009306558
0.0009318588
-5.774483e-12
-4.642061e-06
8.329562e-06
-0.0009324192
0.0009316849
-5.811071e-12
-7.595311e-06
1.658446e-05
-0.0009259543
0.0009203485
-7.487672e-12
-1.097865e-05
5.886254e-06
-0.000917589
0.0009175988
-7.263334e-12
-5.896113e-06
4.493616e-07
-0.0009176163
0.0009166744
-7.573565e-12
4.925952e-07
-4.72246e-06
-0.0009156167
0.0009149064
-8.150735e-12
5.432807e-06
-1.266651e-05
-0.0009143181
0.00091465
-7.800542e-12
1.23346e-05
-3.42995e-05
-0.0009162234
0.0009283487
-7.606224e-12
2.217422e-05
-6.97578e-06
-0.0009416007
0.0009417971
-8.790056e-12
2.320238e-05
-4.749732e-06
-6.955949e-06
-4.717281e-06
-2.645481e-06
-0.0009395569
0.0009395841
-9.272521e-12
1.069938e-05
-2.766234e-06
-2.603295e-06
-2.711568e-06
-2.08349e-06
-0.0009400508
0.0009396052
-9.324953e-12
8.403082e-06
-1.916038e-06
-2.060908e-06
-1.897036e-06
-1.487407e-06
-0.0009386119
0.0009377079
-1.032512e-11
6.721973e-06
-1.431842e-06
-1.476288e-06
-1.422488e-06
-1.322146e-06
-0.0009369793
0.0009363947
-1.158286e-11
5.845239e-06
-1.311102e-06
-1.318897e-06
-1.308453e-06
-1.232354e-06
-0.0009358557
0.0009353281
-1.28839e-11
5.425126e-06
-1.215364e-06
-1.233165e-06
-1.216553e-06
-1.166225e-06
-0.0009347956
0.0009342865
-1.429026e-11
5.165332e-06
-1.158437e-06
-1.169547e-06
-1.162013e-06
-1.139923e-06
-0.0009337844
0.0009332922
-1.498385e-11
5.056739e-06
-1.13716e-06
-1.145063e-06
-1.142419e-06
-1.128417e-06
-0.0009327944
0.0009322936
-1.544134e-11
5.024378e-06
-1.127024e-06
-1.134692e-06
-1.133394e-06
-1.125148e-06
-0.0009317875
0.0009312748
-1.57083e-11
5.028394e-06
-1.125468e-06
-1.132317e-06
-1.132729e-06
-1.128673e-06
-0.0009307577
0.0009302303
-1.578635e-11
5.060793e-06
-1.130114e-06
-1.136521e-06
-1.138054e-06
-1.136623e-06
-0.0009296974
0.0009291513
-1.583865e-11
5.113209e-06
-1.138774e-06
-1.144766e-06
-1.14693e-06
-1.147513e-06
-0.0009285988
0.0009280317
-1.581402e-11
5.178597e-06
-1.150188e-06
-1.155531e-06
-1.158164e-06
-1.15998e-06
-0.0009274575
0.0009268673
-1.584781e-11
5.251378e-06
-1.162886e-06
-1.167723e-06
-1.170595e-06
-1.173167e-06
-0.0009262697
0.0009256554
-1.615764e-11
5.327876e-06
-1.176258e-06
-1.180553e-06
-1.183601e-06
-1.186835e-06
-0.0009250334
0.0009243943
-1.68972e-11
5.406788e-06
-1.190062e-06
-1.193766e-06
-1.196937e-06
-1.200858e-06
-0.0009237471
0.0009230824
-1.814597e-11
5.487628e-06
-1.204203e-06
-1.207266e-06
-1.210553e-06
-1.215161e-06
-0.0009224094
0.0009217184
-1.991096e-11
5.570074e-06
-1.218552e-06
-1.22102e-06
-1.224357e-06
-1.229629e-06
-0.0009210189
0.000920301
-2.218039e-11
5.653676e-06
-1.232948e-06
-1.234958e-06
-1.238237e-06
-1.244101e-06
-0.0009195743
0.0009188288
-2.454689e-11
5.737922e-06
-1.247262e-06
-1.248955e-06
-1.25208e-06
-1.258378e-06
-0.000918074
0.0009173001
-2.645249e-11
5.822307e-06
-1.261484e-06
-1.262767e-06
-1.265822e-06
-1.272357e-06
-0.0009165166
0.0009157137
-2.770374e-11
5.90643e-06
-1.275547e-06
-1.276233e-06
-1.279379e-06
-1.286118e-06
-0.0009149008
0.0009140683
-2.826087e-11
5.989975e-06
-1.289238e-06
-1.28949e-06
-1.292574e-06
-1.299653e-06
-0.0009132256
0.000912363
-2.847334e-11
6.072599e-06
-1.302434e-06
-1.302648e-06
-1.305285e-06
-1.31279e-06
-0.0009114903
0.0009105978
-2.929165e-11
6.15376e-06
-1.31541e-06
-1.315259e-06
-1.317763e-06
-1.325412e-06
0.0009087723
-2.936935e-11
6.233367e-06
-1.328073e-06
-1.327379e-06
-1.329966e-06
-0.0009096948
-1.337485e-06
-0.0009078392
0.0009068868
-3.181987e-11
6.310877e-06
-1.340062e-06
-1.339151e-06
-1.341711e-06
-1.349062e-06
-0.0009059238
0.0009049415
-3.374556e-11
6.38589e-06
-1.351372e-06
-1.350445e-06
-1.352732e-06
-1.359931e-06
-0.0009039487
0.000902937
-3.443167e-11
6.45765e-06
-1.362018e-06
-1.360976e-06
-1.363008e-06
-1.370036e-06
-0.0009019148
0.0009008743
-3.505112e-11
6.526077e-06
-1.371985e-06
-1.370789e-06
-1.372708e-06
-1.379288e-06
-0.0008998234
0.0008987547
-3.565546e-11
6.590664e-06
-1.381137e-06
-1.379831e-06
-1.381665e-06
-1.387677e-06
-0.0008976757
0.0008965798
-3.58481e-11
6.650982e-06
-1.38943e-06
-1.388057e-06
-1.389806e-06
-1.395198e-06
-0.0008954738
0.0008943517
-3.55971e-11
6.706764e-06
-1.396845e-06
-1.395444e-06
-1.397093e-06
-1.401849e-06
-0.0008932199
0.0008920729
-3.527994e-11
6.757836e-06
-1.403392e-06
-1.401968e-06
-1.403514e-06
-1.407672e-06
-0.0008909166
0.000889746
-3.539669e-11
6.804181e-06
-1.409115e-06
-1.407657e-06
-1.409104e-06
-1.412709e-06
-0.0008885667
0.0008873741
-3.575464e-11
6.845901e-06
-1.414055e-06
-1.412568e-06
-1.413922e-06
-1.417017e-06
-0.0008861732
0.0008849602
-3.650263e-11
6.88312e-06
-1.418271e-06
-1.416756e-06
-1.418023e-06
-1.420593e-06
-0.0008837396
0.0008825078
-3.737927e-11
6.915802e-06
-1.421724e-06
-1.420247e-06
-1.421402e-06
-1.42333e-06
-0.0008812688
0.0008800197
-3.848061e-11
6.943642e-06
-1.424298e-06
-1.422945e-06
-1.423953e-06
-1.425121e-06
-0.0008787639
0.000877499
-4.014934e-11
6.966346e-06
-1.425913e-06
-1.424736e-06
-1.425574e-06
-1.426042e-06
-0.0008762277
0.0008749485
-4.132748e-11
6.983992e-06
-1.42667e-06
-1.42565e-06
-1.426318e-06
-1.426167e-06
-0.0008736635
0.0008723717
-4.307861e-11
6.996622e-06
-1.426614e-06
-1.425763e-06
-1.426243e-06
-1.425379e-06
-0.0008710748
0.0008697725
-4.423602e-11
7.003845e-06
-1.425615e-06
-1.425078e-06
-1.425399e-06
-1.423656e-06
-0.0008684657
0.0008671547
-4.573872e-11
7.005265e-06
-1.423679e-06
-1.423439e-06
-1.42352e-06
-1.420682e-06
-0.0008658397
0.0008645226
-4.657176e-11
6.99933e-06
-1.420675e-06
-1.420429e-06
-1.420435e-06
-1.416062e-06
-0.0008632022
0.0008618824
-4.787194e-11
6.984033e-06
-1.416277e-06
-1.415785e-06
-1.416037e-06
-1.408804e-06
-0.0008605607
0.0008592446
-4.891814e-11
6.952824e-06
-1.409753e-06
-1.408543e-06
-1.409544e-06
-1.396027e-06
-0.0008579338
0.0008566371
-5.069023e-11
6.883832e-06
-1.397734e-06
-1.395748e-06
-1.397514e-06
-1.356988e-06
-0.0008553432
0.0008540281
-5.246162e-11
6.738799e-06
-1.354869e-06
-1.356892e-06
-1.354914e-06
-1.239619e-06
-0.0008526741
0.0008509632
-4.927454e-11
6.489851e-06
-1.149304e-06
-1.23902e-06
-1.150935e-06
-1.045052e-06
-0.0008496338
0.0008476509
-5.197195e-11
6.245754e-06
-1.088549e-06
-1.042588e-06
-1.086636e-06
-1.323944e-06
-0.0008462917
0.0008449754
-5.355105e-11
6.594287e-06
-1.317718e-06
-1.321326e-06
-1.314931e-06
-1.298396e-06
-0.0008435554
0.0008420472
-5.49281e-11
6.667022e-06
-1.283478e-06
-1.29576e-06
-1.281082e-06
-1.298296e-06
-0.0008405515
0.0008390705
-5.601762e-11
6.671699e-06
-1.299252e-06
-1.296001e-06
-1.29707e-06
-1.300394e-06
-0.0008375862
0.0008360912
-5.734587e-11
6.686583e-06
-1.297282e-06
-1.298374e-06
-1.295409e-06
-1.294679e-06
-0.0008345938
0.0008331018
-5.825993e-11
6.665913e-06
-1.294018e-06
-1.292897e-06
-1.292321e-06
-1.294047e-06
-0.0008316149
0.0008301337
-5.790831e-11
6.650597e-06
-1.292142e-06
-1.29248e-06
-1.290711e-06
-1.293633e-06
-0.0008286612
0.0008271941
-5.701596e-11
6.638522e-06
-1.293429e-06
-1.292196e-06
-1.292108e-06
-1.292066e-06
-0.0008257329
0.0008242809
-5.558916e-11
6.617676e-06
-1.29197e-06
-1.290799e-06
-1.290746e-06
-1.291954e-06
-0.0008228353
0.0008213956
-5.427285e-11
6.604691e-06
-1.291582e-06
-1.29084e-06
-1.290563e-06
-1.291417e-06
-0.000819962
0.0008185349
-5.254269e-11
6.591502e-06
-1.291611e-06
-1.290514e-06
-1.290819e-06
-1.291103e-06
-0.0008171127
0.0008156953
-5.041768e-11
6.580897e-06
-1.291305e-06
-1.290363e-06
-1.290647e-06
-1.290443e-06
-0.000814281
0.0008128704
-4.83029e-11
6.571826e-06
-1.290785e-06
-1.289764e-06
-1.290162e-06
-1.290358e-06
-0.0008114627
0.0008100576
-4.60851e-11
6.565673e-06
-1.290526e-06
-1.289729e-06
-1.289959e-06
-1.290262e-06
-0.0008086548
0.0008072533
-4.362667e-11
6.561364e-06
-1.290236e-06
-1.289691e-06
-1.289721e-06
-1.289961e-06
-0.000805853
0.0008044527
-4.124755e-11
6.558812e-06
-1.289762e-06
-1.289448e-06
-1.289313e-06
-1.289511e-06
-0.0008030525
0.0008016511
-3.873845e-11
6.558038e-06
-1.289201e-06
-1.289051e-06
-1.288795e-06
-1.288792e-06
-0.0008002488
0.0007988439
-3.697276e-11
6.558486e-06
-1.288361e-06
-1.288367e-06
-1.287978e-06
-1.287896e-06
-0.000797437
0.0007960262
-3.488219e-11
6.56084e-06
-1.287422e-06
-1.287512e-06
-1.287093e-06
-1.287269e-06
-0.0007946126
0.000793194
-3.24862e-11
6.566202e-06
-1.286809e-06
-1.286934e-06
-1.286521e-06
-1.286721e-06
-0.0007917721
0.0007903437
-3.062817e-11
6.573615e-06
-1.28618e-06
-1.286419e-06
-1.285917e-06
-1.285848e-06
-0.0007889111
0.0007874707
-2.878901e-11
6.582018e-06
-1.285189e-06
-1.285575e-06
-1.284961e-06
-1.284723e-06
-0.0007860251
0.0007845705
-2.739237e-11
6.591608e-06
-1.283981e-06
-1.284481e-06
-1.28378e-06
-1.283493e-06
-0.0007831101
0.0007816395
-2.538318e-11
6.602457e-06
-1.282672e-06
-1.283242e-06
-1.28245e-06
-1.282072e-06
-0.0007801624
0.0007786742
-2.391151e-11
6.614128e-06
-1.281151e-06
-1.281794e-06
-1.280889e-06
-1.280408e-06
0.0007756715
-2.173563e-11
6.626517e-06
-0.000777179
-1.279342e-06
-1.280133e-06
-1.279108e-06
-1.278441e-06
-0.0007741563
0.0007726282
-2.07298e-11
6.639308e-06
-1.27729e-06
-1.278263e-06
-1.277165e-06
-1.27629e-06
-0.0007710918
0.0007695414
-1.905567e-11
6.652796e-06
-1.275015e-06
-1.276165e-06
-1.274916e-06
-1.273983e-06
-0.0007679823
0.0007664087
-1.778965e-11
6.666603e-06
-1.272657e-06
-1.273819e-06
-1.272505e-06
-1.271643e-06
-0.0007648261
0.0007632282
-1.754819e-11
6.681293e-06
-1.270267e-06
-1.271457e-06
-1.270092e-06
-1.26919e-06
-0.000761621
0.0007599981
-1.792006e-11
6.696445e-06
-1.267746e-06
-1.268995e-06
-1.267562e-06
-1.266613e-06
-0.0007583655
0.0007567167
-1.641304e-11
6.71189e-06
-1.265115e-06
-1.266427e-06
-1.264953e-06
-1.26391e-06
-0.000755058
0.0007533828
-1.423078e-11
6.727468e-06
-1.262378e-06
-1.263733e-06
-1.262209e-06
-1.261046e-06
-0.0007516974
0.0007499952
-1.272634e-11
6.742875e-06
-1.259489e-06
-1.260857e-06
-1.259304e-06
-1.258065e-06
-0.0007482827
0.0007465534
-1.116715e-11
6.758183e-06
-1.256521e-06
-1.257887e-06
-1.256357e-06
-1.254908e-06
-0.0007448136
0.0007430568
-8.999123e-12
6.773041e-06
-1.253395e-06
-1.254746e-06
-1.253241e-06
-1.251571e-06
-0.0007412895
0.0007395054
-6.479923e-12
6.787226e-06
-1.250131e-06
-1.251405e-06
-1.249965e-06
-1.248064e-06
-0.0007377107
0.0007358993
-4.240609e-12
6.800757e-06
-1.246758e-06
-1.247906e-06
-1.246611e-06
-1.244363e-06
-0.0007340772
0.0007322387
-1.070126e-12
6.813434e-06
-1.243232e-06
-1.244225e-06
-1.243106e-06
-1.240431e-06
-0.0007303896
0.0007285243
1.466192e-12
6.825024e-06
-1.239573e-06
-1.240294e-06
-1.239424e-06
-1.2363e-06
-0.0007266483
0.0007247568
3.04649e-12
6.835347e-06
-1.235787e-06
-1.236129e-06
-1.23558e-06
-1.231938e-06
-0.0007228546
0.0007209373
2.749402e-12
6.844264e-06
-1.231742e-06
-1.231758e-06
-1.231539e-06
-1.227162e-06
-0.0007190092
0.0007170673
5.146587e-12
6.850679e-06
-1.227298e-06
-1.227095e-06
-1.227217e-06
-1.22205e-06
-0.000715114
0.000713148
6.871116e-12
6.854547e-06
-1.222276e-06
-1.222055e-06
-1.222205e-06
-1.216486e-06
-0.0007111696
0.0007091821
6.788739e-12
6.853107e-06
-1.216426e-06
-1.216456e-06
-1.216188e-06
-1.210402e-06
-0.000707179
0.0007051718
4.886216e-12
6.845876e-06
-1.209046e-06
-1.210628e-06
-1.208567e-06
-1.203987e-06
-0.0007031442
0.0007011247
4.71687e-12
6.823366e-06
-1.198131e-06
-1.20375e-06
-1.19797e-06
-1.195934e-06
-0.0006990779
0.0006970656
4.000229e-12
6.768801e-06
-1.182346e-06
-1.196069e-06
-1.182138e-06
-1.17612e-06
-0.0006950216
0.0006930562
2.454105e-12
6.60997e-06
-1.146125e-06
-1.176353e-06
-1.145958e-06
-1.056221e-06
-0.0006910841
0.0006885727
1.112924e-11
6.299454e-06
-8.380817e-07
-1.055499e-06
-8.382686e-07
-5.362398e-07
-0.0001709722
0.0001700927
4.117004e-10
1.415408e-06
-9.692283e-07
-0.000168617
0.0001681851
-1.4749e-09
1.402586e-06
-1.005463e-06
-0.0001670939
0.0001667559
-3.785171e-10
1.34391e-06
-1.058292e-06
-0.0001658044
0.0001655139
5.352049e-10
1.348313e-06
-1.077465e-06
-0.0001646777
0.000164401
-2.468698e-12
1.35416e-06
-1.087469e-06
-0.0001635807
0.0001633115
-9.952742e-11
1.356772e-06
-1.095107e-06
-0.0001625092
0.0001622421
-8.174574e-11
1.362239e-06
-1.097789e-06
-0.0001614413
0.0001611746
-6.375973e-11
1.364644e-06
-1.097201e-06
-0.0001603736
0.000160106
-9.505875e-11
1.364858e-06
-1.094656e-06
-0.0001593006
0.0001590314
-3.19934e-11
1.363885e-06
-1.092864e-06
-0.0001582224
0.0001579522
-3.212488e-11
1.363139e-06
-1.08713e-06
-0.000157139
0.000156867
-9.596278e-11
1.359183e-06
-1.079803e-06
-0.0001560488
0.0001557754
-1.093925e-10
1.353335e-06
-1.071998e-06
-0.0001549534
0.0001546789
-9.247831e-11
1.346609e-06
-1.06342e-06
-0.000153854
0.0001535787
-7.41679e-11
1.338817e-06
-1.053705e-06
-0.0001527517
0.0001524757
-6.823337e-11
1.329775e-06
-1.043494e-06
-0.000151647
0.0001513707
-6.220689e-11
1.319875e-06
-1.03323e-06
-0.0001505417
0.0001502655
-5.893569e-11
1.309524e-06
-1.022748e-06
-0.0001494372
0.0001491612
-6.005738e-11
1.298723e-06
-1.011806e-06
-0.0001483341
0.0001480588
-6.017261e-11
1.28726e-06
-1.000468e-06
-0.0001472336
0.000146959
-5.937127e-11
1.275142e-06
-9.888276e-07
-0.0001461366
0.0001458631
-6.169656e-11
1.262411e-06
-9.768699e-07
-0.0001450445
0.0001447723
-6.461292e-11
1.249075e-06
-9.64657e-07
-0.0001439584
0.0001436879
-6.426468e-11
1.235171e-06
-9.523973e-07
-0.0001428796
0.0001426113
-6.24369e-11
1.220784e-06
-9.399891e-07
-0.0001418097
0.0001415439
-6.319772e-11
1.205843e-06
-9.261299e-07
-0.0001407504
0.0001404866
-7.199867e-11
1.189997e-06
-9.129334e-07
-0.000139703
0.0001394424
-7.483555e-11
1.173605e-06
-9.013925e-07
-0.0001386686
0.0001384138
-6.911654e-11
1.156273e-06
-8.897134e-07
-0.0001376508
0.0001374031
-6.615691e-11
1.137501e-06
-8.758272e-07
-0.0001366547
0.0001364142
-6.311762e-11
1.116383e-06
-8.582108e-07
-0.0001356863
0.0001354533
-6.114321e-11
1.091242e-06
-8.260044e-07
-0.000134761
0.0001345296
-5.593716e-11
1.057468e-06
-7.852739e-07
-0.0001338994
0.0001336805
-4.926663e-11
1.004163e-06
-6.990099e-07
-0.0001331719
0.000133004
-4.48585e-11
8.670144e-07
-5.422608e-08
-0.0001326423
0.0001323193
-2.727555e-11
3.77246e-07
3.67614e-07
-0.0001313475
0.000131052
-3.244224e-11
-7.210319e-08
4.216801e-07
-0.000130192
0.0001299206
-2.930409e-11
-1.502921e-07
4.396216e-07
-0.0001291377
0.000128886
-3.266397e-11
-1.879273e-07
4.458708e-07
-0.0001281502
0.0001279111
-4.104661e-11
-2.067605e-07
4.476421e-07
-0.0001272094
0.0001269805
-6.353209e-11
-2.186671e-07
4.469539e-07
-0.0001263072
0.0001260871
-6.296754e-11
-2.268007e-07
4.448567e-07
-0.000125439
0.000125227
-7.066229e-11
-2.327211e-07
4.419376e-07
-0.0001246012
0.0001243962
-6.259691e-11
-2.368172e-07
4.385907e-07
-0.0001237905
0.0001235919
-6.002203e-11
-2.399557e-07
4.353645e-07
-0.000123005
0.0001228123
-5.925179e-11
-2.426403e-07
4.320187e-07
-0.0001222428
0.0001220559
-5.499749e-11
-2.450401e-07
4.289761e-07
-0.0001215031
0.0001213216
-5.152558e-11
-2.474275e-07
4.262309e-07
-0.0001207847
0.0001206085
-4.752813e-11
-2.499413e-07
4.238276e-07
-0.0001200872
0.0001199161
-4.57294e-11
-2.526746e-07
4.21728e-07
-0.0001194101
0.000119244
-4.296346e-11
-2.556526e-07
4.199578e-07
-0.0001187531
0.000118592
-4.019368e-11
-2.588523e-07
4.184023e-07
-0.0001181159
0.0001179598
-3.886641e-11
-2.622049e-07
4.170668e-07
-0.0001174983
0.000117347
-3.763114e-11
-2.657124e-07
4.159791e-07
-0.0001168999
0.0001167533
-3.520591e-11
-2.693901e-07
4.151172e-07
-0.0001163204
0.0001161786
-3.358216e-11
-2.732356e-07
4.145118e-07
-0.0001157597
0.0001156225
-3.321864e-11
-2.772791e-07
4.14142e-07
-0.0001152176
0.000115085
-3.069182e-11
-2.815038e-07
4.139878e-07
-0.0001146937
0.0001145656
-2.806671e-11
-2.859133e-07
4.141304e-07
-0.0001141879
0.0001140643
-2.696151e-11
-2.905258e-07
4.144207e-07
-0.0001136999
0.0001135808
-2.829711e-11
-2.952745e-07
4.150244e-07
-0.0001132297
0.0001131149
-2.898102e-11
-3.001957e-07
4.156703e-07
-0.0001127769
0.0001126664
-2.776809e-11
-3.052252e-07
4.166002e-07
-0.0001123413
0.0001122352
-2.677221e-11
-3.104472e-07
4.177962e-07
-0.0001119229
0.0001118211
-2.556558e-11
-3.159443e-07
4.189608e-07
-0.0001115215
0.0001114237
-2.564271e-11
-3.21128e-07
4.201375e-07
-0.0001111357
0.0001110418
-2.357777e-11
-3.26178e-07
4.219668e-07
-0.0001107655
0.0001106755
-1.72859e-11
-3.319679e-07
4.259476e-07
-0.0001104116
0.000110326
-2.070482e-12
-3.403595e-07
4.684871e-07
-0.0001100631
0.0001099496
7.599224e-11
-3.550212e-07
3.322926e-07
-0.0001092301
0.0004409315
1.560354e-12
-1.013292e-06
-1.125493e-07
3.32628e-07
-1.153217e-07
-0.000109232
-0.0001109457
-0.0001109475
1.57616e-07
-0.0004417366
0.0004415724
1.608988e-12
-7.527713e-07
3.04247e-07
1.539357e-07
3.011821e-07
2.721586e-07
-0.0004413304
0.0004409963
1.407382e-12
-8.211604e-07
3.080323e-07
2.694609e-07
3.056087e-07
3.243667e-07
-0.0004406316
0.0004401921
1.163332e-12
-8.901757e-07
3.424928e-07
3.222843e-07
3.405689e-07
3.562219e-07
-0.0004397386
0.0004392782
9.854601e-13
-9.765293e-07
3.638733e-07
3.54509e-07
3.622685e-07
3.810139e-07
-0.0004388246
0.0004383715
9.162426e-13
-1.078031e-06
3.858408e-07
3.796928e-07
3.845951e-07
4.030423e-07
-0.0004379177
0.0004374676
9.027884e-13
-1.169572e-06
4.077696e-07
4.020478e-07
4.06803e-07
4.165601e-07
-0.0004370236
0.0004365944
5.320324e-13
-1.243656e-06
4.207644e-07
4.157762e-07
4.198077e-07
4.374144e-07
-0.0004361545
0.0004357248
-2.753003e-15
-1.319814e-06
4.380839e-07
4.366683e-07
4.37331e-07
4.478876e-07
-0.0004353057
0.0004349022
-3.486241e-13
-1.389484e-06
4.494237e-07
4.47099e-07
4.486078e-07
4.572012e-07
-0.0004345094
0.000434134
-4.787256e-13
-1.454856e-06
4.586689e-07
4.564731e-07
4.579651e-07
4.648466e-07
-0.0004337704
0.0004334248
-5.9803e-13
-1.515374e-06
4.662257e-07
4.642405e-07
4.656476e-07
4.712362e-07
-0.0004330916
0.0004327766
-8.278083e-13
-1.571502e-06
4.724902e-07
4.70762e-07
4.720442e-07
4.767338e-07
-0.000432474
0.0004321893
-1.060328e-12
-1.623833e-06
4.779004e-07
4.763642e-07
4.775443e-07
4.816812e-07
-0.0004319168
0.0004316618
-1.131221e-12
-1.673368e-06
4.827697e-07
4.813819e-07
4.82488e-07
4.863129e-07
-0.0004314186
0.0004311925
-1.125374e-12
-1.720774e-06
4.873521e-07
4.860847e-07
4.871348e-07
4.907602e-07
-0.0004309777
0.0004307795
-1.200054e-12
-1.766467e-06
4.917662e-07
4.905738e-07
4.915805e-07
4.951256e-07
-0.0004305921
0.0004304208
-1.316158e-12
-1.810799e-06
4.961034e-07
4.949545e-07
4.95937e-07
4.99454e-07
-0.0004302599
0.0004301144
-1.574459e-12
-1.854061e-06
5.004226e-07
4.993194e-07
5.002942e-07
5.037714e-07
-0.000429979
0.0004298585
-2.004145e-12
-1.896372e-06
5.047351e-07
5.03661e-07
5.04625e-07
5.080897e-07
-0.0004297476
0.0004296514
-2.363984e-12
-1.937772e-06
5.09053e-07
5.079736e-07
5.089339e-07
5.120589e-07
-0.0004295644
0.0004294928
-2.644071e-12
-1.978105e-06
5.128896e-07
5.119719e-07
5.128063e-07
5.170542e-07
-0.0004294282
0.0004293773
-2.666455e-12
-2.019044e-06
5.179633e-07
5.16981e-07
5.178944e-07
5.213367e-07
-0.0004293354
0.0004293067
-2.694116e-12
-2.058556e-06
5.223008e-07
5.212798e-07
5.22258e-07
5.258137e-07
-0.0004292863
0.0004292788
-2.522594e-12
-2.097485e-06
5.267655e-07
5.257405e-07
5.266812e-07
5.302803e-07
-0.0004292793
0.0004292922
-2.234841e-12
-2.135825e-06
5.312598e-07
5.301876e-07
5.311502e-07
5.347812e-07
-0.0004293128
0.0004293456
-2.817147e-12
-2.173614e-06
5.357333e-07
5.346974e-07
5.356556e-07
5.393059e-07
-0.0004293857
0.0004294376
-3.643267e-12
-2.210894e-06
5.402707e-07
5.392387e-07
5.40205e-07
5.438677e-07
-0.0004294966
0.000429567
-3.661382e-12
-2.247639e-06
5.448265e-07
5.438095e-07
5.447702e-07
5.484258e-07
-0.0004296442
0.0004297325
-3.256729e-12
-2.283767e-06
5.493862e-07
5.483672e-07
5.493222e-07
5.529804e-07
-0.0004298274
0.0004299329
-3.584676e-12
-2.319268e-06
5.539364e-07
5.529168e-07
5.538737e-07
5.575412e-07
-0.0004300448
0.000430167
-4.255221e-12
-2.35417e-06
5.584974e-07
5.574857e-07
5.584419e-07
5.620731e-07
-0.0004302953
0.0004304336
-4.131465e-12
-2.388333e-06
5.630248e-07
5.620175e-07
5.629644e-07
5.665664e-07
-0.0004305776
0.0004307313
-3.667334e-12
-2.421694e-06
5.675108e-07
5.66501e-07
5.674439e-07
5.710166e-07
-0.0004308905
0.0004310589
-3.990363e-12
-2.454225e-06
5.71959e-07
5.709583e-07
5.719017e-07
5.75393e-07
-0.0004312326
0.000431415
-4.186685e-12
-2.485735e-06
5.763255e-07
5.753373e-07
5.762668e-07
5.796656e-07
-0.0004316024
0.000431798
-3.940007e-12
-2.516022e-06
5.80586e-07
5.79599e-07
5.805143e-07
5.837804e-07
-0.0004319983
0.0004322063
-3.653797e-12
-2.544811e-06
5.846863e-07
5.837198e-07
5.84627e-07
5.876991e-07
-0.0004324186
0.0004326378
-4.229022e-12
-2.571695e-06
5.885821e-07
5.876485e-07
5.885337e-07
5.912964e-07
-0.0004328608
0.0004330899
-4.485578e-12
-2.595865e-06
5.921436e-07
5.912422e-07
5.921009e-07
5.943544e-07
-0.0004333222
0.0004335592
-4.228572e-12
-2.615875e-06
5.951318e-07
5.942913e-07
5.950583e-07
5.964506e-07
-0.0004337986
0.0004340408
-4.620479e-12
-2.629206e-06
5.971537e-07
5.963729e-07
5.970581e-07
5.966879e-07
-0.0004342837
0.0004345261
-4.914388e-12
-2.630039e-06
5.971761e-07
5.966038e-07
5.970944e-07
5.920293e-07
-0.0004347667
0.0004350031
-4.600009e-12
-2.603759e-06
5.917277e-07
5.919586e-07
5.916576e-07
5.708519e-07
-0.0004352389
0.0004354847
-4.459215e-12
-2.517687e-06
5.651548e-07
5.707939e-07
5.650934e-07
5.074207e-07
-0.0004357651
0.0004361077
-4.491458e-12
-2.330095e-06
4.863838e-07
5.07355e-07
4.862923e-07
4.437635e-07
-0.0004365017
0.0004369031
-4.248602e-12
-2.174014e-06
4.426287e-07
4.43685e-07
4.425568e-07
4.392523e-07
-0.0004372931
0.0004376772
-3.850676e-12
-2.143147e-06
4.40314e-07
4.391845e-07
4.402425e-07
4.366055e-07
-0.0004380608
0.0004384444
-3.900216e-12
-2.130707e-06
4.370314e-07
4.365327e-07
4.36957e-07
4.360104e-07
-0.0004388277
0.0004392115
-3.776695e-12
-2.129264e-06
4.368114e-07
4.359395e-07
4.367414e-07
4.370228e-07
-0.0004395957
0.0004399804
-3.127064e-12
-2.134752e-06
4.380621e-07
4.369545e-07
4.379978e-07
4.378318e-07
-0.0004403654
0.0004407505
-2.19164e-12
-2.14004e-06
4.39727e-07
4.377732e-07
4.396522e-07
4.359881e-07
-0.0004411401
0.0004415283
-2.912741e-12
-2.139268e-06
4.394543e-07
4.36007e-07
4.395555e-07
3.963001e-07
-0.0004420387
0.0004426695
-2.721969e-12
-2.261877e-06
4.186979e-07
3.966193e-07
4.194896e-07
4.132074e-07
-0.000443178
0.0004432983
-2.645261e-12
-1.693252e-06
3.729587e-07
4.135495e-07
3.732912e-07
3.643529e-07
-0.0004435491
0.0004440498
-2.277849e-12
-1.882595e-06
3.252393e-07
3.658233e-07
3.265285e-07
3.525563e-07
-0.0004445766
0.0004451155
-2.383659e-12
-1.935695e-06
3.449737e-07
3.534637e-07
3.45723e-07
3.659474e-07
-0.0004456435
0.0004461683
-2.68337e-12
-1.990321e-06
3.66328e-07
3.664666e-07
3.667618e-07
3.841238e-07
-0.0004466767
0.0004471758
-2.672613e-12
-2.042348e-06
3.872577e-07
3.843986e-07
3.874902e-07
4.015715e-07
-0.0004476619
0.0004481427
-2.416608e-12
-2.093539e-06
4.046837e-07
4.016874e-07
4.047924e-07
4.174689e-07
-0.0004486148
0.0004490814
-2.243839e-12
-2.143425e-06
4.208854e-07
4.175116e-07
4.209156e-07
4.326362e-07
-0.0004495404
0.0004499966
-2.133852e-12
-2.192642e-06
4.355662e-07
4.32649e-07
4.355746e-07
4.452574e-07
-0.0004504487
0.0004509003
-2.26544e-12
-2.237503e-06
4.477167e-07
4.452404e-07
4.477014e-07
4.557878e-07
-0.0004513498
0.0004518009