/*--------------------------------*- C++ -*----------------------------------*\
| =========                 |                                                 |
| \\      /  F ield         | foam-extend: Open Source CFD                    |
|  \\    /   O peration     | Version:     3.1                                |
|   \\  /    A nd           | Web:         http://www.extend-project.de       |
|    \\/     M anipulation  |                                                 |
\*---------------------------------------------------------------------------*/
FoamFile
{
    version     2.0;
    format      ascii;
    class       volScalarField;
    location    "5.5";
    object      k;
}
// * * * * * * * * * * * * * * * * * * * * * * * * * * * * * * * * * * * * * //

dimensions      [0 2 -2 0 0 0 0];

internalField   nonuniform List<scalar> 
119952
(
0.01339452
0.01111796
0.01055816
0.01069944
0.01068018
0.01037529
0.0104217
0.01062455
0.0108868
0.01115547
0.01138732
0.01151896
0.0115636
0.01154968
0.0115019
0.01143806
0.01137006
0.01130661
0.01125994
0.01127405
0.01221972
0.0118382
0.01180616
0.01268706
0.01213472
0.01186333
0.0116292
0.01141765
0.01098157
0.01847761
0.04647451
0.04600551
0.04459098
0.04315762
0.04191342
0.04088741
0.04003931
0.03931133
0.03865631
0.03806256
0.03579643
0.03546645
0.03612455
0.03720099
0.03836426
0.03936397
0.04015051
0.04074788
0.0412027
0.04316874
0.04360385
0.04389942
0.04409879
0.04423901
0.0443418
0.04442774
0.04451131
0.04459784
0.0447931
0.04502021
0.04521792
0.04543322
0.04565508
0.04586496
0.04605128
0.04620141
0.04630193
0.04624402
0.04664818
0.04656793
0.04637506
0.04633152
0.04629648
0.04619185
0.04600749
0.04580132
0.04559487
0.04538471
0.04515647
0.04489241
0.04459081
0.04425415
0.04388667
0.04349317
0.04307691
0.04263994
0.04217932
0.0416919
0.0412717
0.0408854
0.04036838
0.04003981
0.04005189
0.03989557
0.03967189
0.03948996
0.03917542
0.03798543
0.03708251
0.03640377
0.03583406
0.03532091
0.03484377
0.03439638
0.03397512
0.03357766
0.03320254
0.03284867
0.03251516
0.03220117
0.03190546
0.03162665
0.03136329
0.0311139
0.03087711
0.03065185
0.03043721
0.03023246
0.0300369
0.02984913
0.02966736
0.02948983
0.02931485
0.02914101
0.02896716
0.02879238
0.02861594
0.02843725
0.02825588
0.02807149
0.02788386
0.02769288
0.02749851
0.0273008
0.02709986
0.02689584
0.02668886
0.02647999
0.02626911
0.02605633
0.02584228
0.02562755
0.02541262
0.02519791
0.02498347
0.02476841
0.02455629
0.02436415
0.02421261
0.0240596
0.02389959
0.02373045
0.02355338
0.02337072
0.02318452
0.02299659
0.02280858
0.02262188
0.0224376
0.02225657
0.02207943
0.02190662
0.02173846
0.02157516
0.02141686
0.02126361
0.02111543
0.02097227
0.02083409
0.02070078
0.02057219
0.02044809
0.02032832
0.02021283
0.0201018
0.01999505
0.01989218
0.0197929
0.01969704
0.01960445
0.019515
0.01942856
0.01934501
0.01926425
0.01918618
0.01911073
0.01903782
0.01896742
0.01889945
0.01883395
0.01877084
0.01871031
0.01865198
0.01859537
0.01853941
0.01848223
0.01843042
0.01844752
0.01845218
0.01837475
0.01827463
0.01816197
0.01802759
0.01788479
0.0177424
0.01760527
0.01747611
0.01735607
0.01724569
0.01714511
0.01705439
0.01697346
0.0169022
0.01684058
0.01678899
0.01674657
0.01671253
0.01668723
0.01667083
0.01666332
0.01666483
0.01667538
0.01669516
0.01672416
0.01676257
0.01681055
0.01686839
0.01693637
0.01701471
0.01709766
0.01718235
0.01726964
0.01731072
0.01742329
0.01756017
0.01770069
0.01783504
0.01796146
0.01807937
0.01818814
0.01828759
0.01837791
0.01845945
0.0185327
0.01859824
0.01865666
0.01870859
0.01875461
0.01879531
0.01883122
0.01886277
0.0188904
0.01891446
0.01893528
0.01895314
0.01896826
0.01898083
0.01899103
0.01899899
0.01900478
0.01900852
0.01901029
0.01901015
0.01900813
0.01900451
0.01900019
0.01899545
0.01826197
0.0183655
0.01841797
0.01841478
0.01839084
0.0183562
0.01830571
0.0182473
0.01818879
0.01813444
0.01808602
0.01804486
0.01801125
0.01798468
0.01796448
0.01794978
0.01793962
0.01793309
0.01792933
0.01792756
0.01792711
0.01792745
0.01792811
0.01792877
0.01792917
0.01792913
0.01792852
0.01792727
0.01792534
0.01792274
0.0179195
0.01791566
0.01791128
0.01790641
0.01790111
0.01789544
0.01788945
0.0178832
0.01787675
0.01787017
0.01786356
0.01785708
0.01785106
0.01784639
0.01784542
0.01784951
0.01785039
0.01784758
0.01784584
0.01784498
0.01784433
0.0178448
0.01784686
0.01786332
0.01793799
0.01791181
0.01788763
0.01786055
0.0178264
0.01778507
0.0177361
0.01768069
0.01762109
0.01755943
0.01749759
0.01743716
0.01737928
0.01732479
0.01727427
0.01722803
0.0171862
0.01714873
0.01711531
0.01708569
0.01705977
0.01703733
0.01701792
0.01700118
0.01698683
0.01697462
0.01696428
0.01695558
0.01694825
0.01694201
0.01693669
0.01693221
0.01692842
0.01692518
0.01692236
0.01691981
0.01691747
0.01691525
0.0169131
0.01691095
0.01690876
0.01690649
0.01690412
0.01690163
0.01689903
0.0168963
0.01689345
0.0168905
0.01688745
0.01688433
0.01688115
0.01687794
0.01687472
0.01687146
0.01686827
0.01686513
0.01686206
0.01685907
0.01685617
0.01685338
0.01685071
0.01684817
0.01684574
0.01684343
0.01684122
0.0168391
0.01683705
0.01683505
0.01683308
0.01683111
0.01682912
0.01682709
0.01682497
0.01682275
0.01682032
0.01681765
0.01681443
0.01681046
0.01680484
0.01679621
0.01677999
0.01674607
0.01666602
0.01653823
0.01676424
0.05309891
0.04983193
0.05034348
0.05213263
0.05414039
0.05598129
0.05754353
0.05882602
0.05987201
0.05895267
0.059198
0.06091978
0.06312476
0.06522887
0.06702806
0.06847043
0.06958057
0.07039706
0.07753807
0.07704069
0.07643775
0.07564744
0.07477789
0.07391585
0.07309902
0.07234146
0.07164527
0.07095321
0.07040466
0.06986757
0.06919768
0.06847514
0.06773127
0.06698208
0.06624008
0.06550855
0.06478083
0.06422735
0.06377796
0.06315404
0.06248222
0.06180187
0.0611078
0.06040829
0.05971207
0.05902563
0.05835853
0.05767845
0.05700268
0.05638387
0.05580941
0.05527443
0.05478118
0.05432027
0.05389117
0.05355063
0.05612111
0.05568313
0.05531291
0.05500177
0.0547236
0.05446575
0.05422767
0.05400943
0.05381434
0.05364981
0.05352037
0.05340764
0.05331456
0.05325098
0.05322728
0.05324428
0.05331353
0.05344094
0.05364616
0.05385302
0.05395805
0.05404485
0.05415586
0.05423067
0.05424536
0.05420068
0.0541085
0.05398025
0.05382316
0.05364295
0.05344452
0.05323251
0.05301072
0.05278205
0.05254761
0.05230734
0.05206054
0.05180941
0.05156345
0.05133915
0.05111863
0.05092111
0.05080361
0.05072848
0.05063461
0.05053158
0.0503805
0.05007287
0.04958236
0.04912131
0.04871948
0.04833864
0.0479697
0.04760911
0.04725562
0.04690807
0.04656559
0.04622808
0.04589613
0.04557051
0.04525184
0.04494063
0.04463729
0.04434208
0.04405514
0.04377671
0.0435076
0.04324791
0.04299645
0.04275186
0.04251318
0.04227973
0.04205047
0.04182427
0.04160001
0.04137659
0.04115301
0.04092832
0.04070168
0.04047232
0.0402396
0.04000292
0.03976184
0.03951599
0.03926509
0.03900901
0.03874767
0.03848112
0.03820956
0.03793323
0.03765239
0.03736734
0.03707847
0.03678613
0.03649062
0.03619243
0.03589287
0.03559426
0.03529889
0.0350061
0.03471378
0.03442291
0.03413437
0.03384857
0.033566
0.03328717
0.03301253
0.03274241
0.0324771
0.03221683
0.03196182
0.03171227
0.0314683
0.03123003
0.03099753
0.03077082
0.03054992
0.03033477
0.03012532
0.02992145
0.02972305
0.02952996
0.02934201
0.029159
0.02898066
0.02880674
0.02863701
0.02847126
0.02830918
0.0281505
0.02799488
0.02784206
0.02769171
0.02754364
0.02739753
0.02725317
0.02711013
0.02696834
0.02682727
0.02668706
0.02654694
0.02640742
0.02626726
0.02612756
0.02598611
0.02584552
0.02570302
0.02557087
0.02515809
0.02464434
0.02425405
0.02394489
0.02368874
0.02346746
0.02326964
0.02308788
0.02291724
0.02275435
0.02259695
0.02244347
0.02229289
0.02214452
0.02199797
0.02185301
0.02170954
0.02156756
0.0214272
0.02128859
0.02115185
0.02101713
0.0208846
0.02075443
0.02062682
0.02050191
0.02037987
0.02026086
0.02014509
0.02003255
0.01992325
0.01981705
0.01971345
0.01961248
0.01951313
0.01941472
0.01933062
0.0192641
0.01920657
0.01915454
0.01910674
0.01906239
0.01902087
0.01898172
0.01894464
0.01890934
0.0188756
0.0188432
0.01881191
0.01878152
0.01875184
0.01872264
0.01869373
0.0186649
0.01863596
0.01860674
0.01857707
0.0185468
0.01851581
0.018484
0.01845129
0.01841763
0.01838299
0.01834737
0.01831082
0.01827338
0.0182352
0.0181964
0.01815694
0.01811631
0.01871947
0.01866686
0.01863198
0.01860291
0.01857441
0.01854505
0.018515
0.01848456
0.01845378
0.01842283
0.01839197
0.01836148
0.01833157
0.01830245
0.01827432
0.01824735
0.01822168
0.01819744
0.01817472
0.01815361
0.01813416
0.01811643
0.01810042
0.01808614
0.0180736
0.01806277
0.0180536
0.01804607
0.0180401
0.01803564
0.01803264
0.01803101
0.0180307
0.01803161
0.01803369
0.01803684
0.018041
0.01804609
0.01805204
0.01805881
0.01806638
0.01807479
0.01808418
0.0180947
0.01810615
0.01811768
0.01812821
0.01813745
0.0181464
0.01815537
0.01816464
0.01817391
0.01818452
0.01820247
0.01822423
0.01823492
0.01823872
0.01824199
0.01824611
0.01825125
0.01825743
0.01826457
0.01827244
0.01828074
0.0182892
0.01829762
0.01830586
0.0183138
0.01832138
0.01832856
0.01833532
0.01834168
0.01834767
0.01835332
0.01835862
0.01836364
0.01836842
0.01837301
0.01837747
0.01838185
0.01838618
0.01839051
0.0183949
0.01839935
0.01840388
0.01840854
0.01841335
0.01841832
0.01842347
0.0184288
0.01843433
0.01844005
0.01844597
0.01845208
0.01845836
0.01846482
0.01847145
0.01847823
0.01848515
0.0184922
0.01849936
0.01850663
0.01851398
0.01852141
0.01852891
0.01853645
0.01854404
0.01855165
0.01855927
0.01856689
0.0185745
0.01858209
0.01858966
0.01859718
0.01860467
0.01861211
0.01861951
0.01862687
0.0186342
0.0186415
0.01864882
0.01865611
0.01866346
0.01867081
0.0186783
0.01868579
0.01869354
0.01870125
0.01870936
0.01871726
0.01872565
0.0187333
0.01874109
0.01874626
0.01874944
0.01874768
0.01875367
0.01879197
0.0188619
0.0532806
0.05550482
0.05826226
0.06136134
0.06481808
0.06868521
0.07305254
0.07804653
0.08385162
0.090266
0.1269312
0.13755
0.1479461
0.1578093
0.1666347
0.173726
0.1801515
0.1876234
0.2010591
0.2312417
0.2324652
0.2323882
0.2314983
0.2300614
0.2279804
0.225322
0.222156
0.2185089
0.2145701
0.2102536
0.2062634
0.2023443
0.1983123
0.1941467
0.1898635
0.1854814
0.1810658
0.1768123
0.1718947
0.1672285
0.1628197
0.1586145
0.1546001
0.1507535
0.1470552
0.1434917
0.1400607
0.1367666
0.1335741
0.1304678
0.1274635
0.1245565
0.1217481
0.1190457
0.116451
0.1139622
0.1143976
0.1121993
0.1100546
0.1079848
0.1059945
0.1040776
0.1022312
0.1004505
0.09873819
0.09708908
0.09548996
0.09395589
0.09249013
0.09108272
0.0897274
0.08842237
0.08716347
0.08595077
0.08478187
0.0836477
0.08255053
0.081495
0.08047835
0.07949409
0.07854703
0.07764034
0.07676858
0.0759278
0.07511431
0.07431663
0.07351881
0.07272705
0.0719413
0.07116907
0.07039731
0.06964142
0.06886965
0.06807972
0.06737855
0.06667598
0.06595604
0.06523159
0.06451809
0.06382249
0.06314642
0.06248989
0.06185483
0.06124434
0.06065751
0.06009671
0.05957177
0.0590895
0.0586561
0.05827313
0.05794788
0.05767895
0.05747073
0.05729894
0.0571415
0.05699506
0.0568682
0.05675353
0.05663521
0.05650271
0.05635379
0.05619044
0.05601484
0.05582826
0.05563185
0.05542721
0.05521678
0.05500316
0.05478923
0.05457742
0.05437096
0.05417357
0.05399235
0.05383423
0.05370464
0.05360834
0.05356221
0.05355815
0.05357189
0.05357067
0.05353769
0.05341881
0.05321638
0.05298446
0.05276751
0.05256703
0.05237369
0.05218017
0.05198323
0.0517817
0.05157503
0.05136303
0.05114589
0.05092408
0.05069835
0.05046959
0.05023867
0.05000648
0.04977369
0.04954066
0.04930718
0.04907398
0.04884313
0.04861508
0.0483896
0.0481664
0.04794511
0.04772526
0.04750624
0.04728734
0.0470678
0.04684686
0.04662375
0.04639771
0.04616803
0.04593406
0.04569518
0.04545087
0.04520066
0.0449442
0.04468121
0.04441154
0.04413512
0.04385198
0.04356224
0.04326609
0.0429638
0.04265575
0.0423424
0.04202442
0.04170291
0.04137941
0.04105545
0.04073133
0.0404063
0.04008048
0.03975482
0.03943029
0.03910782
0.03878813
0.03847189
0.0381597
0.03785209
0.03754953
0.03725244
0.03696119
0.03667606
0.03639728
0.03612504
0.03585943
0.03560053
0.03534836
0.0351029
0.03486405
0.03463171
0.03440574
0.03418594
0.03397209
0.03376396
0.03356126
0.0333637
0.03317094
0.03298266
0.0327985
0.03261813
0.03244117
0.0322673
0.03209609
0.03192724
0.03176027
0.031595
0.03143089
0.03126795
0.03110542
0.03094366
0.03078148
0.03061991
0.03045687
0.03029475
0.03012948
0.02996625
0.02979583
0.02961601
0.02944141
0.02926909
0.02909681
0.02892421
0.02875112
0.02857742
0.02840308
0.02822814
0.02805269
0.02787686
0.02770082
0.02752475
0.02734887
0.0271734
0.02699855
0.02682456
0.02665167
0.02648013
0.02631018
0.02614206
0.025976
0.02581222
0.02565097
0.02549245
0.02533686
0.02518432
0.02503472
0.02488815
0.02474472
0.02460433
0.02446669
0.02433131
0.0241978
0.02406668
0.02394085
0.02382426
0.02371696
0.02361663
0.02352216
0.02343283
0.02334791
0.02326683
0.02318911
0.02311436
0.02304224
0.02297247
0.02290476
0.02283889
0.02277463
0.02271176
0.02265006
0.02258933
0.02252936
0.02246994
0.02241086
0.02235195
0.02229302
0.0222339
0.02217445
0.02211453
0.02205404
0.02199287
0.021931
0.02186837
0.02180504
0.02174101
0.02167643
0.02161139
0.0215472
0.02149042
0.02143323
0.02137187
0.0213062
0.02123908
0.02117291
0.02110871
0.02104668
0.02098673
0.02092884
0.02087309
0.02081956
0.02076837
0.0207196
0.02067329
0.0206295
0.02058827
0.02054963
0.02051359
0.02048016
0.02044932
0.02042106
0.02039533
0.0203721
0.0203513
0.02033286
0.02031671
0.02030277
0.02029092
0.02028109
0.02027315
0.02026702
0.02026257
0.02025971
0.02025832
0.02025829
0.02025953
0.02026192
0.02026539
0.02026985
0.02027524
0.02028151
0.02028861
0.02029645
0.02030483
0.02031343
0.02032181
0.02032978
0.02033745
0.02034511
0.02035271
0.02036039
0.02036755
0.02037395
0.02037937
0.02038598
0.02039424
0.02040361
0.02041294
0.02042191
0.0204306
0.02043917
0.02044771
0.02045631
0.02046502
0.02047384
0.02048279
0.02049186
0.02050104
0.02051034
0.02051974
0.02052923
0.02053879
0.0205484
0.02055805
0.02056772
0.02057739
0.02058706
0.0205967
0.02060633
0.02061591
0.02062546
0.02063497
0.02064444
0.02065386
0.02066324
0.02067258
0.02068189
0.02069116
0.0207004
0.02070961
0.0207188
0.02072797
0.02073711
0.02074625
0.02075537
0.02076448
0.0207736
0.02078271
0.02079183
0.02080095
0.02081009
0.02081924
0.02082841
0.02083759
0.0208468
0.02085603
0.02086528
0.02087456
0.02088386
0.0208932
0.02090257
0.02091196
0.02092138
0.02093083
0.0209403
0.0209498
0.02095933
0.0209689
0.02097851
0.02098817
0.02099793
0.02100777
0.02101778
0.02102794
0.02103838
0.02104904
0.02106012
0.0210715
0.02108348
0.02109576
0.02110878
0.02112195
0.02113598
0.02115028
0.02116689
0.02118736
0.02121697
0.02125479
0.04662772
0.05069845
0.05431739
0.07906909
0.1043719
0.1347773
0.1543932
0.1733249
0.1902558
0.2053801
0.2178232
0.2275943
0.2365404
0.245126
0.2533494
0.2613021
0.2689987
0.276405
0.2832661
0.2894951
0.2952305
0.3003857
0.3048366
0.3087495
0.3120072
0.3145936
0.316449
0.3174626
0.3175864
0.3167402
0.3150178
0.3188891
0.3124591
0.3061992
0.2996665
0.2928775
0.2858806
0.2787332
0.2714998
0.2642529
0.2570945
0.2500372
0.243119
0.2363669
0.2298018
0.2234328
0.2172649
0.2112991
0.2055355
0.1999695
0.1945721
0.1893144
0.1841516
0.1791015
0.1741902
0.1694261
0.1648183
0.1603785
0.1561121
0.1520171
0.1480949
0.1443438
0.1407615
0.1373419
0.1340853
0.1309825
0.1280386
0.1252313
0.1224407
0.1198059
0.1173255
0.1149852
0.1127695
0.1106678
0.1086729
0.1067793
0.1049811
0.1032716
0.1016455
0.1001015
0.09863385
0.09723559
0.09590194
0.09462978
0.09341573
0.09225711
0.09114917
0.09008869
0.08907217
0.08809399
0.08715496
0.08625434
0.08538349
0.08453443
0.08370415
0.08289095
0.08209269
0.08130477
0.08052123
0.07974565
0.07897229
0.07820388
0.07742939
0.07666245
0.07588161
0.07511517
0.07435914
0.07358771
0.07279779
0.07200146
0.0712098
0.07042675
0.0696518
0.068884
0.06812416
0.06737476
0.06663943
0.06592297
0.06523141
0.06456945
0.06394173
0.06335128
0.06280149
0.06229296
0.06182651
0.06139726
0.06099628
0.06061694
0.06026186
0.05993172
0.05962092
0.05932149
0.05902881
0.05874159
0.05845924
0.05818049
0.05790375
0.05762788
0.05735284
0.05707955
0.05680998
0.05654643
0.05629229
0.05605127
0.05582877
0.05563006
0.05546152
0.05532654
0.05523226
0.05517563
0.05514606
0.05512246
0.05509098
0.05503318
0.0549416
0.05483049
0.05472321
0.05462933
0.05454513
0.05446403
0.05438164
0.05429566
0.05420459
0.05410706
0.05400194
0.0538885
0.05376646
0.05363588
0.05349714
0.05335075
0.05319735
0.05303761
0.052872
0.05270068
0.05252341
0.05234138
0.05215659
0.0519701
0.05178213
0.05159271
0.05140179
0.05120919
0.05101464
0.05081774
0.05061801
0.05041491
0.05020786
0.04999627
0.04977953
0.04955706
0.04932831
0.04909277
0.04885
0.04859966
0.04834145
0.04807521
0.04780084
0.04751837
0.04722793
0.04692976
0.04662427
0.04631205
0.04599391
0.04567093
0.04534415
0.04501416
0.0446811
0.04434533
0.04400768
0.04366913
0.04333063
0.04299304
0.04265717
0.04232383
0.04199372
0.04166754
0.04134591
0.04102938
0.04071845
0.04041353
0.04011495
0.03982301
0.0395379
0.03925978
0.03898873
0.03872476
0.03846785
0.0382179
0.0379748
0.03773834
0.03750832
0.03728446
0.03706647
0.03685403
0.03664681
0.03644443
0.03624652
0.03605266
0.03586247
0.0356755
0.03549135
0.03530959
0.03512987
0.03495169
0.03477482
0.03459867
0.03442315
0.03424754
0.03407199
0.03389557
0.03371885
0.03354063
0.03336243
0.03318311
0.03300409
0.03282354
0.03264024
0.03245436
0.03226655
0.03207716
0.03188629
0.03169402
0.03150049
0.03130587
0.03111038
0.03091422
0.03071763
0.03052085
0.03032413
0.03012776
0.029932
0.02973714
0.02954347
0.02935129
0.02916085
0.02897246
0.02878637
0.02860283
0.02842208
0.02824433
0.02806977
0.02789856
0.02773078
0.02756639
0.02740531
0.02724742
0.02709258
0.02694085
0.02679284
0.02664996
0.02651412
0.02638617
0.02626557
0.02615146
0.02604314
0.02594003
0.02584167
0.02574765
0.02565761
0.02557121
0.02548812
0.02540809
0.02533084
0.02525614
0.02518378
0.02511352
0.02504514
0.0249784
0.0249131
0.02484898
0.02478585
0.02472347
0.02466165
0.02460018
0.02453891
0.02447762
0.02441622
0.02435453
0.02429256
0.02423011
0.02416737
0.02410409
0.0240408
0.02397693
0.02391324
0.0238493
0.02378567
0.02372271
0.0236604
0.02359866
0.02353756
0.02347727
0.02341797
0.02335989
0.02330325
0.02324829
0.0231952
0.02314416
0.02309531
0.02304877
0.02300463
0.02296296
0.02292384
0.0228873
0.02285335
0.02282201
0.02279325
0.02276705
0.02274338
0.02272216
0.02270334
0.02268683
0.02267254
0.02266038
0.02265024
0.02264201
0.02263558
0.02263084
0.02262768
0.02262596
0.0226256
0.02262646
0.02262847
0.0226315
0.02263549
0.02264032
0.0226459
0.02265211
0.02265881
0.02266581
0.02267291
0.02267991
0.02268679
0.02269362
0.02270044
0.02270729
0.02271421
0.02272155
0.02272945
0.02273739
0.0227446
0.02275123
0.02275762
0.02276411
0.02277083
0.02277781
0.0227851
0.02279272
0.02280066
0.02280891
0.02281746
0.0228263
0.02283543
0.02284484
0.02285451
0.02286444
0.02287459
0.02288494
0.02289548
0.02290617
0.022917
0.02292795
0.022939
0.02295011
0.02296128
0.02297249
0.02298372
0.02299495
0.02300616
0.02301735
0.02302849
0.02303958
0.02305061
0.02306155
0.02307241
0.02308318
0.02309386
0.02310444
0.02311492
0.0231253
0.02313558
0.02314577
0.02315586
0.02316586
0.02317578
0.02318562
0.02319538
0.02320509
0.02321474
0.02322436
0.02323397
0.02324358
0.02325322
0.0232629
0.02327264
0.02328246
0.02329238
0.02330239
0.02331252
0.02332277
0.02333314
0.02334365
0.02335428
0.02336507
0.02337601
0.02338714
0.02339848
0.02341007
0.02342195
0.0234342
0.02344686
0.02346005
0.02347381
0.02348833
0.02350361
0.02351992
0.0235373
0.02355609
0.02357664
0.02359932
0.02362534
0.02365452
0.02368716
0.02656985
0.02885115
0.03106687
0.03987902
0.0521372
0.07255999
0.08683893
0.1017261
0.1174024
0.1329309
0.1485922
0.1654297
0.1830073
0.2005521
0.2185228
0.2387141
0.2703969
0.2827164
0.2948336
0.3067031
0.3184926
0.3292931
0.3385814
0.3465034
0.353309
0.3590964
0.363806
0.3677088
0.3707976
0.3730786
0.3746985
0.375617
0.3757641
0.3750634
0.3733826
0.3706945
0.3669284
0.3619995
0.3558643
0.3491517
0.3418025
0.3326079
0.3223262
0.312667
0.3030498
0.2934862
0.2840404
0.2747781
0.2657619
0.2570401
0.2486565
0.2406359
0.2329904
0.2257164
0.2188031
0.2122372
0.2060073
0.2000966
0.1944858
0.1891567
0.1840909
0.1792657
0.1746536
0.1702288
0.1659744
0.1618079
0.1577556
0.1538348
0.1500583
0.1464343
0.1429642
0.1396472
0.1364812
0.133464
0.1305918
0.1278614
0.1252675
0.1228055
0.120465
0.1182293
0.116104
0.1140921
0.1121855
0.1103754
0.1086564
0.1070253
0.1054788
0.1040132
0.1026245
0.101309
0.1000621
0.09887969
0.0977581
0.09669409
0.0956847
0.09472677
0.09381689
0.09295161
0.0921266
0.09133779
0.09057963
0.08984637
0.08913816
0.08845225
0.0877846
0.08713114
0.08648764
0.08584935
0.08521343
0.08457654
0.08393674
0.08328956
0.08263429
0.08196707
0.08129027
0.08060005
0.07989809
0.07918122
0.07844488
0.07768842
0.07691643
0.07613481
0.0753471
0.07455467
0.07375867
0.07296136
0.07216631
0.07137788
0.07060028
0.06983793
0.06909491
0.0683752
0.06768173
0.06701702
0.06638244
0.06577855
0.06520402
0.06465485
0.06412786
0.06362361
0.06314306
0.06268438
0.06224395
0.06181902
0.06140831
0.06101095
0.06062562
0.06025058
0.05988412
0.05952518
0.05917343
0.05882951
0.05849465
0.05817106
0.05786155
0.05756993
0.05730037
0.05705739
0.05684425
0.05666384
0.05651565
0.05639426
0.05629001
0.05619378
0.05609738
0.0559964
0.05589438
0.05580117
0.05572343
0.05566072
0.05560906
0.05556452
0.0555242
0.05548578
0.05544704
0.05540584
0.0553603
0.05530889
0.05525046
0.05518422
0.05510964
0.05502652
0.0549348
0.05483461
0.05472612
0.05460954
0.05448507
0.05435271
0.05421342
0.05406882
0.0539199
0.05376697
0.0536102
0.05344973
0.0532856
0.05311768
0.05294577
0.05276953
0.05258857
0.05240241
0.05221056
0.05201248
0.05180764
0.05159553
0.05137565
0.05114759
0.05091099
0.05066557
0.05041117
0.05014772
0.04987529
0.04959408
0.04930447
0.04900702
0.04870245
0.04839152
0.04807486
0.04775293
0.04742624
0.04709552
0.04676169
0.04642569
0.04608847
0.04575096
0.04541405
0.04507863
0.04474553
0.04441554
0.04408937
0.04376769
0.04345109
0.04314008
0.0428351
0.0425365
0.04224459
0.04195958
0.04168162
0.04141078
0.04114708
0.04089047
0.04064084
0.04039804
0.04016185
0.03993202
0.03970826
0.03949024
0.03927761
0.03906999
0.03886695
0.03866808
0.03847293
0.03828106
0.03809201
0.03790535
0.0377206
0.03753736
0.03735514
0.03717359
0.03699222
0.03681078
0.03662878
0.03644617
0.03626256
0.03607819
0.03589277
0.03570614
0.03551811
0.03532838
0.03513665
0.03494277
0.03474669
0.03454842
0.03434803
0.03414564
0.03394143
0.03373561
0.03352841
0.03332008
0.0331109
0.03290115
0.03269114
0.0324812
0.03227165
0.03206283
0.03185508
0.03164872
0.0314441
0.03124152
0.0310413
0.03084371
0.03064903
0.03045748
0.03026927
0.03008453
0.02990333
0.02972574
0.02955181
0.02938164
0.02921547
0.0290538
0.02889747
0.02874761
0.02860506
0.02846986
0.0283415
0.02821946
0.02810328
0.02799262
0.02788715
0.02778652
0.02769043
0.02759855
0.02751062
0.02742638
0.02734561
0.02726808
0.02719358
0.02712188
0.02705276
0.02698599
0.02692131
0.02685849
0.0267973
0.0267375
0.02667886
0.02662116
0.02656417
0.02650773
0.02645164
0.02639579
0.02634002
0.0262843
0.0262285
0.0261726
0.02611643
0.02606003
0.02600352
0.02594711
0.0258909
0.02583492
0.02577933
0.02572436
0.02567023
0.02561714
0.02556522
0.02551461
0.02546545
0.02541788
0.02537203
0.025328
0.0252859
0.02524582
0.02520784
0.02517202
0.02513842
0.02510708
0.02507801
0.02505124
0.02502674
0.02500451
0.02498451
0.0249667
0.02495102
0.0249374
0.02492576
0.02491602
0.02490807
0.02490183
0.02489719
0.02489404
0.02489229
0.02489182
0.02489253
0.02489432
0.02489709
0.02490074
0.02490517
0.02491027
0.02491595
0.02492208
0.02492854
0.02493518
0.02494187
0.02494855
0.02495524
0.02496197
0.02496877
0.02497566
0.02498266
0.02498967
0.0249965
0.02500323
0.02501008
0.02501711
0.0250243
0.02503161
0.02503907
0.0250467
0.02505457
0.02506268
0.02507107
0.02507974
0.02508872
0.02509801
0.02510761
0.02511752
0.02512772
0.0251382
0.02514894
0.02515992
0.02517111
0.02518249
0.02519405
0.02520575
0.02521758
0.02522952
0.02524154
0.02525362
0.02526574
0.02527787
0.02529002
0.02530215
0.02531426
0.02532633
0.02533836
0.02535032
0.02536217
0.02537389
0.02538548
0.02539693
0.02540823
0.02541937
0.02543036
0.0254412
0.02545187
0.02546238
0.02547272
0.02548291
0.02549293
0.02550283
0.02551267
0.02552247
0.02553226
0.02554204
0.02555185
0.02556174
0.02557172
0.02558185
0.02559215
0.02560264
0.02561335
0.0256243
0.02563548
0.02564692
0.02565862
0.02567061
0.02568289
0.02569549
0.02570847
0.02572185
0.02573572
0.02575013
0.02576521
0.02578103
0.02579776
0.02581551
0.02583449
0.02585487
0.02587689
0.02590086
0.02592688
0.02595565
0.02598618
0.02601768
0.01141893
0.01307553
0.01434639
0.02064214
0.02808171
0.03789423
0.04620113
0.05564071
0.06587754
0.07673805
0.08854713
0.1023688
0.1173135
0.1337991
0.1533272
0.1828507
0.197574
0.2126523
0.2275107
0.2420968
0.2563199
0.2700709
0.2831879
0.2956066
0.3072221
0.3179557
0.3280063
0.3389412
0.3497483
0.3604783
0.3709814
0.3805448
0.3886414
0.395084
0.3995028
0.4023962
0.4041481
0.4049157
0.4047838
0.4037742
0.4018696
0.3990497
0.3952865
0.3904916
0.3845478
0.3773437
0.3692775
0.3601285
0.3491516
0.3381576
0.3268573
0.3151875
0.3031316
0.2911928
0.2793957
0.2678862
0.2567989
0.2462289
0.2362336
0.2268422
0.2180635
0.2098892
0.2023004
0.1952676
0.1887575
0.182732
0.1771568
0.1719945
0.1672101
0.162771
0.1586404
0.1548156
0.1512524
0.1478868
0.14465
0.1415274
0.1385265
0.1356523
0.1329062
0.1302872
0.1277922
0.1254167
0.1231568
0.1210085
0.1189682
0.1170316
0.1151946
0.1134519
0.1117996
0.1102326
0.1087475
0.1073418
0.1060109
0.1047497
0.1035545
0.1024224
0.1013505
0.100336
0.09937613
0.0984677
0.09760751
0.09679303
0.09602211
0.09529255
0.09460181
0.09394734
0.0933266
0.09273725
0.09217688
0.09164243
0.09113146
0.09064115
0.09016775
0.08970735
0.08925613
0.08880985
0.08836414
0.0879147
0.08745844
0.08699157
0.08651107
0.08601352
0.08549738
0.08496004
0.08440091
0.0838177
0.08320871
0.08257358
0.08191152
0.08122184
0.08050603
0.07976765
0.07901052
0.07823785
0.07745269
0.07665856
0.07585966
0.07506056
0.07426564
0.07347926
0.07270543
0.0719477
0.07120881
0.07049082
0.06979494
0.06912152
0.06846997
0.06783867
0.06722612
0.06663212
0.06605713
0.06550089
0.06496222
0.06443996
0.06393351
0.06344249
0.06296626
0.0625038
0.06205389
0.06161553
0.06118811
0.06077158
0.06036646
0.05997394
0.05959582
0.05923447
0.05889274
0.05857355
0.05827925
0.05801145
0.05777024
0.05755341
0.05735663
0.05717519
0.05700518
0.05684454
0.05669443
0.05655902
0.056442
0.05634405
0.05626326
0.05619694
0.05614257
0.05609788
0.05606059
0.05602837
0.05599892
0.05597013
0.05594007
0.05590708
0.05586971
0.05582681
0.05577747
0.05572105
0.05565713
0.05558549
0.05550612
0.05541897
0.05532403
0.05522132
0.05511157
0.05499583
0.05487475
0.05474862
0.05461765
0.05448201
0.05434176
0.05419685
0.05404709
0.05389221
0.05373187
0.05356562
0.053393
0.0532135
0.05302661
0.05283183
0.0526287
0.05241681
0.05219582
0.05196552
0.05172577
0.05147658
0.05121805
0.0509505
0.05067436
0.05039014
0.05009834
0.04979946
0.04949401
0.04918266
0.04886623
0.04854564
0.04822182
0.04789573
0.04756834
0.04724055
0.04691334
0.04658759
0.04626415
0.04594381
0.04562729
0.04531526
0.04500831
0.04470693
0.04441157
0.04412259
0.04384026
0.04356478
0.04329628
0.04303481
0.04278037
0.04253288
0.04229221
0.04205818
0.04183054
0.04160901
0.04139328
0.04118298
0.04097772
0.04077709
0.04058063
0.0403879
0.04019841
0.04001171
0.03982729
0.0396447
0.03946344
0.03928308
0.03910314
0.03892326
0.03874302
0.03856215
0.03838035
0.03819745
0.03801323
0.0378275
0.03764011
0.0374508
0.03725926
0.03706527
0.03686874
0.03666966
0.03646804
0.03626394
0.03605749
0.03584883
0.03563816
0.0354257
0.03521171
0.03499648
0.03478032
0.03456356
0.03434654
0.03412964
0.03391322
0.03369766
0.03348332
0.03327057
0.03305977
0.03285124
0.03264532
0.03244229
0.0322424
0.03204587
0.0318529
0.03166367
0.03147836
0.03129721
0.03112055
0.03094887
0.03078282
0.03062317
0.03047054
0.03032513
0.03018674
0.03005503
0.02992972
0.02981054
0.02969721
0.02958947
0.02948703
0.02938961
0.02929692
0.02920872
0.0291248
0.02904496
0.02896899
0.02889669
0.02882784
0.02876221
0.02869955
0.02863962
0.02858218
0.02852696
0.02847371
0.02842217
0.0283721
0.02832326
0.02827547
0.02822853
0.02818227
0.02813656
0.02809125
0.02804621
0.02800134
0.0279566
0.02791198
0.02786741
0.02782286
0.0277784
0.02773417
0.02769035
0.02764713
0.02760466
0.02756308
0.02752252
0.02748307
0.02744485
0.02740797
0.02737251
0.02733855
0.02730616
0.02727543
0.0272464
0.02721914
0.02719368
0.02717005
0.02714828
0.02712839
0.02711036
0.02709419
0.02707985
0.02706731
0.02705652
0.02704742
0.02703995
0.02703403
0.02702959
0.02702654
0.0270248
0.02702427
0.02702486
0.02702649
0.02702905
0.02703247
0.02703664
0.02704148
0.0270469
0.0270528
0.02705909
0.02706567
0.02707243
0.0270793
0.02708621
0.02709316
0.02710015
0.0271072
0.02711429
0.0271214
0.02712854
0.0271357
0.02714291
0.02715021
0.02715761
0.02716512
0.02717279
0.02718064
0.02718872
0.02719707
0.0272057
0.02721464
0.02722389
0.02723347
0.02724336
0.02725358
0.0272641
0.02727492
0.02728602
0.02729737
0.02730897
0.02732079
0.0273328
0.02734499
0.02735733
0.02736982
0.02738243
0.02739518
0.02740803
0.02742091
0.02743378
0.02744661
0.02745939
0.0274721
0.02748473
0.02749726
0.02750971
0.02752208
0.02753437
0.02754657
0.02755868
0.02757069
0.02758259
0.02759439
0.02760607
0.02761764
0.0276291
0.02764043
0.02765166
0.02766276
0.0276737
0.02768443
0.02769494
0.02770526
0.02771539
0.0277254
0.02773551
0.02774573
0.02775611
0.0277667
0.02777754
0.02778869
0.02780017
0.027812
0.0278242
0.02783679
0.02784978
0.02786319
0.02787705
0.02789139
0.02790626
0.02792172
0.02793785
0.02795475
0.02797252
0.0279913
0.02801124
0.02803251
0.02805528
0.02807972
0.02810606
0.02813433
0.02816488
0.02819676
0.02822794
0.002886486
0.01051796
0.01509859
0.02053602
0.02674122
0.03395784
0.04231456
0.05160921
0.06211647
0.0748414
0.09371842
0.1052512