/*--------------------------------*- C++ -*----------------------------------*\
| =========                 |                                                 |
| \\      /  F ield         | foam-extend: Open Source CFD                    |
|  \\    /   O peration     | Version:     3.1                                |
|   \\  /    A nd           | Web:         http://www.extend-project.de       |
|    \\/     M anipulation  |                                                 |
\*---------------------------------------------------------------------------*/
FoamFile
{
    version     2.0;
    format      ascii;
    class       volScalarField;
    location    "5.5";
    object      omega;
}
// * * * * * * * * * * * * * * * * * * * * * * * * * * * * * * * * * * * * * //

dimensions      [0 0 -1 0 0 0 0];

internalField   nonuniform List<scalar> 
119952
(
164.9475
196.7769
183.5027
162.905
148.015
148.7422
152.2023
156.9648
162.3616
168.0225
173.6346
178.7175
183.354
187.7464
192.0804
196.5019
201.1209
206.0322
211.3749
217.6099
186.4975
185.5247
187.2402
160.7286
157.2007
155.4379
153.9008
152.4987
149.4065
193.6968
564.618
478.0721
403.3403
347.16
304.0712
270.308
243.1246
220.8157
202.1176
182.2573
160.8457
145.8537
135.3871
127.5181
121.1436
115.6313
110.6759
106.1146
102.041
83.56577
81.8337
79.90047
77.86387
75.82454
73.82923
71.90356
70.06268
68.30876
66.74384
65.3146
63.88369
62.49415
61.08776
59.61308
58.06045
56.42695
54.71355
52.84172
51.70222
50.35909
48.86981
47.57965
46.37005
45.2369
44.11628
43.02863
41.9857
40.98299
40.01881
39.09133
38.19819
37.33782
36.50894
35.71007
34.93903
34.18925
33.44641
32.69822
31.98741
31.31482
30.58015
29.89137
29.40708
28.94286
28.51753
28.30164
28.55466
29.06379
28.88893
28.58241
28.22833
27.86859
27.5138
27.17051
26.84174
26.52881
26.23242
25.95287
25.69028
25.44449
25.21507
25.00147
24.80312
24.61949
24.44999
24.29391
24.15051
24.01909
23.89903
23.78971
23.69069
23.60174
23.52258
23.45291
23.39237
23.34061
23.29731
23.26215
23.23484
23.21512
23.20277
23.19757
23.19937
23.20802
23.22342
23.24544
23.2737
23.30884
23.3504
23.39833
23.45272
23.51355
23.58072
23.65386
23.73167
23.808
23.8661
23.97733
24.15425
24.34089
24.52545
24.70252
24.87069
25.03028
25.18242
25.32862
25.4705
25.60958
25.7472
25.88453
26.02258
26.16224
26.30425
26.44924
26.59776
26.75031
26.9073
27.06912
27.23613
27.40873
27.58708
27.77137
27.96153
28.15835
28.36307
28.57511
28.79475
29.02233
29.25819
29.50272
29.75636
30.01955
30.29275
30.57644
30.87114
31.1774
31.4958
31.82699
32.1716
32.53033
32.90379
33.29273
33.69527
34.11072
34.53759
34.96727
35.32283
37.32076
41.07584
44.11131
46.51693
48.43912
49.9797
51.25615
52.35384
53.33353
54.23707
55.09388
55.92489
56.74535
57.56631
58.39585
59.24017
60.10479
60.99436
61.90679
62.84635
63.81737
64.82236
65.86275
66.93995
68.05589
69.21244
70.41146
71.65352
72.93991
74.27222
75.65019
77.07178
78.50826
79.96207
81.32013
81.44951
80.2922
79.24661
78.26191
77.31707
76.40212
75.511
74.63836
73.78089
72.93693
72.10602
71.28826
70.48409
69.69407
68.91889
68.15916
67.41539
66.68791
65.9768
65.28203
64.60353
63.94104
63.29411
62.66227
62.045
61.44168
60.85167
60.27425
59.70861
59.15396
58.60951
58.07436
57.54861
57.03508
56.53595
44.35204
44.14
43.82517
43.35018
42.83361
42.29473
41.74744
41.21162
40.69942
40.21594
39.76214
39.33717
38.93915
38.5649
38.21108
37.87449
37.55213
37.24136
36.93992
36.64591
36.3578
36.07441
35.79479
35.51825
35.24429
34.9726
34.70301
34.43543
34.16989
33.9064
33.64504
33.38589
33.12903
32.87458
32.62266
32.37342
32.127
31.88354
31.6432
31.40617
31.17274
30.94336
30.71895
30.50156
30.29549
30.10488
29.92835
29.75903
29.5952
29.43691
29.2837
29.13639
28.99544
28.86351
28.82495
28.69182
28.57284
28.45109
28.31448
28.16403
28.00092
27.82714
27.64599
27.46064
27.27394
27.08833
26.90572
26.72748
26.55452
26.3874
26.22638
26.07146
25.9224
25.77895
25.64094
25.50796
25.37939
25.25484
25.1339
25.01616
24.90121
24.78871
24.6783
24.56963
24.46246
24.35665
24.25199
24.1483
24.04538
23.94304
23.84117
23.73967
23.63844
23.53742
23.43652
23.3357
23.23492
23.13414
23.03337
22.9326
22.83186
22.73117
22.63055
22.53004
22.42969
22.32953
22.22958
22.12991
22.03059
21.93163
21.83308
21.73495
21.63726
21.53999
21.44311
21.34659
21.25036
21.15434
21.05845
20.96256
20.86658
20.77034
20.67371
20.5765
20.4785
20.37948
20.27912
20.17706
20.07279
19.96567
19.85473
19.73859
19.61489
19.47928
19.32243
19.12384
18.83917
18.42429
18.29764
559.792
459.2339
399.9567
359.0677
327.361
301.158
278.7648
259.2988
241.3821
204.3764
166.0767
141.7772
125.3731
113.5999
104.6575
97.5572
91.71773
86.76502
67.18264
64.31932
61.54681
58.89978
56.4291
54.16629
52.11247
50.25607
48.58004
47.05858
45.7203
44.50633
43.34864
42.25008
41.21337
40.24031
39.33314
38.49101
37.70982
37.17267
36.87155
36.51959
36.14743
35.777
35.41341
35.06171
34.72732
34.41563
34.13014
33.85946
33.60796
33.38587
33.18437
32.98369
32.78677
32.59439
32.40838
32.25081
28.49811
28.33915
28.20017
28.08884
28.0023
27.93303
27.87565
27.82738
27.78717
27.76421
27.74489
27.7173
27.68197
27.63915
27.58723
27.52565
27.45341
27.37436
27.29458
27.2366
27.15163
27.01347
26.86718
26.70878
26.52441
26.30848
26.06568
25.80222
25.52306
25.23255
24.93443
24.63186
24.32719
24.02188
23.71617
23.40979
23.1015
22.79009
22.47596
22.16549
21.85908
21.56419
21.29432
21.04691
20.81329
20.59698
20.39295
20.17743
19.91944
19.65036
19.392
19.13738
18.8859
18.63776
18.39344
18.15326
17.91742
17.68611
17.4597
17.23853
17.02293
16.81316
16.60942
16.41187
16.22057
16.03541
15.85605
15.68239
15.51466
15.35315
15.19798
15.04891
14.9057
14.76814
14.63598
14.50897
14.38685
14.26934
14.15618
14.04708
13.94177
13.83999
13.74148
13.64601
13.55335
13.46328
13.37563
13.29021
13.20687
13.12549
13.04594
12.96809
12.89182
12.81702
12.74353
12.6712
12.60001
12.53019
12.4623
12.39689
12.33414
12.27387
12.21599
12.16034
12.10677
12.0552
12.00553
11.95764
11.91145
11.86685
11.82378
11.78216
11.74193
11.70302
11.66539
11.62899
11.59377
11.55968
11.52668
11.49473
11.46379
11.43381
11.40476
11.3766
11.34928
11.32278
11.29706
11.27208
11.24783
11.22425
11.20134
11.17905
11.15738
11.13629
11.11572
11.09568
11.07615
11.05715
11.03865
11.02069
11.0032
10.98625
10.96969
10.95351
10.93723
10.92023
10.90128
10.86776
11.17102
11.53297
11.79597
11.98591
12.12335
12.2231
12.29599
12.34988
12.39043
12.42163
12.44637
12.46669
12.48402
12.49943
12.51363
12.52719
12.54049
12.55381
12.56738
12.58139
12.59597
12.61123
12.62727
12.64411
12.66179
12.68029
12.69954
12.71944
12.7398
12.76022
12.78007
12.79822
12.8124
12.8157
12.79941
12.76804
12.7269
12.68305
12.63759
12.59076
12.54327
12.4957
12.44848
12.40195
12.3564
12.31205
12.2691
12.22772
12.18801
12.15009
12.11403
12.07992
12.04779
12.01769
11.98963
11.96363
11.93967
11.91773
11.89779
11.87979
11.86369
11.8494
11.83684
11.82591
11.81649
11.80848
11.80178
11.79627
11.79188
11.79021
10.13312
10.0996
10.07649
10.05958
10.04612
10.03474
10.02485
10.01601
10.00772
9.999565
9.991196
9.982378
9.972934
9.962733
9.951683
9.939724
9.926819
9.912957
9.898145
9.882405
9.865771
9.848287
9.830003
9.810977
9.791269
9.770945
9.750073
9.728722
9.706959
9.68485
9.662457
9.63984
9.617055
9.59416
9.571207
9.548251
9.525342
9.502538
9.479896
9.457494
9.435424
9.413823
9.392865
9.372751
9.353593
9.33539
9.317912
9.300859
9.284173
9.26792
9.25212
9.236684
9.22171
9.20878
9.198065
9.185359
9.170703
9.155668
9.140946
9.126467
9.112147
9.097914
9.083685
9.069373
9.054899
9.040198
9.025215
9.009905
8.994239
8.978199
8.961779
8.944989
8.927848
8.910372
8.892575
8.87448
8.856119
8.837522
8.818717
8.799733
8.780597
8.761341
8.741992
8.722574
8.703105
8.683609
8.664104
8.644605
8.625122
8.605665
8.586241
8.566851
8.547496
8.52817
8.508867
8.489575
8.470283
8.450976
8.431643
8.412268
8.39284
8.373347
8.353778
8.334123
8.314372
8.294519
8.274559
8.254488
8.2343
8.213995
8.193572
8.173029
8.152366
8.131582
8.110677
8.089649
8.068495
8.047209
8.025785
8.004209
7.982469
7.960537
7.93839
7.91598
7.893268
7.870171
7.846624
7.822488
7.79764
7.771831
7.744804
7.716052
7.684957
7.65046
7.611351
7.566712
7.516789
7.467142
7.422869
604.4703
525.0547
460.9946
413.9119
378.1067
350.3255
328.389
311.1306
297.6835
280.6819
161.5901
147.994
136.2994
126.2879
118.2851
113.688
110.8087
108.0445
99.96852
67.81009
66.10692
65.10223
63.96612
62.79133
61.63335
60.44707
59.22747
57.95545
56.5147
54.39396
52.27646
50.45531
48.90921
47.55213
46.32018
45.1776
44.09879
43.06457
42.66699
41.90909
40.99358
40.01611
39.03357
38.07439
37.15185
36.27125
35.43514
34.64563
33.8951
33.17377
32.47856
31.80614
31.15513
30.52632
29.92066
29.34404
26.53586
26.07431
25.63868
25.22591
24.83322
24.45843
24.10001
23.75716
23.42954
23.11658
22.81722
22.53292
22.26445
22.01093
21.77181
21.54696
21.3364
21.14015
20.95832
20.79025
20.63686
20.49816
20.37328
20.26123
20.15661
20.05632
19.96077
19.87059
19.78919
19.72376
19.67119
19.63049
19.6019
19.58376
19.57478
19.57379
19.57664
19.56976
19.67159
19.77267
19.8596
19.93483
20.00275
20.06619
20.12555
20.18134
20.23347
20.28229
20.32647
20.3657
20.3999
20.43009
20.45556
20.47778
20.49562
20.51146
20.5238
20.53559
20.54558
20.53843
20.51616
20.48236
20.43603
20.37064
20.28442
20.17869
20.05558
19.91734
19.76623
19.60451
19.4344
19.25794
19.07691
18.89275
18.70664
18.51968
18.3332
18.14925
17.97075
17.79861
17.63799
17.49223
17.36179
17.23743
17.11905
16.99413
16.85304
16.69788
16.53915
16.37974
16.21878
16.05547
15.88972
15.72182
15.55212
15.38103
15.209
15.03658
14.86433
14.69286
14.52276
14.35459
14.18892
14.02632
13.86752
13.71286
13.56209
13.41538
13.2729
13.13473
13.00093
12.8715
12.74637
12.62545
12.50858
12.39559
12.28627
12.18041
12.07778
11.97812
11.88122
11.78682
11.69469
11.60463
11.51642
11.42987
11.34481
11.26108
11.17855
11.09708
11.01657
10.93693
10.85808
10.78
10.7027
10.62632
10.55103
10.47686
10.40369
10.33147
10.26026
10.19012
10.12113
10.05332
9.986736
9.921392
9.857308
9.794492
9.732949
9.672677
9.613666
9.5559
9.499354
9.44401
9.389831
9.336782
9.284818
9.233897
9.183984
9.135022
9.086961
9.039749
8.993338
8.947668
8.902689
8.858358
8.814611
8.7714
8.728694
8.686435
8.64459
8.603128
8.562044
8.521274
8.480813
8.440581
8.400612
8.360783
8.321197
8.281634
8.242316
8.202821
8.1636
8.123981
8.084864
8.045235
8.022278
7.990056
7.952089
7.910598
7.867267
7.823154
7.778927
7.735019
7.691685
7.649079
7.607291
7.566364
7.526319
7.487158
7.448877
7.411465
7.374908
7.33919
7.304295
7.270206
7.236902
7.204369
7.172575
7.141506
7.111106
7.081322
7.052073
7.02338
6.995268
6.967615
6.940226
6.912837
6.885064
6.856535
6.826992
6.796551
6.765833
6.735278
6.70496
6.674945
6.645313
6.61613
6.58745
6.559325
6.531797
6.504916
6.478714
6.453225
6.42848
6.404513
6.381356
6.35904
6.337596
6.317052
6.297435
6.278769
6.261072
6.244362
6.228652
6.21395
6.200256
6.187571
6.175882
6.165178
6.155434
6.146638
6.138749
6.131777
6.125617
6.118165
6.134513
6.14913
6.161777
6.172435
6.181562
6.189616
6.196865
6.203424
6.209328
6.214591
6.219223
6.223237
6.226642
6.229443
6.231643
6.233247
6.234259
6.234685
6.234536
6.233823
6.232564
6.230776
6.228481
6.225702
6.222467
6.218804
6.214744
6.210321
6.205566
6.200511
6.19519
6.189635
6.183878
6.177951
6.171885
6.165711
6.159461
6.153168
6.146868
6.1406
6.134408
6.128344
6.12246
6.116802
6.111399
6.106256
6.101326
6.096549
6.091861
6.087279
6.082763
6.078333
6.073914
6.069456
6.065024
6.060777
6.056771
6.052947
6.04914
6.045245
6.041246
6.037139
6.032925
6.028613
6.024204
6.019697
6.015085
6.01036
6.005517
6.000547
5.995447
5.990214
5.984843
5.979333
5.973678
5.967879
5.961933
5.955841
5.949604
5.943222
5.936698
5.930036
5.923241
5.916316
5.909268
5.902101
5.894822
5.887434
5.879944
5.872356
5.864677
5.856911
5.849061
5.841132
5.833124
5.825039
5.816875
5.808631
5.800306
5.791895
5.783395
5.774803
5.766114
5.757327
5.748438
5.739445
5.730346
5.721137
5.711817
5.702385
5.69284
5.683184
5.673415
5.663536
5.653546
5.643447
5.63324
5.622926
5.6125
5.601963
5.591306
5.580526
5.569605
5.558534
5.54728
5.535827
5.524111
5.512109
5.499705
5.486855
5.473346
5.459102
5.443748
5.427212
5.409005
5.389326
5.36779
5.345723
5.324353
375.8529
267.9396
387.5928
169.8662
131.3997
95.61931
81.70395
70.24373
61.08705
56.75793
55.019
54.01943
52.98505
52.02504
51.10959
50.29209
49.55453
48.91303
48.41626
48.0583
47.79367
47.66913
47.74924
47.9319
48.15002
48.37691
48.60411
48.82028
48.9808
49.01002
48.79996
47.58125
47.29964
46.89436
46.36437
45.73473
45.01288
44.20755
43.33176
42.40359
41.44218
40.45451
39.45123
38.44327
37.44272
36.45818
35.49522
34.55652
33.64547
32.76412
31.91292
31.0958
30.31053
29.55498
28.83126
28.13817
27.47474
26.84039
26.23432
25.65521
25.102
24.57358
24.06887
23.58674
23.12644
22.68694
22.26785
21.86357
21.50241
21.15453
20.82162
20.50339
20.19889
19.90766
19.62948
19.36431
19.11202
18.87241
18.6454
18.43108
18.22929
18.03967
17.86211
17.69656
17.543
17.40138
17.27145
17.15295
17.04527
16.94544
16.8493
16.75782
16.6759
16.6063
16.54817
16.50057
16.46256
16.43304
16.41199
16.3985
16.39235
16.39206
16.39746
16.40654
16.4201
16.43766
16.46244
16.49235
16.52397
16.556
16.58852
16.62156
16.65453
16.68686
16.71795
16.74757
16.77569
16.80245
16.82781
16.85205
16.87514
16.89742
16.91869
16.93911
16.95833
16.97634
16.99203
17.00157
17.00342
16.9975
16.98279
16.95718
16.91896
16.86759
16.80326
16.72651
16.63808
16.53895
16.43037
16.3138
16.19085
16.06312
15.9323
15.80002
15.66808
15.53826
15.41276
15.29316
15.18177
15.08
14.98778
14.90201
14.82021
14.73837
14.65251
14.56134
14.46748
14.3727
14.27659
14.17809
14.07643
13.97124
13.86234
13.74966
13.63323
13.51323
13.38998
13.26391
13.13554
13.00545
12.87428
12.7427
12.61141
12.48114
12.35275
12.22649
12.10228
11.98038
11.86113
11.74474
11.63139
11.52119
11.4142
11.31039
11.20971
11.11207
11.01731
10.92528
10.8358
10.74866
10.66366
10.58058
10.49922
10.41936
10.34083
10.26343
10.187
10.11139
10.03647
9.962137
9.888298
9.814905
9.741947
9.669456
9.597479
9.526028
9.455061
9.384557
9.314552
9.2451
9.176275
9.108123
9.040701
8.974078
8.908289
8.843382
8.779395
8.716361
8.6543
8.593236
8.533174
8.474131
8.416087
8.359032
8.302944
8.247799
8.193566
8.140207
8.087684
8.035953
7.984966
7.934673
7.88502
7.835964
7.78745
7.739427
7.691845
7.644654
7.597808
7.551258
7.504967
7.45889
7.413001
7.367255
7.321639
7.276099
7.230646
7.185211
7.139834
7.094416
7.049043
7.003604
6.958304
6.913099
6.868852
6.82491
6.780894
6.736672
6.692272
6.647734
6.603105
6.558456
6.513836
6.469315
6.42496
6.380834
6.336995
6.293493
6.250378
6.207712
6.165522
6.123844
6.082708
6.042135
6.00215
5.962788
5.924042
5.885923
5.84843
5.811572
5.775322
5.739668
5.704579
5.669997
5.635848
5.602053
5.568487
5.535046
5.501695
5.468508
5.435695
5.403452
5.371848
5.340895
5.310581
5.280907
5.251882
5.223512
5.195807
5.168788
5.142451
5.116803
5.091855
5.067625
5.044123
5.021363
4.999362
4.978136
4.9577
4.938067
4.919252
4.901266
4.884118
4.867816
4.852365
4.837761
4.82401
4.811098
4.799025
4.787764
4.777327
4.767668
4.75882
4.750621
4.743859
4.7383
4.733827
4.730261
4.72743
4.725185
4.723415
4.722031
4.720961
4.720141
4.719514
4.719031
4.718649
4.718329
4.718036
4.71774
4.717412
4.717028
4.716569
4.716018
4.715361
4.714589
4.713695
4.712674
4.711527
4.710256
4.708864
4.707359
4.705747
4.704038
4.702241
4.700369
4.698432
4.696443
4.694416
4.692363
4.6903
4.688241
4.686203
4.684203
4.682261
4.680396
4.678625
4.676964
4.675422
4.674001
4.672687
4.671455
4.670279
4.66915
4.668065
4.667022
4.666033
4.665119
4.664289
4.663501
4.662643
4.661699
4.660688
4.659636
4.65855
4.657425
4.656258
4.655049
4.653795
4.652492
4.651133
4.649715
4.648232
4.646679
4.645054
4.643352
4.641571
4.639709
4.637764
4.635732
4.633615
4.631409
4.629114
4.626729
4.624256
4.621692
4.61904
4.616299
4.613471
4.610557
4.607557
4.604475
4.601311
4.598067
4.594747
4.591351
4.587883
4.584344
4.580735
4.577058
4.573311
4.569495
4.565608
4.56165
4.557618
4.55351
4.549324
4.545059
4.540712
4.536282
4.531763
4.527151
4.522443
4.517637
4.512731
4.507726
4.502621
4.497419
4.492122
4.486732
4.481251
4.475681
4.470024
4.46428
4.458447
4.452524
4.446504
4.440382
4.434143
4.427775
4.421251
4.414551
4.407625
4.400438
4.39291
4.38499
4.376557
4.367567
4.357879
4.347531
4.336391
4.324852
4.313347
361.311
240.007
179.3684
160.5302
129.1819
107.9267
91.67624
85.00385
77.80157
73.40482
69.56866
64.69756
60.05062
55.76158
51.93801
47.94377
42.38529
40.99242
39.99767
39.46893
39.34513
39.4638
39.66429
39.89819
40.16148
40.45886
40.8046
41.18603
41.59528
42.02834
42.48319
42.95525
43.43555
43.91264
44.37343
44.80452
45.18447
45.49996
45.74416
45.91392
46.04933
45.98389
45.52496
45.0447
44.4304
43.69669
42.85811
41.93007
40.93115
39.88015
38.79766
37.70057
36.60346
35.51687
34.44899
33.40675
32.3962
31.42105
30.48332
29.58429
28.72455
27.90317
27.11891
26.37063
25.66048
24.98818
24.35167
23.74892
23.17809
22.63744
22.12505
21.63908
21.17786
20.73994
20.324
19.92886
19.55337
19.19646
18.85672
18.5336
18.2267
17.93588
17.66011
17.39829
17.14984
16.91429
16.69134
16.48073
16.28217
16.09543
15.92021
15.75628
15.60351
15.46178
15.33099
15.21101
15.10163
15.00242
14.91193
14.82563
14.74558
14.67559
14.61518
14.56395
14.52149
14.4874
14.46112
14.44205
14.42965
14.42358
14.42314
14.4278
14.43679
14.44967
14.46563
14.48448
14.50516
14.5269
14.5494
14.57192
14.59382
14.61485
14.63487
14.65367
14.67105
14.6869
14.70133
14.71457
14.72688
14.73849
14.74969
14.76074
14.77186
14.78311
14.79448
14.80574
14.81648
14.82583
14.83238
14.83497
14.83276
14.82478
14.80989
14.78693
14.7551
14.71401
14.6635
14.60365
14.53474
14.45732
14.3722
14.28043
14.18323
14.08199
13.9782
13.87353
13.76956
13.66804
13.57049
13.47834
13.39258
13.3134
13.23996
13.17093
13.10474
13.03964
12.97463
12.91006
12.84637
12.78323
12.71975
12.65503
12.58833
12.51904
12.44665
12.37077
12.2911
12.20753
12.12007
12.02886
11.93417
11.83638
11.73594
11.63339
11.52931
11.42434
11.31916
11.21462
11.11103
11.00835
10.90687
10.80697
10.70893
10.61299
10.51933
10.42807
10.33926
10.25289
10.16893
10.08729
10.00786
9.930486
9.855011
9.781256
9.709035
9.638159
9.568442
9.499704
9.431775
9.364502
9.297746
9.231394
9.165355
9.099569
9.034004
8.968647
8.903482
8.838487
8.773644
8.70897
8.644503
8.580294
8.516401
8.452873
8.389786
8.327207
8.265197
8.203808
8.143088
8.083087
8.023859
7.965424
7.907807
7.851025
7.795083
7.739984
7.685718
7.63227
7.579618
7.527734
7.476585
7.426132
7.376331
7.327138
7.278504
7.23038
7.182712
7.13545
7.088541
7.041935
6.995579
6.949427
6.903433
6.857555
6.811749
6.765983
6.720217
6.67443
6.628584
6.582673
6.536662
6.490567
6.444371
6.398124
6.351828
6.305532
6.259252
6.212998
6.166746
6.120488
6.074225
6.02797
5.981738
5.935554
5.889448
5.843453
5.797605
5.751942
5.706501
5.661315
5.616435
5.571892
5.527722
5.483959
5.440634
5.397778
5.355417
5.313572
5.272264
5.2315
5.191302
5.151669
5.112597
5.074075
5.036081
4.998586
4.961557
4.924959
4.88877
4.852992
4.817675
4.782916
4.748821
4.715437
4.682771
4.650809
4.619544
4.588976
4.559106
4.529934
4.501459
4.473679
4.446594
4.420201
4.394507
4.369518
4.345252
4.321711
4.298904
4.276841
4.255531
4.234983
4.215204
4.196204
4.177986
4.16055
4.143904
4.128053
4.112984
4.098697
4.085179
4.072427
4.060422
4.049153
4.038583
4.02873
4.019597
4.011177
4.003434
3.996323
3.989808
3.983859
3.978441
3.973519
3.969051
3.964995
3.961313
3.957965
3.954918
3.952138
3.949591
3.94725
3.945087
3.943076
3.941197
3.939428
3.937752
3.936155
3.934624
3.933147
3.931718
3.930331
3.92898
3.927663
3.926378
3.925126
3.923907
3.922724
3.921578
3.920474
3.919416
3.918408
3.917457
3.916568
3.915748
3.915004
3.914343
3.91377
3.913289
3.912903
3.912609
3.9124
3.912261
3.912182
3.912154
3.912174
3.912241
3.91235
3.912496
3.912663
3.912838
3.913013
3.913193
3.913372
3.913541
3.913687
3.913803
3.913886
3.913932
3.91394
3.913907
3.913828
3.913703
3.913527
3.913299
3.913017
3.912679
3.912285
3.911833
3.911323
3.910754
3.910125
3.909437
3.90869
3.907882
3.907013
3.906084
3.905095
3.904046
3.902937
3.901769
3.900542
3.899256
3.897914
3.896516
3.895066
3.89357
3.892029
3.890442
3.88881
3.887132
3.885407
3.883638
3.881823
3.879964
3.878062
3.876118
3.874132
3.872103
3.870021
3.867873
3.865652
3.863355
3.860979
3.858522
3.855982
3.853356
3.850642
3.847843
3.844959
3.841994
3.838951
3.835833
3.832642
3.829382
3.826053
3.822657
3.819191
3.815653
3.812037
3.808335
3.804536
3.800625
3.79658
3.792381
3.787993
3.783388
3.778517
3.773358
3.767853
3.762018
3.755782
3.749323
3.742852
185.7661
135.8669
211.9986
103.6968
89.20988
76.92559
73.05416
70.24446
67.08229
65.63132
63.6971
61.08242
58.61113
55.99504
53.0063
47.72724
46.2656
44.90928
43.63142
42.43793
41.28752
40.22934
39.31109
38.55534
37.97424
37.55779
37.21587
36.91657
36.80051
36.88704
37.1505
37.52275
37.93143
38.34817
38.78072
39.21418
39.64095
40.06267
40.48353
40.90703
41.33572
41.76771
42.1934
42.60235
42.98303
43.31808
43.57519
43.74278
43.79964
43.70928
43.4815
43.11888
42.55308
41.86061
41.01621
40.04356
38.97434
37.83777
36.6596
35.46235
34.26571
33.08561
31.93482
30.82225
29.7543
28.73455
27.76578
26.84849
25.98238
25.16637
24.39811
23.68032
23.0093
22.38205
21.79559
21.24402
20.7248
20.23568
19.77451
19.33927
18.928
18.53893
18.17047
17.82124
17.49003
17.17573
16.87734
16.59388
16.32459
16.06873
15.82569
15.59507
15.37629
15.16881
14.97229
14.78634
14.61073
14.4452
14.28958
14.14366
14.00727
13.8803
13.76268
13.65435
13.55523
13.46516
13.38373
13.30868
13.23839
13.17708
13.12435
13.07997
13.04354
13.01463
12.99282
12.97765
12.9686
12.9652
12.967
12.97352
12.98425
12.99868
13.01632
13.03664
13.05912
13.08314
13.10797
13.133
13.15771
13.18145
13.20362
13.22384
13.24193
13.25776
13.2713
13.28264
13.29196
13.29957
13.30582
13.3111
13.3158
13.32025
13.32474
13.32943
13.33432
13.33927
13.34396
13.34782
13.35009
13.34996
13.34665
13.33935
13.32733
13.30975
13.2859
13.25526
13.21747
13.17233
13.11982
13.0601
12.99355
12.92078
12.84259
12.75997
12.67406
12.58625
12.49773
12.40988
12.32396
12.24111
12.16219
12.08767
12.01765
11.95175
11.88952
11.83022
11.77338
11.71892
11.66687
11.61693
11.56849
11.52081
11.47312
11.42472
11.37495
11.3232
11.26893
11.2117
11.15119
11.0872
11.01964
10.94855
10.87409
10.7965
10.71612
10.63338
10.54878
10.46287
10.37623
10.28962
10.20331
10.11725
10.03176
9.947198
9.863877
9.782049
9.701914
9.623615
9.547238
9.47282
9.400353
9.329786
9.261036
9.19399
9.128513
9.064453
9.001646
8.939924
8.87912
8.819071
8.759626
8.700643
8.641999
8.583594
8.52535
8.467204
8.409107
8.351013
8.292894
8.234739
8.176564
8.118401
8.060293
8.002292
7.944447
7.886835
7.829533
7.772596
7.716087
7.66007
7.604602
7.549732
7.495504
7.441954
7.389108
7.336987
7.2856
7.234949
7.185029
7.135825
7.087318
7.03948
6.992278
6.945674
6.899624
6.854084
6.809003
6.764331
6.720013
6.675996
6.632226
6.58865
6.545214
6.501868
6.458564
6.415257
6.371902
6.328463
6.284903
6.241197
6.197317
6.153252
6.108992
6.064538
6.019893
5.975064
5.930068
5.884911
5.839589
5.794109
5.748485
5.702739
5.656894
5.610975
5.565012
5.519036
5.473081
5.427183
5.381378
5.335704
5.290199
5.244902
5.19985
5.15508
5.110629
5.06653
5.022815
4.979514
4.936653
4.894254
4.852336
4.810915
4.77
4.729595
4.689699
4.650309
4.611419
4.573026
4.535135
4.497765
4.460955
4.424763
4.389246
4.354437
4.32034
4.286949
4.254259
4.222269
4.190975
4.160376
4.130468
4.101246
4.072706
4.044844
4.017661
3.991156
3.965345
3.94023
3.915817
3.892114
3.869126
3.846861
3.825326
3.804528
3.784468
3.765152
3.746593
3.728782
3.711718
3.695397
3.679816
3.664969
3.650846
3.637438
3.62473
3.612715
3.601379
3.590702
3.580662
3.571239
3.562417
3.554176
3.546495
3.539347
3.532704
3.526537
3.520818
3.515521
3.510617
3.506081
3.501885
3.498004
3.494414
3.491092
3.488015
3.485162
3.482516
3.480059
3.477775
3.47565
3.473671
3.471829
3.470114
3.468518
3.467035
3.465658
3.464383
3.463207
3.462128
3.461142
3.46025
3.45945
3.458743
3.458129
3.457609
3.457183
3.456852
3.456617
3.456476
3.456427
3.456467
3.456588
3.456784
3.457045
3.457366
3.457741
3.458166
3.458634
3.459138
3.459674
3.460236
3.460817
3.461411
3.46201
3.462607
3.463197
3.463775
3.464338
3.464881
3.465401
3.465895
3.466358
3.466787
3.46718
3.467536
3.467853
3.46813
3.468367
3.468565
3.468723
3.468842
3.468922
3.468962
3.468963
3.468924
3.468845
3.468724
3.468565
3.468375
3.468159
3.467917
3.467647
3.467351
3.467026
3.46667
3.46628
3.465848
3.465372
3.46485
3.464281
3.463664
3.462998
3.462282
3.461517
3.460703
3.459839
3.458926
3.457963
3.456951
3.455898
3.454818
3.453715
3.452592
3.451448
3.450273
3.449034
3.44773
3.446359
3.444918
3.443406
3.441824
3.440174
3.438459
3.436682
3.434847
3.432957
3.431014
3.429018
3.426971
3.424869
3.422709
3.420487
3.418194
3.415821
3.413355
3.41078
3.408082
3.405237
3.402234
3.399045
3.395675
3.392085
3.388373
3.384654
77.57263
57.83509
55.06029
52.55273
51.73619
50.6024
49.66938
48.78509
47.93491
46.53548
43.36717
43.02062
42.66241
42.28536
41.86661
41.40481
40.95146
40.54148
40.1879
39.87098
39.4282
38.76827
38.13224
37.54118
36.99857
36.50804
36.08613
35.74619
35.48811
35.30818
35.19761
35.14744
35.17515
35.29232
35.51067
35.81192
36.15659
36.50539
36.87871
37.26335
37.64497
38.02062
38.40035
38.79041
39.19703
39.62336
40.06568
40.49726
40.8985
41.25802
41.54825
41.68926
41.69121
41.53165
41.18821
40.66601
39.96942
39.10649
38.09423
36.96634
35.75521
34.49309
33.20935
31.92889
30.672
29.45463
28.28815
27.1806
26.1363
25.15711
24.24261
23.39139
22.60075
21.86779
21.19218
20.5692
19.99445
19.46382
18.97209
18.51337
18.0844
17.68251
17.30531
16.95062
16.61647
16.30114
16.0031
15.72104
15.45383
15.20048
14.96012
14.73198
14.51538
14.30974
14.11453
13.92925
13.75348
13.58684
13.429
13.27967
13.13855
13.00544
12.88014
12.7625
12.65238
12.54968
12.45433
12.36631
12.28557
12.21205
12.14553
12.08437
12.02876
11.98099
11.94084
11.90799
11.88208
11.86271
11.84947
11.84196
11.83975
11.84238
11.84943
11.86047
11.87506
11.8928
11.91324
11.93596
11.96052
11.98644
12.01318
12.04021
12.06697
12.09289
12.11738
12.13994
12.16016
12.17782
12.19281
12.20513
12.21486
12.22224
12.22757
12.23126
12.2337
12.23533
12.23651
12.23754
12.23862
12.23981
12.24101
12.24205
12.24254
12.24196
12.23973
12.23522
12.22776
12.21681
12.20174
12.18195
12.15693
12.1263
12.08977
12.04717
11.9985
11.94389
11.88367
11.81834
11.74856
11.67516
11.59922
11.52159
11.44333
11.36549
11.28898
11.2146
11.14294
11.07448
11.00935
10.9477
10.88927
10.83395
10.78171
10.73254
10.68628
10.64255
10.60083
10.56055
10.52109
10.48183
10.44216
10.40148
10.35926
10.315
10.26832
10.21889
10.16651
10.11106
10.05254
9.99102
9.926691
9.859816
9.790736
9.719865
9.647667
9.574662
9.501491
9.428279
9.354979
9.281947
9.209509
9.137951
9.067519
8.998407
8.930759
8.864671
8.800189
8.737323
8.676039
8.616274
8.557934
8.500903
8.445053
8.390236
8.336305
8.283109
8.230507
8.178361
8.126544
8.074945
8.02347
7.972034
7.920568
7.869015
7.817342
7.765533
7.713595
7.661548
7.609426
7.557268
7.505135
7.453093
7.401202
7.349529
7.298143
7.24711
7.196492
7.146346
7.096724
7.04767
6.99922
6.951404
6.90424
6.857742
6.811911
6.766743
6.722225
6.678338
6.635055
6.592344
6.550166
6.508479
6.467236
6.426387
6.385879
6.345658
6.305667
6.26585
6.226152
6.186517
6.146892
6.107225
6.06747
6.027581
5.987519
5.94725
5.906746
5.865984
5.824948
5.783629
5.74202
5.700117
5.657914
5.615405
5.572594
5.529491
5.486113
5.442478
5.39861
5.354534
5.31028
5.265882
5.221373
5.176791
5.132175
5.087564
5.042999
4.998522
4.954172
4.909992
4.86602
4.822293
4.77885
4.735722
4.692941
4.650535
4.60853
4.566944
4.525797
4.485102
4.444871
4.405117
4.365853
4.327097
4.288875
4.251222
4.214177
4.177777
4.142047
4.106995
4.072621
4.038921
4.005896
3.973542
3.941858
3.910838
3.880478
3.850771
3.821711
3.793297
3.765529
3.738412
3.711952
3.686155
3.661024
3.636568
3.612791
3.589701
3.567305
3.545605
3.524613
3.504337
3.484774
3.465921
3.447777
3.43034
3.413607
3.397573
3.382234
3.367584
3.353617
3.340322
3.327689
3.315708
3.30437
3.293668
3.283599
3.274136
3.265248
3.256909
3.249097
3.241788
3.23496
3.228589
3.222652
3.217127
3.21199
3.20722
3.202792
3.198687
3.194884
3.191364
3.188107
3.185097
3.182318
3.179755
3.177394
3.175224
3.173232
3.17141
3.169747
3.168236
3.16687
3.165641
3.164546
3.163578
3.162734
3.162009
3.161401
3.160906
3.160521
3.160243
3.160069
3.159996
3.160019
3.160133
3.160332
3.160609
3.160957
3.16137
3.161842
3.162368
3.162942
3.163559
3.164213
3.1649
3.165612
3.166342
3.167085
3.167836
3.168591
3.169345
3.170095
3.170835
3.171563
3.172275
3.172968
3.173641
3.174291
3.174919
3.175522
3.176103
3.17666
3.177194
3.177706
3.178195
3.178661
3.179103
3.17953
3.179947
3.180356
3.180758
3.181149
3.18152
3.181865
3.182183
3.182471
3.182729
3.182955
3.183147
3.183302
3.183421
3.183502
3.183544
3.183546
3.183508
3.183427
3.183304
3.183138
3.182929
3.182676
3.182379
3.182037
3.181651
3.181223
3.180753
3.180246
3.179703
3.179129
3.17853
3.17794
3.177351
3.176745
3.176089
3.17538
3.174617
3.173799
3.172927
3.172003
3.17103
3.170012
3.168949
3.167846
3.166704
3.165522
3.164301
3.163038
3.161729
3.160371
3.158957
3.157478
3.155926
3.154291
3.152564
3.150732
3.148796
3.146728
3.144597
3.142446
102.2985
44.39962
36.92192
35.72752
35.27187
35.11242
35.2346
35.48116
35.8259
36.23507
36.5071
36.5137
36.49847
36.44252
36.36118
36.24942
36.12276
35.9849
35.82279
35.61414
35.34023
35.03294
34.73934
34.47899
34.25355
34.0652
33.91795
33.81602
33.74984
33.71508
33.70975
33.73251
33.78771
33.87714
34.01175
34.18666
34.38583
34.64981
34.94813
35.27486
35.63834
36.0355
36.46891
36.93301
37.42683
37.94406
38.48014
38.96657
39.36257
39.65367
39.79832
39.76016
39.52694
39.08735
38.43631
37.58711
36.56819
35.41797
34.15417
32.82223
31.46095
30.10283
28.77418
27.495
26.27955
25.13705
24.07219
23.08659
22.17899
21.34616
20.58397
19.88721
19.25262
18.6749
18.14814
17.66694
17.22348
16.81371
16.434
16.08092
15.75159
15.44363
15.15495
14.88373
14.62835
14.38747
14.15992
13.9447
13.74096
13.54796
13.36508
13.19174
13.02746
12.87178
12.7243
12.58461
12.45238
12.32726
12.20898
12.09727