/*--------------------------------*- C++ -*----------------------------------*\
| =========                 |                                                 |
| \\      /  F ield         | foam-extend: Open Source CFD                    |
|  \\    /   O peration     | Version:     3.1                                |
|   \\  /    A nd           | Web:         http://www.extend-project.de       |
|    \\/     M anipulation  |                                                 |
\*---------------------------------------------------------------------------*/
FoamFile
{
    version     2.0;
    format      ascii;
    class       volScalarField;
    location    "5.5";
    object      pd;
}
// * * * * * * * * * * * * * * * * * * * * * * * * * * * * * * * * * * * * * //

dimensions      [1 -1 -2 0 0 0 0];

internalField   nonuniform List<scalar> 
119952
(
9327.014
9237.823
9228.923
9261.038
9294.411
9294.269
9302.33
9311.014
9320.393
9329.863
9339.312
9348.448
9357.215
9365.604
9373.606
9381.204
9388.328
9394.733
9399.392
9397.691
9442.045
9424.632
9424.279
9478.309
9475.944
9488.049
9496.259
9512.973
9558.575
9678.483
7498.961
7539.169
7579.126
7626.533
7678.276
7730.168
7784.121
7840.022
7897.553
7946.562
8007.223
8067.356
8125.814
8184.08
8241.668
8298.643
8354.555
8409.299
8465.923
8546.679
8581.979
8622.358
8668.81
8713.113
8755.485
8796.859
8836.732
8874.781
8909.556
8941.03
8975.128
9007.104
9036.681
9065.721
9094.085
9121.877
9149.958
9182.8
9221.871
9226.963
9239.895
9263.935
9282.292
9293.986
9303.04
9312.669
9322.277
9331.671
9340.941
9349.96
9358.641
9366.96
9374.908
9382.486
9389.652
9396.379
9402.816
9409.72
9419.767
9428.755
9436.314
9454.458
9475.109
9483.396
9491.561
9498.01
9493.699
9465.744
9464.091
9471.922
9477.433
9482.691
9487.374
9491.529
9495.301
9498.772
9501.988
9504.968
9507.736
9510.315
9512.719
9514.964
9517.066
9519.038
9520.892
9522.642
9524.297
9525.869
9527.371
9528.797
9530.168
9531.489
9532.764
9533.997
9535.19
9536.346
9537.466
9538.549
9539.595
9540.602
9541.57
9542.497
9543.379
9544.213
9544.997
9545.727
9546.409
9547.032
9547.577
9548.065
9548.481
9548.82
9549.072
9549.222
9549.249
9549.2
9549.626
9550.553
9551.31
9551.02
9550.666
9550.374
9550.033
9549.641
9549.208
9548.726
9548.197
9547.622
9547.003
9546.341
9545.638
9544.895
9544.113
9543.293
9542.437
9541.545
9540.619
9539.66
9538.667
9537.642
9536.579
9535.498
9534.385
9533.27
9532.101
9530.886
9529.643
9528.372
9527.072
9525.742
9524.382
9522.993
9521.573
9520.122
9518.638
9517.12
9515.569
9513.983
9512.36
9510.696
9508.989
9507.229
9505.399
9503.466
9501.361
9499.047
9497.018
9498.142
9497.003
9494.895
9492.884
9490.886
9488.87
9486.832
9484.763
9482.661
9480.53
9478.369
9476.174
9473.948
9471.687
9469.391
9467.059
9464.691
9462.221
9459.754
9457.267
9454.724
9452.125
9449.461
9446.733
9443.924
9441.026
9438.02
9434.887
9431.599
9428.111
9424.353
9420.197
9415.478
9409.892
9401.983
9392.778
9398.715
9401.54
9403.097
9403.831
9404.16
9404.201
9404.016
9403.691
9403.261
9402.751
9402.177
9401.557
9400.905
9400.229
9399.539
9398.842
9398.144
9397.451
9396.767
9396.098
9395.448
9394.82
9394.218
9393.646
9393.108
9392.607
9392.146
9391.729
9391.362
9391.05
9390.812
9390.702
9390.536
9390.125
9406.73
9399.695
9388.887
9389.364
9390.044
9389.339
9388.985
9389.138
9389.398
9389.681
9390.036
9390.518
9391.096
9391.756
9392.5
9393.322
9394.216
9395.179
9396.21
9397.306
9398.465
9399.686
9400.969
9402.312
9403.714
9405.174
9406.691
9408.265
9409.894
9411.578
9413.316
9415.107
9416.951
9418.847
9420.796
9422.799
9424.858
9426.974
9429.152
9431.402
9433.735
9436.172
9438.753
9441.522
9444.407
9446.893
9448.405
9449.415
9450.679
9452.212
9453.856
9455.586
9457.179
9457.29
9452.296
9458.473
9461.719
9462.972
9464.623
9466.24
9467.728
9469.223
9470.725
9472.22
9473.7
9475.157
9476.583
9477.972
9479.324
9480.635
9481.9
9483.116
9484.279
9485.386
9486.437
9487.429
9488.357
9489.223
9490.025
9490.762
9491.432
9492.034
9492.568
9493.035
9493.432
9493.759
9494.016
9494.188
9494.319
9494.365
9494.339
9494.24
9494.07
9493.829
9493.517
9493.133
9492.68
9492.155
9491.561
9490.898
9490.165
9489.363
9488.493
9487.556
9486.55
9485.476
9484.334
9483.133
9481.858
9480.519
9479.114
9477.641
9476.101
9474.492
9472.813
9471.063
9469.238
9467.336
9465.353
9463.282
9461.118
9458.853
9456.474
9453.97
9451.322
9448.508
9445.501
9442.263
9438.746
9434.88
9430.575
9425.701
9420.063
9413.318
9404.929
9394.459
9384.374
9390.252
9440.447
8516.179
8435.835
8339.235
8247.958
8160.647
8076.878
7997.206
7921.623
7852.041
7773.247
7713.772
7656.125
7602.129
7551.34
7505.506
7463.927
7427.282
7391.648
7359.513
7343.281
7314.689
7290.448
7274.555
7263.362
7255.896
7252.472
7252.516
7256.785
7265.926
7270.142
7285.839
7306.27
7329.146
7355.582
7385.84
7418.902
7456.395
7500.425
7534.828
7576.362
7626.777
7678.863
7731.899
7786.722
7843.103
7900.602
7957.967
8016.86
8076.774
8135.322
8192.82
8249.686
8306.361
8362.279
8416.705
8469.08
8544.371
8597.1
8638.637
8679.264
8721.738
8764.842
8806.756
8846.592
8884.318
8920.063
8953.494
8985.108
9015.819
9045.95
9075.357
9104.044
9132.218
9159.908
9186.81
9211.638
9231.69
9248.241
9264.697
9280.613
9294.446
9306.015
9316.244
9325.996
9335.585
9344.973
9354.048
9362.744
9371.056
9379.016
9386.66
9394.067
9401.373
9408.826
9416.798
9425.638
9435.285
9445.779
9457.561
9469.603
9478.842
9484.314
9485.868
9483.319
9477.195
9474.546
9476.89
9481.311
9485.89
9489.989
9493.655
9497.062
9500.288
9503.33
9506.175
9508.819
9511.279
9513.576
9515.723
9517.735
9519.621
9521.394
9523.067
9524.643
9526.141
9527.558
9528.939
9530.258
9531.527
9532.752
9533.937
9535.086
9536.2
9537.28
9538.326
9539.337
9540.312
9541.25
9542.147
9543.002
9543.811
9544.572
9545.281
9545.936
9546.534
9547.071
9547.542
9547.944
9548.277
9548.54
9548.744
9548.911
9549.09
9549.344
9549.686
9549.97
9550.009
9549.834
9549.555
9549.226
9548.856
9548.439
9547.97
9547.448
9546.876
9546.257
9545.594
9544.889
9544.144
9543.359
9542.536
9541.676
9540.781
9539.852
9538.889
9537.892
9536.864
9535.804
9534.713
9533.592
9532.443
9531.265
9530.056
9528.817
9527.545
9526.241
9524.906
9523.54
9522.144
9520.721
9519.265
9517.777
9516.254
9514.699
9513.105
9511.48
9509.809
9508.106
9506.348
9504.567
9502.735
9500.932
9499.115
9497.329
9497.779
9496.141
9493.983
9492.035
9490.068
9488.053
9486.014
9483.941
9481.834
9479.695
9477.527
9475.328
9473.096
9470.832
9468.531
9466.193
9463.815
9461.396
9458.941
9456.441
9453.889
9451.281
9448.614
9445.88
9443.073
9440.178
9437.177
9434.049
9430.776
9427.33
9423.648
9419.661
9415.293
9410.571
9405.788
9402.265
9401.827
9403.2
9403.88
9404.174
9404.27
9404.161
9403.89
9403.502
9403.026
9402.479
9401.878
9401.236
9400.565
9399.875
9399.173
9398.465
9397.759
9397.06
9396.372
9395.7
9395.048
9394.42
9393.82
9393.251
9392.716
9392.219
9391.763
9391.352
9390.993
9390.689
9390.451
9390.274
9390.227
9391.351
9392.097
9394.204
9393.548
9391.38
9389.642
9388.895
9388.823
9389.017
9389.277
9389.578
9389.957
9390.441
9391.032
9391.717
9392.483
9393.324
9394.235
9395.216
9396.264
9397.379
9398.558
9399.799
9401.102
9402.465
9403.887
9405.368
9406.905
9408.499
9410.147
9411.85
9413.605
9415.414
9417.274
9419.186
9421.149
9423.164
9425.232
9427.355
9429.535
9431.778
9434.088
9436.463
9438.891
9441.32
9443.66
9445.797
9447.625
9449.176
9450.672
9452.24
9453.869
9455.478
9456.939
9457.822
9457.664
9458.144
9460.421
9463.118
9465.164
9466.839
9468.397
9469.911
9471.406
9472.893
9474.364
9475.807
9477.212
9478.579
9479.906
9481.191
9482.431
9483.625
9484.769
9485.859
9486.888
9487.861
9488.772
9489.622
9490.409
9491.131
9491.786
9492.375
9492.896
9493.348
9493.729
9494.042
9494.285
9494.457
9494.561
9494.593
9494.552
9494.439
9494.253
9493.996
9493.669
9493.27
9492.801
9492.261
9491.651
9490.971
9490.222
9489.404
9488.518
9487.562
9486.539
9485.449
9484.293
9483.07
9481.78
9480.424
9479.001
9477.512
9475.955
9474.33
9472.636
9470.87
9469.031
9467.114
9465.118
9463.036
9460.862
9458.587
9456.204
9453.698
9451.056
9448.255
9445.277
9442.081
9438.645
9434.896
9430.808
9426.276
9421.326
9415.973
9410.773
9406.65
9405.429
9407.531
9413.799
5325.193
5395.864
5488.67
5598.085
5722.542
5861.618
6014.967
6182.952
6365.396
6558.533
6766.757
6986.574
7214.178
7447.759
7685.217
7920.97
8150.119
8369.136
8576.692
8782.789
8944.939
9083.705
9196.556
9282.566
9341.713
9374.673
9382.986
9369.011
9337.086
9286.101
9222.184
9146.374
9062.101
8971.758
8877.325
8780.39
8682.821
8586.327
8484.419
8390.539
8298.832
8209.525
8124.21
8042.402
7964.535
7890.973
7822.191
7756.599
7693.468
7636.393
7583.7
7534.65
7489.743
7449.081
7412.814
7385.064
7336.392
7310.249
7292.17
7276.821
7263.291
7252.541
7245.534
7242.555
7243.538
7247.936
7255.99
7268.813
7285.059
7304.378
7327.274
7354.105
7384.798
7419.242
7456.984
7497.78
7541.63
7586.994
7634.486
7684.913
7738.111
7793.5
7850.292
7908.122
7966.596
8025.321
8083.887
8142.638
8201.24
8259.224
8316.033
8372.041
8426.807
8481.773
8537.5
8587.545
8632.628
8676.263
8720.063
8763.572
8805.674
8845.704
8883.536
8919.353
8953.466
8986.218
9017.794
9048.318
9077.794
9106.327
9133.778
9160.189
9185.217
9208.753
9229.752
9247.45
9263.596
9279.147
9293.499
9306.049
9317.131
9327.436
9337.364
9346.98
9356.225
9365.056
9373.489
9381.584
9389.414
9397.075
9404.68
9412.392
9420.388
9428.877
9437.918
9447.349
9457.137
9466.754
9474.728
9479.878
9482.351
9482.167
9480.359
9479.268
9480.734
9484.197
9488.193
9491.937
9495.336
9498.522
9501.571
9504.476
9507.206
9509.751
9512.121
9514.334
9516.404
9518.341
9520.158
9521.867
9523.476
9525.003
9526.448
9527.821
9529.139
9530.405
9531.623
9532.8
9533.94
9535.046
9536.12
9537.164
9538.176
9539.157
9540.105
9541.018
9541.894
9542.731
9543.525
9544.273
9544.973
9545.62
9546.213
9546.747
9547.221
9547.633
9547.983
9548.275
9548.517
9548.723
9548.916
9549.117
9549.319
9549.459
9549.455
9549.305
9549.06
9548.758
9548.406
9548.002
9547.542
9547.028
9546.463
9545.851
9545.192
9544.491
9543.748
9542.966
9542.145
9541.287
9540.394
9539.466
9538.505
9537.511
9536.485
9535.428
9534.34
9533.222
9532.075
9530.895
9529.684
9528.444
9527.173
9525.874
9524.545
9523.186
9521.794
9520.368
9518.909
9517.42
9515.899
9514.347
9512.761
9511.142
9509.489
9507.802
9506.084
9504.337
9502.58
9500.828
9499.172
9497.679
9496.508
9495.023
9493.095
9491.031
9488.999
9486.995
9484.971
9482.906
9480.8
9478.66
9476.489
9474.285
9472.048
9469.777
9467.469
9465.125
9462.741
9460.318
9457.853
9455.344
9452.785
9450.173
9447.503
9444.768
9441.962
9439.075
9436.099
9433.027
9429.853
9426.541
9423.08
9419.484
9415.812
9412.232
9409.064
9406.747
9405.553
9405.231
9405.174
9405.04
9404.762
9404.373
9403.906
9403.377
9402.793
9402.161
9401.492
9400.795
9400.079
9399.351
9398.618
9397.885
9397.158
9396.441
9395.739
9395.056
9394.395
9393.761
9393.156
9392.585
9392.049
9391.553
9391.098
9390.691
9390.329
9390.025
9389.77
9389.589
9389.457
9389.409
9388.937
9387.591
9386.532
9386.223
9386.433
9386.844
9387.301
9387.763
9388.23
9388.716
9389.246
9389.839
9390.507
9391.246
9392.053
9392.926
9393.864
9394.866
9395.934
9397.065
9398.258
9399.513
9400.828
9402.203
9403.636
9405.127
9406.674
9408.276
9409.932
9411.642
9413.405
9415.219
9417.083
9418.998
9420.963
9422.976
9425.039
9427.152
9429.315
9431.527
9433.783
9436.073
9438.375
9440.653
9442.867
9444.97
9446.903
9448.65
9450.279
9451.905
9453.554
9455.228
9456.9
9458.742
9461.173
9463.321
9464.738
9465.774
9466.838
9468.037
9469.321
9470.648
9472.009
9473.399
9474.799
9476.19
9477.56
9478.902
9480.212
9481.486
9482.72
9483.908
9485.047
9486.131
9487.16
9488.131
9489.044
9489.895
9490.685
9491.41
9492.07
9492.663
9493.187
9493.642
9494.028
9494.345
9494.593
9494.771
9494.88
9494.918
9494.88
9494.769
9494.586
9494.332
9494.007
9493.61
9493.143
9492.604
9491.996
9491.317
9490.569
9489.751
9488.864
9487.908
9486.883
9485.791
9484.633
9483.409
9482.118
9480.761
9479.337
9477.846
9476.288
9474.663
9472.969
9471.205
9469.37
9467.46
9465.472
9463.402
9461.244
9458.992
9456.638
9454.173
9451.583
9448.854
9445.969
9442.908
9439.648
9436.166
9432.449
9428.512
9424.425
9420.384
9416.692
9413.791
9412.03
9412.112
9414.28
5093.246
5068.362
5053.121
5041.238
5036.511
5047.563
5071.814
5115.169
5173.952
5210.403
5226.606
5260.139
5316.005
5390.981
5483.332
5591.195
5712.986
5849.011
5999.328
6161.924
6338.445
6528.313
6730.135
6943.249
7166.119
7394.769
7627.107
7859.715
8088.586
8308.511
8515.953
8746.684
8912.11
9047.946
9157.044
9238.786
9293.264
9321.578
9325.715
9308.26
9272.149
9219.995
9154.219
9077.589
8993.012
8902.848
8808.91
8712.878
8616.243
8520.09
8425.382
8333.008
8243.322
8156.943
8074.162
7994.973
7919.657
7848.437
7781.295
7718.117
7658.895
7603.615
7552.444
7505.393
7462.386
7423.258
7387.881
7355.678
7325.304
7300.4
7281.093
7264.58
7250.399
7239.491
7232.501
7229.6
7230.534
7235.311
7243.995
7256.155
7271.831
7291.258
7314.535
7341.64
7372.536
7406.992
7444.862
7485.915
7529.452
7575.343
7623.66
7674.957
7728.778
7784.403
7841.551
7899.775
7958.552
8017.734
8077.369
8136.847
8195.891
8254.166
8311.814
8368.381
8424.542
8478.868
8531.3
8581.826
8629.82
8675.674
8720.153
8763.452
8805.238
8845.168
8883.141
8919.302
8953.865
8986.967
9018.669
9049.112
9078.385
9106.545
9133.531
9159.322
9183.752
9206.625
9227.472
9245.991
9262.772
9278.429
9292.939
9306.057
9317.883
9328.793
9339.113
9348.984
9358.422
9367.429
9376.034
9384.303
9392.311
9400.146
9407.9
9415.688
9423.627
9431.822
9440.293
9448.911
9457.462
9465.554
9472.46
9477.51
9480.616
9482.037
9482.396
9482.785
9484.356
9487.212
9490.654
9494.075
9497.279
9500.302
9503.198
9505.967
9508.583
9511.031
9513.316
9515.45
9517.445
9519.312
9521.06
9522.702
9524.246
9525.705
9527.086
9528.397
9529.654
9530.858
9532.022
9533.149
9534.243
9535.306
9536.34
9537.346
9538.324
9539.274
9540.195
9541.083
9541.938
9542.756
9543.534
9544.268
9544.957
9545.596
9546.182
9546.714
9547.188
9547.605
9547.963
9548.267
9548.521
9548.735
9548.917
9549.076
9549.204
9549.276
9549.255
9549.125
9548.904
9548.613
9548.264
9547.858
9547.396
9546.881
9546.314
9545.7
9545.039
9544.336
9543.592
9542.808
9541.985
9541.127
9540.233
9539.305
9538.343
9537.349
9536.323
9535.265
9534.177
9533.059
9531.911
9530.731
9529.522
9528.283
9527.013
9525.714
9524.384
9523.022
9521.629
9520.203
9518.747
9517.261
9515.743
9514.193
9512.611
9510.997
9509.352
9507.678
9505.976
9504.258
9502.53
9500.824
9499.147
9497.525
9495.814
9494.037
9492.238
9490.393
9488.494
9486.547
9484.55
9482.505
9480.416
9478.287
9476.123
9473.925
9471.691
9469.421
9467.116
9464.774
9462.393
9459.974
9457.514
9455.011
9452.461
9449.862
9447.21
9444.501
9441.73
9438.892
9435.984
9432.998
9429.928
9426.77
9423.54
9420.278
9417.058
9414.003
9411.284
9409.081
9407.559
9406.688
9406.177
9405.715
9405.189
9404.608
9403.993
9403.348
9402.672
9401.964
9401.231
9400.482
9399.721
9398.955
9398.188
9397.424
9396.67
9395.929
9395.204
9394.501
9393.822
9393.171
9392.551
9391.965
9391.416
9390.907
9390.44
9390.019
9389.643
9389.318
9389.038
9388.804
9388.576
9388.298
9387.942
9387.745
9387.754
9387.798
9387.777
9387.758
9387.834
9388.031
9388.33
9388.71
9389.165
9389.701
9390.321
9391.024
9391.804
9392.657
9393.581
9394.575
9395.637
9396.766
9397.959
9399.216
9400.534
9401.913
9403.352
9404.848
9406.401
9408.01
9409.673
9411.389
9413.157
9414.976
9416.845
9418.763
9420.728
9422.739
9424.796
9426.897
9429.039
9431.219
9433.427
9435.653
9437.878
9440.081
9442.237
9444.316
9446.281
9448.119
9449.859
9451.568
9453.285
9455.022
9456.775
9458.497
9460.126
9461.488
9462.773
9464.213
9465.786
9467.379
9468.933
9470.452
9471.95
9473.435
9474.9
9476.338
9477.743
9479.112
9480.442
9481.732
9482.977
9484.174
9485.32
9486.412
9487.448
9488.426
9489.345
9490.203
9490.999
9491.731
9492.398
9492.998
9493.527
9493.986
9494.376
9494.697
9494.948
9495.131
9495.247
9495.297
9495.259
9495.149
9494.968
9494.717
9494.394
9494
9493.534
9492.998
9492.39
9491.713
9490.965
9490.148
9489.261
9488.304
9487.275
9486.181
9485.022
9483.799
9482.509
9481.153
9479.729
9478.24
9476.685
9475.063
9473.374
9471.617
9469.79
9467.892
9465.919
9463.869
9461.737
9459.519
9457.209
9454.799
9452.282
9449.649
9446.888
9443.992
9440.952
9437.769
9434.459
9431.064
9427.672
9424.421
9421.502
9419.101
9417.506
9416.942
9417.439
5618.738
5563.829
5515.397
5463.685
5408.8
5352.964
5302.469
5253.939
5209.358
5168.491
5131.62
5099.214
5072.252
5051.266
5037.546
5031.789
5037.92
5053.84
5079.659
5111.116
5143.802
5182.703
5233.745
5300.039
5380.635
5474.061
5581.762
5703.357
5838.833
5988.108
6151.115
6327.634
6517.106
6719.073
6932.163
7154.566
7383.943
7616.72
7849.085
8077.177
8295.711
8501.548
8680.983
8843.984
8980.751
9090.288
9172.313
9227.187
9256.106
9261.059
9244.609
9209.61
9158.913
9095.139
9020.87
8938.683
8850.91
8759.424
8665.879
8571.588
8477.737
8384.966
8293.821
8205.55
8120.739
8039.369
7961.763
7888.156
7818.587
7753.055
7691.49
7633.769
7579.96
7530.129
7484.254
7442.134
7403.703
7368.607
7337.022
7309.069
7284.878
7264.572
7247.587
7233.708
7223.261
7216.546
7213.666
7214.554
7219.217
7227.551
7239.414
7255.004
7274.481
7297.82
7324.918
7355.692
7390.011
7427.785
7468.906
7512.221
7558.646
7608.142
7660.098
7714.267
7770.355
7828.034
7886.869
7946.497
8006.66
8067.111
8127.387
8187.274
8246.512
8305.036
8362.472
8418.785
8473.312
8526.188
8577.505
8626.738
8673.681
8718.694
8762.127
8803.997
8844.143
8882.468
8919.015
8953.897
8987.222
9019.087
9049.611
9078.868
9106.894
9133.661
9159.123
9183.17
9205.651
9226.401
9245.311
9262.551
9278.45
9293.168
9306.693
9319.072
9330.502
9341.216
9351.369
9361.029
9370.231
9379.015
9387.444
9395.59
9403.532
9411.349
9419.123
9426.928
9434.81
9442.754
9450.651
9458.301
9465.427
9471.648
9476.599
9480.171
9482.561
9484.171
9485.613
9487.537
9490.169
9493.254
9496.418
9499.46
9502.352
9505.115
9507.756
9510.259
9512.609
9514.806
9516.856
9518.771
9520.56
9522.234
9523.801
9525.272
9526.659
9527.971
9529.222
9530.416
9531.561
9532.664
9533.729
9534.766
9535.777
9536.763
9537.724
9538.66
9539.572
9540.458
9541.315
9542.141
9542.934
9543.689
9544.405
9545.077
9545.703
9546.28
9546.804
9547.275
9547.69
9548.05
9548.358
9548.614
9548.825
9548.994
9549.125
9549.213
9549.244
9549.198
9549.063
9548.844
9548.553
9548.201
9547.791
9547.326
9546.809
9546.24
9545.623
9544.961
9544.256
9543.51
9542.724
9541.901
9541.041
9540.146
9539.218
9538.256
9537.261
9536.235
9535.179
9534.091
9532.974
9531.826
9530.649
9529.441
9528.203
9526.936
9525.637
9524.309
9522.949
9521.558
9520.136
9518.684
9517.2
9515.685
9514.14
9512.563
9510.956
9509.32
9507.658
9505.972
9504.271
9502.558
9500.848
9499.136
9497.424
9495.689
9493.95
9492.173
9490.323
9488.403
9486.431
9484.419
9482.368
9480.277
9478.15
9475.987
9473.79
9471.558
9469.291
9466.99
9464.652
9462.277
9459.865
9457.413
9454.921
9452.385
9449.805
9447.176
9444.498
9441.767
9438.981
9436.139
9433.24
9430.287
9427.291
9424.273
9421.274
9418.354
9415.598
9413.113
9411.008
9409.371
9408.19
9407.311
9406.548
9405.8
9405.047
9404.292
9403.53
9402.757
9401.97
9401.166
9400.355
9399.545
9398.736
9397.931
9397.133
9396.347
9395.577
9394.826
9394.098
9393.396
9392.723
9392.082
9391.477
9390.909
9390.382
9389.897
9389.455
9389.058
9388.706
9388.395
9388.118
9387.862
9387.63
9387.463
9387.372
9387.282
9387.129
9386.998
9386.981
9387.107
9387.356
9387.7
9388.12
9388.611
9389.177
9389.819
9390.539
9391.333
9392.2
9393.137
9394.143
9395.216
9396.355
9397.558
9398.825
9400.153
9401.542
9402.99
9404.497
9406.06
9407.678
9409.35
9411.075
9412.851
9414.677
9416.552
9418.473
9420.44
9422.451
9424.502
9426.592
9428.717
9430.87
9433.045
9435.229
9437.411
9439.572
9441.695
9443.757
9445.74
9447.636
9449.461
9451.248
9453.025
9454.794
9456.542
9458.229
9459.868
9461.509
9463.145
9464.759
9466.331
9467.861
9469.364
9470.852
9472.329
9473.797
9475.25
9476.681
9478.083
9479.453
9480.785
9482.076
9483.323
9484.522
9485.672
9486.768
9487.809
9488.793
9489.717
9490.581
9491.383
9492.122
9492.797
9493.411
9493.941
9494.404
9494.801
9495.128
9495.386
9495.574
9495.7
9495.79
9495.732
9495.616
9495.435
9495.184
9494.863
9494.47
9494.006
9493.47
9492.864
9492.188
9491.442
9490.628
9489.746
9488.795
9487.756
9486.657
9485.495
9484.27
9482.979
9481.621
9480.195
9478.707
9477.156
9475.539
9473.857
9472.108
9470.293
9468.41
9466.458
9464.433
9462.334
9460.158
9457.9
9455.557
9453.124
9450.598
9447.974
9445.253
9442.439
9439.544
9436.595
9433.641
9430.753
9428.036
9425.607
9423.621
9422.213
9421.503
9421.383
6184.375
6118.699
6057.768
5999.625
5946.66
5885.91
5833.45
5781.172
5728.812
5675.729
5623.105
5571.066
5517.723
5465.001
5411.11
5351.235
5300.729
5252.894
5208.102
5166.652
5129.046
5095.996
5067.641
5044.475
5027.893
5019.209
5017.639
5026.338
5043.269
5067.405
5098.695
5139.821
5192.923
5259.483
5339.737
5432.823
5538.436
5656.942
5788.649
5934.067
6093.406
6266.35
6452.462
6651.032
6860.744
7079.822
7306.044
7536.179
7767.114
7993.716
8211.77
8416.314
8599.193
8760.267
8896.027
9004.51
9085.405
9139.387
9167.891
9173.025
9157.373
9123.756
9075.021
9013.827
8942.689
8863.941
8779.763
8691.968
8602.15
8511.483
8421.075
8331.753
8244.173
8159.011
8076.578
7997.318
7921.95
7850.611
7783.214
7719.705
7660.046
7604.184
7552.121
7503.83
7459.257
7418.259
7380.768
7346.658
7316.058
7288.905
7265.007
7244.505
7227.469
7213.812
7203.552
7196.812
7193.71
7194.297
7198.582
7206.545
7218.215
7233.694
7253.035
7276.207
7303.131
7333.74
7367.918
7405.505
7446.211
7490.875
7538.251
7588.339
7640.906
7695.757
7752.63
7811.177
7870.999
7931.741
7993.042
8054.586
8116.022
8177.09
8237.499
8297.037
8355.4
8412.409
8467.835
8521.596
8573.581
8623.512
8671.251
8716.966
8760.902
8803.143
8843.628
8882.296
8919.165
8954.32
8987.869
9019.911
9050.535
9079.799
9107.734
9134.33
9159.553
9183.342
9205.621
9226.326
9245.421
9262.972
9279.161
9294.153
9308.021
9320.823
9332.681
9343.76
9354.199
9364.088
9373.48
9382.428
9390.991
9399.239
9407.24
9415.06
9422.76
9430.386
9437.954
9445.44
9452.756
9459.757
9466.254
9472.028
9476.878
9480.733
9483.713
9486.087
9488.221
9490.494
9493.105
9495.993
9498.962
9501.857
9504.627
9507.271
9509.793
9512.185
9514.436
9516.541
9518.506
9520.339
9522.049
9523.646
9525.138
9526.536
9527.851
9529.094
9530.273
9531.397
9532.476
9533.515
9534.521
9535.497
9536.446
9537.376
9538.286
9539.175
9540.041
9540.885
9541.704
9542.495
9543.257
9543.985
9544.676
9545.326
9545.934
9546.495
9547.007
9547.469
9547.879
9548.235
9548.539
9548.789
9548.989
9549.144
9549.253
9549.311
9549.31
9549.24
9549.092
9548.868
9548.575
9548.219
9547.806
9547.338
9546.817
9546.246
9545.626
9544.962
9544.254
9543.505
9542.718
9541.893
9541.032
9540.136
9539.208
9538.245
9537.25
9536.224
9535.168
9534.082
9532.966
9531.82
9530.644
9529.438
9528.203
9526.937
9525.641
9524.315
9522.958
9521.571
9520.153
9518.704
9517.225
9515.715
9514.174
9512.604
9511.004
9509.377
9507.725
9506.05
9504.357
9502.649
9500.932
9499.205
9497.471
9495.726
9493.958
9492.145
9490.272
9488.343
9486.371
9484.361
9482.314
9480.229
9478.106
9475.949
9473.756
9471.529
9469.268
9466.971
9464.64
9462.273
9459.87
9457.429
9454.95
9452.431
9449.872
9447.271
9444.626
9441.938
9439.207
9436.435
9433.625
9430.786
9427.933
9425.087
9422.285
9419.575
9417.019
9414.687
9412.647
9410.94
9409.557
9408.419
9407.42
9406.485
9405.579
9404.693
9403.818
9402.948
9402.078
9401.205
9400.322
9399.45
9398.596
9397.75
9396.914
9396.092
9395.289
9394.508
9393.751
9393.021
9392.322
9391.656
9391.027
9390.436
9389.886
9389.378
9388.913
9388.491
9388.113
9387.776
9387.478
9387.22
9387.003
9386.83
9386.679
9386.529
9386.401
9386.352
9386.414
9386.585
9386.85
9387.196
9387.617
9388.111
9388.681
9389.328
9390.05
9390.848
9391.718
9392.659
9393.67
9394.749
9395.894
9397.105
9398.38
9399.717
9401.115
9402.573
9404.089
9405.662
9407.291
9408.973
9410.707
9412.493
9414.327
9416.209
9418.136
9420.106
9422.117
9424.165
9426.248
9428.361
9430.498
9432.651
9434.81
9436.966
9439.103
9441.209
9443.267
9445.269
9447.209
9449.096
9450.944
9452.768
9454.569
9456.343
9458.085
9459.813
9461.531
9463.201
9464.813
9466.389
9467.95
9469.499
9471.035
9472.554
9474.054
9475.532
9476.984
9478.404
9479.788
9481.132
9482.435
9483.692
9484.902
9486.061
9487.167
9488.217
9489.209
9490.142
9491.015
9491.825
9492.572
9493.259
9493.909
9494.419
9494.883
9495.283
9495.614
9495.874
9496.061
9496.168
9496.167
9496.169
9496.084
9495.918
9495.677
9495.362
9494.974
9494.512
9493.978
9493.372
9492.694
9491.944
9491.123
9490.231
9489.27
9488.261
9487.177
9486.023
9484.801
9483.515
9482.166
9480.734
9479.245
9477.697
9476.085
9474.41
9472.673
9470.872
9469.007
9467.078
9465.083
9463.02
9460.89
9458.69
9456.419
9454.076
9451.661
9449.176
9446.628
9444.026
9441.39
9438.748
9436.148
9433.647
9431.328
9429.273
9427.601
9426.36
9425.654
9425.336
6505.448
6474.368
6404.886
6322.811
6243.683
6173.371
6108.978
6050.155
5995.291
5940.29
5879.233
5827.506
5776.233
5724.661
5672.524
5619.998
5567.142
5513.755
5460.222
5407.563
5356.61
5306.21
5257.656
5211.777
5168.972
5129.546
5094.006
5062.408
5035.233
5013.848
4999.416
4993.59
4996.99
5009.064
5029.972
5060.14
5101.213
5154.199
5219.71
5298.695
5390.957
5495.319
5611.852
5741.02
5883.27
6038.905
6207.95
6390.216
6585.005
6791.061
7007.217
7230.349
7457.708
7685.558
7909.062
8123.294
8323.083
8502.928
8659.833
8791.697
8896.856
8974.97
9026.882
9054.269
9059.365
9044.753
9013.155
8967.293
8909.714
8842.797
8768.689
8689.339
8606.443
8521.46
8435.642
8349.843
8264.777
8181.347
8099.943
8020.995
7945.244
7873.172
7804.859
7740.251
7679.321
7622.067
7568.468
7518.484
7472.052
7429.105
7389.548
7353.315
7320.343
7290.61
7264.04
7240.576
7220.327
7203.405
7189.798
7179.5
7172.592
7169.205
7169.442
7173.359
7181.006
7192.433
7207.689
7226.798
7249.752
7276.521
7307.057
7341.28
7379.107
7420.54
7465.449
7513.373
7564.14
7617.565
7673.411
7731.376
7791.108
7852.225
7914.343
7977.074
8040.073
8102.992
8165.514
8227.318
8288.141
8347.719
8405.853
8462.363
8517.074
8569.845
8620.548
8669.122
8715.631
8760.204
8802.918
8843.778
8882.776
8919.944
8955.36
8989.122
9021.319
9052.024
9081.294
9109.162
9135.636
9160.706
9184.347
9206.528
9227.229
9246.446
9264.227
9280.686
9295.95
9310.114
9323.251
9335.456
9346.851
9357.553
9367.654
9377.221
9386.31
9394.981
9403.298
9411.32
9419.106
9426.699
9434.131
9441.409
9448.509
9455.37
9461.889
9467.942
9473.396
9478.141
9482.142
9485.473
9488.309
9490.882
9493.423
9496.081
9498.867
9501.69
9504.454
9507.108
9509.641
9512.052
9514.337
9516.487
9518.5
9520.379
9522.129
9523.759
9525.277
9526.694
9528.018
9529.26
9530.43
9531.537
9532.59
9533.6
9534.571
9535.511
9536.425
9537.314
9538.179
9539.03
9539.863
9540.679
9541.475
9542.249
9542.999
9543.722
9544.415
9545.074
9545.697
9546.28
9546.819
9547.313
9547.759
9548.157
9548.506
9548.804
9549.039
9549.22
9549.357
9549.445
9549.478
9549.451
9549.359
9549.198
9548.966
9548.667
9548.307
9547.889
9547.417
9546.891
9546.316
9545.693
9545.025
9544.314
9543.563
9542.772
9541.945
9541.083
9540.186
9539.259
9538.296
9537.298
9536.272
9535.217
9534.131
9533.016
9531.872
9530.698
9529.494
9528.261
9526.997
9525.704
9524.381
9523.028
9521.644
9520.23
9518.785
9517.311
9515.805
9514.271
9512.707
9511.114
9509.495
9507.85
9506.183
9504.495
9502.789
9501.068
9499.334
9497.585
9495.817
9494.019
9492.182
9490.299
9488.371
9486.403
9484.396
9482.352
9480.271
9478.154
9476.001
9473.813
9471.592
9469.336
9467.047
9464.724
9462.366
9459.973
9457.546
9455.083
9452.584
9450.048
9447.476
9444.868
9442.226
9439.55
9436.846
9434.12
9431.382
9428.648
9425.939
9423.286
9420.726
9418.305
9416.07
9414.063
9412.304
9410.787
9409.47
9408.293
9407.199
9406.156
9405.148
9404.165
9403.2
9402.247
9401.302
9400.358
9399.403
9398.493
9397.608
9396.734
9395.875
9395.036
9394.221
9393.432
9392.671
9391.942
9391.249
9390.593
9389.977
9389.402
9388.869
9388.378
9387.93
9387.527
9387.167
9386.85
9386.577
9386.344
9386.147
9385.983
9385.858
9385.79
9385.795
9385.885
9386.061
9386.32
9386.658
9387.074
9387.567
9388.138
9388.785
9389.509
9390.308
9391.181
9392.126
9393.141
9394.225
9395.377
9396.595
9397.878
9399.225
9400.633
9402.101
9403.628
9405.212
9406.851
9408.545
9410.29
9412.086
9413.93
9415.82
9417.754
9419.73
9421.744
9423.793
9425.874
9427.981
9430.108
9432.25
9434.396
9436.538
9438.665
9440.766
9442.831
9444.854
9446.83
9448.764
9450.661
9452.529
9454.372
9456.191
9457.986
9459.756
9461.494
9463.189
9464.844
9466.477
9468.093
9469.691
9471.268
9472.82
9474.348
9475.85
9477.321
9478.758
9480.158
9481.518
9482.834
9484.104
9485.326
9486.497
9487.615
9488.675
9489.677
9490.619
9491.502
9492.317
9493.066
9493.744
9494.324
9494.908
9495.4
9495.815
9496.157
9496.426
9496.621
9496.739
9496.778
9496.761
9496.67
9496.505
9496.265
9495.951
9495.564
9495.103
9494.57
9493.964
9493.287
9492.538
9491.719
9490.831
9489.875
9488.856
9487.765
9486.605
9485.376
9484.08
9482.717
9481.312
9479.836
9478.296
9476.687
9475.021
9473.296
9471.511
9469.667
9467.763
9465.8
9463.778
9461.698
9459.559
9457.362
9455.111
9452.807
9450.458
9448.072
9445.664
9443.255
9440.875
9438.563
9436.371
9434.361
9432.596
9431.154
9430.066
9429.404
9429.065
6476.786
6427.588
6330.407
6262.621
6197.611
6137.893
6082.135
6029.251
5978.125
5928.275
5879.737
5830.425
5780.584
5729.909
5678.539
5626.268
5573.235
5519.524
5465.253
5411.149
5358.904
5307.811
5258.227
5211.217
5166.912
5124.9
5085.656
5050.315
5019.862
4995.261
4977.745
4968.849
4969.283
4979.018
4998.566
5028.466
5069.418
5121.92
5186.202
5263.135
5353.343
5455.662
5569.521
5695.568
5834.349
5986.23
6151.508
6330.183
6521.272
6723.867
6936.318
7155.82
7379.167
7602.412
7820.769
8029.116
8222.476
8396.237
8546.975
8672.789
8772.677
8846.645
8895.731
8921.75
8926.972
8913.887
8885.043
8842.925
8789.899
8728.112
8659.56
8585.937
8508.867
8429.504
8348.889
8268.013
8187.561
8108.536
8031.558
7957.024
7885.419
7817.08
7752.151
7690.678
7632.684
7578.179
7527.136
7479.502
7435.205
7394.163
7356.289
7321.503
7289.734
7260.926
7235.057
7212.136
7192.231
7175.424
7161.761