/*--------------------------------*- C++ -*----------------------------------*\
| =========                 |                                                 |
| \\      /  F ield         | foam-extend: Open Source CFD                    |
|  \\    /   O peration     | Version:     3.1                                |
|   \\  /    A nd           | Web:         http://www.extend-project.de       |
|    \\/     M anipulation  |                                                 |
\*---------------------------------------------------------------------------*/
FoamFile
{
    version     2.0;
    format      ascii;
    class       volScalarField;
    location    "19.5";
    object      alpha1;
}
// * * * * * * * * * * * * * * * * * * * * * * * * * * * * * * * * * * * * * //

dimensions      [0 0 0 0 0 0 0];

internalField   nonuniform List<scalar> 
119952
(
1
1
1
1
1
1
1
1
1
1
1
1
1
1
1
1
1
1
1
1
1
1
1
1
1
1
1
1
1
1
1
1
1
1
1
1
1
1
1
1
0.9999999
1
1
0.9999999
1
1
1
1
1
1
1
1
0.9999999
1
1
0.9999999
1
1
1
1
0.9999999
1
1
1
1
1
0.9999999
1
1
1
1
1
0.9999999
1
1
1
1
0.9999999
1
1
1
1
1
1
1
1
1
1
1
1
1
1
1
1
1
1
1
1
1
1
1
1
0.9999999
1
1
1
1
1
0.9999999
1
1
1
1
0.9999999
1
1
1
1
0.9999999
1
1
1
1
1
0.9999999
1
1
1
1
1
1
1
1
0.9999999
1
1
1
1
1
1
1
1
1
1
1
1
1
1
1
1
1
1
1
1
1
1
1
1
1
1
1
1
1
1
1
1
0.9999999
1
1
1
1
1
1
1
1
1
1
1
1
1
1
0.9999999
1
1
1
1
1
1
1
0.9999999
1
1
1
1
1
0.9999999
1
1
0.9999999
1
0.9999998
0.9999998
1
0.9999998
1
1
1
1
0.9999998
1
1
0.9999998
1
1
1
0.9999999
1
1
0.9999999
1
1
1
1
1
1
1
1
1
1
1
1
1
1
1
1
0.9999999
0.9999999
1
1
1
1
1
1
1
0.9999999
1
0.9999999
0.9999999
1
0.9999998
1
0.9999999
1
0.9999999
1
1
1
1
0.9999999
1
0.9999999
1
0.9999999
0.9999998
0.9999999
1
1
0.9999999
0.9999999
1
1
0.9999997
0.9999999
1
0.9999999
1
1
1
0.9999999
0.9999997
1
1
1
1
1
0.9999999
1
1
0.9999999
0.9999999
1
1
1
1
0.9999999
1
1
0.9999998
1
1
0.9999997
0.9999998
1
1
1
1
0.9999999
1
1
1
1
1
1
1
1
0.9999999
1
0.9999999
0.9999999
1
1
1
0.9999999
1
1
1
1
1
0.9999999
0.9999999
1
1
1
1
1
1
1
1
1
1
1
1
1
1
1
1
1
1
1
1
0.9999999
1
1
1
1
1
1
0.9999999
1
1
1
1
1
1
1
1
1
1
0.9999999
0.9999999
1
0.9999999
0.9999999
1
1
1
1
0.9999998
0.9999998
1
0.9999997
0.9999999
1
1
0.9999997
1
0.9999998
0.9999999
1
1
1
1
1
0.9999997
0.9999999
1
1
1
1
1
1
1
1
1
1
1
1
1
1
1
1
1
1
1
1
1
1
1
1
1
1
1
1
1
1
1
1
1
1
1
1
1
1
1
1
1
1
1
1
1
1
1
1
1
1
1
1
1
1
1
1
1
1
1
1
1
1
1
1
1
1
1
1
1
1
1
1
1
1
1
1
1
1
1
1
1
1
1
1
1
1
1
1
1
1
1
1
1
1
1
1
1
1
1
1
1
1
1
1
1
1
1
1
1
1
1
1
1
1
1
1
1
1
1
1
1
1
1
1
1
1
1
1
1
1
1
1
1
1
1
1
1
1
1
1
1
1
1
1
1
1
1
1
1
1
1
1
1
1
1
1
1
1
1
1
1
1
1
1
1
1
1
1
1
1
1
1
1
1
1
1
1
1
1
1
1
1
1
1
1
1
1
1
1
1
1
1
1
1
1
1
1
1
1
1
1
1
1
1
1
1
1
1
1
1
1
1
1
1
1
1
1
1
0.9999999
0.9999999
1
1
1
1
1
1
1
1
1
0.9999999
1
1
1
1
1
1
0.9999999
1
1
1
1
1
1
1
1
1
1
1
1
1
1
1
1
1
1
1
1
1
1
1
1
1
0.9999999
1
1
1
1
1
1
0.9999999
0.9999999
1
1
1
1
0.9999999
0.9999999
1
1
1
1
0.9999999
1
1
1
1
1
1
1
1
1
1
1
1
0.9999999
0.9999999
1
1
1
1
1
1
1
1
1
1
1
1
1
1
1
1
1
1
1
1
1
0.9999999
1
1
1
1
1
1
1
1
1
1
1
1
1
1
1
1
0.9999999
0.9999999
1
1
1
1
1
0.9999999
0.9999999
0.9999999
1
1
1
1
1
0.9999999
0.9999999
1
1
1
1
1
1
1
1
1
1
1
1
1
1
1
1
1
1
1
1
1
1
1
1
1
1
1
1
1
1
1
1
1
1
1
1
1
1
1
1
1
1
1
1
1
1
1
1
1
1
1
1
0.9999998
0.9999998
0.9999999
1
1
0.9999999
0.9999999
1
1
1
1
1
1
1
1
1
1
1
0.9999999
0.9999999
1
1
1
1
1
1
1
1
1
1
1
1
1
1
1
1
1
1
1
1
1
1
1
1
1
1
1
1
1
1
1
1
1
1
1
1
1
1
1
1
1
1
1
1
1
1
1
1
1
1
1
1
1
1
1
1
1
1
1
1
1
1
1
1
1
1
1
1
1
1
1
1
1
1
1
1
1
1
1
1
1
1
1
1
1
1
1
1
1
1
1
1
1
1
1
1
1
1
1
1
1
1
1
1
1
1
1
1
1
1
1
1
1
1
1
1
1
1
1
1
1
1
1
1
1
1
1
1
1
1
1
1
1
1
1
1
1
1
1
1
1
1
1
1
1
1
1
1
1
1
1
1
1
1
1
1
1
1
1
1
1
1
1
1
1
1
1
1
1
1
1
1
1
1
1
1
1
1
1
1
1
1
1
1
1
1
1
1
1
1
1
1
1
1
1
1
1
1
1
1
1
1
1
1
1
1
1
1
1
1
1
1
1
1
1
1
1
1
1
1
1
1
1
1
1
1
1
1
1
1
1
1
1
1
1
1
1
1
1
1
1
1
1
1
1
1
1
1
1
1
1
1
1
1
1
1
1
1
1
1
1
1
1
1
1
1
1
1
1
1
1
1
1
1
1
1
1
1
1
1
1
1
1
1
1
1
1
1
1
1
1
1
0.9999999
0.9999999
1
1
1
1
1
0.9999999
0.9999999
0.9999999
1
1
1
1
1
1
1
1
1
1
1
1
1
1
1
1
1
1
1
1
1
1
1
1
1
1
1
1
1
1
1
1
1
1
1
1
1
0.9999998
0.9999991
0.9999977
0.9999974
0.9999977
0.9999991
0.9999999
1
1
1
1
1
1
1
1
1
1
1
1
1
1
1
1
1
1
1
0.9999999
0.9999999
0.9999999
1
1
1
1
1
1
1
1
1
1
1
1
1
1
1
1
1
1
1
1
1
1
1
1
1
1
1
1
1
1
1
1
1
1
1
1
1
1
1
1
1
1
1
1
1
1
1
1
1
1
1
1
1
0.9999999
0.9999998
0.9999996
0.9999987
0.9999958
0.9999912
0.9999921
0.9999974
0.9999998
1
1
1
1
0.9999999
0.9999999
0.9999999
1
1
1
1
1
0.9999999
1
1
1
1
1
1
1
1
1
1
1
1
1
1
1
1
1
1
1
1
1
1
1
1
1
1
1
1
1
1
1
1
1
1
1
1
1
1
1
1
1
1
1
1
1
1
1
1
1
1
1
1
1
1
1
1
1
1
1
1
1
1
1
1
1
1
1
1
1
1
1
1
1
1
1
1
1
1
1
1
1
1
1
1
1
1
1
1
1
1
1
1
1
1
1
1
1
1
1
1
1
1
1
1
1
1
1
1
1
1
1
1
1
1
1
1
1
1
1
1
1
1
1
1
1
1
1
1
1
1
1
1
1
1
1
1
1
1
1
1
1
1
1
1
1
1
1
1
1
1
1
1
1
1
1
1
1
1
1
1
1
1
1
1
1
1
1
1
1
1
1
1
1
1
1
1
1
1
1
1
1
1
1
1
1
1
1
1
1
1
1
1
1
1
1
1
1
1
1
1
1
1
1
1
1
1
1
1
1
1
1
1
1
1
1
1
1
1
1
1
1
1
1
1
1
1
1
1
1
1
1
1
1
1
1
1
1
1
1
1
1
1
1
1
1
1
1
1
1
1
1
1
1
1
1
1
1
1
1
1
1
1
1
1
1
1
1
1
1
1
1
1
1
1
1
1
1
1
1
1
1
1
1
1
1
1
1
1
1
1
1
1
1
1
1
1
1
1
1
1
1
1
1
1
1
1
1
1
1
1
1
1
1
1
1
1
1
1
1
1
1
0.9999999
0.9999999
1
1
1
1
1
1
1
1
1
1
1
1
1
1
1
1
1
1
1
1
1
1
1
1
1
1
1
1
1
1
1
1
1
0.9999998
0.9999984
0.9999893
0.9999586
0.9999135
0.9999178
0.9999678
0.9999958
0.9999998
1
1
1
1
1
1
1
1
1
1
1
1
1
1
1
1
1
1
1
1
1
0.9999999
0.9999999
0.9999999
1
1
1
1
1
1
1
1
1
1
1
1
1
1
1
1
1
1
1
1
1
1
0.9999999
0.9999999
0.9999999
1
1
1
1
1
1
1
1
1
1
1
1
1
1
1
1
1
1
1
1
1
1
1
1
0.9999999
0.9999996
0.9999979
0.9999911
0.9999621
0.9998432
0.9996474
0.9997072
0.9999129
0.9999929
0.9999999
1
1
1
1
1
1
0.9999999
0.9999999
1
1
1
1
1
0.9999999
0.9999999
1
1
1
1
1
1
1
1
1
1
1
1
1
1
1
1
1
1
1
1
1
1
1
1
1
1
1
1
1
1
1
1
1
1
1
1
1
1
1
1
1
1
1
1
1
1
1
1
1
1
1
1
1
1
1
1
1
1
1
1
1
1
1
1
1
1
1
1
1
1
1
1
1
1
1
1
1
1
1
1
1
1
1
1
1
1
1
1
1
1
1
1
1
1
1
1
1
1
1
1
1
1
1
1
1
1
1
1
1
1
1
1
1
1
1
1
1
1
1
1
1
1
1
1
1
1
1
1
1
1
1
1
1
1
1
1
1
1
1
1
1
1
1
1
1
1
1
1
1
1
1
1
1
1
1
1
1
1
1
1
1
1
1
1
1
1
1
1
1
1
1
1
1
1
1
1
1
1
1
1
1
1
1
1
1
1
1
1
1
1
1
1
1
1
1
1
1
1
1
1
1
1
1
1
1
1
1
1
1
1
1
1
1
1
1
1
1
1
1
1
1
1
1
1
1
1
1
1
1
1
1
1
1
1
1
1
1
1
1
1
1
1
1
1
1
1
1
1
1
1
1
1
1
1
1
1
1
1
1
1
1
1
1
1
1
1
1
1
1
1
1
1
1
1
1
1
1
1
1
1
1
1
1
1
1
1
1
1
1
1
1
1
1
1
1
1
1
1
1
1
1
1
1
1
1
1
1
1
1
1
1
1
1
1
1
1
1
1
1
1
1
1
1
1
1
1
1
1
1
1
1
1
0.9999999
1
1
1
1
1
1
1
1
1
1
1
1
1
1
1
1
1
1
1
1
1
1
0.9999999
0.9999999
1
1
1
1
1
1
1
0.9999997
0.9999968
0.9999704
0.9998303
0.9993537
0.9990263
0.9994834
0.9999004
0.9999946
0.9999999
1
1
1
1
1
1
1
1
1
1
1
1
1
1
1
0.9999999
0.9999999
0.9999998
0.9999999
1
1
1
1
1
0.9999999
1
1
1
1
1
1
1
1
1
1
1
1
1
1
0.9999999
0.9999999
1
1
1
1
0.9999999
0.9999995
0.9999994
0.9999997
1
1
1
1
0.9999999
0.9999999
1
1
1
1
1
1
1
1
1
0.9999999
0.9999998
0.9999998
0.9999998
0.9999999
0.9999999
0.9999999
0.9999999
1
1
0.9999996
0.9999938
0.9999354
0.9995499
0.9978984
0.9969273
0.9982902
0.9996966
0.9999871
0.9999999
1
1
1
1
1
1
1
1
1
1
1
1
1
1
1
1
1
1
1
1
1
1
1
1
1
1
1
1
1
1
1
1
1
1
1
1
1
1
1
1
1
1
1
1
1
1
1
1
1
1
1
1
1
1
1
1
1
1
1
1
1
1
1
1
1
1
1
1
1
1
1
1
1
1
1
1
1
1
1
1
1
1
1
1
1
1
1
1
1
1
1
1
1
1
1
1
1
1
1
1
1
1
1
1
1
1
1
1
1
1
1
1
1
1
1
1
1
1
1
1
1
1
1
1
1
1
1
1
1
1
1
1
1
1
1
1
1
1
1
1
1
1
1
1
1
1
1
1
1
1
1
1
1
1
1
1
1
1
1
1
1
1
1
1
1
1
1
1
1
1
1
1
1
1
1
1
1
1
1
1
1
1
1
1
1
1
1
1
1
1
1
1
1
1
1
1
1
1
1
1
1
1
1
1
1
1
1
1
1
1
1
1
1
1
1
1
1
1
1
1
1
1
1
1
1
1
1
1
1
1
1
1
1
1
1
1
1
1
1
1
1
1
1
1
1
1
1
1
1
1
1
1
1
1
1
1
1
1
1
1
1
1
1
1
1
1
1
1
1
1
1
1
1
1
1
1
1
1
1
1
1
1
1
1
1
1
1
1
1
1
1
1
1
1
1
1
1
1
1
1
1
1
1
1
1
1
1
1
1
1
1
1
1
1
1
1
1
1
1
1
1
1
1
1
1
1
1
1
1
1
1
1
1
1
1
1
1
1
1
1
1
1
1
1
1
1
1
1
1
1
1
1
1
1
1
1
1
1
1
1
1
1
1
1
1
1
1
1
1
1
1
1
1
1
1
1
0.9999999
0.9999998
0.9999999
1
0.9999998
0.9999995
0.9999996
0.9999998
1
1
1
1
0.9999997
0.9999974
0.9999775
0.9998306
0.9990135
0.9960947
0.9962697
0.9985965
0.9998031
0.9999923
0.9999999
1
0.9999999
0.9999998
0.9999996
0.9999991
0.9999977
0.9999926
0.999974
0.9999464
0.9999583
0.9999891
0.9999992
0.9999999
0.999999
0.9999956
0.9999929
0.9999935
0.9999969
0.9999996
1
1
1
1
1
1
1
1
1
1
1
1
1
1
1
1
1
1
1
1
1
1
1
1
1
0.9999999
0.9999995
0.9999975
0.9999972
0.9999988
0.9999998
1
1
0.9999999
0.9999997
0.9999998
1
1
1
1
1
1
1
0.9999999
0.9999997
0.999999
0.9999974
0.9999967
0.9999978
0.9999993
0.9999992
0.9999987
0.9999975
0.9999965
0.9999966
0.999998
0.9999972
0.9999659
0.9993425
0.9924812
0.9864051
0.9928121
0.9987577
0.99995
0.9999997
1
1
1
1
1
1
1
1
1
1
1
1
1
1
1
1
1
1
1
1
1
1
1
1
1
1
1
1
1
1
1
1
1
1
1
1
1
1
1
1
1
1
1
1
1
1
1
1
1
1
1
1
1
1
1
1
1
1
1
1
1
1
1
1
1
1
1
1
1
1
1
1
1
1
1
1
1
1
1
1
1
1
1
1
1
1
1
1
1
1
1
1
1
1
1
1
1
1
1
1
1
1
1
1
1
1
1
1
1
1
1
1
1
1
1
1
1
1
1
1
1
1
1
1
1
1
1
1
1
1
1
1
1
1
1
1
1
1
1
1
1
1
1
1
1
1
1
1
1
1
1
1
1
1
1
1
1
1
1
1
1
1
1
0.9999999
0.9999999
0.9999999
0.9999999
1
1
1
0.9999999
0.9999999
0.9999998
0.9999997
0.9999996
0.9999996
0.9999997
0.9999998
0.9999999
0.9999999
0.9999998
0.9999997
0.9999995
0.999999
0.9999987
0.9999988
0.999999
0.9999995
0.9999998
0.9999998
0.9999998
0.9999996
0.9999993
0.9999988
0.9999985
0.9999985
0.9999987
0.9999992
0.9999996
0.9999997
0.9999997
0.9999996
0.9999993
0.999999
0.9999988
0.9999988
0.9999989
0.9999992
0.9999996
0.9999997
0.9999997
0.9999996
0.9999994
0.9999992
0.9999991
0.9999991
0.9999992
0.9999994
0.9999996
0.9999997
0.9999997
0.9999997
0.9999995
0.9999994
0.9999993
0.9999993
0.9999994
0.9999995
0.9999997
0.9999997
0.9999997
0.9999997
0.9999996
0.9999995
0.9999995
0.9999995
0.9999995
0.9999996
0.9999997
0.9999998
0.9999998
0.9999997
0.9999997
0.9999996
0.9999996
0.9999996
0.9999997
0.9999997
0.9999998
0.9999998
0.9999998
0.9999998
0.9999997
0.9999997
0.9999997
0.9999997
0.9999998
0.9999998
0.9999998
0.9999998
0.9999998
0.9999998
0.9999998
0.9999998
0.9999998
0.9999998
0.9999998
0.9999999
0.9999999
0.9999999
0.9999998
0.9999998
0.9999998
0.9999998
0.9999998
0.9999998
0.9999999
0.9999999
0.9999999
0.9999999
0.9999999
0.9999998
0.9999998
0.9999998
0.9999999
0.9999999
0.9999999
0.9999999
0.9999999
0.9999999
0.9999999
0.9999999
0.9999999
0.9999999
1
1
1
1
1
1
1
1
1
1
1
1
1
1
1
1
1
1
1
1
1
1
1
1
1
1
1
1
1
1
1
1
1
1
1
1
1
1
1
1
1
1
1
1
1
1
1
1
1
1
1
1
1
1
1
1
1
1
1
1
1
1
1
1
1
1
1
1
1
1
1
1
1
1
1
1
1
1
1
1
1
1
1
1
1
0.9999999
0.9999994
0.9999977
0.9999973
0.9999984
0.9999997
1
0.9999999
0.9999993
0.9999991
0.9999994
0.9999997
0.9999998
0.9999998
0.9999992
0.9999901
0.9998752
0.9989348
0.9947024
0.9923195
0.9931704
0.9974025
0.9996735
0.9999896
0.9999998
0.9999998
0.9999992
0.999995
0.9999765
0.9999037
0.9996134
0.9986617
0.9978892
0.9985685
0.9996782
0.999981
0.9999995
1
0.9999998
0.9999963
0.9999614
0.9999333
0.9999659
0.9999938
0.9999997
1
1
1
1
1
1
1
1
1
0.9999999
0.9999999
0.9999999
1
1
1
1
1
1
1
1
1
1
1
1
0.9999999
0.9999985
0.9999914
0.9999903
0.9999959
0.9999995
1
1
0.9999998
0.9999994
0.9999996
0.9999999
1
1
1
1
0.9999999
0.9999997
0.999999
0.9999965
0.9999886
0.999974
0.9999704
0.9999816
0.999997
0.9999978
0.9999884
0.9999388
0.9997766
0.9996036
0.9996178
0.9998078
0.9999491
0.9998478
0.9970845
0.9831028
0.980683
0.9896347
0.9978781
0.9998671
0.9999985
1
1
1
0.9999999
0.9999994
0.9999975
0.9999966
0.9999976
0.9999994
1
1
1
1
1
1
1
1
1
1
1
1
1
1
1
1
1
1
1
1
1
1
1
1
1
1
1
1
1
1
1
1
1
1
1
1
1
1
1
1
1
1
1
1
1
1
1
1
1
1
1
1
1
1
1
1
1
1
1
1
1
1
1
1
1
1
1
1
1
1
1
1
1
1
1
1
1
1
1
1
1
1
1
1
1
1
1
1
1
1
1
1
1
1
1
1
1
1
1
1
1
1
1
1
1
1
1
1
1
1
1
1
1
1
1
1
1
1
1
1
0.9999999
0.9999999
0.9999999
0.9999999
0.9999999
0.9999999
0.9999999
0.9999999
0.9999998
0.9999996
0.9999993
0.9999991
0.9999989
0.9999984
0.9999979
0.999998
0.9999987
0.9999993
0.9999993
0.9999989
0.9999981
0.9999964
0.9999928
0.9999874
0.9999848
0.9999859
0.9999911
0.999996
0.9999968
0.9999964
0.9999941
0.9999861
0.9999678
0.9999427
0.9999307
0.9999322
0.9999469
0.9999729
0.9999849
0.9999849
0.9999776
0.9999493
0.9998893
0.9997975
0.9997148
0.9997012
0.9997509
0.9998731
0.9999486
0.999956
0.9999503
0.9999235
0.9998492
0.9996875
0.9994676
0.9993918
0.9994542
0.9996731
0.9998781
0.9999231
0.9999219
0.9999044
0.9998357
0.9996651
0.999442
0.9993736
0.9994095
0.9995774
0.9998131
0.9999106
0.9999147
0.9999041
0.9998528
0.9997231
0.9995593
0.9995067
0.9995181
0.9995978
0.9997695
0.999898
0.9999158
0.9999093
0.9998728
0.9997791
0.9996651
0.9996274
0.9996327
0.9996785
0.9997938
0.9999029
0.9999256
0.999922
0.9998978
0.999832
0.9997429
0.9997046
0.9997054
0.9997336
0.9998255
0.9999168
0.9999334
0.9999288
0.999904
0.9998464
0.9997861
0.9997707
0.999774
0.9997999
0.9998701
0.9999327
0.9999418
0.9999383
0.9999214
0.9998768
0.9997987
0.9997531
0.9997858
0.9998931
0.9999566
0.9999598
0.9999562
0.9999445
0.9999215
0.9998883
0.9998588
0.9998523
0.999872
0.9999213
0.9999538
0.9999569
0.9999548
0.9999417
0.999898
0.9998409
0.999845
0.9999205
0.9999785
0.9999829
0.9999816
0.9999774
0.9999638
0.999912
0.9998286
0.9998624
0.9999514
0.9999823
0.9999816
0.9999789
0.9999734
0.9999606
0.9999318
0.9998994
0.9998973
0.9999215
0.9999648
0.9999863
0.9999881
0.9999876
0.9999849
0.9999771
0.9999637
0.9999555
0.9999568
0.9999698
0.9999872
0.9999929
0.9999929
0.999992
0.9999897
0.9999882
0.9999887
0.9999915
0.9999958
0.9999981
0.9999982
0.9999976
0.9999962
0.999997
0.9999988
0.9999995
0.9999994
0.999999
0.9999969
0.9999931
0.9999945
0.9999984
0.9999999
1
1
0.9999999
0.9999994
0.9999982
0.9999977
0.9999978
0.9999983
0.999999
0.9999992
0.9999992
0.9999993
0.9999998
1
1
1
1
1
1
1
1
1
1
1
1
1
1
1
1
1
1
1
1
1
1
1
1
1
1
1
1
1
1
1
1
1
1
1
1
1
1
1
1
1
1
1
1
1
1
1
1
1
0.9999997
0.9999969
0.9999865
0.9999822
0.9999912
0.9999985
0.9999999
1
0.9999999
0.9999994
0.9999955
0.9999806
0.9999653
0.9999676
0.9999818
0.9999708
0.9997871
0.9976824
0.9833884
0.9833297
0.9941533
0.9993338
0.9999754
0.9999984
0.9999985
0.9999981
0.9999964
0.9999882
0.9999231
0.9993314
0.9941569
0.9785345
0.979938
0.99142
0.9988268
0.9999609
0.9999997
1
1
0.9999996
0.9999881
0.9999357
0.999932
0.9999546
0.9999916
0.9999997
1
1
1
1
1
1
1
0.9999999
0.9999997
0.9999994
0.9999997
0.9999999
1
1
1
1
1
1
1
1
1
1
1
0.9999996
0.9999957
0.9999739
0.9999718
0.9999887
0.9999987
0.9999999
0.9999999
0.9999995
0.9999984
0.9999989
0.9999997
1
1
1
1
0.9999999
0.9999993
0.9999951
0.9999764
0.9999096
0.9997622
0.9997155
0.9998235
0.9999648
0.9999984
0.999996
0.999931
0.9991694
0.9953559
0.9929048
0.9952797
0.9988727
0.999927
0.9999665
0.9999105
0.998698
0.9830273
0.9735599
0.9831413
0.9966321
0.9998348
0.9999979
0.9999966
0.9999373
0.9998817
0.9999017
0.999969
0.9999972
0.9999999
1
1
1
1
1
1
1
1
1
1
1
1
1
1
1
1
0.9999991
1
1
1
1
1
1
1
1
1
1
1
1
1
1
1
1
1
1
1
1
1
1
1
1
1
1
1
1
1
1
1
1
1
1
1
1
1
1
1
1
1
1
1
1
1
1
1
1
1
1
1
1
1
1
1
1
1
1
1
1
1
1
1
1
1
1
1
1
1
1
1
1
1
1
1
1
1
1
1
1
1
1
1
1
1
1
1
1
1
1
1
1
1
1
1
1
1
1
1
1
1
0.9999999
0.9999999
0.9999999
0.9999999
1
1
0.9999999
0.9999998
0.9999991
0.9999971
0.9999934
0.9999891
0.9999878
0.9999882
0.9999906
0.9999953
0.9999972
0.9999967
0.999993
0.9999782
0.9999392
0.9998801
0.9998432
0.99984
0.999857
0.999915
0.9999675
0.9999756
0.9999697
0.9999289
0.9997983
0.9995557
0.9992289
0.9990068
0.9990177
0.9993098
0.9997426
0.9998889
0.9998876
0.9998314
0.9996032
0.9989542
0.9976177
0.9965155
0.99651
0.9972824
0.9986609
0.9994111
0.9994821
0.9994491
0.9991664
0.99788
0.9940191
0.9884336
0.9871825
0.9891888
0.9946302
0.9981502
0.9984465
0.9983839
0.9979613
0.9953134
0.9862797
0.9716101
0.9668529
0.9722494
0.9858858
0.9937982
0.9954104
0.9960405
0.9959764
0.9938464
0.9860213
0.9703069
0.9600109
0.9619158
0.9737392
0.9874179
0.9938228
0.995076
0.9948676
0.9932576
0.9882082
0.9769618
0.9659414
0.9654666
0.9718701
0.9842239
0.9932757
0.9954296
0.9953316
0.9944439
0.9916067
0.9843196
0.9736397
0.9706413
0.9742668
0.9845926
0.9939193
0.9962713
0.9962296
0.9958127
0.9941384
0.9892026
0.9807566
0.9777417
0.9798044
0.9867976
0.994596
0.9971278
0.9971236
0.9968335
0.9955561
0.9909361
0.9805492
0.9782138
0.9851762
0.9948979
0.9981616
0.9981886
0.9980757
0.9977203
0.996531
0.9925425
0.9846251
0.9835791
0.987988
0.9952125
0.9982498
0.9983052
0.9979021
0.9956702
0.9887327
0.9848226
0.9896049
0.9972358
0.9994403
0.9994562
0.9993793
0.9992007
0.9986254
0.9960988
0.988671
0.9873362
0.9935288
0.9987621
0.9994495
0.9993297
0.9989599
0.9979295
0.9952817
0.9925458
0.9930514
0.9967954
0.9994817
0.9997848
0.9997462
0.9995149
0.9983648
0.9943252
0.9927806
0.9962043
0.9993005
0.9998571
0.9998458
0.9997829
0.9995789
0.9989778
0.9975726
0.9962221
0.9962905
0.997653
0.999237
0.9995463
0.9995462
0.9995291
0.9994276
0.9989261
0.9974905
0.9968941
0.9974986
0.9988467
0.9996922
0.999805
0.9997911
0.9996781
0.9992745
0.9990315
0.9992585
0.9996849
0.9998688
0.999861
0.99969
0.9993221
0.9994965
0.9998575
0.9999875
0.9999957
0.9999945
0.9999847
0.9999231
0.9998375
0.9998888
0.9999711
0.999998
0.9999992
0.999999
0.9999982
0.9999969
0.9999955
0.999992
0.9999675
0.9998819
0.9997708
0.9997344
0.9997409
0.9998481
0.9999745
0.9999991
1
1
1
1
1
1
1
1
1
1
1
1
1
1
0.9999999
0.9999994
0.9999988
0.9999993
0.9999999
1
1
1
1
1
1
1
1
1
1
1
1
1
1
1
1
1
1
1
1
1
1
1
1
1
1
1
1
1
0.9999999
0.9999987
0.9999892
0.9999509
0.9999468
0.9999727
0.9999958
0.9999998
1
1
0.9999996
0.9999914
0.9998687
0.9990667
0.9985141
0.9988811
0.999751
0.9997373
0.9979651
0.9818994
0.975427
0.9816844
0.9956744
0.9997563
0.9999959
0.9999978
0.9999897
0.9999433
0.9997418
0.9992175
0.9980509
0.987743
0.9564674
0.954491
0.954491
0.9722414
0.9956887
0.999868
0.9999994
1
1
0.9999997
0.9999952
0.9999667
0.9999564
0.9999771
0.999996
0.9999998
1
1
1
1
1
0.9999999
0.9999995
0.9999976
0.9999972
0.9999988
0.9999998
0.9999999
0.9999998
0.9999996
0.9999996
0.9999999
1
1
1
1
1
0.9999999
0.9999993
0.9999907
0.9999314
0.9999271
0.9999691
0.9999965
0.9999999
0.9999999
0.9999995
0.9999964
0.9999969
0.999999
0.9999999
1
1
1
1
0.9999995
0.9999925
0.9999381
0.9996062
0.9983907
0.997717
0.9986235
0.9997213
0.9999857
0.9999988
0.9999901
0.9997823
0.9956208
0.9784805
0.9793563
0.9918378
0.9990002
0.9999588
0.9999665
0.9999192
0.9983028
0.981388
0.9735599
0.9779174
0.9923468
0.9991578
0.9999761
0.9999982
0.9999948
0.9999859
0.9999845
0.9999895
0.9999975
0.9999999
1
1
1
1
1
1
1
1
1
1
1
1
1
1
1
0.9999996
0.9999786
1
1
1
1
1
1
1
1
1
1
1
1
1
1
1
1
1
1
1
1
1
1
1
1
1
1
1
1
1
1
1
1
1
1
1
1
1
1
1
1
1
1
1
1
1
1
1
1
1
1
1
1
1
1
1
1
1
1
1
1
1
1
1
1
1
1
1
1
1
1
1
1
1
1
1
1
1
1
1
1
1
1
1
1
1
1
1
1
1
1
1
1
1
1
1
1
1
1
1
1
1
1
1
1
1
1
1
1
1
1
0.9999998
0.9999988
0.9999932
0.9999752
0.9999393
0.9999077
0.999903
0.9999075
0.9999262
0.9999541
0.9999627
0.9999499
0.9998524
0.9994497
0.9983643
0.9967785
0.9961574
0.9962573
0.9970114
0.9984804
0.9994722
0.9995813
0.9994631
0.998634
0.9950393
0.985261
0.9757407
0.9754381
0.9810128
0.9920699
0.9978682
0.9982375
0.9981122
0.9972912
0.9913607
0.9690297
0.9334478
0.9238444
0.9402363
0.9755388
0.9903475
0.991919
0.9928105
0.9920903
0.9830586
0.9476712
0.8784095
0.8520758
0.8732104
0.9230923
0.9539887
0.9705082
0.9768582
0.9748551
0.9644028
0.9383841
0.8428444
0.675717
0.6586102
0.7412097
0.9002841
0.9661923
0.9568891
0.9227163
0.9187751
0.915227
0.7687288
0.4083657
0.404535
0.6439603
0.8768589
0.8882093
0.8603831
0.8619532
0.9072469
0.9131796
0.6989504
0.2802131
0.3108362
0.6336833
0.8014085
0.7866452
0.7949156
0.8687013
0.9373359
0.8936549
0.4915084
0.2402539
0.4028095
0.7329335
0.7635241
0.746748
0.7834873
0.8945579
0.9539708
0.9096614
0.518211
0.2879919
0.4651691
0.7795882
0.8228699
0.8282461
0.8789345
0.9499775
0.9497154
0.7798433
0.4347067
0.4880094
0.7514132
0.8473473
0.8402837
0.8550447
0.9166014
0.9625075
0.9481452
0.7325843
0.4911211
0.6022181
0.8472362
0.9424139
0.9541934
0.9636314
0.9700703
0.961989
0.851683
0.6402112
0.6732692
0.8350869
0.9275302
0.936288
0.9432672
0.9592264
0.9644188
0.9393398
0.776538
0.7041426
0.7939874
0.9299179
0.9824746
0.9863663
0.9863181
0.9853695
0.973986
0.8999855
0.7751778
0.7991448
0.9104687
0.9770381
0.9892591
0.9905515
0.9908472
0.9883534
0.9350807
0.8207376
0.8375255
0.9076951
0.9730285
0.9927191
0.9936256
0.9918398
0.9730999
0.8887754
0.8793162
0.9412021
0.9880964
0.9953425
0.9956106
0.99558
0.9946681
0.9896539
0.9715728
0.9431877
0.9412682
0.9554528
0.9783386
0.9914175
0.9924849
0.9749963
0.9145108
0.9155709
0.9511841
0.9766859
0.9834461
0.9857035
0.9886022
0.9911187
0.990974
0.9876046
0.9753939
0.9760148
0.9907824
0.9970387
0.9972156
0.9964731
0.9911674
0.9863516
0.9918843
0.9982401
0.999829
0.9998725
0.9998728
0.9997871
0.99916
0.9982218
0.9987679
0.9996814
0.9999749
0.9999876
0.9999855
0.9999665
0.99984
0.999294
0.9985852
0.9985924
0.9992286
0.9996385
0.9984908
0.9935075
0.9948054
0.9983993
0.9998532
0.9999941
0.9999962
0.9999935
0.9999768
0.9999565
0.999973
0.9999951
0.9999998
0.9999999
0.9999999
0.9999997
0.9999996
0.9999998
0.9999998
0.9999995
0.9999975
0.999992
0.9999929
0.9999977
0.9999998
1
1
1
1
1
1
1
1
1
1
1
1
1
1
1
1
1
1
1
1
1
1
1
1
1
1
1
1
1
0.9999996
0.999995
0.9999606
0.9998634
0.9998915
0.9999613
0.9999939
0.9999994
0.9999993
0.9999987
0.9999973
0.9999896
0.9998768
0.998745
0.992367
0.989452
0.9946109
0.9993641
0.9995156
0.9958785
0.9770424
0.975427
0.9764556
0.9916968
0.9992005
0.9999781
0.9999712
0.999805
0.9989496
0.9955147
0.9714863
0.954491
0.954491
0.954491
0.954491
0.9591617
0.9859928
0.9987558
0.9999807
0.9999999
1
1
0.9999999
0.9999991
0.9999952
0.9999935
0.9999951
0.9999983
0.9999998
1
1
1
0.9999999
0.9999991
0.9999935
0.9999829
0.9999882
0.999997
0.9999993
0.9999987
0.9999975
0.999998
0.9999994
0.9999999
1
1
1
1
1
0.9999998
0.9999975
0.9999669
0.9998541
0.999851
0.9999346
0.9999884
0.9999995
0.9999999
0.9999997
0.9999971
0.9999959
0.999997
0.999999
0.9999997
0.9999997
0.9999997
0.9999998
0.9999996
0.9999954
0.9999146
0.9988383
0.9928301
0.98787
0.993153
0.9986556
0.9999289
0.9999984
0.9999984
0.9999772
0.9994957
0.9902483
0.9772643
0.9772643
0.9820556
0.9955689
0.9997339
0.9999564
0.9999545
0.9999355
0.9996278
0.9917611
0.9642416
0.9760846
0.9942591
0.9996496
0.9999961
0.9999996
0.9999996
0.9999994
0.9999995
0.9999997
0.9999999
0.9999999
1
1
1
1
1
1
1
1
1
1
1
0.9999999
0.9999996
0.9999961
0.9999628
0.9995483
1
1
1
1
1
1
1
1
1
1
1
1
1
1
1
1
1
1
1
1
1
1
1
1
1
1
1
1
1
1
1
1
1
1
1
1
1
1
1
1
1
1
1
1
1
1
1
1
1
1
1
1
1
1
1
1
1
1
1
1
1
1
1
1
1
1
1
1
1
1
1
1
1
1
1
1
1
1
1
1
1
1
1
1
1
1
1
1
1
1
1
1
1
1
1
1
1
1
1
1
1
1
1
1
1
1
1
1
1
1
1
1
1
1
0.9999999
0.9999995
0.9999974
0.9999928
0.9999891
0.9999873
0.9999854
0.9999814
0.9999755
0.9999641
0.9998857
0.999335
0.9968989
0.9915972
0.9879355
0.9874102
0.9876437
0.9893224
0.9928094
0.995187
0.9955122
0.9939881
0.981817
0.9373237
0.8742845
0.8555572
0.8603736
0.8875627
0.9377959
0.9765343
0.9845429
0.9821849
0.968187
0.9231717
0.7513886
0.5342066
0.5385757
0.6717678
0.8712087
0.9576591
0.9512755
0.9172885
0.9106379
0.895984
0.62113
0.1770813
0.1712301
0.4724517
0.8107308
0.8260747
0.8031376
0.8174513
0.846772
0.7399963
0.2943577
0.06092019
0.07271519
0.2555636
0.5009057
0.5312622
0.5958318
0.7298141
0.7040115
0.3987094
0.09115719
0.02305778
0.01804267
0.01712338
0.03279493
0.257907
0.6973208
0.6637617
0.3133508
0.05706155
0.01466535
0.0134398
0.01147811
0.01131251
0.02958407
0.1825848
0.3448577
0.275557
0.1066292
0.026857
0.02534498
0.02655148
0.02314844
0.02520309
0.04635255
0.09792956
0.1113003
0.09441097
0.05948074
0.05388192
0.05767988
0.05071322
0.04091993
0.04299479
0.05373521
0.06416757
0.06359797
0.0605053
0.06174792
0.07392494
0.08762783
0.07991397
0.0652207
0.06487457
0.06357743
0.0561907
0.05210675
0.05589928
0.08130982
0.1226803
0.1235355
0.1052553
0.1014662
0.1024313
0.09430156
0.07107295
0.05870076
0.06311871
0.09656686
0.1563716
0.1648181
0.1507627
0.1340811
0.1206428
0.09893707
0.07988187
0.07938157
0.09640412
0.1536548
0.1943926
0.1969094
0.2022932
0.2060036
0.1945856
0.1529677
0.1125259
0.1062853
0.115987
0.1820266
0.311802
0.334919
0.2964305
0.2161588
0.1670034
0.1669857
0.1738963
0.1726114
0.147632
0.1326438
0.2440625
0.5896931
0.6345215
0.4693506
0.1889254
0.08155272
0.1112151
0.4865395
0.8290484
0.6785867
0.2338491
0.1320971
0.2381366
0.469954
0.4491034
0.236948
0.1490519
0.3970846
0.8665772
0.9155756
0.634852
0.2358854
0.3796701
0.8151586
0.8869502
0.5997908
0.2871171
0.4845794
0.7426777
0.6100868
0.2293377
0.2214536
0.6212361
0.9219678
0.9297854
0.9297854
0.8401925
0.3473079
0.2240694
0.5011977
0.7466481
0.5720087
0.2851566
0.3862444
0.8083894
0.9786663
0.9844656
0.9010195
0.6219073
0.6319718
0.8556616
0.9779175
0.9964602
0.997937
0.9977267
0.9936331
0.9657604
0.9444228
0.9719917
0.995701
0.9996499
0.9997127
0.999674
0.9995127
0.998712
0.9954256
0.9904615
0.9720642
0.9495288
0.9636571
0.9885405
0.9982382
0.9980493
0.9917216
0.992507
0.9973472
0.9996405
0.9997511
0.9994249
0.9988447
0.999305
0.9998634
0.9999923
0.9999974
0.9999868
0.9999602
0.9999713
0.999992
0.9999993
0.9999998
0.9999992
0.9999929
0.9999748
0.9999767
0.9999905
0.9999988
0.9999998
0.9999996
0.9999992
0.9999989
0.9999989
0.9999991
0.9999995
0.9999998
0.9999999
0.9999998
0.9999995
0.999999
0.9999994
0.9999998
1
1
1
1
1
1
1
1
1
1
1
1
1
1
1
0.9999993
0.999986
0.9998767
0.9996643
0.999803
0.9999544
0.9999962
0.9999975
0.9999942
0.9999636
0.9998553
0.999623
0.9992271
0.9977036
0.9883717
0.9849815
0.9849815
0.9925725
0.9990134
0.9997395
0.9986435
0.9841673
0.975427
0.978885
0.9931224
0.999339
0.9997651
0.9994511
0.9983068
0.9829256
0.9546002
0.9546002
0.9667105
0.9906501
0.9971418
0.9970046
0.9974335
0.998909
0.9998639
0.9999971
0.9999998
0.9999998
0.9999998
0.9999997
0.9999993
0.9999993
0.9999995
0.9999997
0.9999998
0.9999999
0.9999999
0.9999996
0.9999976
0.9999815
0.9999227
0.9999208
0.9999695
0.9999955
0.999998
0.9999949
0.9999944
0.9999973
0.9999995
1
1
1
1
1
0.9999999
0.9999986
0.9999827
0.9998455
0.9997576
0.9997961
0.9999299
0.9999925
0.9999996
0.9999997
0.9999998
0.9999998
0.9999994
0.9999979
0.9999959
0.9999893
0.9999698
0.999962
0.9999734
0.9999877
0.9999811
0.9998669
0.9985907
0.9870261
0.9601219
0.977321
0.9952911
0.9997242
0.9999963
0.9999988
0.9999983
0.9999791
0.9995156
0.9910911
0.9772643
0.9866918
0.9973516
0.9991258
0.9984953
0.9969786
0.9970291
0.9978177
0.9969071
0.9771811
0.9642052
0.9650774
0.9863948
0.9984821
0.9999676
0.9999992
0.9999985
0.9999934
0.9999944
0.9999978
0.9999997
1
1
1
1
1
1
1
1
1
1
1
0.9999998
0.9999977
0.9999752
0.9996749
0.9975739
0.9968694
1
1
1
1
1
1
1
1
1
1
1
1
1
1
1
1
1
1
1
1
1
1
1
1
1
1
1
1
1
1
1
1
1
1
1
1
1
1
1
1
1
1
1
1
1
1
1
1
1
1
1
1
1
1
1
1
1
1
1
1
1
1
1
1
1
1
1
1
1
1
1
1
1
1
1
1
1
1
1
1
1
1
1
1
1
1
1
1
1
1
1
1
1
1
1
1
1
1
1
1
1
1
1
1
1
1
1
1
1
1
1
1
1
1
1
1
1
1
1
1
1
1
1
1
1
0.9999996
0.9999938
0.9999284
0.9994473
0.9979757
0.9969009
0.9967143
0.9965622
0.996087
0.9950778
0.9942996
0.9928945
0.981345
0.9218195
0.8071204
0.7645731
0.7650084
0.7660037
0.7883392
0.8468411
0.8750508
0.8742708
0.8676992
0.7867897
0.4465015
0.2067177
0.2037418
0.2209615
0.291617
0.4749785
0.6924059
0.7863872
0.7631147
0.4921094
0.1338719
0.03575824
0.02604714
0.02186239
0.02708661
0.1467178
0.5713178
0.6037637
0.3341897
0.07364182
0.01617267
0.01113752
0.01016096
0.01061354
0.01898855
0.0723678
0.1583661
0.1548208
0.09825719
0.03258773
0.009236107
0.007484115
0.007692642
0.009265273
0.01304559
0.01960386
0.02319358
0.02329266
0.02216359
0.01689587
0.009272442
0.006768813
0.007737972
0.009520662
0.008181235
0.005603875
0.004655734
0.004852674
0.00541265
0.005770063
0.006875909
0.01320688
0.01122933
0.004958577
0.001469854
0.001134883
0.001132164
0.001241393
0.001860462
0.005512436
0.01468926
0.01281133
0.005484226
0.001134212
0.0004894542
0.0004806128
0.0005387767
0.0009454697
0.002670293
0.006769069
0.008370267
0.007123484
0.003946096
0.001373733
0.0006026469
0.0005606026
0.0006431094
0.001154737
0.003053077
0.006802725
0.008286562
0.0077723
0.005839176
0.003047624
0.001276538
0.001003496
0.001084352
0.001660327
0.003434088
0.006038298
0.007382431
0.007484647
0.0069444
0.004884782
0.002479895
0.001763159
0.001811957
0.002431375
0.004520565
0.00772243
0.00980401
0.01027256
0.009794228
0.007382629
0.003911847
0.002406242
0.00236584
0.002727232
0.004355431
0.008368145
0.01306072
0.01402656
0.01319727
0.01019885
0.00615737
0.004128218
0.003962128
0.00442245
0.007012714
0.01391629
0.02101661
0.02160319
0.01927174
0.01292115
0.007231335
0.006108451
0.006188944
0.007098004
0.01080883
0.0206946
0.03081372
0.03264481
0.03110269
0.02407686
0.01177549
0.00990404
0.01554076
0.03437287
0.0564668
0.05706934
0.03758421
0.0197806
0.02016728
0.02362969
0.02117071
0.01851913
0.05686294
0.1955286
0.2019671
0.1191468
0.09597228
0.2038921
0.2155246
0.1365898
0.1304846
0.2701415
0.2879122
0.1438163
0.05916521
0.05547752
0.05547116
0.2560591
0.3864578
0.2836767
0.1505581
0.1057415
0.06240526
0.03719847
0.06316367
0.08926728
0.07407515
0.05110927
0.1380793
0.6686585
0.6905709
0.3415476
0.2468014
0.5549708
0.8417373
0.8417373
0.8399909
0.6908805
0.5176
0.5213125
0.5247264
0.549484
0.7239345
0.9240398
0.9858902
0.9887709
0.9898861
0.9944102
0.9903926
0.9675548
0.9402259
0.890292
0.8769717
0.8769717
0.8947656
0.9396306
0.9604595
0.9708177
0.9796902
0.985477
0.9897639
0.9944689
0.9960765
0.9942912
0.9941991
0.9977585
0.9996902
0.9999839
0.999998
0.9999969
0.9999608
0.999961
0.9999846
0.9999974
0.9999997
0.9999996
0.9999962
0.9999682
0.9999409
0.9999485
0.9999705
0.9999908
0.9999952
0.9999937
0.9999843
0.9999791
0.9999813
0.9999872
0.9999889
0.999984
0.9999571
0.9999537
0.9999801
0.9999977
0.9999999
1
1
0.9999999
0.9999997
0.9999996
0.9999998
1
1
0.9999999
0.9999999
1
1
1
1
0.9999999
0.9999993
0.9999845
0.999776
0.9993513
0.9995864
0.9998897
0.9999881
0.999996
0.9999954
0.9999602
0.9994514
0.9967856
0.9918638
0.9844188
0.9843902
0.9843902
0.9876985
0.9955729
0.9993624
0.9997395
0.9997395
0.999277
0.9920853
0.9849499
0.9913265
0.9984154
0.9996545
0.99832
0.9846807
0.9730557
0.9835578
0.9962989
0.9989706
0.9991163
0.9993649
0.9997384
0.9999104
0.9999307
0.9999226
0.9999271
0.9998951
0.9995961
0.9986421
0.9985518
0.9993236
0.9999007
0.9999961
0.9999997
0.9999997
0.9999996
0.9999984
0.9999908
0.999935
0.9996585
0.9995707
0.9997619
0.9999584
0.9999954
0.9999963
0.9999904
0.9999886
0.9999953
0.9999993
1
1
1
1
0.9999999
0.9999993
0.9999913
0.9998851
0.9996365
0.9996393
0.9998322
0.9999677
0.9999968
0.9999942
0.9999873
0.9999887
0.9999958
0.9999993
0.9999986
0.999988