/*--------------------------------*- C++ -*----------------------------------*\
| =========                 |                                                 |
| \\      /  F ield         | foam-extend: Open Source CFD                    |
|  \\    /   O peration     | Version:     3.1                                |
|   \\  /    A nd           | Web:         http://www.extend-project.de       |
|    \\/     M anipulation  |                                                 |
\*---------------------------------------------------------------------------*/
FoamFile
{
    version     2.0;
    format      ascii;
    class       volScalarField;
    location    "19.5";
    object      nut;
}
// * * * * * * * * * * * * * * * * * * * * * * * * * * * * * * * * * * * * * //

dimensions      [0 2 -1 0 0 0 0];

internalField   nonuniform List<scalar> 
119952
(
5.47498e-05
3.730284e-05
3.875887e-05
4.319434e-05
4.621495e-05
4.408585e-05
4.270943e-05
4.169287e-05
4.089094e-05
4.018525e-05
3.952611e-05
3.888883e-05
3.82557e-05
3.76157e-05
3.69607e-05
3.629154e-05
3.560451e-05
3.489479e-05
3.413658e-05
3.329981e-05
4.162379e-05
3.966691e-05
3.881564e-05
4.964114e-05
4.824671e-05
4.734302e-05
4.679865e-05
4.669636e-05
4.679005e-05
3.515977e-05
3.25835e-05
3.584304e-05
4.065835e-05
4.541901e-05
5.033307e-05
5.54531e-05
6.082735e-05
6.634539e-05
7.195034e-05
8.174704e-05
0.0003737023
0.0004290073
0.0004912963
0.0005574892
0.0006252677
0.0006930966
0.0007602237
0.0008262494
0.0008906419
0.00125046
0.001313735
0.001376929
0.001439764
0.001502684
0.001566296
0.001630458
0.001694774
0.001758983
0.001821205
0.001886362
0.001948498
0.002009121
0.002069657
0.002130591
0.002191912
0.002253585
0.002315187
0.002380062
0.002187112
0.002449422
0.002459339
0.002478387
0.002493279
0.002498857
0.002497361
0.002490096
0.002478903
0.002465068
0.002449062
0.002431694
0.002413974
0.00239684
0.002380944
0.002366501
0.002353409
0.002341731
0.002332443
0.002328459
0.002330341
0.002333546
0.00233729
0.002352877
0.002373492
0.002378544
0.002367561
0.002332818
0.002232621
0.002047377
0.001985516
0.001942464
0.001914541
0.001894796
0.001878977
0.001866223
0.001855699
0.001846544
0.001838109
0.00182989
0.00182154
0.001812924
0.001804082
0.001795133
0.001786203
0.001777371
0.001768603
0.001759766
0.001750692
0.00174126
0.001731445
0.001721312
0.001710985
0.001700609
0.001690301
0.001680086
0.001669898
0.001659621
0.001649151
0.001638428
0.001627454
0.001616278
0.001604984
0.001593664
0.001582378
0.001571121
0.00155982
0.001548379
0.001536718
0.001524804
0.001512657
0.001500337
0.001487923
0.001475478
0.001463016
0.001450512
0.001437936
0.001425474
0.001414333
0.001403863
0.001391468
0.001378984
0.001367035
0.001354991
0.001343152
0.001331593
0.00132026
0.001309165
0.001298337
0.001287799
0.001277559
0.001267592
0.001257841
0.001248221
0.001238636
0.001228978
0.00121918
0.001209225
0.001199137
0.001188938
0.001178631
0.001168181
0.001157502
0.001146454
0.001134866
0.001122574
0.001109464
0.001095526
0.001080892
0.001065862
0.001050778
0.001035947
0.001021603
0.001007902
0.0009949376
0.0009827366
0.0009712358
0.0009602829
0.0009496517
0.0009390831
0.0009283113
0.0009171158
0.0009053598
0.0008930534
0.0008803408
0.0008675502
0.0008551253
0.0008436912
0.0008356556
0.0006968405
0.0006768738
0.0006531825
0.0006387574
0.0006288573
0.0006221986
0.000617424
0.0006130721
0.0006091685
0.0006038121
0.0005964931
0.0005863774
0.0005728568
0.0005554995
0.0005342712
0.000509676
0.0004830149
0.0004562896
0.000431992
0.0004126651
0.0004002594
0.0003954468
0.0003973628
0.0004038816
0.0004125306
0.0004211788
0.0004282518
0.0004325854
0.0004331595
0.0004293296
0.0004203135
0.000405
0.0003826392
0.0003539607
0.0003247458
0.0003129602
0.0003219475
0.0003555562
0.0003936582
0.000428651
0.0004591093
0.0004848773
0.0005056975
0.0005148612
0.0005193419
0.000524749
0.0005312922
0.0005390564
0.0005477557
0.0005568639
0.0005663223
0.0005759669
0.00058555
0.0005948532
0.0006037509
0.0006122733
0.0006204138
0.0006281422
0.0006354901
0.0006426165
0.0006497122
0.0006568876
0.0006641864
0.000671624
0.0006791996
0.0006869087
0.0006947464
0.0007027136
0.0007108435
0.0007192967
0.0009501182
0.000974791
0.001000106
0.001024526
0.001048554
0.001072206
0.001095557
0.001118617
0.00114138
0.0011638
0.001185807
0.001207308
0.001228181
0.001248277
0.001267407
0.001285342
0.001301809
0.00131649
0.001329042
0.001339132
0.001346468
0.001350818
0.001351961
0.001349629
0.001343488
0.001333158
0.001317993
0.001297582
0.001272015
0.001241196
0.001203669
0.001154202
0.001082082
0.0009753435
0.0008372207
0.0007261873
0.0006892621
0.0006328643
0.0006292115
0.000650531
0.0006809044
0.0007154073
0.0007558195
0.0008087068
0.000870647
0.0009380691
0.001007831
0.001062937
0.00111569
0.001160711
0.001196342
0.001225341
0.001248929
0.001269974
0.001290243
0.001309288
0.001332591
0.001359704
0.001389878
0.001422195
0.001455644
0.001489028
0.001521225
0.001551331
0.001578757
0.001603241
0.001624773
0.001643506
0.001659684
0.001673604
0.001685578
0.00169592
0.001704936
0.001712912
0.001720117
0.001726789
0.001733138
0.001739338
0.00174553
0.00175182
0.001758282
0.001764957
0.001771849
0.001778922
0.001786109
0.001793308
0.001800387
0.001807176
0.001813461
0.001818974
0.001823376
0.001826253
0.001827096
0.001825297
0.001820158
0.001810944
0.001796974
0.001777762
0.001753169
0.001723471
0.001689145
0.001650417
0.001607212
0.001559489
0.001507384
0.0014513
0.001391961
0.00133069
0.001271438
0.001216902
0.001168727
0.001127749
0.001094133
0.001067582
0.001047531
0.001033267
0.001024005
0.001018992
0.001017579
0.001019121
0.001022824
0.001027618
0.00103309
0.001039222
0.001046085
0.001054086
0.001063258
0.001073396
0.001084473
0.00109646
0.001109342
0.001123178
0.001138048
0.001154166
0.00117179
0.0011914
0.001213695
0.0012419
0.0009554799
5.004483e-05
5.351356e-05
6.157776e-05
7.149007e-05
8.177402e-05
9.184843e-05
0.000101543
0.0001108446
0.0001210835
0.000441244
0.0005823433
0.0007323779
0.0008787327
0.001014396
0.00113735
0.001248164
0.001348673
0.001440996
0.002063822
0.00215984
0.002259102
0.002356469
0.002451426
0.00254376
0.002633289
0.00271995
0.002803627
0.002883249
0.002960475
0.003034314
0.00310493
0.003174445
0.003243668
0.003312502
0.003380406
0.003447049
0.003512265
0.003561087
0.003594532
0.003631579
0.003673062
0.003718763
0.003767413
0.00381766
0.003868306
0.003918602
0.003968387
0.004019184
0.004069922
0.004121809
0.004175156
0.004229347
0.004283506
0.004336613
0.004387843
0.004436206
0.005207755
0.005249399
0.005290503
0.005332745
0.005376087
0.005419979
0.005463574
0.005505869
0.005546305
0.005584292
0.005620011
0.005654837
0.005689531
0.005724576
0.005760234
0.005796268
0.005832272
0.00586812
0.005904949
0.005936077
0.005953249
0.005966893
0.005981182
0.005991228
0.005995442
0.005995559
0.005993144
0.005987653
0.00597767
0.005961564
0.00594073
0.005917955
0.005894804
0.005872462
0.005851582
0.005832429
0.005815086
0.005800148
0.005787012
0.005775205
0.005763225
0.005753302
0.00574856
0.00574484
0.005730515
0.005703736
0.005660714
0.005594227
0.005521695
0.005469798
0.005423826
0.005381155
0.005341871
0.0053051
0.005270863
0.005238941
0.0052088
0.005179802
0.005151305
0.005122861
0.00509435
0.005065911
0.005037835
0.005010492
0.004984169
0.004958915
0.004934505
0.004910573
0.004886775
0.004862921
0.004839
0.004815165
0.004791719
0.004768972
0.004747073
0.00472594
0.004705323
0.004684921
0.004664486
0.004643887
0.004623134
0.004602373
0.004581843
0.004561747
0.004542139
0.004522895
0.004503785
0.004484569
0.00446509
0.004445317
0.004425351
0.004405373
0.004385557
0.00436598
0.004346648
0.004327517
0.004308489
0.004289791
0.004271074
0.004251313
0.004230552
0.004209238
0.004187528
0.004165641
0.004143733
0.00412192
0.004100358
0.004079236
0.004058751
0.004039047
0.004020165
0.004002025
0.003984429
0.003967057
0.003949539
0.003931574
0.003913
0.003893762
0.003873887
0.00385344
0.003832423
0.003810706
0.003788037
0.003764034
0.003738158
0.003709793
0.003678471
0.003644176
0.003607333
0.003568671
0.003528927
0.003488822
0.003448941
0.003409873
0.003372004
0.003335627
0.003300675
0.003267008
0.00323416
0.003201707
0.003168891
0.003135267
0.003100225
0.003063862
0.003026435
0.00298894
0.002952889
0.002921818
0.00282985
0.002701684
0.002603946
0.002530653
0.002476808
0.002438425
0.002412048
0.002394507
0.002382649
0.002372998
0.002361881
0.002345993
0.002322208
0.002287452
0.002239336
0.002176944
0.002101476
0.002016523
0.001927756
0.001841936
0.001765437
0.001702855
0.001656334
0.001625777
0.001609691
0.001605786
0.001611364
0.001623488
0.001639054
0.001654765
0.001666982
0.001671564
0.001664155
0.00164147
0.001604389
0.001560977
0.001521
0.001487717
0.001461348
0.00143509
0.001383838
0.001345549
0.001324621
0.001323917
0.001344133
0.001383468
0.001440725
0.001512999
0.001595078
0.001683999
0.001774077
0.001865695
0.001960969
0.00203784
0.002103813
0.002167056
0.002226921
0.002282905
0.002335204
0.00238475
0.002432574
0.002479416
0.002525744
0.002571847
0.002617902
0.002664035
0.002710328
0.002756862
0.002803694
0.00285033
0.00324874
0.00330807
0.003367346
0.003427394
0.003488385
0.003550482
0.003613931
0.00367892
0.003745548
0.003813823
0.003883629
0.003954708
0.004026624
0.004098756
0.004170299
0.004240254
0.00430743
0.004370478
0.004428006
0.004478724
0.004521547
0.004555538
0.004579738
0.004593143
0.004594636
0.004582704
0.004555551
0.004511516
0.004447957
0.004358878
0.004233959
0.004068052
0.003849659
0.003568871
0.003255204
0.002959902
0.002699054
0.002465353
0.00224847
0.002049554
0.00187749
0.001740657
0.001644405
0.001497107
0.001386402
0.001336216
0.001336919
0.001375231
0.001440214
0.001526718
0.001630644
0.001748252
0.001877073
0.001997094
0.002121044
0.002278243
0.002420379
0.002508242
0.002594262
0.002679153
0.002762808
0.002844367
0.002922989
0.002998072
0.003069249
0.003136346
0.003199353
0.003258397
0.00331371
0.003365597
0.003414416
0.003460558
0.003504433
0.003546463
0.003587073
0.003626679
0.003665685
0.003704467
0.003743368
0.00378269
0.003822683
0.003863537
0.003905366
0.003948207
0.003992013
0.004036652
0.004081901
0.004127436
0.004172816
0.004217475
0.004260718
0.004301693
0.004339367
0.004372508
0.00439971
0.004419468
0.004430301
0.004430901
0.004420281
0.004397838
0.004363281
0.004316424
0.00425697
0.004184389
0.004097969
0.003997066
0.003881479
0.003751762
0.003610058
0.003463446
0.003316752
0.003173466
0.003036457
0.002908008
0.002789935
0.002683637
0.002590101
0.002509875
0.002443061
0.002389317
0.002347949
0.002317991
0.002298335
0.002287793
0.002285235
0.002289548
0.002299751
0.002314578
0.002333403
0.002356527
0.002384849
0.002419443
0.002460597
0.00250811
0.002562303
0.002622961
0.002691592
0.0027705
0.002854608
3.240866e-05
3.967072e-05
5.061718e-05
6.362478e-05
7.918201e-05
9.792715e-05
0.000121044
0.0001501547
0.0001882304
0.0002557748
0.001043133
0.001216852
0.00140571
0.001600351
0.0017861
0.001923367
0.002060269
0.002210312
0.002503418
0.004587632
0.004820073
0.004960286
0.005083391
0.005190567
0.005286032
0.005370662
0.005445441
0.00551431
0.005596015
0.005758857
0.005938711
0.006084401
0.006190732
0.006266934
0.006322426
0.006363809
0.006395432
0.006425669
0.006329001
0.006306499
0.006320725
0.00635316
0.006393458
0.006435279
0.006475183
0.006511403
0.006543249
0.006570387
0.006591935
0.006610051
0.006626328
0.006641585
0.006656669
0.006672146
0.006688073
0.006702816
0.007476401
0.007492678
0.007502785
0.007509428
0.00751408
0.007517365
0.007519839
0.007521893
0.007524226
0.007527225
0.007530747
0.007535536
0.007542069
0.007549894
0.007558528
0.007567474
0.007576172
0.007584459
0.007592726
0.007600855
0.007609319
0.00761971
0.007632477
0.007647318
0.007663538
0.00768004
0.007695765
0.007710114
0.007723005
0.007735639
0.007749452
0.00776523
0.007783545
0.007804277
0.007826515
0.007848816
0.007869961
0.007890447
0.007893303
0.007897673
0.007904786
0.007915638
0.007930554
0.007949173
0.007970455
0.007992797
0.008014552
0.008034494
0.008052565
0.008069583
0.008086624
0.008104781
0.008124915
0.008147156
0.00817098
0.008195429
0.00821904
0.008238531
0.008250584
0.008256796
0.008260684
0.008262975
0.008263848
0.008263855
0.008263161
0.008260524
0.008254298
0.008243464
0.008227673
0.008206845
0.00818481
0.008163792
0.00814494
0.008128753
0.008114988
0.008103424
0.008092025
0.008080178
0.008068063
0.008056049
0.008045958
0.008036317
0.008019674
0.007994228
0.00796052
0.007915081
0.007863784
0.007818631
0.007778958
0.007740988
0.007704876
0.007670985
0.007639573
0.007610757
0.007584112
0.007558715
0.007533512
0.007507709
0.007480973
0.007453377
0.007425343
0.007397579
0.007370751
0.007345156
0.007320596
0.007296513
0.007272277
0.007247444
0.007221856
0.00719571
0.007169591
0.007144177
0.007119895
0.007096746
0.007074344
0.007052126
0.007029595
0.007006467
0.00698271
0.00695856
0.006934482
0.006910927
0.00688808
0.006865782
0.006843644
0.006821229
0.006798229
0.006774544
0.006750335
0.006725946
0.006701753
0.006677961
0.006654553
0.006631292
0.006608023
0.006584654
0.006561107
0.006536678
0.006511075
0.00648466
0.006457742
0.006430502
0.006403164
0.006375902
0.006348909
0.006322469
0.006296939
0.00627263
0.006249686
0.00622806
0.006207477
0.006187417
0.006167211
0.006146249
0.006124131
0.006100656
0.006075832
0.006049806
0.006022721
0.005994584
0.005965216
0.005934141
0.005900602
0.005863584
0.005822238
0.005776314
0.005726361
0.005673349
0.005618366
0.005562356
0.005506184
0.005450598
0.005396279
0.005343631
0.005292861
0.00524382
0.005196233
0.005149449
0.00510268
0.00505509
0.005005798
0.004954781
0.004901865
0.004848128
0.004794116
0.004743377
0.004694859
0.00465268
0.004618562
0.004592919
0.004575875
0.004566986
0.004565458
0.00457014
0.004578847
0.004588475
0.004595681
0.004596718
0.004587172
0.004562455
0.004518318
0.004451553
0.004360899
0.004247847
0.004116943
0.003975291
0.003831263
0.00369294
0.00356689
0.003457615
0.003367551
0.003297321
0.00324606
0.003211738
0.003191458
0.003181631
0.0031781
0.003176348
0.003171753
0.003160263
0.003139459
0.003108735
0.003067765
0.003015705
0.002952776
0.002881401
0.002805893
0.002731883
0.002665154
0.002610589
0.002532831
0.002445269
0.002381223
0.002344797
0.002338774
0.002363355
0.002415794
0.002489453
0.00257903
0.00268788
0.002812459
0.002944501
0.003077039
0.003192782
0.003274917
0.003357868
0.003441889
0.003527104
0.003613564
0.003701215
0.003790032
0.003879873
0.003970825
0.004062598
0.004155866
0.004250477
0.004339723
0.004431181
0.004524894
0.004620524
0.004718267
0.004818524
0.004921686
0.005028035
0.005137715
0.005250707
0.005366777
0.005485463
0.005606033
0.005727473
0.005848513
0.005967622
0.006082999
0.006192629
0.006294537
0.006387021
0.006468771
0.006538781
0.006596092
0.006639566
0.006667805
0.006679132
0.006671658
0.006643322
0.006591325
0.006510812
0.006392623
0.006230356
0.006017085
0.005745027
0.00542763
0.005092436
0.004748476
0.004390896
0.004020257
0.003645286
0.003281068
0.002947058
0.002662199
0.002438327
0.002277466
0.002174224
0.002121426
0.002109017
0.002107364
0.002022275
0.001997028
0.002018713
0.002075527
0.002158985
0.002269342
0.002389227
0.002508623
0.002634405
0.002768653
0.002907117
0.003046848
0.003182778
0.003299686
0.003397472
0.003492387
0.003584106
0.003672418
0.003757252
0.003838666
0.003916821
0.003991984
0.004064474
0.004134672
0.004203002
0.004269925
0.004335923
0.004401513
0.004467191
0.004533443
0.004600722
0.004669424
0.004739892
0.004812353
0.004886932
0.004963642
0.005042368
0.005122868
0.005204748
0.005287445
0.005370237
0.005452228
0.00553234
0.005609261
0.005681404
0.005746948
0.005803909
0.005850305
0.005884353
0.005904694
0.005910541
0.005901649
0.00587806
0.005839744
0.005786298
0.005716897
0.005630566
0.005526631
0.005405177
0.005267175
0.005114766
0.004953674
0.004787599
0.004619652
0.004452649
0.004289307
0.004132319
0.003984315
0.003847716
0.003724571
0.003616407
0.003524179
0.003448263
0.003388572
0.003344612
0.00331571
0.003300978
0.00329956
0.003310483
0.003333024
0.003366199
0.003408734
0.003458886
0.003517576
0.003587071
0.003667306
0.003758741
0.003860889
0.003973422
0.004089527
4.067273e-05
6.60141e-05
0.0001473926
0.0004998449
0.0008627313
0.00155428
0.00208766
0.002737341
0.003484288
0.004098224
0.004548633
0.004909425
0.00526509
0.005622349
0.005988963
0.006357513
0.006727245
0.0070796
0.007407037
0.007725499
0.008029622
0.008305539
0.008529121
0.008712109
0.008874613
0.009015488
0.00913196
0.009222396
0.009286676
0.009339252
0.009410372
0.009384178
0.009079142
0.00883877
0.008626685
0.008452255
0.008316358
0.00821857
0.008159608
0.00813232
0.00811895
0.008139903
0.008192439
0.008270252
0.008368317
0.008483429
0.008612532
0.008751966
0.008898479
0.009060454
0.009231344
0.009385175
0.009570551
0.009786476
0.00984398
0.009856575
0.00986605
0.009873035
0.009877892
0.009880441
0.009880335
0.009877422
0.0098718
0.009863831
0.009854472
0.009844313
0.009834668
0.009826542
0.00979764
0.009773292
0.009752377
0.009733721
0.009716598
0.009700602
0.009685545
0.009671389
0.00965826
0.00964638
0.009636111
0.009628068
0.009622511
0.009619245
0.009617784
0.009617348
0.00961697
0.009615933
0.009614105
0.009611932
0.009610504
0.009611279
0.009615328
0.009623057
0.009633916
0.00964629
0.009658251
0.009668399
0.009676438
0.009683361
0.009690927
0.009700925
0.009714739
0.009732702
0.009753778
0.009775475
0.009795608
0.009812615
0.009826052
0.009837672
0.009849751
0.009864479
0.009883425
0.009906964
0.009934017
0.009962273
0.009989097
0.01
0.01
0.01
0.01
0.01
0.01
0.01
0.01
0.01
0.01
0.01
0.01
0.01
0.01
0.01
0.01
0.01
0.01
0.01
0.01
0.01
0.01
0.01
0.01
0.01
0.01
0.01
0.01
0.01
0.01
0.01
0.01
0.01
0.01
0.01
0.01
0.01
0.01
0.01
0.009972969
0.009939494
0.009906773
0.009874602
0.009843131
0.009813298
0.009785992
0.009761872
0.00974071
0.009721372
0.009702338
0.009682353
0.009660784
0.009637521
0.009612947
0.009588105
0.009564194
0.009541891
0.009521051
0.009500845
0.009480214
0.009458345
0.00943482
0.009409681
0.009383755
0.009358192
0.009333794
0.009310713
0.009288462
0.009266202
0.009243121
0.009218691
0.009192732
0.009165519
0.009137788
0.009110348
0.009083646
0.009057568
0.009031567
0.009004984
0.008977337
0.008948439
0.008918463
0.008887923
0.008857447
0.008827435
0.008797927
0.008768697
0.00873948
0.008710057
0.008680253
0.008649775
0.008618401
0.008586158
0.008553282
0.00852011
0.008486906
0.008453784
0.008420771
0.00838794
0.008355757
0.008324684
0.008294976
0.008266629
0.008239357
0.008212519
0.008185146
0.008156281
0.008125268
0.008091795
0.008055875
0.008017774
0.007977839
0.007936434
0.007893841
0.007849987
0.007804278
0.007755658
0.007703103
0.00764626
0.007585724
0.007522682
0.00745844
0.007394067
0.007330425
0.007268221
0.007208112
0.007150508
0.00709559
0.007043253
0.00699327
0.006945049
0.006897698
0.006850052
0.006800968
0.006749741
0.006696161
0.006640686
0.006584283
0.006528818
0.006476442
0.006428063
0.00638569
0.006351321
0.006326301
0.006310873
0.006304725
0.006306971
0.006314728
0.006324305
0.006332346
0.006334653
0.006325645
0.006299943
0.006252675
0.006179775
0.006078866
0.005950183
0.005797124
0.005626054
0.005445293
0.005263686
0.005089326
0.004928747
0.004786592
0.004665566
0.004566571
0.004488971
0.004430883
0.004389434
0.004360991
0.004341556
0.004326732
0.004312221
0.004294296
0.004269755
0.004235315
0.004187349
0.004123117
0.004041895
0.003945221
0.003837624
0.003724862
0.003614307
0.003513319
0.003428005
0.003362737
0.003319855
0.003299725
0.003301137
0.003321717
0.003358334
0.003407691
0.003466567
0.003531179
0.00359769
0.003668109
0.003745424
0.003829179
0.003918818
0.004013855
0.004113793
0.004218138
0.004326356
0.004437962
0.004552452
0.004669478
0.004788653
0.004909881
0.005032911
0.005157299
0.005283708
0.005412603
0.005544132
0.005678617
0.005816515
0.005958276
0.00610425
0.006254624
0.006409344
0.006568034
0.006729952
0.006893962
0.007058562
0.007221993
0.007382227
0.007536909
0.007683468
0.007819522
0.007943332
0.008053879
0.008150582
0.008232804
0.008299491
0.008349209
0.008380291
0.008390965
0.008379426
0.008343644
0.008280625
0.008185257
0.008051277
0.007876223
0.007655314
0.007390655
0.007090641
0.006758001
0.006388612
0.005981056
0.005540221
0.005077937
0.00461383
0.004172921
0.003778895
0.003447487
0.003185436
0.002989091
0.002851208
0.002762414
0.002713442
0.00269634
0.002704059
0.002732312
0.002776964
0.002834813
0.002891869
0.002948513
0.003029402
0.003127922
0.003237137
0.003351968
0.003451973
0.003552265
0.003653575
0.003755482
0.003857234
0.003958221
0.004057989
0.004156241
0.004252827
0.004347729
0.004441047
0.004532984
0.004623834
0.004713971
0.004803847
0.004893971
0.004984894
0.005077172
0.00517134
0.005267877
0.00536717
0.005469495
0.005574988
0.005683641
0.005795284
0.005909574
0.006025973
0.006143734
0.006261911
0.006379381
0.006494818
0.00660661
0.006712811
0.00681118
0.006899321
0.00697489
0.007035863
0.007080835
0.007109243
0.00712136
0.007117963
0.007099739
0.00706678
0.007018446
0.006953664
0.006871522
0.006771908
0.006655792
0.006524737
0.006381576
0.006229072
0.006069242
0.00590406
0.005735734
0.005566836
0.005400294
0.005239268
0.005086946
0.004946302
0.004819915
0.004709845
0.004617588
0.004544064
0.00448971
0.004454521
0.004438217
0.004440255
0.004460015
0.004496686
0.00454945
0.004617295
0.004698567
0.00479071
0.004895066
0.005013113
0.005143949
0.005285184
0.005428266
2.287498e-05
3.706361e-05
5.600834e-05
0.0002441304
0.0004001881
0.0006801495
0.0009568032
0.001210943
0.001531069
0.001844154
0.002183949
0.002625646
0.003149635
0.003745097
0.004417223
0.005277357
0.006902308
0.007559671
0.008191186
0.008758086
0.00925311
0.0096737
0.01
0.01
0.01
0.01
0.01
0.01
0.01
0.01
0.01
0.01
0.01
0.01
0.01
0.01
0.01
0.01
0.00998447
0.009532089
0.008968224
0.008459891
0.008278963
0.008024444
0.007767497
0.007553093
0.007381243
0.007249746
0.00715653
0.007099321
0.007072903
0.007073199
0.00710207
0.007163193
0.007255022
0.007373167
0.007514988
0.007676639
0.007852435
0.008040528
0.008235455
0.008443863
0.008672119
0.008934047
0.009242168
0.009592254
0.00999205
0.01
0.01
0.01
0.01
0.01
0.01
0.01
0.01
0.01
0.01
0.01
0.01
0.01
0.01
0.01
0.01
0.01
0.01
0.01
0.01
0.01
0.01
0.01
0.01
0.01
0.01
0.01
0.01
0.01
0.01
0.01
0.01
0.01
0.01
0.01
0.01
0.01
0.01
0.01
0.01
0.01
0.01
0.01
0.01
0.01
0.01
0.01
0.01
0.01
0.01
0.01
0.01
0.01
0.01
0.01
0.01
0.01
0.01
0.01
0.01
0.01
0.01
0.01
0.01
0.01
0.01
0.01
0.01
0.01
0.01
0.01
0.01
0.01
0.01
0.01
0.01
0.01
0.01
0.01
0.01
0.01
0.01
0.01
0.01
0.01
0.01
0.01
0.01
0.01
0.01
0.01
0.01
0.01
0.01
0.01
0.01
0.01
0.01
0.01
0.01
0.01
0.01
0.01
0.01
0.01
0.01
0.01
0.01
0.01
0.01
0.01
0.01
0.01
0.01
0.01
0.01
0.01
0.01
0.01
0.01
0.01
0.01
0.01
0.01
0.01
0.01
0.01
0.01
0.01
0.01
0.01
0.01
0.01
0.01
0.01
0.01
0.01
0.01
0.01
0.01
0.01
0.01
0.01
0.01
0.01
0.01
0.01
0.01
0.01
0.01
0.01
0.01
0.01
0.01
0.01
0.01
0.009999142
0.009952601
0.009905342
0.009857616
0.00980943
0.009760486
0.009710256
0.009657885
0.009601992
0.009541582
0.009476303
0.009406226
0.009331843
0.009253939
0.009173365
0.009091116
0.009008483
0.00892678
0.008846875
0.008768839
0.008692137
0.008616397
0.008541965
0.008469804
0.008401091
0.008336748
0.008277292
0.008222968
0.008173925
0.008130114
0.008091199
0.008056623
0.008025853
0.007998292
0.007973051
0.00794879
0.007923911
0.007897064
0.007867516
0.007835127
0.007800365
0.007764243
0.007728279
0.007693913
0.007662717
0.00763653
0.007616914
0.007604595
0.007599835
0.007602258
0.007610012
0.007620366
0.00763065
0.00763739
0.007636407
0.007623539
0.007594363
0.007544327
0.00746933
0.007366717
0.00723643
0.007081667
0.006908575
0.006725106
0.006539655
0.006359985
0.00619251
0.006041972
0.005911317
0.005801791
0.005713155
0.005643938
0.005591737
0.005553448
0.005525479
0.00550392
0.005484719
0.005463675
0.005436248
0.005397552
0.005342962
0.005268959
0.005173808
0.005058083
0.004925386
0.004782238
0.004636201
0.00449561
0.004368092
0.004259619
0.004174041
0.004113104
0.004076757
0.004063599
0.004071392
0.004097431
0.004138778
0.004192381
0.004254526
0.00432249
0.004400196
0.004488307
0.004585871
0.004691997
0.004805801
0.004926361
0.005052788
0.005184224
0.005319927
0.005459245
0.005601703
0.005747038
0.005895073
0.006045985
0.00620021
0.00635817
0.006520327
0.006687197
0.006859244
0.007036772
0.007219837
0.00740812
0.007600837
0.007796734
0.007994082
0.008190763
0.008384548
0.008573025
0.008753456
0.008922807
0.009078284
0.009218888
0.009344457
0.009455179
0.009550814
0.009630321
0.009692139
0.009734591
0.009756129
0.009755426
0.00973123
0.009681946
0.009605078
0.009496839
0.009356706
0.009182381
0.008973148
0.008729365
0.008448522
0.008126336
0.007759122
0.007346348
0.006892509
0.006409315
0.005915907
0.005435528
0.004989972
0.004595197
0.004259294
0.003983793
0.003765384
0.003598181
0.003475574
0.003391137
0.003339203
0.003314914
0.003314219
0.003333769
0.003370784
0.003422899
0.003488056
0.003564342
0.003649849
0.003742586
0.003840338
0.003940635
0.004043517
0.004149481
0.004257547
0.004366918
0.004477013
0.004587442
0.004697976
0.00480852
0.004919106
0.005029881
0.005141103
0.005253138
0.005366439
0.005481518
0.005598905
0.0057191
0.005842535
0.005969532
0.006100262
0.006234733
0.006372781
0.00651406
0.00665802
0.006803884
0.006950646
0.007097105
0.007241916
0.007383536
0.007520072
0.00764923
0.007768403
0.007874888
0.007966167
0.008040242
0.008096018
0.008133609
0.008154309
0.008160006
0.008152245
0.008131563
0.008097445
0.008048776
0.007984555
0.007904658
0.007810257
0.007703167
0.007584894
0.007456792
0.007319702
0.007174538
0.007022612
0.006865796
0.00670655
0.006547844
0.006393002
0.006245495
0.006108726
0.005985829
0.005879505
0.005791919
0.005724667
0.005678767
0.005654737
0.005652637
0.005672201
0.005712848
0.005773802
0.005854043
0.00595226
0.006066769
0.006194304
0.006332537
0.006482641
0.006642074
0.00679901
2.098679e-05
3.23395e-05
6.442888e-05
0.0001952757
0.0003137034
0.0004986119
0.0006387258
0.0007974718
0.0009844933
0.001166905
0.001380507
0.001656897
0.001972344
0.002348503
0.002838388
0.003780767
0.00422521
0.004704264
0.005209118
0.005738395
0.006297112
0.006875542
0.007456994
0.008025679
0.008564334
0.009065531
0.009544595
0.01
0.01
0.01
0.01
0.01
0.01
0.01
0.01
0.01
0.01
0.01
0.01
0.01
0.01
0.01
0.01
0.01
0.01
0.01
0.009799321
0.009334025
0.008859899
0.008400722
0.007968631
0.007575367
0.007257336
0.006961622
0.006728853
0.006553411
0.006424756
0.006338183
0.006290598
0.006278072
0.006297091
0.006346529
0.006427216
0.006543085
0.006695894
0.006887963
0.007118967
0.007386008
0.007689432
0.00800576
0.008323595
0.008653804
0.008998522
0.009379637
0.009840891
0.01
0.01
0.01
0.01
0.01
0.01
0.01
0.01
0.01
0.01
0.01
0.01
0.01
0.01
0.01
0.01
0.01
0.01
0.01
0.01
0.01
0.01
0.01
0.01
0.01
0.01
0.01
0.01
0.01
0.01
0.01
0.01
0.01
0.01
0.01
0.01
0.01
0.01
0.01
0.01
0.01
0.01
0.01
0.01
0.01
0.01
0.01
0.01
0.01
0.01
0.01
0.01
0.01
0.01
0.01
0.01
0.01
0.01
0.01
0.01
0.01
0.01
0.01
0.01
0.01
0.01
0.01
0.01
0.01
0.01
0.01
0.01
0.01
0.01
0.01
0.01
0.01
0.01
0.01
0.01
0.01
0.01
0.01
0.01
0.01
0.01
0.01
0.01
0.01
0.01
0.01
0.01
0.01
0.01
0.01
0.01
0.01
0.01
0.01
0.01
0.01
0.01
0.01
0.01
0.01
0.01
0.01
0.01
0.01
0.01
0.01
0.01
0.01
0.01
0.01
0.01
0.01
0.01
0.01
0.01
0.01
0.01
0.01
0.01
0.01
0.01
0.01
0.01
0.01
0.01
0.01
0.01
0.01
0.01
0.01
0.01
0.01
0.01
0.01
0.01
0.01
0.01
0.01
0.01
0.01
0.01
0.01
0.01
0.01
0.01
0.01
0.01
0.01
0.01
0.01
0.01
0.01
0.01
0.01
0.01
0.01
0.01
0.01
0.01
0.01
0.01
0.009926346
0.009789731
0.009649598
0.009507293
0.009364011
0.009220841
0.009078641
0.008938515
0.008802531
0.008673581
0.008554455
0.008447002
0.008351237
0.008265574
0.008188532
0.008119676
0.008059499
0.00800862
0.007967078
0.007934424
0.007910148
0.007893712
0.007884302
0.007880914
0.007882788
0.007889526
0.007900777
0.007915742
0.007932941
0.007950698
0.007967791
0.00798348
0.007997336
0.008009172
0.008018403
0.00802541
0.008030813
0.008035039
0.008038494
0.008041327
0.008043542
0.008045109
0.008046052
0.008046505
0.008046754
0.008046972
0.008047337
0.00804772
0.008047254
0.008043771
0.008033261
0.008009843
0.00796667
0.00789827
0.007803822
0.007687666
0.007556519
0.007417906
0.007279104
0.007146382
0.007024588
0.006917004
0.006825388
0.006750147
0.006690574
0.006645077
0.006611338
0.006586437
0.006566964
0.00654904
0.006528269
0.006499808
0.006458686
0.006400292
0.006320913
0.006218402
0.006092966
0.005947525
0.005787884
0.005621691
0.005457423
0.005303176
0.005165709
0.005049934
0.004958796
0.004893419
0.004853465
0.00483754
0.004843593
0.004869213
0.004911683
0.004967767
0.005033235
0.005110579
0.005201354
0.005304302
0.005418089
0.005541473
0.005673231
0.005812206
0.005957359
0.006107822
0.006262945
0.006422344
0.006585877
0.006753682
0.00692619
0.007103959
0.007287571
0.007477562
0.007674274
0.007877731
0.008087588
0.008302994
0.0085225
0.008744207
0.008965726
0.009184031
0.009396648
0.009601399
0.009795653
0.009976714
0.01
0.01
0.01
0.01
0.01000003
0.01000016
0.01000065
0.01000062
0.01000023
0.01000003
0.01
0.01
0.01
0.01
0.01
0.01
0.01
0.01
0.009801798
0.00953454
0.009227945
0.008878627
0.008484919
0.008051132
0.007587678
0.007109965
0.006636003
0.006183074
0.00576513
0.005391469
0.005066622
0.004791183
0.00456325
0.004379675
0.004236721
0.0041305
0.004057244
0.004013438
0.003995874
0.004001652
0.004028136
0.004072885
0.004133583
0.004207964
0.00429373
0.004388388
0.004488784
0.004592884
0.004702227
0.004816167
0.004933658
0.005053941
0.005176494
0.005300983
0.005427236
0.005555229
0.00568508
0.005817038
0.005951449
0.006088711
0.00622922
0.00637331
0.006521213
0.006673008
0.00682859
0.006987679
0.007149824
0.007314413
0.007480645
0.007647505
0.007813775
0.007978083
0.008138891
0.008294479
0.00844278
0.008581245
0.008707006
0.008817209
0.00890938
0.00898183
0.009034114
0.009067389
0.00908427
0.009087914
0.009080648
0.009063175
0.009034825
0.008994333
0.008940683
0.008873865
0.00879526
0.008706875
0.008609896
0.008504635
0.008391011
0.008269097
0.008139465
0.008003341
0.007862614
0.007719786
0.007577866