/*--------------------------------*- C++ -*----------------------------------*\
| =========                 |                                                 |
| \\      /  F ield         | foam-extend: Open Source CFD                    |
|  \\    /   O peration     | Version:     3.1                                |
|   \\  /    A nd           | Web:         http://www.extend-project.de       |
|    \\/     M anipulation  |                                                 |
\*---------------------------------------------------------------------------*/
FoamFile
{
    version     2.0;
    format      ascii;
    class       volScalarField;
    location    "19.5";
    object      p;
}
// * * * * * * * * * * * * * * * * * * * * * * * * * * * * * * * * * * * * * //

dimensions      [1 -1 -2 0 0 0 0];

internalField   nonuniform List<scalar> 
119952
(
4811.114
3041.767
2782.32
3017.597
3269.035
3033.058
2954.532
2889.665
2844.585
2808.36
2777.022
2749.639
2725.128
2702.55
2680.789
2658.486
2635.021
2608.175
2562.477
2434.385
2842.234
2598.305
2473.922
3026.79
2973.721
3006.62
3052.943
3190.374
3664.173
7148.991
2711.977
2657.176
2655.001
2646.087
2638.037
2630.685
2627.584
2625.227
2624.67
2593.713
2564.716
2577.598
2565.125
2556.681
2549.084
2543.427
2539.553
2536.405
2533.823
2522.695
2515.925
2490.31
2481.487
2479.021
2476.64
2476.021
2477.2
2477.918
2486.795
2482.718
2480.554
2489.882
2499.013
2508.124
2519.068
2532.841
2559.124
2649.064
2840.19
2683.741
2616.934
2707.394
2743.993
2708.566
2642.865
2594.979
2557.715
2524.703
2495.581
2470.491
2447.906
2426.752
2406.455
2386.396
2365.906
2344.464
2323.471
2310.44
2332.818
2359.178
2349.549
2468.332
2652.856
2688.58
2697.938
2708.572
2611.465
2268.154
2176.454
2253.176
2273.249
2288.57
2305.986
2317.436
2325.764
2332.975
2339.417
2345.33
2350.801
2355.798
2360.317
2364.379
2368.043
2371.438
2374.721
2378.022
2381.401
2384.841
2388.285
2391.676
2394.951
2398.072
2401.085
2404.093
2407.206
2410.495
2413.984
2417.656
2421.487
2425.449
2429.514
2433.685
2438.012
2442.572
2447.428
2452.612
2458.114
2463.906
2469.943
2476.172
2482.547
2489.032
2495.561
2501.973
2507.983
2513.931
2523.784
2540.411
2556.948
2562.657
2568.199
2576.074
2584.288
2592.921
2602.089
2611.73
2621.802
2632.236
2642.942
2653.823
2664.786
2675.775
2686.793
2697.864
2708.997
2720.226
2731.631
2743.336
2755.488
2768.261
2781.856
2796.487
2812.339
2829.541
2848.155
2868.171
2889.56
2912.297
2936.466
2962.19
2989.593
3018.78
3049.826
3082.801
3117.744
3154.683
3193.605
3234.478
3277.229
3321.739
3367.947
3415.65
3464.7
3514.645
3564.792
3614.232
3665.444
3751.602
3815.376
3861.262
3906.99
3951
3992.979
4032.13
4070.176
4105.953
4141.253
4176.794
4213.509
4252.193
4293.53
4337.738
4384.592
4433.359
4483.031
4532.667
4581.926
4631.411
4682.349
4735.602
4791.169
4848.451
4906.735
4965.465
5024.266
5082.826
5140.77
5197.587
5252.477
5304.073
5349.689
5384.527
5412.799
5466.848
5522.35
5579.419
5630.859
5677.803
5720.71
5759.466
5794.14
5825.567
5854.794
5882.559
5909.571
5936.3
5963.089
5990.112
6017.526
6045.32
6073.388
6101.483
6129.417
6157.032
6184.136
6210.51
6235.969
6260.395
6283.706
6305.819
6326.645
6346.093
6364.073
6380.503
6395.329
6408.812
6421.956
6408.882
6414.147
6411.901
6413.308
6415.217
6414.658
6412.387
6408.825
6403.906
6397.625
6390.07
6381.364
6371.649
6361.078
6349.805
6338
6325.84
6313.509
6301.204
6289.14
6277.552
6266.679
6256.764
6248.073
6240.883
6235.461
6232.024
6230.638
6231.827
6235.563
6242.384
6253.883
6270.607
6287.701
6289.622
6256.73
6231.803
6249.965
6283.969
6314.005
6338.91
6358.752
6367.626
6364.448
6354.657
6344.4
6335.575
6331.701
6334.302
6342.898
6354.253
6366.647
6378.367
6386.13
6390.579
6402.896
6412.978
6421.289
6429.972
6438.9
6448.263
6458.151
6468.42
6478.876
6489.31
6499.525
6509.349
6518.638
6527.273
6535.16
6542.23
6548.433
6553.741
6558.14
6561.634
6564.238
6565.98
6566.897
6567.035
6566.449
6565.199
6563.349
6560.965
6558.115
6554.861
6551.262
6547.375
6543.251
6538.936
6534.477
6529.914
6525.29
6520.641
6516.002
6511.403
6506.868
6502.427
6498.102
6493.908
6489.835
6485.9
6482.198
6478.857
6475.842
6473.106
6470.59
6468.239
6465.989
6463.795
6461.73
6459.682
6457.666
6455.664
6453.632
6451.516
6449.264
6446.829
6444.215
6441.375
6438.32
6435.041
6431.559
6427.857
6423.917
6419.732
6415.206
6410.266
6404.802
6398.779
6391.985
6384.294
6375.395
6365.058
6352.656
6337.315
6318.17
6299.869
6312.057
6407.105
5064.874
4914.969
4736.753
4570.143
4410.901
4259.467
4116.329
3981.24
3855.808
3709.342
3596.874
3495.179
3398.692
3309.75
3228.682
3154.365
3087.451
3020.812
2920.816
2893.126
2835.673
2782.44
2740.446
2704.052
2671.007
2641.188
2612.778
2588.014
2569.034
2533.223
2511.906
2494.683
2477.327
2462.134
2448.425
2435.16
2424.365
2421.196
2392.281
2372.096
2362.973
2354.318
2345.27
2337.517
2330.466
2323.721
2316.921
2302.903
2297.509
2291.527
2283.393
2275.255
2268.584
2263.466
2260.169
2265.308
2177.604
2175.032
2175.977
2174.763
2171.241
2167.528
2165.724
2166.219
2168.233
2170.071
2174.524
2181.134
2187.156
2193.416
2202.424
2216.116
2237.333
2270.999
2312.188
2347.344
2350.621
2335.375
2331.732
2330.407
2316.48
2287.942
2253.698
2221.307
2193.409
2169.819
2148.881
2129.296
2110.609
2092.746
2075.811
2060.372
2048.029
2040.992
2042.449
2055.587
2081.441
2120.862
2173.659
2232.761
2271.464
2272.769
2236.969
2167.047
2072.628
1999.768
1980.43
1988.246
2001.491
2012.712
2020.21
2025.537
2030.639
2036.087
2041.574
2046.765
2051.511
2055.799
2059.586
2062.925
2066.029
2069.123
2072.354
2075.753
2079.246
2082.716
2086.166
2089.446
2092.452
2095.329
2098.246
2101.329
2104.632
2108.15
2111.854
2115.73
2119.768
2123.865
2128.011
2132.311
2136.871
2141.765
2147.022
2152.626
2158.55
2164.747
2171.144
2177.695
2184.412
2191.317
2198.478
2206.131
2214.694
2224.284
2234.725
2244.94
2253.998
2262.308
2270.543
2279.014
2287.96
2297.455
2307.446
2317.869
2328.649
2339.658
2350.728
2361.728
2372.623
2383.465
2394.314
2405.195
2416.18
2427.371
2438.852
2450.78
2463.363
2476.794
2491.271
2507.029
2524.28
2543.131
2563.497
2585.261
2608.443
2633.168
2659.563
2687.739
2717.715
2749.539
2783.231
2818.835
2856.324
2895.682
2936.901
2979.915
3024.751
3071.334
3119.762
3169.841
3221.652
3275.177
3330.61
3386.515
3496.816
3550.339
3598.989
3645.117
3689.105
3729.933
3767.688
3803.061
3836.536
3869.263
3902.448
3937.014
3973.844
4013.73
4056.989
4103.423
4152.462
4203.335
4255.332
4308.069
4361.619
4416.235
4472.156
4529.293
4587.191
4645.395
4703.546
4761.391
4818.674
4875.046
4930.087
4983.069
5032.903
5078.646
5120.845
5162.902
5211.411
5265.405
5318.901
5368.737
5414.877
5457.091
5495.348
5529.747
5560.906
5589.671
5616.687
5642.642
5668.423
5694.276
5720.823
5747.608
5774.703
5802.071
5829.387
5856.62
5883.595
5910.099
5935.878
5960.7
5984.519
6007.245
6028.792
6049.054
6067.945
6085.354
6101.26
6115.576
6128.6
6145.9
6080.709
6088.886
6098.543
6102.647
6102.525
6100.38
6097.033
6092.584
6086.931
6080.01
6071.856
6062.591
6052.374
6041.364
6029.72
6017.615
6005.236
5992.776
5980.443
5968.458
5957.05
5946.461
5936.937
5928.673
5921.873
5916.712
5913.454
5912.166
5913.219
5916.7
5922.376
5930.344
5939.843
5944.152
5949.103
5942.604
5934.483
5952.764
5978.144
5999.358
6019.793
6035.4
6043.871
6043.962
6038.53
6033.1
6030.834
6033.094
6039.866
6049.683
6060.388
6070.836
6080.496
6088.895
6095.535
6102.282
6110.381
6119.366
6127.86
6136.404
6145.498
6155.116
6165.125
6175.255
6185.298
6195.095
6204.485
6213.329
6221.513
6228.949
6235.568
6241.327
6246.196
6250.165
6253.237
6255.426
6256.762
6257.282
6257.031
6256.066
6254.448
6252.246
6249.53
6246.367
6242.82
6238.952
6234.816
6230.464
6225.942
6221.291
6216.554
6211.776
6206.998
6202.252
6197.569
6192.974
6188.497
6184.168
6180.03
6176.122
6172.47
6169.146
6166.203
6163.626
6161.355
6159.324
6157.471
6155.758
6154.092
6152.549
6151.04
6149.577
6148.093
6146.514
6144.796
6142.91
6140.816
6138.501
6135.952
6133.154
6130.116
6126.822
6123.262
6119.416
6115.263
6110.725
6105.758
6100.356
6094.194
6087.407
6079.981
6071.393
6062.058
6051.979
6042.199
6034.531
6031.772
6033.437
6040.723
2874.974
2944.203
3036.144
3147.373
3275.97
3420.802
3581.056
3756.338
3944.761
4141.244
4331.351
4545.31
4762.868
4983.76
5205.428
5422.334
5632.74
5830.845
6012.92
6162.663
6301.939
6415.815
6502.718
6560.625
6588.087
6584.683
6550.875
6488.34
6402.378
6288.841
6155.329
6003.19
5837.69
5662.281
5480.325
5294.89
5109.135
4926.128
4734.164
4557.762
4385.399
4219.093
4060.553
3909.233
3765.987
3631.529
3506.852
3390.425
3278.627
3178.536
3086.283
3000.31
2921.543
2849.21
2783.48
2732.763
2577.23
2526.228
2486.505
2448.348
2411.09
2376.376
2344.88
2316.181
2289.607
2263.975
2239.394
2218.05
2198.223
2179.271
2162.049
2147.089
2133.871
2121.495
2108.94
2095.485
2082.49
2069.551
2056.744
2045.011
2035.265
2027.314
2020.206
2012.915
2004.843
1996.884
1988.636
1979.568
1970.711
1962.989
1956.867
1952.034
1947.45
1942.8
1937.496
1934.267
1931.066
1925.773
1920.2
1915.561
1913.499
1914.128
1916.542
1920.338
1924.982
1929.47
1934.178
1940.193
1948.757
1961.119
1978.376
2001.091
2027.089
2051.307
2061.719
2054.764
2044.94
2039.13
2028.499
2007.555
1980.423
1953.802
1930.512
1910.603
1892.944
1876.247
1860.017
1844.479
1830.36
1818.356
1809.856
1806.917
1810.717
1822.727
1843.865
1871.985
1905.368
1940.273
1962.663
1962.056
1938.071
1896.512
1840.156
1786.676
1761.087
1761.04
1769.435
1777.193
1782.069
1785.247
1788.844
1793.376
1798.315
1803.117
1807.555
1811.816
1815.551
1818.531
1821.225
1824.03
1827.126
1830.511
1834.041
1837.46
1841.148
1844.664
1847.509
1850.149
1852.871
1855.827
1859.085
1862.615
1866.342
1870.233
1874.354
1878.447
1882.491
1886.669
1891.142
1896.003
1901.259
1906.876
1912.858
1919.206
1925.788
1932.531
1939.508
1946.81
1954.485
1962.553
1970.932
1979.642
1988.826
1998.529
2007.989
2016.562
2024.611
2032.948
2041.971
2051.682
2061.974
2072.756
2083.926
2095.309
2106.639
2117.685
2128.41
2138.961
2149.479
2159.971
2170.528
2181.32
2192.362
2203.751
2215.694
2228.454
2242.328
2257.586
2274.396
2292.965
2313.272
2335.03
2358.239
2383.043
2409.622
2438.077
2468.386
2500.515
2534.458
2570.218
2607.751
2647.041
2688.125
2730.956
2775.619
2822.166
2870.942
2921.956
2975.314
3030.71
3086.887
3143.257
3200.038
3258.754
3314.003
3363.825
3408.102
3447.377
3481.972
3512.654
3540.752
3567.162
3595.056
3625.559
3658.06
3694.508
3735.703
3781.298
3830.777
3883.504
3938.791
3996.039
4054.78
4114.636
4175.206
4236.035
4296.666
4356.703
4415.845
4473.872
4530.62
4585.902
4639.472
4691.053
4740.404
4787.566
4833.444
4879.826
4928.282
4978.481
5028.573
5076.736
5122.025
5163.943
5202.246
5237.328
5269.652
5299.633
5327.893
5354.996
5381.513
5407.823
5434.101
5460.275
5486.821
5512.683
5538.861
5564.969
5590.794
5615.72
5640.141
5663.888
5686.751
5708.587
5729.271
5748.676
5766.693
5783.209
5798.16
5811.425
5822.965
5832.025
5837.524
5843.214
5848.58
5850.931
5850.488
5848.223
5844.623
5839.803
5833.737
5826.405
5817.857
5808.204
5797.599
5786.199
5774.168
5761.694
5748.98
5736.227
5723.648
5711.492
5699.976
5689.285
5679.646
5671.258
5664.244
5658.791
5655.133
5653.299
5653.334
5655.431
5659.521
5664.996
5671.287
5677.125
5681.925
5682.047
5683.688
5697.45
5717.783
5736.405
5754.276
5769.411
5779.994
5786.027
5789.027
5790.558
5791.909
5794.503
5799.918
5808.653
5819.52
5830.828
5841.466
5850.955
5859.875
5868.087
5875.339
5882.17
5889.266
5897.106
5905.597
5914.685
5924.052
5933.635
5943.217
5952.584
5961.566
5970.023
5977.843
5984.932
5991.221
5996.663
6001.228
6004.903
6007.686
6009.591
6010.642
6010.875
6010.335
6009.075
6007.16
6004.66
6001.647
5998.193
5994.363
5990.219
5985.816
5981.204
5976.428
5971.532
5966.553
5961.538
5956.532
5951.573
5946.692
5941.927
5937.317
5932.911
5928.757
5924.91
5921.426
5918.358
5915.734
5913.534
5911.68
5910.098
5908.724
5907.466
5906.188
5904.973
5903.927
5902.988
5902.014
5900.906
5899.615
5898.121
5896.403
5894.445
5892.235
5889.781
5887.065
5884.082
5880.815
5877.252
5873.347
5869.058
5864.323
5859.137
5853.381
5847.073
5840.061
5832.692
5824.725
5816.835
5809.237
5802.874
5797.735
5795.234
5794.592
2584.343
2557.995
2535.038
2498.223
2477.805
2438.85
2445.39
2469.902
2509.467
2530.203
2534.79
2558.623
2605.654
2672.784
2759.804
2864.31
2985.436
3122.666
3274.036
3439.199
3617.715
3807.252
4005.307
4210.803
4421.675
4635.481
4849.561
5061.167
5266.446
5461.05
5641.801
5784.5
5923.661
6034.803
6116.509
6168.235
6189.189
6179.36
6139.887
6072.742
5980.464
5864.754
5727.886
5573.602
5406.058
5229.262
5046.873
4862.028
4677.345
4494.784
4315.771
4141.846
3973.352
3811.338
3656.508
3509.799
3371.538
3241.77
3120.941
3009.039
2905.529
2809.953
2722.007
2641.028
2566.327
2497.243
2433.208
2373.425
2315.05
2265.596
2224.777
2186.593
2150.073
2116.596
2086.508
2059.099
2033.268
2008.706
1985.735
1963.911
1943.424
1925.11
1909.263
1895.683
1883.549
1871.726
1859.537
1847.202
1834.17
1820.037
1806.722
1794.832
1785.532
1778.451
1772.07
1765.54
1758.387
1750.053
1740.732
1731.456
1722.73
1714.231
1707.748
1703.313
1699.612
1696.213
1692.254
1687.393
1681.504
1674.801
1668.934
1664.55
1662.436
1663.499
1666.591
1670.717
1674.688
1678.109
1681.627
1686.077
1692.325
1701.363
1713.854
1729.921
1748.968
1766.247
1774.201
1772.218
1764.427
1755.704
1743.854
1726.276
1705.65
1685.615
1666.9
1650.573
1636.44
1622.647
1608.906
1595.73
1583.144
1573.052
1567.547
1566.805
1571.759
1581.853
1597.31
1618.797
1641.26
1660.914
1672.621
1671.011
1655.229
1628.715
1592.882
1558.395
1538.256
1533.347
1535.857
1540.188
1542.775
1544.114
1546.7
1550.656
1555.208
1559.908
1564.204
1567.969
1571.506
1574.171
1576.255
1578.694
1581.73
1585.247
1588.998
1592.508
1596.108
1599.785
1602.519
1604.774
1607.242
1610.075
1613.269
1616.751
1620.43
1624.267
1628.713
1632.812
1636.606
1640.555
1644.868
1649.675
1654.971
1660.64
1666.676
1673.187
1679.957
1686.882
1694.135
1701.816
1709.827
1718.004
1726.267
1734.729
1743.554
1752.641
1761.549
1769.843
1777.678
1785.911
1795.047
1805.008
1815.685
1827.015
1838.84
1850.878
1862.673
1873.836
1884.344
1894.512
1904.611
1914.595
1924.563
1934.788
1945.126
1955.752
1966.872
1978.646
1991.483
2005.926
2022.192
2040.534
2060.709
2082.003
2104.89
2129.604
2156.297
2184.997
2215.573
2247.953
2282.153
2318.145
2355.797
2395.02
2435.845
2478.282
2522.501
2568.84
2617.774
2669.549
2724.371
2781.823
2841.341
2902.148
2964.012
3026.564
3085.572
3137.994
3183.012
3220.968
3252.271
3277.746
3299.598
3319.334
3339.675
3363.282
3390.419
3422.834
3461.265
3505.65
3555.583
3610.32
3668.941
3730.518
3794.143
3858.933
3924.083
3988.889
4052.76
4115.246
4176.048
4235
4292.037
4347.156
4400.37
4451.698
4501.272
4549.333
4596.297
4642.993
4690.494
4739.164
4787.987
4835.382
4880.461
4922.949
4962.688
4999.593
5033.837
5065.839
5095.984
5124.629
5152.165
5178.865
5204.949
5230.625
5256.231
5281.694
5307.063
5332.16
5357.382
5380.303
5403.483
5426.218
5448.142
5469.091
5488.925
5507.524
5524.737
5540.479
5554.559
5566.951
5577.21
5585.702
5592.312
5596.944
5600.337
5602.052
5601.698
5599.414
5595.496
5590.138
5583.429
5575.435
5566.229
5555.926
5544.698
5532.691
5520.05
5506.985
5493.729
5480.487
5467.442
5454.852
5442.982
5432.057
5422.228
5413.568
5406.158
5400.185
5395.822
5393.121
5392.125
5392.873
5395.283
5399.192
5404.107
5409.295
5414.547
5419.345
5425.998
5438.022
5454.773
5471.738
5488.21
5503.358
5516.051
5525.661
5532.466
5537.886
5543.601
5550.694
5559.767
5570.806
5582.789
5594.471
5605.203
5614.869
5623.593
5631.267
5638.237
5645.192
5652.523
5660.385
5668.709
5677.306
5686.147
5695.154
5704.203
5713.065
5721.563
5729.544
5736.895
5743.531
5749.386
5754.412
5758.578
5761.868
5764.276
5765.813
5766.496
5766.358
5765.44
5763.795
5761.498
5758.624
5755.244
5751.432
5747.255
5742.779
5738.06
5733.139
5728.059
5722.856
5717.571
5712.27
5706.998
5701.778
5696.639
5691.623
5686.786
5682.203
5677.951
5674.099
5670.725
5667.869
5665.572
5663.823
5662.465
5661.343
5660.365
5659.418
5658.383
5657.451
5656.87
5656.521
5656.065
5655.353
5654.382
5653.157
5651.681
5649.96
5647.997
5645.804
5643.386
5640.746
5637.856
5634.693
5631.215
5627.38
5623.136
5618.446
5613.243
5607.532
5601.314
5594.766
5587.98
5581.204
5574.583
5568.497
5563.189
5559.243
5553.872
2850.31
2817.861
2785.841
2729.213
2680.356
2597.586
2548.862
2500.444
2453.128
2407.303
2363.034
2322.179
2283.803
2250.207
2222.498
2200.495
2125.653
2124.212
2132.22
2145.93
2161.98
2185.962
2224.067
2278.817
2349.99
2438.206
2544.368
2667.225
2805.963
2959.474
3126.393
3305.284
3494.97
3693.723
3899.433
4110.085
4323.13
4535.545
4744.627
4947.505
5141.161
5316.765
5467.264
5604.29
5714.914
5795.803
5846.197
5865.605
5854.299
5813.491
5745.057
5651.329
5534.638
5397.41
5242.934
5075.188
4898.383
4716.426
4532.613
4349.918
4170.273
3994.203
3823.083
3657.725
3498.342
3345.84
3200.856
3063.871
2936.05
2818.025
2709.717
2610.366
2519.135
2435.299
2358.04
2286.368
2219.721
2157.233
2099.272
2046.138
1998.756
1957.472
1920.588
1886.98
1856.549
1828.948
1803.284
1778.643
1754.718
1731.543
1709.354
1689.185
1671.79
1657.283
1645.455
1634.801
1623.944
1612.19
1599.393
1585.37
1570.539
1557.11
1545.752
1536.658
1530.918
1525.733
1519.962
1512.951
1504.259
1494.236
1483.128
1472.915
1465.331
1459.167
1455.34
1452.866
1450.162
1446.258
1440.529
1433.329
1425.613
1418.462
1413.54
1411.162
1412.291
1416.043
1420.519
1424.069
1426.294
1427.804
1429.442
1431.959
1436.431
1444.251
1458.242
1474.171
1485.037
1490.93
1491.536
1485.419
1475.414
1462.087
1445.26
1429.737
1416.736
1401.512
1388.794
1378.916
1368.139
1356.61
1344.822
1333.171
1324.132
1320.221
1320.752
1325.736
1335.401
1347.943
1362.68
1377.874
1389.103
1394.333
1390.993
1380.423
1364.672
1341.525
1320.149
1307.047
1301.816
1299.831
1300.463
1301.438
1301.781
1303.957
1307.714
1312.058
1316.75
1321.331
1324.738
1327.563
1329.596
1330.875
1332.833
1335.953
1339.745
1343.829
1348.212
1351.632
1354.492
1357.148
1358.986
1361.126
1363.933
1367.25
1370.797
1374.378
1377.999
1382.702
1387.004
1390.371
1393.948
1398.059
1402.801
1408.096
1413.741
1419.807
1426.684
1433.672
1440.644
1448.135
1456.263
1464.711
1473.113
1481.35
1489.571
1498.036
1506.544
1514.923
1522.778
1529.986
1537.964
1547.274
1557.511
1568.582
1580.562
1593.339
1606.518
1619.187
1630.554
1640.647
1650.188
1659.74
1668.967
1678.104
1688.003
1697.393
1706.76
1716.657
1727.208
1738.762
1751.998
1766.962
1784.934
1805.851
1826.284
1848.237
1872.389
1899.03
1928.13
1959.196
1991.93
2026.419
2062.688
2100.514
2139.785
2180.518
2222.397
2265.448
2310.681
2359.197
2411.634
2468.305
2529.019
2593.269
2660.212
2728.599
2796.288
2859.884
2916.159
2963.113
3000.144
3027.572
3046.636
3059.47
3070.753
3081.974
3095.103
3115.431
3143.184
3178.173
3220.719
3270.63
3327.133
3389.16
3455.465
3524.63
3595.167
3665.754
3735.359
3803.249
3868.96
3932.235
3992.972
4051.195
4107.026
4160.642
4212.26
4262.137
4310.55
4357.912
4404.902
4452.208
4499.957
4547.51
4593.98
4638.795
4681.618
4722.182
4760.381
4796.319
4830.175
4862.153
4892.511
4921.535
4949.478
4976.564
5002.971
5028.796
5053.99
5078.564
5102.454
5125.143
5149.011
5171.547
5193.272
5214.183
5234.12
5252.951
5270.56
5286.805
5301.572
5314.705
5326.126
5335.682
5343.52
5349.449
5353.375
5355.719
5356.466
5355.332
5352.283
5347.538
5341.283
5333.659
5324.804
5314.772
5303.615
5291.539
5278.718
5265.304
5251.508
5237.555
5223.672
5210.08
5197.034
5184.766
5173.51
5163.454
5154.567
5146.755
5140.26
5135.221
5131.643
5129.599
5129.117
5130.159
5132.676
5136.419
5141.191
5147.091
5154.056
5163.085
5175.546
5190.809
5206.926
5223.024
5238.447
5252.391
5264.496
5275.132
5285.225
5295.633
5306.747
5318.704
5331.551
5344.429
5356.782
5368.285
5378.749
5388.099
5396.426
5404.146
5411.683
5419.261
5426.999
5434.934
5443.084
5451.46
5459.939
5468.367
5476.524
5484.356
5491.709
5498.442
5504.468
5509.729
5514.186
5517.808
5520.575
5522.477
5523.52
5523.717
5523.097
5521.69
5519.535
5516.712
5513.323
5509.453
5505.166
5500.526
5495.605
5490.46
5485.136
5479.671
5474.083
5468.378
5462.674
5457.057
5451.534
5446.108
5440.807
5435.69
5430.853
5426.419
5422.519
5419.274
5416.762
5415.008
5413.891
5413.159
5412.602
5412.104
5411.541
5410.702
5410.031
5410.088
5410.387
5410.423
5410.106
5409.447
5408.474
5407.22
5405.722
5404.008
5402.087
5399.967
5397.666
5395.161
5392.42
5389.396
5386.042
5382.301
5378.133
5373.501
5368.416
5362.9
5357.073
5350.978
5344.882
5338.706
5333.298
5327.767
5322.978
5315.34
3054.581
3015.162
2971.084
2916.696
2874.986
2797.794
2757.106
2716.305
2674.898
2632.58
2589.977
2547.003
2501.935
2456.354
2408.086
2291.815
2243.12
2195.036
2147.625
2101.303
2056.585
2014.187
1974.656
1939.098
1907.99
1882.543
1863.796
1854.077
1852.627
1858.773
1873.053
1898.208
1936.493
1990.036
2060.825
2148.574
2253.091
2374.097
2510.878
2662.364
2827.258
3004.043
3191.379
3387.435
3590.007
3796.381
4004.161
4212.959
4417.35
4616.47
4807.714
4984.853
5140.45
5273.693
5379.761
5455.786
5500.606
5514.207
5497.512
5452.142
5380.12
5283.669
5165.093
5026.759
4871.814
4704.024
4527.527
4346.747
4164.813
3984.969
3809.839
3639.675
3474.885
3316.223
3163.029
3015.097
2873.273
2739.166
2614.808
2500.862
2397.39
2303.597
2218.093
2139.711
2067.396
1999.989
1936.803
1877.417
1822.222
1771.502
1725.679
1685.726
1651.392
1621.289
1594.301
1569.582
1545.965
1522.49
1498.796
1475.22
1452.713
1432.982
1417.033
1403.805
1394.333
1385.952
1376.383
1364.883
1351.463
1336.519
1320.898
1305.996
1294.88
1287.936
1283.698
1279.906
1274.901
1268.014
1258.859
1247.578
1234.631
1222.563
1214.893
1209.992
1207.44
1206.03
1204.11
1200.48
1194.265
1185.646
1175.852
1166.579
1159.891
1156.955
1158.815
1164.225
1169.908
1173.231
1173.694
1172.286
1170.329
1168.722
1168.547
1171.777
1184.37
1200.807
1207.424
1212.202
1213.638
1208.157
1197.55
1182.764
1165.675
1150.958
1144.67
1136.565
1127.289
1120.765
1112.933
1103.567
1092.865
1081.315
1071.715
1068.019
1070.422
1076.495
1085.434
1095.798
1106.556
1116.987
1123.032
1123.44
1118.524
1110.644
1102.657
1091.066
1078.192
1069.853
1065.581
1062.264
1060.199
1058.983
1058.338
1060.615
1064.672
1069.115
1073.788
1078.44
1082.173
1084.589
1085.225
1085.036
1086.323
1089.901
1094.457
1098.977
1103.75
1107.363
1109.774
1111.792
1112.879
1114.552
1117.431
1121.017
1124.689
1128.498
1132.228
1136.552
1140.726
1143.715
1146.746
1150.635
1155.512
1160.96
1166.333
1171.991
1179.432
1186.896
1193.678
1201.388
1210.234
1219.419
1228.165
1236.394
1244.317
1252.355
1259.908
1267.765
1275.493
1281.175
1288.496
1298.221
1308.786
1320.291
1333.209
1347.362
1362.288
1376.399
1388.196
1397.713
1406.294
1415.187
1423.573
1431.43
1440.677
1449.308
1457.153
1465.189
1473.71
1483.552
1496.002
1510.432
1527.198
1547.12
1566.688
1587.801
1611.362
1637.785
1667.093
1698.668
1732.036
1767.191
1804.078
1842.174
1881.202
1921.548
1962.842
2004.477
2047.548
2094.065
2146.139
2204.754
2269.597
2339.887
2414.34
2490.952
2566.925
2638.649
2701.785
2752.404
2788.84
2811.315
2821.787
2823.606
2821.88
2820
2821.89
2833.174
2853.924
2884.156
2924.183
2973.703
3031.869
3097.606
3169.543
3245.673
3323.579
3401.158
3476.946
3550.065
3620.059
3686.736
3750.074
3810.184
3867.289
3921.703
3973.787
4023.93
4072.551
4120.127
4167.167
4214.069
4260.914
4307.419
4353.118
4397.6
4440.562
4481.784
4521.146
4558.634
4594.29
4628.219
4660.575
4691.528
4721.228
4749.78
4777.255
4803.723
4829.24
4853.856
4877.589
4900.463
4922.963
4944.502
4965.127
4984.837
5003.591
5021.233
5037.646
5052.707
5066.301
5078.304
5088.629
5097.18
5103.918
5108.784
5111.775
5113.011
5112.537
5110.251
5106.101
5100.308
5092.993
5084.231
5074.296
5063.307
5051.312
5038.385
5024.62
5010.257
4995.595
4980.883
4966.312
4952.103
4938.55
4925.892
4914.338
4904.127
4895.204
4887.196
4880.121
4874.153
4869.531
4866.431
4864.829
4864.628
4865.829
4868.457
4872.71
4878.823
4886.971
4897.47
4910.584
4925.657
4941.698
4958.067
4974.256
4989.871
5004.847
5019.418
5033.718
5047.865
5062.064
5076.304
5090.727
5105.073
5118.875
5131.704
5143.426
5154.023
5163.502
5172.196
5180.377
5188.255
5196.025
5203.812
5211.668
5219.587
5227.484
5235.207
5242.662
5249.699
5256.248
5262.214
5267.522
5272.087
5275.866
5278.832
5280.965
5282.252
5282.687
5282.275
5281.039
5279.003
5276.235
5272.795
5268.75
5264.211
5259.28
5254.034
5248.534
5242.836
5236.976
5230.993
5224.95
5218.869
5212.783
5206.762
5200.851
5195.044
5189.36
5183.883
5178.754
5174.15
5170.242
5167.131
5164.953
5163.897
5163.76
5164.002
5164.238
5164.354
5164.292
5163.923
5163.761
5164.102
5164.764
5165.295
5165.417
5165.06
5164.287
5163.173
5161.787
5160.19
5158.441
5156.556
5154.545
5152.395
5150.068
5147.511
5144.661
5141.454
5137.842
5133.789
5129.3
5124.388
5119.149
5113.619
5108.058
5102.338
5097.141
5091.376
5086.402
5077.738
3057.755
3007.303
2956.261
2893.649
2831.948
2776.862
2726.619
2680.532
2638.003
2595.447
2487.314
2447.214
2407.249
2366.666
2325.149
2282.653
2239.039
2193.972
2147.588
2100.696
2054.184
2006.148
1958.05
1910.199
1863.004
1816.86
1771.925
1728.494
1687.91
1651.319
1619.935
1595.774
1579.526
1572.205
1574.765
1587.788
1613.068
1651.972
1705.938
1775.969
1862.452
1965.419
2084.629
2219.393
2368.69
2531.335
2705.674
2890.263
3082.475
3279.962
3480.97
3684.118
3888.262
4090.06
4285.646
4471.224
4641.692
4791.257
4916.071
5013.194
5080.1
5115.529
5119.875
5094.782
5042.527
4965.517
4865.842
4745.623
4606.828
4452.212
4285.737
4110.755
3932.134
3753.577
3578.107
3408.704
3246.384
3090.755
2941.139
2796.14
2654.889
2519.239
2391.448
2272.945
2164.768
2067.797
1981.281
1902.937
1831.515
1765.889
1704.404
1645.994
1590.374
1537.794
1488.779
1444.493
1406.862
1376.11
1350.482
1328.054
1307.375
1286.446
1264.223
1240.66
1216.536
1193.268
1172.657
1157.524
1148.445
1142.318
1137.154
1129.226
1117.795
1103.538
1087.312
1069.911
1052.772
1040.448
1036.838
1036.352
1034.837
1030.848
1024.097
1014.229
1001.263
986.0006
971.02
960.8625
958.045
958.7577
959.4563
958.9319
955.9433
949.0231
938.1738
925.1602
912.498
902.9007
898.9347
902.6806
912.2036
920.6574
923.6504
921.3366
915.9218
909.5775
902.9893
897.44
896.9171
908.5575
927.0298
935.4291
939.0502
938.8122
932.8328
922.091
904.9224
884.1458
869.4226
868.7928
869.0074
865.693
862.4453
857.7253
850.6187
840.5084
827.1452
814.5884
810.9638
816.6359
824.3294
832.851
842.3345
851.303
859.4053
861.5706
857.1125
848.8759
842.8555
841.199
838.0821
832.593
829.1573
827.3943
824.8579
820.0423
814.6756
812.6448
816.275
821.5617
826.29
831.0584
835.9799
840.6446
842.8968
840.8908
837.8384
838.1869
843.3319
849.3562
854.414
859.3785
863.5137
866.3056
866.7381
866.0363
867.1286
870.6159
874.9097
878.4446
882.5454
886.4226
889.9366
894.3094
896.5715
898.7764
902.3798
907.8067
913.8141
919.1878
924.2848
931.7333
939.4102
945.7459
953.6202
963.8208
974.4488
983.5945
991.4319
998.8193
1007.267
1015.427
1021.429
1027.379
1030.269
1036.372
1047.384
1058.705
1070.779
1084.769
1101.087
1119.28
1135.533
1147.189
1155.221
1162.364
1170.793
1178.461
1185.07
1191.875
1199.821
1206.873
1213.368
1218.994
1225.61
1236.852
1253.526
1268.351
1284.616
1302.99
1322.715
1345.587
1373.115
1403.856
1435.711
1468.937
1504.785
1543.044
1582.346
1622.17
1662.214
1700.77
1738.14
1778.266
1822.317
1872.488
1932.095
2001.166
2078.796
2163.297
2251.897
2340.703
2424.831
2498.404
2555.268
2591.503
2607.073
2605.231
2591.145
2571.276
2552.488
2541.01
2540.758
2552.714
2577.01
2613.777
2662.753
2723.013
2793.428
2872.471
2957.538
3044.946
3131.432
3214.917
3294.4
3369.539
3440.303
3506.801
3569.253
3627.984
3683.426
3736.092
3786.532
3835.283
3882.852
3929.691
3976.128
4022.273
4067.981
4113
4157.127
4200.206
4242.034
4282.45
4321.374
4358.759
4394.63
4429.039
4462.024
4493.616
4523.843
4552.746
4580.37
4606.741
4631.875
4655.803
4678.6
4700.451
4721.245
4740.926
4759.53
4777.037
4793.397
4808.49
4822.212
4834.469
4845.159
4854.193
4861.471
4866.909
4870.468
4872.189
4872.08
4870.19
4866.534
4860.984
4853.936
4845.461
4835.657
4824.63
4812.482
4799.433
4785.585
4770.905
4755.573
4739.965
4724.392
4709.016
4694.05
4679.814
4666.572
4654.727
4644.963
4636.48
4628.064
4619.845
4612.617
4606.954
4602.968
4600.413
4599.06
4599.016
4600.558
4603.874
4609.654
4618.715
4630.83
4644.97
4660.279
4676.536
4693.488
4710.844
4728.324
4745.719
4763.007
4780.325
4797.788
4815.409
4833.042
4850.206
4866.61
4882.217
4896.586
4909.552
4921.27
4931.873
4941.502
4950.356
4958.684
4966.706
4974.51
4982.13
4989.602
4996.896
5003.961
5010.727
5017.022
5022.767
5027.816
5032.313
5036.15
5039.231
5041.516
5042.986
5043.619
5043.4
5042.329
5040.4
5037.618
5034.045
5029.77
5024.896
5019.525
5013.776
5007.795
5001.66
4995.401
4989.02
4982.511
4975.912
4969.294
4962.743
4956.33
4950.046
4943.823
4937.665
4931.7
4926.134
4921.225
4917.223
4914.244
4912.436
4912.271
4913.481
4915.074
4916.382
4917.383
4918.245
4919.048
4919.121
4918.901
4919.587
4920.795
4921.441
4921.352
4920.714
4919.671
4918.326
4916.771
4915.081
4913.299
4911.457
4909.556
4907.567
4905.434
4903.079
4900.413
4897.36
4893.871
4889.936
4885.559
4880.829
4875.776
4870.629
4865.214
4860.103
4854.138
4848.875
4839.92
2795.296
2728.694
2594.662
2541.74
2490.677
2443.594
2399.857
2358.668
2319.134
2280.821
2243.583
2205.482
2166.776
2127.076
2086.354
2044.304
2000.82
1955.776
1909.067
1861.196
1813.612
1765.528
1717.086
1668.56
1619.542
1570.034
1521.155
1473.773
1428.953
1388.613
1354.416
1327.325
1308.353
1298.494
1298.927
1310.686
1335.113
1373.457
1426.71
1495.623
1580.657
1681.926
1799.23
1931.857
2078.79
2238.929
2409.833
2589.124
2774.758
2965.9
3161.942
3361.124
3560.535
3756.613
3945.196
4121.959
4282.211
4420.972
4533.993
4618.441
4672.396
4695.086
4687.43
4651.797
4591.027
4508.227
4405.571
4284.612
4147.136
3994.937
3831.816
3661.052
3485.395
3309.916
3139.985
2978.527
2825.945
2680.849
2541.227
2405.849
2274.259
2147.565
2027.328
1914.995
1812.69
1723.194
1645.728
1576.051
1512.834
1455.349
1401.231
1348.759
1297.449
1247.413
1199.527
1156.538
1122.311
1096.239
1074.735
1057.263
1042.864
1026.187