/*--------------------------------*- C++ -*----------------------------------*\
| =========                 |                                                 |
| \\      /  F ield         | foam-extend: Open Source CFD                    |
|  \\    /   O peration     | Version:     3.1                                |
|   \\  /    A nd           | Web:         http://www.extend-project.de       |
|    \\/     M anipulation  |                                                 |
\*---------------------------------------------------------------------------*/
FoamFile
{
    version     2.0;
    format      ascii;
    class       surfaceScalarField;
    location    "19.5";
    object      phi;
}
// * * * * * * * * * * * * * * * * * * * * * * * * * * * * * * * * * * * * * //

dimensions      [0 3 -1 0 0 0 0];

internalField   nonuniform List<scalar> 
275122
(
-0.0004105665
0.0004163961
-4.04331e-07
-5.425299e-06
-0.0003677283
0.0003506556
1.410211e-06
1.566247e-05
-0.0003650977
0.0003745569
-3.968845e-07
-9.062304e-06
-0.0004063845
0.0004173661
-4.819217e-07
-1.049963e-05
-0.0004447595
0.0004480279
-5.61129e-07
-2.707314e-06
-0.0004480912
0.0004474098
-4.952801e-07
1.17669e-06
-0.0004435237
0.0004420215
-4.61441e-07
1.963712e-06
-0.0004369077
0.0004350391
-4.356737e-07
2.304231e-06
-0.0004291272
0.0004270822
-4.13866e-07
2.458927e-06
-0.0004208101
0.0004186776
-3.915995e-07
2.524108e-06
-0.0004121744
0.0004099712
-3.677344e-07
2.570925e-06
-0.0004032693
0.0004010066
-3.430294e-07
2.605654e-06
-0.0003941458
0.0003918372
-3.17909e-07
2.626558e-06
-0.0003848407
0.0003825
-3.011791e-07
2.641949e-06
-0.0003754535
0.0003731012
-3.004239e-07
2.652788e-06
-0.0003659959
0.0003636327
-2.765023e-07
2.639735e-06
-0.0003565537
0.0003542121
-2.542246e-07
2.595826e-06
-0.0003472105
0.0003449456
-2.180239e-07
2.482927e-06
-0.0003386227
0.0003368147
-2.678987e-07
2.075843e-06
-0.0003330941
0.0003335139
-6.714479e-07
2.516164e-07
-0.0003698623
0.000384455
-1.34669e-06
-1.324608e-05
-0.0003884775
0.0003883234
-2.954775e-07
4.495449e-07
-0.0003921388
0.0003943449
-1.67358e-07
-2.038775e-06
-0.0004372509
0.0004530908
3.371342e-07
-1.617705e-05
-0.0004554408
0.0004547088
6.476511e-07
8.433685e-08
-0.0004572331
0.0004579974
-2.990236e-07
-4.65257e-07
-0.0004580271
0.0004570175
-2.703834e-07
1.27994e-06
-0.0004523911
0.0004484546
-2.315572e-07
4.168018e-06
-0.0004223241
0.0003947372
-3.084596e-07
2.789535e-05
-0.0002539558
0.0002610088
5.488069e-09
-7.058491e-06
-0.0002689348
0.0002827081
-7.16136e-08
-1.370164e-05
-0.0003219453
0.0003349699
7.969275e-09
-1.303258e-05
-0.0003747477
0.0003882135
9.10251e-09
-1.347483e-05
-0.0004289902
0.0004427468
1.001978e-08
-1.376667e-05
-0.0004847568
0.0004989151
9.032048e-09
-1.416739e-05
-0.0005421283
0.000556743
1.02172e-08
-1.462494e-05
-0.0006010495
0.0006159785
8.819027e-09
-1.493781e-05
-0.0006610332
0.0006761586
1.20022e-08
-1.513743e-05
-0.0007216231
0.0007368663
1.358916e-08
-1.525685e-05
-0.0007820712
0.0007985602
2.36127e-07
-1.672514e-05
1.315714e-05
-0.0005424558
0.0005446507
8.202279e-10
-1.53529e-05
1.345294e-05
-0.0005511488
0.0005531365
-5.75014e-10
-1.544008e-05
1.370077e-05
-0.0005587342
0.0005605196
-1.49756e-09
-1.548468e-05
1.404349e-05
-0.0005655078
0.0005670473
-1.665488e-09
-1.558134e-05
1.444948e-05
-0.0005712348
0.0005724912
-1.774146e-09
-1.570411e-05
1.477803e-05
-0.0005759929
0.0005770418
-1.307679e-09
-1.582569e-05
1.502665e-05
-0.0005800506
0.0005809707
-1.893956e-09
-1.594484e-05
1.51862e-05
-0.0005835943
0.0005844654
-1.274889e-09
-1.6056e-05
1.570813e-05
-0.000586847
0.0005866195
-7.209438e-10
-1.547988e-05
1.396044e-05
-0.002389841
0.002399558
3.261289e-10
-6.597919e-05
1.422333e-05
1.391541e-05
1.416273e-05
1.48458e-05
-0.00240685
0.002412805
2.259946e-10
-6.638378e-05
1.540194e-05
1.481606e-05
1.536501e-05
1.522072e-05
-0.002417621
0.002422005
6.118682e-11
-6.576529e-05
1.549802e-05
1.518908e-05
1.547281e-05
1.533856e-05
-0.002426533
0.002430924
1.23944e-10
-6.596822e-05
1.547694e-05
1.531144e-05
1.544964e-05
1.538153e-05
-0.002435159
0.002439345
-3.954791e-11
-6.608422e-05
1.559489e-05
1.535266e-05
1.556887e-05
1.56444e-05
-0.002443182
0.002446929
5.755804e-11
-6.652239e-05
1.576923e-05
1.561851e-05
1.574355e-05
1.576576e-05
-0.00245069
0.002454231
7.399989e-11
-6.670381e-05
1.583991e-05
1.574095e-05
1.581613e-05
1.581659e-05
-0.002457898
0.00246146
2.14521e-10
-6.676521e-05
1.580864e-05
1.57933e-05
1.578396e-05
1.580894e-05
-0.002465623
0.002469587
5.491161e-10
-6.713654e-05
1.580431e-05
1.577909e-05
1.577997e-05
1.52268e-05
-0.002469697
0.002474237
2.644247e-10
-6.574874e-05
1.539753e-05
1.519847e-05
1.538525e-05
1.605473e-05
-0.00247894
0.002482017
2.066112e-10
-6.752917e-05
1.618089e-05
1.604656e-05
1.617003e-05
1.598549e-05
-0.002484382
0.002486431
1.456341e-10
-6.570735e-05
1.585012e-05
1.597853e-05
1.584405e-05
1.583928e-05
-0.002488536
0.002490602
1.045238e-10
-6.520083e-05
1.573582e-05
1.583041e-05
1.572932e-05
1.580279e-05
-0.002492568
0.00249434
1.592181e-11
-6.483602e-05
1.573533e-05
1.579432e-05
1.573158e-05
1.581245e-05
-0.002496026
0.002497664
-6.426423e-11
-6.476233e-05
1.575972e-05
1.579709e-05
1.575544e-05
1.588937e-05
-0.002499232
0.002500792
-9.858717e-11
-6.49456e-05
1.58354e-05
1.58417e-05
1.581879e-05
1.620061e-05
-0.002502351
0.002504107
-9.989371e-11
-6.611722e-05
1.616938e-05
1.597747e-05
1.601342e-05
1.760843e-05
-0.002505325
0.002503959
-7.728784e-11
-6.766589e-05
1.791397e-05
1.662836e-05
1.688075e-05
2.227352e-05
-0.002498147
0.002483727
-3.457499e-11
-7.019853e-05
2.37037e-05
1.960369e-05
1.903823e-05
3.013436e-05
-0.002464695
0.002487995
1.601262e-11
-5.34352e-05
2.236715e-05
-0.00251067
0.002513941
6.369711e-11
-2.563767e-05
4.298722e-05
-0.002507315
0.002504361
9.600064e-11
-4.003308e-05
3.723348e-05
-0.002502427
0.002500953
1.117267e-10
-3.575915e-05
2.082164e-05
-0.002498851
0.002500681
1.127561e-10
-2.265222e-05
5.111324e-06
-0.002505545
0.00251057
1.012489e-10
-1.013667e-05
4.761602e-07
-0.002514509
0.002517975
8.92226e-11
-3.942528e-06
-2.254976e-06
-0.00252151
0.002524766
7.561792e-11
-1.00077e-06
-3.765029e-06
-0.002527823
0.00253066
5.163313e-11
9.28122e-07
-5.027374e-06
-0.002533366
0.002535866
2.146373e-11
2.527083e-06
-6.020408e-06
-0.002538222
0.002540318
-1.086663e-11
3.924835e-06
-6.861042e-06
-0.002542285
0.002544037
-3.942585e-11
5.108851e-06
-7.557769e-06
-0.002545656
0.00254709
-6.295915e-11
6.12363e-06
-8.079548e-06
-0.002548388
0.002549566
-7.033406e-11
6.902001e-06
-8.366846e-06
-0.002550629
0.002551667
-6.931502e-11
7.328757e-06
-8.364284e-06
-0.002552627
0.002553677
-3.883475e-11
7.314123e-06
-7.948329e-06
-0.002554686
0.002555904
-2.736062e-11
6.730281e-06
-6.808954e-06
-0.002557089
0.002558561
-2.840823e-11
5.337134e-06
-4.218511e-06
-0.002559896
0.002561433
-2.330252e-11
2.681124e-06
1.682544e-06
-0.002562759
0.002563233
-1.847034e-11
-2.157161e-06
1.197978e-05
-0.00255853
0.002554859
-1.410704e-11
-8.309215e-06
5.622827e-06
-0.002556895
0.002559375
-6.647557e-12
-8.102687e-06
1.768359e-05
-0.00256013
0.002558069
-6.484916e-12
-1.562299e-05
4.274446e-05
-0.002542186
0.002524685
-8.821922e-12
-2.524361e-05
1.230241e-05
-0.002516386
0.002516061
-8.384263e-12
-1.19775e-05
-3.051833e-06
-0.002516252
0.002513304
-5.651829e-12
5.999594e-06
-1.545816e-05
-0.002508282
0.002505301
-9.525928e-13
1.843908e-05
-3.699107e-05
-0.002503362
0.002504534
4.480524e-12
3.581908e-05
-9.133568e-05
-0.002506825
0.002537112
9.373322e-12
6.104852e-05
-2.013755e-05
-0.002573417
0.002572823
1.497014e-11
6.632081e-05
-1.295162e-05
-1.998418e-05
-1.265342e-05
-6.86623e-06
-0.002563175
0.00256119
1.822917e-11
2.949735e-05
-7.26004e-06
-6.518031e-06
-6.868162e-06
-6.405111e-06
-0.002563093
0.002562922
1.927706e-11
2.454478e-05
-6.066331e-06
-6.11784e-06
-5.784297e-06
-4.705272e-06
-0.002560244
0.002557234
1.972998e-11
2.085606e-05
-4.449595e-06
-4.466466e-06
-4.224008e-06
-4.092787e-06
-0.002554637
0.002552585
1.89156e-11
1.79761e-05
-4.062943e-06
-3.896757e-06
-3.871397e-06
-3.902e-06
-0.002550846
0.002549229
1.666162e-11
1.680111e-05
-3.858609e-06
-3.73197e-06
-3.692144e-06
-3.679898e-06
-0.002547611
0.002546066
1.362117e-11
1.587115e-05
-3.632821e-06
-3.527634e-06
-3.485221e-06
-3.519195e-06
-0.002544576
0.002543203
1.048685e-11
1.513218e-05
-3.492118e-06
-3.385374e-06
-3.362236e-06
-3.417338e-06
-0.002541877
0.002540649
7.874109e-12
1.462748e-05
-3.39838e-06
-3.299517e-06
-3.283583e-06
-3.338207e-06
-0.002539452
0.002538334
6.561931e-12
1.423471e-05
-3.322858e-06
-3.234148e-06
-3.221443e-06
-3.27671e-06
-0.002537249
0.002536221
6.871696e-12
1.393274e-05
-3.26581e-06
-3.185269e-06
-3.176815e-06
-3.236751e-06
-0.002535217
0.002534239
8.160769e-12
1.375303e-05
-3.229898e-06
-3.156552e-06
-3.151775e-06
-3.214366e-06
-0.002533268
0.002532299
9.603258e-12
1.36788e-05
-3.210264e-06
-3.143959e-06
-3.141573e-06
-3.204568e-06
-0.002531325
0.002530339
1.092195e-11
1.367824e-05
-3.202404e-06
-3.142781e-06
-3.142146e-06
-3.203054e-06
-0.002529339
0.002528319
1.204836e-11
1.372381e-05
-3.2021e-06
-3.148942e-06
-3.149326e-06
-3.204023e-06
-0.002527283
0.002526234
1.329284e-11
1.37695e-05
-3.203051e-06
-3.156703e-06
-3.156897e-06
-3.200127e-06
-0.00252518
0.002524133
1.521388e-11
1.376288e-05
-3.198261e-06
-3.158861e-06
-3.158025e-06
-3.188546e-06
-0.002523095
0.002522083
1.797218e-11
1.369012e-05
-3.185889e-06
-3.152697e-06
-3.150948e-06
-3.172603e-06
-0.002521092
0.002520135
2.060493e-11
1.358132e-05
-3.169958e-06
-3.141526e-06
-3.13965e-06
-3.158272e-06
-0.0025192
0.002518293
2.180185e-11
1.348298e-05
-3.156467e-06
-3.131263e-06
-3.130071e-06
-3.150198e-06
-0.002517403
0.002516526
2.085603e-11
1.343e-05
-3.149623e-06
-3.126575e-06
-3.126464e-06
-3.149785e-06
-0.002515656
0.002514783
1.79788e-11
1.343218e-05
-3.150319e-06
-3.12905e-06
-3.129953e-06
-3.156318e-06
-0.002513906
0.002513013
1.374985e-11
1.348493e-05
-3.157714e-06
-3.137707e-06
-3.139388e-06
-3.168392e-06
-0.002512106
0.002511169
8.775875e-12
1.35808e-05
-3.170314e-06
-3.151636e-06
-3.153909e-06
-3.181863e-06
-0.002510213
0.00250923
3.285034e-12
1.368524e-05
-3.183425e-06
-3.167086e-06
-3.168981e-06
-3.190745e-06
0.00250722
-2.532149e-12
1.375049e-05
-3.191325e-06
-3.177882e-06
-3.17874e-06
-0.002508231
-3.192339e-06
-0.002506205
0.002505195
-7.546426e-12
1.375703e-05
-3.191898e-06
-3.181401e-06
-3.181326e-06
-3.188459e-06
-0.002504193
0.002503207
-1.163398e-11
1.371982e-05
-3.18748e-06
-3.17919e-06
-3.178516e-06
-3.18275e-06
-0.002502234
0.002501279
-1.45726e-11
1.366854e-05
-3.181904e-06
-3.174661e-06
-3.173935e-06
-3.17888e-06
-0.002500336
0.002499404
-1.622308e-11
1.363297e-05
-3.178518e-06
-3.171755e-06
-3.171527e-06
-3.178704e-06
-0.002498477
0.00249755
-1.658259e-11
1.362994e-05
-3.17894e-06
-3.172544e-06
-3.172923e-06
-3.182747e-06
-0.002496622
0.00249568
-1.58586e-11
1.366343e-05
-3.183583e-06
-3.177537e-06
-3.178517e-06
-3.19084e-06
-0.00249473
0.002493757
-1.438744e-11
1.373089e-05
-3.192193e-06
-3.186551e-06
-3.188043e-06
-3.201823e-06
-0.002492767
0.00249175
-1.211422e-11
1.382108e-05
-3.203372e-06
-3.198377e-06
-3.200038e-06
-3.212525e-06
-0.002490714
0.002489655
-9.157275e-12
1.390568e-05
-3.213733e-06
-3.20977e-06
-3.211048e-06
-3.21952e-06
-0.002488584
0.002487502
-6.249976e-12
1.395653e-05
-3.220091e-06
-3.217275e-06
-3.217882e-06
-3.221965e-06
-0.002486415
0.002485332
-4.050344e-12
1.396796e-05
-3.222066e-06
-3.220085e-06
-3.22021e-06
-3.221844e-06
-0.002484249
0.002483176
-2.567484e-12
1.395781e-05
-3.221933e-06
-3.220266e-06
-3.22037e-06
-3.22226e-06
-0.002482104
0.002481039
-1.861362e-12
1.395252e-05
-3.222787e-06
-3.22097e-06
-3.221505e-06
-3.225594e-06
-0.002479969
0.0024789
-1.927857e-12
1.397247e-05
-3.226816e-06
-3.224555e-06
-3.225789e-06
-3.232686e-06
-0.002477817
0.002476725
-2.108587e-12
1.402448e-05
-3.23467e-06
-3.231812e-06
-3.233767e-06
-3.242837e-06
-0.002475611
0.002474481
-1.848038e-12
1.410432e-05
-3.245501e-06
-3.242093e-06
-3.24468e-06
-3.253812e-06
-0.00247332
0.002472145
-2.083545e-12
1.419504e-05
-3.256822e-06
-3.253379e-06
-3.256524e-06
-3.262404e-06
-0.002470932
0.002469718
-3.269059e-12
1.42707e-05
-3.26559e-06
-3.262325e-06
-3.265622e-06
-3.265081e-06
-0.002468462
0.002467227
-5.87492e-12
1.430305e-05
-3.268833e-06
-3.265056e-06
-3.268827e-06
-3.259924e-06
-0.002465953
0.002464722
-8.49896e-12
1.428061e-05
-3.264998e-06
-3.259937e-06
-3.265087e-06
-3.245472e-06
-0.002463457
0.002462267
-5.612349e-12
1.41878e-05
-3.253333e-06
-3.245616e-06
-3.253633e-06
-3.215053e-06
-0.002461073
0.002460001
-6.23701e-12
1.395137e-05
-3.224491e-06
-3.215114e-06
-3.224645e-06
-3.093671e-06
-0.002458908
0.002457776
6.49541e-12
1.348156e-05
-3.080205e-06
-3.09433e-06
-3.081139e-06
-2.75463e-06
-0.002456056
0.002453707
-7.584438e-13
1.285547e-05
-2.497521e-06
-2.753733e-06
-2.500783e-06
-2.255606e-06
-0.002452526
0.002449258
-6.266546e-12
1.250935e-05
-2.374277e-06
-2.246037e-06
-2.36584e-06
-3.236825e-06
-0.00244813
0.002447286
-1.286227e-11
1.383106e-05
-3.264415e-06
-3.229665e-06
-3.255834e-06
-3.177989e-06
-0.002445999
0.002444278
-6.951733e-13
1.427493e-05
-3.107022e-06
-3.169508e-06
-3.099071e-06
-3.186869e-06
-0.002442539
0.00244086
-7.094169e-12
1.443397e-05
-3.198121e-06
-3.179255e-06
-3.190473e-06
-3.247044e-06
-0.002439184
0.00243743
-6.332637e-12
1.472264e-05
-3.244775e-06
-3.2399e-06
-3.237307e-06
-3.249257e-06
-0.002435592
0.002433693
-1.16134e-11
1.486019e-05
-3.23928e-06
-3.241041e-06
-3.231536e-06
-3.248364e-06
-0.002431762
0.002429808
-1.224979e-11
1.492392e-05
-3.243443e-06
-3.241299e-06
-3.236744e-06
-3.247567e-06
-0.002427833
0.002425841
-1.308147e-11
1.496131e-05
-3.242994e-06
-3.241178e-06
-3.236769e-06
-3.23888e-06
-0.002423832
0.002421817
-1.460054e-11
1.494814e-05
-3.233446e-06
-3.232894e-06
-3.227525e-06
-3.223707e-06
-0.002419799
0.002417788
-1.607147e-11
1.488249e-05
-3.217777e-06
-3.218156e-06
-3.212274e-06
-3.20172e-06
-0.002415789
0.002413817
-1.71628e-11
1.475562e-05
-3.19495e-06
-3.196629e-06
-3.189952e-06
-3.172867e-06
-0.002411873
0.002409974
-1.775926e-11
1.456561e-05
-3.165214e-06
-3.168106e-06
-3.160555e-06
-3.138893e-06
-0.002408119
0.002406326
-1.770906e-11
1.432479e-05
-3.131063e-06
-3.13448e-06
-3.126682e-06
-3.103729e-06
-0.002404587
0.002402917
-1.762425e-11
1.406162e-05
-3.096343e-06
-3.099599e-06
-3.092218e-06
-3.070249e-06
-0.002401306
0.002399763
-1.761457e-11
1.380312e-05
-3.063603e-06
-3.066431e-06
-3.05979e-06
-3.042216e-06
-0.002398274
0.002396845
-1.756641e-11
1.358126e-05
-3.037267e-06
-3.038636e-06
-3.033729e-06
-3.024386e-06
-0.002395462
0.002394118
-1.730084e-11
1.342691e-05
-3.020343e-06
-3.020962e-06
-3.016983e-06
-3.016618e-06
-0.002392803
0.002391502
-1.717008e-11
1.335482e-05
-3.013249e-06
-3.013375e-06
-3.010075e-06
-3.017758e-06
-0.002390211
0.002388909
-1.744086e-11
1.336063e-05
-3.014875e-06
-3.014757e-06
-3.011971e-06
-3.025828e-06
-0.002387603
0.002386266
-1.779947e-11
1.342974e-05
-3.023308e-06
-3.023027e-06
-3.020608e-06
-3.039879e-06
-0.00238491
0.002383509
-1.729167e-11
1.355152e-05
-3.037817e-06
-3.037236e-06
-3.035224e-06
-3.059596e-06
-0.002382079
0.002380592
-1.544812e-11
1.371817e-05
-3.058296e-06
-3.057149e-06
-3.055847e-06
-3.085516e-06
-0.002379069
0.002377478
-1.258749e-11
1.392864e-05
-3.085511e-06
-3.083238e-06
-3.08318e-06
-3.119932e-06
-0.002375843
0.002374127
-9.233666e-12
1.419495e-05
-3.122014e-06
-3.117733e-06
-3.119634e-06
-3.166255e-06
-0.002372358
0.002370494
-5.903533e-12
1.453365e-05
-3.170899e-06
-3.163981e-06
-3.168449e-06
-3.227303e-06
0.002366514
-4.023143e-12
1.496683e-05
-0.002368562
-3.234742e-06
-3.225034e-06
-3.232301e-06
-3.304779e-06
-0.002364381
0.002362103
-2.451816e-12
1.551395e-05
-3.315326e-06
-3.30265e-06
-3.313091e-06
-3.39964e-06
-0.002359714
0.002357133
-2.103328e-12
1.620136e-05
-3.412606e-06
-3.397696e-06
-3.41081e-06
-3.51147e-06
-0.002354405
0.002351433
-2.66169e-12
1.704234e-05
-3.525583e-06
-3.508988e-06
-3.523599e-06
-3.632532e-06
-0.002348274
0.002344826
-3.572676e-12
1.799875e-05
-3.645607e-06
-3.630051e-06
-3.643437e-06
-3.748306e-06
-0.002341167
0.002337206
-4.75078e-12
1.897267e-05
-3.759723e-06
-3.745991e-06
-3.757424e-06
-3.847713e-06
-0.00233303
0.002328566
-5.890879e-12
1.986716e-05
-3.856075e-06
-3.845443e-06
-3.853833e-06
-3.923175e-06
-0.002323902
0.002318979
-6.867705e-12
2.06205e-05
-3.927688e-06
-3.921043e-06
-3.925587e-06
-3.972434e-06
-0.002313877
0.002308555
-8.186103e-12
2.120982e-05
-3.973038e-06
-3.970475e-06
-3.971095e-06
-3.99616e-06
-0.002303078
0.002297417
-1.012091e-11
2.163607e-05
-3.993177e-06
-3.994457e-06
-3.991498e-06
-3.997182e-06
-0.002291624
0.002285688
-1.25072e-11
2.191026e-05
-3.991304e-06
-3.995739e-06
-3.989873e-06
-3.979642e-06
-0.002279644
0.002273497
-1.577206e-11
2.204732e-05
-3.972028e-06
-3.978375e-06
-3.970741e-06
-3.950289e-06
-0.002267261
0.002260961
-2.02881e-11
2.208417e-05
-3.942683e-06
-3.949195e-06
-3.941543e-06
-3.918142e-06
-0.002254582
0.002248166
-2.571023e-11
2.207393e-05
-3.911945e-06
-3.917173e-06
-3.910984e-06
-3.892714e-06
-0.002241663
0.002235141
-3.11841e-11
2.208145e-05
-3.888286e-06
-3.891696e-06
-3.887348e-06
-3.881562e-06
-0.002228508
0.002221875
-3.587898e-11
2.215182e-05
-3.878914e-06
-3.880443e-06
-3.877783e-06
-3.888476e-06
-0.002215086
0.002208313
-4.002053e-11
2.232376e-05
-3.888209e-06
-3.887328e-06
-3.886959e-06
-3.913736e-06
-0.002201322
0.002194356
-4.370158e-11
2.262533e-05
-3.917004e-06
-3.912958e-06
-3.915799e-06
-3.95292e-06
-0.002187086
0.002179872
-4.542639e-11
2.303273e-05
-3.957137e-06
-3.952319e-06
-3.956063e-06
-3.997382e-06
-0.002172259
0.002164738
-4.428318e-11
2.351598e-05
-4.000917e-06
-3.996827e-06
-3.999592e-06
-4.034519e-06
-0.002156705
0.002148886
-4.165203e-11
2.394787e-05
-4.031307e-06
-4.034167e-06
-4.029664e-06
-4.040961e-06
-0.00214043
0.002132338
-3.908083e-11
2.421929e-05
-4.023585e-06
-4.040931e-06
-4.02162e-06
-4.002518e-06
-0.002123515
0.002115385
-3.590924e-11
2.405905e-05
-3.962843e-06
-4.003192e-06
-3.960346e-06
-3.848949e-06
-0.002106529
0.002098571
-3.092541e-11
2.312841e-05
-3.739626e-06
-3.852852e-06
-3.728853e-06
-3.230558e-06
-0.002090001
0.002078816
-2.393248e-11
2.214637e-05
-2.241923e-06
-3.238883e-06
-2.24986e-06
-1.65922e-06
-0.0005144033
0.0005112642
-9.363808e-10
4.799341e-06
-3.243987e-06
-0.0005062301
0.000504308
1.673567e-11
5.166095e-06
-2.977077e-06
-0.0004988838
0.0004973128
-5.677799e-10
4.54865e-06
-2.851892e-06
-0.0004930433
0.0004917694
-7.342213e-10
4.126539e-06
-2.662991e-06
-0.0004883244
0.0004873124
-7.607422e-10
3.675686e-06
-2.487283e-06
-0.0004846439
0.0004838616
-7.72778e-10
3.270404e-06
-2.33721e-06
-0.000481841
0.0004812547
-7.409314e-10
2.924215e-06
-2.245431e-06
-0.0004797114
0.0004792803
-6.904947e-10
2.677197e-06
-2.219628e-06
-0.0004781292
0.0004777898
-5.6549e-10
2.559583e-06
-2.290102e-06
-0.0004768343
0.0004765197
-4.540115e-10
2.605161e-06
-2.446626e-06
-0.0004755352
0.0004751766
-4.201498e-10
2.805642e-06
-2.691514e-06
-0.0004739682
0.0004735008
-3.720296e-10
3.159239e-06
-3.014014e-06
-0.000471869
0.0004712253
-2.779491e-10
3.657949e-06
-3.417423e-06
-0.0004689685
0.0004680823
-1.302982e-10
4.303766e-06
-3.886072e-06
-0.0004650053
0.0004638147
4.572e-11
5.076624e-06
-4.388178e-06
-0.0004597473
0.0004582035
2.138019e-10
5.931762e-06
-4.87196e-06
-0.0004530295
0.0004511069
3.15323e-10
6.794236e-06
-5.262556e-06
-0.0004447974
0.0004425054
2.80922e-10
7.554305e-06
-5.469546e-06
-0.0004351511
0.0004325431
3.807677e-11
8.077514e-06
-5.412177e-06
-0.0004243726
0.0004215478
-4.100434e-10
8.237365e-06
-5.070099e-06
-0.0004129135
0.000410005
-9.334503e-10
7.979548e-06
-4.522345e-06
-0.0004013238
0.0003984737
-1.344233e-09
7.373792e-06
-3.908272e-06
-0.0003901532
0.0003874827
-1.534291e-09
6.580387e-06
-3.356867e-06
-0.0003798209
0.0003774043
-1.522079e-09
5.775052e-06
-2.925191e-06
-0.0003705565
0.0003684228
-1.389323e-09
5.06025e-06
-2.616326e-06
-0.0003624196
0.0003605623
-1.215088e-09
4.474848e-06
-2.410539e-06
-0.0003553448
0.0003537308
-1.013044e-09
4.025602e-06
-2.292609e-06
-0.0003491775
0.0003477553
-7.644405e-10
3.715631e-06
-2.265849e-06
-0.0003437058
0.000342422
-4.860169e-10
3.55016e-06
-2.321461e-06
-0.0003386887
0.0003374785
-1.340112e-10
3.531793e-06
-2.461227e-06
-0.0003338509
0.0003326292
4.166237e-10
3.682499e-06
-2.707064e-06
-0.0003288658
0.0003275401
1.262096e-09
4.031482e-06
-3.08892e-06
-0.0003233759
0.0003218536
2.49702e-09
4.608668e-06
-3.587795e-06
-0.0003170583
0.0003152772
3.252019e-09
5.365641e-06
-4.001603e-06
-0.0003098895
0.0003080181
1.257835e-09
5.871769e-06
-2.450883e-06
-0.0003022735
0.000299944
-2.848614e-09
4.783291e-06
-5.493214e-07
-0.0002930214
0.0002908803
-2.883806e-09
2.693337e-06
6.124194e-07
-0.0002845634
0.0002825118
-1.0128e-09
1.440235e-06
8.644296e-07
-0.0002767963
0.000275012
-3.319186e-10
9.202122e-07
9.005291e-07
-0.0002699612
0.0002683772
-1.011324e-09
6.845117e-07
8.99708e-07
-0.0002639388
0.0002625626
-1.871714e-09
4.783545e-07
8.800467e-07
-0.0002587062
0.0002575077
-2.37453e-09
3.208455e-07
8.176649e-07
-0.0002541195
0.0002530644
-2.25589e-09
2.397504e-07
7.529843e-07
-0.0002501018
0.0002491864
-1.888638e-09
1.643052e-07
7.600744e-07
-0.0002466296
0.0002458485
-1.441286e-09
2.24426e-08
8.22656e-07
-0.0002437207
0.0002430916
-1.001182e-09
-1.925544e-07
9.143908e-07
-0.0002414015
0.0002409151
-6.592131e-10
-4.273122e-07
1.024822e-06
-0.0002397075
0.0002394069
-3.682643e-10
-7.237595e-07
1.18282e-06
-0.0002387071
0.0002385565
-3.080419e-10
-1.031911e-06
1.318839e-06
-0.0002383263
0.0002383331
-2.350067e-10
-1.325432e-06
1.457931e-06
-0.0002385689
0.0002387274
-1.674725e-10
-1.616184e-06
1.600437e-06
-0.0002394046
0.000239706
-1.065578e-10
-1.901681e-06
1.742803e-06
-0.000240795
0.0002412293
-5.550711e-11
-2.177091e-06
1.880245e-06
-0.0002427036
0.0002432599
-8.275689e-12
-2.436559e-06
2.008336e-06
-0.0002450735
0.0002457357
3.760744e-11
-2.670556e-06
2.133774e-06
-0.0002478497
0.0002486076
7.750106e-11
-2.891766e-06
2.257055e-06
-0.0002509966
0.000251842
1.145799e-10
-3.102603e-06
2.374912e-06
-0.0002544823
0.0002554057
1.564973e-10
-3.298539e-06
2.483033e-06
-0.0002582625
0.000259252
1.768412e-10
-3.472687e-06
2.583954e-06
-0.00026229
0.0002633363
1.827707e-10
-3.630446e-06
2.683067e-06
-0.0002665344
0.0002676325
1.860934e-10
-3.781424e-06
2.782296e-06
-0.0002709793
0.0002721263
1.995913e-10
-3.929547e-06
2.881627e-06
-0.0002756137
0.0002768069
2.126751e-10
-4.075043e-06
2.980569e-06
-0.0002804264
0.000281663
2.285429e-10
-4.21741e-06
3.078508e-06
-0.0002854058
0.0002866829
2.416465e-10
-4.355771e-06
3.174878e-06
-0.0002905398
0.0002918543
2.483639e-10
-4.489563e-06
3.26928e-06
-0.0002958159
0.0002971645
2.607793e-10
-4.618194e-06
3.366917e-06
-0.000301221
0.0003025998
2.880586e-10
-4.745993e-06
3.51414e-06
-0.0003067245
0.0003081115
3.761859e-10
-4.901579e-06
3.311113e-06
-0.0003121907
0.0003139394
7.928497e-10
-5.060585e-06
4.067445e-06
-0.0003160366
0.00130161
3.286499e-10
-2.516509e-05
2.638353e-06
4.053819e-06
2.596624e-06
-0.0003160414
-0.0003288622
-0.0003288614
2.991016e-06
-0.001317194
0.001330569
-4.550097e-11
-2.630426e-05
3.497911e-06
2.964287e-06
3.475937e-06
3.366124e-06
-0.001343025
0.001355226
-6.438671e-11
-2.598786e-05
3.547679e-06
3.344835e-06
3.528151e-06
3.610324e-06
-0.001367363
0.001379501
-3.184664e-11
-2.67485e-05
3.715058e-06
3.590063e-06
3.695528e-06
3.732247e-06
-0.001391822
0.001404144
6.626924e-12
-2.73569e-05
3.802885e-06
3.714158e-06
3.785407e-06
3.856909e-06
-0.001416467
0.001428758
-4.455467e-11
-2.77947e-05
3.911703e-06
3.839872e-06
3.895079e-06
3.954515e-06
-0.001441068
0.001453374
-5.196323e-11
-2.816874e-05
3.992576e-06
3.938534e-06
3.977211e-06
4.040001e-06
-0.001465684
0.001477981
-8.037438e-12
-2.848908e-05
4.070152e-06
4.025556e-06
4.056365e-06
4.116244e-06
-0.001490271
0.001502537
2.472317e-11
-2.875411e-05
4.140058e-06
4.103481e-06
4.127536e-06
4.181311e-06
-0.001514786
0.001526999
2.567989e-11
-2.895357e-05
4.200628e-06
4.169958e-06
4.1894e-06
4.235112e-06
-0.001539185
0.001551319
3.064612e-11
-2.908533e-05
4.250539e-06
4.224937e-06
4.24075e-06
4.2771e-06
-0.001563417
0.001575443
5.968152e-11
-2.914284e-05
4.289931e-06
4.268246e-06
4.281312e-06
4.307509e-06
-0.001587423
0.00159931
7.771317e-11
-2.912336e-05
4.318175e-06
4.299646e-06
4.310491e-06
4.325868e-06
-0.001611142
0.001622857
6.53692e-11
-2.902167e-05
4.334525e-06
4.318651e-06
4.327476e-06
4.331191e-06
-0.001634506
0.001646012
3.323378e-11
-2.883099e-05
4.338009e-06
4.324591e-06
4.331501e-06
4.321985e-06
-0.001657441
0.001668697
-1.434594e-12
-2.85422e-05
4.327071e-06
4.316109e-06
4.321119e-06
4.296792e-06
-0.001679865
0.001690826
-2.421244e-11
-2.814252e-05
4.299671e-06
4.291299e-06
4.294275e-06
4.252981e-06
-0.001701684
0.001712295
-2.352045e-11
-2.761279e-05
4.253241e-06
4.247814e-06
4.24808e-06
4.187435e-06
-0.001722785
0.001732982
-9.414255e-12
-2.693155e-05
4.184796e-06
4.182638e-06
4.179927e-06
4.097859e-06
-0.001743038
0.001752749
2.066916e-12
-2.608202e-05
4.092064e-06
4.093347e-06
4.087466e-06
3.983383e-06
-0.001762296
0.001771451
7.728155e-13
-2.50613e-05
3.974076e-06
3.978861e-06
3.969884e-06
3.843265e-06
-0.001780422
0.001788957
-1.216695e-11
-2.38749e-05
3.830839e-06
3.839061e-06
3.826519e-06
3.675101e-06
-0.001797292
0.001805148
-1.760161e-11
-2.251765e-05
3.659275e-06
3.671488e-06
3.655273e-06
3.476233e-06
-0.001812784
0.001819889
-5.935483e-12
-2.096145e-05
3.455384e-06
3.472458e-06
3.451653e-06
3.233533e-06
-0.001826749
0.001833036
1.730212e-11
-1.91567e-05
3.205469e-06
3.229416e-06
3.20124e-06
2.950564e-06
-0.00183905
0.001844422
3.289511e-11
-1.709061e-05
2.913168e-06
2.946234e-06
2.908038e-06
2.535647e-06
-0.001849517
0.001853957
3.205189e-11
-1.444017e-05
2.468946e-06
2.531118e-06
2.464096e-06
2.051033e-06
-0.001858047
0.001861344
1.817123e-11
-1.135821e-05
1.98402e-06
2.046703e-06
1.979333e-06
1.505233e-06
-0.001864191
0.001866203
8.345318e-12
-7.86399e-06
1.425007e-06
1.500582e-06
1.420469e-06
8.4415e-07
-0.001867759
0.001868455
-3.041071e-12
-3.881927e-06
7.523935e-07
8.403795e-07
7.494331e-07
4.172536e-08
-0.001868412
0.00186709
9.586795e-12
1.434919e-06
-9.443664e-08
3.798318e-08
-9.786396e-08
-8.402499e-07
-0.0018649
0.001861235
1.557057e-11
7.23575e-06
-9.417988e-07
-8.428353e-07
-9.45771e-07
-2.314604e-06
-0.001856061
0.001849502
1.000476e-10
1.654837e-05
-2.668773e-06
-2.32471e-06
-2.680719e-06
-4.977545e-06
-0.001842673
0.001835805
1.312857e-10
2.807691e-05
-5.604975e-06
-4.999066e-06
-5.627991e-06
-1.037123e-05
-0.001828933
0.001822429
2.8957e-10
5.012203e-05
-1.142306e-05
-1.038714e-05
-1.14372e-05
-1.304935e-05
-0.001818225
0.001814213
-4.345674e-11
5.627731e-05
-1.309218e-05
-1.304464e-05
-1.307905e-05
-8.276604e-06
-0.001805083
0.001788744
-1.994886e-10
4.672652e-05
-6.938062e-06
-8.255123e-06
-6.917082e-06
-3.219543e-06
-0.001767272
0.001743548
-1.801743e-10
3.563337e-05
-2.739791e-06
-3.213758e-06
-2.73568e-06
-1.95209e-06
-0.001717879
0.001691024
-8.173443e-11
3.462933e-05
-1.936902e-06
-1.950413e-06
-1.935255e-06
-2.027177e-06
-0.001662918
0.001633292
1.200982e-10
3.771994e-05
-2.022034e-06
-2.024878e-06
-2.020203e-06
-1.99087e-06
-0.001601576
0.001567708
5.197512e-10
4.174324e-05
-1.948497e-06
-1.989805e-06
-1.946976e-06
-2.013767e-06
-0.001531764
0.001494153
9.845524e-10
4.570975e-05
-2.036378e-06
-2.013176e-06
-2.036112e-06
-2.570285e-06
-0.001455934
0.001418201
1.101178e-09
4.843164e-05
-2.782161e-06
-2.568386e-06
-2.779587e-06
-3.639619e-06
-0.001382831
0.001350117
7.915108e-10
4.747626e-05
-3.744536e-06
-3.636931e-06
-3.742424e-06
-3.587595e-06
-0.001320067
0.001292288
4.040059e-10
4.200255e-05
-3.525232e-06
-3.586403e-06
-3.524065e-06
-3.109311e-06
-0.001267055
0.001244353
4.665029e-11
3.505255e-05
-3.067048e-06
-3.108196e-06
-3.065943e-06
-2.487648e-06
-0.001223984
0.00120606
-3.050387e-10
2.766213e-05
-2.382108e-06
-2.486941e-06
-2.381455e-06
-1.616591e-06
-0.001190457
0.001177361
-5.610545e-10
1.929529e-05
-1.482795e-06
-1.616235e-06
-1.482413e-06
-6.127237e-07
-0.001166299
0.001157418
-6.842789e-10
1.112976e-05
-5.117483e-07
-6.125621e-07
-5.115888e-07
1.350247e-07
-0.001150346
0.001144773
-7.021978e-10
4.862734e-06
2.20398e-07
1.351221e-07
2.205109e-07
6.336103e-07
-0.001140289
0.001136663
-6.522511e-10
9.953335e-07
6.817494e-07
6.336246e-07
6.819226e-07
8.335963e-07
-0.001133663
0.001130975
-5.582675e-10
-6.662196e-07
8.436333e-07
8.336408e-07
8.433955e-07
8.427137e-07
-0.001128559
0.001126258
-4.345478e-10
-1.044883e-06
8.308242e-07
8.421539e-07
8.29962e-07
5.713405e-07
-0.001124622
0.001123858
-3.116686e-10
-1.743456e-06
6.851262e-07
5.688218e-07
6.818481e-07
8.856588e-07
-0.001122426
0.001118907
-2.370079e-10
1.830958e-07
7.755171e-07
8.93287e-07
7.822873e-07
8.180756e-07
-0.001115956
0.001114386
-1.623557e-10
-1.532271e-06
7.258708e-07
8.261929e-07
7.329216e-07
8.808158e-07
-0.001112886
0.001111818
-1.069206e-10
-2.418698e-06
8.573343e-07
8.865785e-07
8.621675e-07
1.023371e-06
-0.001110949
0.001110554
-6.777656e-11
-3.702935e-06
1.021811e-06
1.027514e-06
1.025574e-06
1.212858e-06
-0.001110382
0.001110646
-4.021474e-11
-5.15169e-06
1.227605e-06
1.216227e-06
1.230929e-06
1.413981e-06
-0.001111153
0.001112126
-2.192498e-11
-6.689551e-06
1.441264e-06
1.416873e-06
1.444071e-06
1.63928e-06
-0.001113344
0.001115042
-7.729613e-12
-8.32269e-06
1.670713e-06
1.641414e-06
1.672768e-06
1.865575e-06
-0.001116991
0.001119407
2.013737e-12
-9.944344e-06
1.897104e-06
1.867127e-06
1.898596e-06
2.079271e-06
-0.001122076
0.001125182
7.269801e-12
-1.148396e-05
2.108662e-06
2.080359e-06
2.109699e-06
2.270573e-06
-0.001128526
0.001132263
1.014499e-11
-1.287264e-05
2.296405e-06
2.271284e-06
2.297075e-06
2.435831e-06
-0.001136211
0.001140503
1.26851e-11
-1.408076e-05
2.458038e-06
2.436235e-06
2.45841e-06
2.577056e-06
-0.001144976
0.001149746
1.492694e-11
-1.511673e-05
2.596024e-06
2.577209e-06
2.596151e-06
2.697439e-06
-0.001154669
0.001159845
1.565239e-11
-1.599806e-05
2.713625e-06
2.697388e-06
2.713552e-06
2.799938e-06
-0.001165149
0.001170665
1.496672e-11
-1.67431e-05
2.813754e-06
2.799716e-06
2.813513e-06