/*--------------------------------*- C++ -*----------------------------------*\
| =========                 |                                                 |
| \\      /  F ield         | foam-extend: Open Source CFD                    |
|  \\    /   O peration     | Version:     3.1                                |
|   \\  /    A nd           | Web:         http://www.extend-project.de       |
|    \\/     M anipulation  |                                                 |
\*---------------------------------------------------------------------------*/
FoamFile
{
    version     2.0;
    format      ascii;
    class       volScalarField;
    location    "2";
    object      pd;
}
// * * * * * * * * * * * * * * * * * * * * * * * * * * * * * * * * * * * * * //

dimensions      [1 -1 -2 0 0 0 0];

internalField   nonuniform List<scalar> 
119952
(
6894.889
6845.339
6824.872
6824.376
6827.721
6815.747
6808.375
6801.821
6795.843
6790.291
6785.101
6780.223
6775.659
6771.336
6767.271
6763.429
6759.758
6756.127
6752.063
6745.164
6757.366
6745.123
6738.79
6755.16
6748.873
6748.886
6748.632
6752.696
6772.02
7302.035
7226.332
7213.377
7201.538
7189.767
7177.887
7165.978
7154.042
7142.097
7130.11
7117.599
7105.029
7093.693
7081.92
7070.216
7058.611
7047.131
7035.787
7024.585
7013.712
7003.341
6991.424
6980.678
6970.305
6960.205
6950.333
6940.689
6931.286
6922.172
6913.428
6904.303
6895.996
6887.843
6879.951
6872.321
6864.949
6857.823
6851.078
6846.219
6846.5
6834.354
6827.835
6823.808
6819.243
6812.83
6806.652
6800.595
6794.845
6789.432
6784.334
6779.535
6775.015
6770.754
6766.732
6762.929
6759.31
6755.829
6752.448
6749.307
6747.505
6745.394
6742.791
6744.018
6746.6
6746.309
6746.953
6747.715
6746.294
6735.145
6732.878
6733.337
6733.861
6734.483
6735.167
6735.945
6736.834
6737.843
6738.979
6740.245
6741.642
6743.171
6744.831
6746.62
6748.536
6750.575
6752.734
6755.011
6757.402
6759.903
6762.511
6765.222
6768.034
6770.942
6773.942
6777.032
6780.207
6783.464
6786.8
6790.211
6793.693
6797.243
6800.858
6804.535
6808.269
6812.058
6815.899
6819.788
6823.722
6827.698
6831.713
6835.762
6839.845
6843.957
6848.091
6852.242
6856.401
6860.558
6864.815
6869.127
6873.465
6877.795
6882.128
6886.454
6890.776
6895.103
6899.428
6903.749
6908.066
6912.376
6916.678
6920.971
6925.254
6929.524
6933.78
6938.021
6942.246
6946.452
6950.64
6954.807
6958.952
6963.075
6967.174
6971.248
6975.297
6979.318
6983.312
6987.277
6991.213
6995.12
6998.995
7002.839
7006.651
7010.431
7014.177
7017.889
7021.569
7025.217
7028.822
7032.39
7035.924
7039.42
7042.877
7046.293
7049.666
7052.989
7056.245
7059.426
7062.885
7066.388
7068.967
7072.229
7075.43
7078.567
7081.65
7084.684
7087.674
7090.623
7093.533
7096.404
7099.237
7102.033
7104.792
7107.513
7110.196
7112.842
7115.45
7118.019
7120.55
7123.041
7125.493
7127.904
7130.272
7132.597
7134.874
7137.103
7139.275
7141.386
7143.425
7145.374
7147.199
7148.841
7150.165
7150.794
7150.522
7154.55
7157.821
7160.752
7163.459
7166.03
7168.498
7170.885
7173.201
7175.455
7177.655
7179.805
7181.909
7183.971
7185.992
7187.974
7189.921
7191.832
7193.709
7195.554
7197.367
7199.149
7200.901
7202.623
7204.316
7205.981
7207.618
7209.228
7210.812
7212.371
7213.906
7215.418
7216.913
7218.365
7219.813
7225.417
7224.145
7224.174
7225.357
7226.446
7227.62
7228.782
7229.948
7231.108
7232.245
7233.358
7234.447
7235.512
7236.553
7237.569
7238.561
7239.53
7240.473
7241.393
7242.289
7243.16
7244.008
7244.832
7245.633
7246.41
7247.164
7247.895
7248.603
7249.289
7249.953
7250.594
7251.214
7251.813
7252.391
7252.95
7253.489
7254.01
7254.515
7255.004
7255.482
7255.952
7256.422
7256.905
7257.424
7257.996
7258.485
7258.598
7258.585
7258.651
7258.719
7258.797
7258.878
7258.96
7258.94
7257.786
7258.412
7258.622
7258.583
7258.533
7258.473
7258.397
7258.313
7258.216
7258.106
7257.981
7257.843
7257.69
7257.523
7257.342
7257.148
7256.94
7256.719
7256.485
7256.239
7255.981
7255.71
7255.428
7255.134
7254.829
7254.513
7254.186
7253.849
7253.502
7253.145
7252.779
7252.403
7252.018
7251.624
7251.221
7250.81
7250.391
7249.963
7249.528
7249.085
7248.635
7248.177
7247.712
7247.239
7246.76
7246.273
7245.78
7245.279
7244.771
7244.257
7243.735
7243.206
7242.669
7242.125
7241.573
7241.013
7240.444
7239.867
7239.28
7238.683
7238.075
7237.455
7236.823
7236.177
7235.517
7234.839
7234.143
7233.425
7232.684
7231.915
7231.115
7230.277
7229.394
7228.456
7227.451
7226.359
7225.154
7223.796
7222.219
7220.303
7217.845
7214.56
7210.609
7210.303
7227.259
7566.972
7559.054
7550.451
7541.599
7533.195
7524.89
7516.583
7508.491
7500.23
7489.735
7482.583
7474.595
7466.452
7458.393
7450.14
7441.901
7433.424
7425.116
7418.307
7408.743
7398.848
7389.75
7380.726
7371.516
7362.17
7352.719
7343.106
7333.448
7323.068
7312.477
7302.212
7291.631
7280.878
7269.958
7258.881
7247.67
7236.446
7225.07
7212.594
7201.007
7189.353
7177.543
7165.655
7153.719
7141.77
7129.846
7117.935
7106.007
7094.129
7082.282
7070.526
7058.905
7047.416
7036.066
7024.873
7013.859
7000.539
6989.695
6979.024
6968.72
6958.663
6948.815
6939.196
6929.82
6920.698
6911.848
6903.198
6894.759
6886.597
6878.73
6871.159
6863.904
6857.029
6850.671
6844.944
6839.63
6832.971
6826.518
6820.989
6815.641
6809.889
6803.977
6798.228
6792.736
6787.514
6782.565
6777.886
6773.47
6769.307
6765.385
6761.695
6758.226
6754.982
6751.998
6749.379
6747.289
6745.564
6744.248
6743.925
6744.234
6744.092
6743.566
6742.546
6740.461
6736.987
6734.798
6734.244
6734.344
6734.686
6735.207
6735.896
6736.739
6737.728
6738.858
6740.127
6741.531
6743.074
6744.751
6746.559
6748.493
6750.554
6752.734
6755.032
6757.443
6759.965
6762.594
6765.326
6768.157
6771.085
6774.104
6777.212
6780.405
6783.68
6787.034
6790.461
6793.96
6797.527
6801.157
6804.849
6808.598
6812.401
6816.255
6820.157
6824.103
6828.09
6832.115
6836.175
6840.267
6844.387
6848.532
6852.697
6856.883
6861.095
6865.349
6869.635
6873.938
6878.254
6882.58
6886.913
6891.237
6895.573
6899.906
6904.235
6908.558
6912.875
6917.184
6921.482
6925.77
6930.044
6934.305
6938.549
6942.777
6946.986
6951.176
6955.346
6959.493
6963.618
6967.718
6971.793
6975.843
6979.865
6983.859
6987.825
6991.761
6995.667
6999.542
7003.385
7007.196
7010.975
7014.719
7018.43
7022.106
7025.748
7029.354
7032.924
7036.456
7039.95
7043.406
7046.821
7050.196
7053.529
7056.822
7060.082
7063.345
7066.144
7069.021
7072.226
7075.401
7078.526
7081.598
7084.626
7087.615
7090.565
7093.476
7096.349
7099.183
7101.98
7104.739
7107.461
7110.144
7112.789
7115.396
7117.965
7120.494
7122.984
7125.434
7127.842
7130.207
7132.528
7134.802
7137.025
7139.193
7141.3
7143.334
7145.282
7147.121
7148.814
7150.321
7151.706
7153.306
7155.823
7158.627
7161.32
7163.915
7166.415
7168.833
7171.18
7173.465
7175.694
7177.873
7180.005
7182.093
7184.141
7186.15
7188.123
7190.06
7191.963
7193.833
7195.671
7197.478
7199.254
7201.001
7202.718
7204.407
7206.067
7207.7
7209.307
7210.887
7212.443
7213.974
7215.485
7216.98
7218.472
7220.029
7221.94
7223.342
7224.338
7225.382
7226.558
7227.769
7228.961
7230.13
7231.278
7232.405
7233.51
7234.592
7235.649
7236.683
7237.692
7238.677
7239.639
7240.576
7241.489
7242.378
7243.244
7244.086
7244.905
7245.7
7246.472
7247.221
7247.947
7248.65
7249.331
7249.989
7250.626
7251.242
7251.836
7252.411
7252.965
7253.5
7254.017
7254.518
7255.003
7255.475
7255.937
7256.392
7256.841
7257.28
7257.688
7258.015
7258.216
7258.34
7258.449
7258.553
7258.652
7258.747
7258.846
7258.923
7258.818
7258.684
7258.629
7258.574
7258.504
7258.427
7258.345
7258.254
7258.152
7258.037
7257.908
7257.764
7257.606
7257.434
7257.247
7257.047
7256.834
7256.608
7256.37
7256.119
7255.856
7255.581
7255.295
7254.997
7254.689
7254.369
7254.04
7253.7
7253.35
7252.99
7252.621
7252.243
7251.856
7251.46
7251.055
7250.643
7250.222
7249.793
7249.356
7248.912
7248.46
7248.001
7247.535
7247.061
7246.581
7246.093
7245.599
7245.097
7244.589
7244.073
7243.55
7243.02
7242.483
7241.938
7241.385
7240.823
7240.254
7239.675
7239.086
7238.487
7237.878
7237.256
7236.622
7235.974
7235.31
7234.629
7233.93
7233.209
7232.464
7231.691
7230.887
7230.046
7229.161
7228.224
7227.224
7226.147
7224.974
7223.683
7222.248
7220.652
7218.95
7217.348
7216.558
7216.918
7219.195
7953.962
7953.724
7948.385
7940.147
7929.772
7917.962
7905.237
7892.002
7878.445
7864.871
7849.767
7837.66
7824.765
7812.48
7800.558
7789.016
7777.802
7766.857
7756.564
7745.652
7734.851
7724.351
7714.421
7704.627
7694.983
7685.448
7676.007
7666.708
7657.826
7647.816
7638.527
7629.351
7620.228
7611.18
7602.208
7593.309
7584.535
7576.191
7566.866
7557.572
7549.296
7540.952
7532.604
7524.312
7516.066
7507.877
7499.73
7491.44
7483.273
7475.123
7466.898
7458.682
7450.466
7442.233
7433.95
7425.632
7415.409
7406.774
7397.842
7388.882
7379.875
7370.733
7361.422
7351.939
7342.288
7332.448
7322.437
7312.127
7301.604
7290.935
7280.123
7269.161
7258.058
7246.79
7235.386
7223.841
7212.064
7200.192
7188.305
7176.38
7164.407
7152.404
7140.391
7128.386
7116.401
7104.425
7092.482
7080.619
7068.856
7057.209
7045.691
7034.32
7023.119
7012.168
7001.556
6990.75
6980.125
6969.793
6959.693
6949.801
6940.132
6930.699
6921.509
6912.566
6903.853
6895.388
6887.194
6879.285
6871.673
6864.374
6857.415
6850.823
6844.589
6838.646
6832.227
6825.924
6820.089
6814.409
6808.645
6802.885
6797.282
6791.904
6786.771
6781.889
6777.261
6772.887
6768.762
6764.883
6761.247
6757.858
6754.728
6751.886
6749.382
6747.29
6745.566
6744.241
6743.453
6742.95
6742.264
6741.333
6740.106
6738.445
6736.318
6734.851
6734.305
6734.261
6734.47
6734.886
6735.493
6736.275
6737.217
6738.311
6739.552
6740.927
6742.458
6744.125
6745.924
6747.851
6749.903
6752.078
6754.371
6756.779
6759.298
6761.924
6764.654
6767.484
6770.41
6773.429
6776.538
6779.731
6783.007
6786.361
6789.791
6793.291
6796.86
6800.492
6804.186
6807.938
6811.744
6815.601
6819.505
6823.455
6827.445
6831.474
6835.538
6839.635
6843.761
6847.914
6852.092
6856.294
6860.524
6864.787
6869.075
6873.371
6877.677
6881.995
6886.321
6890.648
6894.979
6899.309
6903.637
6907.961
6912.279
6916.59
6920.891
6925.182
6929.46
6933.724
6937.973
6942.205
6946.419
6950.613
6954.788
6958.94
6963.07
6967.175
6971.256
6975.311
6979.339
6983.339
6987.31
6991.252
6995.164
6999.045
7002.894
7006.711
7010.496
7014.247
7017.964
7021.646
7025.293
7028.906
7032.483
7036.023
7039.526
7042.991
7046.418
7049.808
7053.159
7056.476
7059.767
7063.03
7066.362
7069.594
7072.792
7075.86
7078.957
7082.019
7085.041
7088.025
7090.97
7093.877
7096.745
7099.576
7102.369
7105.125
7107.843
7110.522
7113.164
7115.767
7118.331
7120.857
7123.342
7125.787
7128.191
7130.552
7132.868
7135.138
7137.359
7139.526
7141.636
7143.683
7145.659
7147.561
7149.389
7151.205
7153.051
7155.06
7157.353
7159.825
7162.317
7164.768
7167.167
7169.512
7171.804
7174.046
7176.241
7178.392
7180.5
7182.568
7184.599
7186.592
7188.551
7190.475
7192.367
7194.226
7196.054
7197.851
7199.619
7201.357
7203.066
7204.747
7206.399
7208.025
7209.624
7211.197
7212.744
7214.267
7215.766
7217.243
7218.695
7220.129
7221.432
7222.582
7223.786
7225.062
7226.346
7227.6
7228.817
7230.004
7231.166
7232.303
7233.414
7234.5
7235.561
7236.597
7237.608
7238.594
7239.556
7240.494
7241.407
7242.297
7243.162
7244.004
7244.822
7245.617
7246.389
7247.137
7247.863
7248.565
7249.246
7249.904
7250.541
7251.156
7251.75
7252.324
7252.877
7253.412
7253.928
7254.426
7254.907
7255.373
7255.824
7256.26
7256.679
7257.074
7257.433
7257.735
7257.961
7258.123
7258.258
7258.38
7258.488
7258.583
7258.656
7258.716
7258.753
7258.707
7258.624
7258.535
7258.449
7258.364
7258.278
7258.185
7258.081
7257.966
7257.837
7257.695
7257.538
7257.366
7257.181
7256.982
7256.77
7256.544
7256.306
7256.055
7255.792
7255.517
7255.231
7254.933
7254.624
7254.305
7253.976
7253.636
7253.286
7252.927
7252.558
7252.18
7251.793
7251.397
7250.993
7250.581
7250.16
7249.732
7249.296
7248.852
7248.401
7247.943
7247.477
7247.005
7246.525
7246.039
7245.545
7245.044
7244.537
7244.023
7243.501
7242.972
7242.436
7241.892
7241.34
7240.78
7240.212
7239.634
7239.047
7238.45
7237.842
7237.223
7236.59
7235.944
7235.283
7234.605
7233.909
7233.192
7232.452
7231.686
7230.891
7230.061
7229.193
7228.279
7227.313
7226.288
7225.196
7224.032
7222.802
7221.535
7220.313
7219.271
7218.66
7218.72
7219.404
7164.956
7291.066
7405.883
7521.672
7616.876
7705.704
7772.029
7826.005
7867.3
7897.297
7917.623
7929.837
7933.724
7934.469
7930.697
7923.699
7914.534
7903.897
7892.292
7880.101
7867.648
7855.211
7842.726
7830.421
7818.269
7806.401
7794.846
7783.599
7772.661
7762.076
7752.007
7737.684
7728.128
7718.702
7709.031
7699.443
7690.027
7680.733
7671.529
7662.399
7653.313
7644.258
7635.199
7626.173
7617.233
7608.382
7599.608
7590.906
7582.275
7573.7
7565.119
7556.474
7547.935
7539.53
7531.208
7522.943
7514.732
7506.565
7498.431
7490.319
7482.173
7474.022
7465.887
7457.752
7449.598
7441.413
7433.183
7424.965
7416.823
7408.211
7399.365
7390.522
7381.62
7372.565
7363.326
7353.902
7344.309
7334.51
7324.493
7314.245
7303.804
7293.189
7282.402
7271.455
7260.399
7249.052
7237.575
7225.962
7214.183
7202.301
7190.367
7178.378
7166.338
7154.264
7142.177
7130.092
7118.024
7105.984
7093.987
7082.062
7070.231
7058.514
7046.923
7035.474
7024.176
7013.039
7002.036
6991.144
6980.475
6970.063
6959.884
6949.928
6940.201
6930.708
6921.456
6912.45
6903.689
6895.178
6886.933
6878.966
6871.284
6863.895
6856.806
6850.018
6843.505
6837.188
6830.839
6824.609
6818.646
6812.84
6807.091
6801.433
6795.941
6790.66
6785.609
6780.797
6776.23
6771.91
6767.837
6764.012
6760.437
6757.117
6754.064
6751.298
6748.846
6746.741
6744.967
6743.516
6742.41
6741.501
6740.561
6739.517
6738.339
6736.994
6735.566
6734.526
6734.019
6733.898
6734.042
6734.41
6734.979
6735.732
6736.655
6737.738
6738.977
6740.373
6741.895
6743.558
6745.356
6747.286
6749.342
6751.522
6753.821
6756.235
6758.76
6761.394
6764.131
6766.969
6769.903
6772.93
6776.047
6779.249
6782.532
6785.894
6789.331
6792.84
6796.416
6800.056
6803.758
6807.517
6811.33
6815.194
6819.106
6823.063
6827.061
6831.098
6835.17
6839.275
6843.41
6847.573
6851.762
6855.976
6860.216
6864.481
6868.767
6873.065
6877.374
6881.694
6886.021
6890.352
6894.684
6899.017
6903.347
6907.673
6911.994
6916.307
6920.611
6924.904
6929.185
6933.452
6937.703
6941.938
6946.155
6950.353
6954.53
6958.685
6962.818
6966.927
6971.01
6975.068
6979.098
6983.101
6987.075
6991.02
6994.934
6998.818
7002.67
7006.489
7010.276
7014.029
7017.748
7021.433
7025.083
7028.697
7032.276
7035.818
7039.323
7042.791
7046.222
7049.617
7052.976
7056.303
7059.602
7062.872
7066.133
7069.344
7072.516
7075.632
7078.72
7081.773
7084.788
7087.766
7090.706
7093.61
7096.476
7099.305
7102.096
7104.851
7107.568
7110.248
7112.891
7115.496
7118.062
7120.59
7123.079
7125.528
7127.936
7130.303
7132.627
7134.906
7137.14
7139.325
7141.461
7143.545
7145.579
7147.567
7149.524
7151.483
7153.48
7155.581
7157.836
7160.201
7162.591
7164.959
7167.294
7169.59
7171.846
7174.06
7176.233
7178.367
7180.462
7182.52
7184.542
7186.529
7188.482
7190.402
7192.29
7194.147
7195.973
7197.768
7199.534
7201.271
7202.979
7204.659
7206.311
7207.936
7209.534
7211.105
7212.65
7214.169
7215.662
7217.127
7218.557
7219.952
7221.279
7222.552
7223.826
7225.098
7226.355
7227.588
7228.797
7229.981
7231.142
7232.278
7233.389
7234.475
7235.537
7236.574
7237.587
7238.574
7239.538
7240.477
7241.391
7242.282
7243.148
7243.991
7244.81
7245.605
7246.377
7247.126
7247.852
7248.555
7249.235
7249.894
7250.53
7251.145
7251.738
7252.311
7252.863
7253.396
7253.909
7254.404
7254.879
7255.337
7255.776
7256.196
7256.593
7256.962
7257.295
7257.583
7257.815
7258
7258.155
7258.289
7258.404
7258.499
7258.574
7258.633
7258.663
7258.634
7258.571
7258.502
7258.431
7258.355
7258.272
7258.179
7258.075
7257.959
7257.829
7257.686
7257.528
7257.357
7257.172
7256.973
7256.761
7256.535
7256.297
7256.046
7255.783
7255.508
7255.222
7254.924
7254.616
7254.296
7253.966
7253.626
7253.276
7252.917
7252.548
7252.17
7251.783
7251.387
7250.983
7250.571
7250.15
7249.722
7249.286
7248.843
7248.392
7247.934
7247.468
7246.996
7246.517
7246.031
7245.538
7245.038
7244.531
7244.018
7243.497
7242.969
7242.434
7241.892
7241.341
7240.783
7240.216
7239.641
7239.056
7238.462
7237.857
7237.24
7236.612
7235.97
7235.315
7234.643
7233.954
7233.247
7232.518
7231.765
7230.986
7230.179
7229.338
7228.461
7227.545
7226.588
7225.589
7224.556
7223.504
7222.466
7221.505
7220.703
7220.175
7220.012
7220.059
6595.34
6586.15
6583.1
6587.663
6602.167
6631.888
6675.554
6735.975
6813.268
6907.019
7014.26
7127.547
7246.644
7365.055
7476.859
7578.85
7686.456
7758.223
7814.288
7856.044
7885.417
7904.528
7915.486
7920.115
7920.431
7917.289
7911.138
7902.644
7892.602
7881.592
7870.006
7858.136
7846.192
7834.273
7822.474
7810.871
7799.494
7788.361
7777.476
7766.815
7756.346
7745.992
7735.361
7725.501
7715.969
7706.466
7697.075
7687.829
7678.699
7669.653
7660.68
7651.766
7642.876
7634.007
7625.197
7616.455
7607.779
7599.162
7590.6
7582.087
7573.622
7565.162
7556.688
7548.295
7540.002
7531.773
7523.592
7515.455
7507.357
7499.287
7491.232
7483.179
7475.131
7467.083
7459.026
7450.949
7442.842
7434.693
7426.486
7418.167
7409.6
7400.905
7392.138
7383.261
7374.227
7365.016
7355.614
7346.042
7336.219
7326.19
7315.948
7305.499
7294.853
7284.014
7272.978
7261.705
7250.403
7238.916
7227.26
7215.447
7203.516
7191.502
7179.421
7167.284
7155.111
7142.92
7130.728
7118.553
7106.409
7094.315
7082.293
7070.365
7058.548
7046.858
7035.307
7023.906
7012.664
7001.587
6990.676
6979.966
6969.482
6959.225
6949.196
6939.398
6929.84
6920.526
6911.464
6902.655
6894.103
6885.815
6877.801
6870.063
6862.605
6855.425
6848.515
6841.851
6835.385
6829.024
6822.806
6816.787
6810.939
6805.221
6799.643
6794.243
6789.049
6784.076
6779.336
6774.835
6770.577
6766.564
6762.799
6759.284
6756.024
6753.029
6750.311
6747.883
6745.76
6743.932
6742.382
6741.091
6739.978
6738.927
6737.879
6736.809
6735.703
6734.653
6733.857
6733.414
6733.288
6733.418
6733.772
6734.33
6735.075
6735.995
6737.079
6738.32
6739.716
6741.254
6742.931
6744.744
6746.689
6748.761
6750.956
6753.271
6755.701
6758.244
6760.894
6763.648
6766.502
6769.453
6772.496
6775.629
6778.847
6782.146
6785.524
6788.976
6792.5
6796.091
6799.746
6803.462
6807.235
6811.062
6814.94
6818.866
6822.836
6826.848
6830.898
6834.983
6839.102
6843.251
6847.428
6851.631
6855.859
6860.111
6864.384
6868.676
6872.983
6877.301
6881.628
6885.962
6890.3
6894.64
6898.979
6903.317
6907.65
6911.977
6916.297
6920.607
6924.906
6929.193
6933.465
6937.723
6941.963
6946.185
6950.387
6954.569
6958.729
6962.866
6966.978
6971.066
6975.127
6979.161
6983.167
6987.144
6991.092
6995.009
6998.895
7002.75
7006.572
7010.36
7014.116
7017.837
7021.524
7025.176
7028.792
7032.372
7035.917
7039.425
7042.896
7046.332
7049.731
7053.096
7056.427
7059.727
7062.996
7066.236
7069.44
7072.607
7075.732
7078.82
7081.871
7084.885
7087.862
7090.802
7093.705
7096.571
7099.4
7102.192
7104.946
7107.662
7110.342
7112.985
7115.59
7118.157
7120.687
7123.178
7125.63
7128.042
7130.415
7132.746
7135.035
7137.282
7139.486
7141.647
7143.765
7145.846
7147.895
7149.927
7151.963
7154.032
7156.168
7158.392
7160.681
7162.992
7165.296
7167.579
7169.835
7172.058
7174.247
7176.4
7178.517
7180.599
7182.647
7184.66
7186.64
7188.588
7190.503
7192.387
7194.24
7196.063
7197.856
7199.62
7201.355
7203.061
7204.74
7206.39
7208.013
7209.609
7211.178
7212.72
7214.235
7215.722
7217.18
7218.606
7220
7221.353
7222.665
7223.95
7225.215
7226.463
7227.691
7228.897
7230.08
7231.239
7232.374
7233.484
7234.57
7235.631
7236.667
7237.679
7238.667
7239.63
7240.569
7241.483
7242.373
7243.24
7244.082
7244.901
7245.696
7246.467
7247.216
7247.941
7248.644
7249.323
7249.981
7250.616
7251.229
7251.821
7252.392
7252.942
7253.471
7253.98
7254.469
7254.938
7255.386
7255.814
7256.22
7256.601
7256.954
7257.273
7257.552
7257.789
7257.987
7258.154
7258.296
7258.415
7258.513
7258.588
7258.64
7258.662
7258.648
7258.61
7258.558
7258.497
7258.426
7258.344
7258.251
7258.145
7258.027
7257.896
7257.75
7257.591
7257.418
7257.232
7257.031
7256.818
7256.591
7256.352
7256.1
7255.836
7255.56
7255.273
7254.974
7254.664
7254.344
7254.013
7253.672
7253.321
7252.96
7252.59
7252.211
7251.823
7251.427
7251.022
7250.609
7250.187
7249.758
7249.322
7248.878
7248.427
7247.968
7247.502
7247.03
7246.551
7246.064
7245.572
7245.072
7244.565
7244.052
7243.532
7243.005
7242.471
7241.93
7241.381
7240.825
7240.26
7239.687
7239.106
7238.514
7237.913
7237.302
7236.679
7236.044
7235.395
7234.733
7234.055
7233.359
7232.646
7231.912
7231.155
7230.375
7229.569
7228.736
7227.876
7226.989
7226.08
7225.159
7224.243
7223.359
7222.55
7221.866
7221.363
7221.071
7220.877
6771.804
6751.354
6733.601
6714.594
6697.04
6677.48
6660.264
6643.381
6627.029
6611.772
6598.539
6588.02
6582.158
6582.827
6592.177
6616.662
6655.746
6711.266
6784.426
6876.467
6984.654
7104.239
7229.777
7354.939
7472.665
7578.197
7666.974
7742.095
7801.165
7845.296
7876.448
7896.66
7907.837
7911.975
7911.409
7907.964
7902.297
7894.494
7885.055
7874.612
7863.572
7852.211
7840.735
7829.274
7817.919
7806.725
7795.698
7784.864
7774.254
7763.82
7753.517
7743.366
7733.365
7723.719
7714.295
7704.963
7695.73
7686.619
7677.615
7668.689
7659.826
7651.01
7642.224
7633.472
7624.764
7616.104
7607.494
7598.932
7590.416
7581.944
7573.511
7565.102
7556.723
7548.406
7540.16
7531.972
7523.834
7515.741
7507.688
7499.666
7491.668
7483.684
7475.705
7467.724
7459.734
7451.721
7443.671
7435.562
7427.368
7419.067
7410.615
7402.031
7393.31
7384.453
7375.431
7366.226
7356.829
7347.202
7337.405
7327.382
7317.134
7306.667
7295.988
7285.103
7274.015
7262.724
7251.282
7239.674
7227.912
7216.011
7203.993
7191.883
7179.701
7167.462
7155.187
7142.893
7130.599
7118.324
7106.085
7093.901
7081.793
7069.78
7057.88
7046.107
7034.477
7023.001
7011.69
7000.555
6989.602
6978.848
6968.312
6958.003
6947.923
6938.08
6928.478
6919.124
6910.025
6901.181
6892.596
6884.275
6876.221
6868.436
6860.92
6853.668
6846.67
6839.906
6833.35
6826.959
6820.734
6814.7
6808.849
6803.163
6797.647
6792.319
6787.197
6782.295
6777.623
6773.185
6768.988
6765.033
6761.324
6757.864
6754.657
6751.708
6749.025
6746.615
6744.48
6742.612
6740.994
6739.601
6738.383
6737.274
6736.251
6735.26
6734.309
6733.488
6732.867
6732.512
6732.422
6732.57
6732.933
6733.497
6734.247
6735.174
6736.268
6737.522
6738.929
6740.483
6742.177
6744.009
6745.972
6748.064
6750.279
6752.614
6755.065
6757.628
6760.299
6763.074
6765.949
6768.92
6771.984
6775.137
6778.375
6781.694
6785.092
6788.564
6792.106
6795.716
6799.39
6803.124
6806.915
6810.76
6814.656
6818.599
6822.586
6826.615
6830.682
6834.785
6838.92
6843.086
6847.28
6851.499
6855.743
6860.009
6864.295
6868.599
6872.917
6877.246
6881.584
6885.928
6890.276
6894.626
6898.976
6903.323
6907.666
6912.003
6916.332
6920.651
6924.959
6929.254
6933.535
6937.8
6942.047
6946.277
6950.486
6954.675
6958.841
6962.984
6967.102
6971.195
6975.261
6979.3
6983.311
6987.293
6991.245
6995.166
6999.056
7002.914
7006.739
7010.532
7014.29
7018.014
7021.704
7025.358
7028.978
7032.561
7036.108
7039.619
7043.094
7046.533
7049.936
7053.305
7056.639
7059.94
7063.208
7066.445
7069.647
7072.81
7075.936
7079.023
7082.074
7085.088
7088.064
7091.004
7093.907
7096.773
7099.601
7102.393
7105.148
7107.865
7110.545
7113.188
7115.794
7118.363
7120.895
7123.389
7125.845
7128.262
7130.641
7132.981
7135.282
7137.544
7139.767
7141.953
7144.104
7146.223
7148.32
7150.404
7152.49
7154.599
7156.747
7158.945
7161.184
7163.44
7165.695
7167.937
7170.157
7172.35
7174.515
7176.648
7178.749
7180.817
7182.854
7184.857
7186.83
7188.77
7190.68
7192.559
7194.408
7196.227
7198.017
7199.778
7201.51
7203.214
7204.89
7206.538
7208.158
7209.751
7211.317
7212.856
7214.367
7215.849
7217.303
7218.726
7220.118
7221.475
7222.795
7224.087
7225.357
7226.607
7227.835
7229.041
7230.223
7231.381
7232.515
7233.625
7234.71
7235.77
7236.806
7237.817
7238.804
7239.766
7240.704
7241.618
7242.508
7243.373
7244.215
7245.033
7245.827
7246.598
7247.345
7248.07
7248.771
7249.449
7250.105
7250.739
7251.35
7251.94
7252.507
7253.054
7253.579
7254.083
7254.566
7255.028
7255.469
7255.887
7256.282
7256.651
7256.991
7257.301
7257.575
7257.814
7258.018
7258.191
7258.339
7258.461
7258.561
7258.637
7258.688
7258.714
7258.712
7258.687
7258.645
7258.59
7258.521
7258.44
7258.346
7258.24
7258.12
7257.986
7257.839
7257.678
7257.503
7257.315
7257.113
7256.897
7256.669
7256.428
7256.174
7255.909
7255.631
7255.342
7255.042
7254.73
7254.408
7254.076
7253.733
7253.381
7253.019
7252.648
7252.267
7251.878
7251.48
7251.074
7250.66
7250.238
7249.808
7249.37
7248.925
7248.473
7248.014
7247.548
7247.075
7246.595
7246.109
7245.616
7245.116
7244.61
7244.098
7243.578
7243.052
7242.519
7241.979
7241.432
7240.878
7240.316
7239.746
7239.168
7238.581
7237.984
7237.378
7236.762
7236.134
7235.494
7234.842
7234.176
7233.495
7232.798
7232.085
7231.353
7230.603
7229.833
7229.044
7228.238
7227.416
7226.586
7225.758
7224.946
7224.172
7223.466
7222.859
7222.378
7222.04
7221.76
6893.939
6873.779
6845.569
6817.542
6792.268
6770.785
6751.176
6732.999
6715.856
6698.043
6679.076
6661.575
6644.376
6627.545
6611.23
6595.767
6582.128
6571.939
6567.287
6570.968
6586.324
6617.7
6666.002
6734.087
6822.197
6929.113
7051.231
7181.959
7313.191
7437.386
7549.743
7645.892
7725.171
7787.4
7833.921
7866.875
7888.531
7900.999
7906.191
7905.905
7902.136
7896.266
7888.594
7879.46
7869.387
7858.734
7847.763
7836.67
7825.599
7814.628
7803.808
7793.096
7782.473
7772.009
7761.729
7751.64
7741.756
7732.055
7722.568
7713.258
7704.052
7694.942
7685.949
7677.048
7668.215
7659.431
7650.681
7641.958
7633.259
7624.588
7615.948
7607.345
7598.779
7590.253
7581.766
7573.319
7564.91
7556.544
7548.235
7539.99
7531.807
7523.68
7515.606
7507.581
7499.595
7491.643
7483.714
7475.798
7467.886
7459.967
7452.025
7444.042
7436
7427.876
7419.651
7411.297
7402.788
7394.149
7385.353
7376.383
7367.219
7357.848
7348.249
7338.432
7328.388
7318.114
7307.613
7296.889
7285.948
7274.797
7263.445
7251.914
7240.216
7228.364
7216.372
7204.261
7192.051
7179.765
7167.421
7155.038
7142.637
7130.238
7117.861
7105.523
7093.245
7081.047
7068.946
7056.961
7045.107
7033.398
7021.848
7010.469
6999.271
6988.264
6977.461
6966.876
6956.518
6946.393
6936.507
6926.864
6917.472
6908.333
6899.451
6890.828
6882.467
6874.371
6866.539
6858.968
6851.655
6844.589
6837.757
6831.14
6824.716
6818.481
6812.442
6806.596
6800.937
6795.466
6790.194
6785.134
6780.293
6775.681
6771.302
6767.161
6763.261
6759.605
6756.195
6753.034
6750.126
6747.474
6745.08
6742.942
6741.052
6739.395
6737.948
6736.68
6735.543
6734.542
6733.615
6732.781
6732.112
6731.623
6731.356
6731.318
6731.5
6731.888
6732.471
6733.239
6734.182
6735.293
6736.565
6737.99
6739.563
6741.278
6743.131
6745.117
6747.231
6749.47
6751.829
6754.303
6756.89
6759.585
6762.383
6765.282
6768.277
6771.365
6774.541
6777.802
6781.144
6784.565
6788.059
6791.623
6795.255
6798.95
6802.706
6806.518
6810.384
6814.3
6818.263
6822.27
6826.318
6830.405
6834.526
6838.681
6842.865
6847.078
6851.316
6855.577
6859.859
6864.16
6868.478
6872.81
6877.152
6881.503
6885.86
6890.22
6894.582
6898.944
6903.303
6907.657
6912.004
6916.344
6920.673
6924.992
6929.296
6933.587
6937.861
6942.117
6946.355
6950.573
6954.769
6958.943
6963.093
6967.218
6971.317
6975.39
6979.435
6983.452
6987.439
6991.396
6995.322
6999.217
7003.079
7006.908
7010.705
7014.467
7018.195
7021.888
7025.546
7029.168
7032.755
7036.305
7039.82
7043.298
7046.74
7050.147
7053.518
7056.854
7060.157
7063.425
7066.66
7069.859
7073.021
7076.145
7079.233
7082.283
7085.297
7088.273
7091.212
7094.115
7096.981
7099.809
7102.601
7105.356
7108.075
7110.756
7113.401
7116.009
7118.58
7121.115
7123.613
7126.074
7128.498
7130.884
7133.234
7135.547
7137.824
7140.066
7142.275
7144.453
7146.605
7148.737
7150.858
7152.979
7155.113
7157.269
7159.453
7161.661
7163.881
7166.099
7168.306
7170.496
7172.663
7174.805
7176.919
7179.003
7181.058
7183.083
7185.077
7187.04
7188.974
7190.877
7192.75
7194.595
7196.409
7198.195
7199.953
7201.682
7203.383
7205.056
7206.701
7208.319
7209.909
7211.472
7213.008
7214.515
7215.995
7217.445
7218.866
7220.256
7221.614
7222.94
7224.238
7225.513
7226.765
7227.994
7229.2
7230.382
7231.539
7232.672
7233.781
7234.865
7235.925
7236.96
7237.97
7238.956
7239.918
7240.856
7241.769
7242.658
7243.523
7244.364
7245.181
7245.974
7246.744
7247.49
7248.213
7248.913
7249.59
7250.245
7250.876
7251.485
7252.072
7252.637
7253.18
7253.701
7254.201
7254.678
7255.134
7255.567
7255.977
7256.362
7256.722
7257.054
7257.356
7257.626
7257.864
7258.071
7258.248
7258.399
7258.524
7258.626
7258.703
7258.757
7258.786
7258.791
7258.774
7258.739
7258.688
7258.622
7258.542
7258.449
7258.341
7258.22
7258.085
7257.936
7257.773
7257.596
7257.406
7257.202
7256.985
7256.754
7256.512
7256.256
7255.989
7255.709
7255.418
7255.116
7254.803
7254.479
7254.145
7253.801
7253.447
7253.083
7252.71
7252.328
7251.937
7251.538
7251.131
7250.715
7250.292
7249.861
7249.422
7248.976
7248.523
7248.063
7247.597
7247.123
7246.643
7246.157
7245.664
7245.164
7244.659
7244.147
7243.628
7243.103
7242.571
7242.033
7241.488
7240.936
7240.377
7239.81
7239.236
7238.653
7238.062
7237.462
7236.853
7236.234
7235.604
7234.962
7234.309
7233.644
7232.965
7232.273
7231.566
7230.846
7230.112
7229.365
7228.609
7227.847
7227.085
7226.333
7225.603
7224.914
7224.284
7223.734
7223.278
7222.933
7222.624
6875.364
6855.766
6823.267
6801.199
6780.641
6762.17
6745.125
6728.763
6712.572
6696.48
6680.367
6663.377
6645.974
6628.026
6609.512
6591.005
6573.671
6559.131
6549.629
6548.393
6558.518
6583.248
6626.246
6690.159
6776.376
6883.346
7007.783
7142.166
7277.263
7405.453
7521.349
7621.005
7702.936
7767.459
7816.016
7850.833
7874.282
7888.507
7895.495
7897.106
7894.635
7889.067
7881.584
7872.972
7863.504
7853.434
7843.014
7832.446
7821.878
7811.345
7800.809
7790.3
7779.884
7769.594
7759.497
7749.628
7739.962
7730.472
7721.159
7712.006
7702.972
7694.032
7685.18
7676.398
7667.666
7658.967
7650.291
7641.629
7632.978
7624.342
7615.723
7607.128
7598.559
7590.022
7581.52
7573.058
7564.639
7556.269
7547.956
7539.709
7531.527
7523.411
7515.356
7507.36
7499.415
7491.513
7483.646
7475.802
7467.971
7460.136
7452.283
7444.393
7436.445
7428.417
7420.287
7412.029
7403.622
7395.06