/*--------------------------------*- C++ -*----------------------------------*\
| =========                 |                                                 |
| \\      /  F ield         | foam-extend: Open Source CFD                    |
|  \\    /   O peration     | Version:     3.1                                |
|   \\  /    A nd           | Web:         http://www.extend-project.de       |
|    \\/     M anipulation  |                                                 |
\*---------------------------------------------------------------------------*/
FoamFile
{
    version     2.0;
    format      ascii;
    class       surfaceScalarField;
    location    "2";
    object      phi;
}
// * * * * * * * * * * * * * * * * * * * * * * * * * * * * * * * * * * * * * //

dimensions      [0 3 -1 0 0 0 0];

internalField   nonuniform List<scalar> 
275122
(
-7.274486e-05
7.347071e-05
-2.426037e-08
-7.015859e-07
-6.624503e-05
6.324837e-05
2.285742e-07
2.768089e-06
-6.640571e-05
6.849844e-05
-3.159586e-08
-2.06113e-06
-7.514692e-05
7.73367e-05
-2.741669e-08
-2.162358e-06
-8.277809e-05
8.346225e-05
-2.157488e-08
-6.62582e-07
-8.366841e-05
8.356637e-05
-1.397646e-08
1.160142e-07
-8.293473e-05
8.265975e-05
-9.441878e-09
2.844309e-07
-8.172866e-05
8.138895e-05
-6.796215e-09
3.465105e-07
-8.031133e-05
7.993396e-05
-4.894573e-09
3.822638e-07
-7.876097e-05
7.835724e-05
-3.557188e-09
4.072861e-07
-7.711659e-05
7.669372e-05
-2.617487e-09
4.254848e-07
-7.540512e-05
7.496758e-05
-1.802686e-09
4.393388e-07
-7.364582e-05
7.320129e-05
-1.439797e-09
4.459752e-07
-7.18554e-05
7.140336e-05
-1.099895e-09
4.531409e-07
-7.004083e-05
6.958498e-05
-8.701605e-10
4.567263e-07
-6.8215e-05
6.775822e-05
-7.314132e-10
4.575117e-07
-6.63904e-05
6.593784e-05
-6.837616e-10
4.532362e-07
-6.459908e-05
6.416547e-05
-2.824925e-09
4.364336e-07
-6.292957e-05
6.256582e-05
-1.434797e-08
3.780945e-07
-6.179373e-05
6.188089e-05
-8.045433e-08
-6.710257e-09
-6.848201e-05
7.073038e-05
-2.04006e-07
-2.044362e-06
-7.16776e-05
7.188418e-05
-9.022001e-08
-1.163564e-07
-7.229085e-05
7.274084e-05
-5.417074e-08
-3.958221e-07
-8.046533e-05
8.306255e-05
7.003818e-08
-2.667255e-06
-8.399307e-05
8.421396e-05
1.24525e-07
-3.454136e-07
-8.496225e-05
8.501742e-05
7.557898e-08
-1.307488e-07
-8.495963e-05
8.481987e-05
4.619798e-08
9.356857e-08
-8.403657e-05
8.336806e-05
3.82993e-08
6.302064e-07
-7.86496e-05
7.379233e-05
3.451955e-08
4.822758e-06
-0.0001081377
0.0001110869
2.853229e-09
-2.952132e-06
-6.322718e-05
6.610138e-05
-1.811721e-08
-2.856087e-06
-7.456074e-05
7.742087e-05
8.183506e-10
-2.86095e-06
-8.613881e-05
8.908564e-05
7.459803e-10
-2.94758e-06
-9.804469e-05
0.0001010593
7.241277e-10
-3.015348e-06
-0.0001101601
0.0001132015
6.594802e-10
-3.042056e-06
-0.0001223296
0.0001253658
6.173783e-10
-3.036795e-06
-0.0001344501
0.0001374648
4.614411e-10
-3.015163e-06
-0.0001464663
0.0001494495
4.488023e-10
-2.98365e-06
-0.0001583543
0.000161308
4.423381e-10
-2.954165e-06
-0.0001702768
0.0001733843
4.998626e-08
-3.157542e-06
2.666698e-06
-0.0001158129
0.0001158988
-1.190822e-10
-2.752512e-06
2.711761e-06
-0.0001160688
0.0001160656
-1.057053e-10
-2.708464e-06
2.782441e-06
-0.0001158988
0.0001158013
-1.443329e-10
-2.684862e-06
2.819971e-06
-0.0001154172
0.0001152668
-1.18666e-10
-2.66952e-06
2.827293e-06
-0.0001147773
0.0001146049
-1.167373e-10
-2.654722e-06
2.81405e-06
-0.000114076
0.000113897
-8.73261e-11
-2.63497e-06
2.789959e-06
-0.0001133604
0.0001131812
-8.229961e-11
-2.610667e-06
2.766298e-06
-0.0001126478
0.0001124703
-4.739034e-11
-2.588768e-06
2.854727e-06
-0.0001118966
0.0001116214
3.351326e-11
-2.57959e-06
2.300236e-06
-0.0004470355
0.0004464522
-2.803788e-11
-9.016937e-06
2.5018e-06
2.298632e-06
2.499596e-06
2.495633e-06
-0.0004454509
0.0004443317
-2.249772e-11
-8.957245e-06
2.544349e-06
2.494344e-06
2.54215e-06
2.520296e-06
-0.0004431384
0.0004418435
-1.725282e-11
-8.826357e-06
2.541399e-06
2.519195e-06
2.540391e-06
2.523028e-06
-0.0004404971
0.000439113
-1.463433e-11
-8.716887e-06
2.528294e-06
2.5221e-06
2.527548e-06
2.512301e-06
-0.0004377205
0.0004363181
-1.23677e-11
-8.646712e-06
2.513115e-06
2.511244e-06
2.512384e-06
2.497854e-06
-0.0004349193
0.0004335214
-9.887097e-12
-8.592067e-06
2.49753e-06
2.497546e-06
2.497096e-06
2.480118e-06
-0.000432133
0.0004307523
-7.636369e-12
-8.536552e-06
2.478809e-06
2.479829e-06
2.478494e-06
2.460606e-06
-0.0004293847
0.0004280251
-6.489567e-12
-8.480636e-06
2.459439e-06
2.46062e-06
2.459635e-06
2.447074e-06
-0.000426664
0.0004252529
-6.852417e-12
-8.401794e-06
2.45901e-06
2.447382e-06
2.45951e-06
2.274729e-06
-0.0004238409
0.0004229491
-8.070512e-12
-8.269105e-06
2.306091e-06
2.274915e-06
2.30515e-06
2.376435e-06
-0.0004215969
0.0004202912
-9.661828e-12
-8.086785e-06
2.31895e-06
2.377537e-06
2.319615e-06
2.301228e-06
-0.0004191092
0.0004179415
-1.154042e-11
-8.016005e-06
2.290099e-06
2.301821e-06
2.29055e-06
2.283974e-06
-0.0004167846
0.0004156337
-1.220506e-11
-7.978224e-06
2.28043e-06
2.284165e-06
2.280541e-06
2.275704e-06
-0.0004144823
0.0004133273
-1.164702e-11
-7.945611e-06
2.274732e-06
2.275593e-06
2.274611e-06
2.27121e-06
-0.0004121708
0.000411015
-1.033839e-11
-7.925575e-06
2.270906e-06
2.269872e-06
2.269401e-06
2.275548e-06
-0.0004098631
0.0004087146
-6.499394e-12
-7.946101e-06
2.277937e-06
2.269879e-06
2.271252e-06
2.313897e-06
-0.0004075716
0.0004064132
4.327113e-13
-8.071788e-06
2.32735e-06
2.289654e-06
2.299227e-06
2.503834e-06
-0.0004051979
0.0004037448
-6.900584e-12
-8.475076e-06
2.577316e-06
2.397607e-06
2.449429e-06
3.151068e-06
-0.0004017044
0.000398305
-6.93648e-12
-9.00801e-06
3.427298e-06
2.857471e-06
2.971518e-06
1.971846e-06
-0.0003940675
0.0003965248
-8.332971e-12
-4.429152e-06
3.170552e-06
-0.0003979972
0.0003977035
-1.017211e-11
-2.876881e-06
5.636856e-06
-0.0003965571
0.0003951231
-9.663721e-12
-4.202897e-06
4.882598e-06
-0.0003936409
0.0003921874
-9.699335e-12
-3.429135e-06
1.881469e-06
-0.0003910817
0.0003906361
-1.007537e-11
-1.435786e-06
3.482818e-08
-0.0003903481
0.0003900605
-9.936837e-12
2.527394e-07
-9.137161e-07
-0.0003899386
0.000389798
-9.659625e-12
1.054291e-06
-1.344346e-06
-0.0003896351
0.0003894423
-9.714143e-12
1.537132e-06
-1.593989e-06
-0.0003892347
0.0003890063
-9.620902e-12
1.822369e-06
-1.758124e-06
-0.0003887731
0.0003885321
-9.234861e-12
1.999128e-06
-1.870629e-06
-0.0003882922
0.0003880516
-8.729302e-12
2.111277e-06
-1.946525e-06
-0.0003878147
0.0003875819
-8.23448e-12
2.179398e-06
-1.994261e-06
-0.0003873547
0.000387136
-7.740721e-12
2.212943e-06
-2.016427e-06
-0.0003869255
0.0003867269
-7.322965e-12
2.215029e-06
-2.01094e-06
-0.0003865382
0.0003863659
-6.877206e-12
2.18328e-06
-1.971528e-06
-0.0003862069
0.00038607
-6.549207e-12
2.108412e-06
-1.877465e-06
-0.0003859509
0.0003858616
-6.411986e-12
1.966738e-06
-1.676596e-06
-0.0003857953
0.0003857658
-6.660249e-12
1.706131e-06
-1.216517e-06
-0.000385754
0.0003857546
-7.658684e-12
1.215847e-06
-4.527724e-08
-0.0003857023
0.0003854449
-6.161309e-12
3.026488e-07
1.031565e-06
-0.0003846053
0.0003841443
-5.24486e-12
-5.706327e-07
7.60105e-07
-0.0003841456
0.0003842012
-6.854328e-12
-8.156902e-07
3.20433e-06
-0.0003840696
0.0003832927
-9.319974e-12
-2.42746e-06
5.973002e-06
-0.0003808397
0.0003786888
-9.03685e-12
-3.822122e-06
2.203602e-06
-0.0003773187
0.0003767157
-6.142708e-12
-1.600683e-06
7.795271e-08
-0.0003762207
0.0003756537
-3.523274e-12
4.890769e-07
-2.141802e-06
-0.0003752187
0.0003747625
-1.527499e-12
2.597996e-06
-6.011415e-06
-0.0003744479
0.0003745669
-6.638917e-13
5.892407e-06
-1.556713e-05
-0.0003757509
0.0003803458
-5.245715e-13
1.09722e-05
-2.892388e-06
-0.0003857609
0.0003867237
4.256922e-15
9.179069e-06
-2.147566e-06
-2.916207e-06
-2.185677e-06
-1.155126e-06
-0.0003864273
0.000386012
6.324675e-13
4.873331e-06
-1.042664e-06
-1.187484e-06
-1.072726e-06
-7.04552e-07
-0.0003855109
0.0003850549
7.112546e-13
3.219075e-06
-6.587129e-07
-7.246829e-07
-6.75094e-07
-5.394811e-07
-0.0003846811
0.0003844212
9.903131e-13
2.412088e-06
-5.23843e-07
-5.533438e-07
-5.355123e-07
-4.679038e-07
-0.000384226
0.0003841068
1.4937e-12
1.990193e-06
-4.594397e-07
-4.764291e-07
-4.67192e-07
-4.308628e-07
-0.0003840322
0.0003840135
1.752098e-12
1.743676e-06
-4.26159e-07
-4.365651e-07
-4.313509e-07
-4.089541e-07
-0.0003840257
0.0003840792
1.928642e-12
1.583333e-06
-4.058295e-07
-4.127313e-07
-4.09269e-07
-3.939843e-07
-0.0003841554
0.0003842636
2.090133e-12
1.46779e-06
-3.916544e-07
-3.964895e-07
-3.939425e-07
-3.827653e-07
-0.0003843897
0.0003845418
2.012144e-12
1.378428e-06
-3.809135e-07
-3.844429e-07
-3.824457e-07
-3.738909e-07
-0.0003847084
0.000384897
2.484269e-12
1.306118e-06
-3.72324e-07
-3.750403e-07
-3.734066e-07
-3.665617e-07
-0.0003850977
0.0003853175
3.017197e-12
1.24562e-06
-3.652485e-07
-3.674537e-07
-3.660927e-07
-3.603006e-07
-0.0003855477
0.0003857947
3.080601e-12
1.193194e-06
-3.591112e-07
-3.610006e-07
-3.597498e-07
-3.548983e-07
-0.000386051
0.0003863224
3.419263e-12
1.147085e-06
-3.538486e-07
-3.553964e-07
-3.54315e-07
-3.502202e-07
-0.0003866021
0.0003868956
3.872527e-12
1.106262e-06
-3.492795e-07
-3.506111e-07
-3.496508e-07
-3.461451e-07
-0.0003871968
0.0003875106
3.982904e-12
1.069709e-06
-3.452973e-07
-3.464681e-07
-3.456055e-07
-3.425693e-07
-0.0003878315
0.0003881642
4.018087e-12
1.036634e-06
-3.41801e-07
-3.428441e-07
-3.42065e-07
-3.393886e-07
-0.0003885034
0.0003888537
4.047981e-12
1.006364e-06
-3.38694e-07
-3.396276e-07
-3.389242e-07
-3.365365e-07
-0.0003892101
0.000389577
4.223174e-12
9.784813e-07
-3.359137e-07
-3.367475e-07
-3.361208e-07
-3.339734e-07
-0.0003899496
0.0003903321
4.207796e-12
9.526471e-07
-3.334017e-07
-3.34173e-07
-3.336013e-07
-3.316777e-07
-0.0003907202
0.0003911176
3.971374e-12
9.286218e-07
-3.311338e-07
-3.318671e-07
-3.31322e-07
-3.296115e-07
-0.0003915202
0.0003919318
3.840889e-12
9.062634e-07
-3.291198e-07
-3.297956e-07
-3.293004e-07
-3.277696e-07
-0.0003923484
0.0003927734
3.86559e-12
8.854657e-07
-3.273336e-07
-3.27949e-07
-3.275106e-07
-3.261679e-07
-0.0003932034
0.0003936414
3.663458e-12
8.661792e-07
-3.257551e-07
-3.263473e-07
-3.259292e-07
-3.247762e-07
-0.000394084
0.0003945344
3.548969e-12
8.483955e-07
-3.244482e-07
-3.249338e-07
-3.246067e-07
-3.236552e-07
-0.0003949892
0.0003954513
3.458056e-12
8.321661e-07
-3.233731e-07
-3.237934e-07
-3.235048e-07
-3.227939e-07
0.0003963911
3.709243e-12
8.17523e-07
-3.225284e-07
-3.22911e-07
-3.226617e-07
-0.0003959177
-3.221264e-07
-0.0003968685
0.0003973525
4.279134e-12
8.045466e-07
-3.219758e-07
-3.223149e-07
-3.221764e-07
-3.217194e-07
-0.0003978403
0.0003983342
4.437562e-12
7.931296e-07
-3.215725e-07
-3.219369e-07
-3.217645e-07
-3.21626e-07
-0.0003988316
0.0003993347
4.742026e-12
7.835074e-07
-3.215363e-07
-3.21778e-07
-3.216837e-07
-3.218308e-07
-0.0003998412
0.0004003529
5.073962e-12
7.75843e-07
-3.218158e-07
-3.219762e-07
-3.219588e-07
-3.223426e-07
-0.0004008677
0.0004013874
5.37788e-12
7.700884e-07
-3.224005e-07
-3.224843e-07
-3.225417e-07
-3.231468e-07
-0.00040191
0.0004024369
5.557456e-12
7.661598e-07
-3.232611e-07
-3.232903e-07
-3.234038e-07
-3.242164e-07
-0.0004029665
0.0004035001
5.615868e-12
7.639123e-07
-3.243743e-07
-3.243586e-07
-3.245167e-07
-3.255089e-07
-0.0004040361
0.0004045756
5.772582e-12
7.631293e-07
-3.257032e-07
-3.256519e-07
-3.258444e-07
-3.269837e-07
-0.0004051175
0.0004056626
5.513409e-12
7.635878e-07
-3.272096e-07
-3.271262e-07
-3.273525e-07
-3.28618e-07
-0.0004062098
0.0004067599
5.849791e-12
7.651188e-07
-3.288746e-07
-3.28761e-07
-3.290156e-07
-3.303888e-07
-0.0004073121
0.000407867
5.77608e-12
7.674979e-07
-3.306695e-07
-3.30526e-07
-3.308058e-07
-3.322189e-07
-0.0004084238
0.0004089831
5.563292e-12
7.703494e-07
-3.325134e-07
-3.323577e-07
-3.326493e-07
-3.340528e-07
-0.0004095444
0.0004101081
5.770255e-12
7.733422e-07
-3.343548e-07
-3.341843e-07
-3.344855e-07
-3.35855e-07
-0.0004106736
0.0004112417
5.674521e-12
7.762602e-07
-3.361679e-07
-3.35984e-07
-3.362919e-07
-3.376437e-07
-0.0004118116
0.000412384
6.221315e-12
7.78965e-07
-3.379809e-07
-3.377459e-07
-3.380713e-07
-3.39406e-07
-0.0004129585
0.0004135358
7.382342e-12
7.81162e-07
-3.397381e-07
-3.394892e-07
-3.398405e-07
-3.406819e-07
-0.0004141147
0.0004146962
8.329906e-12
7.82144e-07
-3.408779e-07
-3.409249e-07
-3.411379e-07
-3.42026e-07
-0.0004152799
0.0004158665
2.821701e-12
7.820585e-07
-3.421963e-07
-3.421903e-07
-3.423464e-07
-3.43265e-07
-0.0004164556
0.0004170483
5.88755e-12
7.814548e-07
-3.43644e-07
-3.434019e-07
-3.437708e-07
-3.441871e-07
-0.0004176434
0.0004182426
5.895454e-12
7.784226e-07
-3.445471e-07
-3.443002e-07
-3.446588e-07
-3.440976e-07
-0.0004188449
0.0004194526
5.934136e-12
7.692898e-07
-3.442883e-07
-3.44229e-07
-3.444117e-07
-3.414273e-07
-0.0004200648
0.0004206837
5.529039e-12
7.459002e-07
-3.40814e-07
-3.415723e-07
-3.409568e-07
-3.27462e-07
-0.0004213067
0.0004219235
5.291914e-12
6.831753e-07
-3.223032e-07
-3.277307e-07
-3.2257e-07
-2.801835e-07
-0.0004225006
0.0004230291
3.960903e-12
5.248385e-07
-2.457339e-07
-2.811042e-07
-2.463511e-07
-2.765788e-07
-0.0004236452
0.000424139
3.369052e-12
6.50665e-07
-2.982802e-07
-2.737293e-07
-2.959036e-07
-2.828138e-07
-0.0004246901
0.0004252285
2.575846e-12
5.841257e-07
-2.79922e-07
-2.810171e-07
-2.787425e-07
-2.894561e-07
-0.0004257859
0.0004263646
1.226014e-12
5.791872e-07
-2.902668e-07
-2.885426e-07
-2.895377e-07
-3.019385e-07
-0.0004269598
0.0004275705
3.014625e-13
5.990848e-07
-3.034272e-07
-3.014097e-07
-3.029755e-07
-3.139903e-07
-0.0004281931
0.0004288245
-2.052592e-13
6.256855e-07
-3.148648e-07
-3.136103e-07
-3.145322e-07
-3.236175e-07
-0.0004294624
0.0004301053
-6.888483e-13
6.529167e-07
-3.245101e-07
-3.233601e-07
-3.242881e-07
-3.322256e-07
-0.0004307515
0.0004313997
-4.813838e-13
6.822231e-07
-3.331407e-07
-3.320669e-07
-3.329952e-07
-3.397298e-07
-0.0004320501
0.0004327014
-5.943803e-13
7.091594e-07
-3.405931e-07
-3.396112e-07
-3.404851e-07
-3.464405e-07
-0.0004333541
0.0004340067
-1.082357e-12
7.345367e-07
-3.472707e-07
-3.463336e-07
-3.47159e-07
-3.525655e-07
-0.0004346602
0.0004353131
-1.219572e-12
7.587455e-07
-3.532786e-07
-3.524837e-07
-3.532413e-07
-3.582145e-07
-0.0004359663
0.0004366186
-1.106111e-12
7.820993e-07
-3.589492e-07
-3.582395e-07
-3.589971e-07
-3.634837e-07
-0.0004372709
0.0004379217
-1.197078e-12
8.045147e-07
-3.641185e-07
-3.635419e-07
-3.641503e-07
-3.685422e-07
-0.0004385723
0.0004392213
-1.324702e-12
8.26406e-07
-3.691454e-07
-3.685458e-07
-3.691514e-07
-3.734316e-07
-0.00043987
0.0004405169
-1.267037e-12
8.480331e-07
-3.740085e-07
-3.734327e-07
-3.740119e-07
-3.781919e-07
-0.0004411633
0.0004418077
-8.909863e-13
8.694665e-07
-3.787509e-07
-3.781849e-07
-3.787425e-07
-3.828561e-07
-0.0004424516
0.0004430932
-8.472053e-13
8.908276e-07
-3.833838e-07
-3.828648e-07
-3.834029e-07
-3.874556e-07
-0.0004437343
0.0004443729
-8.65577e-13
9.122114e-07
-3.879793e-07
-3.874617e-07
-3.87984e-07
-3.919946e-07
-0.0004450109
0.0004456462
-7.598105e-13
9.336611e-07
-3.92513e-07
-3.920023e-07
-3.925137e-07
-3.965281e-07
-0.0004462807
0.0004469126
-5.412086e-13
9.553232e-07
-3.970339e-07
-3.96536e-07
-3.970444e-07
-4.010437e-07
-0.0004475434
0.0004481714
-2.269124e-13
9.772103e-07
-4.015454e-07
-4.010541e-07
-4.015503e-07
-4.055511e-07
-0.0004487983
0.0004494221
-1.70697e-13
9.993285e-07
-4.060371e-07
-4.05548e-07
-4.060383e-07
-4.100624e-07
-0.0004500448
0.0004506643
-4.261386e-13
1.021698e-06
-4.105381e-07
-4.100577e-07
-4.105405e-07
-4.14548e-07
-0.0004512825
0.0004518974
-9.804328e-14
1.044271e-06
-4.150209e-07
-4.145572e-07
-4.150251e-07
-4.190471e-07
-0.0004525109
0.0004531209
9.258023e-14
1.067027e-06
-4.19499e-07
-4.190345e-07
-4.194786e-07
-4.235423e-07
-0.0004537295
0.0004543346
4.427044e-13
1.089957e-06
-4.240198e-07
-4.23495e-07
-4.239507e-07
-4.280349e-07
0.000455538
3.974432e-13
1.112966e-06
-0.0004549381
-4.284255e-07
-4.279698e-07
-4.284067e-07
-4.324173e-07
-0.0004561363
0.000456731
3.573506e-13
1.135993e-06
-4.328951e-07
-4.324458e-07
-4.329519e-07
-4.367311e-07
-0.0004573241
0.0004579131
1.729721e-13
1.158715e-06
-4.371232e-07
-4.367894e-07
-4.371432e-07
-4.410424e-07
-0.0004585005
0.0004590841
9.594116e-14
1.18137e-06
-4.414181e-07
-4.41034e-07
-4.414129e-07
-4.453231e-07
-0.0004596659
0.0004602439
-3.650652e-13
1.203992e-06
-4.456844e-07
-4.452953e-07
-4.456568e-07
-4.495681e-07
-0.0004608201
0.0004613925
-3.351021e-13
1.226528e-06
-4.499107e-07
-4.495299e-07
-4.498699e-07
-4.537773e-07
-0.0004619631
0.0004625298
-7.704486e-13
1.248967e-06
-4.540837e-07
-4.537458e-07
-4.54065e-07
-4.579371e-07
-0.0004630948
0.0004636558
-7.018358e-13
1.27123e-06
-4.582256e-07
-4.579086e-07
-4.581933e-07
-4.620303e-07
-0.0004642151
0.0004647704
-9.85388e-13
1.293273e-06
-4.623057e-07
-4.619982e-07
-4.622586e-07
-4.661148e-07
-0.000465324
0.0004658736
-9.407474e-13
1.315186e-06
-4.663464e-07
-4.660812e-07
-4.663156e-07
-4.701348e-07
-0.0004664216
0.0004669656
-1.229279e-12
1.336788e-06
-4.70302e-07
-4.701035e-07
-4.702684e-07
-4.743513e-07
-0.0004675079
0.0004680463
-2.001185e-12
1.358796e-06
-4.743281e-07
-4.742426e-07
-4.742983e-07
-4.765857e-07
-0.0004685811
0.000469111
3.383008e-12
1.378169e-06
-4.773975e-07
-4.76691e-07
-4.774552e-07
-4.811154e-07
-0.0004696419
0.0004701705
-1.472667e-11
1.396097e-06
-4.81079e-07
-4.81275e-07
-4.811812e-07
-4.861547e-07
-0.0004706995
0.0004712218
-6.73146e-12
1.420725e-06
-4.854735e-07
-4.860145e-07
-4.853246e-07
-4.89624e-07
-0.0004717411
0.0004722564
-2.763201e-12
1.443056e-06
-4.896766e-07
-4.894904e-07
-4.89545e-07
-4.935706e-07
-0.0004727702
0.0004732803
-2.087192e-12
1.464103e-06
-4.936359e-07
-4.934446e-07
-4.935388e-07
-4.972429e-07
-0.0004737889
0.0004742939
-2.042043e-12
1.48418e-06
-4.973681e-07
-4.972223e-07
-4.973793e-07
-5.00713e-07
-0.0004747975
0.0004752975
-1.999247e-12
1.503137e-06
-5.008386e-07
-5.007176e-07
-5.008561e-07
-5.039281e-07
-0.0004757961
0.0004762917
-2.010361e-12
1.520531e-06
-5.042367e-07
-5.038605e-07
-5.04177e-07
-5.068397e-07
-0.0004767865
0.0004772794
-1.97902e-12
1.535489e-06
-5.073993e-07
-5.067744e-07
-5.073264e-07
-5.089811e-07
-0.0004777723
0.0004782655
-2.127684e-12
1.544787e-06
-5.100876e-07
-5.088944e-07
-5.100139e-07
-5.09479e-07
-0.0004787619
0.0004792663
-1.780119e-12
1.537942e-06
-5.118025e-07
-5.093766e-07
-5.117446e-07
-5.009343e-07
-0.0004797824
0.0004802985
-1.676414e-12
1.482846e-06
-4.987772e-07
-5.007095e-07
-4.985713e-07
-3.116313e-07
-0.0004806215
0.0004804209
-1.205147e-12
1.362337e-06
-2.69662e-07
-3.104307e-07
-2.69987e-07
-1.902989e-07
-0.0001196731
0.0001194854
4.573145e-11
3.7794e-07
-3.710105e-07
-0.0001192601
0.0001192593
-8.687819e-11
3.719193e-07
-4.334506e-07
-0.000119347
0.0001193948
-5.784848e-11
3.856673e-07
-4.660096e-07
-0.0001195601
0.0001196189
-2.967907e-11
4.072574e-07
-4.855749e-07
-0.0001197992
0.0001198595
-1.200409e-11
4.253053e-07
-4.988119e-07
-0.0001200399
0.0001200994
-1.351828e-13
4.392681e-07
-5.086055e-07
-0.0001202764
0.0001203346
5.374697e-12
4.504072e-07
-5.16378e-07
-0.0001205073
0.000120564
1.136423e-11
4.596549e-07
-5.22864e-07
-0.0001207322
0.0001207875
1.809571e-11
4.675917e-07
-5.284571e-07
-0.0001209516
0.0001210055
2.197591e-11
4.745872e-07
-5.334711e-07
-0.0001211653
0.000121218
1.587797e-11
4.808147e-07
-5.378179e-07
-0.0001213742
0.0001214256
1.250539e-11
4.864456e-07
-5.41897e-07
-0.0001215781
0.0001216282
1.656401e-11
4.917104e-07
-5.457449e-07
-0.0001217773
0.0001218264
1.888059e-11
4.966558e-07
-5.493396e-07
-0.0001219721
0.0001220201
2.024498e-11
5.013233e-07
-5.527239e-07
-0.0001221627
0.0001222097
1.91357e-11
5.057491e-07
-5.559354e-07
-0.0001223492
0.0001223952
2.031452e-11
5.099468e-07
-5.58964e-07
-0.0001225318
0.0001225768
2.121885e-11
5.139245e-07
-5.618422e-07
-0.0001227107
0.0001227548
1.988444e-11
5.176999e-07
-5.645655e-07
-0.000122886
0.0001229293
2.054259e-11
5.212612e-07
-5.671001e-07
-0.0001230581
0.0001231005
2.117633e-11
5.245969e-07
-5.695324e-07
-0.0001232271
0.0001232689
2.030165e-11
5.277034e-07
-5.717692e-07
-0.0001233935
0.0001234347
2.073474e-11
5.305429e-07
-5.738515e-07
-0.0001235576
0.0001235983
2.274804e-11
5.33127e-07
-5.757544e-07
-0.0001237198
0.0001237602
2.708346e-11
5.353886e-07
-5.774493e-07
-0.0001238811
0.0001239212
2.706122e-11
5.37311e-07
-5.789413e-07
-0.0001240416
0.0001240819
1.859457e-11
5.38637e-07
-5.798449e-07
-0.000124203
0.0001242436
1.500933e-11
5.392325e-07
-5.803206e-07
-0.0001243663
0.0001244077
1.918761e-11
5.389204e-07
-5.802911e-07
-0.0001245335
0.0001245765
2.270888e-11
5.373392e-07
-5.796036e-07
-0.0001247084
0.0001247541
2.39213e-11
5.338232e-07
-5.771977e-07
-0.000124897
0.0001249478
2.004337e-11
5.264386e-07
-5.703905e-07
-0.0001251098
0.0001251696
2.232858e-11
5.105738e-07
-5.529818e-07
-0.0001253686
0.0001254474
2.534516e-11
4.741167e-07
-4.971172e-07
-0.000125734
0.0001258664
2.237504e-11
3.647281e-07
1.818172e-07
-0.0001263139
0.0001262679
2.760006e-11
-1.35884e-07
5.503263e-07
-0.0001260882
0.0001260576
1.409618e-11
-5.19659e-07
6.035033e-07
-0.0001259974
0.0001259888
1.233099e-11
-5.949003e-07
6.21173e-07
-0.0001259904
0.0001259982
6.951349e-12
-6.289565e-07
6.340806e-07
-0.0001260338
0.0001260496
3.634363e-12
-6.498194e-07
6.419321e-07
-0.0001261058
0.0001261274
4.255524e-13
-6.635454e-07
6.476223e-07
-0.0001261989
0.0001262248
1.055196e-13
-6.735806e-07
6.518622e-07
-0.0001263077
0.000126337
1.133333e-12
-6.811084e-07
6.553376e-07
-0.0001264284
0.0001264601
3.864979e-13
-6.870191e-07
6.582201e-07
-0.0001265579
0.0001265915
-1.264651e-12
-6.917651e-07
6.606619e-07
-0.0001266942
0.0001267292
-1.444184e-12
-6.956345e-07
6.629235e-07
-0.0001268355
0.0001268714
-1.480956e-12
-6.988898e-07
6.6496e-07
-0.0001269804
0.0001270172
-1.282988e-12
-7.016784e-07
6.668658e-07
-0.0001271281
0.0001271653
-2.010774e-13
-7.041224e-07
6.686444e-07
-0.0001272776
0.0001273153
-2.85598e-13
-7.062718e-07
6.703122e-07
-0.0001274285
0.0001274663
-2.920957e-13
-7.081858e-07
6.719096e-07
-0.0001275801
0.0001276181
1.087178e-12
-7.099156e-07
6.734261e-07
-0.0001277322
0.0001277702
1.096045e-12
-7.114865e-07
6.748814e-07
-0.0001278843
0.0001279224
7.695154e-13
-7.129316e-07
6.762823e-07
-0.0001280364
0.0001280744
1.841283e-12
-7.142646e-07
6.776257e-07
-0.0001281881
0.0001282259
2.346263e-12
-7.155028e-07
6.78934e-07
-0.0001283392
0.000128377
1.433059e-12
-7.166616e-07
6.801862e-07
-0.0001284898
0.0001285273
2.731776e-12
-7.177408e-07
6.813978e-07
-0.0001286395
0.0001286768
4.328661e-12
-7.187504e-07
6.825978e-07
-0.0001287883
0.0001288254
3.415452e-12
-7.197015e-07
6.836972e-07
-0.0001289361
0.0001289729
2.358511e-12
-7.205532e-07
6.846686e-07
-0.0001290827
0.0001291193
2.802471e-12
-7.212817e-07
6.85634e-07
-0.000129228
0.0001292643
2.316327e-12
-7.219092e-07
6.864769e-07
-0.0001293719
0.0001294079
2.164281e-12
-7.224134e-07
6.872207e-07
-0.0001295142
0.0001295498
3.103081e-12
-7.227753e-07
6.878437e-07
-0.0001296546
0.0001296898
2.817676e-12
-7.229782e-07
6.884946e-07
-0.0001297929
0.0001298275
3.655656e-12
-7.231178e-07
6.893391e-07
-0.000129928
0.0001299618
9.046622e-12
-7.231647e-07
6.901499e-07
-0.0001300633
0.0001300975
3.891919e-11
-7.243127e-07
7.331333e-07
-0.000130197
0.0001302128
1.393409e-10
-7.491096e-07
6.466354e-07
-0.0001297478
0.0005243985
1.771032e-10
-2.789512e-06
4.109689e-08
6.662708e-07
2.502818e-08
-0.0001297504
-0.0001317444
-0.0001317456
3.926468e-07
-0.0005261839
0.0005269062
2.917058e-11
-2.602374e-06
5.567621e-07
3.820399e-07
5.485843e-07
5.127573e-07
-0.0005275049
0.0005280171
1.314135e-11
-2.639735e-06
5.572104e-07
5.060976e-07
5.514485e-07
5.6624e-07
-0.000528472
0.0005288317
6.924901e-12
-2.66148e-06
5.891534e-07
5.615269e-07
5.848705e-07
5.987557e-07
-0.0005291581
0.0005294518
4.242657e-12
-2.700427e-06
6.081634e-07
5.950787e-07
6.047667e-07
6.208998e-07
-0.0005297318
0.0005299996
3.411793e-12
-2.751319e-06
6.234112e-07
6.182357e-07
6.209753e-07
6.433208e-07
-0.0005302567
0.0005304807
3.111594e-12
-2.801173e-06
6.471816e-07
6.413171e-07
6.453616e-07
6.622373e-07
-0.0005306914
0.0005308911
1.54746e-12
-2.847931e-06
6.630452e-07
6.609725e-07
6.619047e-07
6.759507e-07
-0.0005310831
0.0005312682
7.66434e-14
-2.889216e-06
6.768906e-07
6.751366e-07
6.761326e-07
6.86299e-07
-0.0005314493
0.000531628
-5.375752e-13
-2.924675e-06
6.872042e-07
6.85784e-07
6.867103e-07
6.93938e-07
-0.0005318052
0.0005319822
-6.991381e-13
-2.953942e-06
6.948045e-07
6.936572e-07
6.945517e-07
6.995575e-07
-0.0005321594
0.0005323377
-1.036967e-12
-2.977766e-06
7.003662e-07
6.993893e-07
7.002094e-07
7.037092e-07
-0.0005325169
0.000532698
-1.161004e-12
-2.997144e-06
7.04418e-07
7.0363e-07
7.043601e-07
7.067487e-07
-0.0005328805
0.000533065
-1.398789e-12
-3.012807e-06
7.073805e-07
7.06766e-07
7.074077e-07
7.090248e-07
-0.0005332511
0.0005334392
-1.749588e-12
-3.025491e-06
7.095797e-07
7.091225e-07
7.096977e-07
7.107871e-07
-0.0005336287
0.00053382
-2.31195e-12
-3.03588e-06
7.112887e-07
7.109777e-07
7.114965e-07
7.121911e-07
-0.0005340126
0.0005342069
-2.505994e-12
-3.044405e-06
7.126527e-07
7.124363e-07
7.128997e-07
7.13375e-07
-0.0005344022
0.0005345988
-2.609236e-12
-3.051481e-06
7.138012e-07
7.136027e-07
7.140263e-07
7.144163e-07
-0.0005347964
0.000534995
-2.591162e-12
-3.057509e-06
7.148275e-07
7.14606e-07
7.150087e-07
7.153657e-07
-0.0005351944
0.0005353946
-2.497345e-12
-3.062731e-06
7.15757e-07
7.154877e-07
7.158625e-07
7.162531e-07
-0.0005355954
0.0005357969
-2.483349e-12
-3.067341e-06
7.166267e-07
7.1629e-07
7.166482e-07
7.170825e-07
-0.0005359988
0.0005362013
-2.568138e-12
-3.071528e-06
7.174465e-07
7.170808e-07
7.174413e-07
7.178967e-07
-0.000536404
0.0005366071
-2.698334e-12
-3.075411e-06
7.18244e-07
7.178827e-07
7.182311e-07
7.187011e-07
-0.0005368104
0.000537014
-2.765703e-12
-3.079044e-06
7.190417e-07
7.186741e-07
7.190328e-07
7.195e-07
-0.0005372176
0.0005374214
-2.904703e-12
-3.08235e-06
7.19814e-07
7.194431e-07
7.197427e-07
7.202244e-07
-0.0005376253
0.0005378293
-3.080505e-12
-3.0854e-06
7.205674e-07
7.201338e-07
7.204539e-07
7.209655e-07
-0.0005380332
0.0005382372
-3.723331e-12
-3.08828e-06
7.212658e-07
7.208709e-07
7.211786e-07
7.216807e-07
-0.0005384411
0.0005386449
-3.624224e-12
-3.090968e-06
7.219867e-07
7.216026e-07
7.219133e-07
7.224035e-07
-0.0005388484
0.0005390518
-2.680477e-12
-3.093439e-06
7.226948e-07
7.223353e-07
7.226303e-07
7.230861e-07
-0.0005392548
0.0005394576
-1.499083e-12
-3.095561e-06
7.2337e-07
7.230146e-07
7.232942e-07
7.237247e-07
-0.00053966
0.0005398621
-1.079845e-12
-3.097268e-06
7.239891e-07
7.236426e-07
7.239097e-07
7.243064e-07
-0.0005400636
0.0005402645
-1.63073e-12
-3.098507e-06
7.245546e-07
7.242367e-07
7.244884e-07
7.2481e-07
-0.0005404648
0.0005406644
-2.86549e-12
-3.099116e-06
7.250372e-07
7.247385e-07
7.249616e-07
7.252153e-07
-0.0005408633
0.0005410611
-3.74348e-12
-3.09897e-06
7.25414e-07
7.25132e-07
7.253311e-07
7.255022e-07
-0.0005412582
0.0005414539
-4.166129e-12
-3.09796e-06
7.256744e-07
7.254261e-07
7.256026e-07
7.256431e-07
-0.0005416487
0.0005418419
-4.153632e-12
-3.095887e-06
7.257783e-07
7.255732e-07
7.257078e-07
7.25613e-07
-0.0005420339
0.0005422239
-4.128175e-12
-3.092533e-06
7.257116e-07
7.25531e-07
7.256256e-07
7.253469e-07
-0.0005424126
0.0005425988
-3.976841e-12
-3.087594e-06
7.254252e-07
7.252704e-07
7.253519e-07
7.247758e-07
-0.0005427832
0.0005429646
-3.944375e-12
-3.080573e-06
7.248633e-07
7.247151e-07
7.248083e-07
7.237577e-07
-0.0005431439
0.0005433193
-3.787197e-12
-3.070579e-06
7.239141e-07
7.23692e-07
7.238662e-07
7.220924e-07
-0.0005434919
0.0005436593
-3.843524e-12
-3.055932e-06
7.222532e-07
7.220184e-07
7.221701e-07
7.192826e-07
-0.0005438231
0.0005439795
-3.81907e-12
-3.033546e-06
7.193757e-07
7.191962e-07
7.19271e-07
7.143333e-07
-0.0005441305
0.0005442705
-3.843659e-12
-2.996415e-06
7.140004e-07
7.142362e-07
7.139176e-07
7.036468e-07
-0.0005444016
0.0005445166
-3.838738e-12
-2.926594e-06
7.022383e-07
7.035726e-07
7.021661e-07
6.722984e-07
-0.0005446239
0.0005447333
-3.754463e-12
-2.782288e-06
6.641953e-07
6.722471e-07
6.641435e-07
5.857965e-07
-0.0005448812
0.0005451008
-3.888032e-12
-2.504736e-06
5.568554e-07
5.857309e-07
5.567477e-07
4.969957e-07
-0.0005453838
0.0005456645
-3.946531e-12
-2.267275e-06
4.964178e-07
4.96889e-07
4.963521e-07
4.907124e-07
-0.0005459172
0.0005461551
-3.790525e-12
-2.199756e-06
4.90258e-07
4.906328e-07
4.901754e-07
4.800256e-07
-0.0005463897
0.0005466151
-3.869834e-12
-2.144655e-06
4.796986e-07
4.799518e-07
4.796269e-07
4.753979e-07
-0.0005468326
0.0005470424
-4.079397e-12
-2.110568e-06
4.75075e-07
4.753303e-07
4.750077e-07
4.71272e-07
-0.0005472482
0.0005474472
-4.671553e-12
-2.083806e-06
4.712023e-07
4.712091e-07
4.711388e-07
4.677778e-07
-0.0005476429
0.000547832
-4.386817e-12
-2.060251e-06
4.678775e-07
4.677396e-07
4.678468e-07
4.672269e-07
-0.0005480149
0.0005481917
-8.007373e-13
-2.039527e-06
4.640169e-07
4.673209e-07
4.641839e-07
4.113474e-07
-0.0005484534
0.000548867
-1.426926e-12
-2.112365e-06
4.373062e-07
4.118166e-07
4.383305e-07
4.198314e-07
-0.0005491962
0.0005490915
-1.549414e-12
-1.495518e-06
3.803722e-07
4.19649e-07
3.80391e-07
3.680244e-07
-0.0005491018
0.0005493679
-1.527287e-12
-1.65442e-06
3.249629e-07
3.692785e-07
3.260201e-07
3.501373e-07
-0.0005496575
0.0005499568
-1.178295e-12
-1.682894e-06
3.409831e-07
3.508533e-07
3.415655e-07
3.599695e-07
-0.000550243
0.0005505183
-9.612919e-13
-1.715496e-06
3.598263e-07
3.603419e-07
3.601243e-07
3.766374e-07
-0.0005507701
0.0005510027
-7.305796e-13
-1.74532e-06
3.795817e-07
3.768009e-07
3.797142e-07
3.930689e-07
-0.0005512152
0.0005514131
-6.324522e-13
-1.776463e-06
3.961638e-07
3.931247e-07
3.962127e-07
4.077544e-07
-0.000551597
0.0005517653
-5.148711e-13
-1.805539e-06
4.108736e-07
4.077441e-07
4.108624e-07
4.213585e-07
-0.0005519211
0.0005520675
-4.302897e-13
-1.836921e-06
4.239245e-07
4.213521e-07
4.239241e-07
4.323519e-07
-0.0005522054
0.0005523366
-3.767622e-13
-1.864618e-06
4.343829e-07
4.323483e-07
4.343846e-07
4.407858e-07
-0.0005524626
0.0005525847
-2.801792e-13
-1.88814e-06
4.421797e-07
4.407921e-07
4.421911e-07
4.469133e-07
-0.0005527043
0.0005528222
-2.325669e-13
-1.907426e-06
4.478486e-07