/*--------------------------------*- C++ -*----------------------------------*\
| =========                 |                                                 |
| \\      /  F ield         | foam-extend: Open Source CFD                    |
|  \\    /   O peration     | Version:     3.1                                |
|   \\  /    A nd           | Web:         http://www.extend-project.de       |
|    \\/     M anipulation  |                                                 |
\*---------------------------------------------------------------------------*/
FoamFile
{
    version     2.0;
    format      ascii;
    class       volScalarField;
    location    "1.5";
    object      nut;
}
// * * * * * * * * * * * * * * * * * * * * * * * * * * * * * * * * * * * * * //

dimensions      [0 2 -1 0 0 0 0];

internalField   nonuniform List<scalar> 
119952
(
4.027883e-05
2.283659e-05
2.425468e-05
3.028053e-05
3.493168e-05
3.371204e-05
3.287214e-05
3.213384e-05
3.138856e-05
3.061212e-05
2.980248e-05
2.896679e-05
2.811435e-05
2.725403e-05
2.639161e-05
2.553089e-05
2.467437e-05
2.38224e-05
2.296605e-05
2.214777e-05
3.040676e-05
2.873167e-05
2.805103e-05
3.935758e-05
3.814032e-05
3.742641e-05
3.680097e-05
3.649317e-05
3.547049e-05
3.663026e-05
2.121139e-05
1.977016e-05
2.35638e-05
2.924194e-05
3.570337e-05
4.241639e-05
4.928085e-05
5.623751e-05
6.332729e-05
7.517839e-05
0.0002087294
0.0003029181
0.0003902871
0.0004629417
0.0005224475
0.0005734958
0.0006198756
0.000663957
0.0007070023
0.00109144
0.001204115
0.001318752
0.001428882
0.001530207
0.001621479
0.001703548
0.001778067
0.001846748
0.001911003
0.001982814
0.002070199
0.002167565
0.002267287
0.002363466
0.002453232
0.002536394
0.002614973
0.002692464
0.002669433
0.002669164
0.002716996
0.002784237
0.002850196
0.002906021
0.002952656
0.002990006
0.003018199
0.00303827
0.003051499
0.003058809
0.00306147
0.003060746
0.003057662
0.003053146
0.003048216
0.003044309
0.003043349
0.003047885
0.003059597
0.003072691
0.003093808
0.003125412
0.003146588
0.003151935
0.003140803
0.003091016
0.00292251
0.002657597
0.002593227
0.002567976
0.002554682
0.002547032
0.002542626
0.002539889
0.00253773
0.002535431
0.002532555
0.002528868
0.002524276
0.00251877
0.002512387
0.002505188
0.002497242
0.002488624
0.002479407
0.002469671
0.002459493
0.002448956
0.00243814
0.002427119
0.002415958
0.002404736
0.002393497
0.00238228
0.002371111
0.002360007
0.00234897
0.002337993
0.002327064
0.002316161
0.002305263
0.002294343
0.002283377
0.002272342
0.002261224
0.00224999
0.002238558
0.002226971
0.002215281
0.002203493
0.00219162
0.002179682
0.002167699
0.002155701
0.002143761
0.002132193
0.002121346
0.00207567
0.002015695
0.001963426
0.001920294
0.001884992
0.001855768
0.001831096
0.001809809
0.001791047
0.00177418
0.001758752
0.001744428
0.00173096
0.001718157
0.001705876
0.001694007
0.001682464
0.00167118
0.001660101
0.001649185
0.001638396
0.001627709
0.001617102
0.001606557
0.001596072
0.001585655
0.001575219
0.001564718
0.001554243
0.001543782
0.001533315
0.001522829
0.001512316
0.00150177
0.001491182
0.001480546
0.001469857
0.001459108
0.001448291
0.001437401
0.001426428
0.001415364
0.001404201
0.001392931
0.001381551
0.001370051
0.001358436
0.00134673
0.001335216
0.001323706
0.001029599
0.0007961007
0.0007242131
0.0006895173
0.0006675758
0.000651373
0.0006382524
0.0006269672
0.0006168465
0.0006074982
0.0005986802
0.0005902464
0.0005820951
0.0005741609
0.000566398
0.0005587671
0.0005512427
0.000543881
0.0005366125
0.0005293635
0.0005221441
0.0005149981
0.0005079147
0.0005008822
0.0004938938
0.0004869462
0.0004800356
0.0004731673
0.0004663435
0.0004595717
0.0004528674
0.0004462778
0.0004398579
0.000433749
0.0004287501
0.0004320906
0.0004465711
0.0004593245
0.0004703518
0.0004801235
0.0004890226
0.0004973402
0.0005052695
0.000512939
0.0005204351
0.0005278078
0.0005350868
0.0005423006
0.0005494644
0.0005565891
0.0005636834
0.000570755
0.0005778105
0.000584856
0.0005918967
0.0005989372
0.0006059812
0.0006130316
0.0006200908
0.00062716
0.0006342431
0.0006413371
0.0006484365
0.0006555476
0.0006626689
0.0006697986
0.0006769354
0.0006840769
0.0006912376
0.0006985208
0.0009915798
0.00104195
0.001095062
0.001149026
0.001201651
0.001251003
0.001295727
0.001335278
0.001369772
0.001399724
0.001425813
0.001448728
0.001469079
0.001487377
0.001504034
0.001519378
0.001533668
0.001547106
0.001559853
0.001572037
0.001583761
0.001595107
0.001606144
0.001616925
0.001627497
0.001637891
0.00164814
0.001658268
0.001668295
0.001678239
0.001688111
0.001697924
0.001707683
0.001717397
0.001727068
0.0017367
0.001746293
0.001755848
0.001765362
0.00177483
0.001784239
0.001793567
0.001802772
0.001811759
0.001820313
0.001827965
0.001834506
0.001840645
0.001846581
0.001852407
0.001858167
0.001863873
0.001869555
0.00187547
0.001879832
0.001892612
0.001915618
0.00194634
0.001981439
0.002017757
0.002052815
0.002085032
0.00211366
0.002138591
0.002160111
0.00217869
0.002194837
0.00220903
0.002221676
0.002233108
0.00224359
0.002253327
0.002262476
0.002271159
0.00227947
0.00228748
0.002295246
0.002302811
0.002310209
0.002317466
0.002324605
0.002331642
0.002338591
0.002345464
0.00235227
0.002359017
0.002365712
0.002372362
0.002378971
0.002385545
0.002392088
0.002398605
0.0024051
0.002411576
0.002418037
0.002424485
0.002430922
0.002437351
0.002443773
0.002450187
0.002456595
0.002462995
0.002469386
0.002475766
0.002482132
0.002488479
0.002494805
0.002501104
0.002507373
0.002513608
0.002519806
0.002525966
0.002532088
0.002538171
0.002544219
0.002550234
0.002556222
0.002562189
0.002568142
0.002574089
0.00258004
0.002586004
0.002591996
0.002598031
0.002604125
0.002610302
0.002616592
0.002623031
0.002629674
0.002636596
0.002643912
0.002651805
0.002660573
0.002670752
0.002683439
0.002701082
0.0027293
0.002780449
0.002768811
1.777799e-05
1.946709e-05
2.324475e-05
2.82882e-05
3.401986e-05
4.009292e-05
4.637103e-05
5.282978e-05
6.013096e-05
0.0001596687
0.0002407424
0.0003279818
0.000408584
0.0004768644
0.0005342482
0.0005844834
0.0006306815
0.0006748602
0.001019473
0.001123222
0.00123506
0.001348274
0.001456391
0.001555609
0.001645049
0.001725692
0.001799199
0.001867495
0.001934143
0.00201523
0.002110807
0.002213662
0.002316145
0.002413109
0.002502487
0.002584354
0.002659832
0.002686554
0.002720587
0.002795021
0.002888839
0.002989827
0.003090581
0.003187156
0.003277947
0.003362753
0.003442088
0.003519147
0.003601389
0.003691614
0.003788115
0.003887088
0.003984806
0.004078697
0.004167352
0.004246368
0.005121909
0.005222251
0.005316743
0.00541044
0.005504466
0.005598221
0.005690605
0.005780603
0.005867497
0.005951046
0.006032579
0.006114199
0.006197317
0.006282223
0.006368285
0.006454397
0.006539238
0.006621084
0.006695126
0.006751199
0.006795165
0.006835405
0.006873239
0.006907822
0.00693951
0.006969133
0.006996864
0.007022478
0.007045634
0.007066031
0.007083647
0.007098552
0.007110889
0.007120955
0.007129203
0.007136278
0.007143073
0.007150742
0.007160414
0.007172032
0.007185519
0.007201527
0.00721679
0.007225282
0.007223018
0.007201799
0.007152685
0.007071174
0.006988388
0.006922625
0.00687063
0.006829615
0.006797943
0.006772943
0.006752847
0.006736381
0.006722559
0.006710585
0.006699821
0.006689779
0.006680054
0.006670316
0.006660339
0.006649953
0.006639045
0.006627555
0.006615472
0.00660283
0.006589695
0.006576157
0.006562314
0.006548297
0.006534218
0.006520168
0.006506225
0.006492451
0.00647888
0.006465524
0.006452375
0.006439406
0.006426576
0.006413833
0.00640112
0.006388377
0.00637555
0.006362583
0.006349428
0.006336074
0.006322544
0.006308878
0.006295131
0.006281338
0.00626753
0.006253771
0.006240143
0.006226774
0.006213805
0.006200572
0.00618414
0.006163167
0.006137719
0.006108924
0.006078177
0.006046713
0.006015464
0.005985062
0.005955883
0.005928121
0.00590184
0.005877023
0.005853601
0.005831473
0.005810528
0.005790649
0.00577172
0.005753631
0.005736277
0.005719563
0.005703407
0.005687736
0.005672487
0.005657608
0.005643053
0.005628767
0.00561468
0.005600761
0.005586996
0.005573363
0.005559841
0.005546406
0.005533039
0.00551972
0.005506434
0.005493165
0.005479899
0.005466623
0.005453324
0.00543999
0.00542661
0.005413173
0.005399669
0.005386093
0.005372445
0.005358739
0.005345021
0.005331418
0.005318376
0.005309382
0.004799082
0.004510202
0.004392603
0.004325574
0.004275701
0.004233495
0.004196216
0.004162948
0.004133205
0.004106579
0.004082666
0.00406108
0.004041461
0.004023485
0.00400687
0.003991377
0.003976818
0.003963037
0.003949885
0.00393722
0.003924943
0.003912989
0.003901307
0.003889857
0.003878609
0.003867543
0.003856654
0.003845951
0.003835465
0.003825256
0.003815441
0.003806239
0.003798075
0.003791908
0.003789976
0.003795823
0.003807334
0.003822102
0.003838606
0.003855825
0.003873084
0.003889972
0.003906261
0.003921848
0.003936713
0.003950878
0.003964396
0.003977328
0.003989742
0.004001703
0.004013275
0.004024517
0.004035485
0.004046227
0.004056787
0.004067203
0.004077507
0.004087724
0.004097875
0.004107972
0.004118027
0.004128045
0.004138028
0.004147975
0.004157884
0.004167749
0.00417756
0.004187302
0.004196916
0.004204718
0.00498004
0.005017351
0.00504632
0.005072888
0.005100019
0.005128894
0.005159658
0.005191928
0.005225049
0.005258339
0.005291191
0.005323126
0.005353799
0.005382995
0.005410605
0.005436601
0.005461016
0.005483924
0.005505423
0.00552563
0.005544667
0.005562657
0.005579722
0.005595977
0.005611528
0.005626473
0.0056409
0.005654887
0.005668503
0.005681807
0.005694847
0.005707666
0.005720296
0.005732763
0.005745088
0.005757282
0.005769356
0.00578131
0.005793139
0.005804831
0.00581636
0.005827681
0.005838722
0.005849372
0.005859469
0.005868846
0.005877587
0.005885887
0.005893868
0.005901601
0.005909129
0.005916465
0.005923589
0.005930327
0.005936653
0.005943624
0.00595234
0.005963627
0.005977883
0.005995066
0.006014795
0.006036466
0.006059387
0.006082882
0.006106362
0.006129362
0.006151548
0.00617271
0.006192735
0.006211589
0.006229293
0.006245904
0.0062615
0.00627617
0.006290008
0.006303102
0.006315539
0.006327397
0.006338746
0.00634965
0.006360165
0.006370341
0.006380219
0.006389839
0.006399232
0.006408428
0.006417451
0.006426326
0.006435073
0.006443708
0.006452251
0.006460714
0.006469113
0.006477458
0.006485761
0.006494031
0.006502275
0.006510498
0.006518705
0.006526898
0.006535076
0.006543239
0.006551382
0.006559501
0.006567588
0.006575636
0.006583634
0.006591573
0.006599444
0.00660724
0.006614954
0.006622581
0.006630122
0.006637578
0.006644955
0.006652259
0.006659503
0.006666699
0.006673866
0.006681022
0.006688191
0.006695399
0.006702676
0.006710058
0.006717589
0.006725321
0.006733321
0.006741675
0.006750499
0.006759949
0.006770253
0.00678174
0.006794908
0.006810526
0.006829765
0.006854323
0.006886112
0.006923302
0.006951123
3.301606e-05
3.02934e-05
3.745152e-05
4.538124e-05
5.25728e-05
5.904966e-05
6.508838e-05
7.075421e-05
7.617015e-05
8.6884e-05
0.0002450888
0.0003468067
0.0004376923
0.0005112512
0.0005697066
0.0006178337
0.0006596353
0.0006978342
0.0007342469
0.001100556
0.001183894
0.001271356
0.001359937
0.001446726
0.001529489
0.001607095
0.001679388
0.001746821
0.001809664
0.001873595
0.001947759
0.002032576
0.00212472
0.002219407
0.002312268
0.002400475
0.002482928
0.002560925
0.002571351
0.002624164
0.002702915
0.002796893
0.002898053
0.003000287
0.003099582
0.00319388
0.003282531
0.003365829
0.003448507
0.003536528
0.003631818
0.003732629
0.003835415
0.003936619
0.004033632
0.004123187
0.005000044
0.00510392
0.005200412
0.005296271
0.005393749
0.005492619
0.00559159
0.005689224
0.005784339
0.005876242
0.005965264
0.006053556
0.006143291
0.006235587
0.00633029
0.006426342
0.006522321
0.00661681
0.006708236
0.006792412
0.006870529
0.006946874
0.007023852
0.007102438
0.007183543
0.007266515
0.007350189
0.007433416
0.007515334
0.007595863
0.007675883
0.007756543
0.007838632
0.007922272
0.008006992
0.008091999
0.008176566
0.008261403
0.008294251
0.008345319
0.008407021
0.00847564
0.008549002
0.008625518
0.008703869
0.008782921
0.008861729
0.008939623
0.009016494
0.009092717
0.009168801
0.009245082
0.009321572
0.00939793
0.009473417
0.009546689
0.009615197
0.009675284
0.009727398
0.00977344
0.009814069
0.009849589
0.009880934
0.009909279
0.009935475
0.009959995
0.009983033
0.01
0.01
0.01
0.01
0.01
0.01
0.01
0.01
0.01
0.01
0.01
0.01
0.01
0.01
0.01
0.01
0.01
0.01
0.01
0.01
0.01
0.009963781
0.009928218
0.009895513
0.009866047
0.009839728
0.009816262
0.009795276
0.009776369
0.009759138
0.009743197
0.009728192
0.0097138
0.009699747
0.009685801
0.009671786
0.009657574
0.009643093
0.009628316
0.009613261
0.009597981
0.009582545
0.00956704
0.009551598
0.009536283
0.009521169
0.009506314
0.009491754
0.009477498
0.009463535
0.009449832
0.00943634
0.009422996
0.009409727
0.00939646
0.00938312
0.009369641
0.009355967
0.009342068
0.009327935
0.009313582
0.009299039
0.009284393
0.009269757
0.009255218
0.009240866
0.009226795
0.009213059
0.009199365
0.009184892
0.009168949
0.00915099
0.009130816
0.009108578
0.009084651
0.0090595
0.009033601
0.009007385
0.008981213
0.00895537
0.008930067
0.008905451
0.008881613
0.008858605
0.008836444
0.008815128
0.008794642
0.008774924
0.00875589
0.008737483
0.008719653
0.008702349
0.008685525
0.008669134
0.008653125
0.008637444
0.008622051
0.008606917
0.008592013
0.008577312
0.008562788
0.008548416
0.008534174
0.00852004
0.008505995
0.008492021
0.008478101
0.008464217
0.008450354
0.008436496
0.008422632
0.00840875
0.008394848
0.008380926
0.008367001
0.008353103
0.008339268
0.008325388
0.008309948
0.008277685
0.008274183
0.008271871
0.008264561
0.008252002
0.008235322
0.008215785
0.008194497
0.008172325
0.008149922
0.008127754
0.008106138
0.008085269
0.008065258
0.008046146
0.008027935
0.008010594
0.007994071
0.0079783
0.007963208
0.007948731
0.007934807
0.007921386
0.007908423
0.007895886
0.007883759
0.007872041
0.007860752
0.007849945
0.007839719
0.007830244
0.00782187
0.007815152
0.007811079
0.007811256
0.007814396
0.007820369
0.007828619
0.00783861
0.007849893
0.007862089
0.007874885
0.00788802
0.007901295
0.007914548
0.007927659
0.007940545
0.007953151
0.007965451
0.007977437
0.007989121
0.008000523
0.008011672
0.008022599
0.00803333
0.008043933
0.008054417
0.008064808
0.008075127
0.008085389
0.008095604
0.008105776
0.008115904
0.008125992
0.008136031
0.008146009
0.008155906
0.008165783
0.008175946
0.008189116
0.0081595
0.008144958
0.008139791
0.008141121
0.008147441
0.008157875
0.008171849
0.008188846
0.008208334
0.00822979
0.008252698
0.008276569
0.008300964
0.008325502
0.008349867
0.008373811
0.008397145
0.008419741
0.008441515
0.008462428
0.008482474
0.008501675
0.008520071
0.008537716
0.008554673
0.008571012
0.008586799
0.008602102
0.008616982
0.008631498
0.008645699
0.008659628
0.008673322
0.00868681
0.008700114
0.008713249
0.008726224
0.008739042
0.008751697
0.008764174
0.008776447
0.008788475
0.008800198
0.008811535
0.008822388
0.008832679
0.008842438
0.008851759
0.008860718
0.008869366
0.008877737
0.008885843
0.008893672
0.008901142
0.008908243
0.008915315
0.008922803
0.008931149
0.008940735
0.008951825
0.008964531
0.008978819
0.008994531
0.00901142
0.009029191
0.00904754
0.009066176
0.009084842
0.009103326
0.009121462
0.00913913
0.00915625
0.009172775
0.009188685
0.009203981
0.009218682
0.009232813
0.009246409
0.009259507
0.009272147
0.009284366
0.009296203
0.009307692
0.009318869
0.009329764
0.009340408
0.009350827
0.009361047
0.009371093
0.009380988
0.009390752
0.009400406
0.009409968
0.009419455
0.009428881
0.009438259
0.0094476
0.009456912
0.009466201
0.009475471
0.009484721
0.00949395
0.009503152
0.009512322
0.009521448
0.009530521
0.009539526
0.009548452
0.009557286
0.009566017
0.009574637
0.009583141
0.009591526
0.009599796
0.009607955
0.009616016
0.009623994
0.009631906
0.009639776
0.009647631
0.009655503
0.009663428
0.009671448
0.009679612
0.009687978
0.009696617
0.009705613
0.009715078
0.00972515
0.009736017
0.009747927
0.009761225
0.009776381
0.00979404
0.009815041
0.00984035
0.009870546
0.009903787
0.009931588
9.136324e-05
0.0001467266
0.0003169705
0.0008264522
0.001055819
0.002037707
0.002445387
0.002751542
0.003048499
0.003317869
0.003512099
0.003642425
0.003662515
0.003712029
0.003808511
0.00390709
0.003992545
0.004061474
0.004114867
0.004154893
0.004183709
0.004203163
0.004217335
0.004233904
0.00425542
0.004280665
0.004307331
0.00433349
0.004358081
0.004380791
0.004398769
0.005201108
0.005240588
0.005277394
0.005317444
0.005363455
0.005416172
0.005475138
0.005539227
0.005607041
0.005677171
0.005749234
0.005823931
0.005902289
0.005985048
0.006072233
0.006163099
0.006256365
0.006350398
0.006442651
0.006529748
0.006613717
0.00669766
0.006783957
0.006873591
0.006966157
0.00706019
0.0071536
0.007246006
0.007337152
0.00742718
0.007516925
0.007607415
0.007699314
0.007792652
0.007886901
0.007981429
0.008077403
0.008124939
0.008186998
0.008257615
0.008334106
0.008415113
0.008499616
0.008586623
0.008675077
0.008763959
0.008852435
0.008940085
0.009027173
0.009114364
0.009202324
0.009291426
0.009381648
0.00947263
0.009563774
0.009654255
0.009742821
0.009829152
0.009914075
0.009998913
0.01
0.01
0.01
0.01
0.01
0.01
0.01
0.01
0.01
0.01
0.01
0.01
0.01
0.01
0.01
0.01
0.01
0.01
0.01
0.01
0.01
0.01
0.01
0.01
0.01
0.01
0.01
0.01
0.01
0.01
0.01
0.01
0.01
0.01
0.01
0.01
0.01
0.01
0.01
0.01
0.01
0.01
0.01
0.01
0.01
0.01
0.01
0.01
0.01
0.01
0.01
0.01
0.01
0.01
0.01
0.01
0.01
0.01
0.01
0.01
0.01
0.01
0.01
0.01
0.01
0.01
0.01
0.01
0.01
0.01
0.01
0.01
0.01
0.01
0.01
0.01
0.01
0.01
0.01
0.01
0.01
0.01
0.01
0.01
0.01
0.01
0.01
0.01
0.01
0.01
0.01
0.01
0.01
0.01
0.01
0.01
0.01
0.01
0.01
0.01
0.01
0.01
0.01
0.01
0.01
0.01
0.01
0.01
0.01
0.01
0.01
0.01
0.01
0.01
0.01
0.01
0.01
0.01
0.01
0.01
0.01
0.01
0.01
0.01
0.01
0.01
0.01
0.01
0.01
0.01
0.01
0.01
0.01
0.01
0.01
0.01
0.01
0.01
0.01
0.01
0.01
0.01
0.01
0.01
0.01
0.01
0.01
0.01
0.01
0.01
0.01
0.01
0.01
0.01
0.01
0.01
0.01
0.01
0.01
0.01
0.01
0.01
0.01
0.01
0.01
0.01
0.01
0.01
0.01
0.01
0.01
0.01
0.01
0.01
0.01
0.01
0.01
0.01
0.01
0.01
0.01
0.01
0.01
0.01
0.01
0.01
0.01
0.01
0.01
0.01
0.01
0.01
0.01
0.01
0.01
0.01
0.01
0.01
0.01
0.01
0.01
0.01
0.01
0.01
0.01
0.01
0.01
0.01
0.01
0.01
0.01
0.01
0.01
0.01
0.01
0.01
0.01
0.01
0.01
0.01
0.01
0.01
0.01
0.01
0.01
0.01
0.01
0.01
0.01
0.01
0.01
0.01
0.01
0.01
0.01
0.01
0.01
0.01
0.01
0.01
0.01
0.01
0.01
0.01
0.01
0.01
0.01
0.01
0.01
0.01
0.01
0.01
0.01
0.01
0.01
0.01
0.01
0.01
0.01
0.01
0.01
0.01
0.01
0.01
0.01
0.01
0.01
0.01
0.01
0.01
0.01
0.01
0.01
0.01
0.01
0.01
0.01
0.01
0.01
0.01
0.01
0.01
0.01
0.01
0.01
0.01
0.01
0.01
0.01
0.01
0.01
0.01
0.01
0.01
0.01
0.01
0.01
0.01
0.01
0.01
0.01
0.01
0.01
0.01
0.01
0.01
0.01
0.01
0.01
0.01
0.01
0.01
0.01
0.01
0.01
0.01
0.01
0.01
0.01
0.01
0.01
0.01
0.01
0.01
0.01
0.01
0.01
0.01
0.01
0.01
0.01
0.01
0.01
0.01
0.01
0.01
0.01
0.01
0.01
0.01
0.01
0.01
0.01
0.01
0.01
0.01
0.01
0.01
0.01
0.01
0.01
0.01
0.01
0.01
0.01
0.01
0.01
0.01
0.01
0.01
0.01
0.01
0.01
0.01
0.01
0.01
0.01
0.01
0.01
0.01
0.01
0.01
3.389305e-05
7.117673e-05
0.0001393799
0.0005399892
0.0008770779
0.002131702
0.002811025
0.003217984
0.003767009
0.004116821
0.004481491
0.004801297
0.005053638
0.005318098
0.005614858
0.005866949
0.006928417
0.00715064
0.00735678
0.007549856
0.007726793
0.007883091
0.008016866
0.008127369
0.008223099
0.008311288
0.008393437
0.008468185
0.008533379
0.008587084
0.008627948
0.008655297
0.008669109
0.008670348
0.008661092
0.008643927
0.008621421
0.008595885
0.008569319
0.00854345
0.008519959
0.008502138
0.008440578
0.008402457
0.008381734
0.008375569
0.008382509
0.008401581
0.008431816
0.008472057
0.008520985
0.008577163
0.008639264
0.008706409
0.008778181
0.008854432
0.008935068
0.009020026
0.009108472
0.00919943
0.009291668
0.009383811
0.009475405
0.009566869
0.009659076
0.009752905
0.009848959
0.009947458
0.01
0.01
0.01
0.01
0.01
0.01
0.01
0.01
0.01
0.01
0.01
0.01
0.01
0.01
0.01
0.01
0.01
0.01
0.01
0.01
0.01
0.01
0.01
0.01
0.01
0.01
0.01
0.01
0.01
0.01
0.01
0.01
0.01
0.01
0.01
0.01
0.01
0.01
0.01
0.01
0.01
0.01
0.01
0.01
0.01
0.01
0.01
0.01
0.01
0.01
0.01
0.01
0.01
0.01
0.01
0.01
0.01
0.01
0.01
0.01
0.01
0.01
0.01
0.01
0.01
0.01
0.01
0.01
0.01
0.01
0.01
0.01
0.01
0.01
0.01
0.01
0.01
0.01
0.01
0.01
0.01
0.01
0.01
0.01
0.01
0.01
0.01
0.01
0.01
0.01
0.01
0.01
0.01
0.01
0.01
0.01
0.01
0.01
0.01
0.01
0.01
0.01
0.01
0.01
0.01
0.01
0.01
0.01
0.01
0.01
0.01
0.01
0.01
0.01
0.01
0.01
0.01
0.01
0.01
0.01
0.01
0.01
0.01
0.01
0.01
0.01
0.01
0.01
0.01
0.01
0.01
0.01
0.01
0.01
0.01
0.01
0.01
0.01
0.01
0.01
0.01
0.01
0.01
0.01
0.01
0.01
0.01
0.01
0.01
0.01
0.01
0.01
0.01
0.01
0.01
0.01
0.01
0.01
0.01
0.01
0.01
0.01
0.01
0.01
0.01
0.01
0.01
0.01
0.01
0.01
0.01
0.01
0.01
0.01
0.01
0.01
0.01
0.01
0.01
0.01
0.01
0.01
0.01
0.01
0.01
0.01
0.01
0.01
0.01
0.01
0.01
0.01
0.01
0.01
0.01
0.01
0.01
0.01
0.01
0.01
0.01
0.01
0.01
0.01
0.01
0.01
0.01
0.01
0.01
0.01
0.01
0.01
0.01
0.01
0.01
0.01
0.01
0.01
0.01
0.01
0.01
0.01
0.01
0.01
0.01
0.01
0.01
0.01
0.01
0.01
0.01
0.01
0.01
0.01
0.01
0.01
0.01
0.01
0.01
0.01
0.01
0.01
0.01
0.01
0.01
0.01
0.01
0.01
0.01
0.01
0.01
0.01
0.01
0.01
0.01
0.01
0.01
0.01
0.01
0.01
0.01
0.01
0.01
0.01
0.01
0.01
0.01
0.01
0.01
0.01
0.01
0.01
0.01
0.01
0.01
0.01
0.01
0.01
0.01
0.01
0.01
0.01
0.01
0.01
0.01
0.01
0.01
0.01
0.01
0.01
0.01
0.01
0.01
0.01
0.01
0.01
0.01
0.01
0.01
0.01
0.01
0.01
0.01
0.01
0.01
0.01
0.01
0.01
0.01
0.01
0.01
0.01
0.01
0.01
0.01
0.01
0.01
0.01
0.01
0.01
0.01
0.01
0.01
0.01
0.01
0.01
0.01
0.01
0.01
0.01
0.01
0.01
0.01
0.01
0.01
0.01
0.01
0.01
0.01
0.01
0.01
0.01
0.01
0.01
0.01
0.01
0.01
0.01
0.01
0.01
0.01
0.01
0.01
0.01
0.01
0.01
0.01
0.01
0.01
0.01
0.01
0.01
0.01
0.01
0.01
0.01
0.01
0.01
0.01
0.01
0.01
0.01
0.01
0.01
0.01
0.01
0.01
0.01
0.01
0.01
0.01
0.01
0.01
0.01
0.01
0.01
0.01
0.01
0.01
0.01
0.01
0.01
0.01
0.01
0.01
0.01
0.01
0.01
0.01
0.01
0.01
0.01
0.01
0.01
0.01
0.01
2.89894e-05
5.119583e-05
8.35504e-05
0.0002898473
0.0005051156
0.0009544765
0.001271609
0.001668264
0.002157435
0.002640913
0.003149975
0.003738742
0.004326667
0.00481445
0.005230446
0.005974159
0.006090521
0.005925684
0.005975052
0.006176066
0.006456279
0.006871217
0.007422887
0.008049787
0.008441125
0.008699
0.00889698
0.009112504
0.009330954
0.009549118
0.009764869
0.009976593
0.01
0.01
0.01
0.01
0.01
0.01
0.01
0.01
0.01
0.01
0.01
0.01
0.01
0.01
0.01
0.01
0.01
0.01
0.01
0.01
0.01
0.01
0.01
0.01
0.01
0.01
0.01
0.01
0.01
0.01
0.01
0.01
0.01
0.01
0.01
0.01
0.01
0.01
0.01
0.01
0.01
0.01
0.01
0.01
0.01
0.01
0.01
0.01
0.01
0.01
0.01
0.01
0.01
0.01
0.01
0.01
0.01
0.01
0.01
0.01
0.01
0.01
0.01
0.01
0.01
0.01
0.01
0.01
0.01
0.01
0.01
0.01
0.01
0.01
0.01
0.01
0.01
0.01
0.01
0.01
0.01
0.01
0.01
0.01
0.01
0.01
0.01
0.01
0.01
0.01
0.01
0.01
0.01
0.01
0.01
0.01
0.01
0.01
0.01
0.01
0.01
0.01
0.01
0.01
0.01
0.01
0.01
0.01
0.01
0.01
0.01
0.01
0.01
0.01
0.01
0.01
0.01
0.01
0.01
0.01
0.01
0.01
0.01
0.01
0.01
0.01
0.01
0.01
0.01
0.01
0.01
0.01
0.01
0.01
0.01
0.01
0.01
0.01
0.01
0.01
0.01
0.01
0.01
0.01
0.01
0.01
0.01
0.01
0.01
0.01
0.01
0.01
0.01
0.01
0.01
0.01
0.01
0.01
0.01
0.01
0.01
0.01
0.01
0.01
0.01
0.01
0.01
0.01
0.01
0.01
0.01
0.01
0.01
0.01
0.01
0.01
0.01
0.01
0.01
0.01
0.01
0.01
0.01
0.01
0.01
0.01
0.01
0.01
0.01
0.01
0.01
0.01
0.01
0.01
0.01
0.01
0.01
0.01
0.01
0.01
0.01
0.01
0.01
0.01
0.01
0.01
0.01
0.01
0.01
0.01
0.01
0.01
0.01
0.01
0.01
0.01
0.01
0.01
0.01
0.01
0.01
0.01
0.01
0.01
0.01
0.01
0.01
0.01
0.01
0.01
0.01
0.01
0.01
0.01
0.01
0.01
0.01
0.01
0.01
0.01
0.01
0.01
0.01
0.01
0.01
0.01
0.01
0.01
0.01
0.01
0.01
0.01
0.01
0.01
0.01
0.01
0.01
0.01
0.01
0.01
0.01
0.01
0.01
0.01
0.01
0.01
0.01
0.01
0.01
0.01
0.01
0.01
0.01
0.01
0.01
0.01
0.01
0.01
0.01
0.01
0.01
0.01
0.01
0.01
0.01
0.01
0.01
0.01
0.01
0.01
0.01
0.01
0.01
0.01
0.01
0.01
0.01
0.01
0.01
0.01
0.01
0.01
0.01
0.01
0.01
0.01
0.01
0.01
0.01
0.01
0.01
0.01
0.01
0.01
0.01
0.01
0.01
0.01
0.01
0.01
0.01
0.01
0.01
0.01
0.01
0.01
0.01
0.01
0.01
0.01
0.01
0.01
0.01
0.01
0.01
0.01
0.01
0.01
0.01
0.01
0.01
0.01
0.01
0.01
0.01
0.01
0.01
0.01
0.01
0.01
0.01
0.01
0.01
0.01
0.01
0.01
0.01
0.01
0.01
0.01
0.01
0.01
0.01
0.01
0.01
0.01
0.01
0.01
0.01
0.01
0.01
0.01
0.01
0.01
0.01
0.01
0.01
0.01
0.01
0.01
0.01
0.01
0.01
0.01
0.01
0.01
0.01
0.01
0.01
0.01
0.01
0.01
0.01
0.01
0.01
0.01
0.01
0.01
0.01
0.01
0.01
0.01
0.01
0.01
0.01
0.01
0.01
0.01
0.01
0.01
0.01
0.01
0.01
0.01
0.01
0.01
0.01
0.01
0.01
0.01
0.01
0.01
0.01
0.01
0.01
0.01
0.01
0.01
0.01
0.01
0.01
0.01
0.01
0.01
0.01
0.01
0.01
0.01
0.01
0.01
0.01
0.01
0.01
0.01
0.01
0.01
0.01
0.01
0.01
0.01
0.01
0.01
3.83395e-05
0.000306117
0.00053669
0.000793135
0.001045539
0.001328347
0.001655291
0.002007667
0.002379003
0.002827509
0.003790361
0.00418061
0.004565202
0.004907834
0.005200161
0.005438331
0.005614348
0.005750999
0.005876519
0.005998982
0.005704014
0.005433326
0.00535485
0.005448162
0.005673428
0.005999061
0.006439157
0.006982715
0.007634796
0.008432024
0.009276504
0.009610777
0.009931145
0.01
0.01
0.01
0.01
0.01
0.01
0.01
0.01
0.01
0.01
0.01
0.01
0.01
0.01
0.01
0.01
0.01
0.01
0.01
0.01
0.01
0.01
0.01
0.01
0.01
0.01
0.01
0.01
0.01
0.01
0.01
0.01
0.01
0.01
0.01
0.01
0.01
0.01
0.01
0.01
0.01
0.01
0.01
0.01
0.01
0.01
0.01
0.01
0.01
0.01
0.01
0.01
0.01
0.01
0.01
0.01
0.01
0.01
0.01
0.01
0.01
0.01
0.01
0.01
0.01
0.01
0.01
0.01
0.01
0.01
0.01
0.01
0.01
0.01
0.01
0.01
0.01
0.01
0.01
0.01
0.01
0.01
0.01
0.01
0.01
0.01
0.01
0.01
0.01
0.01
0.01
0.01
0.01
0.01
0.01
0.01
0.01
0.01
0.01
0.01
0.01
0.01
0.01
0.01
0.01
0.01
0.01
0.01
0.01
0.01
0.01
0.01
0.01
0.01
0.01
0.01
0.01
0.01
0.01
0.01
0.01
0.01
0.01
0.01
0.01
0.01
0.01
0.01
0.01
0.01
0.01
0.01
0.01
0.01
0.01
0.01
0.01
0.01
0.01
0.01
0.01
0.01
0.01
0.01
0.01
0.01
0.01
0.01
0.01
0.01
0.01
0.01
0.01
0.01
0.01
0.01
0.01
0.01
0.01
0.01
0.01
0.01
0.01
0.01
0.01
0.01
0.01
0.01
0.01
0.01
0.01
0.01
0.01
0.01
0.01
0.01
0.01
0.01
0.01
0.01
0.01
0.01
0.01
0.01
0.01
0.01
0.01
0.01
0.01
0.01
0.01
0.01
0.01
0.01
0.01
0.01
0.01
0.01
0.01
0.01
0.01
0.01
0.01
0.01
0.01
0.01
0.01
0.01
0.01
0.01
0.01
0.01
0.01
0.01
0.01
0.01
0.01
0.01
0.01
0.01
0.01
0.01
0.01
0.01
0.01
0.01
0.01
0.01
0.01
0.01
0.01
0.01
0.01
0.01
0.01
0.01
0.01
0.01
0.01
0.01
0.01
0.01
0.01
0.01
0.01
0.01
0.01
0.01
0.01
0.01
0.01
0.01
0.01
0.01
0.01
0.01
0.01
0.01
0.01
0.01
0.01
0.01
0.01
0.01
0.01
0.01
0.01
0.01
0.01
0.01
0.01
0.01
0.01
0.01
0.01
0.01
0.01
0.01
0.01
0.01
0.01
0.01
0.01
0.01
0.01
0.01
0.01
0.01
0.01
0.01
0.01
0.01
0.01
0.01
0.01
0.01
0.01
0.01
0.01
0.01
0.01
0.01
0.01
0.01
0.01
0.01
0.01
0.01
0.01
0.01
0.01
0.01
0.01
0.01
0.01
0.01
0.01
0.01
0.01
0.01
0.01
0.01
0.01
0.01
0.01
0.01
0.01
0.01
0.01
0.01
0.01
0.01
0.01
0.01
0.01
0.01
0.01
0.01
0.01
0.01
0.01
0.01
0.01
0.01
0.01
0.01
0.01
0.01
0.01
0.01
0.01
0.01
0.01
0.01
0.01
0.01
0.01
0.01
0.01
0.01
0.01
0.01
0.01
0.01
0.01
0.01
0.01
0.01
0.01
0.01
0.01
0.01
0.01
0.01
0.01
0.01
0.01
0.01
0.01
0.01
0.01
0.01
0.01
0.01
0.01
0.01
0.01
0.01
0.01
0.01
0.01
0.01
0.01
0.01
0.01
0.01
0.01
0.01
0.01
0.01
0.01
0.01
0.01
0.01
0.01
0.01
0.01
0.01
0.01
0.01
0.01
0.01
0.01
0.01
0.01
0.01
0.01
0.01
0.01
0.01
0.01
0.01
0.01
0.01
0.01
0.01
0.01
0.01
0.01
0.01
0.01
0.01
0.01
0.01
0.01
0.01
0.01
0.01
0.01
0.01
0.01
0.01
0.01
0.01
0.01
0.01
0.01
0.01
0.01
0.01
0.01
0.01
0.01
0.01
0.01
0.01
3.680728e-05
0.0006663657
0.001509977
0.002079114
0.002627026
0.00314468
0.00361749
0.004035045
0.004392082
0.004682534
0.004899755
0.005122944
0.005292081
0.005394257
0.005434654
0.005424032
0.005398367
0.005384991
0.005356933
0.004801424
0.004482539
0.004340382
0.004373725
0.0045372
0.004816754
0.005197229
0.005672189
0.006234181
0.006887329
0.007663705
0.00859239
0.009581972
0.01
0.01
0.01
0.01
0.01
0.01
0.01
0.01
0.01
0.01
0.01
0.01
0.01
0.01
0.01
0.01
0.01
0.01
0.01
0.01
0.01
0.01
0.01
0.01
0.01
0.01
0.01
0.01
0.01
0.01
0.01
0.01
0.01
0.01
0.01
0.01
0.01
0.01
0.01
0.01
0.01
0.01
0.01
0.01
0.01
0.01
0.01
0.01
0.01
0.01
0.01
0.01
0.01
0.01
0.01
0.01
0.01
0.01
0.01
0.01
0.01
0.01
0.01
0.01
0.01
0.01
0.01
0.01
0.01
0.01
0.01
0.01
0.01
0.01
0.01
0.01
0.01
0.01
0.01
0.01
0.01
0.01
0.01
0.01
0.01
0.01
0.01
0.01
0.01
0.01
0.01
0.01
0.01
0.01
0.01
0.01
0.01
0.01
0.01
0.01
0.01
0.01
0.01
0.01
0.01
0.01
0.01
0.01
0.01
0.01
0.01
0.01
0.01
0.01
0.01
0.01
0.01
0.01
0.01
0.01
0.01
0.01
0.01
0.01
0.01
0.01
0.01
0.01
0.01
0.01
0.01
0.01
0.01
0.01
0.01
0.01
0.01
0.01
0.01
0.01
0.01
0.01
0.01
0.01
0.01
0.01
0.01
0.01
0.01
0.01
0.01
0.01
0.01
0.01
0.01
0.01
0.01
0.01
0.01
0.01
0.01
0.01
0.01
0.01
0.01
0.01
0.01
0.01
0.01
0.01
0.01
0.01
0.01
0.01
0.01
0.01
0.01
0.01
0.01
0.01
0.01
0.01
0.01
0.01
0.01
0.01
0.01
0.01
0.01
0.01
0.01
0.01
0.01
0.01
0.01
0.01
0.01
0.01
0.01
0.01
0.01
0.01
0.01
0.01
0.01
0.01
0.01
0.01
0.01
0.01
0.01
0.01
0.01
0.01
0.01
0.01
0.01
0.01
0.01
0.01
0.01
0.01
0.01
0.01
0.01
0.01
0.01
0.01
0.01
0.01
0.01
0.01
0.01
0.01
0.01
0.01
0.01
0.01
0.01
0.01
0.01
0.01
0.01
0.01
0.01
0.01
0.01
0.01
0.01
0.01
0.01
0.01
0.01
0.01
0.01
0.01
0.01
0.01
0.01
0.01
0.01
0.01
0.01
0.01
0.01
0.01
0.01
0.01
0.01
0.01
0.01
0.01
0.01
0.01
0.01
0.01
0.01
0.01
0.01
0.01
0.01
0.01
0.01
0.01
0.01
0.01
0.01
0.01
0.01
0.01
0.01
0.01
0.01
0.01
0.01
0.01
0.01
0.01
0.01
0.01
0.01
0.01
0.01
0.01
0.01
0.01
0.01
0.01
0.01
0.01
0.01
0.01
0.01
0.01
0.01
0.01
0.01
0.01
0.01
0.01
0.01
0.01
0.01
0.01
0.01
0.01
0.01
0.01
0.01
0.01
0.01
0.01
0.01
0.01
0.01
0.01
0.01
0.01
0.01
0.01
0.01
0.01
0.01
0.01
0.01
0.01
0.01
0.01
0.01
0.01
0.01
0.01
0.01
0.01
0.01
0.01
0.01
0.01
0.01
0.01
0.01
0.01
0.01
0.01
0.01
0.01
0.01
0.01
0.01
0.01
0.01
0.01
0.01
0.01
0.01
0.01
0.01
0.01
0.01
0.01
0.01
0.01
0.01
0.01
0.01
0.01
0.01
0.01
0.01
0.01
0.01
0.01
0.01
0.01
0.01
0.01
0.01
0.01
0.01
0.01
0.01
0.01
0.01
0.01
0.01
0.01
0.01
0.01
0.01
0.01
0.01
0.01
0.01
0.01
0.01
0.01
0.01
0.01
0.01
0.01
0.01
0.01
0.01
0.01
0.01
0.01
0.01
0.01
0.01
0.01
0.01
0.01
0.01
0.01
0.01
0.01
0.01
0.01
0.01
0.01
0.01
0.01
0.01
0.01
0.01
0.01
0.01
0.01
0.01
0.01
0.01
0.01
0.01
0.01
0.01
0.01
0.01
1.603551e-05
2.338079e-05
3.315927e-05
0.0001448624
0.0002022267
0.0003903636
0.0004532631
0.0004913312
0.0004847833
0.0004682093
0.0004745177
0.0004793544
0.0004779428
0.0004575374
0.000275701
7.14779e-05
9.44072e-06
3.243198e-05
0.0009450002