/*--------------------------------*- C++ -*----------------------------------*\
| =========                 |                                                 |
| \\      /  F ield         | foam-extend: Open Source CFD                    |
|  \\    /   O peration     | Version:     3.1                                |
|   \\  /    A nd           | Web:         http://www.extend-project.de       |
|    \\/     M anipulation  |                                                 |
\*---------------------------------------------------------------------------*/
FoamFile
{
    version     2.0;
    format      ascii;
    class       volScalarField;
    location    "1.5";
    object      omega;
}
// * * * * * * * * * * * * * * * * * * * * * * * * * * * * * * * * * * * * * //

dimensions      [0 0 -1 0 0 0 0];

internalField   nonuniform List<scalar> 
119952
(
149.556
175.5209
170.0177
157.584
147.2354
149.8534
153.5206
157.4096
161.3244
165.2301
169.1354
173.0691
177.069
181.1712
185.407
189.8074
194.4085
199.2643
204.5006
210.7831
183.885
183.278
185.2853
161.978
159.7465
158.4914
157.2513
155.9386
152.1387
171.5293
284.5046
219.0687
189.6108
172.9943
160.4245
149.5528
139.8605
131.2778
123.6829
114.9164
82.73871
66.15089
57.7439
53.25359
50.54172
48.60003
46.99535
45.55346
44.19614
34.0537
31.55264
29.51615
27.95849
26.80154
25.93849
25.27522
24.74319
24.29618
23.89409
23.366
22.69193
21.98912
21.34729
20.80444
20.35987
19.99404
19.6803
19.3988
19.7179
19.75078
19.47522
19.10345
18.75048
18.45079
18.20626
18.01974
17.88771
17.80165
17.75228
17.7327
17.73544
17.75382
17.78274
17.81797
17.85526
17.88899
17.91161
17.91306
17.89142
17.86516
17.8099
17.73291
17.69527
17.68852
17.7291
17.93371
18.75541
20.2862
20.62331
20.69486
20.68192
20.63472
20.57483
20.51509
20.46292
20.42208
20.39384
20.37803
20.3736
20.37917
20.39328
20.41455
20.44173
20.47376
20.50975
20.54895
20.59075
20.63466
20.68025
20.72723
20.77543
20.8245
20.87439
20.92503
20.97636
21.02838
21.08108
21.13451
21.18869
21.24365
21.29945
21.35614
21.41375
21.47233
21.53186
21.5925
21.65485
21.71862
21.78358
21.84985
21.91755
21.98674
22.05747
22.12969
22.20301
22.27507
22.34687
22.81215
23.43253
23.95227
24.35358
24.65579
24.88399
25.05976
25.19936
25.31446
25.41321
25.5013
25.58259
25.6598
25.73484
25.80903
25.88328
25.95823
26.03433
26.11188
26.19109
26.2721
26.35498
26.4398
26.52657
26.61518
26.70534
26.79804
26.89374
26.99109
27.09026
27.1915
27.29492
27.40059
27.50859
27.61902
27.73195
27.84749
27.96577
28.08693
28.21113
28.33856
28.46945
28.60401
28.74249
28.88511
29.03218
29.1839
29.34012
29.49607
29.6669
36.00893
43.1127
45.84908
47.06078
47.66717
48.01498
48.25322
48.45161
48.64374
48.84555
49.06453
49.30273
49.56082
49.83805
50.13341
50.44624
50.77587
51.11638
51.47064
51.84208
52.229
52.62738
53.03752
53.45989
53.8947
54.34196
54.80208
55.27463
55.75974
56.25724
56.76651
57.28398
57.8053
58.32197
58.752
58.31451
57.16481
56.36475
55.75933
55.25779
54.80911
54.38649
53.97635
53.57238
53.17174
52.77392
52.37954
51.98828
51.6008
51.21762
50.83917
50.46579
50.09775
49.73524
49.3784
49.02731
48.68199
48.34244
48.00859
47.68036
47.35747
47.03996
46.72814
46.42125
46.11924
45.82204
45.52951
45.24159
44.95768
44.67059
36.42413
34.71196
33.09096
31.6732
30.50531
29.58607
28.88657
28.36528
27.9798
27.69305
27.47575
27.30624
27.16911
27.05367
26.95261
26.86097
26.77538
26.69361
26.61415
26.53602
26.45859
26.38149
26.3045
26.22752
26.15053
26.07358
25.99673
25.92005
25.84359
25.76744
25.69168
25.61637
25.54159
25.46737
25.39377
25.32084
25.2486
25.1771
25.10637
25.03644
24.96738
24.89934
24.83256
24.76766
24.70616
24.65142
24.6031
24.55716
24.51285
24.46975
24.42765
24.38641
24.34568
24.30539
24.25097
24.05947
23.75096
23.38122
23.00431
22.65874
22.36488
22.12831
21.94504
21.80645
21.70274
21.62489
21.56549
21.51881
21.48067
21.44809
21.419
21.39201
21.36618
21.34089
21.31577
21.29058
21.26519
21.23952
21.21356
21.18732
21.16083
21.13413
21.10726
21.08027
21.05321
21.02611
20.99903
20.972
20.94505
20.91822
20.89153
20.86501
20.83868
20.81256
20.78665
20.76097
20.73552
20.7103
20.68531
20.66052
20.63594
20.61153
20.58727
20.56314
20.53911
20.51515
20.49123
20.46731
20.44338
20.4194
20.39536
20.37124
20.34703
20.32271
20.29829
20.27376
20.24912
20.22439
20.19955
20.17463
20.14961
20.12451
20.09931
20.07401
20.04858
20.02299
19.99719
19.97109
19.94457
19.91744
19.88935
19.85977
19.82775
19.79149
19.74705
19.68524
19.58573
19.41638
19.68812
257.0122
208.6808
183.479
167.4652
155.1702
144.7238
135.5435
127.4299
119.8956
98.07209
75.10065
62.8094
56.09647
52.26154
49.81252
47.9952
46.46289
45.07078
35.71898
33.1375
30.86536
29.03009
27.63052
26.58893
25.8081
25.20359
24.71428
24.29534
23.86316
23.25121
22.53952
21.84365
21.23548
20.73586
20.33371
20.00661
19.73223
19.74814
19.66264
19.31745
18.88337
18.45079
18.06075
17.72482
17.43997
17.19767
16.98768
16.7851
16.55568
16.2967
16.02553
15.76269
15.52215
15.30966
15.12527
14.97679
13.50444
13.34759
13.20095
13.05637
12.91431
12.77775
12.64939
12.53082
12.4224
12.32299
12.22819
12.13318
12.03568
11.93621
11.83686
11.74012
11.64816
11.56334
11.49207
11.44508
11.41
11.37592
11.34047
11.30411
11.26683
11.22903
11.19195
11.15701
11.12539
11.09785
11.07471
11.05599
11.04146
11.03068
11.02303
11.01772
11.01368
11.0096
11.00425
10.99766
10.98964
10.97974
10.97164
10.96994
10.9774
11.00325
11.06079
11.16151
11.27007
11.35908
11.42976
11.48423
11.52443
11.5537
11.57468
11.58951
11.59994
11.60739
11.61297
11.6175
11.6216
11.62574
11.6302
11.63518
11.64079
11.64707
11.65403
11.6616
11.66974
11.67835
11.68735
11.69665
11.70613
11.71575
11.72545
11.73519
11.74494
11.7547
11.76447
11.77427
11.78411
11.79403
11.80405
11.81421
11.82454
11.83508
11.84589
11.85696
11.86828
11.87982
11.89155
11.90346
11.91555
11.92778
11.94008
11.95233
11.96442
11.97785
11.99892
12.03031
12.07083
12.11732
12.16653
12.21583
12.26343
12.30827
12.34981
12.3879
12.42264
12.45425
12.48303
12.50931
12.53341
12.55564
12.57628
12.59558
12.61377
12.63105
12.64757
12.66347
12.67888
12.69388
12.70855
12.72299
12.73729
12.7515
12.76564
12.77973
12.79379
12.80786
12.82196
12.8361
12.85031
12.86461
12.879
12.89351
12.90815
12.92293
12.93788
12.95301
12.96836
12.98393
12.99974
13.01579
13.03202
13.0482
13.06334
13.06899
13.82755
14.3757
14.64668
14.81802
14.94862
15.05694
15.14887
15.2269
15.29284
15.34841
15.39535
15.43525
15.46955
15.49949
15.52609
15.55021
15.57246
15.59335
15.61331
15.63274
15.65191
15.67095
15.68997
15.70903
15.72819
15.74745
15.7668
15.78619
15.80551
15.8246
15.84314
15.86053
15.87563
15.88577
15.88458
15.86247
15.82699
15.78444
15.73874
15.69282
15.64852
15.60681
15.56806
15.53223
15.49909
15.46831
15.43954
15.41246
15.3868
15.36233
15.33885
15.31621
15.29429
15.273
15.25226
15.23201
15.2122
15.19278
15.17373
15.15499
15.13655
15.11838
15.10045
15.08275
15.06526
15.04796
15.03085
15.01394
14.99732
14.98508
13.62924
13.56166
13.50745
13.45368
13.39542
13.33206
13.2651
13.19678
13.12937
13.0647
13.00408
12.94824
12.89748
12.85177
12.81086
12.77435
12.74179
12.71271
12.68666
12.6632
12.64194
12.62255
12.60472
12.5882
12.57277
12.55825
12.54448
12.53135
12.51874
12.50658
12.49481
12.48336
12.47222
12.46133
12.45069
12.44028
12.4301
12.42013
12.41038
12.40086
12.39159
12.38262
12.37402
12.3659
12.35843
12.35171
12.34559
12.33983
12.33432
12.32896
12.32371
12.31854
12.31349
12.30871
12.30353
12.29562
12.28284
12.26382
12.23837
12.20729
12.17206
12.13444
12.09612
12.0585
12.02264
11.98924
11.95864
11.93097
11.90615
11.88401
11.86429
11.84674
11.83107
11.81703
11.80438
11.79292
11.78245
11.77282
11.76391
11.75559
11.74778
11.7404
11.73338
11.72668
11.72026
11.71408
11.70811
11.70234
11.69674
11.69131
11.68603
11.68089
11.67589
11.67101
11.66626
11.66161
11.65707
11.65262
11.64826
11.64397
11.63973
11.63555
11.63139
11.62725
11.6231
11.61894
11.61475
11.61051
11.60622
11.60186
11.59743
11.59291
11.5883
11.5836
11.57879
11.57389
11.56888
11.56378
11.55856
11.55325
11.54782
11.54228
11.53662
11.53082
11.52488
11.51876
11.51243
11.50583
11.49891
11.49153
11.48354
11.47469
11.46457
11.45256
11.43769
11.41863
11.39418
11.36785
11.35265
337.7423
264.2526
239.0208
220.3956
202.9091
186.9996
172.8258
160.3502
149.3546
137.1758
97.1056
76.55833
65.78586
59.64372
55.70978
52.8443
50.52694
48.52148
46.70222
36.07097
33.63659
31.52452
29.772
28.35958
27.23943
26.35326
25.64525
25.06819
24.58493
24.07458
23.46036
22.78838
22.12463
21.5212
21.00402
20.57519
20.22241
19.92176
20.03885
19.83903
19.47397
19.04486
18.61637
18.22423
17.88223
17.59049
17.3424
17.12569
16.90855
16.66639
16.39999
16.12576
15.86236
15.62269
15.41219
15.23557
13.70678
13.5501
13.4071
13.26395
13.11898
12.97552
12.83779
12.70892
12.59053
12.48256
12.38231
12.2841
12.1836
12.0797
11.97401
11.86941
11.76871
11.67397
11.58694
11.51298
11.44814
11.38425
11.31717
11.24625
11.17229
11.09741
11.02379
10.953
10.88585
10.82173
10.75885
10.69542
10.63063
10.56478
10.49892
10.43433
10.37223
10.31315
10.30505
10.27878
10.24146
10.19686
10.14749
10.0954
10.04227
9.989475
9.937983
9.8883
9.840211
9.793026
9.746065
9.698986
9.651866
9.605123
9.559462
9.515987
9.476609
9.443527
9.415594
9.391257
9.369655
9.350089
9.331675
9.313763
9.296126
9.278841
9.262142
9.246304
9.23162
9.218307
9.206472
9.196118
9.187145
9.17934
9.17238
9.165857
9.159423
9.153042
9.146681
9.140582
9.13606
9.134666
9.137789
9.147996
9.171424
9.207514
9.245688
9.28101
9.312678
9.340969
9.366678
9.389332
9.408899
9.425582
9.439698
9.451618
9.461724
9.470374
9.4779
9.484587
9.490679
9.496374
9.501827
9.507154
9.512433
9.517713
9.523017
9.528349
9.533701
9.53906
9.544371
9.549632
9.554827
9.559945
9.564979
9.569935
9.574821
9.579655
9.584459
9.589258
9.594083
9.598963
9.603931
9.609019
9.614255
9.619659
9.625238
9.630995
9.636923
9.642986
9.649132
9.655327
9.661531
9.667701
9.673841
9.680293
9.688016
9.697848
9.710272
9.725289
9.742523
9.761408
9.781336
9.801742
9.822155
9.842205
9.861627
9.880241
9.89794
9.914676
9.930441
9.945256
9.959162
9.972209
9.984477
9.996055
10.00701
10.01742
10.02732
10.03679
10.04586
10.05459
10.06304
10.07124
10.07923
10.08702
10.09464
10.10211
10.10945
10.11668
10.12382
10.13088
10.13788
10.14482
10.15173
10.1586
10.16547
10.17234
10.17922
10.18614
10.19309
10.20007
10.20709
10.21407
10.22097
10.22826
10.24683
10.24623
10.2464
10.252
10.26295
10.27793
10.29554
10.31456
10.33405
10.35332
10.37192
10.38955
10.40607
10.42142
10.43561
10.44868
10.46073
10.47183
10.48211
10.49165
10.50055
10.5089
10.51676
10.52419
10.53123
10.53792
10.54427
10.55027
10.5559
10.56108
10.56568
10.56943
10.57188
10.57223
10.56917
10.56386
10.55641
10.54721
10.53663
10.52507
10.51285
10.50028
10.48762
10.47506
10.46277
10.45084
10.43936
10.42835
10.41785
10.40784
10.39833
10.38928
10.38068
10.3725
10.36472
10.35729
10.35018
10.34338
10.33686
10.33059
10.32455
10.31872
10.31308
10.3076
10.30228
10.2971
10.29207
10.28713
10.28216
10.27555
10.31031
10.3301
10.34001
10.34253
10.33902
10.33043
10.31753
10.30115
10.28214
10.2613
10.23938
10.21704
10.19479
10.17306
10.15215
10.13225
10.1135
10.09595
10.07959
10.06441
10.05034
10.03731
10.02523
10.01402
10.0036
9.993869
9.984764
9.976212
9.968149
9.960521
9.953279
9.946384
9.939802
9.933506
9.927472
9.921685
9.916129
9.910797
9.905683
9.900787
9.896114
9.891678
9.887503
9.883622
9.880075
9.876878
9.87398
9.871313
9.868817
9.866449
9.864175
9.861972
9.859835
9.857781
9.855694
9.853165
9.849686
9.844763
9.838026
9.829297
9.818609
9.806172
9.792324
9.77747
9.762026
9.74638
9.730864
9.715744
9.701218
9.68742
9.67443
9.662284
9.650982
9.640502
9.630804
9.621838
9.613547
9.605876
9.598766
9.592165
9.586023
9.580293
9.574934
9.56991
9.565187
9.560738
9.556537
9.552562
9.548794
9.545217
9.541814
9.538574
9.535483
9.53253
9.529705
9.526997
9.524394
9.521886
9.519462
9.517109
9.514816
9.512569
9.510357
9.508165
9.505982
9.503796
9.501595
9.49937
9.49711
9.494807
9.492456
9.490048
9.487579
9.485044
9.482441
9.479766
9.477016
9.474188
9.471282
9.468292
9.465215
9.462046
9.458776
9.455396
9.451889
9.448236
9.44441
9.440371
9.436067
9.431425
9.426339
9.420663
9.414186
9.406617
9.397578
9.386647
9.373629
9.35949
9.347844
276.9863
207.8079
124.4189
72.0624
62.18449
39.19451
33.7138
30.55739
27.85679
25.74212
24.31723
23.33924
22.94582
22.34668
21.54502
20.79587
20.15907
19.62799
19.18073
18.79683
18.46089
18.16153
17.87661
17.57482
17.25533
16.93246
16.62159
16.33335
16.07287
15.84124
15.6448
14.0708
13.89972
13.74412
13.59306
13.44305
13.29458
13.14985
13.01147
12.88151
12.76091
12.64802
12.53915
12.43081
12.32111
12.21023
12.09987
11.99241
11.89023
11.79661
11.71578
11.64232
11.56975
11.49411
11.41446
11.33214
11.24962
11.16957
11.09309
11.02052
10.95097
10.88264
10.81384
10.74386
10.67307
10.60262
10.53379
10.46678
10.44902
10.41691
10.37598
10.32865
10.27649
10.22101
10.16375
10.10619
10.04957
9.994714
9.941786
9.89018
9.838983
9.787493
9.735484
9.683205
9.631208
9.580174
9.530862
9.48431
9.440528
9.398413
9.356589
9.314169
9.271123
9.227701
9.184333
9.141502
9.099601
9.058764
9.018806
8.979364
8.940108
8.900879
8.86174
8.822944
8.784953
8.74891
8.720316
8.694201
8.668312
8.641664
8.613932
8.585164
8.555616
8.52564
8.495601
8.465799
8.436384
8.407349
8.378606
8.350069
8.321719
8.293648
8.266091
8.23948
8.214491
8.191802
8.171366
8.152998
8.136605
8.121985
8.10873
8.096409
8.084712
8.073461
8.06258
8.052065
8.042013
8.032511
8.023605
8.015311
8.007612
8.000448
7.993714
7.987281
7.981058
7.975072
7.969404
7.964293
7.96037
7.958375
7.958977
7.963007
7.971733
7.985457
8.001619
8.018328
8.035043
8.051328
8.067025
8.081933
8.095901
8.108842
8.120726
8.131576
8.14145
8.150439
8.158645
8.166181
8.173158
8.179678
8.185834
8.191703
8.197343
8.202798
8.208096
8.213249
8.218262
8.223133
8.227849
8.232404
8.236792
8.241011
8.245064
8.248961
8.252716
8.25635
8.259887
8.263357
8.266789
8.270216
8.273666
8.277169
8.280747
8.284415
8.288178
8.292035
8.295977
8.299989
8.304053
8.308155
8.312276
8.316405
8.320546
8.324776
8.329289
8.334335
8.340152
8.346908
8.354667
8.363395
8.372983
8.383276
8.394097
8.40527
8.416627
8.428023
8.439337
8.450472
8.461356
8.471939
8.482188
8.492089
8.501624
8.510778
8.519556
8.527968
8.536032
8.543764
8.551185
8.558319
8.56519
8.571818
8.578222
8.584417
8.590421
8.596248
8.601912
8.607425
8.612799
8.618045
8.623173
8.628193
8.633112
8.637948
8.642719
8.647438
8.652117
8.656766
8.661395
8.666009
8.670606
8.675181
8.67974
8.684457
8.69027
8.69479
8.69862
8.702675
8.70757
8.713579
8.720741
8.728907
8.737845
8.747347
8.757188
8.767165
8.777109
8.786886
8.796398
8.805572
8.814365
8.822752
8.830725
8.838293
8.845459
8.85224
8.85865
8.864708
8.870435
8.875807
8.88084
8.88552
8.889814
8.89368
8.896994
8.899577
8.901019
8.901106
8.900211
8.898214
8.895149
8.891134
8.886303
8.880786
8.874709
8.868198
8.861385
8.854363
8.847204
8.840021
8.832887
8.825861
8.81899
8.812308
8.805839
8.7996
8.793599
8.787853
8.782335
8.777027
8.77194
8.767064
8.762386
8.757894
8.753575
8.749419
8.745428
8.741575
8.737826
8.734214
8.73071
8.727302
8.724048
8.721324
8.723226
8.726702
8.730164
8.732753
8.733988
8.733609
8.731498
8.727662
8.7222
8.71528
8.707116
8.697944
8.688009
8.677543
8.666761
8.655851
8.644973
8.634256
8.6238
8.613678
8.60394
8.594617
8.585722
8.577255
8.569208
8.561565
8.554306
8.547408
8.540848
8.534603
8.528652
8.522976
8.517557
8.51238
8.507434
8.502707
8.498193
8.493885
8.489782
8.485881
8.482185
8.4787
8.475436
8.472403
8.469614
8.467068
8.464742
8.462604
8.460621
8.458765
8.457013
8.455346
8.453752
8.452224
8.450727
8.449155
8.447364
8.445189
8.442464
8.439048
8.434846
8.429816
8.423973
8.417383
8.410147
8.402392
8.394256
8.385876
8.377381
8.368887
8.360489
8.352267
8.344281
8.336576
8.329181
8.322114
8.315382
8.308987
8.302922
8.297179
8.291744
8.286603
8.281742
8.277145
8.272797
8.268684
8.26479
8.261102
8.257607
8.254293
8.251147
8.248159
8.245317
8.24261
8.240029
8.237563
8.235202
8.232935
8.230752
8.228643
8.226596
8.224602
8.22265
8.220731
8.218834
8.216951
8.215073
8.213194
8.211307
8.209405
8.207483
8.205537
8.203561
8.201552
8.199506
8.197418
8.195285
8.193102
8.190866
8.18857
8.186209
8.183775
8.181258
8.178647
8.175927
8.173077
8.170073
8.166881
8.16346
8.159751
8.155681
8.15115
8.146031
8.140164
8.133361
8.125443
8.11635
8.106472
8.09762
310.3386
229.0968
187.4237
106.048
83.08138
46.66842
38.48313
35.48137
31.5409
29.54749
27.53652
25.7648
24.45185
23.11968
21.72009
20.57413
18.05602
17.2518
16.53492
15.89412
15.32297
14.81314
14.36099
13.96618
13.61221
13.28566
12.98255
12.70295
12.44745
12.21613
12.00835
11.823
11.6586
11.51268
11.38199
11.2635
11.15489
11.05459
10.96166
10.87549
10.79563
10.72065
10.69632
10.6599
10.61621
10.56739
10.51453
10.45847
10.40009
10.3404
10.28042
10.22106
10.16284
10.1057
10.04918
9.99273
9.935974
9.87879
9.821704
9.765425
9.710873
9.659095
9.610062
9.562863
9.516337
9.469553
9.42203
9.373715
9.324894
9.276321
9.228623
9.182028
9.136395
9.091388
9.046698
9.002199
8.95801
8.914512
8.872758
8.838192
8.806642
8.775998
8.745131
8.713475
8.680853
8.647336
8.613203
8.578814
8.544515
8.51054
8.476928
8.443564
8.410266
8.37689
8.343384
8.309802
8.276282
8.243024
8.210269
8.178092
8.146288
8.114378
8.082117
8.049872
8.017776
7.985926
7.95443
7.923407
7.892937
7.863028
7.833619
7.804617
7.775942
7.747557
7.719493
7.691881
7.665087
7.640053
7.616599
7.594267
7.572604
7.551271
7.530049
7.508836
7.487618
7.466442
7.44538
7.424497
7.403833
7.383401
7.363207
7.343265
7.323623
7.304382
7.285726
7.267919
7.25122
7.235685
7.221325
7.208187
7.196268
7.185456
7.175578
7.166465
7.157979
7.150012
7.142486
7.135347
7.128556
7.122086
7.115913
7.110014
7.104355
7.098899
7.093608
7.088475
7.083548
7.078925
7.074784
7.071446
7.069284
7.068615
7.06972
7.07286
7.078018
7.084592
7.092003
7.099978
7.108334
7.116926
7.125618
7.134288
7.142837
7.151183
7.159269
7.167058
7.174534
7.1817
7.188573
7.195175
7.201538
7.20769
7.213658
7.219462
7.225115
7.23062
7.235977
7.241178
7.24621
7.25106
7.255717
7.260171
7.264419
7.268461
7.272306
7.275967
7.279465
7.282825
7.286074
7.289244
7.292365
7.295467
7.298577
7.301717
7.3049
7.308136
7.311424
7.314761
7.318139
7.321545
7.324969
7.328402
7.331836
7.335272
7.338732
7.342266
7.34595
7.349876
7.354138
7.358809
7.363938
7.369543
7.37561
7.382105
7.388973
7.39615
7.403565
7.41115
7.418837
7.426566
7.434282
7.441939
7.449499
7.45693
7.464208
7.471317
7.478244
7.484984
7.491532
7.49789
7.504061
7.51005
7.515864
7.521509
7.526993
7.532323
7.537508
7.542556
7.547475
7.552273
7.55696
7.561545
7.566036
7.570445
7.574776
7.579033
7.583222
7.587353
7.591436
7.595477
7.599482
7.603454
7.607392
7.611305
7.615235
7.619305
7.623288
7.627123
7.630899
7.634766
7.638868
7.643311
7.648164
7.6534
7.659016
7.664962
7.671172
7.677575
7.684096
7.690667
7.697228
7.703731
7.710132
7.7164
7.722518
7.728458
7.734181
7.739678
7.744964
7.750008
7.754787
7.759296
7.76349
7.767326
7.77075
7.773678
7.776024
7.77784
7.779003
7.779462
7.779185
7.778194
7.77655
7.774323
7.77158
7.768388
7.764811
7.760917
7.756776
7.75241
7.747895
7.743282
7.738618
7.733942
7.729287
7.724682
7.720147
7.715701
7.711358
7.707117
7.702986
7.698964
7.695055
7.691254
7.687562
7.683974
7.680488
7.677104
7.673828
7.670622
7.667507
7.664475
7.661529
7.65869
7.656087
7.654278
7.653238
7.652735
7.652493
7.652247
7.651767
7.650866
7.649405
7.647295
7.644492
7.640991
7.636824
7.632045
7.626731
7.620967
7.614843
7.60845
7.601874
7.595192
7.588472
7.581771
7.575138
7.568607
7.562208
7.555958
7.549871
7.543953
7.538209
7.532638
7.527239
7.522011
7.516949
7.512053
7.507319
7.502748
7.498337
7.494087
7.489999
7.486076
7.48232
7.478735
7.475328
7.472103
7.469069
7.466229
7.463582
7.461118
7.45882
7.456669
7.454648
7.45274
7.450931
7.449209
7.447566
7.445982
7.444423
7.442838
7.441166
7.439342
7.437295
7.434963
7.432291
7.429242
7.4258
7.421965
7.417755
7.413204
7.408356
7.403261
7.397975
7.392552
7.387043
7.381498
7.375957
7.37046
7.365036
7.359712
7.354509
7.349441
7.344522
7.339759
7.335158
7.330722
7.326451
7.322345
7.318401
7.314616
7.310986
7.307504
7.304166
7.300965
7.297894
7.294947
7.292114
7.28939
7.286766
7.284235
7.281789
7.279419
7.277119
7.27488
7.272695
7.270557
7.26846
7.266398
7.264364
7.262355
7.260366
7.258392
7.256431
7.254478
7.25253
7.250584
7.248635
7.24668
7.244713
7.242731
7.240728
7.238696
7.236631
7.234522
7.232363
7.23014
7.227843
7.225454
7.222956
7.220326
7.217534
7.214546
7.211317
7.207792
7.203902
7.199567
7.19469
7.189171
7.18292
7.175918
7.168389
7.161528
171.9764
133.3714
179.4506
89.37558
72.12883
52.97851
47.04947
41.65569
36.6358
33.46078
30.98572
28.7408
27.07339
26.16652
25.64179
24.43818
24.15586
23.6762
22.94565
22.06892
21.16864
20.24311
19.31693
18.41373
17.54888
16.73863
16.0349
15.36447
14.74003
14.16261
13.63023
13.13924
12.6866
12.27184
11.89328
11.54776
11.23244
10.94524
10.68466
10.44946
10.23861
10.0509
9.885109
9.739658
9.612707
9.502249
9.406228
9.322653
9.249661
9.185583
9.129008
9.079178
9.039579
9.005668
8.97473
8.944991
8.915232
8.884626
8.852688
8.819262
8.784371
8.74792
8.710723
8.673339
8.635936
8.598493
8.560935
8.523412
8.485754
8.448018
8.410425
8.373262
8.336711
8.300757
8.265203
8.229752
8.194111
8.158019
8.121186
8.084148
8.047393
8.011145
7.975469
7.940321
7.905601
7.871233
7.837317
7.803979
7.771549
7.740965
7.712174
7.684789
7.658359
7.632488
7.606879
7.581324
7.555745
7.53014
7.504559
7.479062
7.453686
7.428425
7.403239
7.378073
7.35288
7.327636
7.302342
7.277029
7.251753
7.226558
7.201468
7.176494
7.151706
7.127187
7.102983
7.079112
7.055593
7.032447
7.009691
6.987334
6.965366
6.943765
6.922501
6.901553
6.880914
6.860611
6.840737
6.821483
6.802939
6.785087
6.767842
6.751096
6.734742
6.718695
6.702895
6.687312
6.671933
6.65676
6.6418
6.627061
6.612555
6.598298
6.584321
6.570678
6.55745
6.544749
6.532681
6.52129
6.510603
6.500665
6.491508
6.483114
6.475428
6.468378
6.461882
6.455864
6.450249
6.444972
6.439978
6.43522
6.430659
6.426263
6.422004
6.417859
6.413815
6.409881
6.406099
6.402543
6.399331
6.396634
6.39464
6.393505
6.39333
6.39416
6.395928
6.39842
6.401438
6.404879
6.408687
6.412819
6.417225
6.42186
6.426677
6.431629
6.436675
6.44178
6.446916
6.452062
6.457203
6.462333
6.467445
6.472536
6.477601
6.482634
6.487623
6.492554
6.497409
6.502166
6.506805
6.511302
6.51564
6.519803
6.523782
6.527571
6.531175
6.5346
6.537863
6.540983
6.543983
6.546889
6.549728
6.552524
6.555302
6.558079
6.560869
6.56368
6.566516
6.569373
6.572246
6.575129
6.578013
6.580893
6.583762
6.586623
6.589482
6.592355
6.595268
6.598254
6.601354
6.604608
6.60805
6.61171
6.615602
6.619735
6.624102
6.628691
6.633481
6.638445
6.643555
6.648779
6.654088
6.659453
6.664846
6.670243
6.675623
6.680967
6.68626
6.691487
6.69664
6.701708
6.706688
6.711574
6.716364
6.721056
6.72565
6.730147
6.734547
6.738852
6.743066
6.74719
6.751227
6.755183
6.75906
6.762863
6.766598
6.770269
6.773884
6.777449
6.780971
6.784454
6.787904
6.791323
6.794713
6.798076
6.80142
6.804762
6.808082
6.811358
6.81459
6.817802
6.821029
6.824318
6.827708
6.831229
6.834902
6.838735
6.842729
6.846871
6.851145
6.855527
6.859991
6.864506
6.869043
6.873578
6.878091
6.882578
6.886972
6.891255
6.895429
6.899466
6.903345
6.907046
6.910561
6.913863
6.916918
6.919684
6.922108
6.924152
6.925768
6.92692
6.92759
6.927783
6.927526
6.926856
6.925809
6.924423
6.922734
6.920777
6.918588
6.916197
6.913636
6.910935
6.908125
6.90523
6.902274
6.899276
6.896255
6.893224
6.890196
6.887178
6.884178
6.881202
6.878254
6.875339
6.87246
6.869619
6.86682
6.864066
6.861359
6.858698
6.856086
6.853524
6.851014
6.848564
6.846206
6.844032
6.842096
6.840407
6.838932
6.837611
6.836369
6.835124
6.833795
6.832311
6.830614
6.828657
6.826414
6.82387
6.821027
6.817897
6.814502
6.810871
6.807035
6.80303
6.798888
6.794644
6.790324
6.785957
6.781564
6.777164
6.772773
6.768403
6.764066
6.75977
6.755523
6.751331
6.747202
6.743141
6.739155
6.73525
6.731432
6.727708
6.724084
6.720567
6.717164
6.713882
6.710728
6.707708
6.704829
6.702095
6.699505
6.697058
6.694744
6.692556
6.690482
6.688515
6.686644
6.684862
6.683161
6.681531
6.679955
6.678414
6.676886
6.675342
6.673753
6.672088
6.670316
6.668408
6.666339
6.664092
6.661653
6.659019
6.656191
6.653178
6.649994
6.646655
6.643183
6.639599
6.635926
6.632186
6.628403
6.624595
6.620783
6.616984
6.613213
6.609485
6.605812
6.602202
6.598665
6.595208
6.591834
6.588549
6.585353
6.582249
6.579235
6.57631
6.573473
6.570722
6.568052
6.56546
6.562941
6.560493
6.55811
6.555788
6.553522
6.551309
6.549144
6.547024
6.544945
6.542905
6.540901
6.538931
6.536993
6.535086
6.533207
6.531354
6.529526
6.52772
6.525932
6.524159
6.522396
6.520638
6.518879
6.517114
6.515333
6.51353
6.511696
6.509819
6.507887
6.505887
6.503803
6.501616
6.499303
6.496837
6.494186
6.491312
6.488171
6.484712
6.480881
6.476623
6.471894
6.466689
6.461151
6.456095
79.93316
46.3153
41.7199
38.41166
36.37739
34.31255
32.2608
30.40401
28.83117
27.13495
23.63231
22.90085
22.35701
22.10448
22.14439
22.46896
23.0706
23.79961
24.49195
24.99475
25.21868
25.10012
24.63914
23.86081
22.93758
21.91899
20.84375
19.75521
18.68933
17.6763
16.74145
15.8979
15.134
14.43251
13.78289
13.18069
12.62247
12.10559
11.62885
11.19076
10.78936
10.42253
10.08833
9.785024
9.511144
9.265444
9.046554
8.853139
8.683726
8.536663
8.410122
8.302127
8.210597
8.13341
8.068473
8.013813
7.967732
7.929197
7.896665
7.868525
7.843266
7.819541
7.796181
7.77221
7.746944
7.721196
7.695696
7.670006
7.643813
7.61703
7.589641
7.561655
7.533116
7.504047
7.474507
7.444598
7.414452
7.384196
7.353924
7.323682
7.29347
7.263275
7.233106
7.203034
7.173221
7.14381
7.11491
7.086592
7.058899
7.031846
7.005413
6.979453
6.953928
6.928891
6.904511
6.880946
6.858256
6.836362
6.815136
6.794445
6.774142
6.754128
6.73433
6.714704
6.695224
6.675876
6.656641
6.637498
6.618418
6.599372
6.580335
6.56129
6.542236
6.523185
6.504167
6.485225
6.466414
6.447797
6.429423
6.411325
6.393518
6.376007
6.358797
6.341888
6.325281
6.308972
6.292954
6.277217
6.261751
6.246551
6.231617
6.21697
6.20265
6.188698
6.175135
6.161962
6.149159
6.136698
6.124547
6.112674
6.101056
6.089672
6.078513
6.067571
6.056845
6.046341
6.036069
6.026045
6.016299
6.006872
5.997813
5.989171
5.980972
5.973234
5.965983
5.959237
5.952999
5.947247
5.941948
5.937059
5.932533
5.928321
5.924376
5.920655
5.917119
5.913734
5.910472
5.907308
5.904227
5.901221
5.8983
5.89549
5.892841
5.890421
5.888324
5.886646
5.885462
5.884814
5.884699
5.885064
5.885809
5.886846
5.888129
5.889643
5.891383
5.893346
5.895524
5.897911
5.900494
5.903262
5.906201
5.909297
5.912537
5.915911
5.919407
5.923013
5.926719
5.93051
5.934371
5.938281
5.942218
5.946158
5.950074
5.95394
5.95773
5.961421
5.964994
5.968434
5.971732
5.974885
5.977896
5.980773
5.983529
5.986179
5.988742
5.991238
5.993687
5.996105
5.998508
6.000906
6.003305
6.005709
6.008117
6.010524
6.012926
6.015318
6.017695
6.020055
6.022397
6.024725
6.027046
6.029371
6.031713
6.03409
6.03652
6.039022
6.041613
6.044306
6.047113
6.050039
6.053087
6.056255
6.059536
6.062924
6.066408
6.069976
6.073616
6.077314
6.081059
6.084837
6.088637
6.092448
6.09626
6.100063
6.10385
6.107612
6.111344
6.115041
6.118699
6.122313
6.125881
6.129401
6.132871
6.13629
6.139658
6.142975
6.146243
6.149461
6.152633
6.155761
6.158848
6.161897
6.164912
6.167897
6.170854
6.173785
6.176692
6.179574
6.182432
6.185263
6.18807
6.190848
6.19359
6.196293
6.198955
6.201584
6.204191
6.206791
6.209401
6.212038
6.214716
6.217445
6.220233
6.223084
6.225998
6.228971
6.231997
6.235067
6.238173
6.241305
6.244459
6.247602
6.250726
6.253817
6.25686
6.259838
6.262733
6.265525
6.268194
6.270715
6.273063
6.275208
6.277118
6.278765
6.280123
6.281179
6.28193
6.282386
6.282561
6.282475
6.282146
6.281595
6.28084
6.2799
6.278795
6.27754
6.276153
6.27465
6.273046
6.271352
6.269582
6.267746
6.265851
6.263907
6.26192
6.259895
6.25784
6.255759
6.253658
6.251541
6.249415
6.247285
6.245156
6.243032
6.24092
6.238822
6.236742
6.234685
6.232654
6.230659
6.228717
6.226849
6.225069
6.223384
6.221791
6.220277
6.218821
6.217398
6.215977
6.214528
6.213025
6.211443
6.209762
6.207967
6.206051
6.204007
6.201838
6.199548
6.197141
6.194628
6.192018
6.18932
6.186544
6.183698
6.180793
6.177835
6.174832
6.171791
6.168721
6.165627
6.162518
6.159401
6.156285
6.153176
6.150085
6.14702
6.143989
6.141002
6.138068
6.135195
6.132392
6.129667
6.127027
6.124479
6.122028
6.119676
6.117425
6.115273
6.113216
6.111252
6.109375
6.107581
6.105866
6.104226
6.102654
6.101143
6.099685
6.098269
6.096885
6.095519
6.094158
6.092786
6.091386
6.089944
6.088443
6.08687
6.085213
6.083464
6.081615
6.079664
6.077611
6.075457
6.073208
6.07087
6.068452
6.065963
6.063413
6.060814
6.058176
6.055511
6.052828
6.050139
6.047453
6.044778
6.042121
6.039491
6.036892
6.034329
6.031805
6.029324
6.026888
6.024497
6.022152
6.019852
6.017598
6.015388
6.013221
6.011096
6.009011
6.006965
6.004957
6.002986
6.001051
5.999152
5.997288
5.995459
5.993665
5.991907
5.990185
5.988498
5.986845
5.985226
5.983639
5.98208
5.980548
5.979038
5.977545
5.976065
5.974591
5.973116
5.971632
5.970133
5.968607
5.967046
5.965437
5.963767
5.962022
5.960185
5.958236
5.956153
5.953912
5.951483
5.948837
5.945942
5.942767
5.939291
5.935512
5.931527
5.927897
98.80272
33.16504
25.58349
23.57922
22.39619
21.63296
21.1418
20.8383
20.67566
20.6437
20.74397
20.85617
21.15594
21.70037
22.50803
23.57959
24.76121
25.89688
26.82006
27.39146
27.49888
27.14976
26.45229
25.50835
24.40243
23.20611
21.97
20.73261
19.52127
18.35997
17.27786
16.3036
15.43481
14.64371
13.91273
13.23443
12.60456
12.02033
11.4796
10.98024
10.5201
10.09706
9.709231
9.354964
9.032874
8.74173
8.48037
8.247607
8.042129
7.862455
7.706904
7.573598
7.460489
7.365406
7.28611
7.220374
7.166057
7.121205
7.083974
7.052625
7.025539
7.001242
6.978381
6.956575
6.936435
6.917064
6.897874
6.878445
6.85852
6.837969
6.816749
6.794862
6.772341
6.749235
6.725607
6.701535
6.677111
6.652435
6.627607
6.602721
6.577866
6.55312
6.528562
6.504274
6.480334
6.456808
6.433752
6.411204
6.389192
6.367726
6.346805
6.326418
6.306566
6.287258
6.268533
6.25035
6.232643
6.215379