/*--------------------------------*- C++ -*----------------------------------*\
| =========                 |                                                 |
| \\      /  F ield         | foam-extend: Open Source CFD                    |
|  \\    /   O peration     | Version:     3.1                                |
|   \\  /    A nd           | Web:         http://www.extend-project.de       |
|    \\/     M anipulation  |                                                 |
\*---------------------------------------------------------------------------*/
FoamFile
{
    version     2.0;
    format      ascii;
    class       volScalarField;
    location    "1.5";
    object      p;
}
// * * * * * * * * * * * * * * * * * * * * * * * * * * * * * * * * * * * * * //

dimensions      [1 -1 -2 0 0 0 0];

internalField   nonuniform List<scalar> 
119952
(
6822.242
6776.698
6768.099
6782.224
6799.613
6797.622
6800.303
6803.426
6806.943
6810.713
6814.657
6818.727
6822.879
6827.09
6831.336
6835.582
6839.769
6843.741
6846.92
6846.282
6874.255
6866.673
6866.443
6899.74
6899.109
6905.962
6912.241
6923.776
6955.073
7293.284
6375.67
6378.452
6382.456
6386.651
6391.122
6395.807
6400.67
6405.715
6410.9
6414.583
6402.463
6405.236
6407.876
6410.541
6413.407
6416.455
6419.66
6423.007
6426.538
6401.282
6404.133
6407.77
6411.655
6415.729
6419.925
6424.243
6428.679
6433.248
6438.146
6442.538
6447.45
6452.389
6457.425
6462.552
6467.755
6473.006
6478.426
6485.484
6498.238
6497.156
6501.877
6509.229
6515.905
6520.326
6524.453
6528.743
6533.162
6537.715
6542.387
6547.111
6551.923
6556.79
6561.686
6566.584
6571.447
6576.223
6580.803
6585.388
6591.47
6596.775
6601.196
6610.16
6620.889
6627.347
6634.53
6641.88
6646.145
6637.365
6640.156
6646.244
6652.14
6657.889
6663.45
6668.878
6674.2
6679.434
6684.583
6689.653
6694.685
6699.667
6704.6
6709.483
6714.312
6719.092
6723.823
6728.506
6733.142
6737.73
6742.27
6746.762
6751.206
6755.6
6759.946
6764.243
6768.49
6772.687
6776.836
6780.934
6784.982
6788.98
6792.927
6796.823
6800.668
6804.462
6808.203
6811.896
6815.534
6819.12
6822.653
6826.131
6829.556
6832.924
6836.234
6839.481
6842.654
6845.744
6848.914
6852.054
6855.171
6858.202
6861.187
6864.111
6866.978
6869.792
6872.556
6875.271
6877.938
6880.557
6883.13
6885.657
6888.139
6890.576
6892.969
6895.318
6897.623
6899.889
6902.114
6904.299
6906.444
6908.55
6910.617
6912.645
6914.632
6916.598
6918.511
6920.389
6922.233
6924.042
6925.816
6927.556
6929.261
6930.934
6932.573
6934.179
6935.753
6937.296
6938.806
6940.286
6941.734
6943.151
6944.535
6945.886
6947.201
6948.474
6949.69
6950.832
6952.205
6984.788
6985.239
6986.553
6987.798
6988.983
6990.125
6991.232
6992.309
6993.359
6994.383
6995.382
6996.357
6997.309
6998.238
6999.144
7000.026
7000.886
7001.711
7002.51
7003.317
7004.084
7004.825
7005.537
7006.222
7006.877
7007.498
7008.083
7008.624
7009.116
7009.546
7009.894
7010.124
7010.205
7009.915
7008.858
7006.755
7009.498
7011.461
7013.047
7014.403
7015.62
7016.743
7017.789
7018.773
7019.706
7020.594
7021.442
7022.256
7023.039
7023.793
7024.52
7025.223
7025.903
7026.561
7027.198
7027.815
7028.414
7028.994
7029.556
7030.101
7030.63
7031.143
7031.641
7032.124
7032.594
7033.052
7033.5
7033.94
7034.333
7034.769
7008.498
7006.257
7005.313
7005.488
7005.607
7005.819
7006.018
7006.246
7006.464
7006.671
7006.864
7007.042
7007.207
7007.359
7007.496
7007.619
7007.728
7007.822
7007.902
7007.968
7008.019
7008.056
7008.078
7008.087
7008.082
7008.063
7008.03
7007.984
7007.925
7007.854
7007.769
7007.673
7007.565
7007.445
7007.315
7007.175
7007.026
7006.87
7006.708
7006.542
7006.378
7006.223
7006.089
7006
7005.977
7005.923
7005.402
7004.828
7004.315
7003.817
7003.335
7002.863
7002.396
7001.862
7000.218
7000.342
7000.005
6999.453
6998.895
6998.33
6997.752
6997.173
6996.585
6995.99
6995.385
6994.772
6994.15
6993.518
6992.877
6992.227
6991.567
6990.899
6990.221
6989.535
6988.84
6988.136
6987.424
6986.704
6985.976
6985.24
6984.497
6983.747
6982.989
6982.225
6981.455
6980.679
6979.896
6979.109
6978.316
6977.517
6976.714
6975.907
6975.096
6974.28
6973.461
6972.639
6971.813
6970.985
6970.154
6969.321
6968.485
6967.648
6966.809
6965.968
6965.125
6964.282
6963.437
6962.591
6961.743
6960.894
6960.044
6959.192
6958.338
6957.482
6956.623
6955.761
6954.895
6954.025
6953.148
6952.264
6951.371
6950.468
6949.551
6948.618
6947.664
6946.685
6945.673
6944.621
6943.514
6942.336
6941.06
6939.647
6938.034
6936.096
6933.63
6930.321
6926.267
6925.635
6942.731
6310.829
6303.733
6296.692
6289.89
6283.393
6277.2
6271.33
6265.769
6260.272
6237.683
6230.26
6222.896
6215.784
6209.022
6202.611
6196.565
6190.912
6185.66
6150.991
6145.94
6141.092
6137.079
6133.386
6130.07
6127.071
6124.365
6122.013
6120.018
6118.106
6116.42
6115.166
6114.114
6113.316
6112.767
6112.464
6112.399
6112.634
6113.115
6113.217
6114.12
6115.18
6116.385
6117.754
6119.309
6121.055
6122.995
6125.13
6127.378
6129.774
6132.312
6135.01
6137.881
6140.911
6144.098
6147.447
6151.015
6093.881
6097.687
6101.596
6105.58
6109.682
6113.912
6118.263
6122.734
6127.325
6132.037
6136.812
6141.653
6146.598
6151.663
6156.848
6162.164
6167.685
6173.48
6179.85
6186.406
6191.229
6196.166
6201.87
6207.552
6212.597
6217.237
6221.826
6226.472
6231.185
6235.964
6240.804
6245.697
6250.632
6255.594
6260.573
6265.557
6270.549
6275.593
6280.815
6286.415
6292.207
6298.211
6305.204
6312.798
6319.357
6325.209
6330.188
6333.509
6334.846
6337.614
6342.259
6347.522
6352.838
6358.12
6363.366
6368.565
6373.71
6378.817
6383.871
6388.875
6393.84
6398.725
6403.592
6408.412
6413.186
6417.913
6422.592
6427.225
6431.81
6436.347
6440.837
6445.277
6449.669
6454.011
6458.304
6462.546
6466.739
6470.881
6474.972
6479.013
6483.002
6486.941
6490.828
6494.664
6498.448
6502.181
6505.863
6509.492
6513.069
6516.593
6520.064
6523.48
6526.842
6530.149
6533.4
6536.6
6539.761
6542.908
6546.021
6549.051
6552.052
6555.015
6557.928
6560.789
6563.599
6566.359
6569.07
6571.733
6574.349
6576.918
6579.441
6581.919
6584.352
6586.74
6589.083
6591.38
6593.642
6595.863
6598.043
6600.183
6602.284
6604.346
6606.369
6608.354
6610.302
6612.213
6614.089
6615.928
6617.732
6619.502
6621.238
6622.939
6624.608
6626.244
6627.847
6629.418
6630.956
6632.464
6633.942
6635.388
6636.803
6638.188
6639.54
6640.859
6642.146
6643.405
6644.639
6645.912
6708.357
6709.378
6710.595
6711.782
6712.939
6714.068
6715.169
6716.244
6717.293
6718.317
6719.316
6720.291
6721.243
6722.171
6723.076
6723.958
6724.816
6725.651
6726.462
6727.251
6728.014
6728.75
6729.459
6730.14
6730.79
6731.406
6731.985
6732.521
6733.007
6733.431
6733.778
6734.022
6734.129
6734.056
6733.842
6733.873
6734.974
6736.399
6737.722
6738.95
6740.087
6741.151
6742.154
6743.103
6744.008
6744.872
6745.702
6746.501
6747.27
6748.013
6748.732
6749.427
6750.1
6750.752
6751.384
6751.997
6752.591
6753.167
6753.726
6754.268
6754.794
6755.304
6755.799
6756.279
6756.746
6757.202
6757.647
6758.087
6758.537
6759.06
6698.391
6698.742
6698.727
6698.803
6699.016
6699.262
6699.494
6699.713
6699.922
6700.12
6700.307
6700.479
6700.638
6700.784
6700.915
6701.033
6701.137
6701.227
6701.303
6701.365
6701.414
6701.448
6701.469
6701.475
6701.469
6701.448
6701.414
6701.367
6701.307
6701.234
6701.149
6701.051
6700.942
6700.821
6700.69
6700.549
6700.399
6700.241
6700.076
6699.907
6699.736
6699.567
6699.401
6699.234
6699.044
6698.782
6698.396
6697.944
6697.481
6697.02
6696.561
6696.105
6695.666
6695.208
6694.59
6693.951
6693.375
6692.803
6692.227
6691.651
6691.073
6690.49
6689.899
6689.299
6688.69
6688.072
6687.444
6686.806
6686.16
6685.504
6684.839
6684.165
6683.483
6682.792
6682.092
6681.384
6680.668
6679.945
6679.213
6678.474
6677.727
6676.974
6676.214
6675.447
6674.674
6673.895
6673.11
6672.32
6671.524
6670.724
6669.919
6669.11
6668.296
6667.479
6666.658
6665.834
6665.006
6664.176
6663.343
6662.508
6661.671
6660.831
6659.99
6659.148
6658.304
6657.458
6656.611
6655.763
6654.914
6654.063
6653.211
6652.357
6651.502
6650.644
6649.783
6648.92
6648.052
6647.179
6646.3
6645.414
6644.518
6643.612
6642.692
6641.756
6640.799
6639.817
6638.803
6637.75
6636.647
6635.481
6634.234
6632.885
6631.406
6629.78
6628.051
6626.412
6625.559
6625.887
6628.265
6480.606
6475.97
6470.255
6464.375
6458.064
6451.459
6444.575
6437.464
6430.068
6421.318
6395.411
6384.891
6373.892
6362.878
6351.867
6340.861
6329.843
6318.794
6307.725
6266.235
6253.981
6242.395
6230.957
6219.499
6207.992
6196.429
6184.822
6173.242
6161.853
6149.568
6137.959
6126.316
6114.707
6103.17
6091.736
6080.434
6069.328
6058.6
6047.414
6036.67
6026.495
6016.488
6006.727
5997.251
5988.092
5979.267
5970.797
5962.666
5954.84
5947.323
5940.154
5933.376
5926.969
5920.929
5915.255
5909.952
5842.539
5837.891
5833.585
5829.677
5826.111
5822.856
5819.912
5817.277
5814.95
5812.918
5811.172
5809.625
5808.331
5807.307
5806.544
5806.031
5805.762
5805.731
5805.935
5806.349
5806.895
5807.665
5808.668
5809.874
5811.269
5812.852
5814.622
5816.573
5818.702
5820.978
5823.396
5825.975
5828.716
5831.616
5834.67
5837.875
5841.221
5844.715
5848.279
5851.991
5855.838
5859.814
5863.918
5868.147
5872.493
5876.953
5881.525
5886.205
5890.967
5895.821
5900.784
5905.864
5911.065
5916.402
5921.907
5927.579
5933.394
5939.219
5944.46
5949.614
5955.04
5960.437
5965.509
5970.346
5975.135
5979.946
5984.793
5989.679
5994.606
5999.574
6004.579
6009.615
6014.68
6019.778
6024.927
6030.163
6035.551
6041.184
6047.025
6053.051
6059.448
6065.915
6071.885
6077.264
6081.962
6085.823
6088.877
6092.664
6097.373
6102.452
6107.596
6112.754
6117.914
6123.055
6128.164
6133.239
6138.272
6143.261
6148.207
6153.101
6157.957
6162.77
6167.539
6172.263
6176.942
6181.576
6186.163
6190.703
6195.196
6199.64
6204.036
6208.383
6212.68
6216.927
6221.124
6225.271
6229.366
6233.411
6237.404
6241.346
6245.237
6249.076
6252.864
6256.599
6260.284
6263.916
6267.496
6271.024
6274.499
6277.921
6281.289
6284.606
6287.871
6291.088
6294.261
6297.402
6300.505
6303.55
6306.547
6309.501
6312.405
6315.26
6318.066
6320.823
6323.533
6326.195
6328.811
6331.381
6333.905
6336.384
6338.818
6341.207
6343.55
6345.833
6348.106
6350.336
6352.522
6354.666
6356.77
6358.835
6360.861
6362.848
6364.798
6366.711
6368.588
6370.429
6372.235
6374.006
6375.743
6377.447
6379.117
6380.754
6382.358
6383.929
6385.467
6386.977
6388.456
6389.905
6391.323
6392.71
6394.068
6395.396
6396.696
6397.973
6399.231
6400.484
6401.785
6403.019
6404.207
6405.372
6406.514
6407.63
6408.72
6409.785
6410.827
6411.843
6412.837
6413.806
6414.753
6415.676
6416.576
6417.453
6418.307
6419.139
6419.946
6420.729
6421.487
6422.219
6422.925
6423.602
6424.248
6424.863
6425.441
6425.98
6426.474
6426.918
6427.305
6427.631
6427.903
6428.14
6428.423
6428.947
6429.802
6430.863
6431.961
6433.031
6434.06
6435.045
6435.989
6436.895
6437.764
6438.601
6439.409
6440.188
6440.942
6441.671
6442.378
6443.063
6443.727
6444.371
6444.996
6445.602
6446.19
6446.761
6447.315
6447.851
6448.372
6448.877
6449.367
6449.842
6450.304
6450.752
6451.187
6451.612
6452.021
6452.425
6452.725
6452.866
6453.078
6453.372
6453.679
6453.963
6454.219
6454.456
6454.677
6454.883
6455.074
6455.25
6455.411
6455.557
6455.689
6455.806
6455.91
6455.999
6456.074
6456.136
6456.184
6456.217
6456.238
6456.244
6456.237
6456.216
6456.183
6456.136
6456.075
6456.003
6455.917
6455.82
6455.71
6455.589
6455.457
6455.315
6455.163
6455.002
6454.834
6454.658
6454.475
6454.287
6454.089
6453.875
6453.633
6453.341
6452.978
6452.561
6452.124
6451.681
6451.232
6450.776
6450.313
6449.836
6449.334
6448.762
6448.164
6447.569
6446.982
6446.401
6445.82
6445.236
6444.645
6444.046
6443.438
6442.82
6442.193
6441.556
6440.909
6440.253
6439.587
6438.913
6438.229
6437.537
6436.837
6436.127
6435.41
6434.685
6433.952
6433.212
6432.465
6431.71
6430.949
6430.181
6429.407
6428.627
6427.841
6427.049
6426.253
6425.451
6424.645
6423.835
6423.02
6422.202
6421.38
6420.554
6419.726
6418.894
6418.06
6417.224
6416.385
6415.545
6414.702
6413.858
6413.013
6412.166
6411.318
6410.469
6409.618
6408.766
6407.913
6407.059
6406.202
6405.344
6404.483
6403.619
6402.751
6401.878
6401
6400.115
6399.221
6398.317
6397.401
6396.469
6395.518
6394.546
6393.545
6392.512
6391.44
6390.32
6389.146
6387.915
6386.631
6385.323
6384.071
6383.013
6382.408
6382.473
6383.174
6148.865
6189.353
6212.632
6219.365
6230.361
6208.008
6213.544
6217.308
6220.913
6223.229
6220.15
6214.725
6207.219
6199.433
6191.529
6182.914
6173.861
6164.488
6154.881
6145.09
6135.178
6125.214
6115.058
6104.748
6094.328
6083.858
6073.347
6062.786
6052.174
6041.526
6030.864
5955.719
5944.763
5933.672
5922.476
5911.195
5899.824
5888.37
5876.85
5865.282
5853.691
5842.016
5830.287
5818.585
5806.947
5795.387
5783.931
5772.613
5761.46
5750.491
5739.649
5728.967
5718.573
5708.474
5698.665
5689.166
5680.011
5671.174
5662.675
5654.518
5646.679
5639.191
5632.072
5625.327
5618.955
5612.954
5607.323
5602.103
5597.348
5592.712
5588.377
5584.436
5580.843
5577.565
5574.598
5571.936
5569.573
5567.498
5565.695
5564.137
5562.84
5561.807
5561.03
5560.501
5560.211
5560.154
5560.321
5560.698
5561.253
5562.021
5563.007
5564.196
5565.576
5567.144
5568.895
5570.826
5572.928
5575.19
5577.607
5580.184
5582.92
5585.813
5588.859
5592.053
5595.387
5598.861
5602.452
5606.168
5610.022
5614.007
5618.116
5622.344
5626.689
5631.147
5635.713
5640.384
5645.151
5650.016
5654.987
5660.065
5665.256
5670.561
5675.987
5681.523
5687.115
5692.69
5698.034
5703.309
5708.65
5713.945
5719.074
5724.071
5729.02
5733.966
5738.926
5743.909
5748.921
5753.965
5759.041
5764.148
5769.29
5774.473
5779.713
5785.036
5790.48
5796.085
5801.832
5807.709
5813.737
5819.705
5825.4
5830.705
5835.566
5839.936
5843.89
5848.099
5852.771
5857.704
5862.737
5867.813
5872.908
5877.999
5883.072
5888.117
5893.129
5898.103
5903.037
5907.929
5912.779
5917.588
5922.354
5927.076
5931.754
5936.387
5940.973
5945.513
5950.006
5954.45
5958.847
5963.194
5967.492
5971.74
5975.938
5980.085
5984.182
5988.227
5992.221
5996.164
6000.056
6003.895
6007.684
6011.42
6015.105
6018.737
6022.318
6025.846
6029.322
6032.745
6036.117
6039.437
6042.707
6045.929
6049.107
6052.244
6055.338
6058.38
6061.373
6064.321
6067.221
6070.072
6072.874
6075.629
6078.336
6080.996
6083.61
6086.178
6088.701
6091.179
6093.613
6096.004
6098.355
6100.682
6102.933
6105.146
6107.32
6109.456
6111.553
6113.612
6115.632
6117.615
6119.561
6121.47
6123.343
6125.18
6126.982
6128.75
6130.484
6132.183
6133.85
6135.484
6137.085
6138.653
6140.18
6141.694
6143.175
6144.625
6146.044
6147.433
6148.794
6150.127
6151.434
6152.717
6153.982
6155.232
6156.475
6157.679
6158.859
6160.02
6161.158
6162.27
6163.357
6164.419
6165.457
6166.472
6167.464
6168.433
6169.378
6170.301
6171.2
6172.077
6172.932
6173.764
6174.573
6175.357
6176.117
6176.851
6177.56
6178.241
6178.893
6179.516
6180.106
6180.661
6181.178
6181.656
6182.094
6182.496
6182.901
6183.312
6183.793
6184.412
6185.217
6186.156
6187.139
6188.116
6189.073
6190.004
6190.907
6191.781
6192.626
6193.444
6194.236
6195.004
6195.748
6196.47
6197.171
6197.851
6198.511
6199.152
6199.774
6200.378
6200.965
6201.534
6202.087
6202.622
6203.142
6203.646
6204.135
6204.608
6205.066
6205.51
6205.938
6206.35
6206.738
6207.102
6207.408
6207.663
6207.934
6208.219
6208.499
6208.764
6209.013
6209.247
6209.467
6209.673
6209.864
6210.04
6210.201
6210.348
6210.481
6210.599
6210.703
6210.793
6210.868
6210.93
6210.977
6211.011
6211.031
6211.038
6211.03
6211.009
6210.975
6210.928
6210.867
6210.794
6210.708
6210.61
6210.499
6210.377
6210.243
6210.099
6209.944
6209.778
6209.603
6209.419
6209.224
6209.018
6208.798
6208.558
6208.29
6207.983
6207.628
6207.234
6206.817
6206.386
6205.944
6205.489
6205.023
6204.545
6204.041
6203.488
6202.911
6202.332
6201.757
6201.181
6200.602
6200.017
6199.426
6198.826
6198.217
6197.599
6196.972
6196.334
6195.687
6195.031
6194.365
6193.69
6193.006
6192.314
6191.612
6190.903
6190.185
6189.459
6188.725
6187.984
6187.236
6186.48
6185.718
6184.949
6184.174
6183.393
6182.606
6181.814
6181.016
6180.214
6179.406
6178.595
6177.779
6176.96
6176.137
6175.31
6174.481
6173.648
6172.813
6171.976
6171.137
6170.295
6169.452
6168.608
6167.762
6166.915
6166.066
6165.217
6164.367
6163.515
6162.662
6161.808
6160.953
6160.096
6159.236
6158.374
6157.509
6156.64
6155.766
6154.886
6153.999
6153.103
6152.197
6151.278
6150.344
6149.392
6148.419
6147.422
6146.398
6145.344
6144.261
6143.155
6142.042
6140.953
6139.95
6139.118
6138.577
6138.418
6138.477
5130.204
5195.283
5274.715
5340.652
5426.218
5486.563
5569.843
5644.563
5711.678
5767.562
5814.852
5850.397
5879.648
5903.367
5921.528
5934.905
5882.452
5891.371
5896.725
5899.425
5899.915
5897.73
5893.439
5887.733
5881.158
5873.909
5866.079
5857.79
5849.145
5840.224
5831.084
5821.771
5812.314
5802.697
5792.925
5783.043
5773.067
5762.996
5752.828
5742.558
5732.178
5721.673
5710.965
5700.2
5689.301
5678.299
5667.187
5655.954
5644.605
5633.156
5621.621
5610.024
5598.35
5586.638
5574.941
5563.287
5551.692
5540.145
5528.721
5517.45
5506.349
5495.411
5484.673
5474.201
5464.01
5454.108
5444.51
5435.3
5426.321
5417.688
5409.41
5401.482
5393.915
5386.721
5379.907
5373.473
5367.415
5361.73
5356.422
5351.478
5346.797
5342.465
5338.505
5334.889
5331.594
5328.613
5325.938
5323.561
5321.47
5319.655
5318.103
5316.814
5315.784
5315.008
5314.477
5314.185
5314.124
5314.284
5314.655
5315.228
5316.01
5316.999
5318.189
5319.573
5321.144
5322.898
5324.83
5326.933
5329.201
5331.629
5334.216
5336.961
5339.861
5342.913
5346.111
5349.451
5352.928
5356.533
5360.268
5364.134
5368.127
5372.242
5376.475
5380.824
5385.285
5389.853
5394.525
5399.297
5404.167
5409.136
5414.205
5419.373
5424.639
5429.997
5435.433
5440.912
5446.387
5451.763
5457.083
5462.402
5467.685
5472.879
5477.989
5483.057
5488.111
5493.168
5498.239
5503.331
5508.447
5513.592
5518.766
5523.975
5529.224
5534.525
5539.895
5545.353
5550.915
5556.571
5562.301
5568.086
5573.818
5579.37
5584.651
5589.626
5594.297
5598.751
5603.276
5608.015
5612.92
5617.913
5622.949
5628.006
5633.065
5638.112
5643.137
5648.133
5653.096
5658.023
5662.911
5667.759
5672.566
5677.331
5682.052
5686.73
5691.363
5695.95
5700.49
5704.983
5709.429
5713.826
5718.174
5722.473
5726.721
5730.92
5735.068
5739.166
5743.212
5747.207
5751.15
5755.042
5758.883
5762.671
5766.408
5770.092
5773.725
5777.306
5780.834
5784.31
5787.734
5791.107
5794.429
5797.701
5800.925
5804.102
5807.235
5810.322
5813.36
5816.35
5819.293
5822.187
5825.034
5827.832
5830.582
5833.285
5835.941
5838.551
5841.115
5843.633
5846.106
5848.536
5850.923
5853.268
5855.575
5857.832
5860.048
5862.223
5864.359
5866.455
5868.512
5870.531
5872.512
5874.456
5876.363
5878.234
5880.07
5881.87
5883.636
5885.368
5887.066
5888.731
5890.364
5891.965
5893.536
5895.086
5896.587
5898.06
5899.505
5900.921
5902.309
5903.669
5905.002
5906.311
5907.596
5908.859
5910.103
5911.327
5912.528
5913.707
5914.863
5915.996
5917.104
5918.188
5919.248
5920.285
5921.298
5922.288
5923.255
5924.2
5925.121
5926.015
5926.895
5927.752
5928.586
5929.396
5930.182
5930.946
5931.684
5932.398
5933.086
5933.748
5934.381
5934.99
5935.569
5936.119
5936.642
5937.143
5937.63
5938.096
5938.591
5939.148
5939.798
5940.563
5941.416
5942.312
5943.217
5944.117
5945.003
5945.87
5946.715
5947.538
5948.339
5949.117
5949.873
5950.607
5951.321
5952.016
5952.69
5953.346
5953.983
5954.602
5955.203
5955.787
5956.354
5956.905
5957.439
5957.956
5958.458
5958.944
5959.415
5959.87
5960.309
5960.731
5961.135
5961.518
5961.878
5962.207
5962.504
5962.787
5963.064
5963.333
5963.592
5963.838
5964.07
5964.289
5964.494
5964.684
5964.859
5965.021
5965.167
5965.3
5965.418
5965.521
5965.611
5965.686
5965.748
5965.795
5965.828
5965.848
5965.853
5965.845
5965.824
5965.789
5965.741
5965.679
5965.605
5965.517
5965.417
5965.305
5965.181
5965.044
5964.897
5964.737
5964.567
5964.385
5964.192
5963.986
5963.767
5963.531
5963.275
5962.993
5962.68
5962.331
5961.95
5961.546
5961.124
5960.687
5960.235
5959.768
5959.284
5958.777
5958.24
5957.686
5957.124
5956.558
5955.986
5955.408
5954.824
5954.232
5953.631
5953.021
5952.402
5951.774
5951.136
5950.488
5949.831
5949.164
5948.489
5947.804
5947.111
5946.409
5945.698
5944.979
5944.252
5943.518
5942.775
5942.026
5941.269
5940.506
5939.736
5938.96
5938.177
5937.389
5936.595
5935.797
5934.993
5934.184
5933.371
5932.555
5931.734
5930.909
5930.082
5929.251
5928.418
5927.582
5926.743
5925.903
5925.061
5924.217
5923.372
5922.526
5921.679
5920.83
5919.981
5919.131
5918.28
5917.428
5916.575
5915.721
5914.866
5914.01
5913.151
5912.29
5911.426
5910.558
5909.685
5908.807
5907.923
5907.03
5906.128
5905.215
5904.289
5903.349
5902.394
5901.423
5900.437
5899.442
5898.445
5897.463
5896.524
5895.669
5894.95
5894.422
5894.12
5893.929
4882.431
4874.361
4861.862
4837.694
4826.795
4787.507
4784.759
4788.091
4799.501
4821.388
4854.648
4901.72
4962.346
5034.42
5115.263
5156.816
5244.603
5323.649
5393.609
5452.637
5501.027
5538.936
5567.912
5590.007
5606.597
5619.068
5627.074
5635.323
5640.976
5643.74
5644.2
5642.439
5638.83
5633.919
5628.117
5621.624
5614.537
5606.958
5598.979
5590.673
5582.099
5573.299
5564.304
5555.127
5545.782
5536.294
5526.678
5516.938
5507.072
5497.073
5486.933
5476.639
5466.169
5455.537
5444.754
5433.83
5422.76
5411.543
5400.188
5388.708
5377.118
5365.433
5353.661
5341.844
5330.016
5318.206
5306.453
5294.828
5283.307
5271.915
5260.684
5249.634
5238.798
5228.218
5217.916
5207.907
5198.205
5188.76
5179.761
5171.115
5162.822
5154.885
5147.312
5140.114
5133.297
5126.856
5120.788
5115.093
5109.763
5104.787
5100.144
5095.849
5091.906
5088.301
5085.021
5082.056
5079.398
5077.037
5074.964
5073.169
5071.642
5070.377
5069.369
5068.612
5068.1
5067.824
5067.778
5067.953
5068.342
5068.939
5069.741
5070.748
5071.953
5073.35
5074.934
5076.701
5078.645
5080.761
5083.042
5085.486
5088.089
5090.848
5093.762
5096.826
5100.036
5103.387
5106.875
5110.495
5114.244
5118.123
5122.126
5126.25
5130.493
5134.849
5139.316
5143.89
5148.567
5153.342
5158.213
5163.18
5168.24
5173.389
5178.624
5183.935
5189.308
5194.718
5200.133
5205.507
5210.845
5216.168
5221.463
5226.705
5231.895
5237.052
5242.196
5247.339
5252.49
5257.657
5262.844
5268.055
5273.292
5278.561
5283.866
5289.215
5294.618
5300.085
5305.619
5311.213
5316.846
5322.489
5328.082
5333.545
5338.82
5343.887
5348.759
5353.498
5358.239
5363.076
5368.008
5372.999
5378.024
5383.064
5388.106
5393.137
5398.15
5403.137
5408.093
5413.016
5417.901
5422.749
5427.556
5432.321
5437.044
5441.723
5446.358
5450.947
5455.489
5459.985
5464.432
5468.832
5473.182
5477.483
5481.734
5485.935
5490.085
5494.184
5498.232
5502.229
5506.174
5510.067
5513.909
5517.698
5521.436
5525.121
5528.755
5532.336
5535.865
5539.342
5542.768
5546.142
5549.465
5552.738
5555.963
5559.14
5562.27
5565.353
5568.388
5571.374
5574.313
5577.203
5580.046
5582.84
5585.587
5588.287
5590.94
5593.546
5596.106
5598.622
5601.092
5603.519
5605.902
5608.243
5610.543
5612.799
5615.012
5617.185
5619.318
5621.411
5623.465
5625.481
5627.458
5629.399
5631.303
5633.171
5635.003
5636.8
5638.563
5640.291
5641.986
5643.649
5645.279
5646.877
5648.445
5649.983
5651.488
5652.962
5654.407
5655.823
5657.211
5658.571
5659.906
5661.215
5662.5
5663.762
5665.004
5666.224
5667.422
5668.598
5669.75
5670.879
5671.984
5673.065
5674.123
5675.158
5676.171
5677.16
5678.127
5679.072
5679.996
5680.901
5681.777
5682.631
5683.465
5684.276
5685.065
5685.832
5686.576
5687.297
5687.994
5688.667
5689.317
5689.938
5690.537
5691.114
5691.671
5692.213
5692.746
5693.279
5693.836
5694.437
5695.1
5695.836
5696.635
5697.471
5698.323
5699.177
5700.024
5700.859
5701.679
5702.48
5703.263
5704.027
5704.771
5705.495
5706.201
5706.888
5707.557
5708.207
5708.84
5709.455
5710.053
5710.634
5711.199
5711.747
5712.278
5712.794
5713.293
5713.777
5714.245
5714.696
5715.131
5715.549
5715.949
5716.329
5716.687
5717.022
5717.33
5717.621
5717.901
5718.171
5718.431
5718.677
5718.909
5719.128
5719.332
5719.522
5719.697
5719.858
5720.004
5720.136
5720.254
5720.357
5720.446
5720.521
5720.581
5720.628
5720.66
5720.679
5720.684
5720.675
5720.653
5720.617
5720.567
5720.505
5720.429
5720.34
5720.238
5720.124
5719.997
5719.858
5719.706
5719.543
5719.367
5719.179
5718.978
5718.763
5718.533
5718.286
5718.018
5717.727
5717.41
5717.063
5716.69
5716.293
5715.878
5715.445
5714.996
5714.53
5714.047
5713.544
5713.019
5712.479
5711.927
5711.367
5710.799
5710.223
5709.639
5709.047
5708.446
5707.835
5707.215
5706.586
5705.947
5705.299
5704.641
5703.973
5703.297
5702.611
5701.916
5701.213
5700.501
5699.781
5699.053
5698.317
5697.574
5696.823
5696.065
5695.3
5694.528
5693.75
5692.966
5692.177
5691.381
5690.581
5689.776
5688.966
5688.151
5687.332
5686.51
5685.684
5684.855
5684.023
5683.188
5682.351
5681.511
5680.67
5679.827
5678.982
5678.136
5677.289
5676.441
5675.593
5674.743
5673.893
5673.043
5672.192
5671.341
5670.489
5669.636
5668.782
5667.927
5667.07
5666.212
5665.351
5664.487
5663.619
5662.746
5661.868
5660.984
5660.094
5659.195
5658.289
5657.375
5656.455
5655.532
5654.612
5653.704
5652.824
5651.994
5651.24
5650.597
5650.091
5649.739
5649.458
4778.469
4724.715
4692.712
4661.857
4634.714
4612.497
4593.423
4577.181
4563.488
4551.351
4479.499
4473.325
4472.641
4479.39
4496.324
4526.433
4570.818
4632.246
4709.111
4796.319
4884.539
4975.605
5060.339
5135.605
5198.718
5249.583
5289.075
5318.721
5340.263
5355.718
5367.187
5376.429
5384.886
5390.608
5393.321
5393.738
5392.126
5388.855
5384.41
5379.081
5373.035
5366.386
5359.232
5351.656
5343.725
5335.491
5326.997
5318.275
5309.345
5300.226
5290.937
5281.492
5271.896
5262.15
5252.249
5242.185
5231.95
5221.527
5210.923
5200.147
5189.204
5178.095
5166.822
5155.396
5143.828
5132.141
5120.348
5108.486
5096.568
5084.63
5072.71
5060.839
5049.052
5037.37
5025.825
5014.452
5003.275
4992.326
4981.638
4971.233
4961.131
4951.344
4941.877
4932.786
4924.068
4915.723
4907.753
4900.161
4892.953
4886.126
4879.685
4873.629
4867.948
4862.636
4857.685
4853.083
4848.828
4844.917
4841.343
4838.095
4835.162
4832.536
4830.207
4828.166
4826.403
4824.909
4823.677
4822.701
4821.974
4821.489
4821.239
4821.218
4821.417
4821.831
4822.453
4823.28
4824.308
4825.533
4826.948
4828.55
4830.334
4832.293
4834.425
4836.723
4839.184
4841.805
4844.582
4847.512
4850.591
4853.816
4857.182
4860.685
4864.321
4868.087
4871.981
4875.998
4880.136
4884.391
4888.759
4893.236
4897.818
4902.502
4907.284
4912.159
4917.126
4922.18
4927.317
4932.531
4937.811
4943.146
4948.515
4953.896
4959.265
4964.616
4969.953
4975.271
4980.557
4985.81
4991.042
4996.262
5001.482
5006.707
5011.944
5017.198
5022.471
5027.768
5033.091
5038.445
5043.835
5049.266
5054.74
5060.259
5065.813
5071.383
5076.945
5082.458
5087.874
5093.159
5098.3
5103.31
5108.225
5113.12
5118.048
5123.024
5128.034
5133.064
5138.103
5143.139
5148.165
5153.172
5158.155
5163.108
5168.029
5172.915
5177.763
5182.571
5187.338
5192.063
5196.745
5201.382
5205.974
5210.519
5215.018
5219.468
5223.871
5228.224
5232.528
5236.781
5240.985
5245.137
5249.239
5253.289
5257.288
5261.235
5265.13
5268.973
5272.764
5276.502
5280.189
5283.823
5287.405
5290.935
5294.413
5297.839
5301.214
5304.538
5307.812
5311.036
5314.212
5317.34
5320.42
5323.451
5326.434
5329.369
5332.256
5335.094
5337.885
5340.628
5343.324
5345.973
5348.576
5351.133
5353.645
5356.112
5358.535
5360.915
5363.252
5365.546
5367.798
5370.008
5372.178
5374.307
5376.396
5378.446
5380.458
5382.432
5384.369
5386.27
5388.134
5389.962
5391.756
5393.515
5395.24
5396.932
5398.591
5400.218
5401.813
5403.378
5404.912
5406.415
5407.887
5409.331
5410.745
5412.132
5413.492
5414.825
5416.134
5417.418
5418.679
5419.917
5421.134
5422.328
5423.499
5424.647
5425.772
5426.874
5427.953
5429.008
5430.041
5431.052
5432.04
5433.006
5433.95
5434.873
5435.775
5436.653
5437.51
5438.346
5439.16
5439.953
5440.723
5441.473
5442.2
5442.906
5443.589
5444.251
5444.891
5445.511
5446.114
5446.701
5447.278
5447.851
5448.43
5449.027
5449.656
5450.329
5451.051
5451.817
5452.613
5453.424
5454.241
5455.056
5455.863
5456.658
5457.439
5458.205
5458.954
5459.686
5460.4
5461.097
5461.777
5462.439
5463.084
5463.712
5464.323
5464.918
5465.496
5466.057
5466.602
5467.132
5467.645
5468.142
5468.623
5469.088
5469.537
5469.969
5470.384
5470.781
5471.158
5471.516
5471.852
5472.167
5472.465
5472.75
5473.022
5473.282
5473.529
5473.761
5473.979
5474.183
5474.372
5474.547
5474.708
5474.854
5474.985
5475.103
5475.205
5475.294
5475.368
5475.428
5475.474
5475.506
5475.524
5475.528
5475.518
5475.495
5475.457
5475.407
5475.343
5475.265
5475.175
5475.071
5474.954
5474.825
5474.683
5474.528
5474.36
5474.179
5473.985
5473.777
5473.555
5473.316
5473.06
5472.785
5472.487
5472.166
5471.82
5471.45
5471.058
5470.647
5470.218
5469.772
5469.309
5468.828
5468.33
5467.814
5467.281
5466.737
5466.182
5465.617
5465.044
5464.461
5463.869
5463.268
5462.657
5462.037
5461.407
5460.767
5460.118
5459.459
5458.79
5458.112
5457.426
5456.73
5456.025
5455.312
5454.591
5453.861
5453.123
5452.378
5451.626
5450.866
5450.099
5449.326
5448.546
5447.76
5446.969
5446.172
5445.369
5444.562
5443.75
5442.934
5442.113
5441.289
5440.461
5439.63
5438.796
5437.96
5437.121
5436.28
5435.437
5434.593
5433.747
5432.9
5432.052
5431.204
5430.355
5429.505
5428.656
5427.806
5426.956
5426.106
5425.255
5424.405
5423.555
5422.704
5421.852
5420.999
5420.146
5419.29
5418.433
5417.574
5416.712
5415.846
5414.978
5414.107
5413.234
5412.359
5411.487
5410.619
5409.764
5408.93
5408.13
5407.381
5406.703
5406.116
5405.634
5405.272
5404.96
4515.313
4462.791
4365.761
4340.846
4318.339
4298.774
4281.592
4266.135
4251.857
4238.654
4227.157
4217.334
4211.409
4211.94
4222.062
4245.322
4286.508
4346.483
4424.433
4515.718
4612.997
4711.951
4803.047
4883.162
4949.703
5002.696
5043.52
5073.999
5096.037
5111.391
5121.883
5129.81
5136.691
5141.462
5143.685
5143.896
5142.385
5139.424
5135.347
5130.399
5124.739
5118.483
5111.718
5104.519
5096.945
5089.043
5080.854
5072.409
5063.732
5054.842
5045.756
5036.486
5027.038
5017.412
5007.606
4997.613
4987.427
4977.04
4966.453
4955.671
4944.695
4933.532
4922.186
4910.67
4898.999
4887.192
4875.268
4863.255
4851.183
4839.087
4827.003
4814.964
4803.003
4791.154
4779.449
4767.923
4756.605
4745.526
4734.716
4724.199
4713.996
4704.123
4694.596
4685.439
4676.663
4668.272
4660.269
4652.659
4645.441
4638.615
4632.179
4626.133
4620.469
4615.18
4610.259
4605.693