/*--------------------------------*- C++ -*----------------------------------*\
| =========                 |                                                 |
| \\      /  F ield         | foam-extend: Open Source CFD                    |
|  \\    /   O peration     | Version:     3.1                                |
|   \\  /    A nd           | Web:         http://www.extend-project.de       |
|    \\/     M anipulation  |                                                 |
\*---------------------------------------------------------------------------*/
FoamFile
{
    version     2.0;
    format      ascii;
    class       surfaceScalarField;
    location    "1.5";
    object      phi;
}
// * * * * * * * * * * * * * * * * * * * * * * * * * * * * * * * * * * * * * //

dimensions      [0 3 -1 0 0 0 0];

internalField   nonuniform List<scalar> 
275122
(
-7.32452e-05
7.395455e-05
-4.010722e-08
-6.692421e-07
-6.701875e-05
6.41396e-05
2.186547e-07
2.660498e-06
-6.768619e-05
6.992874e-05
-3.52537e-08
-2.207294e-06
-7.707048e-05
7.940655e-05
-2.82087e-08
-2.307852e-06
-8.532045e-05
8.616175e-05
-2.466725e-08
-8.166351e-07
-8.670529e-05
8.675502e-05
-1.654665e-08
-3.31853e-08
-8.648164e-05
8.631148e-05
-1.094043e-08
1.811019e-07
-8.569754e-05
8.546046e-05
-7.821268e-09
2.448983e-07
-8.468047e-05
8.439847e-05
-5.719995e-09
2.877237e-07
-8.350074e-05
8.318499e-05
-4.262744e-09
3.200142e-07
-8.219728e-05
8.18551e-05
-3.220653e-09
3.454004e-07
-8.079676e-05
8.043387e-05
-2.464846e-09
3.653511e-07
-7.932032e-05
7.894089e-05
-1.908692e-09
3.813376e-07
-7.778218e-05
7.738927e-05
-1.495453e-09
3.944099e-07
-7.619421e-05
7.579071e-05
-1.201118e-09
4.047e-07
-7.456819e-05
7.415741e-05
-1.087164e-09
4.118669e-07
-7.291911e-05
7.250653e-05
-1.546977e-09
4.141306e-07
-7.127663e-05
7.087733e-05
-4.723206e-09
4.040269e-07
-6.974056e-05
6.941552e-05
-2.169119e-08
3.467284e-07
-6.877197e-05
6.891935e-05
-9.794839e-08
-4.942877e-08
-7.652507e-05
7.909128e-05
-2.295078e-07
-2.336696e-06
-8.032556e-05
8.066363e-05
-1.069032e-07
-2.311635e-07
-8.142222e-05
8.199528e-05
-6.292141e-08
-5.101361e-07
-9.097324e-05
9.397221e-05
7.788284e-08
-3.076851e-06
-9.525396e-05
9.556276e-05
1.418681e-07
-4.506714e-07
-9.664957e-05
9.681037e-05
8.318556e-08
-2.439814e-07
-9.697561e-05
9.690745e-05
5.174892e-08
1.641171e-08
-9.624363e-05
9.557139e-05
4.356601e-08
6.286747e-07
-9.040006e-05
8.487878e-05
3.911728e-08
5.482161e-06
-0.0001086934
0.000111685
2.46754e-09
-2.99409e-06
-4.917752e-05
5.129302e-05
-1.437719e-08
-2.101122e-06
-5.802937e-05
6.031708e-05
2.166318e-10
-2.28793e-06
-6.741013e-05
6.984713e-05
1.931969e-10
-2.437188e-06
-7.722352e-05
7.97281e-05
3.06181e-10
-2.504893e-06
-8.731684e-05
8.986445e-05
2.906836e-10
-2.547896e-06
-9.754133e-05
0.000100108
3.215562e-10
-2.567025e-06
-0.0001078249
0.0001104021
2.930577e-10
-2.577503e-06
-0.000118145
0.0001207299
4.06172e-10
-2.585301e-06
-0.0001284959
0.0001310925
4.486952e-10
-2.597018e-06
-0.0001390291
0.0001417643
4.058333e-08
-2.775775e-06
2.265947e-06
-9.499794e-05
9.522495e-05
-7.542545e-11
-2.492883e-06
2.371177e-06
-9.582387e-05
9.596499e-05
4.680578e-13
-2.512293e-06
2.456066e-06
-9.624748e-05
9.632236e-05
1.957878e-11
-2.530964e-06
2.53003e-06
-9.647373e-05
9.651218e-05
-4.190327e-11
-2.568437e-06
2.566094e-06
-9.661182e-05
9.664249e-05
-3.838492e-11
-2.596724e-06
2.585541e-06
-9.673593e-05
9.676709e-05
-2.769562e-11
-2.616673e-06
2.599033e-06
-9.686546e-05
9.689811e-05
-2.210735e-11
-2.631665e-06
2.615091e-06
-9.700333e-05
9.703711e-05
1.534978e-11
-2.64888e-06
2.751897e-06
-9.711632e-05
9.706454e-05
-1.327514e-11
-2.700102e-06
2.269139e-06
-0.0003908934
0.0003920032
6.922649e-12
-1.057448e-05
2.460381e-06
2.273239e-06
2.461927e-06
2.489613e-06
-0.0003926746
0.0003931811
5.774769e-12
-1.058533e-05
2.549531e-06
2.490299e-06
2.549375e-06
2.543988e-06
-0.0003936174
0.0003939796
4.944836e-12
-1.060163e-05
2.575888e-06
2.543861e-06
2.575751e-06
2.600117e-06
-0.0003942576
0.0003945155
3.567071e-12
-1.067019e-05
2.606198e-06
2.599977e-06
2.606036e-06
2.62561e-06
-0.0003947644
0.0003950046
2.131879e-12
-1.075397e-05
2.631534e-06
2.625326e-06
2.631314e-06
2.647884e-06
-0.00039524
0.0003954756
1.13837e-12
-1.083783e-05
2.653378e-06
2.647759e-06
2.653204e-06
2.666462e-06
-0.0003957102
0.0003959479
4.533581e-13
-1.091318e-05
2.67154e-06
2.666216e-06
2.671288e-06
2.682577e-06
-0.0003961864
0.0003964286
4.102077e-14
-1.098204e-05
2.687343e-06
2.682572e-06
2.687342e-06
2.707742e-06
-0.0003966648
0.0003968675
-1.650895e-13
-1.104709e-05
2.71457e-06
2.707986e-06
2.714089e-06
2.63657e-06
-0.0003969914
0.000397428
-3.117366e-13
-1.098372e-05
2.636847e-06
2.63728e-06
2.636422e-06
2.678627e-06
-0.0003977515
0.0003980219
-4.689357e-13
-1.094385e-05
2.658528e-06
2.678034e-06
2.658259e-06
2.655118e-06
-0.0003983528
0.0003987009
-1.083837e-12
-1.095704e-05
2.648624e-06
2.656165e-06
2.649105e-06
2.670081e-06
-0.0003990428
0.0003993673
6.273803e-13
-1.100774e-05
2.673468e-06
2.668197e-06
2.671482e-06
2.693443e-06
-0.0003996768
0.0003999703
1.594263e-12
-1.107592e-05
2.698296e-06
2.692777e-06
2.697833e-06
2.720307e-06
-0.000400248
0.0004005147
2.372752e-12
-1.115437e-05
2.725471e-06
2.718514e-06
2.723355e-06
2.753121e-06
-0.0004007736
0.0004010264
1.73725e-12
-1.12644e-05
2.760505e-06
2.745807e-06
2.752198e-06
2.818657e-06
-0.0004012721
0.0004014921
-1.834212e-13
-1.147855e-05
2.838568e-06
2.792829e-06
2.808439e-06
3.041346e-06
-0.0004016331
0.0004014913
1.009146e-12
-1.196995e-05
3.127843e-06
2.939597e-06
3.002887e-06
3.694602e-06
-0.0004006767
0.0003986223
2.449224e-12
-1.24769e-05
3.921339e-06
3.405186e-06
3.510191e-06
4.441464e-06
-0.0003959457
0.0003994239
3.298133e-12
-7.919664e-06
5.164555e-06
-0.0004023401
0.0004035306
4.315592e-12
-6.355143e-06
8.109098e-06
-0.0004035638
0.0004032524
5.372555e-12
-7.797745e-06
7.339596e-06
-0.0004029111
0.0004026203
6.794595e-12
-7.048745e-06
4.22647e-06
-0.0004026362
0.0004033442
4.452851e-12
-4.93452e-06
2.180142e-06
-0.000404334
0.0004053278
4.197045e-12
-3.17393e-06
1.277891e-06
-0.0004063488
0.0004073357
3.8686e-12
-2.264829e-06
7.739079e-07
-0.0004082994
0.0004092274
3.6508e-12
-1.701901e-06
4.428037e-07
-0.0004101394
0.0004110204
3.558623e-12
-1.323748e-06
2.084515e-07
-0.0004118894
0.0004127353
3.433674e-12
-1.054347e-06
1.291297e-08
-0.0004135743
0.0004144116
2.900586e-12
-8.50292e-07
-1.076521e-07
-0.0004152356
0.0004160462
3.402974e-12
-7.028903e-07
-2.127543e-07
-0.0004168539
0.0004176556
3.392214e-12
-5.890059e-07
-2.930336e-07
-0.0004184574
0.0004192576
3.214478e-12
-5.071409e-07
-3.452691e-07
-0.0004200603
0.000420866
3.132259e-12
-4.604626e-07
-3.608532e-07
-0.0004216774
0.0004224979
3.189426e-12
-4.596207e-07
-3.180114e-07
-0.0004233285
0.0004241762
3.161005e-12
-5.296954e-07
-1.663641e-07
-0.0004250398
0.0004259324
3.400164e-12
-7.262891e-07
2.820301e-07
-0.0004268628
0.0004277758
3.545739e-12
-1.19511e-06
1.560843e-06
-0.0004285915
0.0004291827
3.81221e-12
-2.151981e-06
2.676753e-06
-0.0004291365
0.0004294439
4.126737e-12
-2.984216e-06
2.332038e-06
-0.0004302717
0.0004311499
4.460738e-12
-3.210296e-06
5.085576e-06
-0.0004318012
0.0004317312
4.87172e-12
-5.01562e-06
8.297404e-06
-0.0004297602
0.0004279565
5.2016e-12
-6.493689e-06
3.875995e-06
-0.0004271404
0.0004272052
5.943221e-12
-3.940815e-06
1.329231e-06
-0.0004274569
0.000427644
6.198479e-12
-1.516324e-06
-1.094842e-06
-0.0004277519
0.0004278934
5.922511e-12
9.533149e-07
-5.601051e-06
-0.0004281958
0.0004289541
5.712954e-12
4.842697e-06
-1.670145e-05
-0.0004309059
0.0004367651
4.941051e-12
1.084229e-05
-3.078984e-06
-0.0004436561
0.0004453831
4.478944e-12
8.948593e-06
-2.220186e-06
-3.109044e-06
-2.267365e-06
-1.098159e-06
-0.0004456397
0.0004457512
5.93041e-12
4.106367e-06
-9.728788e-07
-1.139507e-06
-1.007346e-06
-5.892678e-07
-0.0004457293
0.0004457431
9.559444e-12
2.279997e-06
-5.385525e-07
-6.08716e-07
-5.572841e-07
-4.107554e-07
-0.0004458405
0.0004460526
7.923341e-12
1.430933e-06
-3.943903e-07
-4.281325e-07
-4.097769e-07
-3.408759e-07
-0.0004463288
0.0004466795
6.975171e-12
1.020055e-06
-3.333084e-07
-3.525454e-07
-3.440146e-07
-3.090456e-07
-0.0004470707
0.0004475106
6.3383e-12
8.042531e-07
-3.055011e-07
-3.168469e-07
-3.127678e-07
-2.941926e-07
-0.0004479759
0.0004484732
5.027089e-12
6.863926e-07
-2.92569e-07
-2.994412e-07
-2.974896e-07
-2.87662e-07
-0.0004489872
0.000449523
2.954868e-12
6.205843e-07
-2.87062e-07
-2.912406e-07
-2.904223e-07
-2.856408e-07
-0.0004500704
0.0004506331
-3.201246e-15
5.846669e-07
-2.856517e-07
-2.88109e-07
-2.879524e-07
-2.864935e-07
-0.0004512042
0.0004517857
-5.231847e-12
5.687081e-07
-2.868851e-07
-2.882178e-07
-2.885229e-07
-2.894633e-07
-0.0004523716
0.0004529637
-1.868964e-13
5.697436e-07
-2.901845e-07
-2.90789e-07
-2.914469e-07
-2.934941e-07
-0.0004535597
0.0004541593
2.152823e-12
5.77986e-07
-2.94331e-07
-2.945203e-07
-2.95281e-07
-2.982363e-07
-0.0004547621
0.0004553671
2.540471e-12
5.913743e-07
-2.992131e-07
-2.989806e-07
-2.999145e-07
-3.038373e-07
-0.000455974
0.0004565808
2.688596e-12
6.119137e-07
-3.049507e-07
-3.044128e-07
-3.054986e-07
-3.101133e-07
-0.0004571881
0.0004577943
2.532976e-12
6.375446e-07
-3.113006e-07
-3.105835e-07
-3.117479e-07
-3.167397e-07
-0.0004584008
0.0004590052
2.645177e-12
6.658613e-07
-3.180055e-07
-3.171338e-07
-3.183785e-07
-3.237115e-07
-0.0004596093
0.0004602105
2.283672e-12
6.970301e-07
-3.250548e-07
-3.240469e-07
-3.253797e-07
-3.310346e-07
-0.0004608109
0.0004614075
2.184068e-12
7.309292e-07
-3.324403e-07
-3.313225e-07
-3.327253e-07
-3.386624e-07
-0.0004620029
0.0004625937
1.871469e-12
7.672146e-07
-3.400994e-07
-3.389185e-07
-3.403518e-07
-3.465113e-07
-0.0004631829
0.0004637669
1.662687e-12
8.053895e-07
-3.479605e-07
-3.467439e-07
-3.481898e-07
-3.544566e-07
-0.0004643489
0.0004649253
1.364012e-12
8.44808e-07
-3.559303e-07
-3.546682e-07
-3.561337e-07
-3.623993e-07
-0.0004654994
0.0004660676
1.168301e-12
8.847539e-07
-3.63856e-07
-3.625946e-07
-3.640481e-07
-3.702196e-07
-0.0004666333
0.0004671928
1.263896e-12
9.244782e-07
-3.71622e-07
-3.70402e-07
-3.717885e-07
-3.777886e-07
-0.0004677498
0.0004683007
1.038221e-12
9.632678e-07
-3.791527e-07
-3.779166e-07
-3.792956e-07
-3.850193e-07
-0.0004688491
0.0004693914
7.570099e-13
1.000518e-06
-3.863151e-07
-3.851359e-07
-3.864249e-07
-3.918494e-07
0.0004704656
3.531442e-13
1.035719e-06
-3.930167e-07
-3.919475e-07
-3.931403e-07
-0.0004699314
-3.981235e-07
-0.0004709975
0.0004715242
6.268717e-14
1.068513e-06
-3.992808e-07
-3.983108e-07
-3.994782e-07
-4.038959e-07
-0.0004720487
0.0004725682
-1.745716e-13
1.098546e-06
-4.049239e-07
-4.041182e-07
-4.051193e-07
-4.09235e-07
-0.0004730857
0.0004735989
-6.70919e-13
1.125999e-06
-4.101834e-07
-4.0938e-07
-4.103212e-07
-4.141577e-07
-0.0004741103
0.0004746178
-1.073793e-12
1.151171e-06
-4.150374e-07
-4.142949e-07
-4.15171e-07
-4.187106e-07
-0.0004751238
0.0004756263
-1.206177e-12
1.174246e-06
-4.195493e-07
-4.188399e-07
-4.19676e-07
-4.229545e-07
-0.0004761276
0.0004766258
-1.738135e-12
1.195531e-06
-4.237566e-07
-4.230824e-07
-4.23882e-07
-4.269702e-07
-0.0004771228
0.0004776171
-1.818598e-12
1.215434e-06
-4.277423e-07
-4.270986e-07
-4.278678e-07
-4.308283e-07
-0.0004781104
0.0004786011
-2.382542e-12
1.234379e-06
-4.315808e-07
-4.309505e-07
-4.316999e-07
-4.346013e-07
-0.0004790909
0.0004795782
-2.288073e-12
1.252811e-06
-4.35343e-07
-4.347267e-07
-4.354662e-07
-4.383497e-07
-0.0004800648
0.0004805488
-3.077233e-12
1.271108e-06
-4.390926e-07
-4.384695e-07
-4.392105e-07
-4.421464e-07
-0.000481032
0.0004815128
-3.111504e-12
1.289583e-06
-4.428949e-07
-4.422654e-07
-4.430128e-07
-4.457148e-07
-0.0004819924
0.000482469
-5.578765e-12
1.307964e-06
-4.464083e-07
-4.45841e-07
-4.465236e-07
-4.495942e-07
-0.0004829439
0.0004834157
4.792722e-13
1.328465e-06
-4.504406e-07
-4.49679e-07
-4.505197e-07
-4.545597e-07
-0.0004838865
0.0004843546
-2.2511e-12
1.352458e-06
-4.556843e-07
-4.546271e-07
-4.557536e-07
-4.595659e-07
-0.0004848219
0.0004852856
-4.068222e-12
1.376557e-06
-4.605085e-07
-4.596334e-07
-4.605671e-07
-4.642403e-07
-0.0004857478
0.0004862061
-3.971095e-12
1.40062e-06
-4.651621e-07
-4.642935e-07
-4.652286e-07
-4.688123e-07
-0.0004866627
0.0004871157
-3.768341e-12
1.424527e-06
-4.697609e-07
-4.689668e-07
-4.699291e-07
-4.732461e-07
-0.000487567
0.0004880147
-4.291729e-12
1.447427e-06
-4.741232e-07
-4.734287e-07
-4.742886e-07
-4.7734e-07
-0.0004884608
0.0004889039
-4.24704e-12
1.468262e-06
-4.781863e-07
-4.774495e-07
-4.782865e-07
-4.80854e-07
-0.0004893458
0.0004897855
-4.446071e-12
1.485444e-06
-4.816047e-07
-4.809586e-07
-4.817055e-07
-4.831706e-07
-0.0004902249
0.0004906637
-4.516682e-12
1.495213e-06
-4.837094e-07
-4.832798e-07
-4.83815e-07
-4.824439e-07
-0.0004911038
0.0004915455
-4.205704e-12
1.487862e-06
-4.821803e-07
-4.825768e-07
-4.823113e-07
-4.692156e-07
-0.0004919894
0.0004924216
-2.71837e-12
1.435614e-06
-4.644551e-07
-4.694725e-07
-4.647158e-07
-4.143587e-07
-0.0004928164
0.0004930985
-4.064057e-12
1.315598e-06
-3.835574e-07
-4.153463e-07
-3.843815e-07
-4.211268e-07
-0.000493527
0.0004937968
-4.535744e-12
1.450049e-06
-4.413409e-07
-4.187e-07
-4.387399e-07
-4.330952e-07
-0.0004941045
0.0004944447
-4.770899e-12
1.38023e-06
-4.287069e-07
-4.315123e-07
-4.271709e-07
-4.300962e-07
-0.0004947697
0.0004951166
-4.392908e-12
1.375102e-06
-4.31781e-07
-4.291542e-07
-4.310259e-07
-4.450823e-07
-0.0004954811
0.0004958578
-4.557413e-12
1.405945e-06
-4.468525e-07
-4.444392e-07
-4.463268e-07
-4.591725e-07
-0.0004962452
0.0004966387
-4.542674e-12
1.444753e-06
-4.603649e-07
-4.587001e-07
-4.599481e-07
-4.706825e-07
-0.0004970371
0.0004974371
-4.898374e-12
1.484292e-06
-4.717889e-07
-4.703392e-07
-4.714854e-07
-4.80607e-07
-0.0004978392
0.0004982404
-5.10753e-12
1.522904e-06
-4.81664e-07
-4.803613e-07
-4.81434e-07
-4.89242e-07
-0.0004986419
0.0004990411
-5.258387e-12
1.559351e-06
-4.902253e-07
-4.890342e-07
-4.900252e-07
-4.968669e-07
-0.0004994397
0.0004998351
-5.069025e-12
1.59355e-06
-4.978119e-07
-4.966636e-07
-4.976012e-07
-5.036986e-07
-0.0005002294
0.0005006198
-5.016104e-12
1.62567e-06
-5.045056e-07
-5.035232e-07
-5.043782e-07
-5.098246e-07
-0.0005010087
0.0005013937
-5.042086e-12
1.655819e-06
-5.106414e-07
-5.097765e-07
-5.106196e-07
-5.153479e-07
-0.0005017769
0.0005021557
-5.113577e-12
1.683912e-06
-5.160343e-07
-5.153428e-07
-5.160002e-07
-5.204659e-07
-0.0005025326
0.0005029052
-5.138954e-12
1.710358e-06
-5.210982e-07
-5.204091e-07
-5.210433e-07
-5.252402e-07
-0.0005032759
0.0005036425
-5.09883e-12
1.735463e-06
-5.258207e-07
-5.251741e-07
-5.25756e-07
-5.296876e-07
-0.000504007
0.0005043674
-5.066603e-12
1.75924e-06
-5.302218e-07
-5.296236e-07
-5.301562e-07
-5.338712e-07
-0.0005047259
0.0005050804
-4.967611e-12
1.781859e-06
-5.343478e-07
-5.338214e-07
-5.343088e-07
-5.378107e-07
-0.000505433
0.0005057816
-4.949979e-12
1.803391e-06
-5.382551e-07
-5.377676e-07
-5.382101e-07
-5.415222e-07
-0.0005061284
0.0005064714
-4.783196e-12
1.823782e-06
-5.419354e-07
-5.414789e-07
-5.418846e-07
-5.450289e-07
-0.0005068127
0.0005071505
-4.632119e-12
1.842977e-06
-5.454034e-07
-5.449941e-07
-5.453699e-07
-5.48361e-07
-0.0005074867
0.0005078195
-4.363877e-12
1.861302e-06
-5.48712e-07
-5.483305e-07
-5.486779e-07
-5.51559e-07
-0.0005081506
0.0005084784
-4.190304e-12
1.878959e-06
-5.518758e-07
-5.515179e-07
-5.518377e-07
-5.546627e-07
-0.0005088047
0.0005091278
-3.886952e-12
1.896078e-06
-5.549514e-07
-5.546227e-07
-5.549217e-07
-5.576272e-07
-0.0005094493
0.0005097677
-3.196754e-12
1.912592e-06
-5.578945e-07
-5.576033e-07
-5.57863e-07
-5.60559e-07
-0.0005100846
0.0005103985
-2.284508e-12
1.928672e-06
-5.607786e-07
-5.605092e-07
-5.607213e-07
-5.633938e-07
-0.000510711
0.0005110204
-2.471742e-12
1.944192e-06
-5.634865e-07
-5.633701e-07
-5.633766e-07
-5.647615e-07
0.0005116313
-1.613771e-11
1.957049e-06
-0.0005113277
-5.653579e-07
-5.648795e-07
-5.655401e-07
-5.676279e-07
-0.0005119343
0.0005122351
5.313839e-12
1.970818e-06
-5.681852e-07
-5.675212e-07
-5.68235e-07
-5.717462e-07
-0.0005125375
0.000512836
-3.60839e-12
1.988261e-06
-5.716173e-07
-5.717682e-07
-5.716411e-07
-5.740861e-07
-0.0005131325
0.000513426
-2.703102e-12
2.002955e-06
-5.741534e-07
-5.740595e-07
-5.741153e-07
-5.765242e-07
-0.000513718
0.0005140073
-1.925176e-12
2.016809e-06
-5.765829e-07
-5.764711e-07
-5.765264e-07
-5.789191e-07
-0.0005142953
0.0005145807
-1.625464e-12
2.030264e-06
-5.789626e-07
-5.788566e-07
-5.788974e-07
-5.812956e-07
-0.0005148648
0.0005151464
-1.657808e-12
2.043495e-06
-5.813095e-07
-5.81243e-07
-5.81265e-07
-5.836278e-07
-0.0005154268
0.0005157047
-1.722438e-12
2.056475e-06
-5.836248e-07
-5.835784e-07
-5.835707e-07
-5.859247e-07
-0.0005159815
0.0005162558
-1.73112e-12
2.069225e-06
-5.858982e-07
-5.858656e-07
-5.858342e-07
-5.881992e-07
-0.0005165289
0.0005167997
-1.646012e-12
2.081796e-06
-5.881441e-07
-5.881423e-07
-5.880939e-07
-5.904198e-07
-0.0005170694
0.0005173367
-1.46987e-12
2.094137e-06
-5.903446e-07
-5.903758e-07
-5.902957e-07
-5.926126e-07
-0.0005176028
0.0005178667
-1.374077e-12
2.106258e-06
-5.925068e-07
-5.925523e-07
-5.924442e-07
-5.947751e-07
-0.0005181295
0.00051839
-1.238237e-12
2.118192e-06
-5.946494e-07
-5.947113e-07
-5.945923e-07
-5.968762e-07
-0.0005186495
0.0005189068
-1.183838e-12
2.129844e-06
-5.967308e-07
-5.968319e-07
-5.966847e-07
-5.989511e-07
-0.0005191631
0.0005194172
-1.105183e-12
2.141192e-06
-5.987842e-07
-5.988834e-07
-5.987119e-07
-6.01004e-07
-0.0005196704
0.0005199216
-1.03456e-12
2.152294e-06
-6.008466e-07
-6.008911e-07
-6.007263e-07
-6.030315e-07
-0.0005201719
0.0005204203
-9.271507e-13
2.16311e-06
-6.028388e-07
-6.029036e-07
-6.027341e-07
-6.04872e-07
-0.0005206679
0.0005209139
-9.316578e-13
2.173378e-06
-6.047818e-07
-6.048734e-07
-6.047926e-07
-6.066058e-07
-0.0005211591
0.0005214026
-8.679782e-13
2.182742e-06
-6.064927e-07
-6.06625e-07
-6.065191e-07
-6.081507e-07
-0.0005216455
0.0005218873
-7.116396e-13
2.190783e-06
-6.081766e-07
-6.080842e-07
-6.081444e-07
-6.094286e-07
-0.000522129
0.0005223704
-6.18938e-13
2.196764e-06
-6.097296e-07
-6.09383e-07
-6.09631e-07
-6.101788e-07
-0.0005226126
0.0005228566
-1.002718e-12
2.197736e-06
-6.107682e-07
-6.100122e-07
-6.107494e-07
-6.09772e-07
-0.0005231045
0.0005233596
-1.962215e-12
2.185502e-06
-6.106341e-07
-6.097952e-07
-6.103924e-07
-6.026312e-07
-0.0005236273
0.0005238895
2.176425e-12
2.134361e-06
-5.958277e-07
-6.025946e-07
-5.955702e-07
-3.989558e-07
-0.0005239778
0.0005235021
2.659958e-12
1.985224e-06
-3.564527e-07
-3.973408e-07
-3.567821e-07
-2.875868e-07
-0.0001304145
0.0001301919
5.367112e-11
5.100941e-07
-4.590341e-07
-0.0001298834
0.0001298539
-1.112209e-10
4.887027e-07
-5.243057e-07
-0.0001298604
0.0001298802
-7.926007e-11
5.045503e-07
-5.55928e-07
-0.0001299616
0.0001299925
-4.510648e-11
5.250772e-07
-5.743568e-07
-0.0001300894
0.000130122
-2.177069e-11
5.417544e-07
-5.863508e-07
-0.0001302197
0.0001302518
-5.284849e-12
5.542629e-07
-5.947828e-07
-0.0001303466
0.0001303775
3.896652e-12
5.638427e-07
-6.011237e-07
-0.0001304686
0.0001304983
9.909465e-12
5.714305e-07
-6.061229e-07
-0.0001305857
0.0001306142
1.613946e-11
5.77618e-07
-6.102136e-07
-0.0001306984
0.0001307258
1.92331e-11
5.828205e-07
-6.137068e-07
-0.0001308066
0.0001308331
1.105403e-11
5.871949e-07
-6.164969e-07
-0.0001309113
0.0001309369
6.243286e-12
5.909308e-07
-6.190347e-07
-0.0001310124
0.0001310372
1.096776e-11
5.94278e-07
-6.213673e-07
-0.0001311105
0.0001311345
1.331338e-11
5.973222e-07
-6.234842e-07
-0.0001312056
0.000131229
1.447934e-11
6.001182e-07
-6.25604e-07
-0.0001312981
0.0001313209
1.130419e-11
6.028657e-07
-6.276786e-07
-0.0001313897
0.0001314122
3.929473e-11
6.051515e-07
-6.271218e-07
-0.0001314791
0.0001314998
3.569665e-11
6.063316e-07
-6.295438e-07
-0.0001315632
0.0001315848
3.115697e-11
6.079157e-07
-6.311399e-07
-0.0001316459
0.0001316668
1.499292e-11
6.102602e-07
-6.330381e-07
-0.0001317293
0.0001317498
1.711194e-11
6.124258e-07
-6.342576e-07
-0.000131811
0.0001318312
1.614619e-11
6.140797e-07
-6.352628e-07
-0.0001318912
0.000131911
1.54421e-11
6.154025e-07
-6.361773e-07
-0.0001319703
0.0001319899
1.805321e-11
6.164953e-07
-6.370007e-07
-0.0001320488
0.0001320684
2.277869e-11
6.173528e-07
-6.377134e-07
-0.0001321274
0.0001321472
2.49888e-11
6.179397e-07
-6.381224e-07
-0.0001322067
0.0001322268
1.423056e-11
6.180037e-07
-6.382994e-07
-0.0001322879
0.0001323087
8.319502e-12
6.174867e-07
-6.381138e-07
-0.0001323719
0.0001323939
1.502944e-11
6.16117e-07
-6.373128e-07
-0.0001324613
0.000132485
1.721292e-11
6.13516e-07
-6.352821e-07
-0.0001325593
0.0001325859
1.943835e-11
6.086892e-07
-6.29633e-07
-0.0001326724
0.0001327031
1.963546e-11
5.989889e-07
-6.250182e-07
-0.0001328023
0.0001328439
4.032724e-12
5.834712e-07
-6.054318e-07
-0.0001329939
0.0001330561
2.502259e-11
5.432502e-07
-5.450637e-07
-0.0001332943
0.0001334119
2.117861e-11
4.274592e-07
1.778125e-07
-0.000133815
0.0001337492
2.531952e-11
-1.120674e-07
5.705053e-07
-0.0001334799
0.0001334218
1.078825e-11
-5.124416e-07
6.247529e-07
-0.0001332811
0.0001332486
5.792179e-12
-5.922105e-07
6.418121e-07
-0.000133182
0.0001331667
1.579236e-12
-6.265532e-07
6.532564e-07
-0.0001331355
0.0001331296
-2.185952e-12
-6.473706e-07
6.60332e-07
-0.0001331218
0.0001331223
-6.278696e-12
-6.608396e-07
6.65758e-07
-0.0001331314
0.0001331369
-6.142467e-12
-6.712215e-07
6.69307e-07
-0.0001331588
0.0001331679
-4.922346e-12
-6.783849e-07
6.72161e-07
-0.0001331993
0.0001332111
-6.424296e-12
-6.839353e-07
6.744311e-07
-0.0001332495
0.0001332634
-6.977508e-12
-6.882581e-07
6.762439e-07
-0.0001333071
0.0001333225
-5.728767e-12
-6.916325e-07
6.778749e-07
-0.0001333702
0.0001333866
-6.020859e-12
-6.943236e-07
6.792241e-07
-0.0001334372
0.0001334544
-5.608103e-12
-6.964638e-07
6.804015e-07
-0.0001335069
0.0001335247
-4.185422e-12
-6.981772e-07
6.814101e-07
-0.0001335786
0.0001335967
-4.521706e-12
-6.995233e-07
6.822728e-07
-0.0001336513
0.0001336696
-4.295937e-12
-7.005732e-07
6.830428e-07
-0.0001337246
0.000133743
-3.095522e-12
-7.013984e-07
6.83717e-07
-0.000133798
0.0001338163
-3.088323e-12
-7.020438e-07
6.843329e-07
-0.0001338712
0.0001338894
-3.513729e-12
-7.025667e-07
6.849099e-07
-0.0001339439
0.000133962
-2.460002e-12
-7.030039e-07
6.854509e-07
-0.000134016
0.0001340339
-2.002384e-12
-7.033854e-07
6.859856e-07
-0.0001340874
0.0001341052
-2.828391e-12
-7.037387e-07
6.864948e-07
-0.0001341581
0.0001341757
-1.844062e-12
-7.040656e-07
6.869975e-07
-0.000134228
0.0001342454
-6.006249e-13
-7.043849e-07
6.87517e-07
-0.0001342972
0.0001343143
-1.911496e-12
-7.04696e-07
6.879636e-07
-0.0001343654
0.0001343824
-1.99207e-12
-7.049653e-07
6.882993e-07
-0.0001344328
0.0001344497
-8.230406e-13
-7.0516e-07
6.886896e-07
-0.0001344994
0.000134516
-1.472096e-12
-7.053157e-07
6.889579e-07
-0.0001345649
0.0001345813
-1.585188e-12
-7.053764e-07
6.891514e-07
-0.0001346294
0.0001346456
-8.940506e-13
-7.053351e-07
6.892223e-07
-0.0001346925
0.0001347085
-1.764447e-12
-7.051446e-07
6.892367e-07
-0.0001347541
0.0001347697
-3.615705e-12
-7.048188e-07
6.883646e-07
-0.0001348135
0.0001348291
-1.303074e-11
-7.040116e-07
6.922438e-07
-0.0001348757
0.0001348899
-7.741561e-11
-7.064259e-07
7.347948e-07
-0.0001349319
0.0001349267
-2.891747e-10
-7.292995e-07
6.724461e-07
-0.0001344549
0.0005425263
-1.417603e-11
-2.649246e-06
2.279745e-08
6.652808e-07
3.690458e-08
-0.0001344543
-0.0001361765
-0.0001361887
3.691127e-07
-0.0005441916
0.0005447439
-9.010145e-12
-2.44213e-06
5.335246e-07
4.153676e-07
5.718458e-07
5.028234e-07
-0.0005451852
0.0005455294
2.78509e-12
-2.489462e-06
5.496544e-07
5.264929e-07
5.662096e-07
5.661325e-07
-0.0005458083
0.0005459986
8.298583e-13
-2.505734e-06
5.880817e-07
5.70935e-07
5.902828e-07
6.013509e-07
-0.0005461579
0.0005462858
-1.414443e-14
-2.549089e-06
6.0933e-07
6.013519e-07
6.091459e-07
6.204817e-07
-0.0005464001
0.00054651
-1.827282e-12
-2.601442e-06
6.249538e-07
6.210371e-07
6.251166e-07
6.488665e-07
-0.0005465911
0.0005466457
-1.324805e-13
-2.653823e-06
6.501984e-07
6.494209e-07
6.507567e-07
6.64266e-07
-0.000546694
0.0005467357
-1.676055e-13
-2.702053e-06
6.655694e-07
6.646111e-07
6.659325e-07
6.773473e-07
-0.0005467717
0.0005468046
-2.084682e-13
-2.745076e-06
6.783146e-07
6.777256e-07
6.78778e-07
6.860411e-07
-0.000546837
0.0005468703
-6.031793e-13
-2.779817e-06
6.868796e-07
6.863443e-07
6.872128e-07
6.920732e-07
-0.000546905
0.0005469421
2.05862e-12
-2.807797e-06
6.928879e-07
6.9246e-07
6.932928e-07
6.963147e-07
-0.0005469816
0.0005470243
8.917826e-12
-2.829975e-06
6.97059e-07
6.965634e-07
6.972916e-07
6.992632e-07
-0.0005470698
0.0005471186
1.98166e-11
-2.847537e-06
6.999132e-07
6.994285e-07
7.000539e-07
7.012894e-07
-0.0005471702
0.0005472251
2.951455e-11
-2.861213e-06
7.018454e-07
7.013258e-07
7.018716e-07
7.026021e-07
-0.0005472825
0.0005473427
2.228947e-11
-2.871732e-06
7.030817e-07
7.026322e-07
7.03121e-07
7.034918e-07
-0.0005474051
0.00054747
8.368816e-12
-2.879752e-06
7.039282e-07
7.035296e-07
7.039603e-07
7.040767e-07
-0.0005475366
0.0005476051
-4.065142e-12
-2.885668e-06
7.044725e-07
7.040865e-07
7.044727e-07
7.044365e-07
-0.000547675
0.0005477465
-9.114414e-12
-2.889811e-06
7.047893e-07
7.044137e-07
7.047665e-07
7.046039e-07
-0.0005478189
0.0005478922
-7.561342e-12
-2.892412e-06
7.0493e-07
7.045835e-07
7.04912e-07
7.046106e-07
-0.0005479663
0.0005480409
-4.226039e-12
-2.89362e-06
7.04907e-07
7.045846e-07
7.048771e-07
7.045099e-07
-0.0005481159
0.0005481911
-2.044554e-12
-2.893707e-06
7.047833e-07
7.044565e-07
7.047232e-07
7.043325e-07
-0.0005482665
0.0005483417
-1.128802e-12
-2.892981e-06
7.045927e-07
7.04278e-07
7.045408e-07
7.041267e-07
-0.0005484168
0.0005484916
-7.950085e-13
-2.891661e-06
7.043677e-07
7.040803e-07
7.043248e-07
7.039029e-07
-0.000548566
0.0005486399
-6.397556e-13
-2.889897e-06
7.041322e-07
7.038521e-07
7.041017e-07
7.036708e-07
-0.0005487134
0.0005487861
-6.574663e-13
-2.887701e-06
7.03873e-07
7.036041e-07
7.037958e-07
7.033703e-07
-0.0005488585
0.00054893
-7.574719e-13
-2.885238e-06
7.036022e-07
7.032828e-07
7.034899e-07
7.030976e-07
-0.0005490009
0.0005490709
-8.84517e-13
-2.882633e-06
7.032842e-07
7.029991e-07
7.031914e-07
7.028148e-07
-0.0005491404
0.0005492089
-1.029294e-12
-2.879984e-06
7.030076e-07
7.027306e-07
7.029276e-07
7.025708e-07
-0.0005492767
0.0005493436
-1.054674e-12
-2.877367e-06
7.02751e-07
7.024982e-07
7.026824e-07
7.023322e-07
-0.0005494098
0.000549475
-1.101583e-12
-2.874742e-06
7.025111e-07
7.022561e-07
7.024297e-07
7.021056e-07
-0.0005495395
0.0005496031
-1.102592e-12
-2.872128e-06
7.022727e-07
7.020201e-07
7.021902e-07
7.018868e-07
-0.0005496659
0.0005497277
-1.085137e-12
-2.869523e-06
7.020481e-07
7.018139e-07
7.019776e-07
7.016549e-07
-0.0005497888
0.0005498488
-1.087646e-12
-2.866817e-06
7.018096e-07
7.015831e-07
7.01733e-07
7.014078e-07
-0.0005499081
0.0005499663
-1.080936e-12
-2.863947e-06
7.015494e-07
7.013226e-07
7.014636e-07
7.011226e-07
-0.0005500238
0.00055008
-1.06454e-12
-2.860839e-06
7.012605e-07
7.01048e-07
7.011886e-07
7.007755e-07
-0.0005501354
0.0005501895
-1.0702e-12
-2.857299e-06
7.009069e-07
7.007061e-07
7.008361e-07
7.00343e-07
-0.0005502426
0.0005502943
-1.047583e-12
-2.853115e-06
7.00466e-07
7.002602e-07
7.003819e-07
6.997699e-07
-0.0005503449
0.0005503938
-1.022094e-12
-2.84799e-06
6.998889e-07
6.99693e-07
6.998178e-07
6.98987e-07
-0.0005504413
0.0005504867
-1.015442e-12
-2.841396e-06
6.991064e-07
6.989258e-07
6.990481e-07
6.97873e-07
-0.0005505305
0.0005505713
-9.919002e-13
-2.832417e-06
6.979723e-07
6.978004e-07
6.979205e-07
6.961988e-07
-0.0005506101
0.0005506448
-9.567712e-13
-2.819369e-06
6.962239e-07
6.961297e-07
6.961473e-07
6.934206e-07
-0.0005506765
0.0005507022
-9.434905e-13
-2.799039e-06
6.933339e-07
6.933502e-07
6.932429e-07
6.884556e-07
-0.0005507232
0.0005507346
-9.165867e-13
-2.764159e-06
6.879945e-07
6.883688e-07
6.879114e-07
6.7734e-07
-0.0005507387
0.0005507308
-8.807962e-13
-2.697089e-06
6.752369e-07
6.772688e-07
6.751693e-07
6.500698e-07
-0.0005507154
0.0005506837
-8.531006e-13
-2.553827e-06
6.427447e-07
6.50018e-07
6.426848e-07
5.492984e-07
-0.0005506984
0.0005508328
-8.087443e-13
-2.265063e-06
5.161068e-07
5.492321e-07
5.160157e-07
4.751382e-07
-0.000551001
0.0005511498
-7.59348e-13
-2.048157e-06
4.746257e-07
4.75056e-07
4.745479e-07
4.620867e-07
-0.0005512858
0.0005514117
-7.420052e-13
-1.97185e-06
4.610075e-07
4.620139e-07
4.609319e-07
4.527199e-07
-0.0005515317
0.0005516427
-6.471302e-13
-1.92101e-06
4.523182e-07
4.526522e-07
4.522513e-07
4.475797e-07
-0.0005517486
0.000551848
-5.16241e-13
-1.889107e-06
4.47327e-07
4.475205e-07
4.472663e-07
4.438843e-07
-0.000551944
0.0005520348
-5.717605e-13
-1.86593e-06
4.437245e-07
4.438327e-07
4.436699e-07
4.410951e-07
-0.0005521232
0.0005522069
-1.855241e-12
-1.848301e-06
4.41182e-07
4.411956e-07
4.410993e-07
4.424708e-07
-0.0005522845
0.0005523639
-6.939801e-13
-1.84586e-06
4.406346e-07
4.425356e-07
4.408156e-07
3.851293e-07
-0.0005524863
0.0005527536
1.398255e-13
-1.871159e-06
4.160128e-07
3.856903e-07
4.170211e-07
3.944345e-07
-0.0005529696
0.0005527979
-6.971983e-13
-1.32515e-06
3.544466e-07
3.937423e-07
3.542005e-07
3.35147e-07
-0.0005527566
0.0005529424
-7.044378e-13
-1.452982e-06
2.976623e-07
3.360526e-07
2.983443e-07
3.244237e-07
-0.0005531399
0.0005533387
-5.885869e-13
-1.484939e-06
3.183285e-07
3.248139e-07
3.186213e-07
3.377446e-07
-0.0005535201
0.0005536838
-5.174404e-13
-1.518248e-06
3.39412e-07
3.378673e-07
3.394845e-07
3.567595e-07
-0.0005538215
0.0005539376
-4.725118e-13
-1.550535e-06
3.604617e-07
3.567515e-07
3.604426e-07
3.73892e-07
-0.0005540343
0.0005541166
-4.895474e-13
-1.584203e-06
3.771027e-07
3.738504e-07
3.770528e-07
3.906445e-07
-0.0005541814
0.0005542331
-4.444494e-13
-1.620137e-06
3.936376e-07
3.905638e-07
3.935701e-07
4.034889e-07
-0.0005542763
0.0005543121
-4.52657e-13
-1.654731e-06
4.059949e-07
4.034445e-07
4.059449e-07
4.135996e-07
-0.0005543424
0.0005543696
-4.507949e-13
-1.684788e-06
4.152137e-07
4.135993e-07
4.152172e-07
4.205776e-07
-0.000554395
0.0005544199
-4.275395e-13
-1.709345e-06
4.216257e-07
4.205933e-07
4.216447e-07
4.25366e-07
-0.000554445
0.0005544713