/*--------------------------------*- C++ -*----------------------------------*\
| =========                 |                                                 |
| \\      /  F ield         | foam-extend: Open Source CFD                    |
|  \\    /   O peration     | Version:     3.1                                |
|   \\  /    A nd           | Web:         http://www.extend-project.de       |
|    \\/     M anipulation  |                                                 |
\*---------------------------------------------------------------------------*/
FoamFile
{
    version     2.0;
    format      ascii;
    class       volScalarField;
    location    "11.5";
    object      nut;
}
// * * * * * * * * * * * * * * * * * * * * * * * * * * * * * * * * * * * * * //

dimensions      [0 2 -1 0 0 0 0];

internalField   nonuniform List<scalar> 
119952
(
5.099296e-05
3.315781e-05
3.491751e-05
4.092341e-05
4.611934e-05
4.544131e-05
4.528258e-05
4.543779e-05
4.554305e-05
4.559581e-05
4.553341e-05
4.535716e-05
4.503614e-05
4.458302e-05
4.403161e-05
4.329425e-05
4.237197e-05
4.13084e-05
4.002452e-05
3.852386e-05
4.66822e-05
4.340096e-05
4.062193e-05
4.796813e-05
4.317689e-05
4.012386e-05
3.928543e-05
4.0285e-05
4.122202e-05
2.640254e-05
3.34169e-05
3.531481e-05
3.965997e-05
4.45168e-05
4.994502e-05
5.589264e-05
6.232278e-05
6.909466e-05
7.611358e-05
8.782469e-05
0.0003721819
0.0004558991
0.0005491389
0.0006458177
0.0007417379
0.0008337329
0.0009191805
0.0009958046
0.001061349
0.001485705
0.001518905
0.001534793
0.001535489
0.001522773
0.001502834
0.001483803
0.001474783
0.001476955
0.001490165
0.001511464
0.001539135
0.001577919
0.001635995
0.001717724
0.001825451
0.001962916
0.002132574
0.002341239
0.002579805
0.002807445
0.003079675
0.003411922
0.003786268
0.004052462
0.004283206
0.00446127
0.004670109
0.004958152
0.005345425
0.005892784
0.00605223
0.006114388
0.006089185
0.005989415
0.00581871
0.005561301
0.005223413
0.004824499
0.004392157
0.003863571
0.00330792
0.002815159
0.002343383
0.001953554
0.001688316
0.001515215
0.001399904
0.001313745
0.001249246
0.00124889
0.001253108
0.001263284
0.001279101
0.001297492
0.001318852
0.001343671
0.00136461
0.001387539
0.001413145
0.001441634
0.001472903
0.001506468
0.001541494
0.001577005
0.001612063
0.001645941
0.001678043
0.001708005
0.001735711
0.00176123
0.001784752
0.001806525
0.001826891
0.001847104
0.001866983
0.001886465
0.001905566
0.001924198
0.001942185
0.001959262
0.001975087
0.001989271
0.00200139
0.00201099
0.002017586
0.002020682
0.002019787
0.002014406
0.002004031
0.001988112
0.001965952
0.001936421
0.001897674
0.001850181
0.001795903
0.001737663
0.001678871
0.001616152
0.001548383
0.00148033
0.001414308
0.001350846
0.001291712
0.001238153
0.001191214
0.001151565
0.001119448
0.001094703
0.001076812
0.001064989
0.001058322
0.0010559
0.001056885
0.001060546
0.001066256
0.00107346
0.001081723
0.001090693
0.001099753
0.001108466
0.001116985
0.001125509
0.001134202
0.001143199
0.001152734
0.00116328
0.001175573
0.001189237
0.001203154
0.001216726
0.00122959
0.0012415
0.00125226
0.001261777
0.001270654
0.00127928
0.001287811
0.001296334
0.001304891
0.001313492
0.001322103
0.001330651
0.001338997
0.001346978
0.001354333
0.001360831
0.001364291
0.001183692
0.0009809466
0.0008955055
0.0008510971
0.0008238364
0.0008043207
0.0007883636
0.0007721775
0.0007532064
0.0007324211
0.0007100844
0.0006864656
0.000661931
0.0006375096
0.0006132289
0.0005890016
0.0005650557
0.0005414469
0.0005186945
0.0004955976
0.0004711864
0.0004461144
0.0004210912
0.0003971325
0.0003752247
0.0003558553
0.0003387659
0.0003233684
0.0003097127
0.0002991856
0.0002934474
0.0002885825
0.0002852144
0.0002852737
0.0002873525
0.0002968178
0.0002896019
0.0002924236
0.0002924765
0.0002893159
0.0002780447
0.0002324756
0.0001718431
0.0001939391
0.0002454412
0.0003010591
0.000354888
0.0003973724
0.0004149597
0.0004176203
0.0004143452
0.0004082837
0.0004017368
0.000393119
0.0003802781
0.0003647909
0.0003495058
0.0003368105
0.0003280796
0.0003227466
0.0003185149
0.0003169731
0.0003206677
0.0003287516
0.0003400723
0.0003543766
0.0003714616
0.0003910152
0.0004126347
0.0004351667
0.0006552798
0.0007244955
0.0008116935
0.0009126723
0.001019484
0.001114663
0.001193866
0.001261483
0.001321224
0.001375341
0.001425096
0.001471318
0.001516736
0.001561864
0.001605388
0.001647446
0.001688308
0.001728193
0.001767269
0.00180565
0.001843398
0.001880512
0.001916942
0.001952588
0.001987303
0.002020867
0.002052958
0.002083214
0.002111322
0.002137031
0.002160143
0.002180473
0.00219784
0.002212059
0.002222941
0.002230292
0.002233945
0.002233818
0.002229966
0.002222528
0.002211652
0.00219746
0.002180053
0.00215952
0.002135948
0.002109334
0.002079727
0.002048243
0.002015509
0.001981656
0.00194675
0.001910933
0.001874496
0.001837904
0.001800226
0.001763185
0.001730434
0.001701405
0.001675158
0.001650958
0.001628294
0.001606834
0.001586371
0.001566787
0.001548018
0.001530031
0.001512813
0.001496357
0.00148066
0.001465716
0.001451516
0.001438043
0.001425273
0.00141318
0.001401733
0.001390896
0.001380631
0.001370895
0.001361643
0.00135283
0.00134441
0.001336338
0.00132857
0.001321066
0.001313782
0.001306677
0.00129971
0.00129284
0.001286027
0.00127923
0.001272412
0.001265532
0.001258556
0.001251446
0.001244172
0.001236701
0.001229007
0.001221067
0.00121286
0.001204374
0.001195601
0.001186538
0.001177192
0.001167575
0.001157705
0.001147611
0.001137327
0.00112689
0.00111635
0.001105762
0.001095169
0.001084616
0.00107415
0.001063811
0.00105365
0.001043718
0.001034065
0.001024742
0.001015794
0.001007263
0.0009991801
0.0009915757
0.0009844712
0.0009778841
0.0009718337
0.0009663223
0.0009613497
0.0009569266
0.0009530703
0.0009497909
0.0009470943
0.0009450044
0.0009435589
0.0009428484
0.0009430363
0.0009444765
0.0009478268
0.0009553171
0.0007550921
6.690234e-05
7.864746e-05
9.594411e-05
0.0001107661
0.0001232915
0.0001344009
0.0001446541
0.0001543169
0.0001654083
0.0004705629
0.0007005006
0.0009251926
0.001118883
0.001277519
0.001407531
0.001517503
0.001614266
0.001702815
0.002437427
0.002565511
0.002697673
0.002826184
0.0029485
0.003062715
0.003167419
0.003261902
0.003346347
0.003420622
0.003486425
0.003545515
0.003601673
0.0036575
0.003713367
0.003768785
0.003823046
0.003875752
0.003926884
0.003956423
0.003967325
0.003988036
0.004020353
0.004063895
0.00411831
0.004183597
0.004259689
0.004346189
0.004442269
0.004547059
0.00465821
0.004774816
0.004893939
0.005011073
0.005120214
0.005213689
0.005283023
0.005319351
0.006079808
0.006016405
0.005918054
0.005797251
0.005673321
0.005539594
0.005396481
0.005255157
0.005125503
0.005014808
0.004928282
0.004871511
0.004844568
0.004844966
0.004867759
0.004908379
0.004989651
0.005131634
0.005342854
0.005626861
0.00598959
0.006444412
0.006987025
0.007588051
0.007067465
0.006773609
0.006714416
0.006878445
0.007299221
0.008022049
0.00909611
0.01
0.01
0.01
0.01
0.01
0.01
0.01
0.009803396
0.009373455
0.008837115
0.008199335
0.007481234
0.006706159
0.005935932
0.005231187
0.004622167
0.004116875
0.003723196
0.003435525
0.003227351
0.003081673
0.002983791
0.002922009
0.002887306
0.0028729
0.002873929
0.002887097
0.00291036
0.002942563
0.002983022
0.003031126
0.003086182
0.00314734
0.0032136
0.0032839
0.003357185
0.00343249
0.003508999
0.003586075
0.003663262
0.003740236
0.003816774
0.003892549
0.003966123
0.004038468
0.004111347
0.004184525
0.004257655
0.004330313
0.004402002
0.004472142
0.004540079
0.004605085
0.004666363
0.004723053
0.004774234
0.004818932
0.00485613
0.004884783
0.004903817
0.004912124
0.004908562
0.004891958
0.004861147
0.004814978
0.004752443
0.004672795
0.004575692
0.004465475
0.004347057
0.004221306
0.004089614
0.003954285
0.003818055
0.003683964
0.003555068
0.003434213
0.00332382
0.003225742
0.003141192
0.00307076
0.003014495
0.002972009
0.002942592
0.002925319
0.002919166
0.00292308
0.002935986
0.00295683
0.002984691
0.003018802
0.003058494
0.003103135
0.003152072
0.003204574
0.003259717
0.003317745
0.003379492
0.003444246
0.003511404
0.003580494
0.003651182
0.003723269
0.003796679
0.003871435
0.003947625
0.004025379
0.004104839
0.004186144
0.004269369
0.004354551
0.00444155
0.004530165
0.004619922
0.004710224
0.004800925
0.00489502
0.00470378
0.00456754
0.004522515
0.004519893
0.004534774
0.004554119
0.004570815
0.004580722
0.004581321
0.004571205
0.004549715
0.004516748
0.004472572
0.004417631
0.004352394
0.004276786
0.004190492
0.004093018
0.00398087
0.003852774
0.003712235
0.003559507
0.003395745
0.003224333
0.003050753
0.00288108
0.002719987
0.002569336
0.002428769
0.002297735
0.002176871
0.002067943
0.00197311
0.001894449
0.001833325
0.0017901
0.001762687
0.001742561
0.00172097
0.001684534
0.001613702
0.001480812
0.001324413
0.00118824
0.001067947
0.0009743049
0.0009268217
0.0008840385
0.0008342285
0.0008527145
0.0009304481
0.001074766
0.00127464
0.00140166
0.001482155
0.001537126
0.001563169
0.001565976
0.001557742
0.001551732
0.001557929
0.001581829
0.001624978
0.001686353
0.001763799
0.001854963
0.001957598
0.002069561
0.002188757
0.002313606
0.002916498
0.003082073
0.003249083
0.003422222
0.003601703
0.00378298
0.003961418
0.004133873
0.004298553
0.004454604
0.004601741
0.004740011
0.004869619
0.004992406
0.005108942
0.005218929
0.005322904
0.005421533
0.005515426
0.00560508
0.005690853
0.005772953
0.005851443
0.005926268
0.00599727
0.006064152
0.006126485
0.00618383
0.006235818
0.006282155
0.006322582
0.006356849
0.006384702
0.006405884
0.006420134
0.00642719
0.006426795
0.006418859
0.006403545
0.006381079
0.006351663
0.006315455
0.006272581
0.006223165
0.006167379
0.006105542
0.006038227
0.005966229
0.005890113
0.005810146
0.005726574
0.005639927
0.00555078
0.005460108
0.00536868
0.005277218
0.005186696
0.005097993
0.005011781
0.004928532
0.004848582
0.004772158
0.004699393
0.00463034
0.004564977
0.004503228
0.004444969
0.004390052
0.004338308
0.004289562
0.004243631
0.004200333
0.004159486
0.004120909
0.004084427
0.004049869
0.004017072
0.003985879
0.00395614
0.003927713
0.003900464
0.003874264
0.003848993
0.003824536
0.00380078
0.003777617
0.003754942
0.003732649
0.003710636
0.003688799
0.003667034
0.00364524
0.003623314
0.003601154
0.003578663
0.003555742
0.003532301
0.00350825
0.00348351
0.003458008
0.003431683
0.003404485
0.003376375
0.00334733
0.003317344
0.003286426
0.0032546
0.003221908
0.00318841
0.00315418
0.003119308
0.003083895
0.003048053
0.00301191
0.0029756
0.002939264
0.00290305
0.002867104
0.002831572
0.002796592
0.002762299
0.002728818
0.002696266
0.002664743
0.002634347
0.002605157
0.002577258
0.002550704
0.002525569
0.002501887
0.002479743
0.002459157
0.002440269
0.002423047
0.002407762
0.002394295
0.002384216
0.002379494
0.002379684
2.710011e-05
3.264251e-05
4.091929e-05
5.054576e-05
6.178924e-05
7.495431e-05
9.054697e-05
0.0001090694
0.0001312519
0.0001688475
0.0007626227
0.0008999718
0.001045349
0.001200593
0.001365403
0.001543449
0.001744051
0.001990774
0.002485408
0.004180483
0.004422283
0.004624238
0.004801091
0.004962158
0.005118124
0.005270921
0.005423443
0.005585957
0.006032755
0.006409598
0.006565246
0.006674268
0.006764201
0.006840918
0.00690727
0.00696508
0.007016685
0.007068554
0.006989248
0.00706267
0.007167647
0.007265096
0.007344857
0.007407055
0.007454402
0.007489874
0.00751647
0.007536707
0.007554204
0.007574668
0.007598679
0.007625314
0.007652566
0.007678477
0.007701385
0.007718424
0.008509896
0.008521869
0.00852466
0.008522729
0.008517928
0.008510695
0.008500977
0.008488504
0.008473376
0.00845563
0.008435257
0.008413356
0.008390815
0.008367816
0.008344536
0.008321023
0.008297284
0.008273571
0.00825034
0.008227456
0.008205468
0.008186305
0.00817121
0.008161534
0.008158928
0.008165091
0.008181458
0.008209075
0.00824844
0.008299999
0.008363643
0.008438537
0.008522514
0.008611719
0.008699947
0.008778766
0.008838753
0.0088701
0.008841099
0.008773705
0.008668518
0.008532062
0.008362268
0.008161103
0.007944453
0.007726552
0.007519291
0.0073312
0.007169693
0.007041222
0.006950175
0.00689844
0.006886313
0.006912213
0.006970008
0.007073508
0.007251107
0.007517397
0.007887227
0.008367467
0.008945532
0.009585003
0.008627648
0.008080118
0.007984409
0.00828709
0.009027889
0.01000001
0.01000001
0.01000001
0.01
0.01
0.01
0.01000004
0.01000017
0.01000058
0.01000095
0.01000068
0.01000016
0.01000001
0.009956955
0.00926872
0.008525907
0.007771617
0.007049362
0.00638945
0.005815647
0.00534338
0.004964586
0.004666542
0.004438131
0.004267834
0.004145024
0.004060574
0.004006927
0.00397813
0.003969728
0.003978531
0.004002275
0.004039277
0.004088146
0.004147604
0.004216376
0.004293179
0.004376745
0.004465864
0.004559446
0.004656556
0.004756426
0.00485844
0.004962124
0.005067052
0.00517263
0.005277123
0.005379593
0.005482718
0.005586216
0.005689636
0.005792451
0.005894055
0.005993751
0.006090756
0.006184209
0.006273167
0.006356614
0.006433459
0.006502551
0.006562699
0.006612686
0.006651271
0.006677184
0.006689122
0.006685777
0.006665888
0.006628274
0.006571796
0.006495247
0.006396587
0.006277951
0.006144814
0.005998832
0.005842157
0.005677432
0.005507707
0.005336327
0.005166775
0.0050025
0.004846725
0.004702279
0.004571487
0.004456111
0.004357329
0.004275748
0.004211456
0.00416412
0.004133065
0.004117365
0.004115933
0.004127635
0.004151349
0.004185973
0.00423041
0.004283521
0.004344053
0.004410492
0.004480854
0.004555937
0.004636632
0.004722195
0.004812013
0.00490561
0.005002639
0.005102883
0.005206242
0.005312726
0.005422426
0.005535488
0.005652079
0.005772341
0.005896349
0.006024056
0.006155198
0.00628938
0.006425627
0.006563226
0.006699465
0.006820502
0.006952384
0.007086063
0.007215326
0.00733628
0.007446202
0.007542969
0.007624886
0.007690667
0.007739386
0.00777047
0.007783728
0.0077794
0.007758111
0.00772068
0.007667748
0.007599357
0.007514635
0.0074117
0.007287807
0.007139783
0.006969516
0.006780369
0.006575661
0.006361147
0.006143856
0.005930003
0.00572297
0.005522868
0.005328119
0.00513804
0.004954524
0.004781852
0.004625033
0.00448783
0.00437099
0.004270821
0.004179944
0.004088913
0.003984472
0.003851361
0.003682107
0.003482193
0.003248437
0.002982093
0.002700806
0.002434256
0.002211356
0.002051077
0.001960515
0.001935561
0.001708872
0.001615825
0.001674775
0.001867441
0.00214875
0.002381144
0.002460537
0.002537543
0.002617629
0.002706891
0.002810244
0.0029307
0.003069384
0.003226342
0.00340019
0.003573545
0.003763405
0.003997423
0.004210658
0.004387929
0.004576443
0.004776869
0.004987374
0.005204877
0.005425363
0.005644733
0.005859421
0.006066613
0.006264212
0.006450722
0.006625111
0.006786742
0.006935562
0.007073177
0.007200487
0.007318365
0.007427719
0.007529439
0.007624331
0.007713065
0.007796147
0.007873919
0.007946584
0.008014232
0.008076813
0.008134159
0.008186193
0.008232891
0.008274247
0.008310245
0.008340829
0.008365897
0.008385309
0.008398884
0.008406393
0.008407493
0.008401809
0.008389813
0.008371844
0.008348019
0.008318322
0.008282629
0.008240689
0.008192077
0.008136659
0.008074841
0.008007059
0.007933565
0.007854337
0.007769564
0.007679827
0.007585974
0.007488997
0.007389929
0.007289645
0.007189123
0.007089261
0.006990795
0.006894328
0.006800368
0.006709334
0.00662155
0.006537245
0.006456562
0.006379563
0.006306247
0.006236565
0.00617043
0.006107731
0.006048334
0.005992089
0.005938833
0.005888392
0.005840586
0.005795233
0.005752153
0.005711167
0.005672102
0.005634791
0.005599073
0.005564792
0.005531801
0.005499959
0.005469128
0.005439177
0.005409974
0.005381392
0.005353303
0.00532558
0.005298094
0.005270717
0.005243318
0.005215768
0.005187935
0.005159689
0.005130902
0.005101448
0.005071206
0.005040063
0.005007914
0.004974665
0.004940236
0.004904559
0.004867587
0.004829287
0.004789648
0.004748679
0.004706413
0.004662901
0.004618215
0.004572449
0.004525714
0.004478141
0.004429874
0.004381073
0.004331908
0.004282557
0.0042332
0.004184021
0.004135198
0.004086912
0.004039327
0.003992609
0.003946905
0.003902362
0.003859104
0.003817263
0.00377693
0.003738231
0.00370123
0.003666057
0.003632761
0.003601512
0.003572371
0.003545759
0.003521944
0.003501626
0.003485518
3.419244e-05
5.482678e-05
0.0001216522
0.0004066394
0.0006967492
0.001234815
0.001654443
0.002158717
0.002742848
0.003221152
0.003572998
0.003857946
0.004147109
0.004457027
0.004778193
0.005107428
0.005447968
0.005802827
0.006172598
0.006554886
0.006943368
0.007319759
0.007643491
0.007930562
0.008198381
0.008450846
0.008694926
0.0089348
0.009175116
0.009425224
0.009731567
0.01
0.01
0.01
0.01
0.01
0.01
0.01
0.01
0.01
0.01
0.01
0.01
0.009987255
0.009883969
0.009794724
0.009730354
0.009691805
0.009680141
0.009695455
0.009717263
0.009740445
0.009793953
0.009861999
0.009945222
0.01
0.01
0.01
0.01
0.01
0.01
0.01
0.01
0.01
0.01
0.01
0.01
0.01
0.01
0.01
0.01
0.01
0.01
0.01
0.01
0.01
0.01
0.01
0.01
0.01
0.01
0.01
0.01
0.01
0.01
0.01
0.01
0.01
0.01
0.01
0.01
0.009991483
0.00996577
0.009946906
0.00993681
0.00993712
0.009949093
0.009973877
0.01
0.01
0.01
0.01
0.01
0.01
0.01
0.01
0.009789725
0.009442033
0.009209673
0.009064496
0.008972927
0.008941262
0.008966368
0.00906207
0.009200545
0.009187914
0.009000428
0.00883632
0.008703595
0.008607349
0.008551292
0.008538178
0.008570028
0.008646837
0.008796814
0.009044339
0.009406766
0.00988694
0.01
0.01
0.009546952
0.009096511
0.009242356
0.009813099
0.01000028
0.01000028
0.01000018
0.01000004
0.01000001
0.01000001
0.01000005
0.01000037
0.01000428
0.01000822
0.01000402
0.01000064
0.01000003
0.01
0.01
0.01
0.01
0.00979621
0.00911736
0.00845132
0.007824866
0.007262163
0.006773843
0.006360958
0.006020084
0.005745123
0.005528619
0.00536275
0.005239967
0.005153449
0.005097391
0.005067093
0.005058859
0.005069796
0.005097583
0.005140264
0.005196096
0.005263465
0.005340849
0.005426828
0.005520101
0.005619524
0.005724117
0.005833061
0.005945689
0.006061441
0.00617979
0.006300012
0.006420617
0.006539839
0.006660326
0.006781621
0.006903145
0.007024253
0.007144222
0.007262245
0.007377436
0.007488833
0.007595401
0.007696024
0.007789516
0.007874644
0.007950138
0.008014695
0.008066976
0.008105607
0.008129248
0.008136627
0.008126529
0.008097759
0.008049052
0.00797897
0.007885691
0.007771772
0.007640089
0.007492289
0.007330475
0.007157176
0.006975283
0.00678799
0.00659873
0.006411031
0.006228372
0.006054057
0.005891104
0.005742136
0.005609291
0.005494138
0.005397665
0.005320297
0.005261951
0.005222119
0.005199981
0.005194496
0.005204487
0.005228677
0.005265713
0.005314149
0.005372398
0.005438627
0.005510691
0.005589762
0.005676091
0.005768823
0.005867278
0.00597093
0.006079411
0.006192507
0.00631015
0.006432403
0.006559423
0.006691427
0.006828638
0.006971226
0.007119236
0.007272502
0.007430612
0.007592765
0.007757944
0.007924652
0.008090241
0.008253711
0.00841361
0.008567965
0.008714711
0.008851713
0.008976785
0.009087747
0.009183192
0.009262023
0.009323345
0.009366602
0.009391706
0.009399104
0.009389665
0.009364265
0.009323281
0.009266252
0.009191864
0.009098121
0.008982631
0.008843203
0.008681075
0.008498849
0.008302192
0.008098721
0.007895329
0.007695462
0.007498422
0.007301726
0.007104549
0.006909552
0.006722133
0.006548229
0.006391931
0.006253756
0.006130512
0.006016285
0.005902524
0.005777349
0.005629019
0.005450628
0.005237667
0.004982075
0.004679187
0.004335488
0.003970207
0.003611013
0.003287025
0.003019854
0.002826012
0.002713799
0.002674868
0.002308364
0.002143557
0.002216191
0.002452351
0.002764185
0.003041196
0.003142352
0.003259935
0.00339826
0.003559172
0.003665725
0.003765156
0.003904249
0.004088759
0.00432098
0.004604054
0.004926816
0.005302549
0.005708006
0.005953059
0.006198107
0.006443293
0.006686922
0.006926467
0.007159174
0.00738246
0.007594109
0.007792353
0.007975882
0.008143848
0.008295779
0.00843277
0.008556472
0.008668108
0.008768848
0.008859896
0.008942473
0.009017625
0.009086156
0.009148681
0.009205663
0.009257431
0.009304115
0.00934557
0.009382276
0.009414661
0.009443076
0.009467804
0.009489056
0.00950696
0.009521564
0.009532832
0.009540649
0.0095448
0.009494414
0.009437004
0.009397905
0.009377114
0.009373739
0.009385956
0.009409384
0.009431208
0.009395223
0.009353449
0.009305781
0.00925173
0.009190101
0.009120755
0.009044655
0.008962895
0.00887659
0.008786849
0.008694682
0.008601043
0.008506798
0.008412687
0.008319376
0.008227467
0.00813748
0.00804984
0.007964878
0.007882836
0.007803877
0.007728091
0.007655524
0.007586176
0.007520018
0.007456989
0.007397002
0.007339951
0.007285705
0.007234124
0.007185056
0.007138346
0.007093836
0.007051369
0.00701079
0.006971944
0.006934683
0.006898864
0.006864347
0.006830997
0.006798681
0.00676727
0.006736633
0.006706643
0.006677169
0.006648079
0.006619239
0.006590511
0.006561757
0.006532831
0.00650359
0.006473886
0.006443573
0.006412505
0.006380542
0.006347547
0.006313395
0.006277968
0.006241163
0.006202891
0.006163084
0.006121689
0.006078677
0.006034042
0.0059878
0.005939993
0.005890684
0.00583996
0.00578793
0.005734722
0.005680486
0.005625383
0.005569592
0.005513299
0.005456697
0.005399982
0.005343354
0.005287007
0.005231133
0.005175915
0.005121533
0.005068152
0.005015932
0.004965017
0.004915543
0.004867641
0.004821421
0.004777036
0.004734561
0.004694258
0.004656136
0.004620704
0.004587837
0.004560489
1.924319e-05
3.10469e-05
4.664156e-05
0.0001996223
0.0003266593
0.0005515095
0.0007739412
0.0009780806
0.001235421
0.001488263
0.001763684
0.002121328
0.002549288
0.003039719
0.003601454
0.004333536
0.005738015
0.006325357
0.006907065
0.007444143
0.007926137
0.008351587
0.008739817
0.0091045
0.009451673
0.009783674
0.01
0.01
0.01
0.01
0.01
0.01
0.01
0.01
0.01
0.01
0.01
0.01
0.01
0.01
0.01
0.01
0.01
0.01
0.01
0.01
0.01
0.01
0.01
0.009962404
0.009688097
0.009398907
0.009173075
0.008986794
0.008826795
0.008692579
0.008586275
0.008508064
0.00845888
0.008435074
0.008437602
0.008461966
0.008497832
0.008551539
0.00862012
0.008701156
0.008795312
0.008902865
0.0090264
0.009169002
0.009329174
0.009522161
0.009733737
0.009954303
0.01
0.01
0.01
0.01
0.01
0.01
0.01
0.01
0.01
0.01
0.01
0.01
0.01
0.01
0.01
0.01
0.01
0.01
0.01
0.01
0.01
0.01
0.01
0.01
0.01
0.01
0.01
0.01
0.01
0.01
0.01
0.01
0.01
0.01
0.01
0.01
0.01
0.01
0.01
0.01
0.01
0.01
0.01
0.009564448
0.009170548
0.008849229
0.008607508
0.008473284
0.008455492
0.008564865
0.008796192
0.009124079
0.00952037
0.009950494
0.01
0.01
0.009940462
0.00985761
0.009816051
0.009822864
0.009885492
0.01
0.01
0.01
0.01
0.01
0.01
0.01
0.01000002
0.0100003
0.01000188
0.01000285
0.01000177
0.01000041
0.01000003
0.01000001
0.01000008
0.0100009
0.0100065
0.01000878
0.01000878
0.01000465
0.01000062
0.01000002
0.01
0.01
0.01
0.01
0.01
0.01
0.01
0.00947118
0.008909169
0.008391973
0.007929255
0.007525647
0.007181751
0.006895393
0.006662534
0.006478018
0.00633623
0.006231661
0.006159284
0.006114744
0.006094375
0.006095116
0.006114381
0.006149937
0.006199805
0.006262196
0.00633549
0.00641823
0.006509125
0.006607065
0.006711105
0.006820458
0.006934468
0.00705256
0.007174153
0.007298457
0.007423896
0.007549269
0.007676447
0.00780483
0.007933755
0.008062503
0.008190292
0.00831626
0.008439473
0.00855892
0.008673506
0.008782093
0.008883506
0.008976514
0.009059813
0.009132014
0.0091916
0.009237182
0.009267639
0.009281858
0.00927873
0.009257105
0.009215733
0.009153201
0.009068473
0.008963684
0.008839823
0.008698482
0.008541595
0.008371409
0.008190446
0.008001528
0.007807688
0.007612174
0.007418363
0.007229654
0.007049371
0.006880623
0.006726142
0.006588174
0.00646841
0.006367952
0.00628732
0.006226502
0.00618504
0.006162126
0.006156683
0.006167434
0.006192948
0.006231647
0.006281769
0.006341314
0.006408268
0.006484191
0.00656836
0.006659899
0.006758091
0.006862397
0.006972469
0.00708815
0.00720946
0.007336564
0.007469727
0.007609264
0.007755459
0.007908485
0.0080683
0.008234588
0.008406674
0.008583537
0.008763758
0.008945383
0.009126111
0.009303726
0.009475858
0.009640625
0.009796148
0.009940463
0.01
0.01
0.01
0.01
0.01
0.01
0.01
0.01
0.01
0.01
0.01
0.01
0.01
0.01
0.01
0.01
0.009920746
0.009762602
0.009596476
0.009428314
0.009260618
0.009091836
0.008919454
0.008743406
0.008566675
0.00839516
0.008234714
0.008088875
0.007957845
0.007839087
0.007727858
0.00761686
0.007496733
0.007358153
0.007193148
0.006994076
0.006752035
0.006459127
0.006112541
0.005717953
0.005291592
0.004858048
0.004444357
0.004077451
0.003779079
0.00356454
0.003437183
0.003133271
0.002673738
0.002590627
0.002747801
0.00301762
0.00329791
0.003522908
0.003676906
0.003783138
0.003877844
0.003990323
0.004139354
0.004336295
0.004590815
0.004910204
0.005308164
0.005827839
0.006456108
0.006796709
0.007058718
0.007315824
0.007567626
0.007812584
0.00804859
0.008273378
0.008484794
0.008680977
0.00886046
0.009022245
0.009165588
0.009291577
0.009402038
0.009498436
0.009582228
0.009654816
0.009717963
0.009773463
0.0098224
0.009865556
0.009903567
0.009936946
0.009966021
0.009922867
0.009861443
0.009793119
0.009717454
0.009636244
0.009552306
0.00946928
0.009391142
0.009321248
0.009261718
0.009213246
0.009176959
0.009155133
0.009149922
0.009162361
0.009191192
0.009234033
0.009288815
0.009356003
0.009442577
0.009561809
0.009721635
0.009900813
0.01
0.009952641
0.009895901
0.009832434
0.00976345
0.009690071
0.009613315
0.009534103
0.009453238
0.009371332
0.009288986
0.009206948
0.009125833
0.009046139
0.008968256
0.008892478
0.008819011
0.008748016
0.00867961
0.008613873
0.008550845
0.008490527
0.008432894
0.008377886
0.008325425
0.008275409
0.00822773
0.008182266
0.008138894
0.008097484
0.008057906
0.008020029
0.007983722
0.00794886
0.007915317
0.007882975
0.007851712
0.007821414
0.007791961
0.007763237
0.007735123
0.007707497
0.007680233
0.007653201
0.007626265
0.007599284
0.007572112
0.007544599
0.007516591
0.007487932
0.007458466
0.007428042
0.007396509
0.007363728
0.007329567
0.007293907
0.007256646
0.007217699
0.007176999
0.007134505
0.007090197
0.00704408
0.006996182
0.006946558
0.006895285
0.006842465
0.006788218
0.006732688
0.006676032
0.006618423
0.006560044
0.006501088
0.006441751
0.006382234
0.006322736
0.006263453
0.006204577
0.006146294
0.006088778
0.006032198
0.005976705
0.005922458
0.005869576
0.005818234
0.005768509
0.005720649
0.005674626
0.0056309
0.005589401
0.005554158
1.764496e-05
2.709978e-05
5.24008e-05
0.000158599
0.0002558965
0.0004062948
0.0005208264
0.0006510591
0.0008041019
0.0009537225
0.001128784
0.00135552
0.001615661
0.00192656
0.002333236
0.003118104
0.003488938
0.003891983
0.004320163
0.004773175
0.005256366
0.005762963
0.006280795
0.006797465
0.007299384
0.007776409
0.008243504
0.00876761
0.009270848
0.009738834
0.01
0.01
0.01
0.01
0.01
0.01
0.01
0.01
0.01
0.01
0.01
0.01
0.01
0.01
0.01
0.01
0.01
0.01
0.01
0.01
0.01
0.01
0.01
0.01
0.01
0.01
0.009693389
0.009356606
0.009029792
0.008719903
0.008429472
0.008167125
0.007950177
0.007775115
0.007634461
0.007527838
0.00745169
0.007404937
0.007387462
0.007398018
0.007434215
0.007494076
0.007572617
0.007667594
0.007776408
0.007899728
0.008042708
0.008205449
0.008410159
0.008659161
0.008956623
0.009288961
0.00964513
0.01
0.01
0.01
0.01
0.01
0.01
0.01
0.01
0.01
0.01
0.01
0.01
0.01
0.01
0.01
0.01
0.01
0.01
0.01
0.01
0.01
0.01
0.01
0.01
0.01
0.01
0.01
0.01
0.01
0.01
0.01
0.01
0.01
0.01
0.01
0.01
0.01
0.01
0.01
0.01
0.01
0.01
0.01
0.01
0.01
0.009823558
0.009352747
0.008919589
0.008579438
0.008370366
0.008323005
0.008456014
0.008766869
0.009231468
0.009778455
0.01
0.01
0.01
0.01
0.01
0.01
0.01
0.01
0.01
0.01
0.01
0.01
0.01
0.01000001
0.0100001
0.01000199
0.01000585
0.01000561
0.01000218
0.01000031
0.01000002
0.01000004
0.01000043
0.0100063
0.01000969
0.01000486
0.01000156
0.01000111
0.01000071
0.01000039
0.01000018
0.01000005
0.01000001
0.01
0.01
0.01
0.01
0.01
0.01
0.009704917
0.009242462
0.008823414
0.008451726
0.008129414
0.00785613
0.007629763
0.007446955
0.007303643
0.007195551
0.007118544
0.007068838
0.00704308
0.007038339
0.007052051
0.007081962
0.007126072
0.007182604
0.00724999
0.007326858
0.007412026
0.007504489
0.007603406
0.007708068
0.007817867
0.007932244
0.008050604
0.0081721
0.00829487
0.008419165
0.008545485
0.008673183
0.008801593
0.008929993
0.009057605
0.009183589
0.009306989
0.009426662
0.009541492
0.009650573
0.00975284
0.00984708
0.009931947
0.01
0.01
0.01
0.01
0.01
0.01
0.01
0.01
0.01
0.009984603
0.009889071
0.009775207
0.009644396
0.009498235
0.009338532
0.00916722
0.008986128
0.008797723
0.008605089
0.008411465
0.008220185
0.008034589
0.007857939
0.007693257
0.007543192
0.007409911
0.007295014
0.007199499
0.007123786
0.007067777
0.00703094
0.007012384
0.007010938
0.007025202
0.007053567
0.007094195
0.00714492
0.007204674
0.007274312
0.007352745
0.007439064
0.007532563
0.007632754
0.007739375
0.007852384
0.007971933
0.00809832
0.008231928
0.008373145
0.008522259
0.008679343
0.008844176
0.009016136
0.009194194
0.009376888
0.009562176
0.009747859
0.009931732
0.01
0.01
0.01
0.01
0.01
0.01
0.01
0.01
0.01
0.01
0.01
0.01
0.01000001
0.01000001
0.01000001
0.01000001
0.01
0.01
0.01
0.01
0.01
0.01000004
0.01000079
0.01000525
0.01000629
0.01000417
0.01000089
0.01000005
0.009907671
0.0097682
0.009638661
0.009520962
0.009414492
0.009316733
0.00922388
0.009130033
0.009027938
0.008910381
0.008770186
0.008599353
0.008388656
0.008129627
0.00781549
0.007443416
0.007017207
0.006548922
0.006058292
0.00557068
0.005114685
0.004719029
0.004407621
0.004192578
0.004029552
0.003272372
0.003019977
0.003093281
0.003321867
0.003579978
0.003796509
0.003958468
0.004089348
0.004220442
0.004379436
0.004586582
0.004858158
0.005210203
0.005664042
0.006248539
0.006950948
0.007361002
0.007623008
0.007877031
0.008123893
0.008362844
0.008592209
0.008809859
0.00901356
0.009201237
0.009371146
0.009522021
0.009652933
0.009765174
0.00986011
0.009939354
0.01
0.01
0.009848259
0.009710929
0.009595949
0.009495786
0.009406399
0.009325544
0.009250503
0.009177904
0.009106465
0.009036215
0.008968156
0.008903419
0.008843303
0.008789954
0.008746423
0.008715746
0.008699664
0.00869795
0.008709311
0.008731637
0.008766521
0.008815652
0.008879628
0.008958737
0.009052744
0.009161286
0.009286158
0.009434358
0.00961526
0.009821217
0.01
0.01
0.01
0.01
0.01
0.01
0.01
0.01
0.01
0.009993481
0.009923945
0.009853974
0.009784208