/*--------------------------------*- C++ -*----------------------------------*\
| =========                 |                                                 |
| \\      /  F ield         | foam-extend: Open Source CFD                    |
|  \\    /   O peration     | Version:     3.1                                |
|   \\  /    A nd           | Web:         http://www.extend-project.de       |
|    \\/     M anipulation  |                                                 |
\*---------------------------------------------------------------------------*/
FoamFile
{
    version     2.0;
    format      ascii;
    class       volScalarField;
    location    "12";
    object      alpha1;
}
// * * * * * * * * * * * * * * * * * * * * * * * * * * * * * * * * * * * * * //

dimensions      [0 0 0 0 0 0 0];

internalField   nonuniform List<scalar> 
119952
(
0.9993938
0.9996367
0.9999961
0.9994379
0.9969808
0.9995219
0.9998359
0.9988716
0.9992588
0.9988445
0.9988932
0.9983949
0.9990277
0.9999985
1
0.9999226
0.999346
1
0.999842
0.9999412
0.9999594
0.9995955
0.9983132
0.9999793
0.9935084
0.9999045
0.9995385
0.9999997
0.9999999
1
0.9999959
0.9999814
0.9999508
0.9999973
0.9999059
0.9999986
0.9960916
0.9999977
0.9999976
0.9995957
0.9998064
0.9936245
0.9999097
0.9988247
0.9986033
0.999975
0.9999998
0.9999995
0.998794
0.9823156
0.9997628
0.9988844
0.9939223
0.9997373
0.9994921
0.9992081
0.9989931
0.9979223
0.9995366
0.9995466
0.9995466
0.9974454
0.9929743
0.998742
0.9999651
0.9997037
0.9992387
0.9991981
0.9989098
0.9953351
0.9994413
0.9998338
0.999655
0.999704
0.99797
0.9937515
0.9905408
0.9957877
0.9990799
0.9985654
0.9904008
0.9791461
0.9772084
0.9919764
0.9991407
0.9999834
0.9993692
0.9998837
0.9963139
0.9981277
0.9990241
0.9939408
0.9957998
0.9993375
0.985508
0.9932048
0.9986904
0.9999583
0.999689
0.9990577
0.9999509
0.9999787
0.9988911
0.9974148
0.9998241
0.9988932
0.9982468
0.9989069
0.9995142
0.9994876
0.9972957
0.996495
0.9989749
0.9998095
0.989899
0.99947
0.9975351
0.9908716
0.9999181
0.9999902
0.9989058
0.9910544
0.9844471
0.999637
0.9994406
0.9999651
0.9999997
0.9999934
0.9999915
0.9999953
0.999998
0.9999809
0.9994794
0.9992983
0.999858
0.9999984
0.9999945
0.9999461
0.9999844
0.9999996
0.9999996
0.9999997
0.999996
0.9997939
0.9992976
0.9998418
0.99998
0.9999725
0.9996802
0.9996153
0.9993251
0.9995309
0.9996615
0.9995142
0.998235
0.9988378
0.9997382
0.9999645
0.9999507
0.9991629
0.9917008
0.995374
0.9987673
0.9861567
0.9948619
0.9996187
0.9999703
0.999937
0.9987133
0.9988883
0.9999586
1
1
0.9999811
0.9979971
0.9984173
0.9999463
0.999481
0.9999717
0.9999998
0.9999575
0.9998709
0.9999882
1
0.9999476
0.9999475
0.9999738
0.9999848
0.9999989
0.9999995
0.9999998
0.9999998
0.9999996
0.999999
0.9999982
0.9999992
0.9999975
1
0.9999999
0.9999973
0.999995
0.9999999
1
1
1
1
0.9999999
0.9999999
1
0.9999995
1
0.9999997
0.9999985
0.9999998
1
1
1
1
1
1
1
0.9999999
0.9999999
0.9999993
0.9999986
0.9999996
0.9999999
1
1
1
1
1
1
1
1
1
1
1
1
1
1
1
1
1
1
1
0.9999999
1
1
1
1
1
1
1
1
1
1
1
1
1
1
1
1
1
1
1
1
1
1
1
1
1
1
1
1
1
1
1
1
1
1
1
1
1
1
1
1
1
1
1
1
1
1
1
1
1
1
1
1
1
1
1
1
1
1
1
1
1
1
1
1
1
1
1
1
1
1
1
1
1
1
1
1
1
1
1
1
1
1
1
1
1
1
1
1
1
1
1
1
1
1
1
1
1
1
1
1
1
1
1
1
1
1
1
1
1
1
1
1
1
1
1
1
1
1
1
1
1
1
1
1
1
1
1
1
1
1
1
1
1
1
1
1
1
1
1
1
1
1
1
1
1
1
1
1
1
1
1
1
1
1
1
1
1
1
1
1
1
1
0.9999999
0.9999998
0.9999972
0.9999929
0.9999912
0.9999961
0.9999967
0.9999973
0.999963
0.9999888
1
1
1
1
1
0.9998211
0.9999191
0.9999892
0.9995651
0.9997914
0.9999694
0.9998623
0.9999894
0.9999986
0.9999954
0.999512
0.9998015
0.9999983
0.9998845
0.9999767
0.9999998
0.9999957
0.9999245
0.9995734
0.9999906
0.9997415
0.9997855
0.9990936
0.994628
0.9987937
0.9949318
0.9992971
0.9999808
0.9999893
0.9999864
0.9998928
0.9968197
0.9984372
0.997714
0.979714
0.9797217
0.9981286
0.9979477
0.9979857
0.9945824
0.9843488
0.957415
0.9301156
0.9276863
0.9276863
0.9276863
0.9311049
0.9626354
0.9732439
0.9793256
0.9916538
0.9964149
0.997276
0.9972893
0.9970383
0.9980408
0.9992785
0.9995326
0.9994129
0.9980634
0.9941656
0.9895968
0.9862973
0.9808657
0.9724567
0.9594526
0.9249247
0.8429696
0.7415892
0.4431311
0.2158025
0.2245773
0.4764519
0.869446
0.9891476
0.9995678
0.9999307
0.9994405
0.9989622
0.9943034
0.9930156
0.9958339
0.9982469
0.9978702
0.9978212
0.9984302
0.9957694
0.9950286
0.9971962
0.9995374
0.9998939
0.9998143
0.9996122
0.9998835
0.9999829
0.9999829
0.9975602
0.9990068
0.9992382
0.994826
0.9888986
0.9979847
0.9893358
0.979272
0.9971339
0.9851607
0.9788682
0.9991278
0.9998507
0.999768
0.999192
0.9991359
0.9998405
0.9999916
0.9999978
0.9999902
0.9999283
0.9998623
0.9998623
0.9998806
0.9999759
0.9999967
0.9999985
0.9999985
0.9999985
0.9999985
0.9999985
0.9999985
0.9999979
0.9999967
0.9999971
0.999998
0.9999985
0.9999986
0.9999986
0.9999951
0.9999857
0.9999826
0.9999618
0.999947
0.9999426
0.999908
0.999871
0.9998717
0.9999329
0.9999197
0.9998697
0.9999229
0.9999247
0.9999247
0.9999048
0.9997363
0.99856
0.9894689
0.9800138
0.9800138
0.9810772
0.9921288
0.9990202
0.999975
0.9999994
0.9999955
0.9999733
0.999882
0.9996762
0.9996793
0.9997289
0.9999073
0.9998641
0.9987722
0.9978543
0.9990791
0.9999235
0.999852
0.9989351
0.9970319
0.999164
0.9995819
0.9998288
0.9998698
0.9998096
0.9994337
0.998997
0.9986968
0.9993795
0.9999497
0.9999968
0.9999968
0.9999968
0.9999848
0.9996993
0.9997624
0.9999656
0.9999493
0.9999713
0.9999975
0.9999999
1
1
0.9999999
0.9999998
0.9999993
0.9999976
0.9999886
0.9999974
0.9999998
1
0.9999999
0.9999989
0.9999989
0.9999987
0.9999989
0.999999
0.999998
0.9999949
0.999998
0.999998
0.9999994
0.9999977
0.9999314
0.9999737
0.9999986
0.9999493
0.9999661
0.9999991
0.9999983
0.9999985
1
1
1
1
1
1
1
1
1
0.9999989
0.9999973
0.9999995
0.9999979
0.9999905
0.9999826
0.9999553
0.9998134
0.9999255
0.9998922
0.9998915
0.999889
0.9997247
0.999832
0.9998245
0.9999581
0.9999993
1
1
1
1
1
1
1
1
1
1
0.9999999
0.9999997
0.9999991
0.9999984
0.9999974
0.9999944
0.9999849
0.9999752
0.9999783
0.9999912
0.9999974
0.9999994
0.9999998
0.9999999
0.9999999
0.9999998
0.9999992
0.9999963
0.9999877
0.9999831
0.9999841
0.9999895
0.9999966
0.9999997
1
1
1
1
1
1
1
1
1
1
1
1
1
1
1
1
1
1
1
1
1
1
1
1
1
1
1
1
1
1
1
1
1
1
1
1
1
1
1
1
1
1
1
1
1
1
1
1
1
1
1
1
1
1
1
1
1
1
1
1
1
1
1
1
1
1
1
1
1
1
1
1
1
1
1
1
1
1
1
1
1
1
1
1
1
1
1
1
1
1
1
1
1
1
1
1
1
1
1
1
1
1
1
1
1
1
1
1
1
1
1
1
1
1
0.9999997
1
0.9999999
1
1
1
1
1
1
1
1
1
0.9999996
0.9999999
1
1
0.9999997
0.9999997
0.9999999
0.9999979
0.9999991
1
1
1
0.9999993
0.9999999
0.9999996
0.9999998
0.9999999
0.9999927
0.9990686
0.9962941
0.9995572
0.999615
0.9998957
0.9999797
0.999986
0.9999356
0.9999926
0.9999931
0.9999692
0.9997708
0.9997942
0.9998044
0.9996096
0.9994332
0.9990653
0.9987197
0.9998887
0.9985273
0.9985189
0.9994325
0.9999089
0.999846
0.9997311
0.9998675
0.999974
0.9999718
0.9998336
0.9991513
0.9993767
0.9999091
0.9999887
0.9999874
0.9999954
0.9999964
0.9999502
0.9997041
0.9995539
0.9998148
0.9996659
0.9989616
0.9988465
0.9996766
0.9993378
0.99854
0.9989144
0.9983311
0.9936544
0.9902754
0.9910511
0.9979957
0.9994441
0.9988309
0.9953077
0.9914481
0.9972988
0.9990257
0.9917018
0.9446496
0.8569718
0.8423078
0.9269405
0.971386
0.9704861
0.9465114
0.9210061
0.8890191
0.840675
0.8359092
0.8998075
0.9436986
0.9722693
0.983392
0.9918426
0.9965494
0.9983211
0.9982183
0.9963341
0.9960935
0.9936866
0.9805048
0.9549557
0.9446496
0.958744
0.9854676
0.8856024
0.5845394
0.602091
0.1585967
0.1246999
0.1246999
0.1364372
0.5832623
0.9431965
0.9979263
0.9999299
0.9996922
0.9959323
0.987508
0.9886408
0.9965059
0.9991804
0.9955436
0.9866791
0.9875821
0.9939931
0.9975707
0.9979667
0.9989875
0.9996363
0.9998892
0.9999535
0.999954
0.9999812
0.9999795
0.9999144
0.9996772
0.9980291
0.9920705
0.9804402
0.9940338
0.9953005
0.9904032
0.9920594
0.9934654
0.9887027
0.9950168
0.9997363
0.9999761
0.9999836
0.999975
0.9999371
0.9998964
0.999882
0.9999339
0.9999635
0.9999388
0.9998623
0.9998623
0.9999088
0.9999882
0.9999976
0.9999985
0.9999982
0.9999981
0.9999983
0.9999985
0.9999958
0.9999842
0.9999699
0.9999658
0.9999852
0.9999945
0.9999979
0.9999988
0.9999979
0.9999968
0.999994
0.9999886
0.9999661
0.9998977
0.9996719
0.9990678
0.9988347
0.9991444
0.9996521
0.9999001
0.9999212
0.9997604
0.9996527
0.9997792
0.9998415
0.9998024
0.9989113
0.9888329
0.981171
0.9853372
0.9959435
0.9997095
0.9999926
0.9999949
0.9999913
0.9998329
0.9982518
0.9974033
0.9980594
0.9994262
0.9990293
0.9970189
0.9975254
0.9992139
0.9999287
0.9999366
0.9995907
0.9988052
0.9972232
0.9963634
0.9965268
0.9970019
0.9992621
0.9995294
0.998137
0.9970622
0.9973451
0.9985459
0.999319
0.999468
0.9995048
0.9996563
0.9996458
0.999559
0.9995164
0.9995991
0.999813
0.9999527
0.9999936
0.9999996
0.9999999
0.9999998
0.9999995
0.999999
0.9999969
0.9999891
0.9999937
0.9999965
0.9999978
0.9999991
0.9999989
0.9999954
0.9999877
0.9999874
0.9999875
0.9999945
0.9999991
0.9999997
0.9999987
0.9999903
0.9999874
0.9999898
0.9999973
0.9999948
0.9999896
0.99999
0.9999957
0.9999925
0.9999463
0.9997743
0.9997614
0.9997957
0.9999357
0.9999932
0.9999998
1
1
1
0.9999997
0.9999996
0.9999989
0.9999967
0.9999979
0.9999977
0.9999954
0.9999914
0.9999907
0.9999799
0.9999711
0.9999003
0.999414
0.9984013
0.9983563
0.9984902
0.999169
0.9996743
0.9999068
0.9999847
0.9999989
1
1
1
1
1
1
0.9999999
0.9999997
0.9999992
0.9999979
0.9999953
0.9999901
0.9999758
0.9999094
0.9998309
0.9998401
0.9998806
0.9999272
0.9999695
0.9999898
0.9999977
0.9999995
0.9999996
0.999999
0.999991
0.9999148
0.9997033
0.9996938
0.9998241
0.9999598
0.9999975
1
1
1
1
1
1
1
1
1
1
1
1
1
1
1
1
1
1
1
1
1
1
1
1
1
1
1
1
1
1
1
1
1
1
1
1
1
1
1
1
1
1
1
1
1
1
1
1
1
1
1
1
1
1
1
1
1
1
1
1
1
1
1
1
1
1
1
1
1
1
1
1
1
1
1
1
1
1
1
1
1
1
1
1
1
1
1
1
1
1
1
1
1
1
1
1
1
1
1
1
1
1
1
1
1
1
1
1
1
1
1
0.9999998
1
0.9999999
1
1
0.9999998
1
1
1
0.9999998
0.9999998
1
1
1
1
1
1
1
1
1
1
0.9999999
0.9999998
1
0.9999998
0.9999992
0.9999994
0.9999998
0.9999997
0.9999992
0.9999993
0.9999998
0.9999999
0.9999981
0.9999927
0.9999958
0.9999995
0.9999942
0.9999736
0.9999836
0.9999966
0.9999963
0.9998371
0.9983547
0.996114
0.9961153
0.9961166
0.9961166
0.9971599
0.9988336
0.9989812
0.998788
0.9988707
0.9996059
0.9995743
0.9982229
0.9970271
0.9970271
0.9971153
0.9974902
0.9984321
0.9993972
0.9998757
0.9999319
0.9998942
0.9998657
0.9999238
0.9999489
0.9999489
0.9999226
0.9996899
0.9996357
0.99968
0.9997522
0.9999442
0.99999
0.9999868
0.9999737
0.9999879
0.9999759
0.9999531
0.9998985
0.9994897
0.9978353
0.9932533
0.9915578
0.9980409
0.9997347
0.9998868
0.9996343
0.9979023
0.9957687
0.9952381
0.9978358
0.9989195
0.9988199
0.9928509
0.9785822
0.9747858
0.9822867
0.9976858
0.9990257
0.9989074
0.9933939
0.9767293
0.9619528
0.9474467
0.8927534
0.7965692
0.7740558
0.7740558
0.7919864
0.8485362
0.8170755
0.7668883
0.7668883
0.841606
0.8947477
0.9526426
0.9837508
0.9963554
0.9983854
0.9947862
0.9914328
0.9916537
0.9901167
0.9526422
0.9355137
0.9772392
0.9950997
0.9303555
0.7209248
0.9533191
0.7305926
0.4644745
0.1648258
0.1270754
0.3997476
0.8877359
0.9948584
0.9999194
0.9997532
0.9945609
0.987508
0.9888573
0.996978
0.9997838
0.9998047
0.9994941
0.9986955
0.9979267
0.9989846
0.9993949
0.998452
0.997828
0.9988397
0.999759
0.9999511
0.9999442
0.9999496
0.9999384
0.9998025
0.9956583
0.9899241
0.9814772
0.9951636
0.9991457
0.9972771
0.9952226
0.9969856
0.9972373
0.9958081
0.9985819
0.9998975
0.9999897
0.9999909
0.9999905
0.9999757
0.9999445
0.9998795
0.9998571
0.9998972
0.9999843
0.9999953
0.9999956
0.9999958
0.9999905
0.9999811
0.9999664
0.9999502
0.9999415
0.9999563
0.99998
0.9999787
0.9999254
0.9998202
0.9997473
0.9998029
0.9998886
0.9999659
0.9999949
0.9999968
0.9999957
0.9999955
0.9999945
0.9999854
0.9999363
0.9995558
0.9969126
0.992831
0.9939282
0.9974627
0.999636
0.9998992
0.9997385
0.9993177
0.9993692
0.999704
0.9999285
0.9998656
0.9996547
0.998805
0.9967853
0.9967158
0.9983964
0.9997327
0.9999868
0.9999327
0.9985216
0.9847996
0.9861053
0.9955959
0.9986785
0.9970332
0.9976179
0.9992939
0.9999375
0.9999723
0.9999316
0.9998019
0.9990705
0.9949124
0.9782423
0.9750775
0.9883167
0.9989339
0.9995663
0.9980103
0.996902
0.996902
0.996902
0.9973838
0.9984005
0.9990894
0.9989065
0.9984505
0.9986476
0.9992922
0.99981
0.9999605
0.9999878
0.9999918
0.9999954
0.9999988
0.9999994
0.9999994
0.9999976
0.999994
0.9999961
0.9999991
0.9999999
1
1
0.9999999
0.9999999
0.9999998
0.9999998
0.9999998
0.9999999
0.9999999
0.9999996
0.999996
0.9999874
0.9999895
0.9999962
0.9999969
0.9999932
0.9999682
0.9999643
0.9999693
0.9999901
0.9999955
0.9999958
0.9999914
0.9999183
0.9997888
0.9998135
0.9999179
0.9999886
0.9999997
1
1
0.9999998
0.9999982
0.999997
0.999998
0.9999994
0.9999998
0.9999998
0.9999999
0.9999998
0.9999996
0.9999983
0.9999893
0.9998876
0.9988752
0.9978591
0.9978591
0.9982138
0.9993407
0.9999096
0.9999942
0.9999997
1
1
1
1
1
0.9999999
0.9999997
0.9999994
0.9999989
0.9999982
0.9999959
0.9999832
0.9999134
0.9996801
0.9995956
0.9995956
0.9996543
0.9997817
0.9998958
0.9999711
0.9999966
0.9999988
0.9999943
0.9999124
0.9992962
0.9991241
0.999262
0.9997576
0.9999768
0.9999995
1
1
1
1
1
1
1
1
1
1
1
1
1
1
1
1
1
1
1
1
1
1
1
1
1
1
1
1
1
1
1
1
1
1
1
1
1
1
1
1
1
1
1
1
1
1
1
1
1
1
1
1
1
1
1
1
1
1
1
1
1
1
1
1
1
1
1
1
1
1
1
1
1
1
1
1
1
1
1
1
1
1
1
1
1
1
1
1
1
1
1
1
1
1
1
1
1
1
1
1
1
1
1
1
1
1
0.9999999
1
0.9999999
0.9999999
0.9999999
0.9999999
1
0.9999999
1
1
1
1
1
1
0.9999999
0.9999997
0.9999999
1
1
1
1
1
1
1
1
1
1
1
1
1
1
1
1
1
1
1
1
1
1
1
1
1
1
1
0.9999999
0.9999999
0.9999999
0.9999997
0.9999988
0.9999984
0.999998
0.9999951
0.9999899
0.999924
0.9998734
0.9999778
0.9999909
0.9998694
0.9995609
0.9993831
0.9993535
0.9986356
0.9967699
0.9957884
0.9968531
0.9946769
0.9917871
0.9920313
0.997072
0.9991038
0.999406
0.9984811
0.9985991
0.9998584
0.9999245
0.9998972
0.999903
0.9999489
0.9999489
0.9999489
0.9999489
0.9999476
0.9999223
0.999516
0.999453
0.9997564
0.9998575
0.9999334
0.9999898
0.9999941
0.9999769
0.9999651
0.9999433
0.9999279
0.9999393
0.9999401
0.9998626
0.9978801
0.9873172
0.9751715
0.9753191
0.9919281
0.999501
0.9998868
0.9995634
0.9954111
0.9864036
0.9848917
0.9848917
0.9887608
0.9945784
0.9935741
0.9937146
0.9965149
0.997396
0.9974559
0.9974376
0.9978629
0.9955011
0.9850994
0.957047
0.9064998
0.8802895
0.9376708
0.9603047
0.9637128
0.9765846
0.9824277
0.9758492
0.9203686
0.8775111
0.7829281
0.8260932
0.9146664
0.9601207
0.9824506
0.9949128
0.9992611
0.9969633
0.9809944
0.9827236
0.9837871
0.9737253
0.9870187
0.998016
0.9949421
0.9768121
0.9897786
0.9791992
0.9423321
0.6964509
0.2121978
0.4074546
0.8516783
0.989126
0.9997614
0.99983
0.9983955
0.9922617
0.9917331
0.9962047
0.9993966
0.9999648
0.9999744
0.9999664
0.9994823
0.9966512
0.9981906
0.9981676
0.9964259
0.9971173
0.9988096
0.9997883
0.9999075
0.9998799
0.9999325
0.9999065
0.9962527
0.9899279
0.9911094
0.9962658
0.999188
0.9996155
0.9985616
0.9979444
0.9986051
0.9988824
0.998757
0.9996053
0.9999487
0.9999909
0.9999909
0.9999909
0.9999883
0.9999496
0.9999053
0.999947
0.9999858
0.9999951
0.999997
0.999997
0.9999856
0.9999437
0.9998535
0.9996969
0.9994916
0.9993169
0.9993428
0.9997146
0.999853
0.9996843
0.999222
0.9987899
0.9989251
0.9995968
0.9999423
0.9999693
0.9999195
0.9998552
0.9998662
0.9999015
0.9999483
0.9998801
0.9987493
0.9890537
0.9845007
0.9868911
0.9946295
0.9991045
0.9999064
0.9998817
0.9993172
0.9990692
0.9992909
0.9998111
0.9999853
0.9999697
0.9998032
0.9996966
0.9997464
0.9998962
0.9999897
0.9999787
0.999401
0.9890461
0.9794222
0.9845562
0.9952793
0.9981627
0.9985868
0.9992871
0.9998715
0.9999723
0.9999723
0.9999458
0.9994586
0.9892103
0.9084098
0.8780018
0.9502585
0.9939205
0.9997632
0.9998065
0.9992484
0.998551
0.9984082
0.9979167
0.9983303
0.9992912
0.9991464
0.998447
0.9982821
0.9989422
0.9995931
0.9998618
0.9999439
0.9999504
0.9999571
0.9999785
0.9999953
0.9999993
0.9999993
0.9999989
0.999997
0.999998
0.9999993
0.9999999
1
1
1
1
1
1
1
0.9999999
0.9999991
0.9999943
0.9999925
0.9999933
0.9999844
0.9999581
0.9999646
0.9999851
0.9999921
0.9999742
0.9999646
0.9999788
0.9999958
0.9999913
0.9998275
0.9992503
0.9992925
0.9997064
0.9999559
0.9999982
1
1
1
0.9999998
0.9999988
0.9999986
0.9999994
0.9999999
1
1
0.9999999
0.9999999
0.9999999
0.9999999
0.9999991
0.9999921
0.9998969
0.999036
0.9978591
0.9978591
0.9985203
0.999642
0.9999621
0.9999952
0.999999
0.9999997
0.9999998
0.9999998
0.9999999
1
1
1
0.9999999
0.9999997
0.999999
0.9999973
0.9999905
0.9999446
0.9996964
0.9994376
0.9994376
0.9994519
0.9996951
0.9999134
0.9999917
0.9999944
0.9999757
0.9997793
0.9991922
0.9991257
0.9994433
0.9998862
0.9999931
0.9999999
1
1
1
1
1
1
1
1
1
1
1
1
1
1
1
1
1
1
1
1
1
1
1
1
1
1
1
1
1
1
1
1
1
1
1
1
1
1
1
1
1
1
1
1
1
1
1
1
1
1
1
1
1
1
1
1
1
1
1
1
1
1
1
1
1
1
1
1
1
1
1
1
1
1
1
1
1
1
1
1
1
1
1
1
1
1
1
1
1
1
1
1
1
1
1
1
1
1
1
1
1
1
1
1
1
1
1
1
1
1
1
1
1
1
1
1
1
1
1
1
1
1
1
1
0.9999999
0.9999999
1
1
1
1
1
1
1
1
1
1
1
1
1
1
1
1
1
1
1
1
1
1
1
1
1
1
1
1
1
0.9999999
0.9999999
1
1
1
1
1
0.9999999
0.9999996
0.9999997
0.9999996
0.9999982
0.9999939
0.9999498
0.9998165
0.9998731
0.9999823
0.9999636
0.9999576
0.9999712
0.9998774
0.9996974
0.9996615
0.9997403
0.9991306
0.9947093
0.9870556
0.985623
0.9875167
0.9974803
0.9999215
0.9999573
0.9999573
0.9999573
0.9999417
0.999896
0.9999173
0.9999397
0.9999489
0.9999489
0.9998996
0.999722
0.9991847
0.9989567
0.9997497
0.9999622
0.9999917
0.9999977
0.9999875
0.999926
0.9998591
0.9992013
0.9994876
0.9998676
0.9998762
0.9998791
0.999845
0.9976266
0.9858941
0.9751715
0.978215
0.995528
0.9995248
0.9998868
0.9998699
0.9993953
0.9987511
0.9984039
0.9959098
0.9897588
0.9837065
0.9837065
0.983856
0.9890321
0.9875969
0.9854556
0.9855631
0.9872137
0.9896804
0.9904137
0.9892466
0.9833296
0.9776402
0.9717308
0.9683565
0.9750217
0.9842866
0.9810509
0.9741993
0.9801157
0.9860988
0.9934207
0.9975003
0.9977108
0.9890883
0.9730641
0.9857944
0.9980703
0.9996103
0.9919711
0.9672964
0.980633
0.9955662
0.9985132
0.9995341
0.9995983
0.9977134
0.9961059
0.9942345
0.9821148
0.9526432
0.8156054
0.5602849
0.7184228
0.9358359
0.9941204
0.9996514
0.9997467
0.999079
0.998444
0.99855
0.9992254
0.9998126
0.9999739
0.9999745
0.9998736
0.9975029
0.9966563
0.9983829
0.9992122
0.9971059
0.9957441
0.9976314
0.9993783
0.9997407
0.9999233
0.9999039
0.9987875
0.9899317
0.9956617
0.9987547
0.9989575
0.9997141
0.9998183
0.9993452
0.9990722
0.9992157
0.9996329
0.9997247
0.9999
0.9999805
0.9999909
0.9999909
0.9999797
0.999892
0.9997716
0.9997203
0.9998037
0.9999337
0.9999713
0.9999861
0.9999813
0.9999331
0.9998272
0.999599
0.9991606
0.9982836
0.9968319
0.9947076
0.9962051
0.9980256
0.998657
0.9974621
0.9975728
0.9991075
0.9998683
0.9999293
0.999735
0.9988204
0.9973339
0.9968878
0.998075
0.9994918
0.9995776
0.9984862
0.9905216
0.9826804
0.9832967
0.990904
0.9976336
0.9997994
0.9998537
0.9993796
0.9991375
0.9993954
0.9998514
0.9999894
0.9999989
0.9999984
0.9999972
0.9999974
0.9999991
0.9999978
0.999932
0.9984235
0.9865031
0.9811212
0.9863562
0.996256
0.9989278
0.9991957
0.9995864
0.9998788
0.9999723
0.9999631
0.9996581
0.9910714
0.8894044
0.8672899
0.9086493
0.983967
0.9993493
0.9997784
0.9985051
0.9985877
0.9994481
0.9998486
0.9999393
0.9999837
0.9999839
0.9999505
0.9998909
0.9997651
0.9995634
0.9996591
0.9997809
0.9998074
0.999895
0.9999749
0.9999936
0.9999931
0.9999923
0.9999947
0.9999983
0.9999995
0.9999995
0.9999994
0.9999992
0.9999992
0.9999993
0.9999995
0.9999998
1
1
1
0.9999999
0.999999
0.9999835
0.9999524
0.9999644
0.9999706
0.999949
0.9998554
0.9998602
0.9999246
0.9999768
0.9999944
0.9999958
0.9999944
0.9999812
0.9999277
0.9997228
0.9997744
0.999603
0.9995204
0.9995752
0.9997978
0.9999604
0.9999975
0.999999
0.9999989
0.9999993
0.9999998
0.9999997
0.9999971
0.999975
0.9999711
0.9999886
0.9999989
1
0.9999999
0.9999962
0.9999171
0.999639
0.9994098
0.9993279
0.9994423
0.999749
0.9999356
0.99999
0.9999979
0.999997
0.9999965
0.9999978
0.9999994
0.9999997
0.9999997
0.9999999
1
1
0.9999999
0.9999998
0.9999993
0.9999966
0.9999763
0.9998072
0.9994015
0.99937
0.9996348
0.9999174
0.9999906
0.999996
0.9999904
0.9999498
0.9998157
0.9997528
0.9998539
0.9999684
0.999997
0.9999997
1
1
1
1
1
1
1
1
1
1
1
1
1
1
1
1
1
1
1
1
1
1
1
1
1
1
1
1
1
1
1
1
1
1
1
1
1
1
1
1
1
1
1
1
1
1
1
1
1
1
1
1
1
1
1
1
1
1
1
1
1
1
1
1
1
1
1
1
1
1
1
1
1
1
1
1
1
1
1
1
1
1
1
1
1
1
1
1
1
1
1
1
1
1
1
1
1
1
1
1
1
1
1
1
1
1
1
1
1
1
1
1
1
1
1
1
1
1
1
1
1
1
1
1
1
1
1
1
0.9999999
0.9999999
0.9999999
1
1
1
1
1
1
1
1
1
1
1
1
1
1
1
1
1
1
1
1
1
1
1
1
1
1
1
1
1
1
1
1
1
1
1
1
1
1
0.9999999
0.9999998
0.9999987
0.9999904
0.9998953
0.9998165
0.9999092
0.9999863
0.9999986
0.999999
0.9999737
0.9998756
0.9998217
0.9999216
0.9999251
0.9993664
0.9956319
0.9855847
0.9812481
0.9869862
0.9996531
0.9999573
0.9999573
0.9999572
0.9997938
0.9995634
0.9995604
0.999795
0.9998672
0.99994
0.9997121
0.9991308
0.9989625
0.9994155
0.9999704
0.9999989
0.9999972
0.9999151
0.9991107
0.9981132
0.9948385
0.9976764
0.999312
0.9998479
0.9994357
0.9990509
0.9996836
0.998414
0.9935526
0.9894396
0.992341
0.9986192
0.9996023
0.9995834
0.9982145
0.9963526
0.9942523
0.9934609
0.995313
0.9967114
0.9968834
0.9945339
0.9945759
0.9916264
0.983135
0.9798963
0.9773067
0.9768512
0.9834775
0.9913734
0.9915402
0.9902608
0.979575
0.9887689
0.9960416
0.9961429
0.9870757
0.9462541
0.9361098
0.9449212
0.9813916
0.9970125
0.9996731
0.9997285
0.9997275
0.9997361
0.9997313
0.9998401
0.9998479
0.999045
0.9809041
0.9707644
0.9836026
0.9975372
0.9996769
0.999696
0.999696
0.9996003
0.9988748
0.9901837
0.9599627
0.9368526
0.9210507
0.7916891
0.833887
0.933878
0.9844651
0.9982074
0.9995385
0.9995009
0.9995173
0.9996461
0.999863
0.9999718
0.9999745
0.9999745
0.9997081
0.9972131
0.9975686
0.9993214
0.9994509
0.9985922
0.9921453
0.9935472
0.997385
0.9996208
0.9999367
0.9998414
0.994922
0.9948896
0.9983447
0.9994317
0.9996799
0.9999087
0.9999355
0.9997394
0.9994746
0.9996166
0.9998994
0.9999481
0.9999803
0.9999909
0.9999873
0.9999422
0.9996881
0.9991051
0.9986597
0.9991825
0.9996907
0.9999004
0.9999683
0.9999891
0.9999712
0.9999443
0.9998852
0.9997435
0.9991884
0.9966516
0.9849786
0.9682288
0.9750981
0.9914254
0.996017
0.9983654
0.9993927
0.999886
0.9999228
0.9996968
0.9980363
0.9903894
0.9839435
0.9868329
0.9929979
0.9979717
0.9995406
0.9996299
0.9987358
0.990184
0.9824509
0.9867098
0.9956565
0.9994994
0.99992
0.9998193
0.9992552
0.9993547
0.99977
0.9999594
0.9999957
0.9999995
0.9999996
0.9999996
0.9999996
0.9999979
0.999916
0.9982042
0.9864098
0.9841459
0.9913378
0.9984165
0.9996366
0.999116
0.9993892
0.9998194
0.9999694
0.9998517
0.9960201
0.9576153
0.8976427
0.936232
0.9862961
0.9991348
0.9997894
0.9983205
0.9974561
0.9974561
0.9981882
0.999574
0.9999766
0.9999949
0.9999949
0.9999949
0.9999949
0.9999931
0.9999718
0.9997652
0.9995815
0.9996404
0.9997388
0.9998581
0.9999629
0.9999939
0.9999989
0.9999995
0.9999995
0.9999995
0.9999995
0.9999991
0.9999935
0.9999906
0.9999944
0.9999985
0.9999999
1
1
1
0.9999999
0.9999981
0.9999548
0.9998072
0.9998182
0.9999135
0.9999139
0.999907
0.9996984
0.9996741
0.9998481
0.9999742
0.9999948
0.9999933
0.9999838
0.9999654
0.9999415
0.9999041
0.9998691
0.9996006
0.9993946
0.9994818
0.9998231
0.9999735
0.9999947
0.999999
0.9999995
0.9999964
0.9999178
0.9995273
0.9994851
0.9997178
0.9999478
0.9999981
1
1
0.9999992
0.9999938
0.9999854
0.999973
0.9999745
0.999991
0.9999992
0.9999997
0.9999979
0.9999882
0.9999866
0.9999919
0.9999986
0.9999977
0.999993
0.9999902
0.9999941
0.999998
0.9999997
1
1
1
0.9999998
0.9999984
0.9999874
0.9999175
0.9997655
0.9998224
0.9999467
0.9999936
0.9999991
0.9999992
0.999999
0.9999971
0.9999852
0.999969
0.9999745
0.9999907
0.9999984
0.9999998
1
1
1
0.9999999
0.9999995
0.999999
0.999999
0.9999995
0.9999999
1
1
1
1
1
1
1
1
1
1
1
1
1
1
1
1
1
1
1
1
1
1
1
1
1
1
1
1
1
1
1
1
1
1
1
1
1
1
1
1
1
1
1
1
1
1
1
1
1
1
1
1
1
1
1
1
1
1
1
1
1
1
1
1
1
1
1
1
1
1
1
1
1
1
1
1
1
1
1
1
1
1
1
1
1
1
1
1
1
1
1
1
1
1
1
1
0.9999999
0.9999999
1
1
1
1
1
1
1
1
1
1
1
1
1
1
1
1
1
1
1
1
0.9999999
0.9999999
1
1
1
1
1
1
1
1
1
1
1
1
1
1
1
1
1
1
1
1
1
1
1
1
1
1
1
1
1
1
1
1
1
1
1
1
1
1
1
1
0.9999999
0.9999995
0.9999852
0.9998899
0.99989
0.9999267
0.9999852
0.9999991
0.9999992
0.9999849
0.9999508
0.9999596
0.9999864
0.9999829
0.9996368
0.9953563
0.9812037
0.975066
0.9986716
0.9999001
0.9999533
0.9998548
0.9996109
0.9992144
0.9989047
0.9989517
0.9994059
0.9999073
0.9997157
0.999413
0.9994202
0.9998992
0.9999969
0.9999905
0.9994955
0.9958025
0.9905038
0.9870105
0.9967396
0.9987307
0.9995836
0.999488
0.9980019
0.9972832
0.999043
0.9996618
0.9991743
0.9990007
0.9993276
0.999826
0.9997847
0.9982254
0.9924742
0.9805037
0.9724958
0.9758211
0.984607
0.9869906
0.9863163
0.9838152
0.9867849
0.99424
0.9965404
0.9981348
0.9982453
0.9977736
0.9955683
0.9882724
0.977642
0.9736374
0.9747383
0.9841619
0.9910547
0.9947849
0.9973769
0.9963741
0.9805458
0.9513692
0.9648477
0.9882215
0.99673
0.9986384
0.9995421
0.9998405
0.9998695
0.9999116
0.999934
0.9999163
0.9978689
0.9776802
0.9733966
0.9838441
0.9958329
0.9993739
0.999696
0.999696
0.999696
0.9956218
0.9532349
0.9122784
0.9481671
0.9291342
0.9035431
0.8946947
0.900734
0.947734
0.9666229
0.9754079
0.9850551
0.994122
0.9989529
0.9999303
0.9999745
0.9999745
0.9999617
0.9994197
0.9978991
0.9989025
0.9998416
0.999641
0.995947
0.9818252
0.9871954
0.9968889
0.9997885
0.9999367
0.9991822
0.9967629
0.9967968
0.9990696
0.9997938
0.9999384
0.9999926
0.9999818
0.999862
0.9997196
0.9998604
0.9999778
0.9999907
0.9999909
0.9999487
0.9996681
0.9987673
0.9967686
0.995837
0.9974196
0.9992335
0.9998401
0.9999634
0.9999922
0.9999785
0.9999173
0.9997856
0.9996304
0.9996887
0.9991038
0.988753
0.9308918
0.9215568
0.9508467
0.9869819
0.9984221
0.999837
0.9999782
0.9999717
0.999852
0.9986426
0.9881304
0.9796685
0.9796685
0.9796685
0.9868118
0.9959888
0.9995619
0.9999596
0.999934
0.9993018
0.9909005
0.9846991
0.9890238
0.9973086
0.9997534
0.9999153
0.999902
0.9996542
0.9994041
0.9995978
0.9998945
0.9999932
0.9999995
0.9999989
0.9999979
0.9999943
0.9998888
0.9979884
0.9883689
0.9901043
0.997293
0.9996355
0.9996576
0.9994469
0.9996999
0.9999583
0.9999383
0.9992283
0.992674
0.9794085
0.9825774
0.9925614
0.9989525
0.9999072
0.9996516
0.9980682
0.9974561
0.997556
0.9990026
0.9998569
0.9999873
0.9999815
0.9999816
0.9999896
0.9999925
0.9999928
0.9999915
0.9999792
0.9998004
0.9993351
0.9993257
0.9996489
0.999921
0.999994
0.9999995
0.9999995
0.9999995
0.9999995
0.9999995
0.9999991
0.9999917
0.9999733
0.9999824
0.9999951
0.9999996
1
1
1
0.9999995
0.9999945
0.9999866
0.9999664
0.9997797
0.9996524
0.9996524
0.9996524
0.9996524
0.9998053
0.9999603
0.9999938
0.9999976
0.9999975
0.999997
0.9999952
0.9999904
0.9999758
0.9998982
0.999761
0.9998246
0.999902
0.9997143
0.9994006
0.9996052
0.9998772
0.9999815
0.9999837
0.9999615
0.9995096
0.9983681
0.9989655
0.9997839
0.9999899
0.9999999
1
1
1
1
1
1
1
1
0.9999999
0.9999998
0.9999998
0.9999998
0.9999998
0.9999989
0.999991
0.9999455
0.9999087
0.9999341
0.9999787
0.999998
1
1
1
1
0.9999999
0.9999997
0.9999981
0.9999889
0.9999701
0.9999771
0.9999932
0.9999993
0.9999999
0.9999999
0.9999998
0.9999996
0.9999982
0.9999945
0.9999947
0.9999979
0.9999997
1
1
0.9999998
0.9999978
0.9999892
0.9999871
0.9999925
0.9999984
0.9999999
1
1
1
1
1
1
1
1
1
1
1
1
1
1
1
1
1
1
1
1
1
1
1
1
1
1
1
1
1
1
1
1
1
1
1
1
1
1
1
1
1
1
1
1
1
1
1
1
1
1
1
1
1
1
1
1
1
1
1
1
1
1
1
1
1
1
1
1
1
1
1
1
1
1
1
1
1
1
1
1
1
1
1
1
1
1
1
1
1
1
1
1
1
1
1
1
1
1
1
1
1
1
1
1
1
1
1
1
1
1
1
0.9999999
0.9999999
0.9999999
0.9999999
1
1
1
1
1
1
1
1
1
1
1
1
1
0.9999999
0.9999999
0.9999999
0.9999999
0.9999999
0.9999999
0.9999999
0.9999999
0.9999999
0.9999999
0.9999999
1
1
1
1
1
1
1
1
1
1
1
1
1
1
1
0.9999999
0.9999998
0.9999999
1
1
1
1
1
1
1
1
1
0.9999999
0.9999999
1
1
1
1
1
1
1
1
1
1
0.9999995
0.9999846
0.9999301
0.9999268
0.99994
0.9999843
0.9999987
0.9999997
0.999996
0.9999952
0.9999989
0.9999985
0.9999789
0.9991946
0.9932135
0.9846474
0.9938462
0.9982666
0.9992937
0.9990114
0.9977138
0.9975931
0.9970272
0.9969313
0.9991639
0.9999533
0.999977
0.9999252
0.9999145
0.9999923
0.9999653
0.998969
0.9924528
0.9814376
0.9779795
0.9964527
0.9994457
0.9998042
0.9998146
0.9986191
0.9972698
0.9972698
0.9992647
0.9999628
0.9999773
0.999974
0.9999845
0.9999661
0.9997087
0.9982357
0.9921153
0.9787856
0.9724958
0.9743696
0.9826254
0.9845105
0.9813929
0.9855225
0.988281
0.9919824
0.9964346
0.998845
0.9996361
0.9996542
0.9993703
0.9981338
0.9922062
0.9656379
0.9050034
0.88329
0.8923547
0.9083046
0.9405106
0.9751927
0.9944138
0.9991373
0.9997401
0.998766
0.9920612
0.9925602
0.9971401
0.9993425
0.9992768
0.9992507
0.9997008
0.9999311
0.9997911
0.9965929
0.9780635
0.9726455
0.9771875
0.9873934
0.9965074
0.9995675
0.999696
0.9996237
0.9981302
0.9792883
0.8846974
0.8339001
0.8717928
0.9525608
0.9715717
0.9695983
0.8790348
0.8402417
0.8402417
0.8644995
0.9569077
0.9960324
0.9999187
0.9999745
0.9999745
0.9999198
0.9993471
0.9993023
0.9998233
0.999841
0.9986905
0.9876911
0.9819996
0.9880792
0.9976629
0.9998489
0.9999367
0.9993687
0.998164
0.9985834
0.9996653
0.9999547
0.9999957
0.9999957
0.9999899
0.9999301
0.9999105
0.9999789
0.9999909
0.9999909
0.9999554
0.9995584
0.9955104
0.9808913
0.9827181
0.9940271
0.9992859
0.9999692
0.9999961
0.9999865
0.9999387
0.9997025
0.9984766
0.9957262
0.9955286
0.9984218
0.996212
0.9602764
0.9157682
0.9157847
0.9399995
0.9833814
0.9983935
0.9999608
0.9999882
0.9999658
0.9997759
0.9989932
0.9940293
0.9815811
0.9796685
0.9796685
0.9911046
0.9987118
0.9999463
0.9999641
0.9999641
0.9997972
0.995152
0.9870061
0.9897591
0.9966514
0.9996911
0.9999013
0.9996566
0.9989102
0.9992495
0.9998267
0.9999914
0.9999996
0.9999994
0.9999824
0.9999389
0.9999217
0.9996962
0.9978472
0.9929013
0.9964434
0.9989785
0.9995706
0.9997568
0.9998846
0.9999743
0.9999788
0.9999232
0.9995739
0.9989202
0.9987583
0.9989672
0.9995646
0.9999425
0.9999652
0.9998722
0.9994337
0.9975742
0.9983749
0.9995127
0.9999275
0.9998159
0.9994619
0.9995106
0.9996145
0.9997512
0.9999266
0.9999787
0.9999347
0.9994641
0.999325
0.999325
0.9995848
0.9999265
0.9999967
0.9999995
0.9999995
0.9999995
0.9999995
0.9999995
0.9999975
0.9999796
0.9999574
0.999968
0.9999874
0.9999978
0.9999999
1
1
0.9999999
0.9999997
0.9999964
0.9999571
0.9997325
0.9996524
0.9997516
0.999934
0.9999773