/*--------------------------------*- C++ -*----------------------------------*\
| =========                 |                                                 |
| \\      /  F ield         | foam-extend: Open Source CFD                    |
|  \\    /   O peration     | Version:     3.1                                |
|   \\  /    A nd           | Web:         http://www.extend-project.de       |
|    \\/     M anipulation  |                                                 |
\*---------------------------------------------------------------------------*/
FoamFile
{
    version     2.0;
    format      ascii;
    class       volScalarField;
    location    "12";
    object      p;
}
// * * * * * * * * * * * * * * * * * * * * * * * * * * * * * * * * * * * * * //

dimensions      [1 -1 -2 0 0 0 0];

internalField   nonuniform List<scalar> 
119952
(
7360.683
7046.424
7323.754
7240.229
7293.36
7252.003
7281.66
7312.742
7332.618
7337.32
7293.913
7241.378
7167.014
7043.814
6965.854
6960.026
7082.682
7115.312
7298.948
7283.602
7398.04
7412.524
7373.16
7370.064
7346.569
7321.165
7325.348
7327.501
7339.592
7609.197
6732.453
6653.297
6682.341
6663.886
6506.885
6530.266
6478.999
6476.787
6223.52
6097.309
6438.476
6436.571
6503.53
6551.508
6602.01
6645.707
6699.393
6756.052
6973.944
6976.89
6929.287
6908.62
6894.044
6849.962
6855.837
6853.956
6770.792
6785.886
6751.275
6786.585
6818.445
6834.01
6850.283
6867.647
6871.991
6865.704
6896.939
6936.666
6973.919
6954.261
6951.695
6952.442
6958.136
6966.066
6987.473
7018.764
7040.556
7024.854
6986.951
6926.711
6797.94
6664.942
6605.581
6654.64
6770.209
6900.475
7010.124
7080.741
7120.438
7126.878
7111.574
7085.473
7059.451
7040.467
7042.761
7056.117
7082.572
7115.373
7142.848
7165.198
7181.413
7189.191
7191.623
7186.917
7183.7
7193.071
7210.721
7220.503
7223.172
7215.726
7199.029
7171.529
7126.712
7082.211
7021.697
6939.352
6842.645
6732.743
6630.878
6508.458
6382.227
6242.34
6106.059
5969.918
5837.906
5719.505
5622.984
5550.471
5500.386
5474.224
5473.917
5499.713
5552.253
5628.356
5725.28
5840.591
5974.739
6123.392
6272.755
6411.75
6543.826
6672.304
6784.63
6876.169
6949.755
7005.837
7050.884
7095.242
7145.268
7165.745
7180.986
7197.451
7210.861
7221.971
7232.462
7239.259
7240.201
7251.035
7257.391
7258.231
7258.274
7257.957
7255.606
7247.042
7236.995
7233.242
7229.687
7227.334
7228.175
7232.18
7237.83
7244.231
7251.241
7261.963
7272.794
7287.423
7305.516
7316.556
7331.549
7341.497
7349.531
7353.994
7355.014
7357.166
7356.225
7353.509
7344.219
7335.53
7309.212
7296.194
7284.07
7277.82
7274.381
7278.655
7301.879
7326.174
7335.988
7385.478
7419.098
7443.137
7468.243
7498.228
7516.483
7563.213
7596.258
7629.476
7654.03
7676.486
7706.272
7726.122
7739.205
7748.918
7757.875
7755.113
7748.993
7743.568
7736.067
7726.638
7719.477
7711.19
7707.476
7705.822
7706.465
7708.511
7712.427
7713.453
7712.856
7710.231
7708.075
7702.902
7695.563
7685.58
7673.313
7671.884
7668.242
7656.777
7650.586
7641.454
7632.8
7624.476
7615.73
7607.7
7600.903
7592.048
7582.419
7573.112
7563.281
7554.403
7544.257
7532.448
7516.181
7504.687
7488.518
7474.88
7465.258
7439.489
7427.942
7414.812
7404.809
7397.349
7387.308
7383.76
7377.073
7369.009
7358.855
7350.705
7342.971
7294.386
7282.602
7282.774
7278.97
7273.822
7266.646
7259.621
7251.985
7250.211
7249.414
7244.367
7237.714
7233.039
7232.935
7234.959
7235.509
7237.844
7234.061
7237.901
7238.53
7234.499
7232.819
7230.535
7227.629
7224.282
7221.396
7218.572
7216.731
7215.618
7215.01
7214.276
7212.911
7210.955
7205.064
7193.083
7178.324
7158.97
7136.586
7132.364
7136.39
7155.862
7174.281
7189.719
7202.926
7201.449
7203.608
7199.394
7199.401
7198.742
7197.756
7195.896
7192.669
7187.851
7182.099
7170.328
7173.121
7170.002
7169.864
7168.048
7167.632
7167.854
7168.021
7169.432
7171.309
7165.623
7149.262
7131.897
7138.291
7156.074
7173.252
7183.641
7193.28
7198.298
7201.025
7204.131
7207.109
7210.873
7212.364
7203.073
7180.159
7161.457
7176.088
7205.09
7217.619
7224.494
7230.755
7236.45
7241.243
7242.615
7243.677
7246.426
7248.141
7248.203
7248.42
7249.66
7249.987
7247.429
7243.417
7233.011
7217.165
7227.497
7249.432
7260.051
7271.182
7270.074
7267.012
7269.663
7269.808
7269.618
7269.25
7270.094
7271.817
7276.763
7271.924
7276.087
7276.41
7276.875
7277.74
7277.678
7273.068
7262.904
7268.221
7293.685
7303.056
7318.648
7325.315
7328.237
7333.307
7338.25
7342.501
7346.335
7350.814
7354.934
7359.907
7364.714
7366.576
7359.471
7346.409
7336.092
5806.655
5818.523
5739.993
5728.239
5743.819
5782.579
5815.49
5845.575
5862.066
5889.053
5953.445
5989.999
6032.294
6061.111
6097.102
6125.741
6152.453
6153.874
6051.688
6109.069
6110.987
6122.611
6150.207
6172.734
6194.636
6220.468
6252.521
6272.159
6311.662
6328.442
6380.931
6408.466
6419.032
6427.164
6409.414
6408.974
6414.924
6443.433
6426.736
6387.023
6353.835
6274.475
6199.185
6125.909
6067.575
6083.983
6111.857
6121.047
6160.08
6211.696
6276.27
6342.588
6398.107
6462.854
6545.724
6605.715
6613.619
6632.239
6627.159
6594.329
6550.909
6514.039
6492.348
6467.09
6451.62
6463.518
6479.019
6486.956
6491.176
6506.655
6534.891
6558.659
6580.617
6606.725
6613.44
6609.208
6614.425
6616.179
6615.46
6616.445
6620.769
6631.846
6657.605
6679.618
6654.625
6618.737
6541.209
6366.019
6298
6278.769
6317.222
6450.275
6595.872
6702.894
6758.065
6781.834
6782.556
6766.937
6743.22
6722.859
6713.883
6723.589
6748.005
6786.435
6818.946
6846.32
6873.805
6891.791
6898.232
6892.106
6877.733
6870.948
6880.796
6900.583
6913.598
6915.564
6908.731
6894.405
6860.927
6806.845
6742.404
6669.746
6585.366
6489.591
6378.939
6257.076
6124.016
5984.531
5842.889
5700.822
5566.424
5444.259
5337.319
5248.309
5179.475
5134.647
5117.327
5125.538
5159.02
5216.994
5298.669
5402.728
5524.406
5665.217
5819.697
5970.369
6112.446
6246.222
6371.328
6480.88
6564.218
6640.831
6708.047
6755.888
6792.333
6833.049
6855.003
6869.843
6889.65
6903.59
6913.275
6922.128
6926.531
6931.721
6938.831
6945.27
6948.784
6947.941
6945.223
6941.468
6937.339
6931.454
6925.391
6921.609
6920.208
6920.237
6924.169
6929.502
6936.073
6944.796
6954.881
6966.347
6980.547
6999.167
7017.073
7030.522
7038.153
7042.864
7046.235
7047.538
7048.114
7048.499
7041.931
7031.994
7014.282
6995.595
6979.213
6966.86
6961.378
6961.762
6965.889
6995.19
7035.265
7029.083
7108.535
7134.936
7163.145
7194
7224.66
7256.952
7291.491
7324.805
7356.38
7387.193
7413.941
7439.427
7458.721
7470.465
7478.26
7480.479
7477.61
7471.428
7461.104
7449.84
7441.012
7432.887
7427.675
7426.885
7427.787
7429.891
7432.777
7436.553
7439.159
7439.441
7436.548
7433.223
7426.738
7418.532
7408.057
7399.007
7395.799
7392.061
7383.421
7372.984
7365.471
7357.142
7348.746
7340.155
7332.308
7324.818
7316.86
7307.742
7297.943
7287.951
7277.702
7268.22
7254.336
7237.048
7222.201
7206.705
7192.806
7177.123
7160.648
7147.137
7134.953
7127.408
7120.299
7113.029
7107.478
7100.752
7092.403
7084.656
7076.004
7067.143
6990.474
6975.584
6974.736
6970.884
6965.138
6958.419
6951.657
6945.532
6940.979
6937.937
6933.934
6929.581
6927.558
6927.627
6927.981
6928.049
6928.859
6930.2
6931.614
6930.377
6928.086
6925.905
6923.435
6920.404
6917.132
6914.154
6911.624
6910.03
6909.273
6908.539
6906.941
6905.623
6904.17
6899.47
6889.641
6869.556
6835.971
6814.239
6813.954
6828.66
6850.743
6869.436
6884.417
6893.793
6897.237
6895.49
6892.387
6890.517
6889.149
6887.494
6885.048
6881.456
6876.799
6872.044
6868.163
6864.136
6861.77
6861.59
6860.572
6860.261
6861.021
6863.449
6865.032
6862.745
6853.136
6836.821
6829.478
6837.461
6851.662
6864.489
6874.755
6880.906
6883.909
6892.128
6901.842
6906.365
6906.377
6902.457
6893.084
6879.817
6871.909
6878.037
6896.133
6906.313
6913.884
6919.256
6922.518
6930.386
6934.388
6935.002
6937.203
6940.856
6942.906
6943.058
6943.252
6943.423
6941.001
6935.746
6930.025
6928.034
6931.023
6941.568
6950.797
6955.275
6958.612
6960.316
6960.631
6960.413
6962.019
6963.261
6964.153
6965.135
6966.155
6967.256
6968.205
6969.172
6970.58
6971.839
6971.059
6966.171
6965.133
6971.392
6985.848
6998.231
7007.264
7014.616
7020.909
7026.237
7030.996
7035.4
7039.901
7044.343
7048.257
7051.01
7053.067
7052.702
7050.623
7045.97
7044.226
3956.207
4012.777
4040.814
4043.974
4218.948
4294.913
4496.942
4624.52
4747.938
4739.17
5153.185
5294.979
5463.661
5623.196
5740.084
5856.764
5943.959
6010.739
6061.804
6055.322
6065.27
6068.953
6071.887
6075.873
6074.807
6073.555
6064.637
6050.291
6036.637
5999.737
5964.784
5912.123
5846.482
5767.776
5679.494
5595.144
5527.598
5485.045
5466.835
5440.933
5430.495
5435.498
5448.776
5478.206
5516.218
5557.256
5601.532
5640.428
5678.432
5719.646
5757.906
5794.02
5827.967
5854.467
5868.891
5872.625
5782.145
5778.049
5789.038
5806.794
5834.671
5863.408
5883.352
5896.829
5920.927
5960.85
6007.789
6044.118
6079.923
6110.417
6128.027
6126.506
6102.128
6077.949
6083.745
6058.481
6014.565
5953.061
5882.681
5813.759
5750.963
5705.582
5677.128
5677.374
5705.79
5751.458
5810.712
5884.651
5974.441
6069.765
6152.759
6219.392
6284.158
6351.345
6399.585
6424.112
6421.885
6392.144
6348.919
6314.974
6300.122
6282.355
6259.347
6247.549
6251.654
6256.166
6245.229
6237.26
6254.656
6278.759
6297.316
6317.245
6330.112
6328.462
6331.472
6337.104
6341.592
6344.904
6346.69
6350.936
6372.721
6395.974
6403.218
6399.859
6372.071
6277.185
6248.644
6241.254
6230.954
6276.129
6393.713
6483.083
6533.107
6556.369
6549.646
6521.956
6489.657
6464.076
6451.909
6460.946
6486.616
6523.902
6565.179
6603.453
6629.496
6644.77
6648.74
6646.449
6640.148
6639.48
6648.943
6666.238
6682.091
6685.611
6682.064
6662.316
6621.864
6558.363
6484.252
6401.085
6304.855
6199.881
6091.295
5968.483
5831.171
5691.886
5547.759
5406.387
5270.646
5148.407
5042.467
4954.674
4887.04
4842.524
4824.996
4832.68
4864.334
4921.286
5000.4
5104.579
5228.791
5368.261
5526.253
5684.752
5832.557
5970.613
6095.822
6208.801
6297.226
6371.539
6436.574
6488.592
6525.647
6562.951
6591.355
6607.932
6620.589
6632.663
6643.862
6654.093
6662.667
6671.849
6680.946
6690.32
6695.736
6697.529
6695.368
6690.895
6686.952
6682.3
6677.211
6673.373
6671.927
6673.084
6675.963
6680.704
6687.253
6694.686
6706.172
6714.799
6732.554
6762.283
6779.683
6790.068
6798.404
6802.869
6803.682
6802.12
6797.715
6794.045
6789.267
6779.122
6764.104
6749.905
6726.05
6702.857
6689.855
6696.905
6726.192
6750.185
6771.387
6787.701
6802.657
6821.722
6854.512
6889.053
6917.512
6950.491
6984.467
7021.773
7057.282
7089.157
7118.568
7144.264
7164.092
7176.105
7181.438
7181.971
7175.385
7163.351
7148.759
7134.874
7123.701
7117.215
7116.837
7119.743
7124.103
7127.557
7130.129
7132.497
7134.165
7133.989
7131.462
7126.962
7120.205
7111.121
7101.316
7092.244
7081.235
7081.048
7080.443
7066.914
7056.436
7049.443
7041.777
7033.442
7025.02
7017.091
7009.615
6999.866
6988.995
6978.105
6967.308
6955.787
6942.523
6927.005
6911.469
6897.053
6881.935
6865.34
6849.534
6835.98
6825.812
6817.956
6811.507
6805.509
6799.274
6792.117
6783.83
6774.811
6765.328
6755.463
6745.872
6735.793
6728.626
6722.193
6716.311
6710.932
6705.671
6700.63
6696.08
6691.846
6688.11
6684.76
6682.337
6681.192
6680.899
6681.399
6682.4
6683.677
6686.217
6684.662
6682.937
6680.518
6677.56
6674.474
6671.518
6668.761
6666.093
6663.857
6661.904
6660.161
6658.63
6656.687
6653.771
6648.687
6638.064
6621.951
6598.493
6579.019
6575.438
6588.306
6604.505
6617.439
6627.71
6634.305
6638.135
6640.551
6641.701
6642.195
6642.239
6641.338
6639.138
6635.844
6631.5
6625.442
6622.186
6620.115
6618.666
6618.969
6617.727
6615.948
6615.207
6614.76
6614.06
6611.545
6605.674
6599.116
6597.213
6602.727
6613.771
6624.739
6633.869
6640.727
6646.58
6651.865
6651.91
6652.019
6654.507
6650.078
6643.128
6639.06
6636.084
6642.484
6657.437
6669.186
6675.322
6680.966
6685.661
6686.915
6688.362
6691.199
6692.706
6693.194
6694.916
6696.155
6696.021
6694.904
6693.463
6691.484
6688.348
6687.77
6692.952
6701.978
6708.761
6712.276
6712.729
6712.886
6713.494
6714.961
6715.81
6715.597
6715.998
6717.24
6718.976
6721.032
6722.782
6724.156
6725.328
6726.272
6725.065
6724.359
6727.563
6734.278
6745.198
6755.537
6763.084
6769.086
6774.157
6778.849
6783.379
6787.869
6792.36
6796.655
6801.082
6804.206
6806.099
6806.363
6805.779
6803.309
6802.105
3096.729
3077.592
2848.469
3264.353
3242.029
3284.281
3282.238
3321.871
3354.827
3357.644
3372.012
3398.623
3429.935
3515.695
3615.978
3723.419
3832.371
3963.898
4124.241
4309.48
4521.333
4686.73
4842.006
5001.996
5211.449
5356.873
5491.352
5610.152
5696.238
5757.688
5805.099
5764.666
5775.804
5779.717
5781.721
5779.839
5775.299
5767.727
5758.22
5745.928
5732.708
5702.029
5662.944
5604.849
5509.477
5403.505
5302.098
5231.015
5174.277
5132.046
5101.26
5082.289
5079.272
5089.443
5111.113
5144.747
5184.042
5227.907
5271.406
5312.69
5355.627
5400.22
5442.49
5481.782
5518.213
5541.171
5550.169
5556.499
5547.974
5534.48
5538.592
5559.96
5584.935
5603.154
5619.839
5645.385
5670.003
5698.083
5728.054
5769.762
5815.71
5861.376
5893.94
5898.097
5863.239
5815.315
5781.636
5734.077
5662.048
5589.461
5511.917
5443.456
5391.521
5360.755
5345.16
5351.201
5386.534
5441.466
5509.163
5596.122
5700.456
5808.475
5911.293
6003.98
6082.845
6150.251
6202.549
6230.748
6233.204
6204.3
6152.1
6107.863
6074.81
6055.807
6038.774
6030.223
6051.605
6058.279
6039.585
6009.365
6008.597
6022.715
6022.505
6039.238
6042.661
6035.087
6041.071
6052.183
6061.136
6069.021
6077.474
6080.829
6097.235
6126.095
6152.302
6191.895
6174.832
6175.353
6179.896
6189.032
6180.965
6192.545
6242.094
6291.869
6326.439
6336.32
6318.415
6281.591
6238.482
6197.229
6175.001
6187.055
6225.466
6275.711
6326.058
6370.645
6404.927
6422.357
6428.578
6425.478
6420.823
6421.029
6427.299
6438.11
6450.737
6455.664
6453.499
6427.75
6373.395
6297.242
6211.161
6121.348
6019.286
5910.706
5800.073
5675.829
5539.047
5396.735
5250.641
5108.955
4973.697
4852.076
4744.438
4655.041
4587.022
4542.116
4519.836
4527.709
4559.296
4615.295
4693.761
4795.007
4920.368
5060.621
5219.258
5386.842
5542.388
5685.825
5812.965
5927.172
6018.473
6091.793
6158.666
6210.634
6251.354
6286.428
6319.049
6342.861
6357.236
6367.507
6377.553
6386.942
6398.424
6408.941
6420.995
6433.574
6442.922
6447.256
6442.583
6433.579
6426.784
6423.162
6421.163
6420.521
6420.608
6421.285
6423.418
6426.8
6433.403
6443.19
6454.805
6467.963
6484.487
6513.373
6536.131
6546.605
6550.186
6550.394
6547.125
6542.514
6538.896
6532.558
6531.202
6529.174
6515.6
6500.708
6484.072
6475.373
6467.726
6474.698
6505.529
6512.081
6517.734
6547.95
6543.199
6556.029
6586.302
6620.07
6660.05
6701.942
6735.741
6774.344
6810.767
6843.638
6874.21
6902.489
6924.92
6940.39
6947.737
6947.1
6938.168
6922.237
6903.177
6883.348
6867.536
6862.329
6858.312
6874.913
6891.056
6889.073
6889.153
6890.397
6890.397
6889.29
6886.808
6882.51
6876.424
6868.617
6860.433
6852.887
6844.746
6834.425
6824.453
6816.834
6810.498
6803.107
6796.055
6789.225
6780.847
6771.668
6762.781
6753.659
6743.454
6732.439
6721.045
6709.299
6696.605
6682.061
6667.431
6652.67
6635.987
6618.275
6601.497
6587.373
6577.258
6570.266
6564.656
6559.055
6553.029
6545.767
6537.399
6528.312
6518.478
6508.441
6498.363
6489.343
6483.03
6477.351
6471.5
6465.538
6459.679
6454.257
6449.326
6444.782
6439.999
6437.29
6436.111
6435.199
6433.326
6431.194
6434.35
6438.615
6440.375
6440.143
6438.58
6436.004
6432.35
6428.628
6425.562
6422.756
6420.084
6417.833
6415.942
6413.886
6411.896
6409.239
6405.547
6400.018
6392.184
6380.696
6365.45
6353.674
6350.216
6356.479
6366.679
6376.184
6383.71
6389.485
6393.025
6394.776
6395.158
6394.726
6393.542
6391.533
6388.953
6385.705
6381.85
6379.712
6378.465
6376.16
6371.75
6369.116
6369.044
6369.004
6370.441
6370.582
6369.69
6368.293
6365.587
6361.793
6360.009
6362.94
6369.599
6376.962
6383.427
6392.904
6404.814
6407.874
6403.055
6398.686
6401.421
6406.649
6408.656
6406.778
6404.479
6406.452
6413.644
6423.343
6426.579
6429.397
6433.605
6435.784
6439.045
6443.711
6444.864
6444.964
6446.444
6448.43
6449.264
6450.004
6449.87
6448.553
6447.291
6447.382
6449.931
6454.005
6457.901
6460.709
6462.699
6464.61
6466.648
6468.775
6469.441
6468.603
6469.568
6471.517
6473.322
6474.932
6476.308
6477.58
6479.001
6480.821
6482.326
6483.367
6486.219
6491.329
6498.637
6506.256
6513.134
6519.449
6525.359
6530.931
6536.005
6540.829
6545.337
6549.604
6553.247
6556.488
6558.646
6560.472
6562.032
6562.779
6564.971
2886.379
2863.959
2879.658
2778.406
2760.347
2718.748
2704.972
2712.206
2729.686
2757.033
2775.07
2798.522
2824.113
2849.79
2917.59
2923.125
2926.816
2930.905
2952.377
2966.985
2979.329
3003.12
3045.902
3117.805
3204.768
3294.675
3392.441
3494.064
3618.564
3792.347
3976.839
4164.838
4336.552
4507.28
4700.523
4884.282
5050.019
5197.319
5317.343
5405.6
5466.449
5512.147
5528.397
5520.16
5514.61
5506.769
5504.192
5515.57
5540.259
5548.901
5532.741
5500.459
5465.149
5417.265
5342.075
5240.45
5106.763
4997.765
4934.357
4881.402
4837.361
4808.191
4792.645
4788.757
4798.845
4823.617
4858.223
4898.364
4942.377
4987.676
5033.12
5080.152
5129.254
5176.982
5218.968
5254.197
5283.74
5303.8
5312.964
5303.37
5293.11
5296.77
5312.402
5336.259
5358.89
5369.353
5385.283
5409.417
5434.702
5462.287
5494.486
5541.662
5604.333
5648.26
5663.423
5621.318
5543.154
5469.76
5395.287
5306.047
5218.628
5139.141
5080
5043.234
5020.361
5013.214
5027.219
5069.511
5137.256
5222.385
5324.533
5442.405
5564.372
5676.512
5778.42
5865.947
5939.768
5993.945
6027.188
6042.347
6030.104
5995.336
5973.908
5918.498
5891.535
5867.413
5837.564
5847.52
5854.22
5837.743
5807.968
5792.494
5783.589
5770.157
5761.533
5755.992
5748.262
5747.96
5762.764
5781.95
5795.259
5804.434
5807.632
5820.471
5849.886
5886.96
5939.14
5932.089
5980.621
6026.44
6081.789
6118.727
6089.71
6097.142
6118.361
6136.474
6134.275
6110.816
6067.037
6011.47
5959.655
5931.442
5938.162
5969.063
6012.111
6069.533
6123.815
6160.617
6176.586
6185.584
6187.927
6188.067
6190.122
6195.182
6202.542
6217.33
6225.702
6220.15
6183.976
6115.066
6029.255
5934.07
5837.581
5736.192
5625.862
5509.381
5385.839
5252.469
5110.086
4964.945
4822.338
4687.388
4562.424
4452.678
4359.65
4288.458
4242.711
4223.824
4226.929
4255.698
4308.356
4385.1
4482.035
4603.478
4746.493
4906.476
5080.022
5245.193
5394.979
5526.071
5638.394
5729.901
5803.414
5867.627
5921.608
5964.983
5999.312
6031.854
6058.756
6079.242
6089.181
6099.009
6107.802
6121.763
6130.29
6139.527
6156.566
6167.032
6168.901
6166.747
6164.724
6161.811
6159.08
6158.256
6158.566
6160.882
6163.983
6165.461
6168.242
6172.782
6184.775
6202.991
6227.487
6239.609
6251.898
6279.958
6304.33
6307.772
6303.472
6298.4
6290.64
6277.148
6273.162
6278.298
6278.843
6275.784
6273.407
6266.049
6257.443
6249.933
6239.384
6248.192
6261.297
6264.997
6273.13
6277.883
6302.795
6326.656
6352.035
6388.139
6430.178
6472.431
6519.512
6564.122
6600.592
6631.029
6659.049
6682.138
6698.337
6707.579
6707.599
6698.497
6681.415
6659.816
6640.194
6627.769
6630.309
6638.055
6641.662
6641.285
6643.456
6648.457
6649.425
6647.418
6645.278
6642.912
6638.635
6632.088
6623.257
6616.24
6609.671
6603.351
6590.448
6577.337
6571.205
6566.594
6559.846
6552.029
6544.054
6536.095
6526.91
6517.175
6507.451
6497.268
6486.595
6475.514
6463.928
6451.127
6436.955
6421.507
6405.174
6387.864
6369.487
6351.255
6336.54
6327.694
6322.978
6318.891
6314.462
6308.898
6301.597
6292.742
6282.879
6272.49
6262.015
6251.687
6242.194
6234.26
6227.392
6221.454
6216.205
6211.111
6206.08
6201.358
6196.771
6192.982
6190.012
6187.101
6184.971
6184.827
6185.828
6183.59
6182.965
6187.263
6191.605
6190.301
6188.258
6185.011
6181.749
6179.102
6176.453
6173.729
6171.256
6168.851
6166.317
6163.645
6160.938
6157.532
6152.971
6146.666
6138.482
6128.681
6119.918
6115.965
6118.311
6123.564
6129.096
6133.964
6137.874
6140.567
6142.225
6143.07
6143.329
6143.026
6142.172
6140.893
6138.798
6135.731
6133.969
6131.599
6130.157
6126.528
6122.469
6123.409
6122.431
6122.026
6123.564
6124.397
6123.632
6121.944
6120.311
6119.844
6122.135
6127.149
6134.28
6142.493
6150.898
6157.977
6156
6152.843
6156.04
6160.291
6161.763
6162.935
6163.008
6163.101
6165.373
6168.662
6176.06
6180.874
6186.308
6191.688
6192.952
6194.757
6197.43
6198.694
6199.265
6199.495
6200.278
6202.059
6203.029
6203.475
6203.634
6203.532
6203.775
6205.727
6209.299
6212.954
6215.75
6217.724
6219.335
6220.7
6221.64
6221.905
6222.176
6223.415
6225.052
6226.651
6228.474
6230.47
6232.191
6233.793
6235.599
6237.258
6239.287
6242.872
6247.83
6254.076
6260.882
6267.509
6273.661
6279.344
6284.52
6289.445
6294.11
6298.449
6302.918
6306.858
6310.425
6313.278
6315.819
6318.412
6320.782
6324.062
2488.88
2536.959
2600.342
2642.232
2687.731
2706.196
2735.559
2753.164
2737.308
2701.821
2650.306
2598.191
2549.425
2504.261
2485.323
2430.567
2404.487
2341.941
2343.508
2348.861
2374.346
2411.688
2439.384
2471.38
2563.506
2686.883
2657.428
2611.771
2726.778
2774.662
2763.603
2771.43
2796.153
2851.105
2932.244
3015.376
3099.423
3180.655
3298.294
3456.432
3634.737
3812.759
3984.114
4167.784
4361.629
4545.074
4717.064
4871.266
5000.558
5094.962
5154.563
5190.781
5208.08
5220.992
5226.809
5235.075
5253.774
5269.011
5267.381
5247.027
5228.335
5225.406
5217.516
5162.084
5065.817
4944.818
4789.937
4675.28
4627.788
4579.512
4538.46
4508.713
4488.08
4480.714
4491.448
4520.182
4560.075
4605.323
4652.408
4702.244
4753.355
4807.041
4860.945
4913.555
4961.447
5002.563
5037.475
5062.16
5071.151
5065.316
5060.831
5069.248
5089.443
5115.244
5133.659
5149.348
5160.073
5166.911
5174.076
5183.747
5201.685
5243.5
5316.339
5370.295
5387.128
5330.66
5228.709
5132.222
5036.943
4943.194
4859.876
4781.949
4729.944
4705.438
4689.718
4686.15
4703.752
4750.316
4823.69
4920.692
5038.444
5168.01
5306.051
5435.828
5552.682
5651.816
5734.444
5799.029
5832.248
5852.773
5850.789
5824.612
5792.621
5747.741
5706.256
5682.66
5657.791
5640.375
5637.76
5621.731
5584.406
5551.487
5522.746
5489.93
5461.566
5447.646
5443.483
5447.879
5469.062
5498.019
5517.336
5524.982
5529.626
5539.326
5568.854
5610.636
5661.125
5686.396
5747.89
5817.664
5888.439
5965.762
5943.541
5932.789
5938.546
5950.784
5947.525
5923.193
5877.216
5821.022
5765.893
5721.409
5708.054
5730.584
5786.279
5850.108
5896.242
5928.246
5944.983
5951.499
5954.335
5952.135
5950.367
5954.399
5961.951
5973.319
5980.919
5972.783
5934.977
5855.405
5760.091
5658.223
5556.738
5454.101
5342.356
5231.8
5113.775
4977.912
4834.521
4688.188
4542.025
4404.773
4276.92
4163.29
4064.228
3989.154
3940.598
3920.58
3924.112
3952.182
4001.969
4074.317
4170.596
4288.388
4429.17
4591.029
4770.7
4945.972
5103.469
5237.779
5350.529
5441.778
5514.581
5579.065
5632.096
5672.143
5709.273
5742.183
5766.35
5787.924
5805.419
5819.01
5834.615
5848.09
5864.911
5887.205
5900.046
5894.641
5882.349
5883.154
5889.509
5892.267
5892.627
5891.266
5892.087
5898.108
5904.217
5905.52
5906.287
5913.665
5931.939
5954.447
5979.199
5990.757
5999.303
6018.35
6042.164
6058.441
6059.165
6052.46
6047.97
6050.159
6048.797
6040.953
6035.333
6037.912
6038.869
6031.382
6017.463
6003.676
5987.502
5981.149
5997.371
6024.618
6047.069
6063.756
6068.617
6078.521
6098.584
6125.285
6158.517
6202.219
6248.538
6293.739
6340.501
6386.658
6416.336
6437.786
6453.024
6462.868
6465.033
6460.27
6447.646
6431.25
6416.911
6408.843
6410.056
6418.323
6409.369
6393.572
6395.337
6402.536
6403.173
6402.047
6403.429
6402.381
6395.297
6380.526
6374.048
6374.981
6367.172
6355.403
6342.603
6331.341
6320.627
6314.66
6314.82
6311.965
6303.958
6293.565
6283.365
6273.74
6264.047
6253.727
6242.023
6229.334
6217.24
6205.355
6191.696
6175.997
6158.955
6141.254
6122.545
6103.808
6089.57
6082.256
6077.887
6074.001
6069.295
6063.465
6055.914
6046.521
6036.194
6025.41
6014.585
6004.072
5994.878
5987.507
5981.792
5976.643
5971.451
5966.218
5960.977
5956.061
5951.949
5949.249
5945.884
5941.781
5940.9
5944.158
5948.169
5946.14
5937.684
5934.321
5941.743
5945.87
5941.542
5937.693
5935.014
5932.364
5929.686
5926.98
5924.337
5921.774
5919.154
5916.386
5913.457
5910.091
5905.701
5900.378
5894.117
5887.385
5881.427
5878.078
5878.176
5880.601
5883.962
5887.614
5890.819
5893.149
5894.82
5895.74
5896.345
5896.2
5895.496
5894.089
5892.934
5891.124
5888.532
5885.053
5883.828
5881.642
5876.726
5876.489
5876.849
5875.903
5877.19
5878.331
5878.393
5878.258
5878.56
5879.815
5882.14
5886.032
5891.459
5899.514
5905.448
5908.011
5907.463
5907.66
5911.849
5914.863
5916.62
5918.461
5919.668
5921.09
5923.243
5925.902
5931.636
5936.947
5942.653
5947.055
5948.266
5949.673
5951.583
5952.936
5953.658
5953.645
5954.457
5956.188
5956.558
5957.101
5958.046
5959.068
5960.071
5961.454
5963.497
5965.528
5967.334
5968.732
5970.784
5972.72
5973.849
5974.563
5975.952
5977.126
5977.385
5978.672
5980.483
5982.771
5985.284
5987.631
5989.901
5992.186
5995.063
5999.394
6003.706
6008.252
6014.008
6020.285
6026.341
6031.957
6037.184
6042.232
6046.971
6051.515
6055.877
6059.985
6063.858
6067.147
6070.423
6074.036
6077.639
6080.985
2170.944
2143.139
2148.871
2160.901
2172.167
2203.668
2246.056
2308.736
2379.633
2424.418
2416.343
2446.954
2456.525
2432.125
2382.537
2323.159
2270.972
2223.723
2146.751
2120.473
2106.798
2106.871
2096.143
2051.611
2014.387
2036.465
2090.315
2145.237
2195.77
2226.458
2275.073
2352.182
2398.545
2463.285
2533.315
2522.13
2526.759
2538.122
2577.892
2649.151
2731.402
2807.902
2872.798
2967.563
3111.747
3274.64
3446.76
3625.518
3808.875
3991.293
4169.954
4336.233
4494.355
4626.695
4721.996
4778.864
4814.987
4836.241
4841.742
4850.579
4870.287
4888.219
4919.866
4938.951
4965.511
4962.518
4906.077
4884.193
4865.26
4789.005
4676.247
4524.072
4394.252
4340.278
4275.182
4235.742
4207.052
4182.034
4166.2
4168.548
4198.536
4249.053
4306.055
4361.226
4416.51
4474.904
4534.833
4594.9
4652.335
4704.743
4750.471
4790.076
4818.811
4834.15
4834.443
4835.854
4849.713
4869.404
4893.498
4911.33
4921.615
4922.482
4914.699
4899.581
4881.274
4881.269
4917.086
4983.93
5045.17
5053.42
4987.725
4882.176
4779.173
4679.359
4595.673
4516.165
4440.746
4394.613
4376.746
4368.249
4365.309
4384.414
4432.864
4509.192
4617.571
4754.89
4899.492
5049.054
5193.92
5323.096
5434.563
5524.793
5599.497
5638.446
5660.109
5666.208
5650.64
5623.346
5581.701
5537.527
5504.394
5471.385
5440.528
5417.818
5384.034
5325.504
5263.871
5216.627
5178.939
5151.561
5142.092
5141.752
5146.015
5167.007
5203.389
5232.99
5240.481
5239.629
5246.542
5277.267
5330.223
5386.953
5433.878
5493.216
5560.781
5632.639
5705.551
5725.429
5727.803
5730.598
5736.111
5734.563
5718.947
5679.315
5626.14
5569.708
5527.689
5523.756
5541.506
5564.142
5608.287
5662.062
5696.166
5709.304
5714.744
5713.138
5710.213
5706.667
5706.151
5711.696
5719.372
5723.829
5711.835
5671.812
5593.389
5495.317
5389.162
5282.469
5177.11
5069.302
4963.46
4846.085
4707.649
4562.739
4414.895
4269.032
4130.952
3999.453
3881.89
3777.283
3699.052
3649.092
3630.473
3634.2
3659.784
3707.507
3775.326
3868.891
3983.932
4120.129
4281.872
4467.047
4650.15
4816.468
4956.152
5065.554
5152.398
5224.635
5289.244
5342.267
5387.741
5429.916
5465.206
5485.664
5495.423
5511.895
5531.071
5551.992
5575.572
5609.063
5637.342
5640.224
5618.943
5599.462
5602.669
5613.444
5621.722
5623.875
5626.271
5627.738
5633.441
5639.167
5644.039
5655.108
5671.711
5690.864
5707.474
5723.234
5736.773
5749.125
5761.574
5778.833
5798.093
5807.884
5812.998
5819.714
5826.027
5816.209
5802.957
5796.846
5795.522
5793.298
5789.367
5780.53
5769.264
5758.912
5759.752
5771.795
5787.369
5794.778
5803.273
5813.241
5825.854
5847.154
5874.044
5906.777
5944.355
5984.647
6025.025
6069.273
6121.615
6167.822
6194.508
6208.371
6216.935
6219.338
6217.808
6210.726
6198.461
6185.28
6175.185
6169.967
6169.418
6170.779
6170.333
6170.959
6171.149
6168.003
6161.971
6160.86
6161.437
6154.073
6140.724
6128.491
6123.509
6119.981
6112.507
6100.816
6091.64
6085.993
6078.902
6070.003
6062.655
6054.798
6045.528
6035.509
6024.911
6014.577
6004.579
5994.498
5984.398
5973.897
5961.208
5945.542
5928.641
5911.255
5893.319
5875.037
5856.901
5843.874
5836.82
5833.051
5829.352
5824.218
5817.678
5809.506
5799.678
5789.009
5777.986
5766.946
5756.052
5746.707
5738.711
5731.803
5726.617
5722.069
5717.563
5713.038
5708.444
5703.985
5701.032
5699.282
5698.554
5698.593
5700.81
5705.026
5708.261
5701.484
5689.108
5687.336
5692.61
5694.241
5692.711
5689.289
5685.669
5682.56
5679.777
5677.055
5674.284
5671.29
5668.271
5665.226
5661.842
5657.93
5653.509
5648.692
5643.837
5639.325
5636.261
5635.52
5636.561
5638.458
5640.68
5642.66
5644.242
5645.343
5645.842
5645.94
5645.63
5645.391
5645.08
5644.322
5643.939
5642.926
5639.244
5636.258
5634.654
5631.676
5630.465
5631.905
5632.571
5632.713
5632.883
5632.814
5633.554
5635.02
5637.244
5640.365
5644.182
5648.344
5653.592
5657.862
5660.778
5662.496
5664.164
5666.863
5669.473
5671.657
5673.791
5675.786
5677.902
5680.541
5683.802
5688.463
5692.89
5697.079
5700.39
5702.452
5704.288
5706.11
5707.57
5708.667
5709.614
5711.024
5711.896
5711.264
5711.326
5712.366
5713.731
5715.095
5716.459
5717.792
5719.322
5721.395
5723.896
5725.673
5726.75
5727.47
5728.306
5729.708
5730.732
5731.115
5732.245
5734.425
5736.933
5739.323
5741.729
5743.367
5745.328
5748.938
5753.782
5758.228
5762.442
5767.744
5773.682
5779.454
5785.153
5790.41
5795.283
5800.33
5805.051
5809.415
5813.725
5817.681
5821.264
5824.595
5829.05
5834.09
5836.753
1920.507
1888.9
1815.705
1814.208
1824.932
1865.071
1930.433
2018.88
2110.269
2177.679
2226.078
2249.904
2248.426
2210.2
2173.555
2136.586
2056.74
1944.522
1853.984
1793.893
1753.433
1734.826
1731.793
1703.26
1688.353
1730.394
1806.952
1874.546
1937.873
1973.188
2004.953
2069.915
2238.369
2261.512
2282.139
2309.508
2316.553
2309.718
2328.214
2381.324
2439.635
2504.631
2568.354
2640.465
2759.115
2902.635
3060.065
3238.091
3412.722
3583.124
3744.288
3896.125
4035.988
4162.347
4252.81
4289.984
4303.584
4326.48
4350.033
4371.154
4396.388
4435.819
4483.454
4533.597
4571.87
4602.678
4609.829
4571.466
4534.608
4497.563
4417.051
4256.271
4057.458
3972.935
3948.744
3909.809
3893.638
3858.643
3814.945
3805.953
3846.568
3927.133
4005.496
4069.701
4130.374
4196.326
4261.567
4328.747
4391.983
4450.447
4501.921
4547.847
4584.787
4609.147
4619.861
4631.981
4651.992
4677.62
4695.797
4703.918