/*--------------------------------*- C++ -*----------------------------------*\
| =========                 |                                                 |
| \\      /  F ield         | foam-extend: Open Source CFD                    |
|  \\    /   O peration     | Version:     3.1                                |
|   \\  /    A nd           | Web:         http://www.extend-project.de       |
|    \\/     M anipulation  |                                                 |
\*---------------------------------------------------------------------------*/
FoamFile
{
    version     2.0;
    format      ascii;
    class       volScalarField;
    location    "8.5";
    object      nut;
}
// * * * * * * * * * * * * * * * * * * * * * * * * * * * * * * * * * * * * * //

dimensions      [0 2 -1 0 0 0 0];

internalField   nonuniform List<scalar> 
119952
(
5.300437e-05
3.524334e-05
3.669565e-05
4.166553e-05
4.548758e-05
4.377449e-05
4.269426e-05
4.197451e-05
4.143384e-05
4.091481e-05
4.035763e-05
3.974465e-05
3.904795e-05
3.827156e-05
3.738579e-05
3.6389e-05
3.528264e-05
3.407722e-05
3.277677e-05
3.139137e-05
3.853891e-05
3.615015e-05
3.46948e-05
4.406329e-05
4.209892e-05
4.055662e-05
3.941781e-05
3.885598e-05
3.848082e-05
2.590709e-05
3.447754e-05
3.577713e-05
4.016503e-05
4.527695e-05
5.102898e-05
5.723053e-05
6.378875e-05
7.049034e-05
7.720971e-05
8.858252e-05
0.0003674116
0.0004431528
0.0005233473
0.0006034764
0.0006807433
0.0007539283
0.0008228304
0.000887803
0.0009489808
0.001348729
0.001411808
0.00147339
0.001535693
0.00159962
0.001667219
0.001738884
0.001815361
0.001898584
0.001988908
0.002088417
0.002193992
0.002309015
0.002434884
0.002571975
0.002720241
0.002879242
0.003048252
0.003231901
0.003167919
0.003500196
0.003609105
0.003732568
0.0038499
0.003945661
0.004020179
0.004075559
0.004110179
0.004121675
0.004107036
0.004062542
0.003977266
0.003852288
0.0036972
0.003516878
0.003317536
0.003107574
0.002898207
0.00270146
0.002538267
0.002378775
0.002246404
0.002166285
0.002084022
0.001985968
0.001893481
0.001801785
0.001696233
0.001569041
0.001518531
0.00148944
0.001474515
0.001468024
0.001466817
0.001469319
0.001474352
0.001480973
0.001488368
0.001495366
0.001500547
0.001501785
0.001496067
0.001479453
0.001444056
0.001373487
0.001163787
0.001001293
0.0008277154
0.000706598
0.0006466057
0.0007019215
0.0007972951
0.0009156192
0.001037433
0.001152641
0.001257386
0.001348106
0.00145698
0.001559476
0.0016364
0.001688124
0.001724374
0.001754752
0.001780762
0.001800427
0.001813764
0.001822201
0.001826932
0.001828712
0.001828329
0.001827068
0.001825114
0.00182257
0.001819751
0.001816849
0.00181394
0.001811045
0.001808059
0.001783421
0.001748249
0.001718855
0.001696059
0.001678412
0.001664351
0.00165262
0.001642288
0.001632687
0.001623337
0.001613875
0.001604027
0.001593555
0.001582243
0.001569856
0.001556234
0.001541658
0.001526213
0.001509789
0.001492384
0.001474046
0.001454842
0.001434837
0.001414099
0.001392693
0.001370678
0.001348102
0.001324992
0.001301319
0.0012769
0.001251144
0.001223976
0.001196108
0.001167851
0.001139361
0.001110737
0.001082049
0.001053358
0.001024719
0.000996195
0.0009678493
0.0009397851
0.0009121237
0.0008851721
0.0008589498
0.0008331547
0.0008080163
0.0007836338
0.0007602379
0.0007393811
0.000640634
0.0005696409
0.0005123716
0.0004754266
0.00044923
0.0004290504
0.0004124467
0.0003982677
0.0003857748
0.0003745121
0.0003641787
0.0003546085
0.0003456889
0.0003373599
0.0003295678
0.0003222537
0.00031536
0.0003088316
0.0003026345
0.0002967428
0.0002911227
0.000285744
0.0002805863
0.0002756269
0.0002708424
0.0002662139
0.0002617234
0.0002573575
0.0002531046
0.0002489581
0.0002449136
0.0002409755
0.0002371672
0.0002335472
0.0002303932
0.0002302241
0.0002349752
0.0002386628
0.0002431354
0.0002480075
0.0002530366
0.0002581632
0.0002633984
0.000268727
0.0002741205
0.0002795518
0.0002850493
0.0002891812
0.0002930525
0.0002968352
0.0003005646
0.0003042644
0.0003079512
0.0003116372
0.0003153313
0.0003190393
0.0003227656
0.0003265153
0.0003302892
0.0003340883
0.0003379134
0.0003417627
0.0003456333
0.0003495248
0.0003534357
0.0003573637
0.000361307
0.0003652671
0.0003692356
0.0003731839
0.0004856902
0.0004962251
0.0005061649
0.0005156904
0.0005247685
0.0005334276
0.0005419024
0.0005503476
0.0005586992
0.000566918
0.0005749785
0.000582842
0.0005905029
0.000597956
0.0006052022
0.0006122455
0.0006190922
0.0006257719
0.0006323485
0.0006388243
0.000645201
0.0006514825
0.0006576738
0.0006637792
0.0006698027
0.0006757473
0.000681616
0.0006874103
0.0006931312
0.0006987789
0.0007043525
0.0007098504
0.0007152705
0.0007206099
0.0007258659
0.0007310352
0.0007361138
0.0007410972
0.0007459802
0.0007507572
0.0007554214
0.0007599623
0.0007643649
0.0007686033
0.0007726352
0.0007763439
0.0007794446
0.0007821577
0.0007846783
0.0007869965
0.0007891249
0.000791078
0.0007928518
0.0007949581
0.0007970155
0.0007966377
0.0007966965
0.0007970424
0.0007976697
0.0007985369
0.0007995962
0.0008007972
0.0008020929
0.0008034388
0.0008047996
0.0008061483
0.0008074587
0.0008087107
0.0008098912
0.0008109923
0.0008120106
0.0008129457
0.0008138
0.0008145778
0.0008152849
0.0008159274
0.0008165119
0.0008170449
0.0008175331
0.0008179831
0.0008184009
0.0008187924
0.0008191628
0.0008195168
0.0008198591
0.0008201938
0.0008205253
0.0008208572
0.0008211931
0.0008215363
0.0008218897
0.0008222561
0.0008226383
0.0008230387
0.0008234594
0.0008239025
0.0008243695
0.000824862
0.000825381
0.0008259276
0.0008265025
0.0008271065
0.0008277401
0.0008284034
0.0008290969
0.0008298208
0.0008305751
0.0008313599
0.0008321751
0.0008330205
0.0008338961
0.0008348015
0.0008357364
0.0008367008
0.0008376943
0.0008387169
0.0008397688
0.0008408505
0.0008419623
0.0008431057
0.0008442818
0.0008454931
0.0008467417
0.0008480319
0.0008493674
0.0008507554
0.0008522022
0.0008537208
0.000855322
0.0008570295
0.0008588646
0.0008608737
0.0008631067
0.0008656708
0.0008687251
0.0008726304
0.0008778655
0.0008864239
0.000682596
0.0001040707
0.0001383116
0.0001569308
0.0001668035
0.0001756283
0.0001839807
0.000192056
0.0001998911
0.0002100045
0.0004901493
0.0007904169
0.001053727
0.001251306
0.00139719
0.001512094
0.001609779
0.001697746
0.001780333
0.002554575
0.00270823
0.002863592
0.003012446
0.003151119
0.003277511
0.003391071
0.003492598
0.003583698
0.003665724
0.00373948
0.003811639
0.003886675
0.003966495
0.004050051
0.004135673
0.00422154
0.00430612
0.004388169
0.004435755
0.004458833
0.004494262
0.004538018
0.004586677
0.004637056
0.004686635
0.004733474
0.004775975
0.004813217
0.004843901
0.004866973
0.004883672
0.004894338
0.004899733
0.004901007
0.004899425
0.004896316
0.004892
0.005639248
0.005638136
0.005639195
0.005643317
0.005652105
0.005667588
0.005691451
0.005725409
0.00577129
0.005830422
0.005904019
0.00599344
0.006099313
0.006221708
0.006360705
0.006515447
0.006685433
0.006869979
0.007071955
0.007282255
0.007485958
0.007689338
0.007890855
0.008079527
0.008247034
0.008389427
0.008504096
0.008587937
0.008638544
0.008654073
0.008632648
0.008570767
0.008461835
0.008312099
0.008122401
0.007894967
0.007634327
0.007346942
0.007043924
0.006736812
0.006431534
0.006141442
0.005873556
0.005613479
0.005357794
0.005112248
0.004876901
0.004649253
0.004448138
0.004285957
0.004148058
0.004030708
0.003930571
0.003845327
0.003773526
0.003714182
0.003666363
0.003628763
0.003600232
0.003578321
0.003559471
0.003540214
0.003511115
0.003459753
0.003367879
0.003201083
0.002968054
0.002723067
0.00249893
0.002312965
0.002173467
0.002076441
0.001860079
0.001702635
0.001632945
0.001636137
0.001690014
0.001786457
0.00193039
0.002123461
0.002354645
0.002612247
0.002881333
0.003106619
0.003239035
0.003356824
0.003460908
0.003551806
0.003629638
0.003694786
0.003748791
0.003794204
0.003835251
0.003873373
0.00390923
0.003943439
0.00397649
0.004008724
0.004039623
0.004068595
0.004095599
0.004120789
0.00414436
0.004166463
0.004187159
0.004206426
0.004224174
0.004240264
0.004254525
0.004266768
0.004276796
0.004284426
0.004289503
0.004291923
0.004291622
0.00428855
0.004282662
0.004273938
0.004262392
0.004248065
0.004231019
0.004211343
0.004189135
0.004164494
0.004137519
0.004108296
0.004076893
0.004043362
0.00400776
0.003970171
0.00393069
0.003889412
0.003846419
0.00380178
0.003755553
0.00370779
0.003658537
0.003607836
0.003555717
0.003502211
0.003447305
0.003391025
0.003333407
0.003274684
0.003214908
0.003154445
0.003093419
0.00303696
0.002855814
0.002655834
0.002517298
0.002412952
0.002329116
0.002258234
0.002196167
0.002140504
0.002089715
0.002042812
0.001999167
0.001958381
0.001920202
0.001884477
0.001851093
0.001819938
0.001790893
0.001763834
0.001738645
0.001715219
0.001693449
0.001673234
0.001654473
0.001637066
0.001620914
0.00160592
0.001591993
0.001579047
0.001567005
0.001555802
0.001545389
0.001535747
0.00152692
0.0015191
0.001512824
0.001509412
0.001509168
0.001509865
0.001511484
0.001513767
0.001516623
0.001519969
0.001523748
0.001527919
0.001532456
0.001537345
0.001542577
0.001548145
0.001554045
0.001560271
0.00156682
0.001573686
0.001580864
0.001588345
0.001596118
0.001604169
0.001612486
0.001621054
0.001629856
0.001638872
0.00164808
0.001657456
0.001666977
0.001676619
0.001686359
0.001696172
0.001706032
0.001715919
0.001725795
0.001735341
0.002027837
0.002044363
0.002060614
0.002076031
0.002090604
0.002104408
0.002117559
0.002130177
0.002142363
0.002154203
0.002165756
0.002177062
0.002188154
0.002199054
0.002209778
0.002220336
0.002230731
0.002240964
0.002251035
0.002260942
0.00227068
0.002280245
0.002289634
0.002298841
0.002307863
0.002316693
0.002325327
0.002333758
0.002341981
0.002349989
0.002357775
0.00236533
0.002372646
0.002379713
0.002386521
0.002393059
0.002399315
0.002405278
0.002410932
0.002416264
0.002421255
0.002425888
0.002430143
0.002433997
0.002437392
0.002440233
0.002442417
0.002444016
0.002445115
0.00244578
0.002445969
0.002445755
0.002445065
0.002444513
0.002443469
0.002441291
0.002438473
0.002435358
0.002432029
0.002428511
0.002424816
0.002420947
0.002416905
0.002412691
0.002408309
0.002403768
0.002399077
0.002394244
0.002389276
0.00238418
0.002378966
0.002373639
0.002368207
0.002362678
0.00235706
0.002351361
0.002345589
0.002339753
0.002333864
0.00232793
0.002321962
0.00231597
0.002309966
0.002303962
0.002297967
0.002291995
0.002286057
0.002280165
0.00227433
0.002268563
0.002262876
0.002257279
0.002251782
0.002246395
0.002241128
0.002235987
0.002230982
0.002226119
0.002221403
0.00221684
0.002212433
0.002208187
0.002204103
0.002200184
0.00219643
0.002192842
0.002189421
0.002186164
0.002183072
0.002180143
0.002177376
0.002174768
0.002172317
0.002170022
0.00216788
0.002165888
0.002164048
0.002162354
0.002160809
0.00215941
0.002158162
0.002157061
0.00215612
0.002155329
0.002154714
0.002154261
0.002154014
0.002153947
0.002154139
0.002154547
0.002155311
0.002156356
0.002157927
0.00215987
0.002162538
0.002165696
0.002170934
0.002180047
0.002193422
2.632242e-05
3.123386e-05
3.851399e-05
4.67982e-05
5.623905e-05
6.700388e-05
7.938633e-05
9.348582e-05
0.0001095011
0.0001364211
0.0006506728
0.0007704322
0.0008976001
0.001033466
0.001180083
0.001342639
0.001532348
0.001787189
0.002329395
0.003780253
0.004055176
0.004283378
0.004488557
0.004683592
0.004862581
0.005029605
0.005214251
0.005462889
0.005938373
0.006272556
0.006418638
0.006543794
0.006661165
0.006766706
0.006862215
0.006949009
0.007028898
0.007118984
0.007152439
0.007320287
0.007458459
0.007558918
0.007633132
0.007690235
0.007735544
0.007771924
0.007801726
0.00782785
0.00785759
0.007896415
0.007941531
0.007988247
0.008031984
0.008069645
0.008099529
0.008118806
0.008944679
0.008954892
0.008954316
0.008948813
0.008941097
0.008932474
0.008923725
0.008915319
0.008907739
0.008901068
0.008895228
0.008890907
0.008888629
0.008888616
0.008891165
0.008896458
0.008904483
0.008915054
0.008927753
0.008940991
0.008953624
0.008965362
0.008975268
0.008982537
0.008986536
0.008986698
0.008982587
0.008973602
0.008959192
0.008939178
0.008913112
0.008880667
0.008841929
0.008797599
0.00874844
0.008696137
0.008641358
0.0085882
0.00851815
0.0084533
0.008394415
0.008342596
0.008299084
0.008265274
0.008242357
0.008231699
0.008234859
0.008253303
0.008288419
0.008341348
0.008412941
0.008503726
0.008613882
0.008743085
0.008890677
0.009055772
0.009237203
0.009432271
0.00963224
0.009833145
0.01
0.01
0.01
0.01
0.01
0.01
0.01
0.01
0.01
0.01
0.01
0.01
0.01
0.01
0.01
0.009832668
0.009537091
0.009224751
0.008902942
0.008580878
0.008267858
0.007960285
0.007657169
0.007363108
0.007082815
0.006815112
0.006568575
0.006352198
0.006160528
0.005987921
0.005832014
0.005690772
0.005562873
0.005447891
0.005345327
0.005254868
0.005176455
0.005108217
0.005048415
0.004994411
0.004937724
0.004870473
0.00477921
0.004638304
0.004447038
0.004227672
0.003992982
0.003751743
0.003514158
0.003289621
0.00308821
0.002918417
0.002789413
0.00271027
0.002532514
0.002346842
0.002257564
0.002261405
0.00234016
0.002476733
0.002663282
0.002891494
0.003149276
0.003422981
0.003695945
0.003952016
0.004178513
0.00431833
0.004436632
0.004542057
0.004635024
0.004717759
0.004793188
0.004862973
0.004928533
0.004990991
0.005051089
0.005109247
0.005165729
0.00522066
0.005274039
0.00532572
0.005375663
0.005423612
0.005469377
0.00551275
0.005553522
0.005591485
0.005626434
0.005658172
0.005686524
0.005711336
0.005732491
0.005749884
0.005763448
0.005773134
0.005778926
0.005780826
0.005778915
0.005773249
0.005763941
0.005751115
0.005734905
0.005715444
0.005692845
0.005667268
0.005638802
0.005607546
0.005573602
0.00553703
0.005497885
0.005456203
0.005412011
0.005365321
0.005316147
0.005264492
0.005210377
0.005153809
0.005094844
0.005033491
0.004969879
0.004903999
0.004836144
0.004766177
0.004694701
0.004620812
0.004535306
0.004456573
0.004380718
0.004305748
0.004230806
0.004155398
0.004079618
0.004004555
0.003931356
0.003860782
0.003792825
0.003727536
0.003664971
0.003605181
0.003548205
0.003494059
0.003442733
0.003394199
0.00334841
0.003305304
0.003264805
0.003226831
0.003191293
0.003158069
0.003127067
0.003098176
0.003071284
0.003046287
0.003023087
0.003001594
0.002981733
0.00296346
0.002946778
0.002931805
0.002918799
0.00290817
0.002899972
0.002893668
0.002888733
0.002884725
0.002881616
0.002879407
0.002878101
0.002877708
0.00287826
0.002879834
0.002882491
0.002886172
0.00289083
0.00289643
0.002902947
0.002910355
0.002918634
0.002927765
0.002937725
0.002948481
0.002959995
0.002972224
0.002985122
0.002998641
0.003012726
0.003027326
0.003042387
0.003057852
0.003073677
0.003089792
0.003106175
0.003122732
0.003139372
0.003156888
0.003168912
0.003181305
0.003193747
0.00320632
0.003219218
0.003232475
0.003246023
0.003259762
0.003273614
0.003287519
0.003301439
0.003315336
0.003329183
0.003342952
0.003356622
0.003370174
0.003383594
0.003396865
0.003409976
0.003422916
0.003435671
0.003448233
0.003460591
0.003472735
0.003484655
0.003496342
0.003507783
0.003518969
0.003529888
0.003540527
0.003550876
0.00356092
0.003570646
0.003580039
0.003589083
0.003597764
0.003606063
0.003613965
0.00362145
0.0036285
0.003635096
0.003641217
0.00364684
0.003651935
0.00365646
0.003660355
0.003663562
0.003666074
0.003667929
0.003669163
0.003669787
0.003669816
0.003669248
0.003668081
0.003666233
0.003663741
0.003660784
0.003657393
0.003653515
0.003649128
0.003644252
0.003638925
0.003633176
0.003627034
0.00362052
0.003613657
0.003606466
0.003598966
0.003591174
0.003583108
0.003574785
0.003566222
0.003557434
0.003548437
0.003539249
0.003529884
0.003520361
0.003510694
0.0035009
0.003490997
0.003481001
0.00347093
0.003460802
0.003450634
0.003440445
0.003430254
0.003420078
0.003409937
0.003399849
0.003389832
0.003379904
0.003370083
0.003360386
0.003350829
0.003341428
0.003332199
0.003323154
0.003314307
0.00330567
0.003297252
0.003289064
0.003281112
0.003273403
0.003265943
0.003258736
0.003251785
0.003245091
0.003238657
0.003232481
0.003226565
0.003220905
0.003215502
0.003210352
0.003205453
0.003200803
0.003196399
0.003192239
0.00318832
0.003184641
0.003181203
0.003178003
0.003175045
0.003172329
0.003169863
0.003167649
0.003165701
0.003164025
0.003162645
0.00316157
0.003160842
0.003160476
0.003160531
0.003161041
0.00316209
0.003163782
0.003166355
0.003170318
0.003176198
0.00318413
3.426804e-05
5.386187e-05
0.0001229199
0.0004044004
0.000687649
0.001205916
0.001615962
0.002105706
0.002669504
0.003121319
0.003444648
0.003701174
0.003965
0.004248155
0.004539058
0.0048349
0.005137892
0.005450722
0.005774855
0.006109405
0.006450397
0.006789414
0.007109597
0.007420167
0.007718286
0.007995958
0.008263037
0.008525907
0.008789081
0.00906931
0.00943387
0.01
0.01
0.01
0.01
0.01
0.01
0.01
0.01
0.01
0.01
0.01
0.01
0.01
0.01
0.01
0.01
0.009972554
0.009909283
0.00985758
0.009806668
0.009787262
0.009804689
0.009845738
0.009907039
0.009992755
0.01
0.01
0.01
0.01
0.01
0.01
0.01
0.01
0.01
0.01
0.01
0.01
0.01
0.01
0.01
0.01
0.01
0.01
0.01
0.01
0.01
0.01
0.01
0.01
0.01
0.01
0.01
0.01
0.01
0.01
0.01
0.01
0.01
0.01
0.01
0.01
0.01
0.01
0.01
0.01
0.01
0.01
0.01
0.01
0.01
0.01
0.01
0.01
0.01
0.01
0.01
0.01
0.01
0.01
0.01
0.01
0.01
0.01
0.01
0.01
0.01
0.01
0.01
0.01
0.01
0.01
0.01
0.01
0.01
0.01
0.01
0.01
0.01
0.01
0.01
0.01
0.01
0.01
0.01
0.01
0.01
0.01
0.01
0.01
0.01
0.01
0.01
0.01
0.01
0.01
0.01
0.01
0.01
0.009887337
0.009581954
0.009283531
0.008996551
0.008723162
0.008466821
0.008230433
0.008013478
0.00781298
0.007626414
0.007451856
0.007288019
0.007134394
0.00699077
0.006857383
0.006734892
0.006623009
0.006521342
0.006428819
0.006340803
0.006251775
0.006153489
0.006031257
0.005878062
0.005698073
0.005493851
0.005265646
0.005015211
0.004745975
0.004465885
0.004187758
0.003927633
0.003703386
0.0035293
0.003412208
0.003353768
0.003231334
0.003015613
0.002903783
0.00288785
0.002953091
0.003084128
0.003268443
0.003493769
0.003743118
0.004004497
0.004266733
0.004517273
0.004747162
0.004955165
0.005143148
0.005289077
0.00539544
0.005494166
0.005586879
0.005674814
0.005759237
0.005841107
0.005921034
0.005999316
0.006075998
0.006150941
0.006223933
0.006294628
0.006362882
0.006428304
0.006490625
0.006549588
0.006604941
0.006656454
0.006703892
0.006747063
0.00678587
0.006820144
0.006849801
0.006874791
0.0068951
0.006910754
0.006921826
0.006928427
0.006930697
0.0069288
0.006922912
0.006913217
0.006899883
0.006883077
0.006862941
0.006839587
0.006813101
0.006783542
0.006750937
0.006715293
0.006676599
0.006634832
0.00658996
0.006541958
0.006490797
0.006436481
0.006378999
0.00631841
0.006254722
0.006188079
0.006118505
0.006046276
0.005971372
0.005893495
0.005813371
0.005731332
0.005647721
0.005562866
0.005476998
0.005390335
0.005303012
0.005215025
0.005126846
0.00504016
0.004955928
0.00487435
0.004795609
0.004719873
0.004647216
0.004577745
0.004511498
0.004448483
0.004388682
0.004332064
0.004278529
0.004228011
0.004180406
0.004135605
0.004093456
0.004053852
0.004016666
0.003981776
0.003949076
0.003918486
0.003889923
0.003863379
0.003838898
0.003816576
0.003796611
0.003779042
0.003763667
0.003750229
0.003738514
0.003728401
0.003719806
0.003712672
0.003706954
0.003702598
0.003699503
0.003697576
0.003696875
0.00369744
0.003699302
0.003702472
0.00370696
0.003712772
0.003719919
0.003728422
0.003738319
0.003749542
0.003761991
0.003775584
0.003790252
0.003805932
0.003822549
0.00384003
0.003858293
0.003877268
0.00389686
0.003917006
0.00393762
0.003958662
0.003980018
0.004001297
0.004022363
0.004043418
0.0040645
0.004085569
0.004106551
0.004127413
0.004148126
0.004168669
0.004189029
0.004209198
0.004229167
0.004248925
0.004268461
0.004287762
0.004306819
0.00432562
0.004344156
0.004362418
0.004380397
0.004398086
0.004415477
0.004432561
0.004449332
0.004465782
0.004481902
0.004497684
0.004513119
0.004528198
0.00454291
0.004557243
0.004571185
0.004584723
0.004597843
0.00461053
0.004622767
0.004634538
0.004645826
0.004656611
0.004666875
0.004676598
0.004685757
0.004694329
0.004702285
0.00470959
0.004716203
0.004722079
0.00472719
0.004731537
0.004735141
0.004738009
0.004740147
0.004741541
0.004742208
0.00474218
0.004741436
0.004739969
0.004737801
0.004734962
0.004731479
0.00472738
0.004722693
0.004717439
0.004711638
0.004705309
0.004698471
0.004691143
0.004683345
0.004675096
0.004666417
0.004657326
0.004647845
0.004637991
0.004627787
0.004617253
0.004606408
0.004595274
0.004583872
0.004572222
0.004560348
0.004548271
0.004536013
0.004523598
0.004511049
0.00449839
0.004485646
0.00447284
0.004459999
0.004447148
0.004434311
0.004421514
0.004408782
0.004396139
0.004383609
0.004371215
0.004358981
0.004346927
0.004335074
0.00432344
0.004312044
0.004300901
0.004290025
0.004279428
0.004269123
0.004259118
0.00424942
0.004240037
0.004230972
0.004222229
0.004213811
0.004205718
0.004197951
0.004190509
0.00418339
0.004176593
0.004170116
0.004163957
0.004158113
0.004152583
0.004147366
0.004142461
0.00413787
0.004133591
0.004129633
0.004125994
0.004122687
0.004119715
0.004117098
0.004114841
0.004112973
0.004111508
0.004110486
0.004109953
0.004109964
0.004110669
0.004112134
0.004114762
0.004118545
0.00412432
1.996163e-05
3.190181e-05
4.736631e-05
0.0002036434
0.000330493
0.0005494335
0.0007688374
0.0009717533
0.00122902
0.001482534
0.001760694
0.002123012
0.002557425
0.003055625
0.003627114
0.004371761
0.005767056
0.006341133
0.006902704
0.007415434
0.007870818
0.008268628
0.008627609
0.008961725
0.009277979
0.009579971
0.009869065
0.01
0.01
0.01
0.01
0.01
0.01
0.01
0.01
0.01
0.01
0.01
0.01
0.01
0.01
0.01
0.01
0.01
0.01
0.01
0.01
0.01
0.01
0.01
0.01
0.01
0.01
0.009783857
0.009541065
0.009323496
0.009134921
0.008977143
0.008850399
0.008753375
0.008684297
0.008638265
0.008621093
0.008636717
0.008680017
0.008742744
0.008828716
0.008932189
0.009056431
0.009203412
0.009374037
0.00958235
0.009837095
0.01
0.01
0.01
0.01
0.01
0.01
0.01
0.01
0.01
0.01
0.01
0.01
0.01
0.01
0.01
0.01
0.01
0.01
0.01
0.01
0.01
0.01
0.01
0.01
0.01
0.01
0.01
0.01
0.01
0.01
0.01
0.01
0.01
0.01
0.01
0.01
0.01
0.01
0.01
0.01
0.01
0.01
0.01
0.01
0.01
0.01
0.01
0.01
0.01
0.01
0.01
0.01
0.01
0.01
0.01
0.01
0.01
0.01
0.01
0.01
0.01
0.01
0.01
0.01
0.01
0.01
0.01
0.01
0.01
0.01
0.01
0.01
0.01
0.01
0.01
0.01
0.01
0.01
0.01
0.01
0.01
0.01
0.01
0.01
0.01
0.01
0.01
0.01
0.01
0.01
0.01
0.01
0.01
0.009783272
0.009564676
0.009359287
0.009165034
0.008980062
0.008802931
0.00863235
0.008468028
0.008310459
0.008160665
0.008019415
0.007887413
0.007765037
0.007650562
0.007541125
0.007432421
0.007316119
0.007185202
0.007037672
0.006871166
0.006680795
0.00646138
0.006209404
0.005925492
0.005615365
0.005290466
0.004969039
0.004672285
0.004418487
0.004220444
0.004083836
0.004007827
0.003987987
0.003969425
0.003766932
0.00365127
0.003630245
0.003691033
0.003816574
0.003991201
0.004203862
0.004439029
0.004683137
0.004927343
0.005162561
0.005383714
0.005591704
0.005780374
0.005946366
0.006064768
0.006168938
0.006270047
0.006369168
0.006466882
0.006563374
0.006658556
0.006752173
0.006843889
0.006933203
0.007019963
0.007103588
0.007183778
0.007260211
0.007332526
0.007400522
0.007463864
0.007522337
0.007575755
0.007623973
0.007666889
0.007704453
0.007736671
0.007763608
0.007785381
0.007802151
0.007814118
0.007821507
0.007824557
0.007823508
0.007818586
0.007809992
0.007797896
0.007782429
0.00776368
0.007741702
0.007716508
0.007688084
0.00765639
0.007621368
0.007582955
0.007541083
0.007495696
0.007446746
0.007394213
0.007338082
0.007278394
0.007215183
0.007148576
0.007078661
0.007005506
0.006929236
0.00685006
0.00676822
0.006683977
0.006597586
0.006509299
0.006419374
0.006328062
0.006235628
0.006142193
0.00604859
0.005956452
0.005866253
0.00577833
0.005692973
0.005610416
0.005530843
0.005454391
0.005381146
0.00531115
0.005244405
0.005180872
0.005120479
0.005063128
0.005008702
0.004957068
0.004908087
0.00486162
0.004817539
0.004775726
0.004736092
0.004698577
0.004663164
0.004629875
0.004598771
0.004569883
0.004543157
0.004518474
0.004495722
0.004474827
0.004455752
0.004438482
0.004423017
0.004409359
0.004397513
0.004387487
0.004379297
0.004372959
0.004368485
0.004365879
0.004365124
0.004366194
0.004369032
0.004373552
0.004379638
0.004387299
0.004396553
0.004407392
0.004419798
0.004433762
0.004449277
0.004466265
0.004484559
0.00450405
0.004524626
0.004546192
0.004568633
0.004591844
0.004615716
0.004640133
0.004664969
0.004690156
0.004715617
0.004741267
0.004767052
0.004792932
0.004818852
0.004844753
0.004870583
0.004896298
0.004921862
0.004947239
0.0049724
0.004997319
0.005021972
0.005046338
0.005070398
0.005094138
0.005117541
0.005140595
0.005163287
0.005185608
0.005207546
0.005229092
0.005250236
0.005270971
0.005291285
0.00531117
0.005330615
0.005349611
0.005368145
0.005386205
0.005403779
0.005420853
0.005437411
0.005453439
0.005468919
0.005483834
0.005498166
0.005511896
0.005525001
0.005537459
0.005549243
0.005560321
0.00557066
0.005580221
0.005588974
0.005596907
0.005604021
0.005610317
0.005615795
0.005620456
0.005624307
0.00562736
0.005629583
0.005630958
0.005631512
0.00563128
0.00563029
0.00562856
0.00562611
0.00562296
0.00561913
0.005614637
0.005609502
0.005603744
0.005597381
0.005590436
0.005582927
0.005574875
0.005566301
0.005557225
0.005547667
0.005537649
0.005527193
0.005516319
0.005505049
0.005493407
0.005481416
0.005469098
0.005456479
0.005443584
0.005430438
0.005417068
0.005403501
0.005389767
0.005375893
0.00536191
0.005347846
0.005333734
0.005319602
0.005305481
0.005291402
0.005277394
0.005263486
0.005249707
0.005236084
0.005222644
0.00520941
0.005196406
0.005183653
0.005171171
0.005158977
0.005147086
0.005135512
0.005124267
0.00511336
0.0051028
0.005092593
0.005082743
0.005073255
0.00506413
0.005055369
0.005046973
0.005038941
0.005031271
0.005023964
0.005017017
0.005010429
0.0050042
0.004998331
0.00499282
0.004987671
0.004982884
0.004978467
0.004974421
0.004970759
0.004967485
0.004964617
0.004962169
0.004960168
0.004958658
0.004957676
0.004957347
0.004957679
0.00495899
0.00496116
0.004965309
1.853497e-05
2.831902e-05
5.423502e-05
0.0001611512
0.0002584406
0.0004061474
0.0005201675
0.000650358
0.0008036712
0.0009548643
0.00113276
0.001364773
0.001633134
0.001956156
0.002380867
0.003191778
0.003576364
0.003993697
0.004436734
0.00490378
0.005398758
0.005913727
0.00643492
0.00694872
0.007441653
0.007904844
0.008356655
0.008863211
0.009344569
0.009788365
0.01
0.01
0.01
0.01
0.01
0.01
0.01
0.01
0.01
0.01
0.01
0.01
0.01
0.01
0.01
0.01
0.01
0.01
0.01
0.01
0.01
0.01
0.01
0.01
0.01
0.01
0.01
0.01
0.01
0.00982941
0.009489924
0.009163127
0.008871838
0.008605357
0.008365463
0.008155792
0.007982387
0.007844303
0.007742161
0.007674967
0.007637733
0.007632122
0.007654538
0.007710973
0.007796856
0.007912531
0.008062916
0.008245908
0.008482332
0.008765261
0.009096407
0.009460068
0.009869432
0.01
0.01
0.01
0.01
0.01
0.01
0.01
0.01
0.01
0.01
0.01
0.01
0.01
0.01
0.01
0.01
0.01
0.01
0.01
0.01
0.01
0.01
0.01
0.01
0.01
0.01
0.01
0.01
0.01
0.01
0.01
0.01
0.01
0.01
0.01
0.01
0.01
0.01
0.01
0.01
0.01
0.01
0.01
0.01
0.01
0.01
0.01
0.01
0.01
0.01
0.01
0.01
0.01
0.01
0.01
0.01
0.01
0.01
0.01
0.01
0.01
0.01
0.01
0.01
0.01
0.01
0.01
0.01
0.01
0.01
0.01
0.01
0.01
0.01
0.01
0.01
0.01000001
0.01000001
0.01000002
0.01000002
0.01000001
0.01
0.01
0.01
0.01
0.01
0.01
0.01
0.01
0.01
0.01
0.01
0.01
0.01
0.01
0.01
0.01
0.01
0.01
0.009892487
0.009722367
0.009556445
0.009395596
0.009240897
0.009093548
0.008954533
0.008823662
0.008700297
0.008582671
0.008466568
0.00834725
0.008221401
0.008084926
0.007931457
0.007753457
0.007543687
0.007296868
0.007011124
0.006689776
0.006343709
0.005990363
0.005649716
0.005341141
0.005080275
0.004877
0.004735578
0.004655078
0.004630341
0.004653665
0.004715449
0.00458331
0.00450199
0.004500473
0.004568888
0.004695108
0.004864368
0.005063218
0.005280602
0.005507114
0.005731075
0.005943995
0.006144107
0.006325471
0.006457183
0.006565796
0.006674054
0.006782459
0.006891088
0.006999728
0.007107975
0.007215325
0.007321235
0.00742499
0.007526311
0.007624498
0.00771909
0.007809647
0.007895748
0.007977004
0.008053074
0.008123666
0.008188545
0.008247538
0.008300543
0.00834753
0.008388546
0.008423712
0.008453211
0.00847728
0.008496201
0.008510284
0.008519848
0.008525201
0.008526627
0.008524373
0.008518642
0.008509585
0.008497305
0.008481853
0.008463235
0.008441421
0.00841635
0.008387942
0.008356102
0.008320738
0.008281758
0.008239089
0.008192667
0.008142461
0.008088458
0.008030681
0.00796917
0.007903973
0.007835174
0.007762899
0.007687297
0.007608552
0.007526874
0.007442496
0.007355669
0.007266657
0.007175725
0.007083142
0.006989164
0.006894198
0.006799803
0.006706563
0.006614913
0.006525237
0.006437869
0.006353085
0.0062711
0.006192074
0.006116105
0.006043237
0.005973465
0.005906737
0.005842965
0.005782031
0.005723797
0.005668114
0.005614828
0.005563795
0.005514887
0.005467999
0.005423057
0.005380022
0.005338883
0.005299637
0.005262258
0.005226693
0.005192889
0.005160822
0.005130503
0.005101968
0.00507527
0.005050476
0.005027657
0.005006889
0.004988242
0.004971784
0.004957573
0.004945653
0.004936053
0.004928783
0.004923837
0.004921193
0.004920811
0.004922652
0.004926664
0.004932779
0.004940903
0.004950903
0.004962632
0.004976052
0.004991161
0.00500794
0.00502638
0.005046403
0.005067835
0.005090523
0.005114338
0.005139164
0.005164845
0.005191242
0.005218257
0.005245804
0.005273802
0.005302176
0.005330848
0.00535974
0.005388777
0.005417894
0.005447032
0.005476137
0.005505161
0.005534058
0.00556279
0.00559132
0.005619616
0.005647649
0.005675393
0.005702823
0.00572992
0.005756663
0.005783035
0.00580902
0.005834603
0.00585977
0.005884508
0.005908803
0.005932643
0.005956015
0.005978906
0.006001302
0.006023189
0.006044554
0.006065379
0.006085651
0.006105351
0.006124462
0.006142966
0.006160842
0.006178069
0.006194623
0.006210478
0.006225605
0.006239971
0.006253544
0.006266294
0.006278202
0.006289257
0.006299453
0.006308785
0.006317249
0.006324841
0.006331556
0.00633738
0.006342307
0.006346349
0.006349526
0.006351856
0.006353352
0.006354029
0.006353906
0.006353
0.006351332
0.006348918
0.006345778
0.00634193
0.006337395
0.006332191
0.006326338
0.006319856
0.006312764
0.006305082
0.00629683
0.006288029
0.0062787
0.006268862
0.006258538
0.006247751
0.006236523
0.006224877
0.00621284
0.006200435