/*--------------------------------*- C++ -*----------------------------------*\
| =========                 |                                                 |
| \\      /  F ield         | foam-extend: Open Source CFD                    |
|  \\    /   O peration     | Version:     3.1                                |
|   \\  /    A nd           | Web:         http://www.extend-project.de       |
|    \\/     M anipulation  |                                                 |
\*---------------------------------------------------------------------------*/
FoamFile
{
    version     2.0;
    format      ascii;
    class       volScalarField;
    location    "8.5";
    object      omega;
}
// * * * * * * * * * * * * * * * * * * * * * * * * * * * * * * * * * * * * * //

dimensions      [0 0 -1 0 0 0 0];

internalField   nonuniform List<scalar> 
119952
(
364.9976
465.9726
448.6836
399.3192
365.83
374.4922
385.9547
398.8197
412.4658
426.2802
439.9247
453.1611
465.8032
477.6427
488.3642
497.7278
505.5807
511.8956
516.9206
521.9517
427.4838
415.3208
408.3899
337.1203
321.1709
309.0358
298.6986
289.6471
279.0043
180.4807
753.8149
616.9188
520.285
454.3301
406.3357
369.3973
339.4307
314.306
292.6309
268.0523
219.9758
187.6231
165.9843
150.5732
138.9274
129.6711
122.0003
115.4368
109.6873
86.81732
83.1735
79.61823
76.1993
72.97283
69.94163
67.08357
64.39102
61.84596
59.44212
57.21222
55.00038
52.83013
50.73441
48.73738
46.861
45.10956
43.45836
41.89155
41.44734
41.25436
40.67743
40.19631
39.89392
39.71667
39.57896
39.4947
39.47966
39.54287
39.70523
39.99764
40.52085
41.31619
42.36191
43.66894
45.24001
47.04728
49.0015
50.96543
52.66989
54.48601
55.88346
56.54712
57.59793
59.04238
60.47374
62.26029
64.73153
67.60628
68.04024
67.84979
67.25402
66.48856
65.60828
64.61948
63.52581
62.33507
61.07071
59.77177
58.50178
57.34929
56.42201
55.91
56.13213
57.74738
62.34718
71.0978
80.45057
88.98292
95.92493
98.58585
96.372
89.57735
80.30264
71.05973
62.96943
56.26104
50.91563
46.70564
43.33399
40.57193
38.26041
36.30532
34.65498
33.26516
32.0861
31.0761
30.2057
29.454
28.80415
28.23955
27.75214
27.32829
26.95756
26.63234
26.34613
26.09292
25.87687
26.00873
26.28013
26.44531
26.50717
26.50017
26.45352
26.38694
26.31259
26.23766
26.16642
26.10139
26.04438
25.99677
25.96023
25.93742
25.93044
25.93518
25.9511
25.97907
26.01916
26.07136
26.13569
26.21226
26.30117
26.4026
26.51675
26.64391
26.78463
26.94021
27.11417
27.31743
27.55513
27.81756
28.1012
28.40508
28.72909
29.07347
29.43858
29.82472
30.23206
30.66056
31.10929
31.57712
32.05843
32.55339
33.06764
33.59665
34.13731
34.68085
35.16731
38.12283
42.99895
46.1795
48.31734
49.8242
50.95252
51.86416
52.63579
53.32065
53.95189
54.55332
55.13763
55.71312
56.28372
56.85236
57.4222
57.99631
58.57813
59.16914
59.76994
60.3825
61.00886
61.65006
62.30773
62.98383
63.68012
64.39833
65.13988
65.90581
66.69726
67.51493
68.35763
69.21935
70.08097
70.83893
70.58849
69.36046
68.2564
67.20337
66.19006
65.2077
64.25055
63.31358
62.39394
61.49079
60.60441
59.73568
58.87802
58.03017
57.19677
56.38097
55.58466
54.8089
54.05414
53.32042
52.6076
51.91538
51.24318
50.59049
49.95677
49.34139
48.74382
48.16363
47.60017
47.05288
46.52118
46.00441
45.5033
45.01757
44.5424
35.95857
35.41663
34.79036
34.09153
33.41295
32.78189
32.20768
31.68915
31.22711
30.81807
30.45711
30.13754
29.85258
29.59588
29.36172
29.14521
28.94235
28.74901
28.55966
28.3722
28.1857
27.99976
27.81433
27.62959
27.44585
27.26345
27.08276
26.90413
26.72787
26.55426
26.38354
26.21593
26.0516
25.89069
25.73332
25.57956
25.42949
25.28318
25.1407
25.00213
24.86758
24.73732
24.61186
24.49258
24.3829
24.28662
24.20018
24.11852
24.04177
23.9696
23.90157
23.83838
23.78149
23.73662
23.75228
23.68849
23.61011
23.52043
23.41993
23.31167
23.19904
23.08587
22.97559
22.87076
22.77316
22.68384
22.60317
22.53103
22.46694
22.41016
22.35981
22.31495
22.2746
22.23784
22.20379
22.17166
22.14074
22.11041
22.08015
22.04949
22.01807
21.98557
21.95175
21.91641
21.87941
21.84065
21.80005
21.75757
21.7132
21.66694
21.61881
21.56886
21.51714
21.4637
21.40862
21.35199
21.29387
21.23438
21.1736
21.11164
21.0486
20.98458
20.91969
20.85402
20.78768
20.72075
20.65333
20.58549
20.51732
20.4489
20.38028
20.31153
20.2427
20.17384
20.10497
20.03614
19.96736
19.89863
19.82996
19.76131
19.69266
19.62395
19.55511
19.48605
19.41664
19.34672
19.27606
19.20438
19.13126
19.05618
18.97829
18.89641
18.80845
18.71061
18.59429
18.44067
18.20746
17.84845
17.78077
614.0516
585.0893
537.3963
491.1024
451.4676
417.7568
388.8109
363.6736
340.8128
265.8418
194.84
163.531
148.1767
139.2616
132.926
127.701
123.0288
118.669
94.10844
88.76672
83.85995
79.57041
75.94833
72.92369
70.38361
68.21677
66.33096
64.64782
63.16212
61.66305
60.09783
58.51585
56.96759
55.48761
54.09677
52.80354
51.60601
50.85359
50.34292
49.65478
48.86858
48.04148
47.21123
46.40175
45.62793
44.8985
44.22246
43.59669
43.00916
42.45957
41.93726
41.43321
40.94102
40.45527
39.97198
39.50098
36.00311
35.5415
35.08589
34.62469
34.14917
33.65537
33.14303
32.60931
32.0552
31.48313
30.89929
30.31091
29.72438
29.14619
28.58327
28.04197
27.52943
27.05638
26.64604
26.30921
26.00676
25.7463
25.551
25.41569
25.32358
25.2625
25.22725
25.21311
25.21727
25.23934
25.28211
25.35594
25.48566
25.67651
25.93518
26.26597
26.6686
27.13767
27.65806
28.21138
28.77827
29.32266
29.84011
30.35145
30.83743
31.28948
31.72092
32.13366
32.44989
32.66081
32.83758
32.96803
33.05974
33.11964
33.14803
33.14277
33.1007
33.01774
32.8958
32.74507
32.58197
32.44725
32.39892
32.5162
32.94473
33.8435
35.12729
36.70109
38.64144
40.93308
43.51632
46.39836
49.43398
52.30699
54.60113
55.94279
56.17737
55.18475
52.86594
49.4375
45.45109
41.46726
37.8457
34.72096
32.08014
29.85909
27.98702
26.39939
25.04193
23.87206
22.85839
21.97568
21.20279
20.52033
19.91297
19.36901
18.87937
18.43763
18.03995
17.68162
17.35742
17.0621
16.79105
16.5406
16.30789
16.0907
15.88728
15.6963
15.51668
15.34756
15.18821
15.03797
14.89622
14.76238
14.63601
14.51678
14.40434
14.29838
14.19861
14.10478
14.01673
13.93429
13.85736
13.78588
13.71983
13.65924
13.60419
13.55478
13.51111
13.47319
13.44094
13.41428
13.39315
13.3775
13.36731
13.36259
13.36336
13.36967
13.3816
13.39932
13.42301
13.45317
13.48982
13.53292
13.58163
13.63622
13.69478
13.74417
14.18106
14.69259
15.06566
15.35212
15.58186
15.77337
15.93784
16.08217
16.21132
16.32848
16.43565
16.53411
16.62453
16.70718
16.78223
16.84981
16.91012
16.96341
17.0099
17.04983
17.0835
17.1112
17.13321
17.14982
17.16133
17.16797
17.16993
17.16736
17.16029
17.14864
17.13211
17.10994
17.08042
17.03949
16.97943
16.89106
16.78416
16.68121
16.57673
16.47015
16.36198
16.2526
16.14237
16.03165
15.92076
15.81
15.69963
15.58988
15.48093
15.37287
15.26581
15.15981
15.05496
14.95135
14.84907
14.74819
14.64877
14.55087
14.45457
14.35992
14.26697
14.17575
14.08629
13.99861
13.91272
13.82866
13.74646
13.66621
13.58856
13.51672
12.18081
12.08795
12.00887
11.93674
11.86791
11.8014
11.73668
11.67331
11.611
11.54961
11.48909
11.42942
11.37062
11.31276
11.25587
11.20003
11.14528
11.09166
11.03919
10.98788
10.93772
10.88869
10.84076
10.79391
10.74812
10.70334
10.65955
10.61672
10.57485
10.53389
10.49385
10.45472
10.41648
10.37913
10.34268
10.30713
10.27248
10.23876
10.20598
10.17419
10.14344
10.11383
10.08552
10.05869
10.03347
10.00979
9.987251
9.965609
9.944934
9.925293
9.90669
9.889161
9.872816
9.858675
9.847088
9.833671
9.819145
9.805015
9.791656
9.778972
9.766772
9.754899
9.743244
9.731727
9.72029
9.708898
9.697541
9.686219
9.674937
9.663704
9.652531
9.641425
9.630389
9.619423
9.60852
9.597667
9.586847
9.576037
9.565207
9.554326
9.543356
9.532256
9.520987
9.509502
9.497759
9.485711
9.473317
9.460534
9.447323
9.433648
9.419475
9.404774
9.38952
9.37369
9.357267
9.340239
9.322599
9.304343
9.285473
9.265997
9.245925
9.225273
9.204058
9.182303
9.16003
9.137266
9.114036
9.090368
9.066291
9.04183
9.017013
8.991865
8.96641
8.940669
8.914662
8.888404
8.86191
8.835183
8.808236
8.781056
8.753648
8.725983
8.698058
8.669813
8.641236
8.612219
8.582736
8.552596
8.521734
8.489799
8.456609
8.421448
8.383758
8.34199
8.294882
8.24075
8.181337
8.125161
8.074935
569.0706
499.0491
441.9095
399.7955
367.6722
342.5797
322.4729
306.1273
292.5051
274.2396
182.4411
170.2652
160.373
152.0584
144.8622
138.2917
131.6352
123.0913
105.8045
75.61066
73.28434
71.88655
70.85005
69.97556
69.33189
68.87388
68.28238
67.08663
63.50204
61.52503
61.21508
60.96675
60.67928
60.37346
60.05001
59.69497
59.29684
58.77529
58.37806
57.15323
56.19416
55.46415
54.85231
54.2939
53.75671
53.22473
52.69059
52.15298
51.54079
50.84881
50.11027
49.36717
48.64566
47.95675
47.30035
46.67337
43.89658
43.34815
42.82203
42.30275
41.78419
41.26495
40.74602
40.22903
39.71626
39.20855
38.70571
38.20925
37.71948
37.2355
36.75759
36.28697
35.82532
35.3747
34.9371
34.51435
34.10898
33.72353
33.35702
33.00812
32.67592
32.35974
32.05932
31.77397
31.50271
31.24574
31.00135
30.76673
30.53889
30.31502
30.09142
29.86555
29.6319
29.38131
29.17536
28.95008
28.70472
28.43948
28.15479
27.85158
27.53032
27.1917
26.83783
26.47186
26.09794
25.72076
25.34545
24.97772
24.62329
24.28827
23.97832
23.70067
23.46221
23.27328
23.12194
23.0039
22.92483
22.88412
22.87268
22.87927
22.89597
22.91691
22.9379
22.95649
22.97261
22.99044
23.0222
23.0809
23.17124
23.29708
23.45987
23.65734
23.88451
24.13235
24.38985
24.64492
24.88304
25.09916
25.29164
25.45424
25.58636
25.69513
25.7765
25.82078
25.84358
25.85735
25.86598
25.87418
25.88477
25.89763
25.91155
25.92345
25.93071
25.93416
25.9356
25.94548
25.98298
26.07103
26.25721
26.5873
27.05155
27.66332
28.48067
29.53969
30.88369
32.55303
34.51652
36.70873
39.01266
41.24313
43.22787
44.8091
45.79955
46.05944
45.52093
44.19903
42.20921
39.76532
37.12064
34.49514
32.03592
29.8155
27.85189
26.13041
24.6246
23.30709
22.15215
21.14024
20.25408
19.47352
18.78173
18.16518
17.61294
17.11575
16.66611
16.25778
15.88545
15.54476
15.23151
14.9426
14.67518
14.42684
14.1955
13.9794
13.77695
13.58677
13.40764
13.23848
13.07837
12.92657
12.78235
12.64509
12.51427
12.38945
12.27021
12.15632
12.04754
11.94371
11.84471
11.75048
11.661
11.5762
11.4961
11.4207
11.34995
11.28386
11.22241
11.16558
11.11335
11.06572
11.02268
10.98423
10.95042
10.9212
10.89671
10.87684
10.86183
10.85125
10.84564
10.84406
10.84787
10.85493
10.88824
10.91215
10.93344
10.95501
10.97873
11.00605
11.03753
11.07178
11.10704
11.14201
11.1765
11.21024
11.2429
11.2741
11.30354
11.33096
11.35616
11.37899
11.39933
11.41714
11.43237
11.44503
11.45511
11.4627
11.46779
11.47039
11.47049
11.46804
11.46293
11.45495
11.4438
11.42898
11.40978
11.38539
11.35514
11.3194
11.28
11.23798
11.1937
11.14773
11.09973
11.04949
10.99689
10.94189
10.8845
10.82466
10.76241
10.69803
10.63184
10.56411
10.49513
10.42517
10.35449
10.28335
10.21198
10.1406
10.06941
9.998595
9.928353
9.858843
9.790196
9.722524
9.655919
9.590457
9.526208
9.463215
9.401516
9.341173
9.281646
9.220561
9.182711
9.143314
9.101645
9.058323
9.014244
8.970164
8.926318
8.88273
8.83941
8.796376
8.753653
8.71126
8.669207
8.627506
8.586169
8.545209
8.504644
8.464491
8.424769
8.385497
8.346691
8.308367
8.270543
8.233233
8.196451
8.160211
8.124526
8.089407
8.054866
8.020914
7.987563
7.954822
7.922704
7.891219
7.860378
7.830193
7.800678
7.771847
7.74372
7.716322
7.689685
7.663851
7.638872
7.614789
7.591623
7.569328
7.547797
7.52691
7.506665
7.487066
7.468158
7.449894
7.432287
7.415123
7.39859
7.382656
7.367403
7.352838
7.338792
7.32511
7.311729
7.298639
7.285844
7.273341
7.261119
7.249164
7.237463
7.226001
7.214762
7.203729
7.192885
7.182212
7.171691
7.161303
7.151028
7.140844
7.130729
7.12066
7.110613
7.100561
7.090478
7.080336
7.070107
7.059761
7.049268
7.038599
7.027724
7.016615
7.005243
6.993582
6.981608
6.969297
6.956628
6.943584
6.930149
6.916309
6.902057
6.887385
6.872291
6.856775
6.84084
6.824493
6.807744
6.790602
6.773082
6.7552
6.736972
6.718416
6.69955
6.680393
6.660962
6.641278
6.621356
6.601213
6.580862
6.560319
6.539588
6.518684
6.497603
6.476356
6.454927
6.433324
6.411514
6.389501
6.367224
6.344686
6.321779
6.298501
6.274662
6.25024
6.224896
6.198555
6.17063
6.141045
6.109087
6.075234
6.039292
6.003423
5.969828
325.0453
233.5456
339.0871
152.0694
119.3263
88.85817
76.9996
67.31859
59.27554
55.54849
54.0624
53.30118
52.49042
51.60502
50.74288
49.94084
49.17867
48.4397
47.71604
47.01495
46.36081
45.8008
45.43538
45.18177
45.0095
44.92871
44.88482
44.85513
44.8182
44.72505
44.45054
42.9802
43.34299
43.68851
44.03423
44.38425
44.74327
45.10566
45.45998
45.78117
46.01913
46.30638
46.63577
46.9277
47.16777
47.35006
47.46875
47.52203
47.51231
47.44858
47.33331
47.15282
46.91319
46.62628
46.30068
45.94095
45.55366
45.14406
44.71573
44.27174
43.81122
43.33445
42.84217
42.33794
41.8264
41.3107
40.79906
40.2836
39.79954
39.31481
38.83361
38.35505
37.87967
37.40868
36.94276
36.48209
36.0265
35.57587
35.12999
34.68926
34.25421
33.82567
33.40495
32.9935
32.5928
32.20424
31.8292
31.46878
31.12356
30.79402
30.48002
30.18123
29.89732
29.62789
29.37248
29.13051
28.90131
28.68388
28.47626
28.2757
28.07894
27.8823
27.68224
27.47456
27.2574
27.03079
26.79856
26.55862
26.31018
26.05135
25.78214
25.50273
25.21345
24.91513
24.60946
24.2991
23.98751
23.67888
23.37808
23.0905
22.82168
22.57721
22.36244
22.18277
22.04323
21.94897
21.89822
21.88502
21.9063
21.95835
22.03266
22.11728
22.20136
22.27656
22.33677
22.37808
22.39927
22.40292
22.39723
22.39504
22.40142
22.42071
22.45537
22.50487
22.56633
22.63472
22.70331
22.76404
22.80919
22.83343
22.8343
22.8112
22.7666
22.70565
22.63248
22.5503
22.46458
22.38183
22.30669
22.2431
22.1939
22.16034
22.14239
22.13822
22.1455
22.16221
22.18546
22.21644
22.25884
22.31615
22.40578
22.54352
22.7268
22.97406
23.32841
23.82903
24.51338
25.41633
26.56154
27.95917
29.57837
31.33088
33.10504
34.80441
36.3337
37.6065
38.53819
39.04281
39.06428
38.58667
37.62913
36.2556
34.57279
32.71023
30.79129
28.91536
27.14877
25.52686
24.06137
22.74959
21.58003
20.54245
19.62605
18.81505
18.0942
17.45062
16.87359
16.35414
15.88471
15.45884
15.07102
14.71651
14.39143
14.09199
13.81546
13.55923
13.32101
13.09879
12.89078
12.69544
12.51139
12.33729
12.17215
12.01497
11.86492
11.72129
11.58351
11.4511
11.32372
11.20108
11.08299
10.96933
10.86002
10.75502
10.65432
10.5579
10.46578
10.37794
10.29438
10.21508
10.14002
10.06918
10.00255
9.940074
9.88176
9.827563
9.777503
9.73153
9.689707
9.651917
9.618302
9.588661
9.563321
9.542194
9.526696
9.515518
9.507888
9.503533
9.502555
9.505016
9.510777
9.519868
9.532533
9.548473
9.565916
9.58373
9.60161
9.619276
9.636415
9.652867
9.668372
9.68278
9.695982
9.707907
9.718484
9.72779
9.735796
9.742545
9.748064
9.752457
9.755697
9.757775
9.75863
9.758133
9.756054
9.752155
9.746057
9.737422
9.726077
9.712039
9.695726
9.677539
9.657463
9.635321
9.610906
9.584065
9.554667
9.522622
9.48792
9.450667
9.410994
9.368858
9.324291
9.277363
9.228214
9.177002
9.123903
9.069099
9.012773
8.95512
8.896454
8.837078
8.777252
8.717202
8.65713
8.597204
8.53759
8.478433
8.41988
8.362005
8.30498
8.24872
8.193476
8.138889
8.08581
8.033833
7.983223
7.934051
7.886167
7.839305
7.793331
7.748151
7.703695
7.659916
7.616786
7.57428
7.532369
7.491026
7.450226
7.409948
7.370173
7.330887
7.292077
7.253735
7.215854
7.178431
7.141467
7.104962
7.06892
7.033348
6.998253
6.963642
6.929526
6.895916
6.862821
6.830255
6.798228
6.766755
6.735845
6.705514
6.675773
6.646637
6.618122
6.590245
6.563025
6.536481
6.510632
6.48549
6.461055
6.437307
6.414194
6.391658
6.369674
6.348243
6.32737
6.307041
6.287227
6.267921
6.249212
6.231037
6.213291
6.195934
6.178966
6.162389
6.146202
6.130398
6.11497
6.099907
6.085195
6.070822
6.056772
6.043032
6.029588
6.016424
6.003526
5.990878
5.978464
5.966265
5.954266
5.942447
5.930789
5.919271
5.907872
5.89657
5.885342
5.874164
5.863011
5.851857
5.840676
5.829443
5.818131
5.806715
5.795169
5.783469
5.771591
5.759513
5.747214
5.734677
5.721884
5.70882
5.695475
5.681839
5.667904
5.653668
5.639129
5.624288
5.609148
5.593717
5.578001
5.56201
5.545756
5.529251
5.512507
5.495539
5.478361
5.460987
5.44343
5.425703
5.407818
5.389785
5.371614
5.353311
5.33488
5.316325
5.297641
5.278828
5.259872
5.240767
5.221482
5.202005
5.182278
5.162281
5.141912
5.121133
5.099777
5.077789
5.054932
5.031197
5.006358
4.980611
4.953878
4.926898
4.900953
288.8931
193.9813
146.0188
132.0629
107.5078
90.89268
78.45289
73.55447
68.02164
64.75746
61.87681
58.06227
54.21039
50.55515
47.1884
43.49649
38.00801
36.67169
35.65625
35.03043
34.73745
34.64772
34.63625
34.65936
34.71147
34.79155
34.90002
35.03697
35.20363
35.40279
35.63794
35.91764
36.2525
36.62925
37.03384
37.46062
37.90704
38.37074
38.85346
39.35489
39.87263
40.3727
40.79558
41.28573
41.78568
42.27516
42.7701
43.28099
43.79809
44.32818
44.89286
45.37041
45.7739
46.14046
46.45284
46.69132
46.84779
46.9196
46.90727
46.81488
46.64973
46.42073
46.13278
45.78946
45.39801
44.96735
44.50341
44.01229
43.49804
42.96465
42.41566
41.85351
41.27969
40.703
40.13261
39.57208
39.02346
38.48855
37.9669
37.45618
36.96124
36.48294
36.01766
35.56298
35.11798
34.68199
34.25407
33.83296
33.41757
33.00715
32.60152
32.20131
31.80774
31.42233
31.04677
30.68277
30.332
29.99607
29.67634
29.37324
29.08645
28.81522
28.55863
28.31588
28.08628
27.86922
27.66424
27.47083
27.28807
27.1142
26.94607
26.77928
26.60727
26.42589
26.23442
26.03216
25.81773
25.59096
25.35214
25.1026
24.84608
24.58301
24.31158
24.03313
23.74938
23.4628
23.17674
22.89543
22.62383
22.36755
22.13259
21.92505
21.7509
21.61581
21.52478
21.48138
21.48752
21.54119
21.63578
21.76345
21.91534
22.07988
22.24353
22.39363
22.51981
22.61396
22.67057
22.68836
22.67149
22.63017
22.57805
22.52034
22.46139
22.40412
22.34913
22.29435
22.23576
22.16849
22.08762
21.98981
21.87295
21.73683
21.58378
21.41811
21.2447
21.06838
20.89348
20.72428
20.5647
20.41829
20.28823
20.17707
20.08676
20.01774
19.96887
19.93831
19.9235
19.92116
19.92947
19.94699
19.97259
20.01103
20.06586
20.13713
20.23828
20.39526
20.63374
20.97915
21.45925
22.10128
22.92625
23.93696
25.11026
26.4053
27.76896
29.13095
30.41117
31.54028
32.46125
33.13393
33.53271
33.63154
33.41154
32.87644
32.04839
30.97234
29.70979
28.33201
26.90812
25.49684
24.1426
22.87394
21.7051
20.63922
19.67654
18.81283
18.0387
17.34414
16.71991
16.15766
15.6499
15.19001
14.77222
14.39151
14.04377
13.72477
13.43162
13.16131
12.9112
12.67904
12.4626
12.26011
12.06986
11.89032
11.72014
11.55813
11.40328
11.25472
11.11175
10.97383
10.84054
10.71158
10.58673
10.46589
10.349
10.23604
10.12702
10.02195
9.920846
9.823706
9.730524
9.641281
9.555945
9.47448
9.396841
9.322989
9.252878
9.186485
9.123778
9.064761
9.009402
8.957741
8.909759
8.865549
8.825144
8.788581
8.755759
8.726624
8.701112
8.679155
8.660664
8.645526
8.633648
8.62497
8.61942
8.617019
8.617158
8.618575
8.6209
8.623866
8.627203
8.630688
8.634129
8.637377
8.640325
8.642912
8.645116
8.646952
8.648464
8.649716
8.650771
8.651697
8.65254
8.653314
8.653995
8.654512
8.654746
8.654551
8.653772
8.652287
8.650036
8.647086
8.643498
8.639159
8.633799
8.62712
8.618832
8.60866
8.596349
8.581679
8.564471
8.544589
8.521933
8.496445
8.468119
8.436992
8.403167
8.366783
8.328036
8.287177
8.24452
8.200246
8.154496
8.107432
8.05922
8.010015
7.959989
7.909342
7.858345
7.807194
7.756026
7.70499
7.654194
7.603735
7.553661
7.504092
7.455058
7.406614
7.358779
7.311533
7.264909
7.218951
7.173666
7.129033
7.085022
7.041607
6.998764
6.956469
6.914698
6.873429
6.832642
6.792321
6.752449
6.713015
6.674008
6.635421
6.597248
6.559488
6.522141
6.485209
6.448699
6.412617
6.376971
6.341772
6.307031
6.272762
6.238977
6.205691
6.172917
6.14067
6.108964
6.077814
6.047235
6.01724
5.987844
5.959062
5.930903
5.903379
5.876493
5.85024
5.824607
5.799564
5.775079
5.751132
5.727716
5.70483
5.682464
5.660614
5.639278
5.618462
5.598109
5.578156
5.558593
5.53943
5.520669
5.502304
5.484323
5.466719
5.449484
5.432609
5.416084
5.3999
5.384047
5.368517
5.353299
5.338382
5.323756
5.30941
5.295329
5.281501
5.267912
5.254545
5.241386
5.228415
5.215615
5.202965
5.190446
5.178035
5.165711
5.153449
5.141227
5.12902
5.116806
5.104559
5.092257
5.079878
5.067398
5.054799
5.04206
5.029165
5.016097
5.002842
4.98939
4.975731
4.961859
4.947768
4.933456
4.918925
4.904175
4.889211
4.874039
4.858665
4.8431
4.827351
4.811431
4.795349
4.779117
4.762746
4.746246
4.729628
4.712901
4.696072
4.679148
4.662133
4.645031
4.62784
4.610559
4.593181
4.575698
4.558094
4.540353
4.522444
4.504342
4.485992
4.46736
4.448362
4.428963
4.409058
4.388646
4.367638
4.346124
4.324086
4.301818
4.280489
139.547
104.6925
160.8322
81.26882
70.07032
60.7168
57.97563
56.05456
53.91569
53.15486
52.11046
50.44494
48.83377
47.06789
44.921
40.68574
39.6483
38.65171
37.67114
36.7169
35.75108
34.81806
33.97639
33.25818
32.68323
32.25459
31.89953
31.51888
31.29395
31.23853
31.32964
31.51508
31.74689
32.00481
32.28262
32.57824
32.89094
33.22018
33.56722
33.93421
34.33059
34.75199
35.19231
35.64898
36.12152
36.60978
37.11251
37.62693
38.1507
38.67989
39.20689
39.71696
40.22156
40.78008
41.34509
41.88977
42.43568
43.02656
43.59934
44.15325
44.68713
45.14925
45.51101
45.7682
45.9201
45.96741
45.91071
45.75571
45.50929
45.18146
44.78454
44.32967
43.82894
43.28957
42.72063
42.12883
41.52013
40.9
40.27193
39.64279
39.0196
38.41508
37.83149
37.27274
36.74081
36.23561
35.75613
35.30086
34.86833
34.45597
34.06237
33.68516
33.3207
32.96587
32.6188
32.27828
31.94314
31.6118
31.2826
30.95443
30.62723
30.30221
29.98106
29.66553
29.35755
29.05912
28.77218
28.49861
28.23994
27.99667
27.76796
27.55213
27.34742
27.15256
26.96671
26.78927
26.61999
26.45897
26.30619
26.16058
26.01924
25.87639
25.72918
25.57374
25.40614
25.224
25.02633
24.81352
24.58672
24.34761
24.09819
23.84121
23.58056
23.31599
23.05018
22.78664
22.52988
22.28553
22.06007
21.86061
21.6944
21.56836
21.48901
21.46186
21.49034
21.57507
21.71369
21.8998
22.12318
22.37168
22.6316
22.88781
23.12525
23.33047
23.49159
23.5983
23.64464
23.63212
23.56853
23.46894
23.34773
23.21031
23.06209
22.90776
22.74965
22.58692
22.41629
22.23363
22.03551
21.8205
21.589
21.34333
21.08754
20.82679
20.56614
20.31009
20.06229
19.82615
19.60449
19.39991
19.21473
19.05083
18.90931
18.79045
18.69354
18.61711
18.55896
18.51628
18.4867
18.46802
18.45793
18.45634
18.46348
18.48004
18.51322
18.57656
18.68521
18.85573
19.10689
19.45847
19.92904
20.53138
21.26798
22.12986
23.09352
24.11869
25.15637
26.15842
27.07772
27.87103
28.50465
28.95464
29.20394
29.2448
29.07231
28.68727
28.1027
27.34276
26.44084
25.43761
24.37579
23.29558
22.23139
21.20889
20.24459
19.34642
18.51803
17.75984
17.06931
16.44182
15.87199
15.35439
14.88379
14.45539
14.06479
13.70836
13.38205
13.08299
12.80822
12.555
12.32088
12.10359
11.90103
11.71128
11.53263
11.3635
11.20253
11.04856
10.9006
10.75786
10.61974
10.48579
10.3557
10.22927
10.10643
9.987129
9.871383
9.759215
9.650653
9.545716
9.444407
9.346714
9.252603
9.162031
9.074941
8.991275
8.910976
8.833996
8.760295
8.689855
8.622658
8.558717
8.498043
8.440672
8.386631
8.335924
8.288551
8.244511
8.203773
8.166292
8.132014
8.100868
8.072771
8.047633
8.025361
8.005898
7.98922
7.975144
7.962719
7.951617
7.941595
7.932428
7.923919
7.915904
7.908259
7.900898
7.893778
7.886895
7.880279
7.873989
7.868102
7.862705
7.857884
7.853715
7.850252
7.847527
7.845539
7.844264
7.843659
7.84368
7.844295
7.84549
7.847222
7.849358
7.851668
7.853864
7.855636
7.856668
7.85664
7.855239
7.852167
7.847153
7.839957
7.830379
7.818265
7.803511
7.786065
7.76593
7.743159
7.717849
7.690119
7.660106
7.627988
7.593969
7.558273
7.52116
7.482894
7.443633
7.403455
7.362447
7.320681
7.278299
7.235502
7.192425
7.149195
7.105946
7.062717
7.019522
6.976427
6.9335
6.8908
6.848374
6.80625
6.764437
6.722937
6.681748
6.640869
6.600295
6.560021
6.520041
6.480348
6.440936
6.401801
6.36294
6.324349
6.286031
6.247987
6.210221
6.172741
6.135554
6.098673
6.06211
6.025879
5.989998
5.954483
5.919353
5.884627
5.850326
5.81647
5.783078
5.750171
5.717768
5.685888
5.654549
5.623766
5.593555
5.563928
5.534894
5.506457
5.478615
5.451358
5.424673
5.39854
5.372944
5.347879
5.323338
5.299315
5.275802
5.252787
5.230256
5.20818
5.186534
5.165306
5.144493
5.124088
5.10408
5.084459
5.065218
5.04635
5.027847
5.009702
4.991908
4.974458
4.957345
4.94056
4.924097
4.907947
4.892101
4.87655
4.861283
4.84629
4.831557
4.817073
4.802821
4.788787
4.774955
4.761306
4.747821
4.734482
4.721266
4.708153
4.695122
4.682149
4.669212
4.65629
4.643361
4.630403
4.617396
4.60432
4.591159
4.577894
4.564512
4.550999
4.537346
4.523541
4.509581
4.495458
4.481173
4.466723
4.45211
4.437338
4.422411
4.407335
4.392117
4.376767
4.361291
4.345701
4.330004
4.31421
4.298328
4.282366
4.26633
4.250228
4.234064
4.217841
4.20156
4.185219
4.168816
4.152345
4.135794
4.119152
4.1024
4.085516
4.068471
4.051238
4.033773
4.016053
3.99803
3.979698
3.961029
3.942058
3.922805
3.903396
3.88499
55.6423
41.17655
43.34417
41.54995
40.68885
39.63704
38.86227
38.23708
37.74382
36.88002
34.57953
34.51249
34.44562
34.374
34.25997
34.09219
33.90812
33.73915
33.59695
33.47019
33.23148
32.75191
32.27102
31.79137
31.32668
30.88087
30.4755
30.13174
29.86143
29.66231
29.52901
29.45366
29.44478
29.53317
29.72145
29.99256
30.31622
30.66627
31.02853
31.3957
31.76399
32.1314
32.49682
32.86383
33.24437
33.63544
34.03884
34.45754
34.89422
35.35127
35.83033
36.33111
36.84967
37.37896
37.91443
38.45088
38.97734
39.50177
40.06371
40.67057
41.25314
41.8236
42.39605
42.93656
43.40601
43.78031
44.03735
44.16378
44.15183
44.00913
43.74848
43.38184
42.92466
42.39087
41.79749
41.15842
40.48844
39.80161
39.10648
38.41254
37.7252
37.05384
36.40474
35.79492
35.22907
34.70868
34.23714
33.81321
33.42843
33.07644
32.75311
32.45476
32.17811
31.9202
31.67741
31.44589
31.22186
31.00179
30.78293
30.56395
30.3444
30.12394
29.90135
29.67516
29.44446
29.20977
28.9732
28.7372
28.50399
28.27575
28.05446
27.84196
27.64008
27.45017
27.27203
27.10355
26.94154
26.7832
26.62686
26.47163
26.31696
26.16292
26.0104
25.86058
25.71426
25.57219
25.43221
25.28888
25.13709
24.97298
24.7942
24.60015
24.39171
24.17067
23.93917
23.69946
23.45398
23.20583
22.96011
22.72127
22.49406
22.28448
22.09974
21.94807
21.83814
21.77828
21.77593
21.83673
21.96322
22.15387
22.40373
22.70422
23.0425
23.40405
23.77407
24.13641
24.47543
24.77741
25.03066
25.22035
25.32916
25.34671
25.27661
25.13326
24.94305
24.72176
24.47377
24.20498
23.9228
23.63374
23.34048
23.04195
22.73518
22.41748
22.08801
21.74822
21.40153
21.05267
20.70675
20.3684
20.04138
19.7286
19.43237
19.15461
18.89703
18.66122
18.44845
18.2593
18.09379
17.95129
17.83049
17.72946
17.64573
17.57684
17.52045
17.47438
17.43746
17.4092
17.38984
17.38266
17.3944
17.43364
17.51028
17.63573
17.82288
18.0854
18.43547
18.88123
19.42504
20.06073
20.77147
21.53193
22.31151
23.07611
23.79255
24.43262
24.97171
25.38829
25.66474
25.79194
25.76355
25.58017
25.24692
24.77293
24.17449
23.47476
22.70126
21.88285
21.0466
20.21561
19.40701
18.63217
17.89868
17.21131
16.57202
15.98114
15.43715
14.93762
14.47967
14.06026
13.67667
13.32528
13.0037
12.70911
12.43885
12.19037
11.96126
11.74922
11.55208
11.36784
11.19462
11.03075
10.87476
10.72539
10.58161
10.44259
10.30771
10.17651
10.04872
9.924186
9.80284
9.684675
9.569715
9.457999
9.349558
9.244408
9.142544
9.043936
8.948535
8.856277
8.767088
8.680893
8.597625
8.517226
8.439656
8.36489
8.292927
8.223776
8.157464
8.094023
8.033481
7.975854
7.92115
7.869366
7.82049
7.774499
7.73135
7.690984
7.653326
7.618298
7.585828
7.555863
7.528375
7.503199
7.479703
7.457663
7.43688
7.417172
7.398379
7.380373
7.363056
7.346369
7.330286
7.314818
7.300007
7.285919
7.272641
7.260271
7.248909
7.238653
7.229588
7.221787
7.215301
7.210169
7.206415
7.204052
7.203078
7.203455
7.205088
7.207814
7.211415
7.215636
7.220196
7.224795
7.229123
7.232862
7.235701
7.237345
7.237517
7.235971
7.232497
7.226925
7.219127
7.209023
7.196572
7.181776
7.164678
7.145362
7.123945
7.100571
7.075404
7.048607
7.020343
6.99079
6.960137
6.928603
6.896316
6.863293
6.82954
6.795077
6.760056
6.724573
6.688693
6.652502
6.616087
6.579514
6.542835
6.506093
6.469315
6.432522
6.395727
6.358942
6.322177
6.285438
6.248728
6.212053
6.175415
6.138818
6.102267
6.065769
6.029331
5.992963
5.956675
5.920483
5.884401
5.848447
5.812642
5.777008
5.741569
5.706349
5.671375
5.636676
5.602278
5.568212
5.534504
5.501182
5.468275
5.435809
5.403807
5.372293
5.341286
5.310805
5.280863
5.251469
5.222626
5.194335
5.166589
5.139381
5.112701
5.086545
5.060905
5.035777
5.01115
4.987012
4.963351
4.94015
4.917393
4.895065
4.873157
4.851659
4.830562
4.809857
4.789535
4.769591
4.750017
4.730805
4.71195
4.693446
4.675285
4.657462
4.63997
4.622804
4.605956
4.589418
4.573182
4.55724
4.541582
4.526196
4.511071
4.496193
4.481549
4.467123
4.452898
4.438856
4.42498
4.411249
4.397644
4.384143
4.370726
4.357372
4.344059
4.330766
4.317475
4.304164
4.290817
4.277416
4.263945
4.250391
4.236741
4.222986
4.209118
4.195129
4.181016
4.166777
4.152411
4.137919
4.123304
4.108571
4.093725
4.078773
4.063721
4.048578
4.033351
4.018049
4.00268
3.98725
3.971768
3.956239
3.940667
3.925058
3.909411
3.893729
3.87801
3.862249
3.84644
3.830576
3.814642
3.798626
3.782509
3.766273
3.749895
3.733358
3.716642
3.699739
3.682646
3.665373
3.647958
3.630457
3.614012
86.49189
33.6563
29.73975
28.78682
28.24687
28.04112
28.10874
28.32574
28.64358
29.02882
29.3517
29.49788
29.6263
29.72504
29.79393
29.82837
29.83857
29.82683
29.784
29.69237
29.5302
29.31087
29.08904
28.87167
28.66767
28.48548
28.3368
28.23184
28.17676
28.16886
28.20784
28.29528
28.4393
28.64749
28.9175
29.23484
29.57799
29.92848
30.27519
30.61212
30.93637
31.24715
31.55444
31.87611
32.21046
32.56116
32.93338
33.33223
33.76033
34.2209
34.71572
35.24471
35.7994
36.36123
36.92932
37.5121
38.09613
38.66457
39.24967
39.83957
40.42715
40.97877
41.45254
41.8206
42.05843
42.15134
42.09284
41.88632
41.53942
41.06903
40.49462
39.83717
39.11834
38.35775
37.57697
36.79084
36.01723
35.27063
34.56346
33.90373
33.30775
32.78304
32.329
31.9477
31.63726
31.39003
31.1939
31.04006
30.91836
30.8197
30.73674
30.66411
30.59824
30.53603
30.4733
30.4056
30.32902
30.24085
30.13982
30.02682