/*--------------------------------*- C++ -*----------------------------------*\
| =========                 |                                                 |
| \\      /  F ield         | foam-extend: Open Source CFD                    |
|  \\    /   O peration     | Version:     3.1                                |
|   \\  /    A nd           | Web:         http://www.extend-project.de       |
|    \\/     M anipulation  |                                                 |
\*---------------------------------------------------------------------------*/
FoamFile
{
    version     2.0;
    format      ascii;
    class       volScalarField;
    location    "8.5";
    object      pd;
}
// * * * * * * * * * * * * * * * * * * * * * * * * * * * * * * * * * * * * * //

dimensions      [1 -1 -2 0 0 0 0];

internalField   nonuniform List<scalar> 
119952
(
7990.528
6825.621
6625.502
6731.446
6861.485
6662.666
6570.356
6484.365
6408.847
6342.85
6285.957
6240.588
6208.107
6188.639
6182.432
6188.71
6206.083
6231.374
6252.24
6205.391
6561.636
6473.806
6461.057
6863.808
6899.16
6979.752
7056.432
7159.662
7360.894
9398.183
5996.8
5950.951
5941.689
5930.096
5926.938
5925.265
5929.343
5940.007
5960.109
5965.087
5989.031
6030.468
6067.871
6110.942
6158.146
6209.058
6262.439
6317.587
6373.95
6467.2
6496.159
6541.944
6588.472
6631.878
6671.541
6707.344
6739.244
6765.184
6789.888
6798.935
6806.604
6813.813
6814.603
6810.428
6801.714
6788.681
6777.309
6805.037
6900.877
6736.305
6664.522
6689.786
6671.861
6605.748
6515.825
6438.928
6368.969
6306.765
6254.857
6214.065
6185.325
6170.091
6168.68
6179.623
6201.905
6233.118
6273.348
6328.289
6405.702
6502.419
6572.412
6706.196
6882.722
6971.658
7026.966
7079.632
7077.109
6994.391
7024.027
7107.895
7176.323
7243.084
7308.27
7370.707
7431.7
7491.81
7551.459
7611.125
7670.929
7731.267
7792.524
7854.285
7916.637
7977.79
8024.147
8031.995
7987.898
8006.635
8045.289
8088.61
8130.848
8164.412
8189.259
8207.543
8218.717
8225.791
8233.605
8242.394
8250.605
8257.388
8263.104
8269.14
8276.902
8286.939
8299.21
8313.585
8329.874
8347.824
8367.099
8387.331
8408.237
8429.608
8451.241
8472.992
8494.744
8516.401
8537.987
8559.454
8580.654
8601.301
8621.561
8641.393
8660.804
8679.789
8698.344
8716.462
8734.14
8751.372
8768.158
8784.489
8800.362
8815.774
8830.705
8845.15
8859.098
8872.559
8885.519
8897.968
8909.898
8921.3
8932.171
8942.51
8952.317
8961.597
8970.359
8978.615
8986.38
8993.663
9000.512
9006.914
9012.898
9018.483
9023.692
9028.542
9033.053
9037.242
9041.124
9044.713
9048.021
9051.057
9053.817
9056.404
9058.702
9060.72
9062.403
9063.716
9065.255
9068.821
9070.256
9071.341
9072.351
9073.187
9073.86
9074.392
9074.777
9075.042
9075.211
9075.277
9075.25
9075.134
9074.935
9074.66
9074.32
9073.921
9073.473
9072.98
9072.45
9071.887
9071.299
9070.687
9070.056
9069.407
9068.739
9068.049
9067.327
9066.56
9065.724
9064.782
9063.664
9062.239
9060.227
9057.04
9053.119
9058.968
9063.296
9066.764
9069.758
9072.523
9075.104
9077.593
9080.018
9082.405
9084.767
9087.117
9089.455
9091.791
9094.128
9096.473
9098.828
9101.199
9103.59
9106.003
9108.443
9110.91
9113.407
9115.936
9118.499
9121.099
9123.736
9126.411
9129.123
9131.877
9134.673
9137.522
9140.429
9143.307
9146.183
9159.811
9157.69
9154.798
9158.01
9160.883
9163.378
9166.169
9169.092
9172.02
9174.966
9177.948
9180.937
9183.933
9186.929
9189.916
9192.889
9195.846
9198.775
9201.678
9204.554
9207.398
9210.208
9212.986
9215.729
9218.437
9221.108
9223.741
9226.335
9228.89
9231.406
9233.882
9236.316
9238.711
9241.064
9243.378
9245.652
9247.889
9250.09
9252.258
9254.4
9256.524
9258.644
9260.784
9262.98
9265.203
9267.118
9268.29
9269.091
9270.026
9271.037
9272.044
9273.07
9273.971
9274.112
9270.885
9273.935
9275.37
9275.877
9276.392
9276.839
9277.212
9277.539
9277.825
9278.069
9278.265
9278.408
9278.499
9278.539
9278.524
9278.453
9278.325
9278.141
9277.9
9277.602
9277.249
9276.841
9276.38
9275.866
9275.301
9274.687
9274.024
9273.314
9272.558
9271.758
9270.915
9270.03
9269.104
9268.139
9267.137
9266.097
9265.022
9263.912
9262.768
9261.593
9260.386
9259.148
9257.881
9256.585
9255.261
9253.909
9252.531
9251.127
9249.698
9248.243
9246.762
9245.255
9243.723
9242.165
9240.581
9238.969
9237.328
9235.658
9233.956
9232.221
9230.45
9228.64
9226.787
9224.888
9222.936
9220.927
9218.854
9216.706
9214.475
9212.147
9209.707
9207.135
9204.406
9201.489
9198.343
9194.91
9191.117
9186.855
9181.969
9176.172
9169.021
9160.151
9151.593
9156.545
9199.853
8256.863
8228.503
8182.205
8122.294
8051.287
7970.971
7883.05
7788.861
7688.672
7576.403
7475.691
7372.025
7269.698
7170.042
7073.453
6980.531
6891.61
6806.048
6713.514
6649.354
6576.599
6510.527
6451.472
6397.712
6349.082
6305.041
6265.223
6229.928
6197.873
6159.916
6130.074
6102.451
6075.792
6050.346
6026.401
6004.022
5984.684
5970.179
5943.421
5926.865
5918.002
5913.605
5914.073
5919.615
5930.785
5948.356
5971.235
5997.314
6032.94
6073.511
6117.476
6165.704
6217.513
6272.03
6328.144
6385.257
6456.528
6512.517
6561.73
6608.112
6652.092
6692.649
6728.574
6758.565
6782.653
6801.029
6814.9
6822.974
6824.885
6821.617
6814.233
6803.852
6792.667
6782.962
6773.998
6755.12
6713.269
6659.876
6615.493
6569.838
6510.677
6440.171
6368.09
6301.058
6242.274
6193.616
6156.691
6133.112
6123.417
6128.571
6146.966
6178.223
6221.985
6278.119
6346.674
6428.034
6519.309
6616.893
6722.4
6827.371
6913.704
6975.724
7017.922
7043.12
7060.144
7091.979
7145.977
7208.673
7272.257
7334.176
7394.205
7453.042
7511.387
7569.322
7627.047
7684.663
7741.569
7798.342
7853.421
7904.397
7950.834
7982.819
7996.401
8002.164
8026.534
8060.635
8095.772
8132.767
8167.56
8193.733
8213.639
8230.538
8245.258
8255.814
8260.389
8261.491
8262.121
8264.836
8270.269
8278.437
8288.98
8301.749
8316.677
8333.542
8352.076
8371.825
8392.353
8413.366
8434.787
8456.361
8478.061
8499.734
8521.305
8542.719
8563.903
8584.727
8605.17
8625.212
8644.835
8664.029
8682.789
8701.112
8718.997
8736.44
8753.44
8769.994
8786.099
8801.751
8816.944
8831.672
8845.926
8859.7
8872.992
8885.792
8898.09
8909.876
8921.144
8931.889
8942.109
8951.806
8960.983
8969.649
8977.817
8985.499
8992.71
8999.474
9005.809
9011.737
9017.277
9022.45
9027.274
9031.769
9035.95
9039.834
9043.431
9046.76
9049.827
9052.652
9055.228
9057.6
9059.732
9061.725
9063.493
9065.059
9068.669
9069.464
9070.272
9071.46
9072.37
9073.106
9073.723
9074.192
9074.537
9074.769
9074.895
9074.922
9074.855
9074.7
9074.466
9074.162
9073.795
9073.373
9072.905
9072.395
9071.851
9071.278
9070.68
9070.061
9069.422
9068.763
9068.082
9067.372
9066.62
9065.81
9064.913
9063.887
9062.679
9061.301
9060.058
9059.76
9061.808
9065.09
9068.001
9070.747
9073.363
9075.863
9078.292
9080.675
9083.028
9085.362
9087.685
9090.004
9092.322
9094.643
9096.974
9099.317
9101.677
9104.057
9106.46
9108.891
9111.35
9113.839
9116.36
9118.916
9121.507
9124.136
9126.803
9129.508
9132.254
9135.041
9137.875
9140.755
9143.748
9147.809
9152.151
9155.826
9157.747
9159.22
9161.281
9163.928
9166.823
9169.763
9172.694
9175.633
9178.597
9181.582
9184.572
9187.559
9190.534
9193.494
9196.435
9199.354
9202.247
9205.11
9207.943
9210.742
9213.507
9216.238
9218.933
9221.59
9224.21
9226.79
9229.33
9231.831
9234.29
9236.709
9239.086
9241.422
9243.718
9245.973
9248.189
9250.369
9252.514
9254.627
9256.712
9258.771
9260.797
9262.764
9264.609
9266.247
9267.6
9268.72
9269.756
9270.784
9271.787
9272.747
9273.611
9274.25
9274.302
9274.347
9274.922
9275.744
9276.438
9276.919
9277.264
9277.55
9277.801
9278.01
9278.171
9278.281
9278.341
9278.351
9278.309
9278.213
9278.062
9277.857
9277.596
9277.281
9276.912
9276.49
9276.016
9275.49
9274.914
9274.29
9273.618
9272.899
9272.135
9271.328
9270.478
9269.586
9268.654
9267.684
9266.676
9265.631
9264.551
9263.436
9262.288
9261.108
9259.896
9258.654
9257.383
9256.083
9254.755
9253.399
9252.017
9250.609
9249.175
9247.716
9246.231
9244.72
9243.184
9241.622
9240.033
9238.417
9236.772
9235.098
9233.392
9231.653
9229.878
9228.064
9226.208
9224.306
9222.353
9220.342
9218.269
9216.122
9213.896
9211.574
9209.148
9206.593
9203.897
9201.022
9197.951
9194.623
9191.017
9187.05
9182.738
9178.106
9173.601
9170.057
9169.026
9171.255
9177.302
4434.478
4425.994
4432.811
4451.317
4480.582
4520.533
4569.992
4630.93
4702.603
4786.35
4879.548
4986.724
5101.839
5227.038
5361.827
5505.225
5656.481
5814.059
5975.216
6165.488
6337.548
6510.913
6685.014
6857.489
7025.863
7188.437
7343.698
7490.522
7630.077
7753.628
7863.889
7960.455
8041.495
8106.177
8153.934
8184.346
8197.274
8193.789
8169.389
8136.215
8087.221
8026.21
7954.908
7875.018
7788.033
7695.543
7599.62
7501.853
7402.045
7302.867
7203.995
7107.36
7013.637
6923.699
6838.969
6763.635
6651.295
6583.511
6523.658
6464.825
6409.379
6359.165
6314.112
6273.443
6236.457
6202.302
6170.486
6140.861
6112.453
6084.991
6058.738
6033.74
6009.948
5987.375
5966.055
5946.229
5928.656
5914.17
5903.55
5897.821
5897.686
5903.483
5915.447
5933.622
5958.133
5989.161
6025.793
6067.855
6115.102
6166.88
6222.038
6279.762
6338.625
6399.236
6461.89
6518.579
6570.336
6619.653
6666.229
6708.436
6745.272
6776.078
6800.659
6819.265
6831.758
6837.719
6837.656
6832.413
6822.646
6809.158
6792.276
6772.108
6747.949
6720.669
6680.891
6625.753
6569.147
6514.239
6453.712
6384.665
6312.689
6244.72
6184.822
6135.398
6098.466
6075.799
6067.97
6076.915
6100.409
6138.186
6189.325
6252.802
6327.513
6411.957
6504.558
6600.506
6695.91
6790.075
6874.729
6942.132
6994.063
7037.044
7073.96
7112.11
7161.798
7221.109
7282.524
7342.505
7400.702
7457.677
7514.048
7569.91
7625.129
7679.785
7733.282
7785.153
7835.093
7881.003
7921.373
7955.838
7979.872
7994.817
8017.589
8050.664
8087.251
8122.87
8155.372
8185.296
8211.772
8230.763
8241.606
8248.849
8256.283
8264.062
8270.886
8274.847
8278.078
8283.622
8292.408
8304.351
8318.954
8335.665
8354.008
8373.574
8394.009
8415.019
8436.337
8457.891
8479.532
8501.056
8522.474
8543.731
8564.761
8585.446
8605.727
8625.59
8645.027
8664.033
8682.606
8700.743
8718.444
8735.707
8752.53
8768.914
8784.857
8800.354
8815.404
8830.001
8844.139
8857.813
8871.015
8883.737
8895.968
8907.699
8918.921
8929.629
8939.819
8949.491
8958.649
8967.3
8975.457
8983.132
8990.343
8997.11
9003.452
9009.391
9014.949
9020.146
9025.001
9029.534
9033.76
9037.697
9041.357
9044.758
9047.908
9050.819
9053.499
9055.966
9058.241
9060.343
9062.352
9064.354
9066.698
9068.517
9069.706
9070.549
9071.36
9072.145
9072.847
9073.398
9073.811
9074.105
9074.286
9074.364
9074.339
9074.224
9074.028
9073.76
9073.427
9073.039
9072.602
9072.123
9071.609
9071.065
9070.497
9069.91
9069.306
9068.686
9068.052
9067.4
9066.727
9066.029
9065.304
9064.567
9063.873
9063.352
9063.238
9063.844
9065.34
9067.517
9069.953
9072.377
9074.742
9077.075
9079.389
9081.692
9083.986
9086.268
9088.565
9090.856
9093.151
9095.456
9097.772
9100.104
9102.454
9104.825
9107.22
9109.647
9112.102
9114.589
9117.108
9119.66
9122.25
9124.878
9127.544
9130.247
9132.987
9135.767
9138.575
9141.427
9144.298
9147.291
9150.056
9152.049
9154.387
9157.267
9160.377
9163.447
9166.501
9169.54
9172.552
9175.548
9178.545
9181.546
9184.544
9187.532
9190.505
9193.46
9196.396
9199.309
9202.195
9205.053
9207.879
9210.673
9213.433
9216.157
9218.846
9221.497
9224.109
9226.682
9229.215
9231.707
9234.157
9236.566
9238.934
9241.259
9243.542
9245.784
9247.984
9250.145
9252.266
9254.348
9256.389
9258.384
9260.32
9262.176
9263.922
9265.52
9266.934
9268.159
9269.262
9270.306
9271.314
9272.246
9273.087
9273.808
9274.679
9275.473
9276.03
9276.417
9276.732
9277.01
9277.26
9277.489
9277.692
9277.863
9277.995
9278.083
9278.126
9278.12
9278.065
9277.959
9277.8
9277.588
9277.323
9277.005
9276.634
9276.211
9275.737
9275.212
9274.638
9274.016
9273.346
9272.631
9271.871
9271.067
9270.221
9269.334
9268.407
9267.441
9266.438
9265.397
9264.322
9263.212
9262.069
9260.893
9259.686
9258.449
9257.182
9255.886
9254.562
9253.21
9251.832
9250.428
9248.997
9247.542
9246.06
9244.553
9243.021
9241.463
9239.878
9238.267
9236.627
9234.958
9233.259
9231.527
9229.76
9227.956
9226.112
9224.223
9222.286
9220.295
9218.245
9216.128
9213.936
9211.66
9209.287
9206.806
9204.199
9201.45
9198.539
9195.447
9192.165
9188.707
9185.145
9181.64
9178.487
9176.054
9174.743
9175.108
9177.482
4785.394
4735.991
4691.078
4647.036
4607.75
4572.247
4548.752
4539.231
4543.233
4522.737
4481.611
4448.293
4430.659
4425.997
4433.231
4451.105
4479.53
4518.052
4566.738
4625.673
4695.257
4775.91
4866.316
4967.667
5080.029
5201.975
5333.676
5473.73
5621.573
5775.112
5936.364
6141.639
6313.736
6488.158
6660.5
6830.352
6996.316
7157.168
7311.44
7457.376
7592.317
7713.772
7821.5
7914.434
7991.628
8052.37
8096.186
8122.916
8132.972
8127.356
8106.559
8070.578
8020.248
7957.536
7884.56
7803.21
7715.098
7622.09
7525.934
7428.083
7329.48
7231.566
7135.381
7041.236
6949.727
6861.74
6777.843
6697.485
6619.123
6551.024
6491.43
6435.088
6382.354
6334.603
6291.909
6253.559
6218.72
6186.811
6157.213
6129.014
6101.848
6075.608
6050.104
6025.177
6000.778
5977.01
5954.224
5933.006
5913.559
5896.7
5883.979
5876.483
5874.835
5879.435
5890.569
5908.528
5933.374
5964.908
6002.997
6047.379
6097.417
6152.274
6211.068
6272.782
6336.622
6400.922
6464.444
6525.437
6583.032
6637.128
6687.113
6731.903
6770.737
6802.996
6828.329
6846.7
6858.043
6862.483
6860.436
6852.457
6839.01
6820.564
6797.288
6769.444
6737.014
6699.521
6652.837
6595.52
6532.999
6468.621
6400.553
6327.519
6252.669
6181.175
6117.329
6064.379
6025.176
6001.927
5996.207
6006.48
6034.243
6077.744
6135.133
6204.809
6285.209
6374.129
6468.803
6565.291
6660.338
6752.196
6836.421
6908.993
6970.232
7023.67
7071.867
7119.407
7171.787
7229.313
7288.34
7346.269
7402.578
7457.621
7511.802
7565.141
7617.498
7668.864
7718.733
7766.767
7812.751
7855.212
7893.687
7928.09
7954.95
7976.634
8003.162
8036.389
8071.168
8104.813
8137.31
8167.834
8193.88
8213.396
8228.328
8242.415
8255.557
8264.999
8270.66
8275.066
8281.116
8289.633
8299.969
8311.936
8325.944
8341.905
8359.471
8378.445
8398.551
8419.319
8440.409
8461.706
8483.03
8504.336
8525.555
8546.62
8567.493
8588.008
8608.1
8627.758
8646.986
8665.783
8684.147
8702.078
8719.576
8736.639
8753.268
8769.465
8785.228
8800.556
8815.448
8829.899
8843.906
8857.46
8870.556
8883.181
8895.326
8906.979
8918.13
8928.773
8938.901
8948.515
8957.617
8966.214
8974.318
8981.943
8989.106
8995.828
9002.129
9008.033
9013.559
9018.731
9023.566
9028.085
9032.305
9036.241
9039.907
9043.318
9046.485
9049.421
9052.137
9054.654
9056.986
9059.172
9061.235
9063.243
9065.074
9066.497
9067.74
9068.893
9069.956
9070.899
9071.691
9072.32
9072.812
9073.196
9073.448
9073.64
9073.705
9073.668
9073.546
9073.347
9073.08
9072.752
9072.371
9071.945
9071.48
9070.983
9070.461
9069.92
9069.365
9068.801
9068.229
9067.655
9067.082
9066.517
9065.978
9065.499
9065.141
9064.999
9065.201
9065.871
9067.129
9068.933
9071.048
9073.252
9075.467
9077.687
9079.918
9082.159
9084.409
9086.671
9088.921
9091.186
9093.461
9095.75
9098.053
9100.374
9102.714
9105.077
9107.46
9109.888
9112.325
9114.796
9117.301
9119.84
9122.415
9125.032
9127.684
9130.374
9133.098
9135.86
9138.648
9141.471
9144.303
9147.079
9149.872
9152.727
9155.591
9158.429
9161.225
9164.048
9166.94
9169.879
9172.833
9175.793
9178.761
9181.736
9184.712
9187.683
9190.643
9193.587
9196.514
9199.418
9202.297
9205.148
9207.97
9210.759
9213.515
9216.235
9218.919
9221.565
9224.172
9226.74
9229.266
9231.752
9234.195
9236.596
9238.954
9241.268
9243.539
9245.767
9247.951
9250.09
9252.186
9254.234
9256.233
9258.174
9260.049
9261.841
9263.532
9265.098
9266.519
9267.791
9268.947
9270.025
9271.043
9271.992
9272.88
9273.719
9274.532
9275.185
9275.633
9275.996
9276.352
9276.699
9277.013
9277.285
9277.519
9277.711
9277.858
9277.956
9278.003
9277.998
9277.941
9277.832
9277.67
9277.454
9277.185
9276.863
9276.489
9276.063
9275.587
9275.06
9274.485
9273.862
9273.192
9272.477
9271.718
9270.915
9270.07
9269.185
9268.259
9267.296
9266.295
9265.257
9264.184
9263.077
9261.937
9260.765
9259.561
9258.327
9257.063
9255.77
9254.45
9253.102
9251.728
9250.328
9248.901
9247.45
9245.973
9244.471
9242.944
9241.391
9239.813
9238.208
9236.576
9234.915
9233.225
9231.505
9229.751
9227.961
9226.134
9224.265
9222.351
9220.389
9218.372
9216.295
9214.152
9211.935
9209.637
9207.248
9204.76
9202.163
9199.453
9196.629
9193.711
9190.732
9187.786
9184.977
9182.518
9180.533
9179.35
9179.063
9180.013
5353.482
5308.659
5264.05
5216.28
5165.622
5111.038
5057.527
5004.321
4950.112
4895.929
4842.157
4791.428
4741.21
4692.645
4647.986
4605.879
4563.896
4534.386
4511.346
4490.114
4465.876
4441.865
4423.114
4412.903
4412.288
4421.477
4440.645
4469.838
4509.11
4558.663
4618.003
4687.214
4767.706
4859.305
4961.672
5074.507
5197.446
5330.279
5472.282
5622.132
5778.858
5942.221
6102.596
6270.983
6441.939
6612.622
6781.454
6946.674
7106.994
7260.852
7406.002
7539.907
7660.847
7768.175
7861.321
7939.182
8000.545
8044.634
8071.26
8080.884
8074.296
8052.244
8015.501
7964.967
7902.12
7828.919
7747.104
7658.479
7565.096
7468.64
7370.724
7272.39
7174.906
7079.122
6985.566
6895.126
6808.603
6726.154
6648.455
6576.173
6511.465
6453.516
6400.232
6351.156
6306.791
6267.219
6231.94
6200.174
6171.179
6144.149
6118.319
6093.237
6068.508
6043.727
6018.66
5993.288
5967.815
5942.677
5918.464
5895.814
5875.857
5860.04
5849.554
5845.235
5847.662
5857.249
5874.308
5898.935
5931.095
5970.668
6017.273
6070.239
6128.706
6191.793
6258.381
6327.378
6397.117
6466.469
6534.064
6598.525
6658.766
6713.934
6762.845
6804.964
6839.616
6866.336
6884.997
6895.677
6898.608
6894.118
6882.647
6864.565
6840.3
6810.204
6774.605
6733.306
6685.654
6630.349
6566.823
6496.777
6422.312
6344.166
6262.903
6180.851
6102.061
6030.887
5971.384
5927.438
5902.148
5896.917
5910.927
5943.739
5993.46
6058.067
6135.511
6223.333
6318.512
6417.774
6517.874
6615.891
6709.617
6796.693
6875.143
6944.716
7007.092
7064.609
7120.114
7176.277
7233.833
7291.551
7348.033
7402.813
7456.054
7507.949
7558.524
7607.738
7655.589
7701.84
7746.268
7788.694
7828.374
7864.877
7898.105
7927.271
7954.117
7983.164
8015.492
8048.917
8082.112
8114.35
8144.444
8171.341
8194.611
8215.204
8233.981
8249.571
8261.086
8270.585
8279.682
8288.582
8297.964
8308.654
8321.366
8336.19
8352.384
8369.759
8388.3
8407.786
8427.835
8448.241
8468.845
8489.512
8510.27
8531.02
8551.713
8572.247
8592.468
8612.26
8631.61
8650.541
8669.05
8687.135
8704.795
8722.028
8738.834
8755.214
8771.169
8786.701
8801.811
8816.497
8830.759
8844.59
8857.986
8870.935
8883.428
8895.452
8906.994
8918.042
8928.587
8938.622
8948.146
8957.159
8965.67
8973.689
8981.231
8988.315
8994.96
9001.19
9007.028
9012.495
9017.613
9022.403
9026.884
9031.073
9034.986
9038.636
9042.039
9045.205
9048.148
9050.881
9053.42
9055.779
9057.981
9060.03
9061.937
9063.658
9065.194
9066.592
9067.841
9068.934
9069.88
9070.688
9071.362
9071.907
9072.335
9072.674
9072.872
9072.99
9073.013
9072.947
9072.805
9072.593
9072.318
9071.988
9071.61
9071.194
9070.745
9070.273
9069.784
9069.286
9068.784
9068.287
9067.802
9067.339
9066.914
9066.549
9066.279
9066.155
9066.24
9066.614
9067.358
9068.534
9070.118
9071.984
9073.994
9076.069
9078.183
9080.331
9082.507
9084.706
9086.922
9089.15
9091.392
9093.65
9095.923
9098.215
9100.525
9102.857
9105.213
9107.599
9109.998
9112.445
9114.921
9117.429
9119.971
9122.545
9125.165
9127.807
9130.488
9133.203
9135.955
9138.73
9141.529
9144.339
9147.148
9150.015
9152.891
9155.673
9158.436
9161.253
9164.134
9167.066
9170.03
9173.005
9175.981
9178.96
9181.941
9184.919
9187.89
9190.85
9193.793
9196.718
9199.621
9202.498
9205.348
9208.168
9210.955
9213.708
9216.426
9219.107
9221.75
9224.353
9226.916
9229.437
9231.916
9234.352
9236.744
9239.092
9241.396
9243.654
9245.866
9248.032
9250.15
9252.22
9254.237
9256.198
9258.097
9259.925
9261.671
9263.321
9264.86
9266.278
9267.574
9268.765
9269.869
9270.902
9271.866
9272.764
9273.587
9274.32
9274.939
9275.451
9275.903
9276.323
9276.705
9277.037
9277.318
9277.552
9277.738
9277.876
9277.964
9278
9277.985
9277.918
9277.798
9277.626
9277.402
9277.125
9276.795
9276.415
9275.983
9275.501
9274.971
9274.392
9273.765
9273.093
9272.376
9271.615
9270.812
9269.966
9269.081
9268.156
9267.193
9266.193
9265.157
9264.086
9262.98
9261.842
9260.672
9259.471
9258.24
9256.979
9255.69
9254.373
9253.03
9251.659
9250.263
9248.842
9247.395
9245.923
9244.427
9242.906
9241.361
9239.79
9238.193
9236.571
9234.921
9233.244
9231.537
9229.799
9228.028
9226.222
9224.378
9222.493
9220.565
9218.588
9216.56
9214.475
9212.329
9210.117
9207.835
9205.478
9203.047
9200.546
9197.986
9195.394
9192.813
9190.317
9187.988
9185.96
9184.331
9183.296
9182.884
9183.315
5766.325
5723.078
5682.105
5641.021
5602.161
5559.588
5521.596
5482.184
5441.033
5399.254
5356.725
5312.532
5266.862
5219.582
5168.749
5109.205
5056.021
5002.862
4949.065
4894.936
4840.92
4787.929
4736.277
4686.184
4638.411
4594.763
4556.381
4521.783
4491.183
4463.121
4437.154
4415.216
4399.209
4390.659
4390.546
4399.339
4417.281
4444.739
4482.105
4529.513
4587.397
4655.784
4734.684
4824.381
4924.951
5036.217
5157.811
5289.267
5429.9
5578.769
5734.936
5896.461
6059.974
6227.777
6397.321
6566.517
6734.009
6898.019
7056.608
7208.508
7352.175
7485.438
7605.772
7712.025
7803.981
7880.494
7940.289
7982.621
8007.346
8014.827
8005.88
7981.438
7942.592
7890.49
7826.527
7752.518
7670.226
7581.724
7488.709
7392.762
7295.785
7198.88
7102.357
7006.71
6913.649
6824.817
6740.78
6661.676
6588.12
6520.457
6459.034
6403.79
6354.027
6309.192
6269.225
6234.049
6203.222
6175.922
6151.219
6128.178
6105.907
6083.681
6060.909
6037.128
6011.997
5985.396
5957.558
5929.043
5900.637
5873.375
5848.663
5828.121
5813.248
5805.17
5804.626
5812.09
5827.897
5852.222
5885.071
5926.299
5975.564
6032.239
6095.472
6164.349
6237.679
6314.045
6391.865
6469.662
6545.808
6618.593
6686.495
6748.291
6803.265
6849.849
6887.676
6916.246
6935.384
6945.158
6945.862
6937.913
6921.943
6898.355
6867.547
6829.88
6785.754
6734.953
6677.181
6611.97
6539.02
6458.875
6372.777
6282.26
6189.018
6095.434
6005.144
5922.512
5852.764
5801.776
5773.919
5770.416
5789.358
5828.708
5886.21
5959.898
6047.315
6145.096
6249.436
6356.549
6463.188
6566.67
6665.124
6757.175
6841.722
6918.569
6988.74
7053.893
7115.783
7175.882
7234.943
7292.754
7348.677
7402.369
7453.879
7503.395
7551.051
7596.926
7641.11
7683.578
7724.319
7763.295
7800.121
7834.612
7867.088
7897.633
7926.989
7957.267
7989.515
8022.913
8056.339
8088.911
8120.002
8149.183
8175.902
8199.898
8221.268
8239.817
8255.903
8270.652
8284.158
8296.192
8308.166
8321.2
8335.175
8350.22
8366.431
8383.743
8402.173
8421.317
8440.694
8460.263
8480.004
8499.876
8519.846
8539.815
8559.745
8579.591
8599.216
8618.465
8637.322
8655.816
8673.931
8691.646
8708.949
8725.838
8742.313
8758.372
8774.019
8789.256
8804.086
8818.51
8832.527
8846.133
8859.321
8872.081
8884.4
8896.264
8907.658
8918.569
8928.983
8938.894
8948.297
8957.192
8965.586
8973.491
8980.923
8987.9
8994.443
9000.577
9006.326
9011.712
9016.757
9021.483
9025.908
9030.05
9033.924
9037.544
9040.924
9044.075
9047.009
9049.74
9052.279
9054.638
9056.833
9058.867
9060.749
9062.48
9064.053
9065.463
9066.71
9067.806
9068.768
9069.602
9070.31
9070.895
9071.365
9071.731
9071.986
9072.152
9072.232
9072.226
9072.137
9071.978
9071.756
9071.478
9071.154
9070.79
9070.396
9069.98
9069.55
9069.116
9068.686
9068.269
9067.878
9067.525
9067.229
9067.013
9066.909
9066.956
9067.201
9067.701
9068.503
9069.635
9071.08
9072.774
9074.631
9076.587
9078.61
9080.685
9082.803
9084.956
9087.137
9089.339
9091.563
9093.806
9096.07
9098.354
9100.661
9102.99
9105.346
9107.729
9110.135
9112.572
9115.04
9117.542
9120.081
9122.658
9125.262
9127.914
9130.599
9133.316
9136.073
9138.838
9141.631
9144.446
9147.279
9150.132
9152.974
9155.788
9158.613
9161.485
9164.4
9167.345
9170.311
9173.288
9176.269
9179.251
9182.234
9185.214
9188.186
9191.146
9194.09
9197.015
9199.918
9202.796
9205.646
9208.465
9211.252
9214.005
9216.722
9219.401
9222.041
9224.642
9227.201
9229.717
9232.191
9234.62
9237.005
9239.344
9241.636
9243.882
9246.079
9248.227
9250.325
9252.369
9254.358
9256.288
9258.151
9259.942
9261.652
9263.271
9264.79
9266.203
9267.511
9268.719
9269.84
9270.884
9271.853
9272.747
9273.559
9274.286
9274.932
9275.498
9275.994
9276.432
9276.817
9277.149
9277.429
9277.658
9277.837
9277.967
9278.046
9278.073
9278.049
9277.972
9277.842
9277.66
9277.426
9277.14
9276.803
9276.414
9275.975
9275.486
9274.949
9274.365
9273.734
9273.057
9272.336
9271.572
9270.765
9269.918
9269.03
9268.104
9267.14
9266.139
9265.103
9264.032
9262.928
9261.791
9260.622
9259.423
9258.194
9256.936
9255.649
9254.336
9252.996
9251.629
9250.237
9248.821
9247.379
9245.914
9244.424
9242.91
9241.373
9239.811
9238.225
9236.613
9234.977
9233.313
9231.623
9229.904
9228.154
9226.373
9224.559
9222.708
9220.819
9218.889
9216.915
9214.896
9212.828
9210.709
9208.539
9206.32
9204.055
9201.755
9199.436
9197.128
9194.871
9192.723
9190.752
9189.052
9187.699
9186.808
9186.402
9186.642
5901.142
5898.183
5879.514
5844.006
5801.472
5758.953
5716.794
5676.675
5638.536
5599.76
5555.032
5516.59
5478.084
5438.378
5397.153
5354.445
5310.152
5263.96
5215.888
5166.55
5117.061
5064.957
5011.8
4957.709
4903.189
4848.439
4793.889
4740.152
4687.439
4635.903
4586.997
4542.852
4503.024
4467.289
4435.371
4407.743
4385.916
4370.907
4363.435
4364.108
4373.364
4391.527
4418.893
4455.669
4502.17
4558.694
4625.512
4702.798
4790.777
4889.573
4999.123
5119.143
5249.125
5388.295
5535.645
5689.976
5849.617
6013.002
6179.463
6347.506
6514.851
6679.6
6840.574
6996.449
7145.592
7286.677
7417.794
7536.313
7640.387
7729.166
7801.833
7857.49
7895.632
7916.241
7919.727
7906.986
7879.048
7837.212
7782.744
7717.292
7642.52
7560.029
7472.266
7380.777
7286.722
7191.311
7095.752
7001.139
6908.109
6818.357
6733.289
6653.363
6578.771
6509.877
6446.903
6389.99
6339.241
6294.393
6255.012
6220.838
6191.637
6166.908
6145.697
6126.928
6109.484
6092.222
6073.968
6053.716
6031.156
6005.963
5977.762
5946.769
5913.735
5879.668
5845.912
5814.326
5787.095
5766.264
5753.288
5748.964
5753.744
5767.997
5791.931
5825.532
5868.677
5921.098
5982.292
6051.588
6127.976
6210.052
6296.205
6384.647
6473.443
6560.546
6643.899
6721.644
6792.22
6854.284
6906.924
6948.876
6979.765
6999.446
7007.858
7005.337
6992.501
6970.275
6939.666
6901.434
6855.76
6802.634
6741.975
6673.751
6597.547
6513.259
6421.056
6321.445
6216.123
6107.377
5997.985
5891.937
5793.862
5709.894
5647.988
5614.856
5610.862
5637.428
5689.307
5758.717
5843.542
5942.766
6053.016
6169.561
6287.625
6403.57
6514.982
6620.397
6718.922
6810.06
6893.862
6971.031
7042.635
7109.853
7173.645
7234.661
7293.059
7348.669
7401.346
7451.145
7498.285
7542.985
7585.445
7625.872
7664.414
7701.222
7736.473
7770.222
7802.617
7834.058
7864.754
7895.171
7926.513
7959.499
7993.62
8027.969
8061.862
8094.815
8126.306
8155.683
8182.612
8207.308
8229.947
8250.615
8269.519
8286.713
8302.603
8318.344
8334.397
8350.366
8366.682
8383.865
8401.64
8419.816
8438.379
8457.181
8476.08
8495.047
8514.052
8533.061
8552.042
8570.97
8589.782
8608.456
8626.947
8645.174
8663.08
8680.657
8697.876
8714.719
8731.17
8747.222
8762.875
8778.132
8792.997
8807.474
8821.566
8835.273
8848.591
8861.512
8874.027
8886.121
8897.777
8908.979
8919.708
8929.952
8939.699
8948.943
8957.684
8965.928
8973.687
8980.976
8987.815
8994.228
9000.24
9005.875
9011.157
9016.109
9020.752
9025.104
9029.182
9033.002
9036.578
9039.92
9043.042
9045.954
9048.667
9051.191
9053.538
9055.717
9057.738
9059.606
9061.323
9062.883
9064.284
9065.534
9066.645
9067.627
9068.484
9069.22
9069.838
9070.344
9070.744
9071.039
9071.245
9071.361
9071.409
9071.374
9071.268
9071.099
9070.876
9070.607
9070.3
9069.965
9069.61
9069.245
9068.88
9068.525
9068.192
9067.894
9067.645
9067.465
9067.375
9067.404
9067.583
9067.947
9068.535
9069.374
9070.478
9071.837
9073.413
9075.154
9077.011
9078.952
9080.961
9083.024
9085.133
9087.279
9089.456
9091.66
9093.89
9096.145
9098.424
9100.728
9103.057
9105.413
9107.796
9110.206
9112.648
9115.123
9117.632
9120.177
9122.758
9125.371
9128.019
9130.703
9133.42
9136.162
9138.951
9141.757
9144.581
9147.424
9150.275
9153.133
9155.996
9158.875
9161.782
9164.715
9167.669
9170.641
9173.623
9176.611
9179.601
9182.59
9185.575
9188.551
9191.515
9194.464
9197.392
9200.298
9203.179
9206.032
9208.853
9211.643
9214.397
9217.115
9219.794
9222.434
9225.033
9227.59
9230.104
9232.573
9234.996
9237.374
9239.704
9241.987
9244.22
9246.403
9248.535
9250.613
9252.635
9254.599
9256.501
9258.335
9260.096
9261.777
9263.372
9264.875
9266.281
9267.591
9268.808
9269.938
9270.988
9271.959
9272.853
9273.669
9274.407
9275.068
9275.652
9276.164
9276.61
9276.999
9277.333
9277.613
9277.841
9278.016
9278.139
9278.21
9278.229
9278.194
9278.107
9277.966
9277.774
9277.529
9277.233
9276.885
9276.486
9276.038
9275.541
9274.996
9274.404
9273.765
9273.082
9272.356
9271.586
9270.775
9269.923
9269.032
9268.103
9267.136
9266.134
9265.096
9264.024
9262.919
9261.782
9260.614
9259.415
9258.188
9256.931
9255.648
9254.337
9253
9251.637
9250.25
9248.838
9247.403
9245.943
9244.461
9242.955
9241.426
9239.875
9238.3
9236.702
9235.079
9233.433
9231.761
9230.063
9228.338
9226.585
9224.803
9222.989
9221.144
9219.265
9217.35
9215.4
9213.414
9211.392
9209.337
9207.252
9205.147
9203.033
9200.931
9198.866
9196.876
9195.009
9193.319
9191.876
9190.732
9189.966
9189.588
9189.755
5904.047
5888.136
5847.28
5810.78
5772.66
5734.859
5697.919
5661.81
5626.223
5590.968
5556.119
5519.844
5482.443
5443.647
5403.336
5361.231
5317.239
5271.171
5222.872
5172.823
5122.306
5070.299
5016.912
4962.408
4907.116
4851.065
4794.252
4737.201
4680.942
4626.151
4573.692
4525.085
4481.412
4442.817
4409.322
4381.395
4359.862
4345.363
4338.426
4339.491
4348.91
4366.959
4393.904
4430.112
4475.75
4531.113
4596.518
4672.268
4758.621
4855.731
4963.582
5081.925
5210.249
5347.74
5493.319
5645.738
5803.399
5965.058
6129.252
6293.815
6457.215
6618.107
6775.382
6928.216
7074.448
7211.941
7338.666
7452.46
7551.553
7634.755
7701.373
7750.782
7782.791
7797.519
7795.566
7777.869
7745.662
7700.439
7643.458
7576.785
7502.047
7420.804
7334.326
7243.864
7151.636
7058.472
6965.459
6874.578
6786.673
6702.5
6622.796
6548.066
6478.701
6415.115
6357.632
6306.418
6261.509
6222.76
6189.931
6162.813