/*--------------------------------*- C++ -*----------------------------------*\
| =========                 |                                                 |
| \\      /  F ield         | foam-extend: Open Source CFD                    |
|  \\    /   O peration     | Version:     3.1                                |
|   \\  /    A nd           | Web:         http://www.extend-project.de       |
|    \\/     M anipulation  |                                                 |
\*---------------------------------------------------------------------------*/
FoamFile
{
    version     2.0;
    format      ascii;
    class       volScalarField;
    location    "10.5";
    object      k;
}
// * * * * * * * * * * * * * * * * * * * * * * * * * * * * * * * * * * * * * //

dimensions      [0 2 -2 0 0 0 0];

internalField   nonuniform List<scalar> 
119952
(
0.0657779
0.06292772
0.06562598
0.06924585
0.07198726
0.07321619
0.07476079
0.07617573
0.07729938
0.07788946
0.07788775
0.07723223
0.07586098
0.07376912
0.07098901
0.06756618
0.06350881
0.05865285
0.05222878
0.04195368
0.03096134
0.03286643
0.0361954
0.04281396
0.03922129
0.03597969
0.03304024
0.03107876
0.02907304
0.01322348
0.0674702
0.06380366
0.06313607
0.06449262
0.06718505
0.07056138
0.07413942
0.07758106
0.08065513
0.08330466
0.08233398
0.08476529
0.08800621
0.09091893
0.09312266
0.09441769
0.09484177
0.09459222
0.09381455
0.1029511
0.1017073
0.1007721
0.09987268
0.09873058
0.09725771
0.09577853
0.09443168
0.09349361
0.09331295
0.09404008
0.09550821
0.09815936
0.1022554
0.1080143
0.1155597
0.124828
0.1353807
0.1466013
0.1601312
0.1716755
0.1809346
0.1893106
0.1962138
0.2006018
0.2022794
0.2018799
0.1997504
0.1960993
0.1910213
0.1849045
0.1780774
0.170784
0.1632479
0.1556494
0.1480424
0.1404292
0.1326231
0.1236783
0.1147827
0.1093715
0.107257
0.1082638
0.1119594
0.1161099
0.1190551
0.1202366
0.1190111
0.1142297
0.1091446
0.1040637
0.09928127
0.09510593
0.09169716
0.08909857
0.08735769
0.08653351
0.08667737
0.08782696
0.0899779
0.09305947
0.09692729
0.1013783
0.1061846
0.1111271
0.1160099
0.1206468
0.1248331
0.1283316
0.1309099
0.1324196
0.1328446
0.1322581
0.1307507
0.1283857
0.1251597
0.1210728
0.1164346
0.111485
0.1063983
0.101336
0.09639865
0.09158875
0.08680829
0.08182326
0.07587983
0.07001924
0.06745045
0.06851115
0.07196055
0.07599584
0.07939703
0.08134469
0.08161678
0.0804835
0.07832213
0.07560492
0.07273967
0.070012
0.06738229
0.06487705
0.06254846
0.06040941
0.05848234
0.05677293
0.05527762
0.05399634
0.05292918
0.05207293
0.05141947
0.05095575
0.05066439
0.05052476
0.05050658
0.05056648
0.05066766
0.05076337
0.05081128
0.05080981
0.05073898
0.05055797
0.05025576
0.04984262
0.04929093
0.04871506
0.04704624
0.04494234
0.05522206
0.06984188
0.08178491
0.08065945
0.07201011
0.0619615
0.05360836
0.04949554
0.04702057
0.04360001
0.03943469
0.0356604
0.03285729
0.03090514
0.02956042
0.0286509
0.02803388
0.02759701
0.02727858
0.02706008
0.0269374
0.02529704
0.02300766
0.0220813
0.02157125
0.02128732
0.02117426
0.02119306
0.02131265
0.02150293
0.0217385
0.02200453
0.02229531
0.02260768
0.02293078
0.02324632
0.02352261
0.02374178
0.02391783
0.02405131
0.02413826
0.02417532
0.0241603
0.02409247
0.02397268
0.02380296
0.0235865
0.02332656
0.02302794
0.0226958
0.02233597
0.0219562
0.02156266
0.02115892
0.02074679
0.02034618
0.01995979
0.01975999
0.01958916
0.01939821
0.01919946
0.01899569
0.01878989
0.01858543
0.01838508
0.01819031
0.01800213
0.01782119
0.01764767
0.01748148
0.01732238
0.01717004
0.01702406
0.01688403
0.01674955
0.01662025
0.01649577
0.01637578
0.01625995
0.01614801
0.0160397
0.01593484
0.01583319
0.01573461
0.01563897
0.01554618
0.01545617
0.01536882
0.01528409
0.01520297
0.01512226
0.01631883
0.01627736
0.01617792
0.01603772
0.0158958
0.0157672
0.01566133
0.01558092
0.01552503
0.01548979
0.01547018
0.01546221
0.01546189
0.01546587
0.01547163
0.01547733
0.01548171
0.01548397
0.01548367
0.01548063
0.01547481
0.01546631
0.01545527
0.01544189
0.01542637
0.0154089
0.01538968
0.01536892
0.0153468
0.0153235
0.0152992
0.01527408
0.01524831
0.01522205
0.01519546
0.01516871
0.01514195
0.01511533
0.01508899
0.01506305
0.01503767
0.01501298
0.01498916
0.01496668
0.01494685
0.01492963
0.01490779
0.01488317
0.0148595
0.01483646
0.01481414
0.01479329
0.01477436
0.01477149
0.01479878
0.01474088
0.01468267
0.01462287
0.01456243
0.01450315
0.01444676
0.01439499
0.01434926
0.01431049
0.01427909
0.01425514
0.01423828
0.01422792
0.01422336
0.0142238
0.01422846
0.01423657
0.01424739
0.01426029
0.01427467
0.01429005
0.01430605
0.01432233
0.01433861
0.01435469
0.01437035
0.01438547
0.01439994
0.0144137
0.01442672
0.01443897
0.01445045
0.01446114
0.01447106
0.01448021
0.01448859
0.01449621
0.01450306
0.01450916
0.01451449
0.01451905
0.01452277
0.01452557
0.0145274
0.01452825
0.01452814
0.01452707
0.01452508
0.01452215
0.01451831
0.01451355
0.01450787
0.01450127
0.01449375
0.01448531
0.01447595
0.01446567
0.01445449
0.0144424
0.01442943
0.0144156
0.01440093
0.01438547
0.01436924
0.01435229
0.01433466
0.0143164
0.01429756
0.0142782
0.01425836
0.01423809
0.01421743
0.01419642
0.01417507
0.01415344
0.01413146
0.01410896
0.01408538
0.01405996
0.0140294
0.01398675
0.01391102
0.01380384
0.01398368
0.08671256
0.08555327
0.09480713
0.1043685
0.1120529
0.1179923
0.1226536
0.1264008
0.1296357
0.1343411
0.14736
0.1602444
0.1712236
0.1799605
0.1865602
0.1913443
0.1946388
0.1967474
0.2222073
0.2204256
0.2181995
0.2153738
0.2121755
0.2088647
0.2054189
0.2018889
0.1983385
0.1947971
0.1916473
0.1883275
0.1850205
0.182044
0.1796
0.1778223
0.1767941
0.1765899
0.1772185
0.178767
0.1808772
0.1834885
0.1866639
0.1902767
0.1941021
0.1978614
0.2012541
0.2040006
0.2058765
0.2067558
0.2064831
0.2051183
0.2027472
0.1994838
0.1955269
0.1911101
0.1865991
0.1817331
0.1882425
0.1827274
0.1771569
0.1717333
0.1665989
0.1618105
0.157296
0.1528901
0.1488036
0.1457083
0.1439541
0.1439036
0.1459392
0.1504179
0.1575896
0.1674443
0.1796675
0.1936339
0.2086347
0.2240666
0.2380694
0.2499063
0.2593877
0.2661003
0.2699115
0.2710959
0.2700782
0.2671824
0.2626968
0.2569099
0.2503026
0.2431093
0.2355006
0.2276062
0.2194622
0.2110105
0.2021439
0.1927262
0.1828026
0.173024
0.1638095
0.1552377
0.1475397
0.1409148
0.1355743
0.1318094
0.1295963
0.1283121
0.1272664
0.1261926
0.1246123
0.1222933
0.1193575
0.1162433
0.1135713
0.1117688
0.1111248
0.1118245
0.1139444
0.1174405
0.1221513
0.1278214
0.1341474
0.1408342
0.1476268
0.1542998
0.1606134
0.166272
0.1709415
0.1743398
0.1763698
0.1771085
0.176694
0.1752189
0.1727258
0.1692912
0.1650781
0.1603479
0.1554028
0.150369
0.1453026
0.140187
0.1349706
0.1295415
0.1237316
0.1176302
0.1116058
0.1059258
0.1007723
0.09632315
0.09275809
0.09018564
0.08858469
0.08777767
0.08746622
0.08731989
0.08704974
0.08645794
0.08545096
0.08401408
0.08221468
0.08017363
0.07802074
0.07587111
0.07381962
0.07196469
0.07038533
0.06911166
0.06815252
0.06750364
0.06715041
0.06707129
0.0672347
0.06759943
0.06812089
0.06874588
0.06941685
0.07008969
0.07071145
0.07126518
0.07177702
0.07222249
0.0724875
0.0725411
0.07179129
0.06932535
0.06575394
0.06276374
0.06164033
0.06287007
0.06662164
0.07204919
0.07797457
0.08367174
0.08949554
0.09409103
0.09455753
0.09017673
0.08308101
0.0754772
0.068621
0.06335471
0.05966793
0.05712526
0.05526776
0.05388844
0.05284837
0.05211413
0.04929204
0.04726926
0.04652997
0.0462775
0.04623056
0.04629736
0.04644689
0.04666579
0.04694356
0.04726882
0.04763068
0.0480212
0.04843613
0.04886336
0.04927549
0.04965594
0.04999197
0.05027196
0.05048603
0.05062593
0.05068485
0.05065758
0.05054069
0.05033265
0.05003386
0.04964663
0.0491749
0.04862428
0.04800156
0.04731468
0.04657213
0.04578268
0.0449547
0.04409562
0.04320991
0.04230542
0.04142344
0.04057503
0.03974649
0.0389358
0.03814255
0.03736833
0.03661586
0.03588818
0.03518785
0.03451653
0.03387494
0.03326299
0.03267999
0.03212484
0.03159618
0.03109254
0.0306124
0.03015425
0.02971666
0.02929827
0.02889778
0.028514
0.02814582
0.0277922
0.02745219
0.02712491
0.02680958
0.02650547
0.02621194
0.02592843
0.02565443
0.02538962
0.0251337
0.02488496
0.02615601
0.02593262
0.02572763
0.02552606
0.02532281
0.02511863
0.02491549
0.02471489
0.02451805
0.02432598
0.02413934
0.02395861
0.02378412
0.023616
0.02345425
0.02329876
0.02314935
0.02300573
0.02286759
0.02273458
0.02260633
0.02248246
0.02236261
0.02224641
0.02213353
0.02202367
0.02191655
0.02181192
0.02170957
0.02160934
0.02151109
0.02141473
0.02132018
0.02122741
0.02113641
0.02104722
0.02095987
0.02087441
0.02079094
0.02070956
0.02063039
0.02055362
0.02047954
0.02040842
0.02034017
0.02027385
0.02020805
0.02014299
0.02007972
0.0200187
0.0199599
0.01990356
0.01985018
0.01980652
0.0197649
0.01971361
0.01965973
0.0196082
0.01955982
0.01951424
0.01947094
0.01942946
0.01938943
0.01935064
0.01931291
0.01927618
0.01924043
0.01920565
0.01917186
0.01913907
0.01910731
0.01907658
0.01904688
0.01901823
0.0189906
0.01896396
0.01893829
0.01891354
0.01888966
0.0188666
0.01884428
0.01882264
0.01880158
0.01878104
0.01876093
0.01874117
0.01872168
0.01870236
0.01868313
0.0186639
0.01864459
0.01862509
0.01860534
0.01858523
0.01856468
0.01854359
0.01852189
0.01849948
0.01847628
0.01845222
0.01842721
0.01840118
0.01837407
0.0183458
0.01831632
0.01828557
0.0182535
0.01822006
0.01818522
0.01814894
0.01811121
0.01807198
0.01803127
0.01798905
0.01794535
0.01790015
0.0178535
0.01780542
0.01775595
0.01770512
0.01765301
0.01759965
0.01754513
0.01748947
0.01743281
0.01737511
0.01731654
0.01725697
0.01719665
0.01713519
0.01707294
0.01700882
0.01694312
0.01687307
0.01679845
0.01671557
0.01663676
0.01658692
0.01657512
0.05025391
0.05369527
0.05775078
0.06224128
0.06718071
0.07265301
0.07879278
0.08578838
0.09388893
0.102843
0.1480588
0.1623764
0.176807
0.1913514
0.2064171
0.2217813
0.237606
0.2547807
0.2817853
0.33319
0.3445582
0.3547387
0.3639934
0.3725858
0.3806661
0.3881318
0.3944908
0.4000159
0.4058489
0.4120093
0.4179284
0.4225487
0.4259872
0.428538
0.4303173
0.4314241
0.4319357
0.4321736
0.4292502
0.426572
0.4237368
0.4205959
0.417108
0.4132789
0.409154
0.4047932
0.4002767
0.3956988
0.3909319
0.3860909
0.3811846
0.3762626
0.3713459
0.3664253
0.3614572
0.356338
0.3687621
0.3632761
0.3574127
0.3512602
0.3448219
0.3381147
0.3311948
0.3241208
0.3170102
0.3099818
0.3029888
0.2960388
0.2891341
0.2823467
0.2758445
0.2699346
0.2648277
0.260659
0.2575564
0.255604
0.2548763
0.2553949
0.2570418
0.2595831
0.26269
0.2659634
0.2689929
0.2714058
0.2729025
0.2733075
0.2725523
0.2706655
0.2677708
0.2641108
0.2600435
0.2554846
0.2503369
0.2446425
0.2380875
0.2310484
0.2237995
0.2165912
0.2096257
0.2030238
0.1968339
0.1910753
0.185771
0.1810159
0.1777077
0.176444
0.1778182
0.1823654
0.1904122
0.2018852
0.216325
0.2329155
0.2505652
0.2682874
0.2842891
0.2973609
0.307132
0.3135398
0.3167293
0.317091
0.3150968
0.3111495
0.3055956
0.298803
0.2911409
0.2828326
0.2740848
0.2650461
0.2557598
0.2462761
0.2365924
0.2266097
0.2165092
0.2066125
0.1969187
0.1874045
0.1781442
0.1691894
0.1607967
0.1533484
0.1471238
0.1421492
0.1383232
0.1353712
0.1328994
0.130566
0.1282127
0.1259112
0.1239158
0.122767
0.1228448
0.1243911
0.1275178
0.1321731
0.1381484
0.1451185
0.1527154
0.1606161
0.1685748
0.176367
0.1837546
0.1903956
0.1958848
0.1998909
0.2023247
0.2033238
0.2030819
0.2016749
0.1990827
0.1953731
0.1907961
0.1857124
0.1804513
0.1751665
0.1699023
0.1646384
0.1593269
0.1538332
0.1480772
0.1422019
0.1363622
0.1305824
0.1248838
0.1193427
0.1140796
0.1092321
0.1049218
0.1012196
0.09813003
0.09559112
0.09348289
0.09166236
0.08998898
0.08835055
0.08668629
0.08498582
0.08327367
0.08159581
0.08000797
0.07856349
0.07731167
0.07632505
0.07565188
0.07530056
0.07526629
0.07553198
0.07606701
0.07682768
0.07776008
0.07880374
0.07989612
0.08098023
0.08200671
0.08293872
0.08377313
0.08446727
0.08493154
0.085088
0.08461342
0.08297914
0.08027438
0.07710491
0.07405118
0.0715404
0.06992069
0.069466
0.07039423
0.07298658
0.07752682
0.08309945
0.08876922
0.09377064
0.09724739
0.09808981
0.0959262
0.09170463
0.08681345
0.08217273
0.07811125
0.07489129
0.07247071
0.07067144
0.06940893
0.06842851
0.06767454
0.06712616
0.06675321
0.06652958
0.06643173
0.06643829
0.06652994
0.06668875
0.06689804
0.06714337
0.06741462
0.06771476
0.06801431
0.06828756
0.06851562
0.06868328
0.06877806
0.0687897
0.06871008
0.06853313
0.06825488
0.06787343
0.06738897
0.06680364
0.06612134
0.06534755
0.06448908
0.06355367
0.06254967
0.06148555
0.06036965
0.05921065
0.05801917
0.05681236
0.05561033
0.05442306
0.05325502
0.05210941
0.05098861
0.04989564
0.04883443
0.04780903
0.04682273
0.04587764
0.04497461
0.04411346
0.04329316
0.04251212
0.04176837
0.04105978
0.04038413
0.03973924
0.039123
0.03853342
0.03796862
0.03742687
0.03690657
0.03640622
0.03592448
0.03546009
0.03501192
0.03457894
0.03416022
0.03375494
0.03336249
0.0329821
0.03261348
0.03225733
0.03190708
0.03156749
0.03123287
0.03090425
0.03058535
0.03027768
0.02998072
0.0296935
0.02941535
0.02914595
0.02888506
0.02863251
0.0283881
0.0281517
0.02792314
0.02770227
0.02748889
0.0272828
0.02708374
0.02689145
0.02670562
0.02652594
0.02635207
0.02618366
0.02602037
0.02586186
0.02570781
0.0255579
0.02541186
0.02526943
0.02513038
0.02499453
0.02486172
0.02473183
0.02460478
0.0244805
0.024359
0.02424027
0.02412436
0.02401134
0.02390132
0.02379443
0.02369082
0.02359057
0.02349356
0.02339939
0.02330748
0.02321762
0.02313014
0.02304537
0.02296347
0.02288443
0.02280801
0.02273374
0.02266165
0.02259234
0.02252681
0.0224646
0.02240463
0.02234632
0.02228962
0.02223465
0.02218141
0.02212985
0.02207987
0.02203137
0.02198428
0.02193849
0.02189391
0.02185046
0.02180806
0.02176662
0.02172608
0.02168638
0.02164745
0.02160925
0.02157173
0.02153484
0.02149854
0.02146278
0.02142753
0.02139274
0.02135835
0.02132431
0.02129058
0.0212571
0.02122381
0.02119066
0.02115757
0.02112448
0.02109132
0.02105802
0.02102451
0.02099071
0.02095654
0.02092191
0.02088674
0.02085096
0.02081448
0.02077722
0.0207391
0.02070004
0.02065997
0.02061881
0.02057648
0.02053294
0.0204881
0.0204419
0.0203943
0.02034525
0.02029469
0.0202426
0.02018893
0.02013368
0.02007683
0.02001836
0.0199583
0.01989665
0.01983343
0.01976869
0.01970245
0.01963478
0.01956571
0.01949533
0.01942365
0.01935079
0.01927669
0.01920149
0.01912502
0.01904742
0.0189682
0.01888746
0.01880417
0.01871849
0.01862925
0.01853847
0.0184482
0.01836681
0.01830308
0.03943222
0.04384275
0.04775211
0.0715515
0.09582465
0.125503
0.1454862
0.1653821
0.1840886
0.2012844
0.2161081
0.2288556
0.2413059
0.2539403
0.2666021
0.279396
0.2923827
0.3055227
0.3187919
0.3318826
0.3445852
0.3569992
0.3692042
0.3812439
0.3930921
0.4047846
0.4164278
0.4280163
0.4394941
0.4508256
0.4627339
0.4938815
0.5006956
0.5072352
0.5126406
0.5172297
0.520852
0.5237104
0.5259148
0.5278114
0.5297663
0.5315832
0.5332541
0.5347693
0.5360866
0.5371428
0.5378913
0.5382213
0.5379777
0.5367051
0.534012
0.5301924
0.5254117
0.5199306
0.513982
0.5077513
0.5013822
0.4949827
0.4886366
0.4823945
0.4762796
0.4703109
0.4644842
0.4587863
0.4532046
0.4477034
0.4422708
0.4368363
0.4309221
0.4248761
0.4186384
0.4121406
0.4053334
0.3982081
0.390815
0.3833437
0.3757279
0.3678235
0.3596785
0.3513454
0.3428951
0.3344375
0.3261006
0.3179864
0.3104854
0.3040476
0.2988912
0.295209
0.2931473
0.2927604
0.293959
0.2964872
0.2999319
0.3037688
0.3074433
0.3104594
0.3124295
0.3131123
0.3124224
0.3104232
0.3073185
0.3034781
0.2989901
0.2938152
0.2880116
0.2816478
0.2747465
0.2673436
0.2596171
0.2518136
0.2441379
0.2367285
0.2296714
0.2230456
0.2170036
0.2117859
0.207959
0.2065791
0.2084007
0.2141082
0.2240856
0.2382458
0.2559878
0.2761751
0.2973019
0.3175755
0.3352312
0.3489791
0.3583411
0.3634865
0.3649501
0.3634519
0.3596641
0.3540576
0.3469725
0.3387595
0.3296845
0.3199713
0.3098488
0.2994671
0.2888791
0.2781529
0.2673983
0.2566496
0.2460653
0.2358072
0.2258165
0.2159723
0.2062102
0.1964963
0.1870107
0.1780441
0.1698998
0.1627895
0.1568153
0.1519203
0.1479
0.1445112
0.1415936
0.1391388
0.1373025
0.1363966
0.1370056
0.1393668
0.1435388
0.1493832
0.1565926
0.1647554
0.1734415
0.1823402
0.1912719
0.2000605
0.2084303
0.215931
0.2220615
0.2264766
0.2291297
0.2302524
0.2300802
0.2286001
0.225662
0.2213327
0.216012
0.2102631
0.2044823
0.1988168
0.1932808
0.187824
0.1823484
0.1767231
0.1709273
0.1650732
0.1592286
0.1533609
0.1474274
0.1414676
0.1355578
0.1297919
0.1242718
0.1190952
0.114346
0.1100787
0.1063
0.1029717
0.1000264
0.09738908
0.09499689
0.09280791
0.09080363
0.08898654
0.08737431
0.08599235
0.08486815
0.08402652
0.08351302
0.08337676
0.08360697
0.0841792
0.08505433
0.0861771
0.08748023
0.08889121
0.09033441
0.09174093
0.09305527
0.09423189
0.09524686
0.09605972
0.0965877
0.09675825
0.09643662
0.09530165
0.09321709
0.09048966
0.08744591
0.08415808
0.08079726
0.07776975
0.07545168
0.0741757
0.07421054
0.07569699
0.07884185
0.08358168
0.08902808
0.09444347
0.09912768
0.1024385
0.1038439
0.1032146
0.1010278
0.09802039
0.09483894
0.0918624
0.08931485
0.08714495
0.08535923
0.08393756
0.08284037
0.08201857
0.08142688
0.08102338
0.08077571
0.08065371
0.08062767
0.08066787
0.08074553
0.08084771
0.08096359
0.08106088
0.08111625
0.08111141
0.08103188
0.08086647
0.08060682
0.08024711
0.07978387
0.07921576
0.07854334
0.07776893
0.07689645
0.07593123
0.07487986
0.07374982
0.07254934
0.07128712
0.06997218
0.06861416
0.06722399
0.06581417
0.0643976
0.062988
0.06159534
0.06022579
0.05888435
0.05757622
0.05630703
0.05508226
0.05390616
0.05278127
0.0517086
0.05068776
0.04971732
0.04879508
0.0479185
0.04708478
0.04629107
0.04553453
0.04481246
0.04412231
0.04346168
0.04282837
0.04222036
0.04163576
0.04107288
0.04053014
0.04000614
0.03949953
0.03900927
0.03853406
0.03807343
0.03762569
0.03719167
0.03676784
0.03635504
0.03595142
0.03555728
0.03517323
0.03479934
0.03443523
0.03408043
0.0337346
0.03339763
0.03306951
0.03275031
0.03244002
0.03213865
0.03184615
0.03156249
0.03128759
0.03102136
0.03076366
0.03051433
0.03027317
0.03003992
0.02981432
0.02959604
0.02938477
0.02918014
0.0289818
0.02878938
0.02860251
0.02842086
0.02824409
0.0280719
0.02790403
0.02774022
0.02758028
0.02742405
0.02727141
0.02712227
0.02697658
0.02683436
0.02669561
0.0265604
0.02642879
0.02630085
0.0261766
0.02605598
0.02593881
0.02582478
0.02571366
0.02560552
0.02550056
0.02539891
0.02530059
0.02520549
0.02511391
0.02502619
0.02494155
0.02485933
0.02477955
0.02470242
0.02462803
0.02455638
0.02448739
0.02442092
0.02435681
0.02429488
0.02423495
0.02417688
0.02412051
0.02406569
0.02401228
0.02396013
0.02390913
0.02385916
0.02381012
0.0237619
0.02371441
0.02366759
0.02362135
0.02357564
0.02353039
0.02348556
0.02344109
0.02339693
0.02335304
0.02330936
0.02326585
0.02322246
0.02317914
0.02313584
0.02309252
0.02304911
0.02300556
0.02296181
0.02291779
0.02287345
0.0228287
0.02278348
0.02273772
0.02269134
0.02264427
0.02259644
0.02254776
0.02249818
0.0224476
0.02239597
0.0223432
0.02228924
0.02223401
0.02217745
0.0221195
0.02206011
0.02199923
0.0219368
0.0218728
0.0218072
0.02173997
0.0216711
0.0216006
0.02152847
0.02145473
0.02137941
0.02130255
0.02122418
0.02114436
0.02106312
0.02098052
0.02089655
0.02081128
0.02072459
0.02063652
0.02054677
0.02045538
0.02036184
0.0202664
0.02016881
0.02007014
0.0199716
0.01987645
0.01979477
0.01992598
0.02206888
0.02409157
0.03154812
0.04168979
0.05862163
0.07070346
0.08356331
0.09740055
0.1114654
0.1259795
0.141911
0.1588607
0.1761566
0.1941843
0.2144833
0.245498
0.2597498
0.2741709
0.2886163
0.3033343
0.3177023
0.3313595
0.3444336
0.3571119
0.3695176
0.3818076
0.393796
0.4055567
0.4171762
0.4286186
0.4398466
0.4508165
0.461478
0.4717962
0.4817556
0.4913066
0.5004073
0.5090832
0.5173213
0.5249663
0.5303571
0.5322809
0.5345741
0.5363783
0.5372998
0.537562
0.5373111
0.5367809
0.5361879
0.5357969
0.535874
0.5364019
0.5373404
0.5386399
0.5402188
0.5419215
0.5435682
0.5449429
0.5458365
0.5459459
0.5446667
0.5422847
0.5390921
0.5353169
0.5311314
0.5266689
0.5220351
0.5173063
0.512545
0.5078043
0.5031129
0.498489
0.4939384
0.4894481
0.4850042
0.4805874
0.4761773
0.4717079
0.4670503
0.4621486
0.45693
0.4513064
0.4452209
0.4386825
0.4318439
0.4245692
0.4168421
0.4086984
0.4001592
0.3912499
0.3820345
0.3726359
0.3632376
0.3540669
0.3453454
0.337553
0.3312126
0.3266676
0.3241957
0.3239321
0.3258099
0.3295118
0.3344494
0.3398431
0.3448884
0.3489095
0.3514147
0.3521235
0.3510058
0.3482748
0.3443138
0.3396091
0.334143
0.3280473
0.3213879
0.3142013
0.3065192
0.2984332
0.2901157
0.2817632
0.273552
0.265618
0.2580848
0.2510899
0.2448666
0.2397993
0.2364824
0.2361425
0.2397428
0.2480858
0.2615764
0.280067
0.3025709
0.327228
0.3516976
0.3736151
0.391123
0.4033146
0.4102732
0.4127089
0.41155
0.4076542
0.4016985
0.39415
0.3853232
0.3755769
0.3650487
0.3539855
0.3426432
0.3311848
0.319607
0.3078711
0.296058
0.284365
0.2730112
0.2621167
0.2516362
0.2414002
0.2313044
0.2212813
0.2114142
0.2018883
0.1929339
0.1848059
0.1776835
0.1716348
0.1666017
0.1624551
0.1590937
0.156524
0.1548977
0.1544894
0.1557642
0.159065
0.164347
0.1713484
0.1796346
0.1887597
0.1983412
0.2081535
0.2180679
0.2278877
0.2371478
0.2452458
0.2516765
0.2562047
0.2589247
0.2601472
0.2600288
0.2583099
0.2546824
0.2493469
0.2429963
0.2364173
0.2300261
0.2239363
0.2181272
0.2124701
0.2067484
0.200797
0.1946112
0.1882978
0.1819434
0.1755669
0.169146
0.1626964
0.1562717
0.149919
0.1437
0.1377107
0.1320399
0.1267615
0.1219208
0.1175343
0.1135909
0.1100591
0.1069001
0.10408
0.101577
0.09938261
0.09750132
0.0959465
0.09473651
0.09388981
0.09341977
0.09335976
0.09373675
0.09451399
0.0956372
0.09703313
0.09861515
0.1002945
0.1019812
0.1035911
0.1050548
0.1063209
0.1073593
0.1081279
0.1085695
0.1086341
0.1082418
0.1072316
0.1054977
0.1031483
0.100332
0.0970503
0.09340148
0.08960572
0.08585968
0.08243884
0.07970103
0.07799569
0.07761045
0.07865094
0.08106312
0.08480469
0.08956101
0.09468813
0.0996703
0.1039913
0.1072357
0.109126
0.1096043
0.1088504
0.1072719
0.1052644
0.103135
0.1010987
0.09927798
0.09772016
0.09643028
0.09539315
0.09458456
0.09397441
0.09352766
0.09320489
0.09296226
0.09275405
0.09257956
0.09240387
0.0921982
0.09194083
0.09161527
0.09120943
0.09071485
0.0901261
0.08944022
0.0886563
0.0877751
0.08679878
0.08573067
0.08457523
0.08333804
0.0820256
0.08064533
0.07920543
0.07771458
0.0761822
0.0746192
0.07303743
0.07144537
0.06985575
0.06828006
0.06672499
0.06519617
0.06370346
0.06225601
0.06086144
0.05952517
0.05825027
0.05703768
0.05588667
0.05479531
0.05376081
0.05277993
0.05184912
0.05096488
0.05012372
0.04932232
0.04855755
0.0478265
0.04712648
0.04645503
0.04580988
0.045189
0.04459047
0.04401259
0.04345377
0.04291265
0.04238783
0.04187832
0.04138275
0.04090046
0.04042991
0.03997027
0.03952091
0.03908154
0.03865181
0.03823148
0.0378204
0.03741845
0.03702548
0.03664142
0.03626627
0.03590008
0.03554292
0.03519486
0.03485599
0.03452637
0.03420605
0.03389508
0.03359346
0.03330113
0.03301802
0.03274397
0.03247879
0.03222225
0.03197404
0.03173384
0.03150131
0.03127605
0.03105767
0.03084579
0.03064002
0.03043998
0.03024533
0.03005575
0.02987096
0.0296907
0.02951479
0.02934305
0.02917539
0.02901173
0.02885204
0.02869631
0.02854456
0.0283968
0.02825304
0.02811321
0.02797721
0.02784487
0.02771604
0.02759072
0.02746903
0.02735107
0.0272369
0.02712656
0.02702018
0.02691764
0.02681841
0.02672224
0.02662922
0.02653946
0.0264529
0.02636943
0.02628891
0.02621123
0.02613623
0.02606377
0.02599367
0.02592576
0.02585987
0.02579582
0.02573345
0.02567259
0.02561311
0.02555484
0.02549765
0.02544142
0.02538603
0.02533137
0.02527736
0.02522391
0.02517093
0.02511837
0.02506617
0.02501426
0.02496259
0.02491111
0.02485979
0.02480856
0.0247574
0.02470626
0.02465509
0.02460386
0.0245525
0.02450099
0.02444926
0.02439727
0.02434495
0.02429224
0.02423909
0.02418542
0.02413119
0.0240763
0.02402071
0.02396433
0.0239071
0.02384895
0.02378981
0.0237296
0.02366826
0.02360572
0.02354192
0.02347678
0.02341024
0.02334226
0.02327278
0.02320175
0.02312915
0.02305494
0.02297911
0.02290165
0.02282256
0.02274186
0.02265957
0.02257572
0.02249035
0.02240349
0.02231519
0.02222544
0.02213428
0.02204164
0.02194754
0.02185181
0.02175449
0.02165536
0.02155465
0.02145236
0.02134917
0.02124588
0.02114439
0.02105577
0.007883717
0.009374933
0.01047514
0.0156162
0.02153057
0.02924659
0.03568504
0.04302678
0.05100324
0.05956111
0.06901564
0.08015532
0.09241159
0.1061149
0.1225081
0.1476203
0.1605755
0.1741402
0.1878298
0.2015948
0.2153682
0.2290435
0.2425105
0.255687
0.2684622
0.2807716
0.292914
0.30614
0.3195692
0.3332016
0.347113
0.3608709
0.37413
0.3868281
0.3990289
0.4107253
0.421815
0.4325521
0.4429852
0.4531352
0.4629804
0.4724694
0.4815357
0.4901061
0.4981132
0.5054776
0.5121073
0.5179906
0.5230225
0.5269595
0.5293281
0.5298172
0.5282801
0.5260952
0.522983
0.5192061
0.5151549
0.5111738
0.5076006
0.5047443
0.5028438
0.5020785
0.50249
0.5040269
0.506532
0.5098044
0.5135667
0.51754
0.5214696
0.5250652
0.5275017
0.5290393
0.5298542
0.530076
0.5297887
0.5290383
0.5278858
0.5263864
0.5245716
0.5224829
0.5201807
0.5176905
0.5150379
0.5122442
0.5093055
0.5062153
0.5029661
0.4995608
0.4959792
0.4921349
0.487924
0.4832628
0.4780886
0.4723828
0.4662634
0.4597252
0.452696
0.4452225
0.4373361
0.4290345
0.4202999
0.4111451
0.4016605
0.3920378
0.3825624
0.3735782
0.3654588
0.358993
0.354749
0.3531867
0.3545721
0.3588374
0.3654408
0.3733758
0.381384
0.3882585
0.3931032
0.3954262
0.3950996
0.3923224
0.3875687
0.3815523
0.3748518
0.3675892
0.3599617
0.3520427
0.3438327
0.3353169
0.3265238
0.3175742
0.3086563
0.2999639
0.2916716
0.2839585
0.2770581
0.2712912
0.2671665
0.2654284
0.2674138
0.2744026
0.2872227
0.3061137
0.3304343
0.3583888
0.3871101
0.4133967
0.4345666
0.449157
0.4573363
0.4602821
0.4593052
0.4555027
0.4495601
0.4418406
0.4326764
0.4223483
0.4111972
0.3992759
0.3869015
0.374415
0.3619784
0.3494421
0.3366008
0.3236378
0.3109533
0.2988145
0.2872543
0.2761343
0.2652846
0.2546134
0.2441276
0.2338817
0.2240203
0.2147141
0.206179
0.1985929
0.192065
0.1866348
0.1822705
0.178943
0.1767021
0.1757208
0.1762774
0.1787041
0.1832819
0.1898959
0.1981921
0.2076765
0.2178844
0.2285078
0.2393993
0.2503848
0.261023
0.2705694
0.2784485
0.2844768
0.2887334
0.291473
0.2929281
0.292897
0.2906364
0.2857871
0.2790364
0.2715663
0.2643177
0.2575719
0.2513462
0.2455638
0.2399325
0.2340039
0.2275015
0.2204721
0.2131313
0.2056822
0.1982424
0.1908639
0.1835604
0.1763737
0.1693453
0.1625128
0.155932
0.1496528
0.1437232
0.1382053
0.1331382
0.1285328
0.1243776
0.120651
0.1173327
0.1144088
0.1118738
0.1097317
0.1079952
0.1066819
0.1058087
0.1053873
0.1054196
0.1059406
0.1069201
0.1082871
0.1099422
0.1117654
0.1136573
0.115518
0.1172497
0.1187789
0.1200633
0.1210611
0.1217168
0.1219794
0.1218123
0.1211764
0.1200103
0.1182712
0.1160041
0.1132754
0.1100681
0.1064139
0.1024163
0.09818595
0.09390518
0.08980988
0.08615665
0.08319864
0.08117198
0.08029367
0.08072646
0.08247403
0.08539492
0.08929542
0.09377202
0.09833178
0.1026731
0.1064797
0.1095087
0.1116054
0.1127185
0.1129214
0.1124003
0.1113914
0.1101152
0.1087488
0.1074186
0.1062043
0.1051445
0.1042456
0.1034922
0.1028514
0.1022711
0.1017142
0.1011729
0.1006204
0.1000361
0.0994048
0.09871508
0.09795907
0.09713161
0.09622962
0.0952516
0.09419713
0.09306652
0.09186061
0.09058082
0.08922935
0.08780945
0.08632574
0.08478368
0.08318942
0.08155057
0.07987733
0.07818229
0.07647929
0.07477915
0.07309083
0.07141974
0.06976868
0.06815036
0.06657882
0.06506491
0.06361575
0.06223518
0.06092442
0.05968267
0.05850774
0.05739647
0.05634514
0.05534974
0.05440619
0.05351047
0.05265875
0.05184743
0.05107315
0.0503328
0.04962356
0.04894281
0.04828821
0.04765752
0.0470488
0.04646022
0.04589015
0.04533703
0.04479951
0.04427625
0.04376609
0.04326793
0.04278081
0.04230385
0.04183625
0.0413774
0.04092701
0.04048501
0.04005134
0.0396259
0.03920861
0.03879954
0.03839879
0.0380065
0.03762284
0.03724804
0.03688228
0.03652579
0.03617875
0.03584132
0.03551364
0.03519574
0.03488765
0.03458927
0.03430049
0.03402109
0.03375082
0.03348937
0.03323638
0.03299146
0.03275421
0.03252419
0.032301
0.03208422
0.03187347
0.03166839
0.03146864
0.03127396
0.03108411
0.0308989
0.03071819
0.03054189
0.03036992
0.03020225
0.03003885
0.02987968
0.0297247
0.02957383
0.02942697
0.02928404
0.02914503
0.02901001
0.02887905
0.0287522
0.0286295
0.02851091
0.02839632
0.02828554
0.02817846
0.02807506
0.02797527
0.02787901
0.02778613
0.02769651
0.02761
0.02752647
0.02744574
0.02736764
0.02729198
0.02721859
0.02714727
0.02707784
0.02701013
0.02694396
0.02687917
0.0268156
0.02675311
0.02669156
0.02663083
0.02657081
0.02651139
0.02645249
0.02639404
0.02633595
0.02627817
0.02622065
0.02616334
0.02610618
0.02604915
0.0259922
0.02593529
0.02587841
0.0258215
0.02576454
0.02570748
0.0256503
0.02559294
0.02553536
0.02547751
0.02541934
0.0253608
0.02530183
0.02524237
0.02518235
0.02512172
0.02506041
0.02499834
0.02493546
0.02487169
0.02480695
0.02474118
0.0246743
0.02460624
0.02453693
0.0244663
0.02439429
0.02432084
0.0242459
0.02416942
0.02409138
0.02401174
0.0239305
0.02384766
0.02376322
0.02367721
0.02358966
0.0235006
0.02341006
0.02331806
0.02322463
0.02312974
0.02303339
0.02293555
0.02283622
0.02273536
0.02263314
0.02252966
0.02242539
0.02232095
0.02221794
0.02212788
0.001821705
0.007458243
0.01122405
0.01567499
0.0207247
0.02659446
0.03337873
0.04097113
0.04955286
0.05999749
0.07591016
0.08519165
0.09521277
0.1057107
0.116676
0.1280179
0.1396659
0.1515173
0.1634064
0.1752354
0.1870231
0.2002664
0.2135956
0.2268207
0.2398876
0.2527497
0.265359
0.2776943
0.2898145
0.3017024
0.3133431
0.3250473
0.3370979
0.3493104
0.3617363
0.3741739
0.3862931
0.3978049
0.4085912
0.4185838
0.42788
0.4367193
0.4452432
0.453535
0.4616208
0.4694787
0.4770467
0.484215
0.4908711
0.4968982
0.5021254
0.5063685
0.5093802
0.5106107
0.510189
0.5080703
0.5042024
0.4987881
0.4924096
0.4854043
0.4782247
0.4713552
0.4652837
0.4604327
0.4571738
0.4557452
0.4562901
0.4587935
0.4631299
0.4690291
0.4761679
0.4841465
0.4924994
0.5001973
0.5075706
0.5144812
0.5208054
0.5264375
0.531314
0.5353809
0.5385984
0.5410244
0.542702
0.5436565
0.5439554
0.543658
0.5428302
0.5415691
0.5399522
0.5379976
0.5356957
0.5330409