/*--------------------------------*- C++ -*----------------------------------*\
| =========                 |                                                 |
| \\      /  F ield         | foam-extend: Open Source CFD                    |
|  \\    /   O peration     | Version:     3.1                                |
|   \\  /    A nd           | Web:         http://www.extend-project.de       |
|    \\/     M anipulation  |                                                 |
\*---------------------------------------------------------------------------*/
FoamFile
{
    version     2.0;
    format      ascii;
    class       volScalarField;
    location    "10.5";
    object      p;
}
// * * * * * * * * * * * * * * * * * * * * * * * * * * * * * * * * * * * * * //

dimensions      [1 -1 -2 0 0 0 0];

internalField   nonuniform List<scalar> 
119952
(
7544.537
6493.732
6260.649
6320.479
6379.7
6155.81
6021.886
5906.539
5814.919
5747.489
5707.657
5692.814
5702.095
5732.788
5782.808
5849.341
5929.627
6021.668
6119.565
6168.323
6198.338
6191.422
6280.654
6500.118
6570.405
6658.436
6710.245
6772.423
6891.956
7951.305
5179.712
5192.847
5227.519
5247.97
5262.967
5272.523
5278.209
5282.236
5289.23
5291.858
5276.627
5307.28
5336.832
5379.379
5433.848
5499.225
5573.551
5654.219
5740.375
5858.112
5897.429
5957.261
6023.89
6080.505
6133.997
6182.85
6226.843
6265.685
6301.877
6321.158
6339.663
6352.957
6355.778
6349.866
6333.893
6306.919
6272.904
6262.885
6297.568
6109.605
5994.188
5960.537
5891.256
5783.133
5659.818
5561.909
5484.559
5430.832
5401.971
5397.511
5415.646
5454.29
5510.326
5579.821
5659.757
5744.241
5820.814
5887.53
5919.622
5979.24
6076.805
6187.001
6314.045
6387.408
6431.209
6467.422
6470.448
6424.909
6453.556
6508.727
6557.05
6603.432
6646.076
6684.068
6717.375
6745.999
6769.972
6789.358
6804.126
6814.105
6818.962
6818.25
6811.544
6798.559
6779.177
6753.429
6721.508
6683.751
6640.873
6594.325
6546.081
6497.808
6451.461
6409.715
6374.318
6347.221
6329.499
6322.197
6324.111
6334.147
6351.383
6374.917
6402.927
6430.092
6444.728
6431.549
6423.66
6454.094
6484.332
6511.263
6535.944
6558.245
6578.921
6598.888
6618.955
6639.496
6661.724
6686.554
6711.025
6734.592
6758.163
6781.552
6804.375
6826.599
6848.247
6868.885
6888.648
6907.506
6925.533
6942.856
6959.652
6976.123
6992.567
7009.475
7026.986
7045.688
7066.192
7089.574
7116.487
7148.698
7186.761
7233.906
7292.509
7361.754
7407.893
7325.066
7241.847
7267.425
7374.362
7384.384
7377.99
7386.46
7379.342
7373.725
7388.361
7408.476
7422.079
7428.372
7427.984
7422.943
7414.466
7404.225
7393.698
7383.908
7375.455
7368.618
7363.737
7392.896
7391.097
7391.843
7394.11
7397.815
7402.841
7409.073
7416.405
7424.759
7434.073
7444.307
7455.449
7467.482
7480.393
7494.158
7508.735
7524.043
7540.059
7556.694
7573.845
7591.389
7609.195
7627.118
7645.012
7662.729
7680.134
7697.078
7713.461
7729.166
7744.1
7758.195
7771.367
7783.537
7794.553
7804.092
7811.698
7823.25
7833.401
7842.579
7850.87
7858.423
7865.289
7871.523
7877.174
7882.293
7886.926
7891.117
7894.903
7898.321
7901.401
7904.173
7906.66
7908.884
7910.866
7912.623
7914.172
7915.527
7916.701
7917.708
7918.558
7919.264
7919.835
7920.279
7920.606
7920.824
7920.943
7920.971
7920.938
7920.82
7920.455
7896.892
7892.645
7888.084
7887.564
7886.706
7885.602
7884.645
7883.681
7882.653
7881.579
7880.454
7879.271
7878.026
7876.714
7875.334
7873.883
7872.36
7870.766
7869.1
7867.361
7865.549
7863.663
7861.703
7859.669
7857.56
7855.375
7853.115
7850.78
7848.369
7845.883
7843.322
7840.688
7837.982
7835.206
7832.361
7829.45
7826.478
7823.447
7820.365
7817.237
7814.076
7810.894
7807.716
7804.575
7801.454
7798.089
7794.129
7789.877
7785.748
7781.689
7777.647
7773.639
7769.559
7764.842
7757.496
7755.325
7751.802
7747.575
7743.423
7739.242
7735.056
7730.89
7726.744
7722.619
7718.51
7714.415
7710.339
7706.284
7702.248
7698.23
7694.232
7690.253
7686.296
7682.36
7678.448
7674.561
7670.701
7666.868
7663.065
7659.293
7655.554
7651.85
7648.181
7644.549
7640.955
7637.401
7633.887
7630.415
7626.986
7623.6
7620.259
7616.962
7613.712
7610.507
7607.348
7604.236
7601.169
7598.149
7595.175
7592.246
7589.363
7586.526
7583.733
7580.985
7578.279
7575.615
7572.992
7570.408
7567.862
7565.351
7562.874
7560.43
7558.014
7555.625
7553.26
7550.915
7548.587
7546.271
7543.963
7541.656
7539.346
7537.023
7534.68
7532.306
7529.888
7527.409
7524.85
7522.186
7519.386
7516.404
7513.178
7509.592
7505.527
7500.775
7494.945
7487.726
7480.604
7483.983
7518.318
6069.944
5959.441
5828.481
5704.253
5584.388
5470.401
5363.025
5262.278
5167.858
5054.199
4971.108
4895.216
4822.675
4755.999
4694.625
4637.887
4585.999
4538.608
4457.172
4437.629
4400.246
4374.103
4362.655
4359.937
4368.28
4387.963
4416.629
4455.478
4496.725
4538.383
4591.147
4644.024
4696.327
4747.255
4795.14
4839.136
4879.696
4918.552
4935.095
4952.942
4967.415
4974.551
4976.726
4975.617
4973.776
4974.426
4981.19
4991.012
5013.934
5049.068
5094.786
5152.338
5221.009
5298.368
5381.458
5468.108
5520.728
5606.224
5676.297
5743.289
5807.607
5866.978
5919.559
5964.511
6001.049
6030.371
6052.586
6065.428
6069.218
6063.782
6048.979
6024.456
5990.291
5948.079
5897.158
5829.359
5737.904
5631.107
5529.915
5430.487
5326.925
5225.663
5139.27
5074.884
5034.748
5018.847
5027.462
5057.712
5106.974
5171.506
5246.309
5327.031
5409.752
5489.243
5561.248
5630.815
5711.503
5803.401
5898.728
5986.731
6057.829
6109.864
6145.845
6168.969
6186.729
6212.63
6250.12
6292.198
6333.141
6369.105
6400.96
6428.683
6452.341
6471.797
6486.867
6497.311
6502.787
6502.873
6497.097
6485.117
6466.824
6442.231
6411.645
6375.469
6334.096
6288.274
6239.519
6189.963
6141.956
6097.583
6058.748
6027.262
6005.062
5993.134
5991.737
5999.479
6014.421
6034.201
6056.851
6080.36
6099.166
6114.341
6122.233
6137.666
6160.294
6185.389
6210.58
6235.444
6259.856
6283.185
6305.548
6327.808
6350.27
6372.984
6396.052
6419.26
6441.925
6464.314
6486.498
6508.462
6529.185
6549.502
6569.111
6587.823
6605.664
6622.694
6639.034
6654.872
6670.446
6686.021
6701.955
6718.736
6736.76
6756.68
6779.251
6805.033
6835.048
6869.523
6906.77
6947.85
6983.33
6998.264
6988.082
6976.207
6980.666
7027.595
7064.403
7063.443
7062.415
7071.525
7096.489
7126.125
7131.754
7125.963
7123.5
7122.387
7116.996
7107.238
7096.322
7085.365
7075.432
7067.018
7060.447
7056.429
7117.171
7115.843
7116.335
7118.807
7122.767
7128.028
7134.442
7141.891
7150.29
7159.585
7169.741
7180.738
7192.561
7205.252
7218.743
7233.009
7248.015
7263.71
7280.017
7296.839
7314.063
7331.56
7349.193
7366.821
7384.3
7401.493
7418.268
7434.507
7450.102
7464.961
7479.004
7492.162
7504.373
7515.595
7525.885
7535.656
7545.742
7555.571
7564.579
7572.891
7580.499
7587.449
7593.78
7599.536
7604.762
7609.5
7613.792
7617.676
7621.186
7624.355
7627.209
7629.773
7632.07
7634.118
7635.937
7637.542
7638.948
7640.169
7641.218
7642.106
7642.844
7643.444
7643.913
7644.262
7644.499
7644.633
7644.677
7644.641
7644.591
7645.099
7583.183
7583.364
7582.28
7580.728
7579.464
7578.496
7577.595
7576.632
7575.596
7574.505
7573.364
7572.166
7570.904
7569.572
7568.171
7566.7
7565.158
7563.545
7561.859
7560.102
7558.271
7556.368
7554.39
7552.339
7550.214
7548.013
7545.738
7543.388
7540.963
7538.463
7535.889
7533.243
7530.524
7527.736
7524.879
7521.956
7518.971
7515.928
7512.831
7509.686
7506.499
7503.275
7500.013
7496.695
7493.277
7489.69
7485.877
7481.887
7477.846
7473.81
7469.77
7465.707
7461.573
7457.224
7452.483
7447.911
7443.833
7439.911
7435.872
7431.704
7427.498
7423.308
7419.146
7415.003
7410.875
7406.766
7402.677
7398.609
7394.562
7390.536
7386.53
7382.546
7378.584
7374.645
7370.731
7366.843
7362.982
7359.15
7355.348
7351.578
7347.842
7344.139
7340.473
7336.845
7333.254
7329.704
7326.194
7322.726
7319.301
7315.919
7312.582
7309.29
7306.043
7302.843
7299.688
7296.58
7293.518
7290.503
7287.533
7284.61
7281.733
7278.901
7276.114
7273.37
7270.67
7268.012
7265.395
7262.817
7260.277
7257.773
7255.304
7252.866
7250.458
7248.076
7245.719
7243.383
7241.063
7238.757
7236.459
7234.163
7231.865
7229.555
7227.228
7224.872
7222.476
7220.024
7217.503
7214.887
7212.155
7209.263
7206.185
7202.854
7199.27
7195.443
7191.698
7188.68
7187.702
7189.487
7194.471
3351.495
3386.692
3440.574
3506.182
3585.627
3677.345
3781.056
3896.289
4022.593
4158.468
4285.838
4438.82
4598.12
4763.585
4934.104
5108.151
5283.659
5456.582
5630.069
5785.314
5944.02
6092.328
6227.559
6346.259
6445.584
6523.61
6578.636
6609.128
6621.297
6604.794
6564.507
6504.419
6426.538
6333.456
6227.748
6112.26
5990.216
5864.735
5726.468
5598.875
5470.409
5345.481
5225.419
5111.332
5004.122
4904.312
4812.374
4727.234
4646.071
4573.569
4505.011
4441.577
4382.843
4328.648
4279.69
4239.689
4114.653
4079.782
4056.103
4039.515
4030.954
4032.807
4046.199
4070.466
4104.458
4147.016
4196.324
4249.654
4304.942
4361.107
4416.718
4470.039
4519.486
4563.689
4601.55
4631.861
4653.753
4666.901
4671.937
4669.996
4662.673
4652.346
4642.236
4635.927
4636.699
4647.539
4670.28
4706.016
4755.449
4818.17
4892.503
4974.891
5063.728
5158.713
5259.073
5351.634
5433.384
5509.803
5582.481
5649.46
5708.404
5758.333
5798.766
5829.123
5849.02
5858.534
5858.05
5846.891
5824.532
5790.665
5744.643
5685.938
5613.722
5528.7
5429.068
5313.232
5194.896
5081.452
4973.217
4873.092
4789.884
4730.493
4696.618
4687.566
4702.563
4740.555
4798.151
4870.322
4951.898
5038.515
5126.089
5212.427
5296.395
5376.985
5461.488
5551.952
5640.411
5723.537
5797.919
5858.804
5907.177
5947.386
5981
6012.042
6046.972
6084.976
6121.734
6154.238
6181.962
6205.22
6224.626
6240.062
6251.245
6257.773
6259.22
6255.266
6245.466
6229.465
6207.26
6178.998
6145.129
6106.197
6062.406
6014.235
5963.128
5911.377
5861.608
5816.436
5777.691
5746.833
5725.895
5716.357
5718.159
5729.765
5748.412
5771.104
5795.128
5818.32
5839.944
5859.567
5874.579
5891.396
5913.801
5939.313
5965.247
5990.699
6015.842
6040.772
6065.442
6089.701
6113.713
6137.23
6160.474
6183.605
6206.286
6228.373
6249.908
6270.864
6291.071
6310.59
6329.2
6346.867
6363.599
6379.481
6394.616
6409.15
6423.328
6437.457
6451.869
6467.019
6483.357
6501.302
6521.445
6544.294
6569.86
6598.067
6628.192
6658.368
6686.187
6706.877
6709.521
6706.578
6720.755
6754.257
6777.982
6791.384
6817.378
6836.276
6840.031
6844.188
6863.336
6888.1
6904.137
6896.408
6878.341
6862.348
6849.007
6837.412
6827.24
6818.956
6812.46
6808.014
6805.183
6805.863
6807.719
6810.984
6815.702
6821.659
6828.656
6836.574
6845.342
6854.918
6865.281
6876.431
6888.391
6901.129
6914.652
6928.936
6943.949
6959.639
6975.926
6992.714
7009.887
7027.316
7044.863
7062.384
7079.738
7096.787
7113.402
7129.468
7144.884
7159.563
7173.44
7186.472
7198.644
7209.991
7220.627
7230.75
7240.516
7249.844
7258.576
7266.663
7274.108
7280.932
7287.164
7292.843
7298.01
7302.704
7306.967
7310.832
7314.333
7317.498
7320.354
7322.924
7325.228
7327.285
7329.113
7330.727
7332.141
7333.37
7334.425
7335.318
7336.06
7336.661
7337.131
7337.478
7337.709
7337.835
7337.854
7337.783
7337.593
7337.386
7336.897
7335.962
7335.011
7334.229
7333.536
7332.819
7332.018
7331.118
7330.13
7329.069
7327.943
7326.752
7325.493
7324.163
7322.762
7321.289
7319.744
7318.128
7316.44
7314.679
7312.846
7310.94
7308.961
7306.909
7304.783
7302.583
7300.308
7297.959
7295.536
7293.038
7290.467
7287.823
7285.107
7282.32
7279.465
7276.543
7273.558
7270.511
7267.407
7264.248
7261.037
7257.772
7254.448
7251.05
7247.558
7243.947
7240.19
7236.289
7232.301
7228.283
7224.246
7220.172
7216.053
7211.931
7207.978
7203.922
7199.644
7195.272
7190.911
7186.591
7182.312
7178.075
7173.873
7169.7
7165.55
7161.421
7157.315
7153.232
7149.171
7145.132
7141.114
7137.119
7133.148
7129.2
7125.278
7121.382
7117.514
7113.675
7109.866
7106.09
7102.346
7098.637
7094.965
7091.329
7087.732
7084.174
7080.658
7077.182
7073.75
7070.361
7067.016
7063.716
7060.462
7057.253
7054.091
7050.975
7047.905
7044.882
7041.905
7038.975
7036.09
7033.252
7030.458
7027.709
7025.003
7022.34
7019.718
7017.136
7014.593
7012.086
7009.615
7007.177
7004.769
7002.389
7000.035
6997.704
6995.391
6993.093
6990.806
6988.524
6986.243
6983.956
6981.656
6979.334
6976.982
6974.587
6972.138
6969.618
6967.013
6964.305
6961.485
6958.554
6955.564
6952.63
6949.992
6947.948
6946.878
6947.233
6949.293
3192.335
3165.137
3137.363
3098.861
3075.447
3031.31
3029.691
3044.754
3072.21
3078.171
3065.391
3065.734
3084.309
3118.525
3167.285
3228.871
3302.874
3388.392
3485.491
3593.921
3712.372
3840.84
3978.544
4125.153
4279.723
4440.424
4605.972
4775.085
4946.06
5116.693
5286.152
5423.404
5585.959
5731.359
5862.41
5977.257
6072.536
6146.274
6197.168
6225.113
6230.462
6211.128
6167.929
6103.784
6021.805
5924.714
5815.658
5697.65
5574.028
5447.465
5319.202
5191.576
5066.363
4945.397
4830.026
4721.193
4619.515
4525.239
4438.228
4357.971
4283.671
4214.901
4150.999
4091.266
4035.174
3982.387
3932.846
3886.413
3842.42
3806.871
3780.385
3760.942
3750.692
3752.322
3766.952
3794.226
3832.688
3880.393
3935.531
3995.514
4058.508
4122.528
4185.374
4244.909
4299.42
4346.67
4386.05
4416.164
4435.558
4443.708
4441.42
4430.144
4411.887
4389.736
4367.897
4351.204
4343.818
4348.578
4367.589
4402.335
4452.99
4518.098
4596.059
4684.531
4782.1
4885.055
4989.197
5089.531
5183.921
5273.065
5357.002
5434.061
5502.053
5559.422
5605.273
5638.962
5660.099
5668.228
5664.109
5647.369
5617.426
5573.467
5514.556
5439.669
5348.38
5241.339
5119.517
4986.134
4850.378
4720.324
4600.075
4495.536
4414.829
4360.985
4332.877
4330.563
4353.425
4400.469
4467.274
4548.717
4639.042
4733.693
4829.622
4924.801
5017.282
5107.229
5198.518
5290.972
5380.485
5465.135
5542.372
5609.819
5668
5718.862
5763.478
5804.167
5843.785
5882.397
5917.75
5947.869
5972.359
5991.514
6006.874
6017.813
6024.577
6026.758
6023.637
6015.16
6000.945
5980.779
5954.577
5922.649
5885.674
5844.35
5798.037
5746.533
5691.375
5635.318
5581.756
5534.316
5494.366
5462.21
5440.442
5431.65
5435.894
5451.602
5475.524
5503.117
5530.651
5556.428
5580.114
5601.601
5620.721
5641.102
5664.692
5690.111
5716.206
5742.505
5768.699
5794.664
5820.583
5846.307
5871.995
5897.497
5922.599
5947.136
5970.832
5993.491
6015.168
6035.907
6055.654
6074.396
6092.056
6108.598
6124.114
6138.537
6152.149
6165.038
6177.435
6189.639
6201.993
6214.958
6228.856
6244.038
6261.065
6280.206
6301.45
6324.6
6348.943
6373.503
6396.551
6414.293
6423.638
6433.238
6451.226
6474.66
6499.378
6523.779
6545.693
6556.189
6564.274
6586.974
6617.365
6633.449
6632.047
6626.398
6623.627
6620.193
6608.488
6592.263
6578.388
6568.221
6561.644
6557.929
6556.451
6557.396
6560.043
6564.059
6569.35
6575.739
6583.054
6591.188
6600.084
6609.712
6620.061
6631.143
6642.99
6655.593
6668.936
6683.052
6697.908
6713.449
6729.598
6746.259
6763.317
6780.644
6798.101
6815.544
6832.832
6849.825
6866.393
6882.421
6897.809
6912.474
6926.357
6939.428
6951.682
6963.153
6973.931
6984.151
6993.906
7003.155
7011.823
7019.891
7027.341
7034.177
7040.432
7046.145
7051.356
7056.104
7060.427
7064.358
7067.93
7071.168
7074.097
7076.74
7079.115
7081.242
7083.136
7084.814
7086.288
7087.572
7088.679
7089.62
7090.406
7091.047
7091.552
7091.931
7092.188
7092.333
7092.365
7092.295
7092.1
7091.788
7091.321
7090.758
7090.148
7089.459
7088.689
7087.859
7086.975
7086.028
7085.015
7083.937
7082.797
7081.592
7080.321
7078.982
7077.572
7076.092
7074.541
7072.919
7071.226
7069.461
7067.623
7065.713
7063.731
7061.675
7059.546
7057.343
7055.066
7052.714
7050.289
7047.789
7045.215
7042.569
7039.85
7037.06
7034.2
7031.272
7028.278
7025.22
7022.1
7018.92
7015.679
7012.376
7009.006
7005.561
7002.028
6998.393
6994.643
6990.781
6986.836
6982.843
6978.819
6974.764
6970.691
6966.611
6962.517
6958.283
6953.956
6949.64
6945.372
6941.135
6936.914
6932.706
6928.518
6924.351
6920.204
6916.076
6911.967
6907.877
6903.809
6899.761
6895.735
6891.731
6887.751
6883.795
6879.865
6875.961
6872.085
6868.239
6864.423
6860.64
6856.89
6853.175
6849.495
6845.853
6842.25
6838.686
6835.163
6831.681
6828.243
6824.847
6821.496
6818.19
6814.929
6811.714
6808.546
6805.423
6802.348
6799.319
6796.337
6793.401
6790.512
6787.668
6784.87
6782.117
6779.407
6776.741
6774.117
6771.533
6768.989
6766.482
6764.012
6761.575
6759.17
6756.796
6754.448
6752.124
6749.821
6747.536
6745.265
6743.003
6740.746
6738.488
6736.224
6733.948
6731.652
6729.328
6726.97
6724.568
6722.119
6719.618
6717.079
6714.524
6712.021
6709.652
6707.592
6705.956
6705.029
6704.857
6705.813
3495.09
3458.067
3421.548
3359.747
3307.462
3219.923
3168.077
3116.077
3065.715
3016.748
2970.202
2927.733
2887.66
2851.864
2821.88
2797.182
2716.363
2708.509
2708.848
2712.522
2714.736
2720.272
2734.488
2760.203
2798.568
2849.296
2911.265
2985.448
3071.915
3169.929
3279.05
3398.709
3528.197
3666.696
3813.357
3967.332
4127.748
4293.362
4462.792
4634.345
4804.599
4970.638
5123.632
5279.571
5423.035
5553.681
5668.415
5763.754
5837.359
5887.686
5914.109
5916.993
5895.97
5851.666
5786.234
5702.898
5604.425
5494.495
5375.557
5251.115
5122.975
4992.465
4864.163
4740.801
4623.153
4511.766
4407.317
4310.302
4220.823
4138.601
4063.112
3993.538
3929.144
3868.982
3811.957
3757.222
3704.48
3653.694
3605.442
3560.652
3521.496
3489.08
3464.631
3450.8
3450.563
3465.512
3495.343
3538.653
3593.334
3657.059
3727.298
3801.488
3876.926
3950.944
4021.108
4084.752
4140.216
4184.691
4216.739
4235.1
4238.823
4227.563
4203.096
4168.488
4128.213
4088.167
4055.287
4035.159
4031.011
4044.312
4076.184
4126.592
4193.931
4276.779
4372.493
4478.047
4589.529
4703.355
4816.277
4925.834
5030.45
5128.746
5218.866
5298.757
5366.641
5421.097
5461.19
5486.359
5495.972
5489.709
5467.751
5429.954
5374.55
5299.825
5204.613
5088.391
4952.488
4801.017
4641.127
4482.289
4333.188
4202.228
4096.865
4017.588
3964.357
3938.89
3943.232
3977.298
4036.955
4116.626
4210.62
4312.619
4418.087
4524.18
4628.157
4728.877
4827.484
4925.884
5023.297
5117.45
5206.61
5289.02
5363.49
5430.39
5490.722
5545.288
5595.035
5640.618
5681.829
5717.612
5746.989
5769.874
5787.043
5798.053
5804.319
5805.818
5802.602
5794.475
5781.204
5762.329
5737.63
5706.855
5670.856
5630.804
5587.199
5536.582
5479.254
5418.191
5356.221
5297.593
5247.525
5205.69
5170.173
5146.037
5138.257
5147.338
5170.962
5201.576
5233.633
5265.101
5294.295
5320.26
5343.691
5365.483
5387.953
5412.932
5439.372
5465.621
5491.552
5518.084
5545.328
5573.149
5601.404
5629.511
5657.105
5684.117
5710.227
5735.223
5758.922
5781.246
5802.2
5821.773
5839.965
5856.794
5872.275
5886.396
5899.391
5911.19
5922.021
5932.109
5941.763
5951.508
5961.619
5972.602
5984.448
5997.934
6013.341
6030.639
6049.536
6069.534
6089.811
6108.846
6125.526
6140.217
6155.18
6173.315
6196.815
6222.417
6244.986
6264.109
6280.794
6300.976
6325.914
6345.779
6355.59
6362.252
6369.34
6370.294
6361.734
6348.941
6338.081
6330.395
6323.337
6316.388
6311.445
6309.064
6309.522
6312.452
6317.112
6323.012
6329.895
6337.595
6346.018
6355.127
6364.902
6375.342
6386.479
6398.357
6411.026
6424.3
6438.385
6453.219
6468.735
6484.86
6501.501
6518.545
6535.862
6553.314
6570.757
6588.046
6605.041
6621.611
6637.636
6653.016
6667.666
6681.536
6694.607
6706.873
6718.349
6729.1
6739.211
6748.761
6757.786
6766.286
6774.28
6781.706
6788.497
6794.7
6800.371
6805.556
6810.293
6814.618
6818.561
6822.153
6825.419
6828.381
6831.059
6833.471
6835.636
6837.568
6839.282
6840.791
6842.109
6843.248
6844.219
6845.032
6845.697
6846.225
6846.622
6846.896
6847.053
6847.095
6847.028
6846.844
6846.553
6846.163
6845.678
6845.086
6844.385
6843.606
6842.774
6841.895
6840.958
6839.954
6838.882
6837.745
6836.54
6835.267
6833.924
6832.511
6831.027
6829.471
6827.844
6826.146
6824.375
6822.532
6820.617
6818.629
6816.568
6814.433
6812.225
6809.942
6807.585
6805.154
6802.648
6800.069
6797.416
6794.69
6791.891
6789.022
6786.084
6783.077
6780.003
6776.864
6773.66
6770.391
6767.055
6763.649
6760.166
6756.601
6752.944
6749.192
6745.348
6741.429
6737.455
6733.442
6729.395
6725.319
6721.206
6717.044
6712.824
6708.576
6704.329
6700.093
6695.865
6691.642
6687.431
6683.235
6679.059
6674.901
6670.762
6666.64
6662.539
6658.458
6654.399
6650.361
6646.346
6642.356
6638.39
6634.45
6630.537
6626.653
6622.798
6618.975
6615.184
6611.426
6607.704
6604.017
6600.369
6596.759
6593.188
6589.659
6586.171
6582.725
6579.324
6575.967
6572.654
6569.387
6566.166
6562.992
6559.864
6556.783
6553.749
6550.761
6547.821
6544.927
6542.079
6539.277
6536.521
6533.809
6531.14
6528.514
6525.93
6523.385
6520.88
6518.411
6515.978
6513.579
6511.21
6508.871
6506.558
6504.268
6501.999
6499.747
6497.509
6495.281
6493.059
6490.838
6488.614
6486.383
6484.14
6481.882
6479.607
6477.318
6475.021
6472.736
6470.493
6468.351
6466.374
6464.681
6463.344
6462.556
6462.276
6462.827
3729.96
3691.039
3647
3589.863
3544.997
3465.374
3421.193
3375.951
3329.358
3282.024
3234.346
3186.371
3136.805
3086.677
3033.85
2911.981
2859.509
2808.171
2757.659
2708.593
2661.485
2617.247
2576.11
2538.702
2506.214
2479.309
2457.929
2443.715
2435.765
2432.587
2433.844
2441.836
2458.481
2485.155
2522.548
2571.5
2632.858
2706.005
2790.821
2887.099
2994.431
3112.232
3239.798
3376.306
3520.932
3672.888
3831.043
3994.073
4160.245
4327.637
4494.617
4659.948
4817.922
4970.774
5112.976
5241.471
5353.133
5444.961
5514.638
5560.699
5582.372
5579.982
5554.035
5505.711
5436.825
5350.788
5250.281
5139.24
5020.708
4896.104
4766.886
4636.74
4510.839
4391.515
4279
4173.384
4075.155
3984.716
3902.003
3826.453
3757.503
3694.271
3635.71
3580.428
3526.768
3473.497
3420.33
3367.886
3316.577
3266.659
3219.575
3178.165
3145.462
3125.089
3121.042
3136.218
3170.368
3221.439
3286.582
3363.097
3448.101
3538.353
3630.459
3721.077
3807.007
3884.96
3951.699
4004.182
4039.964
4056.799
4053.425
4029.714
3986.783
3928.277
3861.292
3794.894
3738.41
3699.579
3683.017
3689.634
3718.954
3770.507
3841.658
3931.43
4036.285
4152.606
4276.869
4405.427
4534.756
4661.632
4783.32
4897.838
5003.37
5097.894
5179.296
5245.502
5295.02
5326.781
5339.947
5334.122
5308.416
5261.8
5192.498
5098.287
4977.403
4829.45
4657.308
4468.236
4274.181
4088.588
3921.919
3783.562
3678.588
3601.019
3547.33
3522.548
3533.014
3579.291
3655.026
3753.076
3864.296
3979.815
4099.756
4218.744
4330.814
4438.219
4543.156
4647.336
4750.218
4850.204
4945.776
5035.316
5118.114
5194.23
5263.834
5327.098
5384.429
5435.855
5480.879
5518.789
5548.96
5571.326
5586.301
5594.318
5596.589
5593.672
5585.701
5572.551
5553.947
5529.71
5499.802
5464.357
5427.123
5386.469
5336.947
5277.709
5213.223
5145.743
5079.358
5020.415
4968.042
4918.896
4874.49
4846.5
4842.682
4860.343
4892.74
4929.101
4965.441
5001.306
5034.178
5062.193
5086.822
5109.794
5135.278
5162.533
5189.21
5215.076
5241.257
5268.372
5296.413
5325.148
5354.569
5384.508
5414.232
5443.417
5471.597
5498.363
5523.513
5546.948
5568.605
5588.474
5606.553
5622.865
5637.445
5650.32
5661.62
5671.444
5679.947
5687.376
5694.011
5700.605
5707.455
5714.9
5722.968
5732.625
5744.176
5757.666
5772.888
5789.508
5806.834
5823.952
5840.409
5856.264
5873.075
5893.242
5917.466
5942.725
5966.196
5989.183
6012.396
6034.37
6053.449
6069.102
6082.849
6096.469
6105.866
6106.702
6102.578
6097.553
6091.367
6083.489
6075.31
6069.336
6066.519
6065.869
6066.987
6069.724
6074.068
6079.695
6086.432
6094.12
6102.598
6111.797
6121.66
6132.168
6143.347
6155.223
6167.757
6181.225
6195.338
6210.171
6225.674
6241.776
6258.387
6275.396
6292.677
6310.092
6327.497
6344.748
6361.705
6378.238
6394.228
6409.577
6424.188
6438.003
6451.037
6463.292
6474.744
6485.425
6495.372
6504.665
6513.409
6521.648
6529.39
6536.629
6543.3
6549.392
6554.974
6560.091
6564.782
6569.079
6573.01
6576.601
6579.875
6582.852
6585.552
6587.989
6590.181
6592.142
6593.885
6595.423
6596.77
6597.935
6598.932
6599.769
6600.458
6601.006
6601.422
6601.713
6601.885
6601.941
6601.887
6601.723
6601.455
6601.087
6600.613
6600.032
6599.358
6598.614
6597.812
6596.952
6596.024
6595.025
6593.959
6592.824
6591.619
6590.344
6588.998
6587.582
6586.093
6584.533
6582.901
6581.196
6579.419
6577.57
6575.648
6573.652
6571.584
6569.441
6567.225
6564.934
6562.569
6560.128
6557.614
6555.024
6552.361
6549.624
6546.814
6543.931
6540.977
6537.954
6534.861
6531.7
6528.471
6525.173
6521.807
6518.368
6514.854
6511.261
6507.585
6503.826
6499.988
6496.08
6492.115
6488.105
6484.056
6479.969
6475.844
6471.684
6467.494
6463.28
6459.051
6454.818
6450.586
6446.361
6442.145
6437.944
6433.759
6429.591
6425.44
6421.308
6417.195
6413.102
6409.031
6404.982
6400.955
6396.954
6392.977
6389.027
6385.104
6381.21
6377.347
6373.515
6369.715
6365.95
6362.22
6358.526
6354.87
6351.253
6347.676
6344.14
6340.645
6337.194
6333.786
6330.423
6327.104
6323.832
6320.605
6317.425
6314.292
6311.206
6308.167
6305.175
6302.23
6299.333
6296.482
6293.677
6290.918
6288.204
6285.534
6282.908
6280.324
6277.781
6275.278
6272.813
6270.385
6267.992
6265.632
6263.304
6261.004
6258.73
6256.48
6254.251
6252.041
6249.846
6247.663
6245.49
6243.324
6241.163
6239.005
6236.85
6234.702
6232.567
6230.456
6228.392
6226.405
6224.543
6222.857
6221.436
6220.326
6219.657
6219.38
6219.774
3669.766
3632.569
3601.752
3554.443
3502.135
3451.591
3402.473
3356.003
3311.69
3266.686
3153.769
3109.355
3064.925
3019.484
2972.824
2925.107
2876.386
2826.39
2775.327
2723.999
2673.643
2621.828
2570.25
2519.173
2469.191
2420.703
2374.367
2330.332
2289.177
2251.997
2219.802
2194.03
2174.741
2161.55
2154.88
2155.328
2163.828
2181.405
2208.879
2246.851
2295.8
2356.229
2428.179
2511.593
2606.29
2711.88
2827.796
2953.349
3087.701
3230.042
3379.541
3534.471
3693.114
3854.979
4017.925
4181.395
4343.279
4499.559
4648.108
4785.838
4909.059
5014.526
5099.566
5161.979
5200.506
5214.508
5204.501
5171.39
5117.123
5043.653
4954.509
4853.245
4741.241
4621.212
4496.453
4369.371
4244.593
4125.423
4013.197
3908.32
3810.821
3721.061
3639.397
3565.694
3499.049
3438.661
3383.63
3332.554
3283.354
3233.721
3182.049
3127.783
3072.352
3015.324
2956.255
2897.338
2843.16
2798.13
2767.797
2758.303
2774.212
2815.589
2878.409
2958.455
3052.507
3157.358
3269.248
3383.964
3497.118
3604.352
3701.358
3784.049
3848.782
3890.922
3906.354
3892.907
3850.8
3781.922
3690.301
3585.761
3483.355
3397.393
3337.102
3305.274
3302.095
3328.131
3382.681
3462.183
3560.972
3676.616
3807.038
3948.233
4095.591
4244.61
4391.339
4532.605
4666.172
4790.081
4902.074
4999.643
5080.199
5141.627
5182.329
5200.785
5195.955
5166.276
5110.185
5025.497
4909.138
4758.225
4572.029
4355.295
4119.944
3884.51
3669.929
3489.187
3344.517
3232.81
3151.515
3100.265
3084.817
3107.917
3174.16
3270.626
3388.995
3525.043
3669.669
3805.267
3923.052
4035.598
4148.904
4258.262
4367.236
4475.511
4581.195
4682.9
4779.453
4870.494
4955.603
5034.107
5105.996
5171.166
5229.032
5278.88
5320.044
5351.953
5374.54
5388.449
5394.56
5394.075
5387.588
5375.285
5356.612
5331.852
5302.044
5268.805
5236.981
5201.867
5154.113
5090.291
5021.038
4953.043
4884.154
4820.872
4763.965
4702.76
4635.951
4577.992
4544.746
4546.024
4575.294
4615.328
4656.746
4699.549
4742.099
4777.802
4808.402
4835.751
4861.817
4888.641
4914.089
4938.596
4963.404
4989.587
5017.077
5045.776
5075.718
5106.759
5138.432
5169.976
5200.932
5231.076
5259.878
5286.848
5311.777
5334.54
5355.069
5373.376
5389.502
5403.489
5415.328
5425.004
5432.733
5438.728
5443.27
5446.653
5449.81
5453.028
5456.113
5460.255
5465.59
5473.067
5482.768
5494.494
5508.292
5523.679
5539.565
5555.324
5571.385
5589.613
5611.436
5636.735
5664.04
5691.074
5716.797
5740.495
5761.516
5781.314
5800.444
5817.376
5830.625
5839.059
5843.123
5845.719
5846.501
5843.915
5839.411
5835.2
5831.571
5828.929
5827.797
5828.367
5831.155
5835.899
5841.595
5848.101
5855.442
5863.594
5872.53
5882.139
5892.427
5903.427
5915.159
5927.641
5940.88
5954.878
5969.567
5984.924
6000.873
6017.323
6034.165
6051.273
6068.513
6085.744
6102.824
6119.614
6135.987
6151.827
6167.046
6181.541
6195.243
6208.154
6220.282
6231.598
6242.147
6251.963
6261.117
6269.675
6277.66
6285.097
6292.009
6298.403
6304.306
6309.753
6314.774
6319.396
6323.647
6327.551
6331.129
6334.403
6337.388
6340.102
6342.56
6344.776
6346.762
6348.533
6350.099
6351.473
6352.667
6353.69
6354.554
6355.267
6355.839
6356.278
6356.59
6356.782
6356.858
6356.824
6356.682
6356.435
6356.085
6355.633
6355.086
6354.452
6353.744
6352.968
6352.131
6351.21
6350.21
6349.149
6348.018
6346.816
6345.541
6344.195
6342.776
6341.284
6339.72
6338.082
6336.372
6334.588
6332.731
6330.801
6328.797
6326.719
6324.566
6322.34
6320.038
6317.661
6315.209
6312.681
6310.079
6307.401
6304.649
6301.823
6298.923
6295.95
6292.906
6289.791
6286.605
6283.35
6280.024
6276.628
6273.159
6269.616
6265.998
6262.304
6258.533
6254.691
6250.783
6246.819
6242.808
6238.755
6234.663
6230.537
6226.381
6222.197
6217.989
6213.764
6209.532
6205.3
6201.074
6196.856
6192.649
6188.456
6184.277
6180.116
6175.972
6171.846
6167.741
6163.657
6159.595
6155.557
6151.543
6147.555
6143.594
6139.66
6135.756
6131.883
6128.042
6124.233
6120.459
6116.721
6113.019
6109.356
6105.731
6102.147
6098.604
6095.103
6091.646
6088.232
6084.862
6081.539
6078.26
6075.029
6071.844
6068.706
6065.615
6062.572
6059.576
6056.628
6053.727
6050.873
6048.066
6045.306
6042.591
6039.921
6037.295
6034.713
6032.172
6029.673
6027.214
6024.792
6022.408
6020.058
6017.742
6015.457
6013.202
6010.974
6008.771
6006.591
6004.432
6002.292
6000.17
5998.064
5995.974
5993.902
5991.85
5989.822
5987.829
5985.885
5984.01
5982.233
5980.594
5979.134
5977.917
5976.976
5976.403
5976.152
5976.477
3422.744
3369.185
3253.85
3209.092
3163.33
3118.712
3075.434
3033.249
2991.667
2950.474
2909.836
2867.654
2824.367
2779.788
2733.939
2686.649
2637.938
2587.783
2536.215
2483.922
2432.396
2380.583
2328.569
2276.729
2225.187
2174.047
2124.278
2076.789
2032.341
1991.716
1956.42
1927.691
1905.675
1890.437
1882.458
1882.325
1890.701
1908.246
1935.574
1973.232
2021.613
2081.057
2151.744
2233.7
2326.765
2430.544
2544.496
2667.975
2799.981
2939.445
3084.697
3234.229
3387.638
3544.814
3704.305
3863.93
4021.044
4172.154
4314.195
4444.207
4558.769
4654.633
4729.341
4780.997
4808.702
4812.169
4792.439
4750.902
4690.141
4613.021
4520.595
4415.973
4302.1
4181.657
4059.962
3939.591
3823.258
3712.82
3609.514
3514.034
3426.505
3347.243
3276.222
3213.184
3157.606
3108.473
3064.515
3023.872
2983.079
2938.521
2888.402
2832.817
2773.884
2709.41
2637.815
2562.294
2487.996
2421.351