/*--------------------------------*- C++ -*----------------------------------*\
| =========                 |                                                 |
| \\      /  F ield         | foam-extend: Open Source CFD                    |
|  \\    /   O peration     | Version:     3.1                                |
|   \\  /    A nd           | Web:         http://www.extend-project.de       |
|    \\/     M anipulation  |                                                 |
\*---------------------------------------------------------------------------*/
FoamFile
{
    version     2.0;
    format      ascii;
    class       volScalarField;
    location    "10.5";
    object      pd;
}
// * * * * * * * * * * * * * * * * * * * * * * * * * * * * * * * * * * * * * //

dimensions      [1 -1 -2 0 0 0 0];

internalField   nonuniform List<scalar> 
119952
(
7575.232
6531.146
6297.443
6354.006
6410.413
6187.162
6053.851
5939.117
5848.11
5781.293
5742.074
5727.844
5737.738
5769.045
5819.677
5886.823
5967.723
6060.377
6158.887
6208.258
6233.626
6226.972
6316.462
6530.779
6601.067
6689.098
6740.907
6803.085
6922.651
7982
5470.198
5479.792
5511.196
5528.38
5540.109
5546.395
5548.817
5549.577
5553.303
5553.782
5552.533
5583.186
5612.738
5655.285
5709.754
5775.131
5849.457
5930.125
6016.281
6164.674
6203.992
6263.824
6330.452
6387.067
6440.559
6489.413
6533.405
6572.248
6608.44
6627.721
6646.225
6659.52
6662.341
6656.428
6640.455
6613.481
6579.467
6569.448
6604.131
6416.168
6300.75
6267.1
6197.819
6089.695
5966.381
5868.471
5791.121
5737.395
5708.534
5704.074
5722.209
5760.852
5816.889
5886.383
5966.319
6050.803
6127.376
6194.092
6226.184
6285.802
6383.367
6493.564
6620.607
6693.971
6737.771
6773.984
6777.011
6731.471
6760.119
6815.289
6863.612
6909.994
6952.639
6990.631
7023.938
7052.561
7076.535
7095.92
7110.688
7120.667
7125.524
7124.812
7118.106
7105.121
7085.739
7059.992
7028.07
6990.314
6947.436
6900.887
6852.644
6804.371
6758.023
6716.278
6680.881
6653.784
6636.062
6628.759
6630.674
6640.71
6657.945
6681.48
6709.489
6736.654
6751.29
6738.112
6730.222
6760.656
6790.894
6817.825
6842.506
6864.808
6885.484
6905.45
6925.518
6946.058
6968.287
6993.117
7017.587
7041.154
7064.726
7088.114
7110.937
7133.161
7154.809
7175.448
7195.21
7214.069
7232.096
7249.418
7266.215
7282.685
7299.129
7316.038
7333.549
7352.251
7372.755
7396.136
7423.05
7455.261
7493.323
7540.469
7599.071
7668.317
7714.456
7631.629
7548.41
7573.988
7680.925
7690.946
7684.553
7693.023
7685.904
7680.288
7694.923
7715.039
7728.642
7734.935
7734.546
7729.506
7721.028
7710.787
7700.26
7690.471
7682.018
7675.18
7670.299
7668.803
7667.004
7667.75
7670.016
7673.722
7678.747
7684.979
7692.312
7700.665
7709.98
7720.214
7731.355
7743.388
7756.3
7770.064
7784.642
7799.95
7815.965
7832.601
7849.751
7867.295
7885.101
7903.024
7920.918
7938.635
7956.041
7972.985
7989.368
8005.072
8020.007
8034.102
8047.273
8059.443
8070.459
8079.999
8087.605
8099.156
8109.307
8118.486
8126.776
8134.329
8141.195
8147.429
8153.08
8158.199
8162.832
8167.023
8170.809
8174.227
8177.307
8180.079
8182.566
8184.79
8186.773
8188.53
8190.078
8191.433
8192.607
8193.614
8194.464
8195.17
8195.741
8196.185
8196.512
8196.731
8196.849
8196.877
8196.843
8196.726
8196.362
8203.454
8199.207
8194.646
8194.127
8193.269
8192.164
8191.207
8190.243
8189.215
8188.142
8187.017
8185.833
8184.588
8183.277
8181.896
8180.445
8178.923
8177.329
8175.663
8173.924
8172.111
8170.225
8168.265
8166.231
8164.122
8161.938
8159.678
8157.342
8154.931
8152.445
8149.885
8147.25
8144.544
8141.768
8138.923
8136.013
8133.04
8130.009
8126.927
8123.8
8120.638
8117.456
8114.278
8111.138
8108.016
8104.651
8100.692
8096.439
8092.31
8088.251
8084.209
8080.202
8076.121
8071.404
8064.058
8061.888
8058.365
8054.137
8049.986
8045.804
8041.618
8037.452
8033.307
8029.182
8025.073
8020.977
8016.901
8012.846
8008.81
8004.793
8000.794
7996.816
7992.858
7988.923
7985.011
7981.124
7977.263
7973.431
7969.627
7965.856
7962.117
7958.412
7954.743
7951.111
7947.517
7943.963
7940.45
7936.977
7933.548
7930.163
7926.821
7923.525
7920.274
7917.069
7913.911
7910.798
7907.732
7904.711
7901.737
7898.809
7895.926
7893.088
7890.296
7887.547
7884.841
7882.178
7879.554
7876.97
7874.424
7871.913
7869.437
7866.992
7864.577
7862.188
7859.823
7857.478
7855.15
7852.834
7850.525
7848.219
7845.908
7843.586
7841.243
7838.868
7836.45
7833.971
7831.413
7828.749
7825.948
7822.967
7819.74
7816.155
7812.09
7807.337
7801.508
7794.289
7787.166
7790.546
7824.88
6603.786
6490.002
6355.775
6228.279
6105.147
5987.892
5877.25
5773.235
5675.71
5575.355
5492.264
5416.373
5343.832
5277.155
5215.781
5159.043
5107.155
5059.764
5008.984
4989.442
4952.059
4925.915
4914.467
4911.75
4920.092
4939.776
4968.442
5007.29
5048.538
5090.196
5142.96
5195.836
5248.14
5299.068
5346.953
5390.948
5431.509
5470.365
5486.907
5504.754
5519.228
5526.364
5528.538
5527.429
5525.588
5526.238
5533.003
5542.824
5565.746
5600.881
5646.598
5704.15
5772.821
5850.181
5933.271
6019.92
6133.853
6219.349
6289.422
6356.414
6420.732
6480.103
6532.684
6577.636
6614.174
6643.496
6665.711
6678.553
6682.343
6676.907
6662.104
6637.581
6603.416
6561.204
6510.283
6442.484
6351.029
6244.232
6143.04
6043.612
5940.049
5838.787
5752.394
5688.006
5647.867
5631.967
5640.584
5670.836
5720.099
5784.631
5859.434
5940.156
6022.877
6102.368
6174.373
6243.94
6324.628
6416.526
6511.853
6599.855
6670.954
6722.989
6758.97
6782.094
6799.854
6825.755
6863.245
6905.323
6946.266
6982.23
7014.085
7041.808
7065.466
7084.922
7099.992
7110.436
7115.912
7115.998
7110.222
7098.242
7079.949
7055.356
7024.77
6988.594
6947.221
6901.398
6852.643
6803.088
6755.081
6710.708
6671.873
6640.387
6618.187
6606.259
6604.862
6612.604
6627.546
6647.326
6669.976
6693.485
6712.29
6727.464
6735.356
6750.79
6773.419
6798.514
6823.705
6848.569
6872.981
6896.31
6918.673
6940.933
6963.395
6986.109
7009.177
7032.385
7055.05
7077.439
7099.623
7121.587
7142.31
7162.627
7182.236
7200.948
7218.789
7235.819
7252.159
7267.997
7283.571
7299.146
7315.08
7331.861
7349.885
7369.805
7392.376
7418.158
7448.173
7482.648
7519.895
7560.975
7596.455
7611.389
7601.207
7589.332
7593.791
7640.72
7677.528
7676.569
7675.54
7684.65
7709.614
7739.25
7744.879
7739.088
7736.625
7735.512
7730.121
7720.363
7709.448
7698.491
7688.557
7680.144
7673.572
7669.554
7668.984
7667.655
7668.148
7670.62
7674.579
7679.841
7686.255
7693.703
7702.103
7711.398
7721.553
7732.551
7744.374
7757.064
7770.556
7784.821
7799.827
7815.522
7831.83
7848.652
7865.875
7883.372
7901.006
7918.634
7936.113
7953.305
7970.08
7986.319
8001.914
8016.773
8030.817
8043.975
8056.186
8067.407
8077.698
8087.468
8097.554
8107.384
8116.391
8124.704
8132.311
8139.261
8145.593
8151.349
8156.574
8161.312
8165.604
8169.488
8172.999
8176.167
8179.021
8181.586
8183.882
8185.931
8187.75
8189.355
8190.761
8191.982
8193.03
8193.918
8194.657
8195.256
8195.726
8196.074
8196.311
8196.445
8196.489
8196.453
8196.403
8196.911
8196.308
8196.489
8195.405
8193.853
8192.589
8191.621
8190.72
8189.757
8188.721
8187.63
8186.489
8185.291
8184.028
8182.697
8181.296
8179.825
8178.283
8176.67
8174.984
8173.227
8171.396
8169.493
8167.515
8165.464
8163.339
8161.138
8158.863
8156.513
8154.088
8151.588
8149.014
8146.368
8143.649
8140.86
8138.004
8135.081
8132.096
8129.053
8125.956
8122.811
8119.624
8116.4
8113.138
8109.82
8106.402
8102.815
8099.002
8095.012
8090.97
8086.935
8082.895
8078.832
8074.698
8070.349
8065.608
8061.036
8056.958
8053.036
8048.997
8044.829
8040.623
8036.433
8032.271
8028.127
8024
8019.891
8015.802
8011.734
8007.687
8003.661
7999.655
7995.671
7991.709
7987.77
7983.856
7979.968
7976.107
7972.275
7968.473
7964.703
7960.967
7957.264
7953.598
7949.969
7946.379
7942.829
7939.319
7935.851
7932.426
7929.044
7925.707
7922.415
7919.168
7915.968
7912.813
7909.705
7906.643
7903.628
7900.658
7897.735
7894.858
7892.026
7889.239
7886.495
7883.795
7881.137
7878.52
7875.942
7873.402
7870.898
7868.428
7865.991
7863.583
7861.201
7858.844
7856.508
7854.188
7851.882
7849.584
7847.288
7844.99
7842.68
7840.353
7837.997
7835.601
7833.149
7830.628
7828.012
7825.28
7822.388
7819.31
7815.979
7812.395
7808.568
7804.823
7801.805
7800.827
7802.612
7807.596
4132.481
4164.136
4214.751
4277.092
4353.27
4441.716
4542.164
4654.129
4777.166
4910.892
5052.244
5205.226
5364.526
5529.991
5700.51
5874.557
6050.065
6222.988
6396.475
6582.377
6741.082
6889.391
7024.621
7143.322
7242.647
7320.673
7375.698
7406.19
7418.36
7401.856
7361.57
7301.481
7223.6
7130.518
7024.81
6909.323
6787.279
6661.798
6523.531
6395.937
6267.471
6142.544
6022.482
5908.394
5801.184
5701.374
5609.436
5524.296
5443.133
5370.631
5302.073
5238.639
5179.906
5125.71
5076.753
5036.751
4973.028
4938.157
4914.478
4897.89
4889.329
4891.182
4904.574
4928.841
4962.833
5005.391
5054.699
5108.029
5163.317
5219.482
5275.093
5328.414
5377.861
5422.064
5459.925
5490.236
5512.128
5525.276
5530.312
5528.371
5521.048
5510.721
5500.611
5494.302
5495.074
5505.914
5528.655
5564.391
5613.824
5676.545
5750.878
5833.266
5922.103
6017.088
6117.448
6210.009
6291.759
6368.178
6440.856
6507.835
6566.779
6616.708
6657.141
6687.498
6707.395
6716.909
6716.425
6705.266
6682.907
6649.04
6603.018
6544.313
6472.097
6387.075
6287.443
6171.607
6053.27
5939.804
5831.45
5731.005
5647.618
5588.249
5554.512
5545.769
5560.919
5598.929
5656.526
5728.697
5810.273
5896.889
5984.463
6070.802
6154.769
6235.359
6319.862
6410.326
6498.786
6581.912
6656.294
6717.179
6765.552
6805.761
6839.375
6870.417
6905.347
6943.351
6980.109
7012.613
7040.337
7063.595
7083.001
7098.437
7109.62
7116.148
7117.595
7113.641
7103.841
7087.84
7065.635
7037.373
7003.503
6964.566
6920.748
6872.526
6821.438
6769.729
6719.979
6674.811
6636.066
6605.207
6584.27
6574.731
6576.533
6588.135
6606.771
6629.404
6653.18
6676.21
6698.042
6717.89
6732.952
6749.771
6772.176
6797.688
6823.622
6849.074
6874.217
6899.147
6923.816
6948.075
6972.088
6995.605
7018.849
7041.98
7064.661
7086.748
7108.283
7129.239
7149.446
7168.965
7187.575
7205.242
7221.974
7237.856
7252.991
7267.525
7281.703
7295.832
7310.244
7325.394
7341.732
7359.677
7379.82
7402.669
7428.235
7456.442
7486.567
7516.743
7544.562
7565.252
7567.896
7564.953
7579.13
7612.632
7636.357
7649.759
7675.753
7694.651
7698.406
7702.563
7721.711
7746.475
7762.512
7754.783
7736.716
7720.723
7707.383
7695.787
7685.616
7677.331
7670.835
7666.389
7663.558
7664.238
7666.095
7669.359
7674.077
7680.034
7687.031
7694.949
7703.718
7713.293
7723.656
7734.806
7746.766
7759.504
7773.027
7787.311
7802.324
7818.014
7834.301
7851.089
7868.262
7885.691
7903.238
7920.759
7938.113
7955.162
7971.777
7987.843
8003.259
8017.938
8031.815
8044.847
8057.019
8068.366
8079.002
8089.125
8098.891
8108.219
8116.951
8125.038
8132.483
8139.307
8145.539
8151.218
8156.385
8161.08
8165.342
8169.207
8172.708
8175.873
8178.729
8181.299
8183.603
8185.66
8187.488
8189.102
8190.516
8191.745
8192.8
8193.693
8194.435
8195.036
8195.506
8195.853
8196.084
8196.21
8196.229
8196.159
8195.968
8195.761
8195.272
8194.337
8193.386
8192.604
8191.911
8191.194
8190.393
8189.493
8188.505
8187.444
8186.318
8185.127
8183.868
8182.538
8181.136
8179.664
8178.119
8176.503
8174.815
8173.054
8171.221
8169.315
8167.336
8165.284
8163.158
8160.958
8158.683
8156.334
8153.91
8151.413
8148.842
8146.198
8143.482
8140.695
8137.84
8134.918
8131.933
8128.886
8125.782
8122.623
8119.412
8116.147
8112.823
8109.425
8105.933
8102.322
8098.565
8094.664
8090.676
8086.658
8082.621
8078.547
8074.428
8070.306
8066.353
8062.297
8058.019
8053.647
8049.286
8044.966
8040.687
8036.45
8032.248
8028.075
8023.925
8019.796
8015.69
8011.607
8007.546
8003.507
7999.489
7995.494
7991.523
7987.575
7983.653
7979.757
7975.889
7972.05
7968.241
7964.465
7960.721
7957.012
7953.34
7949.704
7946.107
7942.549
7939.033
7935.557
7932.125
7928.736
7925.391
7922.091
7918.837
7915.628
7912.466
7909.35
7906.28
7903.257
7900.28
7897.35
7894.465
7891.627
7888.833
7886.084
7883.378
7880.715
7878.093
7875.511
7872.968
7870.461
7867.99
7865.551
7863.144
7860.764
7858.41
7856.079
7853.766
7851.468
7849.181
7846.899
7844.618
7842.331
7840.031
7837.709
7835.357
7832.962
7830.513
7827.993
7825.388
7822.68
7819.86
7816.929
7813.939
7811.005
7808.367
7806.323
7805.253
7805.608
7807.668
4209.539
4170.787
4139.539
4110.517
4087.103
4073.623
4072.003
4087.067
4114.523
4120.483
4107.703
4108.046
4126.621
4160.838
4209.597
4271.184
4345.186
4430.704
4527.804
4636.234
4754.685
4883.152
5020.856
5167.466
5322.035
5482.737
5648.284
5817.397
5988.373
6159.005
6328.465
6527.029
6689.584
6834.984
6966.035
7080.882
7176.161
7249.899
7300.793
7328.738
7334.087
7314.753
7271.554
7207.409
7125.43
7028.339
6919.283
6801.275
6677.653
6551.09
6422.827
6295.201
6169.988
6049.022
5933.651
5824.818
5723.14
5628.864
5541.853
5461.596
5387.296
5318.526
5254.623
5194.891
5138.799
5086.011
5036.471
4990.038
4946.045
4910.496
4884.01
4864.567
4854.317
4855.947
4870.577
4897.851
4936.312
4984.018
5039.156
5099.139
5162.133
5226.153
5288.999
5348.534
5403.045
5450.295
5489.675
5519.789
5539.183
5547.332
5545.045
5533.769
5515.512
5493.361
5471.522
5454.829
5447.443
5452.203
5471.214
5505.96
5556.615
5621.723
5699.684
5788.156
5885.724
5988.68
6092.822
6193.156
6287.546
6376.69
6460.627
6537.686
6605.678
6663.047
6708.898
6742.587
6763.724
6771.853
6767.734
6750.994
6721.051
6677.092
6618.181
6543.294
6452.005
6344.964
6223.142
6089.757
5953.978
5823.579
5699.39
5582.694
5500.809
5454.432
5434.478
5434.082
5457.048
5504.094
5570.897
5652.337
5742.655
5837.29
5933.187
6028.296
6120.713
6210.691
6302.096
6394.594
6484.11
6568.76
6645.997
6713.444
6771.625
6822.486
6867.103
6907.792
6947.41
6986.022
7021.375
7051.494
7075.984
7095.139
7110.499
7121.438
7128.202
7130.383
7127.262
7118.785
7104.57
7084.404
7058.2
7026.252
6989.084
6946.857
6899.496
6848.428
6794.387
6738.794
6685.225
6637.753
6597.77
6565.642
6543.976
6535.198
6539.358
6554.212
6572.626
6596.309
6628.625
6659.019
6683.685
6705.224
6724.346
6744.727
6768.315
6793.728
6819.79
6845.944
6872.06
6898.131
6924.178
6949.931
6975.62
7001.122
7026.224
7050.761
7074.457
7097.116
7118.793
7139.532
7159.279
7178.021
7195.681
7212.223
7227.739
7242.162
7255.774
7268.663
7281.06
7293.264
7305.618
7318.583
7332.481
7347.663
7364.69
7383.831
7405.075
7428.225
7452.568
7477.128
7500.176
7517.918
7527.263
7536.863
7554.851
7578.285
7603.003
7627.404
7649.318
7659.814
7667.899
7690.599
7720.99
7737.074
7735.672
7730.023
7727.252
7723.819
7712.113
7695.888
7682.013
7671.847
7665.27
7661.554
7660.076
7661.021
7663.668
7667.684
7672.976
7679.364
7686.679
7694.813
7703.71
7713.338
7723.686
7734.769
7746.615
7759.218
7772.561
7786.677
7801.533
7817.074
7833.223
7849.884
7866.942
7884.269
7901.726
7919.169
7936.457
7953.45
7970.018
7986.046
8001.434
8016.099
8029.982
8043.053
8055.307
8066.778
8077.556
8087.776
8097.531
8106.78
8115.448
8123.516
8130.966
8137.802
8144.057
8149.77
8154.981
8159.729
8164.052
8167.983
8171.555
8174.793
8177.722
8180.365
8182.74
8184.867
8186.761
8188.439
8189.913
8191.197
8192.304
8193.245
8194.031
8194.672
8195.177
8195.556
8195.813
8195.958
8195.99
8195.92
8195.725
8195.413
8194.946
8194.383
8193.773
8193.084
8192.314
8191.484
8190.6
8189.653
8188.64
8187.562
8186.422
8185.217
8183.946
8182.607
8181.197
8179.717
8178.166
8176.544
8174.851
8173.086
8171.248
8169.338
8167.356
8165.3
8163.171
8160.968
8158.691
8156.339
8153.914
8151.414
8148.84
8146.194
8143.475
8140.685
8137.825
8134.897
8131.903
8128.845
8125.725
8122.545
8119.304
8116.001
8112.631
8109.185
8105.653
8102.018
8098.268
8094.406
8090.461
8086.468
8082.444
8078.389
8074.316
8070.236
8066.142
8061.908
8057.581
8053.265
8048.997
8044.76
8040.538
8036.331
8032.143
8027.976
8023.829
8019.701
8015.592
8011.502
8007.434
8003.386
7999.36
7995.356
7991.376
7987.42
7983.49
7979.586
7975.71
7971.864
7968.048
7964.265
7960.515
7956.8
7953.12
7949.478
7945.875
7942.311
7938.788
7935.306
7931.868
7928.472
7925.121
7921.815
7918.554
7915.339
7912.171
7909.048
7905.973
7902.944
7899.962
7897.026
7894.137
7891.293
7888.495
7885.742
7883.032
7880.366
7877.742
7875.158
7872.614
7870.107
7867.637
7865.2
7862.795
7860.42
7858.073
7855.749
7853.446
7851.161
7848.89
7846.628
7844.371
7842.113
7839.849
7837.573
7835.277
7832.953
7830.595
7828.193
7825.744
7823.243
7820.704
7818.149
7815.646
7813.277
7811.217
7809.581
7808.654
7808.482
7809.438
4763.436
4714.694
4667.151
4616.653
4564.368
4507.485
4455.64
4403.639
4353.278
4304.31
4257.765
4215.295
4175.222
4139.427
4109.442
4084.744
4065.238
4057.384
4057.723
4061.397
4063.611
4069.147
4083.363
4109.078
4147.443
4198.171
4260.14
4334.323
4420.79
4518.804
4627.925
4747.584
4877.072
5015.571
5162.232
5316.207
5476.623
5642.237
5811.667
5983.22
6153.474
6319.513
6472.507
6628.446
6771.91
6902.556
7017.29
7112.629
7186.234
7236.561
7262.984
7265.868
7244.845
7200.54
7135.109
7051.773
6953.3
6843.37
6724.432
6599.99
6471.85
6341.34
6213.038
6089.676
5972.027
5860.641
5756.192
5659.177
5569.698
5487.476
5411.987
5342.413
5278.019
5217.857
5160.831
5106.097
5053.355
5002.568
4954.316
4909.527
4870.371
4837.955
4813.506
4799.675
4799.438
4814.387
4844.218
4887.528
4942.209
5005.934
5076.173
5150.363
5225.801
5299.819
5369.983
5433.627
5489.091
5533.566
5565.614
5583.975
5587.698
5576.438
5551.971
5517.363
5477.088
5437.042
5404.162
5384.034
5379.886
5393.187
5425.059
5475.467
5542.806
5625.654
5721.368
5826.922
5938.404
6052.23
6165.152
6274.709
6379.325
6477.621
6567.741
6647.632
6715.516
6769.972
6810.065
6835.234
6844.847
6838.584
6816.626
6778.829
6723.425
6648.7
6553.488
6437.266
6301.363
6149.891
5989.982
5830.86
5678.715
5517.606
5373.728
5299.378
5288.029
5285.128
5292.057
5326.172
5385.828
5465.48
5559.394
5661.123
5765.664
5869.454
5972.521
6075.284
6175.987
6274.746
6372.172
6466.325
6555.485
6637.894
6712.362
6779.255
6839.587
6894.159
6943.91
6989.493
7030.704
7066.487
7095.864
7118.749
7135.918
7146.928
7153.194
7154.693
7151.477
7143.35
7130.079
7111.204
7086.491
7055.511
7017.126
6966.937
6914.2
6871.064
6824.474
6766.22
6702.573
6635.82
6581.451
6542.138
6514.104
6493.944
6485.096
6479.665
6472.792
6508.921
6566.924
6611.912
6643.091
6669.129
6692.558
6714.328
6736.642
6760.566
6782.685
6808.346
6837.642
6866.591
6894.181
6922.023
6950.279
6978.386
7005.98
7032.992
7059.102
7084.098
7107.797
7130.121
7151.074
7170.648
7188.84
7205.669
7221.15
7235.271
7248.266
7260.065
7270.896
7280.984
7290.638
7300.383
7310.494
7321.477
7333.323
7346.809
7362.216
7379.514
7398.411
7418.409
7438.686
7457.721
7474.4
7489.091
7504.051
7522.176
7545.667
7571.275
7593.857
7612.983
7629.669
7649.851
7674.789
7694.654
7704.465
7711.127
7718.215
7719.169
7710.61
7697.816
7686.956
7679.27
7672.213
7665.263
7660.32
7657.939
7658.397
7661.327
7665.987
7671.887
7678.77
7686.47
7694.893
7704.002
7713.777
7724.217
7735.354
7747.233
7759.901
7773.175
7787.26
7802.094
7817.61
7833.735
7850.376
7867.42
7884.737
7902.189
7919.632
7936.921
7953.917
7970.486
7986.511
8001.891
8016.541
8030.411
8043.482
8055.748
8067.224
8077.975
8088.086
8097.636
8106.661
8115.161
8123.155
8130.581
8137.372
8143.575
8149.246
8154.431
8159.168
8163.493
8167.437
8171.028
8174.294
8177.256
8179.934
8182.346
8184.511
8186.443
8188.157
8189.666
8190.984
8192.123
8193.094
8193.907
8194.573
8195.1
8195.497
8195.771
8195.928
8195.97
8195.903
8195.719
8195.428
8195.038
8194.553
8193.961
8193.261
8192.481
8191.649
8190.771
8189.833
8188.829
8187.758
8186.62
8185.415
8184.142
8182.799
8181.386
8179.902
8178.346
8176.719
8175.021
8173.25
8171.407
8169.492
8167.504
8165.443
8163.308
8161.1
8158.817
8156.46
8154.029
8151.523
8148.944
8146.291
8143.565
8140.766
8137.897
8134.959
8131.952
8128.878
8125.739
8122.535
8119.266
8115.93
8112.524
8109.041
8105.476
8101.819
8098.067
8094.223
8090.304
8086.33
8082.317
8078.27
8074.194
8070.081
8065.919
8061.699
8057.451
8053.204
8048.968
8044.739
8040.517
8036.306
8032.11
8027.934
8023.776
8019.637
8015.515
8011.414
8007.333
8003.274
7999.236
7995.221
7991.231
7987.265
7983.325
7979.412
7975.528
7971.673
7967.85
7964.058
7960.301
7956.579
7952.892
7949.244
7945.634
7942.063
7938.533
7935.046
7931.6
7928.199
7924.841
7921.529
7918.262
7915.041
7911.867
7908.739
7905.658
7902.623
7899.636
7896.696
7893.802
7890.954
7888.152
7885.396
7882.684
7880.015
7877.389
7874.805
7872.26
7869.755
7867.286
7864.853
7862.454
7860.085
7857.746
7855.433
7853.143
7850.874
7848.622
7846.384
7844.156
7841.934
7839.713
7837.489
7835.258
7833.015
7830.757
7828.482
7826.192
7823.896
7821.611
7819.368
7817.226
7815.249
7813.556
7812.219
7811.431
7811.151
7811.702
5237.595
5187.125
5139.638
5092.019
5047.153
4998.187
4954.005
4908.763
4862.17
4814.836
4767.159
4719.184
4669.617
4619.489
4566.663
4506.106
4453.634
4402.296
4351.784
4302.718
4255.61
4211.372
4170.235
4132.827
4100.339
4073.434
4052.054
4037.84
4029.89
4026.712
4027.97
4035.961
4052.606
4079.28
4116.673
4165.625
4226.983
4300.13
4384.946
4481.224
4588.556
4706.357
4833.923
4970.431
5115.057
5267.013
5425.168
5588.198
5754.37
5921.762
6088.742
6254.073
6412.047
6564.899
6707.101
6835.596
6947.258
7039.086
7108.763
7154.824
7176.497
7174.107
7148.16
7099.836
7030.95
6944.913
6844.406
6733.365
6614.833
6490.229
6361.011
6230.865
6104.964
5985.64
5873.125
5767.509
5669.28
5578.841
5496.128
5420.578
5351.628
5288.396
5229.835
5174.553
5120.893
5067.622
5014.455
4962.011
4910.702
4860.784
4813.7
4772.29
4739.587
4719.214
4715.167
4730.343
4764.493
4815.564
4880.707
4957.222
5042.226
5132.478
5224.584
5315.202
5401.132
5479.085
5545.824
5598.307
5634.089
5650.924
5647.55
5623.839
5580.908
5522.402
5455.417
5389.019
5332.534
5293.701
5277.133
5283.738
5313.057
5364.619
5435.78
5525.555
5630.41
5746.731
5870.994
5999.552
6128.881
6255.757
6377.445
6491.963
6597.495
6692.019
6773.421
6839.627
6889.145
6920.906
6934.072
6928.247
6902.541
6855.925
6786.623
6692.412
6571.527
6423.558
6251.392
6062.319
5868.194
5681.581
5496.232
5294.106
5187.609
5112.114
5107.661
5112.542
5127.038
5173.415
5249.146
5347.01
5455.656
5553.343
5644.17
5766.518
5906.976
6030.49
6137.235
6241.46
6344.343
6444.326
6539.879
6629.329
6712.043
6788.249
6857.941
6921.222
6978.554
7029.98
7075.004
7112.914
7143.085
7165.45
7180.425
7188.443
7190.714
7187.797
7179.826
7166.676
7148.071
7123.805
7093.236
7047.527
6958.886
6866.423
6868.162
6859.214
6805.817
6735.991
6645.531
6477.232
6413.642
6448.199
6461.998
6436.773
6398.027
6356.407
6422.01
6507.142
6557.931
6595.373
6628.281
6656.263
6680.486
6698.142
6687.017
6702.583
6753.159
6804.124
6835.021
6862.482
6890.538
6919.273
6948.694
6978.633
7008.357
7037.542
7065.722
7092.487
7117.636
7141.071
7162.729
7182.598
7200.678
7216.99
7231.57
7244.445
7255.745
7265.569
7274.072
7281.501
7288.136
7294.73
7301.58
7309.025
7317.093
7326.75
7338.301
7351.791
7367.013
7383.633
7400.959
7418.075
7434.515
7450.291
7466.91
7487.067
7511.465
7536.835
7560.321
7583.308
7606.521
7628.495
7647.574
7663.227
7676.973
7690.593
7699.989
7700.825
7696.703
7691.678
7685.492
7677.614
7669.435
7663.461
7660.644
7659.994
7661.112
7663.849
7668.193
7673.82
7680.557
7688.245
7696.723
7705.922
7715.785
7726.293
7737.472
7749.348
7761.882
7775.35
7789.463
7804.296
7819.799
7835.901
7852.512
7869.521
7886.802
7904.217
7921.622
7938.873
7955.83
7972.363
7988.353
8003.702
8018.313
8032.128
8045.162
8057.417
8068.869
8079.55
8089.497
8098.79
8107.534
8115.773
8123.515
8130.754
8137.425
8143.517
8149.099
8154.216
8158.907
8163.204
8167.135
8170.726
8174
8176.977
8179.677
8182.114
8184.306
8186.267
8188.01
8189.549
8190.895
8192.06
8193.057
8193.894
8194.583
8195.131
8195.547
8195.838
8196.01
8196.066
8196.012
8195.848
8195.58
8195.212
8194.738
8194.157
8193.483
8192.739
8191.937
8191.077
8190.149
8189.15
8188.084
8186.949
8185.744
8184.469
8183.124
8181.707
8180.218
8178.658
8177.026
8175.321
8173.544
8171.695
8169.773
8167.777
8165.709
8163.566
8161.35
8159.059
8156.694
8154.254
8151.739
8149.149
8146.486
8143.749
8140.939
8138.056
8135.102
8132.079
8128.986
8125.825
8122.596
8119.298
8115.932
8112.493
8108.979
8105.386
8101.71
8097.951
8094.113
8090.204
8086.24
8082.23
8078.181
8074.094
8069.969
8065.809
8061.619
8057.405
8053.176
8048.943
8044.711
8040.485
8036.27
8032.069
8027.884
8023.716
8019.565
8015.433
8011.32
8007.227
8003.156
7999.106
7995.08
7991.078
7987.102
7983.152
7979.229
7975.335
7971.472
7967.64
7963.84
7960.075
7956.344
7952.651
7948.995
7945.378
7941.801
7938.265
7934.77
7931.319
7927.911
7924.547
7921.229
7917.957
7914.73
7911.55
7908.417
7905.331
7902.291
7899.3
7896.355
7893.458
7890.607
7887.802
7885.043
7882.329
7879.659
7877.033
7874.449
7871.906
7869.403
7866.938
7864.51
7862.117
7859.757
7857.429
7855.129
7852.855
7850.605
7848.376
7846.166
7843.971
7841.788
7839.615
7837.449
7835.288
7833.129
7830.975
7828.827
7826.691
7824.581
7822.517
7820.53
7818.668
7816.982
7815.561
7814.451
7813.782
7813.505
7813.899
5418.015
5410.631
5379.814
5332.505
5280.198
5229.653
5180.535
5134.065
5089.753
5044.748
4993.144
4948.73
4904.3
4858.859
4812.199
4764.482
4715.761
4665.765
4614.702
4563.374
4513.018
4461.203
4409.625
4358.548
4308.566
4260.078
4213.742
4169.707
4128.552
4091.372
4059.177
4033.405
4014.116
4000.925
3994.255
3994.703
4003.203
4020.78
4048.254
4086.226
4135.175
4195.604
4267.554
4350.968
4445.665
4551.255
4667.171
4792.724
4927.076
5069.417
5218.916
5373.846
5532.489
5694.354
5857.3
6020.77
6182.654
6338.934
6487.483
6625.213
6748.434
6853.901
6938.941
7001.354
7039.881
7053.883
7043.876
7010.765
6956.498
6883.027
6793.883
6692.619
6580.616
6460.587
6335.828
6208.746
6083.968
5964.798
5852.572
5747.695
5650.196
5560.436
5478.772
5405.069
5338.424
5278.036
5223.005
5171.929
5122.729
5073.096
5021.424
4967.158
4911.727
4854.699
4795.63
4736.713
4682.535
4637.505
4607.172
4597.678
4613.587
4654.964
4717.784
4797.83
4891.882
4996.733
5108.623
5223.339
5336.493
5443.727
5540.733
5623.424
5688.157
5730.297
5745.729
5732.282
5690.175
5621.297
5529.675
5425.134
5322.707
5236.585
5175.651
5142.623
5139.567
5166.392
5221.799
5301.539
5400.347
5515.991
5646.413
5787.608
5934.966
6083.985
6230.714
6371.98
6505.547
6629.456
6741.447
6839.015
6919.571
6981
7021.704
7040.16
7035.33
7005.651
6949.56
6864.871
6748.499
6597.3
6409.947
6192.667
5958.455
5723.212
5507.16
5301.745
5111.386
5025.424
4979.196
4936.148
4921.912
4945.85
5012.926
5109.764
5227.443
5331.921
5226.396
5336.138
5621.83
5857.502
5987.759
6097.629
6206.597
6314.794
6419.905
6520.182
6617.259
6709.444
6794.938
6873.481
6945.371
7010.541
7068.407
7118.255
7159.418
7191.323
7213.91
7227.822
7233.935
7233.45
7226.963
7214.66
7195.982
7171.11
7139.33
7087.405
6904.204
6792.954
6810.831
6889.071
6857.872
6790.651
6710.378
6467.649
6315.125
6278.826
6386.89
6409.594
6379.975
6366.536
6302.546
6390.321
6481.73
6537.935
6581.25
6616.829
6645.698
6641.922
6587.031
6612.543
6698.783
6767.936
6802.237
6828.956
6856.452
6885.151
6915.093
6946.134
6977.807
7009.351
7040.305
7070.441
7099.24
7126.215
7151.15
7173.914
7194.444
7212.751
7228.877
7242.863
7254.703
7264.379
7272.108
7278.102
7282.644
7286.028
7289.185
7292.403
7295.488
7299.63
7304.965
7312.442
7322.143
7333.869
7347.667
7363.052
7378.912
7394.402
7409.303
7427.418
7450.185
7476.037
7503.413
7530.449
7556.172
7579.87
7600.89
7620.681
7639.778
7656.673
7669.956
7678.426
7682.497
7685.094
7685.876
7683.29
7678.786
7674.575
7670.946
7668.304
7667.172
7667.742
7670.531
7675.274
7680.97
7687.476
7694.817
7702.969
7711.905
7721.514
7731.802
7742.802
7754.534
7767.016
7780.255
7794.253
7808.942
7824.299
7840.248
7856.698
7873.54
7890.648
7907.888
7925.119
7942.199
7958.99
7975.362
7991.202
8006.421
8020.916
8034.618
8047.529
8059.657
8070.973
8081.522
8091.338
8100.492
8109.05
8117.035
8124.472
8131.384
8137.778
8143.681
8149.128
8154.149
8158.771
8163.022
8166.926
8170.504
8173.778
8176.763
8179.477
8181.935
8184.151
8186.137
8187.908
8189.474
8190.848
8192.042
8193.065
8193.929
8194.642
8195.214
8195.653
8195.965
8196.157
8196.233
8196.199
8196.057
8195.81
8195.46
8195.008
8194.461
8193.827
8193.119
8192.343
8191.506
8190.585
8189.585
8188.524
8187.393
8186.191
8184.916
8183.57
8182.151
8180.659
8179.095
8177.457
8175.747
8173.963
8172.106
8170.176
8168.172
8166.094
8163.942
8161.715
8159.413
8157.036
8154.584
8152.056
8149.454
8146.776
8144.024
8141.198
8138.298
8135.325
8132.281
8129.166
8125.98
8122.725
8119.399
8116.003
8112.534
8108.992
8105.373
8101.679
8097.908
8094.066
8090.158
8086.194
8082.183
8078.13
8074.038
8069.912
8065.756
8061.572
8057.364
8053.139
8048.907
8044.675
8040.449
8036.231
8032.024
8027.83
8023.652
8019.491
8015.347
8011.221
8007.116
8003.032
7998.97
7994.932
7990.918
7986.93
7982.968
7979.035
7975.131
7971.258
7967.417
7963.608
7959.834
7956.095
7952.394
7948.73
7945.106
7941.522
7937.979
7934.478
7931.021
7927.606
7924.237
7920.913
7917.635
7914.403
7911.219
7908.081
7904.99
7901.947
7898.951
7896.002
7893.101
7890.247
7887.441
7884.68
7881.966
7879.296
7876.67
7874.088
7871.547
7869.048
7866.589
7864.167
7861.783
7859.433
7857.117
7854.832
7852.577
7850.349
7848.146
7845.966
7843.807
7841.667
7839.545
7837.439
7835.349
7833.277
7831.225
7829.197
7827.204
7825.259
7823.385
7821.607
7819.968
7818.509
7817.292
7816.351
7815.778
7815.527
7815.851
5415.397
5392.497
5338.475
5293.717
5247.955
5203.337
5160.059
5117.874
5076.292
5035.099
4994.461
4952.279
4908.992
4864.413
4818.564
4771.274
4722.563
4672.408
4620.84
4568.547
4517.021
4465.208
4413.194
4361.354
4309.812
4258.672
4208.903
4161.414
4116.966
4076.341
4041.045
4012.316
3990.3
3975.062
3967.083
3966.95
3975.326
3992.871
4020.199
4057.858
4106.238
4165.682
4236.369
4318.326
4411.39
4515.169
4629.121
4752.6
4884.606
5024.07
5169.322
5318.854
5472.263
5629.439
5788.93
5948.555
6105.669
6256.779
6398.82
6528.832
6643.394
6739.258
6813.966
6865.622
6893.327
6896.794
6877.064
6835.527
6774.766
6697.645
6605.219
6500.597
6386.724
6266.282
6144.587
6024.216
5907.883
5797.445
5694.139
5598.659
5511.13
5431.868
5360.847
5297.809
5242.231
5193.098
5149.14
5108.497
5067.704
5023.146
4973.027
4917.442
4858.509
4794.035
4722.44
4646.919
4572.621