/*--------------------------------*- C++ -*----------------------------------*\
| =========                 |                                                 |
| \\      /  F ield         | foam-extend: Open Source CFD                    |
|  \\    /   O peration     | Version:     3.1                                |
|   \\  /    A nd           | Web:         http://www.extend-project.de       |
|    \\/     M anipulation  |                                                 |
\*---------------------------------------------------------------------------*/
FoamFile
{
    version     2.0;
    format      ascii;
    class       surfaceScalarField;
    location    "10.5";
    object      phi;
}
// * * * * * * * * * * * * * * * * * * * * * * * * * * * * * * * * * * * * * //

dimensions      [0 3 -1 0 0 0 0];

internalField   nonuniform List<scalar> 
275122
(
-0.0003116529
0.0003194008
-2.853771e-07
-7.462537e-06
-0.0002919185
0.0002823098
1.041082e-06
8.567611e-06
-0.0003034889
0.0003149529
-3.433521e-07
-1.112066e-05
-0.0003549752
0.0003677571
-2.353309e-07
-1.254664e-05
-0.000401445
0.0004083303
-2.872719e-07
-6.59798e-06
-0.0004175424
0.0004191886
-2.914512e-07
-1.354779e-06
-0.0004234498
0.000424185
-2.561156e-07
-4.790853e-07
-0.0004249475
0.0004245972
-2.335906e-07
5.839156e-07
-0.0004221314
0.0004209119
-2.057012e-07
1.425139e-06
-0.0004161102
0.0004141425
-1.930314e-07
2.16071e-06
-0.0004073816
0.0004047606
-1.722308e-07
2.793185e-06
-0.0003959312
0.0003926127
-1.608158e-07
3.479373e-06
-0.0003817154
0.0003777325
-1.510323e-07
4.133954e-06
-0.000364927
0.00036036
-1.42455e-07
4.709431e-06
-0.0003459308
0.0003408713
-1.326681e-07
5.192179e-06
-0.0003250639
0.0003195719
-1.22949e-07
5.615029e-06
-0.0003025119
0.0002964925
-1.083053e-07
6.127704e-06
-0.000277703
0.0002708807
-6.644347e-08
6.888764e-06
-0.000248703
0.0002397434
6.697346e-08
8.892632e-06
-0.0002109765
0.0001963756
3.817396e-07
1.421912e-05
-0.0001715651
0.0001677907
-1.596514e-06
5.370841e-06
-0.0001561568
0.0001563372
-1.72998e-07
-7.474221e-09
-0.0001611607
0.0001625274
-1.551202e-07
-1.211554e-06
-0.0001801019
0.0001867156
9.146228e-08
-6.705143e-06
-0.0001896533
0.0001905544
2.01431e-07
-1.102501e-06
-0.000194538
0.0001954101
-5.699289e-08
-8.151464e-07
-0.0001964572
0.0001962024
-8.076459e-08
3.35595e-07
-0.0001942739
0.0001927399
-6.529763e-08
1.599295e-06
-0.0001825537
0.0001714213
-5.515142e-08
1.118762e-05
-0.0001502421
0.000154198
3.890027e-09
-3.959804e-06
-0.0001917792
0.0002018614
-5.77192e-08
-1.002451e-05
-0.0002308045
0.0002404854
5.305122e-09
-9.686211e-06
-0.0002707689
0.0002813263
6.664484e-09
-1.056402e-05
-0.0003139425
0.000325285
6.55176e-09
-1.134906e-05
-0.0003605964
0.0003728086
6.159168e-09
-1.221837e-05
-0.0004104427
0.0004233602
6.157261e-09
-1.292365e-05
-0.0004628789
0.0004763476
5.52639e-09
-1.347423e-05
-0.0005172664
0.0005311171
5.702761e-09
-1.385639e-05
-0.0005729406
0.000586991
5.444303e-09
-1.405587e-05
-0.0006287579
0.000643013
1.881215e-07
-1.444318e-05
1.108168e-05
-0.0004370666
0.0004392221
3.20755e-10
-1.323746e-05
1.091312e-05
-0.0004456956
0.0004474908
-2.356268e-10
-1.27081e-05
1.079648e-05
-0.000451946
0.0004530665
-9.719261e-10
-1.191599e-05
1.052821e-05
-0.0004553718
0.0004557368
-1.104285e-09
-1.089217e-05
1.003685e-05
-0.0004558485
0.0004555908
-1.232551e-09
-9.777928e-06
9.229914e-06
-0.0004538646
0.0004529684
-1.141938e-09
-8.332521e-06
8.263542e-06
-0.0004495391
0.0004481134
-1.144814e-09
-6.836654e-06
7.168417e-06
-0.0004432134
0.0004413277
-9.323287e-10
-5.281738e-06
6.280327e-06
-0.000434644
0.000431317
-5.590523e-10
-2.95277e-06
3.298268e-06
-0.001740757
0.001724049
4.283858e-11
1.95943e-06
4.091945e-06
3.284138e-06
4.073933e-06
2.979224e-06
-0.00170345
0.001682035
3.830951e-11
9.318077e-06
3.078187e-06
2.97284e-06
3.066587e-06
2.366755e-06
-0.001660964
0.001640169
5.528476e-11
1.136557e-05
2.356383e-06
2.357887e-06
2.348919e-06
2.49544e-06
-0.001619083
0.001597773
6.220229e-11
1.106893e-05
2.631435e-06
2.48473e-06
2.628481e-06
3.371843e-06
-0.001576085
0.001555096
5.826869e-11
7.119343e-06
3.569452e-06
3.359509e-06
3.568157e-06
4.670307e-06
-0.001534685
0.00151576
1.286566e-11
-2.261267e-07
4.913627e-06
4.665556e-06
4.901003e-06
6.104434e-06
-0.00149773
0.001481785
-4.665736e-11
-8.905443e-06
6.326347e-06
6.099521e-06
6.320259e-06
7.667938e-06
-0.001467318
0.001455502
-1.424842e-10
-1.931267e-05
7.897454e-06
7.666649e-06
7.896978e-06
9.233571e-06
-0.001445456
0.001437889
-2.159801e-10
-2.98993e-05
9.514724e-06
9.218922e-06
9.498618e-06
1.006203e-05
-0.001430179
0.001429987
3.746273e-11
-4.08599e-05
1.046648e-05
1.00569e-05
1.046707e-05
1.19312e-05
-0.001430106
0.001431158
8.838224e-11
-4.921088e-05
1.215888e-05
1.193937e-05
1.212931e-05
1.333412e-05
-0.001434063
0.001440146
1.428739e-10
-5.96065e-05
1.338193e-05
1.337207e-05
1.343515e-05
1.457353e-05
-0.001447662
0.001457926
8.313473e-11
-6.90284e-05
1.47446e-05
1.463787e-05
1.480862e-05
1.608829e-05
-0.001469206
0.001483327
8.173504e-12
-7.899995e-05
1.629072e-05
1.614948e-05
1.635019e-05
1.766976e-05
-0.001498542
0.001516482
-2.560812e-11
-8.917659e-05
1.791275e-05
1.770712e-05
1.794689e-05
1.939264e-05
-0.001535473
0.001557009
-2.737871e-11
-9.962961e-05
1.966091e-05
1.938545e-05
1.965483e-05
2.133972e-05
-0.00157957
0.001604279
-2.068157e-11
-0.0001104432
2.166203e-05
2.120843e-05
2.152404e-05
2.412521e-05
-0.001629591
0.001654831
-1.621977e-11
-0.0001217405
2.479865e-05
2.350225e-05
2.407452e-05
2.821566e-05
-0.001677584
0.001696473
-1.541248e-11
-0.0001315871
2.995475e-05
2.677154e-05
2.775581e-05
8.068644e-05
-0.00170953
0.001754029
-1.557755e-11
-0.0001251857
7.563182e-05
-0.001805292
0.001838017
-2.149458e-11
-0.0001083572
9.393483e-05
-0.001863798
0.001889425
-2.795582e-11
-0.0001195617
8.665192e-05
-0.001915582
0.001941183
-3.162751e-11
-0.0001122528
6.877146e-05
-0.001966462
0.001992455
-3.086341e-11
-9.476485e-05
4.781906e-05
-0.002020221
0.002046411
-3.144276e-11
-7.400881e-05
3.651803e-05
-0.002070247
0.002091356
-2.945743e-11
-5.762629e-05
2.516252e-05
-0.002111014
0.002128021
-2.328221e-11
-4.21688e-05
1.454696e-05
-0.002143481
0.002156294
-1.655272e-11
-2.735956e-05
4.301656e-06
-0.002167547
0.002176276
-9.073598e-12
-1.303066e-05
-5.606956e-06
-0.00218325
0.002187556
-1.03342e-12
1.300806e-06
-1.594475e-05
-0.002190314
0.002190396
9.916842e-12
1.586268e-05
-2.635488e-05
-0.002188789
0.002184548
1.950905e-11
3.059629e-05
-3.660874e-05
-0.002178568
0.002170068
2.92483e-11
4.510866e-05
-4.624456e-05
-0.002159743
0.002147221
4.172907e-11
5.876637e-05
-5.494136e-05
-0.002133055
0.002116806
5.217294e-11
7.118952e-05
-6.463309e-05
-0.002099116
0.002080414
7.21365e-11
8.333535e-05
-7.432613e-05
-0.002059756
0.002039307
1.262486e-10
9.477549e-05
-8.619205e-05
-0.002020006
0.00199935
1.354438e-10
0.0001068481
-0.0001086274
-0.001977278
0.001960448
2.383507e-10
0.0001254572
-0.0001063632
-0.00194406
0.001924624
1.242735e-10
0.0001257987
-8.660752e-05
-0.001898797
0.001870266
1.343979e-10
0.0001151379
-7.117336e-05
-0.001834078
0.001798848
2.168662e-10
0.000106403
-4.886677e-05
-0.001755367
0.001708372
2.795127e-10
9.586186e-05
-5.252512e-05
-0.001663976
0.001620924
3.781088e-10
9.557686e-05
-5.079332e-05
-0.001576899
0.001531056
4.239036e-10
9.663575e-05
-4.618946e-05
-0.001485307
0.001440767
2.624288e-10
9.072876e-05
-4.447158e-05
-0.001399069
0.001362019
-6.048524e-11
8.152155e-05
-5.250269e-05
-0.001328171
0.001308495
-3.7566e-10
7.21795e-05
-8.4408e-06
-0.001296532
0.001272866
-5.477437e-10
5.33057e-05
-6.429254e-06
-8.368133e-06
-6.40156e-06
-3.407992e-06
-0.001254104
0.001240916
-5.397939e-10
2.595479e-05
-2.99685e-06
-3.379425e-06
-2.981839e-06
-8.044974e-07
-0.001229534
0.001221169
-4.757549e-10
1.092853e-05
-4.704039e-07
-8.083559e-07
-4.803919e-07
8.856028e-07
-0.00121489
0.001211421
-3.855128e-10
-5.018801e-07
1.120497e-06
8.656414e-07
1.100105e-06
2.118105e-06
-0.001209644
0.001210329
-2.888054e-10
-9.456222e-06
2.288482e-06
2.096689e-06
2.267431e-06
3.05475e-06
-0.001212219
0.001216076
-2.034619e-10
-1.628246e-05
3.177194e-06
3.035461e-06
3.158166e-06
3.709939e-06
-0.00122087
0.001227243
-1.384091e-10
-2.13369e-05
3.78994e-06
3.692103e-06
3.772615e-06
4.17921e-06
-0.001234374
0.001242804
-9.226272e-11
-2.523781e-05
4.240822e-06
4.16314e-06
4.224831e-06
4.543695e-06
-0.001251832
0.001262022
-6.113405e-11
-2.842705e-05
4.589589e-06
4.528568e-06
4.574652e-06
4.85652e-06
-0.001272732
0.001284543
-4.070136e-11
-3.129684e-05
4.899717e-06
4.842627e-06
4.886365e-06
5.176557e-06
-0.001296854
0.001310264
-2.66281e-11
-3.418549e-05
5.224164e-06
5.163381e-06
5.211165e-06
5.536831e-06
-0.001324182
0.001339195
-1.679624e-11
-3.724653e-05
5.592536e-06
5.524356e-06
5.579458e-06
5.937221e-06
-0.001354718
0.001371307
-9.949218e-12
-4.043332e-05
5.996259e-06
5.925724e-06
5.984957e-06
6.343842e-06
-0.001388392
0.001406461
-5.015091e-12
-4.353513e-05
6.399659e-06
6.333301e-06
6.38929e-06
6.711227e-06
-0.001424982
0.001444352
-1.601163e-12
-4.628728e-05
6.756946e-06
6.70131e-06
6.747123e-06
7.003249e-06
-0.001464102
0.001484539
7.818296e-13
-4.849474e-05
7.034901e-06
6.993839e-06
7.025621e-06
7.20291e-06
-0.001505273
0.001526537
1.824223e-12
-5.009185e-05
7.219558e-06
7.193963e-06
7.210716e-06
7.309801e-06
-0.001548027
0.001569915
1.889018e-12
-5.111532e-05
7.312754e-06
7.301272e-06
7.304305e-06
7.334397e-06
-0.00159197
0.001614294
7.236007e-13
-5.162587e-05
7.324557e-06
7.326173e-06
7.316412e-06
7.266479e-06
-0.001636736
0.001659272
-1.424358e-12
-5.153176e-05
7.239361e-06
7.258552e-06
7.231519e-06
7.057694e-06
-0.001681838
0.001704215
-3.874095e-12
-5.048172e-05
7.002322e-06
7.050047e-06
6.99472e-06
6.638452e-06
-0.001726461
0.001748121
-6.405243e-12
-4.800781e-05
6.542806e-06
6.630898e-06
6.535447e-06
5.962434e-06
-0.001769438
0.001789789
-8.402951e-12
-4.391563e-05
5.827033e-06
5.955228e-06
5.819948e-06
5.040409e-06
-0.001809594
0.001828191
-9.279327e-12
-3.838927e-05
4.862402e-06
5.033564e-06
4.855858e-06
3.904399e-06
-0.001846211
0.001862903
-9.463045e-12
-3.192966e-05
3.72047e-06
3.897964e-06
3.714353e-06
2.784057e-06
0.001893342
-1.038779e-11
-2.523222e-05
2.59926e-06
2.777787e-06
2.593536e-06
-0.001878864
1.613099e-06
-0.001907014
0.001919082
-9.535706e-12
-1.81086e-05
1.412867e-06
1.606536e-06
1.407673e-06
3.431868e-07
-0.001930234
0.001939485
-7.51097e-12
-1.024093e-05
1.557318e-07
3.39225e-07
1.518406e-07
-1.012466e-06
-0.001947611
0.001953616
-5.859148e-12
-1.487358e-06
-1.241686e-06
-1.016935e-06
-1.245975e-06
-2.536744e-06
-0.001958428
0.001960965
-5.254305e-12
8.157088e-06
-2.805486e-06
-2.541192e-06
-2.810536e-06
-4.112045e-06
-0.001962202
0.0019613
-4.518494e-12
1.787491e-05
-4.369323e-06
-4.11666e-06
-4.375118e-06
-5.547642e-06
-0.001959114
0.00195503
-3.317389e-12
2.672926e-05
-5.769174e-06
-5.551587e-06
-5.776063e-06
-6.751818e-06
-0.001949786
0.001942954
-8.845016e-13
3.420059e-05
-6.93085e-06
-6.749962e-06
-6.935875e-06
-7.773039e-06
-0.001935059
0.001925832
5.398785e-12
4.05892e-05
-7.934371e-06
-7.741312e-06
-7.91425e-06
-8.791748e-06
-0.001915709
0.00190474
1.747245e-11
4.623812e-05
-8.981716e-06
-8.652537e-06
-8.843706e-06
-1.028058e-05
-0.001893037
0.001880988
3.896809e-11
5.302384e-05
-1.068175e-05
-9.849779e-06
-1.016279e-05
-1.295496e-05
-0.001869459
0.001858302
8.161584e-11
6.256551e-05
-1.368471e-05
-1.206054e-05
-1.270838e-05
-1.818246e-05
-0.001847072
0.001837537
1.442883e-10
8.167352e-05
-1.988343e-05
-1.630726e-05
-1.776546e-05
-2.003035e-05
-0.001832723
0.001826762
1.234093e-10
8.58773e-05
-1.842855e-05
-2.100676e-05
-2.045086e-05
-1.376389e-05
-0.001813451
0.001794012
8.344793e-11
7.469866e-05
-1.288711e-05
-1.50001e-05
-1.360801e-05
-1.075216e-05
-0.001770468
0.00174439
8.281748e-11
6.857761e-05
-1.041382e-05
-1.090349e-05
-1.042977e-05
-8.95667e-06
-0.001716464
0.001686996
4.03135e-11
6.484297e-05
-8.664599e-06
-9.025191e-06
-8.728973e-06
-7.233628e-06
-0.001656192
0.001624563
-5.136474e-11
6.032509e-05
-6.998831e-06
-7.348136e-06
-7.115687e-06
-5.828595e-06
-0.001592728
0.001561396
-1.494099e-10
5.46631e-05
-5.677649e-06
-5.979638e-06
-5.845459e-06
-4.94088e-06
-0.0015312
0.001502676
-2.481808e-10
4.846814e-05
-4.880933e-06
-5.089421e-06
-5.032161e-06
-4.424759e-06
-0.001476096
0.001451679
-3.461553e-10
4.223672e-05
-4.386343e-06
-4.528889e-06
-4.480071e-06
-3.97206e-06
-0.0014293
0.001409079
-4.214618e-10
3.606952e-05
-3.912339e-06
-4.016512e-06
-3.947934e-06
-3.459027e-06
-0.001390619
0.001374218
-4.397007e-10
3.008135e-05
-3.374435e-06
-3.467381e-06
-3.379156e-06
-2.894552e-06
-0.001359266
0.001346255
-3.871546e-10
2.429226e-05
-2.750403e-06
-2.889156e-06
-2.747521e-06
-2.319007e-06
-0.001334141
0.001323616
-2.913249e-10
1.887336e-05
-1.867133e-06
-2.312181e-06
-1.849656e-06
-1.560599e-06
-0.001314774
0.001307024
-1.758909e-10
1.380828e-05
-1.479529e-06
-1.543434e-06
-1.474652e-06
-1.256335e-06
-0.001300592
0.001295566
-6.867779e-11
9.949709e-06
-1.20603e-06
-1.25787e-06
-1.20316e-06
-8.858953e-07
-0.001291365
0.001288366
1.491276e-11
6.441008e-06
-8.391686e-07
-8.820791e-07
-8.348244e-07
-5.674961e-07
-0.001286047
0.001284745
6.954232e-11
3.487364e-06
-5.278937e-07
-5.649077e-07
-5.254266e-07
-3.140205e-07
-0.001283995
0.001284067
9.753682e-11
1.125564e-06
-2.864275e-07
-3.124311e-07
-2.849076e-07
-1.284074e-07
-0.001284627
0.001285886
1.037344e-10
-7.862918e-07
-1.091352e-07
-1.271542e-07
-1.078954e-07
1.596733e-08
-0.001287513
0.00128978
9.775483e-11
-2.357221e-06
2.824328e-08
1.678664e-08
2.911028e-08
1.115001e-07
-0.001292383
0.001295481
8.51968e-11
-3.563372e-06
1.203356e-07
1.123255e-07
1.211727e-07
1.725541e-07
-0.001298846
0.001302602
7.017068e-11
-4.458333e-06
1.778245e-07
1.732735e-07
1.785797e-07
2.107722e-07
-0.001306575
0.001310875
5.586123e-11
-5.150181e-06
2.138827e-07
2.114071e-07
2.144053e-07
2.299247e-07
-0.00131535
0.00132009
4.382261e-11
-5.661289e-06
2.306981e-07
2.303311e-07
2.310198e-07
2.304088e-07
-0.001324974
0.001330059
3.431977e-11
-6.004995e-06
2.290926e-07
2.306255e-07
2.293576e-07
2.104097e-07
-0.00133526
0.001340598
2.711565e-11
-6.172882e-06
2.065504e-07
2.106408e-07
2.067643e-07
1.683462e-07
-0.001346025
0.001351527
2.228767e-11
-6.162133e-06
1.616466e-07
1.685641e-07
1.618461e-07
1.025447e-07
-0.001357094
0.001362667
1.934194e-11
-5.96414e-06
9.266811e-08
1.027645e-07
9.284384e-08
1.146733e-08
-0.001368267
0.001373748
1.660359e-11
-5.49795e-06
-2.789815e-09
1.158581e-08
-2.656591e-09
-1.385437e-07
-0.001379237
0.001384555
1.655615e-11
-4.729744e-06
-1.561078e-07
-1.38284e-07
-1.561116e-07
-3.210269e-07
-0.001389819
0.001394795
1.751274e-11
-3.644657e-06
-3.447242e-07
-3.207317e-07
-3.448325e-07
-5.655026e-07
-0.001399649
0.001404049
1.522861e-11
-2.073185e-06
-5.980128e-07
-5.650499e-07
-5.982406e-07
-8.775251e-07
-0.001408232
0.001411773
2.160259e-11
4.727585e-08
-9.168868e-07
-8.766308e-07
-9.172232e-07
-1.211611e-06
-0.001415053
0.001417521
2.552936e-11
2.489094e-06
-1.2664e-06
-1.210868e-06
-1.268128e-06
-1.714531e-06
-0.001419544
0.001420357
1.387098e-11
6.177123e-06
-1.792441e-06
-1.700097e-06
-1.782725e-06
-2.362937e-06
-0.001420597
0.001419443
5.649281e-11
1.081871e-05
-2.467419e-06
-2.36487e-06
-2.470077e-06
-3.24321e-06
-0.001417259
0.001413774
3.655754e-11
1.680178e-05
-3.419991e-06
-3.231607e-06
-3.421929e-06
-4.624473e-06
-0.001408492
0.001400206
5.336438e-12
2.738909e-05
-4.927527e-06
-4.615957e-06
-4.934449e-06
-6.696815e-06
0.001377392
1.353813e-10
4.06931e-05
-0.001390243
-7.283169e-06
-6.703265e-06
-7.158161e-06
-1.08942e-05
-0.001359694
0.001341899
-1.345634e-10
6.45101e-05
-1.288467e-05
-1.069382e-05
-1.224217e-05
-2.481581e-05
-0.001327125
0.001313342
-1.173019e-10
0.0001228671
-3.018765e-05
-2.433644e-05
-2.97446e-05
-3.440635e-05
-0.001303148
0.00129065
-8.789618e-10
0.0001470325
-3.255044e-05
-3.416379e-05
-3.341295e-05
-2.033885e-05
-0.001258686
0.001201413
-1.332616e-09
0.0001342981
-1.766098e-05
-2.099519e-05
-1.802887e-05
-2.362001e-06
-0.001124649
0.00103577
-1.348762e-09
9.543443e-05
-6.991913e-07
-2.570275e-06
-9.223581e-07
5.350416e-06
-0.0009363988
0.0008419496
1.813216e-09
7.576239e-05
4.014576e-06
5.308718e-06
4.011206e-06
-2.435574e-06
-0.0007659061
0.0007096734
4.64353e-09
6.826948e-05
-3.544592e-06
-2.47826e-06
-3.583039e-06
-3.223343e-06
-0.0006684528
0.0006377276
5.066036e-09
4.311461e-05
-2.963838e-06
-3.234897e-06
-2.97235e-06
-3.018949e-06
-0.0006129371
0.0005908375
2.523841e-09
3.457852e-05
-3.220735e-06
-3.020311e-06
-3.221431e-06
-4.740794e-06
-0.0005672076
0.0005431789
-1.117814e-09
4.283921e-05
-4.664962e-06
-4.73978e-06
-4.663899e-06
-2.739313e-06
-0.0005227999
0.0005087132
-2.774406e-09
2.425046e-05
-2.341637e-06
-2.738847e-06
-2.341171e-06
-1.077368e-07
-0.0005017841
0.0005002174
-2.81135e-09
1.711093e-06
3.670817e-08
-1.076705e-07
3.714049e-08
4.649794e-07
-0.0005008598
0.0005011162
-2.103388e-09
-1.922333e-06
3.688257e-07
4.651988e-07
3.690338e-07
-2.33078e-07
-0.0005010739
0.000499263
-1.573901e-09
2.968431e-06
-3.451387e-07
-2.327695e-07
-3.449034e-07
-1.022222e-06
-0.0004958559
0.0004913113
-8.367036e-10
8.762327e-06
-1.086543e-06
-1.021845e-06
-1.086244e-06
-1.467613e-06
-0.0004858498
0.0004794251
-4.498976e-10
1.236804e-05
-1.504214e-06
-1.467195e-06
-1.503883e-06
-1.748766e-06
-0.0004723952
0.0004646204
-2.407285e-10
1.481905e-05
-1.773581e-06
-1.748423e-06
-1.773288e-06
-1.907772e-06
-0.0004564277
0.0004478258
-1.321755e-10
1.624598e-05
-1.91447e-06
-1.907486e-06
-1.914168e-06
-1.911925e-06
-0.0004391093
0.0004304423
-7.562555e-11
1.629392e-05
-1.901793e-06
-1.911634e-06
-1.901475e-06
-1.809522e-06
-0.0004219173
0.0004137332
-4.486301e-11
1.538636e-05
-1.791874e-06
-1.809264e-06
-1.791583e-06
-1.668254e-06
-0.0004058133
0.0003983399
-2.701933e-11
1.410931e-05
-1.649923e-06
-1.668013e-06
-1.649686e-06
-1.527331e-06
-0.000391136
0.0003843865
-1.58454e-11
1.282244e-05
-1.509315e-06
-1.526998e-06
-1.509201e-06
-1.381099e-06
-0.0003779
0.0003718747
-8.225142e-12
1.151856e-05
-1.36588e-06
-1.380892e-06
-1.36541e-06
-1.09237e-06
-0.0003659363
0.0003598441
-2.829572e-12
1.017303e-05
-9.492403e-07
-1.090378e-06
-9.488461e-07
-9.485912e-07
-8.690275e-05
8.590719e-05
1.205382e-10
1.944037e-06
-1.068615e-06
-8.353528e-05
8.291132e-05
-1.681352e-10
1.692743e-06
-1.038668e-06
-8.133268e-05
8.086582e-05
-1.141869e-10
1.505635e-06
-9.593542e-07
-7.955281e-05
7.914247e-05
-8.79949e-11
1.369782e-06
-8.702176e-07
-7.797528e-05
7.761006e-05
-6.705233e-11
1.23551e-06
-7.76951e-07
-7.65761e-05
7.625601e-05
-4.866609e-11
1.097088e-06
-6.86378e-07
-7.536146e-05
7.508889e-05
-3.556069e-11
9.589825e-07
-5.976796e-07
-7.433933e-05
7.411606e-05
-2.941158e-11
8.209731e-07
-5.124161e-07
-7.351672e-05
7.334466e-05
-2.11227e-11
6.845005e-07
-4.315864e-07
-7.290076e-05
7.278152e-05
-1.169213e-11
5.508381e-07
-3.545395e-07
-7.249746e-05
7.243258e-05
-1.193532e-11
4.194329e-07
-2.848484e-07
-7.231623e-05
7.231031e-05
-9.294854e-12
2.90776e-07
-2.136013e-07
-7.237323e-05
7.242786e-05
9.938743e-12
1.589617e-07
-1.446888e-07
-7.267558e-05
7.2792e-05
2.820628e-11
2.824101e-08
-7.932129e-08
-7.322928e-05
7.34111e-05
4.140671e-11
-1.025392e-07
-1.492699e-08
-7.404837e-05
7.429739e-05
5.560965e-11
-2.341481e-07
5.304784e-08
-7.513065e-05
7.544384e-05
7.620797e-11
-3.66312e-07
1.098732e-07
-7.647274e-05
7.685088e-05
9.464396e-11
-4.88113e-07
1.598547e-07
-7.807236e-05
7.851325e-05
1.095454e-10
-6.00854e-07
2.025254e-07
-7.991922e-05
8.041974e-05
1.217684e-10
-7.031622e-07
2.370046e-07
-8.199954e-05
8.255563e-05
1.349314e-10
-7.932272e-07
2.625454e-07
-8.429575e-05
8.49025e-05
1.491639e-10
-8.694499e-07
2.788726e-07
-8.678706e-05
8.74388e-05
1.630006e-10
-9.307734e-07
2.859688e-07
-8.945e-05
9.014054e-05
1.808773e-10
-9.766929e-07
2.840281e-07
-9.225946e-05
9.298255e-05
1.801958e-10
-1.007304e-06
2.733073e-07
-9.518719e-05
9.593648e-05
2.112134e-10
-1.022813e-06
2.587353e-07
-9.821045e-05
9.8976e-05
1.925362e-10
-1.024473e-06
2.317645e-07
-0.0001012974
0.0001020759
1.81398e-10
-1.010439e-06
2.004886e-07
-0.0001044221
0.0001052062
2.0807e-10
-9.847419e-07
1.634942e-07
-0.0001075598
0.000108343
2.139849e-10
-9.468305e-07
1.195786e-07
-0.0001106904
0.0001114691
2.096649e-10
-8.985574e-07
7.370743e-08
-0.0001137963
0.0001145669
2.063797e-10
-8.445472e-07
2.672076e-08
-0.0001168717
0.0001176361
2.095999e-10
-7.913266e-07
-4.368671e-09
-0.0001199268
0.0001206914
2.117581e-10
-7.604253e-07
1.247949e-08
-0.0001230133
0.0001238073
2.164233e-10
-8.066088e-07
5.013989e-07
-0.0001262685
0.0001269257
2.185944e-10
-1.158878e-06
1.035809e-06
-0.0001285931
0.0001291853
1.988709e-10
-1.628203e-06
1.01827e-06
-0.0001310148
0.0001316177
1.9532e-10
-1.621393e-06
1.052222e-06
-0.0001333951
0.0001339831
1.791253e-10
-1.640375e-06
1.057215e-06
-0.0001357195
0.0001362873
1.668229e-10
-1.625176e-06
1.059866e-06
-0.0001379592
0.0001385037
1.530628e-10
-1.604572e-06
1.059113e-06
-0.0001401016
0.0001406206
1.452685e-10
-1.57821e-06
1.054982e-06
-0.0001421413
0.0001426343
1.362681e-10
-1.548088e-06
1.050426e-06
-0.0001440757
0.0001445419
1.23779e-10
-1.516742e-06
1.044735e-06
-0.0001459032
0.0001463431
1.063121e-10
-1.484704e-06
1.038297e-06
-0.0001476265
0.0001480409
9.565006e-11
-1.452789e-06
1.031465e-06
-0.0001492494
0.0001496394
9.082409e-11
-1.421541e-06
1.024567e-06
-0.0001507762
0.000151143
8.395732e-11
-1.391373e-06
1.017684e-06
-0.0001522117
0.0001525563
7.979825e-11
-1.362442e-06
1.010894e-06
-0.0001535606
0.0001538845
7.248777e-11
-1.334825e-06
1.00425e-06
-0.000154828
0.0001551322
6.69945e-11
-1.308573e-06
9.977906e-07
-0.0001560185
0.0001563043
6.521014e-11
-1.283675e-06
9.915733e-07
-0.0001571369
0.0001574054
5.843291e-11
-1.260149e-06
9.856088e-07
-0.0001581875
0.0001584398
5.531175e-11
-1.237997e-06
9.80013e-07
-0.0001591748
0.000159412
5.168021e-11
-1.217274e-06
9.747416e-07
-0.0001601031
0.0001603263
4.799371e-11
-1.197956e-06
9.6994e-07
-0.0001609765
0.0001611866
4.222771e-11
-1.180118e-06
9.655482e-07
-0.0001617991
0.0001619972
4.267683e-11
-1.163725e-06
9.616285e-07
-0.0001625749
0.000162762
4.070869e-11
-1.148771e-06
9.582672e-07
-0.0001633077
0.0001634847
4.131179e-11
-1.135288e-06
9.553307e-07
-0.0001640011
0.000164169
3.326696e-11
-1.123192e-06
9.528533e-07
-0.0001646589
0.0001648184
2.923305e-11
-1.112404e-06
9.508492e-07
-0.0001652842
0.0001654363
2.58345e-11
-1.102911e-06
9.493743e-07
-0.0001658804
0.0001660258
2.305455e-11
-1.094705e-06
9.483411e-07
-0.0001664503
0.0001665897
2.46157e-11
-1.087692e-06
9.478207e-07
-0.0001669968
0.0001671308
2.225891e-11
-1.081851e-06
9.481816e-07
-0.0001675221
0.0001676512
2.50781e-11
-1.077348e-06
9.513819e-07
-0.0001680255
0.0001681484
2.564817e-11
-1.074332e-06
9.423011e-07
-0.0001685095
0.0001686381
1.772006e-11
-1.070912e-06
9.82985e-07
-0.0001690356
0.0001691223
1.59276e-10
-1.069912e-06
1.093941e-06
-0.0001681608
0.000689785
-3.6288e-12
-4.71746e-06
2.014407e-08
1.096576e-06
8.967275e-09
-0.000168164
-0.0001754803
-0.0001754821
5.494178e-07
-0.0006931343
0.0006945198
-1.294513e-11
-4.133736e-06
8.36733e-07
5.371659e-07
8.24881e-07
7.214463e-07
-0.0006955538
0.0006966857
1.821236e-12
-4.103331e-06
7.738395e-07
7.116025e-07
7.645816e-07
7.747289e-07
-0.0006980025
0.000699209
1.855285e-11
-4.372851e-06
8.168044e-07
7.662174e-07
8.085181e-07
8.28736e-07
-0.0007003388
0.0007013522
2.059058e-11
-4.369902e-06
8.570298e-07
8.210261e-07
8.496203e-07
8.580852e-07
-0.0007023453
0.0007033113
1.335314e-11
-4.412313e-06
8.723539e-07
8.505842e-07
8.652936e-07
8.796148e-07
-0.0007042859
0.0007052417
1.255041e-11
-4.480681e-06
8.893711e-07
8.728737e-07
8.829534e-07
9.026957e-07
-0.000706196
0.0007071317
4.242736e-12
-4.549588e-06
9.099773e-07
8.968982e-07
9.043255e-07
9.254122e-07
-0.0007080664
0.000708988
-1.047034e-11
-4.623995e-06
9.304253e-07
9.204326e-07
9.261539e-07
9.450105e-07
-0.0007099084
0.0007108231
-1.002462e-11
-4.690462e-06
9.472617e-07
9.405057e-07
9.429536e-07
9.619595e-07
-0.0007117325
0.000712636
-6.530796e-12
-4.748723e-06
9.643666e-07
9.583099e-07
9.60631e-07
9.768616e-07
-0.0007135368
0.0007144349
-1.912196e-11
-4.803347e-06
9.788997e-07
9.73728e-07
9.758367e-07
9.896559e-07
-0.0007153312
0.0007162277
-1.110039e-11
-4.852957e-06
9.911671e-07
9.870169e-07
9.886145e-07
1.00056e-06
-0.0007171237
0.0007180214
9.01521e-12
-4.897939e-06
1.001792e-06
9.982581e-07
9.995385e-07
1.010081e-06
-0.0007189192
0.0007198199
3.677845e-12
-4.939275e-06
1.011153e-06
1.008104e-06
1.009245e-06
1.018564e-06
-0.0007207212
0.000721626
-4.548404e-12
-4.977618e-06
1.019544e-06
1.016856e-06
1.017869e-06
1.026142e-06
-0.0007225317
0.0007234413
4.716141e-12
-5.01285e-06
1.027035e-06
1.024588e-06
1.025514e-06
1.032919e-06
-0.000724352
0.0007252664
1.176201e-11
-5.045054e-06
1.033742e-06
1.031552e-06
1.03241e-06
1.039034e-06
-0.0007261819
0.0007271008
1.262016e-11
-5.074328e-06
1.039811e-06
1.037855e-06
1.038668e-06
1.044645e-06
-0.0007280207
0.0007289435
1.188772e-11
-5.100707e-06
1.04538e-06
1.043567e-06
1.044314e-06
1.049742e-06
-0.0007298669
0.0007307926
8.470849e-12
-5.124071e-06
1.050428e-06
1.048747e-06
1.049452e-06
1.054357e-06
-0.0007317186
0.0007326459
3.590902e-13
-5.144327e-06
1.054993e-06
1.053502e-06
1.054165e-06
1.058534e-06
-0.000733573
0.0007345005
-7.312386e-12
-5.161327e-06
1.05913e-06
1.057785e-06
1.058398e-06
1.062382e-06
-0.0007354271
0.0007363531
-7.263862e-12
-5.175253e-06
1.062944e-06
1.061685e-06
1.062291e-06
1.065801e-06
-0.0007372777
0.0007382005
6.429808e-12
-5.185723e-06
1.06629e-06
1.065141e-06
1.065611e-06
1.068653e-06
-0.0007391215
0.0007400396
1.622249e-11
-5.192299e-06
1.069122e-06
1.068e-06
1.068447e-06
1.071088e-06
-0.000740955
0.0007418664
4.318928e-12
-5.195285e-06
1.071462e-06
1.070467e-06
1.070869e-06
1.073151e-06
-0.0007427745
0.0007436774
-1.06495e-11
-5.195192e-06
1.073513e-06
1.072627e-06
1.073007e-06
1.074882e-06
-0.0007445764
0.000745469
-6.134918e-12
-5.19185e-06
1.075189e-06
1.074419e-06
1.074733e-06
1.07619e-06
-0.0007463571
0.0007472378
8.549449e-12
-5.185024e-06
1.076462e-06
1.075733e-06
1.076003e-06
1.077082e-06
-0.0007481132
0.0007489802
1.36508e-11
-5.174823e-06
1.077289e-06
1.076645e-06
1.076858e-06
1.077532e-06
-0.0007498414
0.0007506931
5.015872e-12
-5.161436e-06
1.077706e-06
1.077154e-06
1.077344e-06
1.077724e-06
-0.0007515386
0.0007523735
-5.867673e-12
-5.145395e-06
1.077881e-06
1.077363e-06
1.077514e-06
1.077557e-06
-0.0007532017
0.0007540185
2.225665e-12
-5.126557e-06
1.077659e-06
1.077193e-06
1.077301e-06
1.076972e-06
-0.0007548282
0.0007556258
1.307505e-11
-5.104958e-06
1.07705e-06
1.076654e-06
1.076736e-06
1.076066e-06
-0.0007564158
0.0007571929
1.030315e-11
-5.080767e-06
1.076108e-06
1.075748e-06
1.075792e-06
1.074716e-06
-0.0007579621
0.0007587177
-4.101814e-12
-5.053813e-06
1.074734e-06
1.074412e-06
1.074428e-06
1.073031e-06
-0.0007594652
0.000760198
-1.677194e-11
-5.024473e-06
1.073063e-06
1.072775e-06
1.07281e-06
1.070943e-06
-0.0007609226
0.0007616313
-1.6929e-11
-4.992076e-06
1.070955e-06
1.0707e-06
1.070721e-06
1.068078e-06
-0.0007623318
0.000763015
-8.973563e-12
-4.95512e-06
1.068102e-06
1.067845e-06
1.067905e-06
1.064326e-06
-0.0007636896
0.0007643449
-7.476741e-12
-4.9123e-06
1.06443e-06
1.064084e-06
1.064172e-06
1.058916e-06
-0.0007649912
0.0007656148
-3.790064e-12
-4.859282e-06
1.059187e-06
1.058654e-06
1.058891e-06
1.050421e-06
-0.0007662271
0.0007668115
1.737878e-12
-4.786226e-06
1.050782e-06
1.050127e-06
1.050503e-06
1.033988e-06
-0.0007673782
0.0007679123
5.785899e-12
-4.667826e-06
1.0331e-06
1.033761e-06
1.032889e-06
9.897166e-07
-0.0007684307
0.000768953
7.85878e-12
-4.459982e-06
9.793275e-07
9.89525e-07
9.791392e-07
8.865755e-07
-0.000769523
0.0007701654
1.14214e-11
-4.119328e-06
8.521287e-07
8.86371e-07
8.518756e-07
7.65124e-07
-0.0007708582
0.0007715522
1.558449e-11
-3.73289e-06
7.545065e-07
7.649085e-07
7.54312e-07
7.427996e-07
-0.0007722176
0.000772853
1.762388e-11
-3.611315e-06
7.453411e-07
7.426278e-07
7.451766e-07
7.343007e-07
-0.0007734778
0.0007740882
1.181402e-11
-3.546862e-06
7.3407e-07
7.341161e-07
7.338832e-07
7.234579e-07
-0.0007746888
0.0007752707
-1.994748e-12
-3.477973e-06
7.24746e-07
7.23293e-07
7.245916e-07
7.160167e-07
-0.0007758405
0.0007763897
-6.040461e-12
-3.419828e-06
7.194809e-07
7.158349e-07
7.193069e-07
7.031328e-07
-0.0007769278
0.0007774519
-7.468962e-12
-3.346938e-06
7.085971e-07
7.028473e-07
7.082601e-07
6.750651e-07
-0.0007779784
0.0007785245
-2.120874e-11
-3.241064e-06
6.733363e-07
6.742784e-07
6.722692e-07
5.311944e-07
-0.000779395
0.0007807807
-1.173542e-11
-3.612532e-06
5.839388e-07
5.292593e-07
5.824736e-07
7.67063e-07
-0.000781766
0.0007813812
-3.818735e-12
-2.469142e-06
6.546343e-07
7.725666e-07
6.597315e-07
6.55219e-07
-0.0007813303
0.0007817913
-7.596087e-13
-2.945638e-06
5.813385e-07
6.612514e-07
5.868482e-07
6.14663e-07
-0.0007822616
0.0007827989
7.382545e-13
-2.932167e-06
5.78015e-07
6.196393e-07
5.825697e-07
5.954529e-07
-0.0007833191
0.0007839143
2.863767e-12
-2.942135e-06
5.741131e-07
5.994956e-07
5.778945e-07
5.953136e-07
-0.0007845055
0.0007851207
5.115812e-12
-2.983389e-06
5.854845e-07
5.986857e-07
5.886782e-07
6.080052e-07
-0.0007857147
0.0007863129
6.903844e-12
-3.028117e-06
6.039597e-07
6.110242e-07
6.069221e-07
6.202687e-07
-0.0007868981
0.0007874878
7.39581e-12
-3.072642e-06
6.187037e-07
6.22844e-07
6.211466e-07
6.31798e-07
-0.0007880668
0.0007886469
3.353464e-12
-3.112225e-06
6.321082e-07
6.33989e-07
6.342032e-07
6.430243e-07
-0.0007892176
0.0007897892
-1.665337e-12
-3.149938e-06
6.442774e-07
6.449419e-07
6.461149e-07
6.539571e-07
-0.0007903533
0.0007909176
-7.377182e-13
-3.185843e-06
6.551421e-07
6.556842e-07
6.567864e-07
6.633535e-07
-0.0007914779
0.0007920384
2.24785e-12
-3.22091e-06
6.654355e-07
6.647949e-07
6.668484e-07
6.739182e-07
-0.0007925937
0.0007931481
1.962689e-12
-3.256663e-06
6.760032e-07
6.751159e-07
6.771808e-07
6.834362e-07
-0.0007936984
0.0007942477
-2.500179e-12
-3.288893e-06
6.853183e-07
6.844591e-07
6.863221e-07
6.921844e-07
-0.0007947931
0.0007953376
-3.885216e-12
-3.318371e-06
6.939089e-07
6.930583e-07
6.947544e-07
6.99959e-07
-0.0007958787
0.0007964191
-8.098331e-14