/*--------------------------------*- C++ -*----------------------------------*\
| =========                 |                                                 |
| \\      /  F ield         | foam-extend: Open Source CFD                    |
|  \\    /   O peration     | Version:     3.1                                |
|   \\  /    A nd           | Web:         http://www.extend-project.de       |
|    \\/     M anipulation  |                                                 |
\*---------------------------------------------------------------------------*/
FoamFile
{
    version     2.0;
    format      ascii;
    class       volScalarField;
    location    "3";
    object      omega;
}
// * * * * * * * * * * * * * * * * * * * * * * * * * * * * * * * * * * * * * //

dimensions      [0 0 -1 0 0 0 0];

internalField   nonuniform List<scalar> 
119952
(
170.0219
219.1576
209.422
182.2624
163.4913
165.4929
168.7359
172.5926
176.8493
181.4087
186.2386
191.3096
196.6083
202.1374
207.9096
213.9387
220.2521
226.9014
234.0207
242.1511
199.6622
199.4398
201.7702
167.2178
164.5631
163.3902
162.533
161.6795
159.1915
147.5842
322.659
272.9897
231.8059
201.71
179.1029
161.6311
147.6427
136.184
126.5642
115.8218
96.34952
82.88621
73.55891
66.60297
61.09689
56.55419
52.71113
49.4174
46.54611
35.21983
33.63621
32.09494
30.62905
29.27449
28.03816
26.91445
25.89436
24.96527
24.1189
23.35766
22.624
21.91803
21.23855
20.58505
19.95838
19.3555
18.76818
18.19942
18.05547
17.97951
17.77567
17.58401
17.43192
17.30692
17.20205
17.11256
17.03268
16.95805
16.88644
16.81752
16.75116
16.68745
16.6263
16.56688
16.5071
16.44117
16.35501
16.21905
16.05439
15.90115
15.71415
15.5169
15.3915
15.30734
15.31386
15.51037
16.28107
17.71309
18.06882
18.20087
18.20231
18.15572
18.08632
18.00685
17.92508
17.84455
17.76733
17.69468
17.62734
17.56573
17.51007
17.46049
17.41707
17.37981
17.34866
17.32345
17.30393
17.28988
17.28107
17.27727
17.27826
17.28385
17.29388
17.30827
17.32691
17.34971
17.37657
17.4074
17.44206
17.48038
17.52212
17.56708
17.6151
17.66608
17.71994
17.77659
17.83596
17.89797
17.96258
18.02979
18.09958
18.17194
18.24686
18.32426
18.40371
18.48266
18.55046
18.68859
18.8888
19.10027
19.31578
19.52763
19.73148
19.92463
20.10551
20.27354
20.42882
20.57264
20.70518
20.82638
20.93709
21.03874
21.13286
21.22043
21.3022
21.37901
21.45183
21.52169
21.58951
21.65608
21.722
21.78782
21.85397
21.92085
21.98875
22.05795
22.1287
22.20123
22.27572
22.35236
22.43133
22.51279
22.59695
22.68397
22.77406
22.86744
22.96431
23.06495
23.16964
23.27866
23.39231
23.5109
23.63478
23.76413
23.89881
24.03501
24.1474
27.59127
32.40306
35.03581
36.52417
37.46936
38.06547
38.47544
38.77584
39.01466
39.22015
39.412
39.60135
39.79472
39.99611
40.20809
40.43204
40.66862
40.91821
41.1809
41.45661
41.74524
42.04675
42.36109
42.68829
43.02844
43.38163
43.7483
44.12805
44.52181
44.92823
45.34788
45.78085
46.21955
46.64811
47.00045
46.56343
45.39023
44.51744
43.83482
43.2728
42.78622
42.34721
41.93877
41.54994
41.1744
40.8091
40.45227
40.10252
39.75936
39.4224
39.0917
38.76729
38.44911
38.13711
37.83121
37.53132
37.23731
36.94907
36.66646
36.38934
36.11742
35.85073
35.5894
35.33291
35.08119
34.83415
34.59167
34.35366
34.11942
33.88257
27.409
26.3465
25.30333
24.35369
23.53791
22.86294
22.31906
21.88709
21.54533
21.2732
21.05311
20.87109
20.71656
20.58177
20.46121
20.35095
20.24828
20.15129
20.05865
19.96943
19.88299
19.79884
19.71667
19.63623
19.55733
19.47986
19.40373
19.32884
19.25514
19.18258
19.11111
19.04071
18.97134
18.90298
18.83562
18.76923
18.70381
18.63935
18.57585
18.51334
18.45185
18.39151
18.33256
18.27562
18.22229
18.17507
18.13355
18.09424
18.05633
18.0196
17.98383
17.94902
17.91521
17.88408
17.8631
17.77637
17.63146
17.44718
17.2455
17.04523
16.85936
16.69496
16.55444
16.43702
16.34011
16.26035
16.1943
16.13883
16.09132
16.04963
16.01213
15.97759
15.94509
15.914
15.88386
15.85437
15.82532
15.79657
15.76804
15.73969
15.71149
15.68343
15.65551
15.62774
15.60013
15.57269
15.54542
15.51834
15.49146
15.46478
15.43831
15.41207
15.38604
15.36024
15.33467
15.30933
15.28421
15.25933
15.23468
15.21025
15.18604
15.16205
15.13828
15.11471
15.09135
15.06819
15.04522
15.02244
14.99983
14.97738
14.9551
14.93295
14.91095
14.88907
14.8673
14.84564
14.82406
14.80256
14.78111
14.75969
14.73829
14.71689
14.69544
14.67392
14.65227
14.63044
14.60834
14.58587
14.56288
14.53911
14.51424
14.48768
14.45848
14.42486
14.38316
14.32479
14.23088
14.07301
14.25153
369.026
298.6973
254.8754
224.9061
202.6234
184.9353
170.2147
157.5981
146.1104
124.3301
102.3297
88.56319
79.22512
72.38138
67.00607
62.58296
58.81523
55.50786
43.42336
41.19022
39.06029
37.02755
35.15345
33.45113
31.90927
30.51087
29.23819
28.06905
27.02435
26.02619
25.0532
24.1161
23.21982
22.36858
21.56441
20.80772
20.09641
19.56435
19.15498
18.69953
18.22399
17.74314
17.26577
16.79844
16.34605
15.91209
15.49931
15.10799
14.73904
14.39055
14.06014
13.74686
13.45063
13.17155
12.90989
12.66716
11.11873
10.94941
10.79658
10.65695
10.52804
10.40798
10.29551
10.18952
10.08909
9.993046
9.901056
9.81243
9.726259
9.642019
9.55928
9.478048
9.398497
9.322439
9.252095
9.189713
9.12906
9.071427
9.020166
8.975249
8.934596
8.898822
8.867784
8.840758
8.816885
8.795448
8.77594
8.757931
8.741001
8.724686
8.708403
8.691357
8.672423
8.650233
8.623384
8.592794
8.560375
8.526614
8.49744
8.479273
8.474439
8.484377
8.514063
8.564258
8.612409
8.644277
8.673363
8.698151
8.719768
8.738952
8.75601
8.771112
8.784303
8.795667
8.805326
8.813425
8.820125
8.825595
8.830009
8.833541
8.836354
8.8386
8.840411
8.841905
8.843188
8.844353
8.845485
8.846661
8.847956
8.849441
8.851188
8.853264
8.855731
8.858644
8.862049
8.865978
8.870448
8.875466
8.88103
8.887131
8.89376
8.900899
8.90853
8.91663
8.925175
8.934138
8.943492
8.953206
8.963246
8.973561
8.98407
8.99464
9.005097
9.015371
9.026127
9.038554
9.052715
9.068903
9.087167
9.107457
9.12963
9.153437
9.178598
9.204794
9.231656
9.258768
9.28573
9.312194
9.337864
9.362484
9.385831
9.407728
9.428058
9.446761
9.463832
9.479311
9.49326
9.50577
9.516948
9.526904
9.535759
9.543629
9.550632
9.556881
9.562483
9.56754
9.572145
9.576389
9.580353
9.584112
9.587735
9.591287
9.594826
9.598404
9.60207
9.605869
9.609838
9.614013
9.618418
9.623068
9.627925
9.632844
9.636824
9.629254
10.09695
10.51621
10.7408
10.87335
10.96344
11.03337
11.09256
11.14455
11.19052
11.23088
11.26585
11.29571
11.32087
11.34184
11.35923
11.37363
11.38561
11.39571
11.40438
11.41202
11.41896
11.42546
11.43173
11.43792
11.44415
11.45049
11.45697
11.4636
11.47031
11.47698
11.48335
11.48896
11.49282
11.49276
11.48376
11.45613
11.41113
11.36523
11.32185
11.27918
11.23708
11.19656
11.15806
11.12194
11.08827
11.05688
11.02752
10.99992
10.97382
10.94896
10.92514
10.90218
10.87995
10.85834
10.83725
10.81663
10.79641
10.77657
10.75706
10.73786
10.71897
10.70035
10.68202
10.66395
10.64615
10.62862
10.61137
10.59442
10.57781
10.56405
9.532587
9.482223
9.444281
9.410299
9.37623
9.340543
9.303059
9.264292
9.225029
9.186073
9.148099
9.111612
9.076939
9.044251
9.013601
8.98495
8.958203
8.93323
8.90988
8.888002
8.867444
8.848066
8.829738
8.812342
8.795776
8.779947
8.764776
8.750193
8.736138
8.722561
8.709417
8.696669
8.684284
8.672238
8.660507
8.649076
8.637929
8.627061
8.616467
8.606154
8.596138
8.586454
8.577165
8.568372
8.560204
8.552732
8.545816
8.539282
8.53305
8.527069
8.521312
8.515785
8.51052
8.505751
8.501333
8.496314
8.490046
8.481916
8.471553
8.458911
8.444218
8.427884
8.410403
8.392281
8.373981
8.355889
8.338303
8.321432
8.305409
8.290299
8.27612
8.262851
8.250449
8.238853
8.227997
8.21781
8.208226
8.199178
8.190608
8.182461
8.17469
8.167251
8.160109
8.153229
8.146585
8.140152
8.133909
8.127838
8.121923
8.116152
8.110513
8.104996
8.099592
8.094294
8.089094
8.083989
8.078971
8.074036
8.069179
8.064397
8.059685
8.055039
8.050455
8.045929
8.041457
8.037036
8.032659
8.028324
8.024026
8.019759
8.015519
8.0113
8.007097
8.002904
7.998715
7.994521
7.990317
7.986094
7.981843
7.977554
7.973215
7.968812
7.96433
7.959748
7.955042
7.95018
7.945123
7.939814
7.93418
7.928114
7.92146
7.91399
7.905345
7.894984
7.882084
7.865656
7.844707
7.821946
7.806801
525.6629
468.499
419.7738
382.5221
351.2672
324.7696
302.021
282.0978
264.9235
249.4725
123.0491
116.1119
111.0938
106.094
101.0083
96.17547
91.73662
87.63332
83.76655
64.77238
59.88546
56.0237
53.04456
50.71327
48.81967
47.21578
45.80705
44.53406
43.3785
42.23942
41.01791
39.77351
38.55439
37.3917
36.29814
35.27374
34.31255
33.39409
32.92324
32.27209
31.52108
30.72044
29.89856
29.07466
28.26162
27.46706
26.69529
25.94851
25.22149
24.51598
23.82739
23.15312
22.49406
21.85216
21.22973
20.63272
18.55316
18.0462
17.56511
17.10508
16.66139
16.232
15.81583
15.41226
15.02101
14.64133
14.27322
13.91729
13.57274
13.23888
12.91541
12.60223
12.29918
12.00621
11.72305
11.44987
11.18723
10.93513
10.69316
10.461
10.23844
10.0253
9.821473
9.626799
9.44116
9.264683
9.097265
8.938783
8.789222
8.648537
8.516628
8.393361
8.278478
8.169781
8.093269
8.020041
7.950741
7.885584
7.82462
7.767804
7.715017
7.666006
7.620458
7.577972
7.538172
7.500646
7.464998
7.430907
7.398115
7.366534
7.336207
7.307412
7.280456
7.255288
7.230997
7.207402
7.184989
7.163927
7.14317
7.12484
7.108197
7.092954
7.07894
7.06596
7.053835
7.042403
7.031496
7.020925
7.010446
6.99978
6.988581
6.976515
6.963259
6.948973
6.934409
6.919785
6.906744
6.898038
6.894868
6.896331
6.90366
6.915431
6.927012
6.935135
6.941234
6.946888
6.952248
6.95748
6.96268
6.967903
6.973148
6.978383
6.983569
6.988672
6.993663
6.998521
7.003233
7.007794
7.012204
7.016466
7.020584
7.024566
7.028418
7.03215
7.035771
7.039292
7.042727
7.046092
7.049407
7.052693
7.055972
7.059268
7.0626
7.065988
7.069444
7.072979
7.076599
7.08031
7.084113
7.088008
7.091995
7.096071
7.100232
7.104473
7.108788
7.113168
7.117602
7.122073
7.126558
7.131028
7.135446
7.139791
7.144158
7.148766
7.153689
7.15899
7.164772
7.171105
7.178061
7.185677
7.193965
7.202907
7.212447
7.222497
7.232941
7.243653
7.254493
7.265316
7.275976
7.286325
7.296238
7.305604
7.314336
7.322359
7.329635
7.336134
7.341844
7.346772
7.350936
7.354365
7.357095
7.359173
7.360648
7.361569
7.361993
7.361974
7.361566
7.360822
7.359793
7.358527
7.35707
7.355463
7.353746
7.351952
7.350113
7.348255
7.3464
7.344566
7.342757
7.340995
7.339211
7.337454
7.341775
7.33087
7.316983
7.305085
7.296665
7.291767
7.289921
7.290507
7.292913
7.296577
7.30101
7.305805
7.310641
7.315278
7.319548
7.323348
7.326626
7.329369
7.331594
7.333336
7.33464
7.335555
7.336129
7.336412
7.336441
7.336245
7.335843
7.335236
7.334404
7.333294
7.331805
7.329744
7.326792
7.322422
7.315897
7.306609
7.295054
7.282214
7.268876
7.255608
7.242671
7.230173
7.218157
7.20646
7.194955
7.18362
7.17247
7.161533
7.15093
7.140695
7.130821
7.121292
7.112088
7.103185
7.094561
7.086196
7.07807
7.070168
7.062474
7.054976
7.047664
7.040529
7.033562
7.026759
7.020116
7.013634
7.007318
7.00116
6.995063
6.987708
7.009775
7.022619
7.029438
7.031992
7.031257
7.027828
7.02213
7.014525
7.005359
6.994961
6.983644
6.971688
6.959341
6.946811
6.934268
6.921844
6.909641
6.897729
6.886156
6.874951
6.864129
6.853693
6.843639
6.833957
6.824631
6.815647
6.806986
6.798632
6.790566
6.782774
6.775239
6.767946
6.760885
6.754042
6.747408
6.740975
6.734736
6.728689
6.72283
6.717163
6.711694
6.706438
6.701418
6.696665
6.692212
6.68807
6.684199
6.680549
6.677087
6.673795
6.670659
6.667679
6.66485
6.662218
6.659781
6.657367
6.654823
6.651998
6.648755
6.644988
6.64064
6.635699
6.630196
6.624197
6.617787
6.611066
6.604133
6.597084
6.590005
6.582969
6.576035
6.569251
6.562651
6.55626
6.550091
6.544153
6.538447
6.53297
6.527716
6.522677
6.517843
6.513203
6.508746
6.504461
6.500337
6.496363
6.492529
6.488827
6.485246
6.48178
6.47842
6.475159
6.471993
6.468914
6.465917
6.462998
6.460151
6.457374
6.454661
6.452009
6.449414
6.446874
6.444383
6.441939
6.439539
6.437178
6.434854
6.432563
6.4303
6.428063
6.425847
6.423647
6.42146
6.419281
6.417105
6.414927
6.41274
6.41054
6.408319
6.406069
6.403782
6.401448
6.399055
6.39659
6.394035
6.391369
6.388565
6.385588
6.38239
6.378909
6.375057
6.370713
6.365708
6.359818
6.352758
6.344255
6.334152
6.323177
6.313738
324.3136
244.5258
310.7991
144.2311
113.295
79.29318
69.66819
61.42251
55.04837
52.2945
51.79654
51.31759
50.7475
50.96633
51.019
51.00187
50.87665
50.59916
50.15515
49.57717
48.85747
48.00655
46.83679
45.65882
44.56393
43.50941
42.46867
41.43737
40.41905
39.4149
38.43036
36.12653
35.24129
34.38294
33.55184
32.75099
31.98174
31.24526
30.54186
29.87051
29.2285
28.61364
28.02327
27.45314
26.9003
26.36245
25.83744
25.32347
24.81902
24.3225
23.83347
23.35167
22.87583
22.40394
21.9348
21.46773
21.00251
20.53904
20.0776
19.61928
19.16442
18.71328
18.26674
17.82576
17.39096
16.96319
16.54205
16.12472
15.74099
15.36206
14.98942
14.62353
14.26506
13.91455
13.57232
13.23852
12.91331
12.59664
12.28856
11.98911
11.69794
11.41501
11.14035
10.87388
10.61549
10.36504
10.12241
9.887533
9.660288
9.440562
9.228395
9.023897
8.827142
8.638189
8.457086
8.283897
8.118661
7.961452
7.812295
7.671187
7.538123
7.413064
7.295936
7.186623
7.084992
6.990806
6.905094
6.827191
6.756502
6.692479
6.634642
6.582553
6.535796
6.493952
6.456581
6.423219
6.393409
6.366716
6.342729
6.321075
6.301429
6.28353
6.267181
6.252239
6.238607
6.226069
6.21412
6.202472
6.191105
6.179719
6.168431
6.15826
6.14885
6.140029
6.131693
6.123757
6.11614
6.108771
6.101584
6.094506
6.087453
6.080339
6.07307
6.065574
6.057817
6.049885
6.042003
6.034417
6.027614
6.022277
6.01878
6.016996
6.017023
6.018362
6.01984
6.020844
6.021504
6.022025
6.022504
6.02302
6.023643
6.024428
6.025409
6.026602
6.028012
6.029635
6.031463
6.033485
6.035688
6.038058
6.040579
6.043236
6.046012
6.048892
6.051857
6.054891
6.057978
6.061101
6.064246
6.0674
6.070553
6.073695
6.076819
6.079921
6.082996
6.086039
6.089047
6.092014
6.094936
6.097809
6.100628
6.103391
6.106093
6.108733
6.111308
6.11382
6.116266
6.118647
6.120961
6.123208
6.125383
6.127484
6.129504
6.131446
6.133331
6.1352
6.137078
6.138988
6.140967
6.143055
6.145287
6.147711
6.150359
6.153261
6.156433
6.159876
6.163576
6.167508
6.171634
6.175895
6.180226
6.184563
6.188828
6.192951
6.19686
6.200493
6.203793
6.206715
6.209221
6.211285
6.212889
6.214027
6.2147
6.214913
6.214686
6.214038
6.212997
6.211591
6.209854
6.20782
6.205522
6.202996
6.200277
6.197395
6.194383
6.191265
6.188059
6.184785
6.181462
6.17811
6.17474
6.171366
6.167979
6.164598
6.16149
6.157347
6.152205
6.146555
6.140946
6.135788
6.131329
6.127683
6.124863
6.122808
6.121416
6.120559
6.120105
6.119928
6.11991
6.119959
6.119997
6.119967
6.119831
6.119562
6.119143
6.118572
6.117848
6.116972
6.115947
6.114776
6.113456
6.111978
6.110322
6.108453
6.106305
6.103782
6.10074
6.096975
6.092256
6.086427
6.079626
6.07217
6.064356
6.056444
6.048616
6.04098
6.033575
6.026409
6.019467
6.01275
6.00626
5.999985
5.993802
5.98767
5.981581
5.975603
5.969768
5.964084
5.958552
5.953166
5.947924
5.942821
5.937852
5.933013
5.928302
5.923715
5.919241
5.914883
5.91064
5.906515
5.9025
5.898608
5.894859
5.891473
5.891145
5.892053
5.893236
5.894187
5.894634
5.894432
5.893513
5.891858
5.889484
5.886437
5.88278
5.878587
5.873941
5.868923
5.863611
5.858078
5.852389
5.846603
5.840768
5.834926
5.82911
5.823347
5.817659
5.812062
5.806569
5.801187
5.795924
5.790783
5.785767
5.780876
5.776111
5.771471
5.766955
5.762562
5.758291
5.754142
5.750114
5.746209
5.742426
5.738771
5.735247
5.731864
5.728632
5.725564
5.722671
5.719957
5.717407
5.715
5.71272
5.710558
5.708505
5.706559
5.704716
5.702986
5.701363
5.699804
5.698265
5.6967
5.695062
5.693308
5.691398
5.689303
5.687005
5.684497
5.681781
5.678871
5.675788
5.672556
5.669204
5.665762
5.662258
5.658719
5.655171
5.651634
5.648129
5.644671
5.641272
5.637943
5.634691
5.631521
5.628438
5.625442
5.622535
5.619715
5.616983
5.614335
5.611769
5.609283
5.606875
5.604539
5.602275
5.600078
5.597946
5.595876
5.593865
5.591911
5.59001
5.58816
5.586359
5.584604
5.582893
5.581223
5.579592
5.577997
5.576437
5.574907
5.573407
5.571932
5.570481
5.56905
5.567636
5.566236
5.564846
5.563464
5.562084
5.560702
5.559316
5.557918
5.556504
5.555069
5.553604
5.552103
5.550557
5.548954
5.547281
5.545524
5.543662
5.541669
5.539515
5.537158
5.534542
5.531597
5.528233
5.524339
5.51979
5.514484
5.508397
5.501814
5.49587
320.9016
221.7751
171.4886
140.6955
114.272
89.97149
76.08428
70.24746
64.2215
60.899
58.3435
55.40371
52.65798
50.32194
48.55351
46.97378
44.0472
43.79479
43.83507
44.22461
44.93036
45.78203
46.57069
47.21037
47.71266
47.99749
48.04616
47.87721
47.49798
46.93144
46.20093
45.34108
44.39042
43.35818
42.26403
41.13528
39.99429
38.85804
37.74249
36.65649
35.61478
34.60419
33.62013
32.6915
31.81307
30.98092
30.19381
29.45285
28.75551
28.09818
27.4775
26.89004
26.33239
25.80096
25.29235
24.80368
24.33222
23.87533
23.43048
22.99535
22.56786
22.14593
21.72775
21.3123
20.89894
20.48705
20.07613
19.66588
19.25618
18.84709
18.4389
18.03187
17.62638
17.2231
16.82257
16.4255
16.0324
15.64426
15.26117
14.8856
14.51719
14.15575
13.80172
13.45545
13.11727
12.78718
12.46535
12.15167
11.84616
11.54877
11.25939
10.97794
10.70436
10.43855
10.18044
9.92988
9.686763
9.450984
9.222439
9.000999
8.786609
8.579318
8.379204
8.186333
8.000773
7.822606
7.651925
7.488809
7.333333
7.185556
7.045506
6.913184
6.788561
6.671579
6.562153
6.460185
6.365538
6.278097
6.197683
6.124076
6.057023
5.996247
5.94146
5.892369
5.848695
5.810052
5.775979
5.746043
5.719831
5.696945
5.677002
5.659646
5.644548
5.631413
5.619967
5.609952
5.601054
5.592875
5.585088
5.577425
5.569623
5.562621
5.556235
5.550287
5.544659
5.539272
5.534061
5.528972
5.523959
5.518987
5.514023
5.509038
5.504009
5.498919
5.49377
5.488584
5.48342
5.478373
5.473563
5.469143
5.465269
5.462022
5.459376
5.457288
5.455621
5.454146
5.452726
5.451323
5.449952
5.448627
5.44737
5.44621
5.445178
5.4443
5.443597
5.443086
5.442778
5.442684
5.442809
5.443155
5.443723
5.444508
5.445506
5.446708
5.448104
5.449681
5.451425
5.453319
5.455346
5.457488
5.459726
5.462041
5.464415
5.46683
5.46927
5.471718
5.474158
5.476573
5.478949
5.481271
5.483526
5.485702
5.487787
5.489773
5.491653
5.493421
5.495073
5.496608
5.498026
5.499327
5.500513
5.501585
5.502547
5.503402
5.504154
5.504812
5.505387
5.505887
5.506323
5.506708
5.507059
5.507394
5.507738
5.508118
5.508547
5.509052
5.509646
5.510345
5.511155
5.512067
5.513076
5.514159
5.515291
5.516437
5.51756
5.518621
5.519576
5.520388
5.521016
5.521427
5.521591
5.521483
5.521084
5.520382
5.519369
5.518045
5.516414
5.514485
5.512271
5.509789
5.507058
5.504099
5.500936
5.497591
5.494087
5.490447
5.486693
5.482849
5.478933
5.474963
5.470955
5.466923
5.462877
5.458823
5.45477
5.450745
5.446627
5.44233
5.437859
5.433297
5.428759
5.424361
5.4202
5.416347
5.41284
5.409693
5.406894
5.404415
5.402214
5.400248
5.398465
5.396823
5.395279
5.393798
5.392352
5.390914
5.389466
5.387991
5.386479
5.384919
5.383296
5.381602
5.379821
5.377935
5.375916
5.373725
5.371306
5.368588
5.365482
5.361897
5.357774
5.353147
5.348126
5.342848
5.33744
5.332025
5.326692
5.321493
5.31645
5.31156
5.30681
5.302182
5.297657
5.293229
5.288896
5.284659
5.280449
5.276237
5.27207
5.267983
5.263985
5.260079
5.256265
5.252544
5.248917
5.245387
5.241936
5.238574
5.235299
5.232113
5.229015
5.226006
5.223088
5.220277
5.217651
5.215549
5.213976
5.212817
5.21193
5.211179
5.210451
5.209652
5.20871
5.207575
5.206212
5.204604
5.202746
5.200645
5.198312
5.195768
5.193033
5.190133
5.187093
5.183936
5.180687
5.177366
5.173994
5.170589
5.167166
5.16374
5.160323
5.156925
5.153555
5.150222
5.146931
5.143689
5.140501
5.13737
5.1343
5.131296
5.128359
5.125494
5.122702
5.119989
5.117359
5.114815
5.112366
5.110016
5.107774
5.105646
5.103632
5.101727
5.099921
5.098207
5.096577
5.095027
5.093554
5.092155
5.090831
5.089577
5.088378
5.087216
5.086073
5.084932
5.083775
5.082586
5.081347
5.080044
5.078666
5.077204
5.075654
5.074015
5.072288
5.07048
5.068597
5.066648
5.064645
5.062597
5.060517
5.058414
5.056299
5.054182
5.052072
5.049975
5.0479
5.04585
5.043831
5.041847
5.039901
5.037993
5.036127
5.034302
5.032519
5.030778
5.029079
5.027421
5.025803
5.024225
5.022684
5.021181
5.019714
5.018282
5.016883
5.015516
5.014179
5.012873
5.011594
5.010342
5.009115
5.007911
5.006729
5.005566
5.004422
5.003294
5.00218
5.001077
4.999983
4.998896
4.997812
4.996729
4.995643
4.994551
4.993448
4.992331
4.991194
4.990031
4.988835
4.9876
4.986316
4.984972
4.983556
4.982052
4.98044
4.978695
4.976789
4.974684
4.972333
4.969682
4.966668
4.963229
4.959318
4.95493
4.950221
4.945895
179.0818
132.5456
196.676
95.82348
81.24473
67.57681
63.46183
60.23728
56.91724
55.32472
53.50941
51.28593
49.33381
47.54039
45.79601
41.96426
41.37226
40.97361
40.72698
40.6349
40.63878
40.76019
41.01914
41.42608
41.98872
42.61124
43.22936
43.99521
44.73836
45.45948
46.23479
46.94386
47.48679
47.78343
47.8336
47.63747
47.20204
46.55268
45.71571
44.72311
43.60798
42.40571
41.15593
39.88539
38.61403
37.36051
36.14178
34.97014
33.85372
32.79781
31.80196
30.86439
29.97991
29.15488
28.38926
27.6764
27.01202
26.39546
25.82318
25.29035
24.79279
24.32653
23.88769
23.47255
23.07777
22.70029
22.3372
21.98561
21.64268
21.30589
20.97166
20.63786
20.30418
19.97043
19.63638
19.30163
18.9657
18.62819
18.28882
17.9474
17.60383
17.25816
16.91047
16.56087
16.20936
15.85687
15.50445
15.15309
14.80356
14.45658
14.11258
13.77232
13.43649
13.10592
12.78097
12.46208
12.14958
11.84372
11.54467
11.25255
10.96743
10.68936
10.41836
10.15441
9.89745
9.647433
9.40429
9.167959
8.93838
8.715506
8.499341
8.289941
8.087382
7.89175
7.70314
7.521659
7.347415
7.180504
7.021012
6.869005
6.724518
6.587563
6.45813
6.33618
6.221661
6.114538
6.014771
5.922135
5.836422
5.757442
5.684999
5.618877
5.558845
5.504649
5.455987
5.412552
5.374049
5.340159
5.310534
5.284811
5.262614
5.243569
5.227308
5.213474
5.201716
5.191681
5.183001
5.175274
5.168117
5.16117
5.154954
5.14946
5.144501
5.139924
5.135613
5.131484
5.127466
5.123504
5.119555
5.115589
5.111583
5.107525
5.103409
5.099242
5.095038
5.090826
5.086647
5.082549
5.078583
5.074798
5.071227
5.067874
5.06472
5.06174
5.058904
5.05618
5.053547
5.050995
5.048522
5.046121
5.043795
5.041551
5.039403
5.037364
5.035451
5.033677
5.032056
5.030602
5.029327
5.028241
5.027351
5.026665
5.026185
5.025914
5.02585
5.025988
5.026323
5.026845
5.027544
5.028406
5.029415
5.030555
5.031809
5.033158
5.034582
5.036062
5.037578
5.039108
5.040633
5.042133
5.043588
5.04498
5.046293
5.047511
5.048623
5.049617
5.050485
5.051223
5.051826
5.052292
5.052623
5.052821
5.052887
5.052827
5.052645
5.052347
5.051938
5.051424
5.050809
5.050101
5.049307
5.048438
5.047504
5.04652
5.045504
5.044461
5.04341
5.042367
5.041346
5.040353
5.039393
5.038466
5.037568
5.036687
5.035808
5.034913
5.033978
5.032981
5.031895
5.030695
5.029356
5.027857
5.026178
5.024303
5.02222
5.01992
5.017401
5.014662
5.011708
5.008546
5.005186
5.001642
4.997927
4.994059
4.990054
4.985929
4.981702
4.977398
4.973034
4.968625
4.964185
4.959727
4.955263
4.950803
4.946357
4.941936
4.937528
4.933113
4.928683
4.924247
4.919831
4.915471
4.911209
4.907086
4.903135
4.899381
4.895839
4.892514
4.8894
4.886487
4.883756
4.881189
4.878763
4.876457
4.874251
4.872124
4.870059
4.86804
4.866052
4.864081
4.862112
4.860132
4.858124
4.85607
4.853948
4.85173
4.849382
4.846862
4.844122
4.841118
4.837821
4.834237
4.830412
4.826412
4.822312
4.818188
4.814102
4.810098
4.806197
4.802404
4.798712
4.795106
4.791576
4.788113
4.784711
4.781369
4.778078
4.77485
4.771637
4.768424
4.765259
4.762156
4.759119
4.756151
4.753254
4.750425
4.747662
4.744966
4.742339
4.739779
4.737289
4.734868
4.732518
4.730243
4.728065
4.726041
4.724207
4.722573
4.721124
4.719833
4.718662
4.717573
4.716525
4.715483
4.714415
4.713296
4.712104
4.710827
4.709454
4.707981
4.706406
4.704732
4.702964
4.701108
4.699172
4.697164
4.695094
4.69297
4.690802
4.688599
4.686369
4.68412
4.681859
4.679595
4.677333
4.67508
4.672841
4.670621
4.668425
4.666259
4.664125
4.662029
4.659974
4.657964
4.656005
4.654101
4.652256
4.650476
4.648766
4.647129
4.645567
4.644078
4.642657
4.6413
4.640003
4.638763
4.637577
4.636443
4.63536
4.634325
4.63333
4.632367
4.631427
4.630503
4.629588
4.628673
4.627751
4.626815
4.625858
4.624874
4.623858
4.622804
4.621712
4.620578
4.619404
4.618191
4.61694
4.615656
4.614342
4.613002
4.611642
4.610267
4.608881
4.607489
4.606095
4.604704
4.603319
4.601942
4.600578
4.599227
4.597892
4.596574
4.595273
4.593992
4.59273
4.591487
4.590263
4.589059
4.587873
4.586707
4.585558
4.584428
4.583314
4.582218
4.581137
4.580072
4.579022
4.577986
4.576963
4.575952
4.574953
4.573964
4.572985
4.572013
4.571047
4.570087
4.56913
4.568174
4.567218
4.566258
4.565293
4.564319
4.563334
4.562333
4.561312
4.560267
4.559192
4.55808
4.556923
4.555713
4.554439
4.553087
4.551643
4.550087
4.548396
4.546545
4.544501
4.542228
4.53969
4.536849
4.533681
4.530185
4.526465
4.52303
80.50709
54.16996
49.25851
46.43875
45.28531
43.84888
42.66423
41.64818
40.772
39.50887
36.36939
36.05486
35.79877
35.60045
35.43825
35.31403
35.2725
35.33408
35.51611
35.79959
36.05027
36.31446
36.65653
37.11388
37.68366
38.36186
39.14431
40.03471
41.01722
42.0675
43.1573
44.07097
44.95615
45.68875
46.23658
46.61659
46.81601
46.79177
46.50159
45.9449
45.15955
44.16691
43.00101
41.70083
40.29868
38.84544
37.3757
35.92212
34.50968
33.15531
31.87061
30.66406
29.54022
28.50039
27.54453
26.6687
25.87289
25.15468
24.50721
23.9235
23.39705
22.9214
22.48751
22.09031
21.72581
21.39019
21.07981
20.79123
20.52125
20.26689
20.02532
19.79339
19.56627
19.3382
19.10987
18.88289
18.65736
18.43173
18.20474
17.97536
17.74275
17.50618
17.26505
17.01893
16.76751
16.51061
16.24821
15.98044
15.70765
15.43076
15.15005
14.86559
14.57761
14.28636
13.99185
13.69504
13.39713
13.09916
12.80223
12.5069
12.214
11.9242
11.63803
11.35598
11.07842
10.80569
10.53804
10.27567
10.01872
9.767309
9.521514
9.281392
9.046989
8.818355
8.595551
8.378668
8.16782
7.963146
7.764795
7.572923
7.387686
7.209236
7.037706
6.873209
6.715837
6.565658
6.422716
6.287037
6.158562
6.037228
5.922965
5.815575
5.714931
5.620992
5.533692
5.452933
5.378587
5.310497
5.248467
5.192247
5.141618
5.096374
5.056255
5.020963
4.990159
4.963481
4.940548
4.920965
4.904334
4.890247
4.878296
4.86806
4.85911
4.851011
4.843923
4.837893
4.832686
4.82809
4.823931
4.820071
4.816403
4.812842
4.80932
4.80579
4.802216
4.798576
4.79486
4.791067
4.787204
4.783288
4.779343
4.775395
4.771473
4.767602
4.763798
4.760067
4.756399
4.75278
4.749201
4.745662
4.742169
4.738735
4.735372
4.732081
4.728858
4.7257
4.72261
4.719593
4.716656
4.71381
4.711064
4.708432
4.705924
4.703553
4.70133
4.699267
4.697373
4.695657
4.694124
4.69278
4.691627
4.690665
4.689893
4.689304
4.688893
4.688649
4.688561
4.688617
4.6888
4.689094
4.689481
4.689941
4.690454
4.690999
4.691553
4.692097
4.692608
4.693067
4.693456
4.693757
4.693956
4.694042
4.694003
4.693834
4.69353
4.693088
4.692508
4.691791
4.690941
4.689961
4.688855
4.687628
4.686283
4.684826
4.68326
4.681591
4.679825
4.677968
4.676028
4.674017
4.671938
4.669808
4.667636
4.665433
4.663209
4.660975
4.658735
4.656494
4.654251
4.652005
4.649749
4.647472
4.645164
4.642809
4.640392
4.637897
4.635307
4.632607
4.629784
4.626825
4.623723
4.620471
4.617066
4.613509
4.609804
4.605955
4.601973
4.597866
4.593648
4.589331
4.584929
4.580456
4.575926
4.571353
4.566749
4.562127
4.557499
4.552874
4.548264
4.543677
4.539123
4.534604
4.530122
4.525678
4.521276
4.516922
4.512627
4.508408
4.50428
4.500262
4.496369
4.492614
4.489005
4.485549
4.482244
4.479088
4.476076
4.473198
4.470444
4.467803
4.465263
4.462814
4.460441
4.458134
4.455881
4.453669
4.451485
4.449317
4.447147
4.444961
4.442737
4.440453
4.438084
4.435603
4.432986
4.430218
4.427299
4.424249
4.4211
4.417896
4.414681
4.411493
4.408364
4.40531
4.402337
4.399442
4.396618
4.393857
4.391152
4.388498
4.385893
4.383336
4.380825
4.378365
4.375941
4.373515
4.371124
4.368779
4.366484
4.364243
4.362048
4.359908
4.35782
4.355782
4.353796
4.351862
4.349979
4.348149
4.346372
4.344654
4.343004
4.341435
4.339955
4.338569
4.337276
4.336071
4.334944
4.333882
4.33287
4.331894
4.330939
4.32999
4.329035
4.328063
4.327067
4.326038
4.324972
4.323865
4.322716
4.321524
4.32029
4.319014
4.3177
4.316351
4.31497
4.31356
4.312127
4.310673
4.309203
4.307721
4.306232
4.304739
4.303247
4.30176
4.30028
4.298813
4.297361
4.295928
4.294518
4.293135
4.291782
4.290464
4.289183
4.287943
4.286747
4.285596
4.284489
4.283425
4.282401
4.281416
4.280466
4.279551
4.27867
4.27782
4.277
4.276205
4.275432
4.274676
4.273934
4.273202
4.272478
4.271757
4.271037
4.270316
4.269589
4.268855
4.26811
4.267353
4.266581
4.265794
4.264991
4.264171
4.263335
4.262484
4.261619
4.260742
4.259854
4.258957
4.258054
4.257145
4.256234
4.255321
4.254409
4.253497
4.252589
4.251684
4.250783
4.249887
4.248996
4.248111
4.24723
4.246356
4.245486
4.244623
4.243764
4.24291
4.242061
4.241217
4.240378
4.239542
4.238711
4.237884
4.23706
4.23624
4.235422
4.234607
4.233793
4.232982
4.23217
4.231359
4.230547
4.229733
4.228915
4.228093
4.227265
4.226428
4.225581
4.224721
4.223845
4.222951
4.222033
4.221088
4.22011
4.219093
4.21803
4.216912
4.21573
4.21447
4.21312
4.211663
4.21008
4.20835
4.20645
4.204356
4.202049
4.199513
4.19675
4.193835
4.191142
98.30104
39.91855
31.49503
29.94751
29.32039
29.09108
29.10342
29.25336
29.4996
29.81905
30.07044
30.17282
30.27511
30.41814
30.60704
30.85371
31.17307
31.57552
32.066
32.62953
33.24393
33.9647
34.7737
35.70076
36.76775
37.98494
39.19722
40.41682
41.60816
42.72138
43.7022
44.51728
45.13978
45.52943
45.65172
45.52598
45.1515
44.52321
43.63035
42.49546
41.16824
39.68683
38.09885
36.45448
34.79393
33.16248
31.59279
30.10803
28.72274
27.44297
26.26876
25.19788
24.22806
23.35758
22.57948
21.88556
21.26882
20.72212
20.23795
19.8095
19.4286
19.08855
18.78444
18.51224
18.26826
18.049
17.8512
17.67192
17.50838
17.35778
17.21637
17.07461
16.93537
16.8026
16.67394
16.54749
16.42161
16.29489
16.16607
16.03411
15.89808
15.7572
15.61079
15.4583
15.29925
15.13331
14.96022
14.77986
14.59224
14.39744
14.19552
13.9867
13.77126
13.54974
13.32328
13.09223
12.85677
12.6172
12.37365