/*--------------------------------*- C++ -*----------------------------------*\
| =========                 |                                                 |
| \\      /  F ield         | foam-extend: Open Source CFD                    |
|  \\    /   O peration     | Version:     3.1                                |
|   \\  /    A nd           | Web:         http://www.extend-project.de       |
|    \\/     M anipulation  |                                                 |
\*---------------------------------------------------------------------------*/
FoamFile
{
    version     2.0;
    format      ascii;
    class       volScalarField;
    location    "3";
    object      p;
}
// * * * * * * * * * * * * * * * * * * * * * * * * * * * * * * * * * * * * * //

dimensions      [1 -1 -2 0 0 0 0];

internalField   nonuniform List<scalar> 
119952
(
9501.442
9237.67
9181.309
9208.851
9239.651
9194.933
9173.143
9153.508
9136.313
9119.844
9103.76
9087.978
9072.329
9056.687
9040.912
9024.933
9008.499
8991.021
8970.612
8937.526
8992.067
8934.16
8902.345
8976.405
8943.538
8938.71
8927.417
8934.594
8994.429
7053.244
9003.056
9005.232
9013.629
9020.723
9029.213
9036.09
9042.935
9049.651
9056.783
9057.465
9045.357
9049.205
9050.153
9051.139
9051.852
9052.305
9052.52
9052.553
9051.762
9024.114
9020.669
9015.744
9013.024
9010.363
9007.226
9003.919
9000.44
8996.312
8992.396
8985.893
8981.169
8976.713
8971.619
8966.391
8961.075
8955.689
8951.661
8956.37
8975.39
8942.883
8926.994
8930.7
8926.112
8911.094
8892.605
8875.895
8860.078
8844.57
8829.394
8814.402
8799.47
8784.526
8769.481
8754.231
8738.639
8722.554
8706.113
8690.42
8679.89
8667.95
8652.19
8654.458
8663.215
8652.109
8640.789
8629.311
8603.675
8540.799
8518.082
8510.858
8497.932
8485.244
8471.769
8457.713
8443.409
8428.897
8414.244
8399.492
8384.67
8369.805
8354.915
8340.012
8325.109
8310.213
8295.334
8280.475
8265.642
8250.838
8236.066
8221.329
8206.627
8191.961
8177.33
8162.734
8148.172
8133.643
8119.143
8104.671
8090.222
8075.794
8061.383
8046.985
8032.596
8018.212
8003.828
7989.44
7975.044
7960.633
7946.202
7931.747
7917.259
7902.734
7888.162
7873.526
7858.801
7843.978
7829.288
7815.096
7800.971
7785.945
7771.036
7756.066
7741.032
7725.943
7710.787
7695.565
7680.276
7664.92
7649.497
7634.005
7618.442
7602.812
7587.116
7571.355
7555.53
7539.645
7523.701
7507.703
7491.652
7475.553
7459.409
7443.225
7427.005
7410.753
7394.476
7378.178
7361.866
7345.545
7329.221
7312.901
7296.591
7280.299
7264.031
7247.794
7231.596
7215.444
7199.345
7183.307
7167.336
7151.441
7135.628
7119.903
7104.271
7088.735
7073.281
7057.871
7042.63
7060.882
7045.884
7031.174
7016.662
7002.322
6988.119
6974.094
6960.248
6946.588
6933.122
6919.856
6906.793
6893.936
6881.29
6868.858
6856.645
6844.653
6832.885
6821.343
6810.03
6798.947
6788.094
6777.473
6767.082
6756.922
6746.989
6737.28
6727.79
6718.513
6709.433
6700.536
6691.788
6683.122
6674.402
6665.285
6655.719
6650.524
6644.873
6639.145
6633.461
6627.901
6622.493
6617.252
6612.189
6607.316
6602.636
6598.15
6593.855
6589.74
6585.887
6582.161
6578.624
6575.274
6572.105
6569.115
6566.3
6563.659
6561.187
6558.882
6556.739
6554.759
6552.936
6551.266
6549.747
6548.378
6547.134
6546.051
6545.108
6544.295
6543.629
6516.131
6513.194
6511.598
6511.294
6511.002
6510.915
6510.969
6511.129
6511.41
6511.792
6512.265
6512.827
6513.472
6514.199
6515.004
6515.884
6516.837
6517.859
6518.948
6520.102
6521.316
6522.59
6523.92
6525.305
6526.741
6528.227
6529.76
6531.337
6532.958
6534.62
6536.321
6538.06
6539.834
6541.642
6543.483
6545.355
6547.259
6549.192
6551.155
6553.15
6555.178
6557.245
6559.361
6561.544
6563.801
6566.005
6567.913
6569.725
6571.632
6573.576
6575.55
6577.559
6579.584
6581.509
6582.334
6584.888
6587.153
6589.15
6591.148
6593.152
6595.161
6597.169
6599.179
6601.188
6603.19
6605.186
6607.172
6609.15
6611.117
6613.073
6615.018
6616.951
6618.87
6620.777
6622.669
6624.546
6626.408
6628.254
6630.084
6631.896
6633.691
6635.467
6637.224
6638.961
6640.678
6642.374
6644.049
6645.702
6647.332
6648.939
6650.522
6652.081
6653.615
6655.124
6656.606
6658.062
6659.49
6660.891
6662.263
6663.605
6664.918
6666.2
6667.452
6668.671
6669.857
6671.01
6672.129
6673.212
6674.26
6675.27
6676.243
6677.177
6678.07
6678.923
6679.732
6680.498
6681.217
6681.889
6682.511
6683.081
6683.596
6684.053
6684.448
6684.776
6685.031
6685.206
6685.293
6685.277
6685.144
6684.871
6684.424
6683.755
6682.788
6681.398
6679.365
6676.382
6672.789
6673.642
6692.975
8304.734
8322.954
8340.693
8358.948
8377.3
8396.048
8415.061
8434.18
8453.148
8448.44
8468.725
8484.083
8499.373
8514.323
8529.133
8543.825
8558.073
8571.817
8561.056
8574.481
8583.25
8594.905
8606.525
8617.926
8629.1
8639.976
8650.38
8660.409
8669.357
8677.148
8686.297
8694.548
8702.352
8709.813
8716.876
8723.586
8730.153
8736.567
8739.18
8743.778
8748.864
8753.356
8757.374
8761.023
8764.309
8767.234
8769.495
8771.147
8773.272
8774.544
8775.309
8775.839
8776.112
8776.123
8775.934
8775.565
8710.972
8709.576
8708.175
8705.842
8702.85
8699.585
8696.151
8692.467
8688.431
8683.985
8679.662
8674.942
8669.781
8664.581
8659.497
8654.682
8650.532
8647.377
8644.859
8641.23
8632.746
8621.488
8612.669
8604.017
8592.5
8578.208
8562.941
8547.894
8533.176
8518.568
8503.956
8489.309
8474.613
8459.839
8444.962
8430
8415.085
8400.52
8386.798
8374.427
8363.42
8353.774
8346.441
8340.255
8330.558
8316.459
8297.82
8274.928
8247.082
8222.732
8206.153
8192.207
8178.165
8163.719
8149.102
8134.439
8119.72
8104.927
8090.071
8075.172
8060.25
8045.316
8030.381
8015.453
8000.54
7985.646
7970.778
7955.939
7941.133
7926.361
7911.626
7896.928
7882.267
7867.643
7853.056
7838.503
7823.982
7809.493
7795.031
7780.593
7766.176
7751.776
7737.389
7723.011
7708.638
7694.265
7679.887
7665.499
7651.097
7636.675
7622.229
7607.751
7593.238
7578.684
7564.088
7549.459
7534.825
7520.22
7505.654
7491.057
7476.316
7461.455
7446.504
7431.484
7416.399
7401.244
7386.021
7370.727
7355.363
7339.93
7324.426
7308.854
7293.214
7277.508
7261.736
7245.901
7230.006
7214.052
7198.042
7181.981
7165.872
7149.718
7133.525
7117.296
7101.036
7084.751
7068.446
7052.128
7035.801
7019.472
7003.149
6986.836
6970.542
6954.274
6938.038
6921.841
6905.692
6889.598
6873.566
6857.603
6841.718
6825.916
6810.206
6794.594
6779.091
6763.721
6748.531
6733.643
6783.54
6769.019
6754.194
6739.646
6725.269
6711.062
6697.034
6683.19
6669.535
6656.075
6642.814
6629.757
6616.907
6604.269
6591.846
6579.642
6567.66
6555.902
6544.371
6533.069
6521.997
6511.156
6500.546
6490.167
6480.018
6470.096
6460.399
6450.922
6441.657
6432.593
6423.716
6415
6406.414
6397.926
6389.597
6381.757
6375.093
6369.024
6363.101
6357.333
6351.721
6346.281
6341.014
6335.943
6331.069
6326.387
6321.898
6317.6
6313.499
6309.595
6305.878
6302.347
6299.001
6295.836
6292.851
6290.042
6287.406
6284.94
6282.641
6280.507
6278.531
6276.714
6275.05
6273.537
6272.171
6270.949
6269.874
6268.942
6268.167
6267.614
6205.826
6205.433
6204.763
6204.281
6204.08
6204.058
6204.152
6204.348
6204.645
6205.041
6205.529
6206.106
6206.767
6207.508
6208.328
6209.223
6210.19
6211.226
6212.328
6213.494
6214.722
6216.008
6217.35
6218.746
6220.193
6221.69
6223.233
6224.821
6226.452
6228.124
6229.834
6231.582
6233.364
6235.181
6237.03
6238.91
6240.821
6242.761
6244.73
6246.729
6248.758
6250.819
6252.91
6255.026
6257.144
6259.218
6261.209
6263.154
6265.111
6267.09
6269.091
6271.111
6273.155
6275.192
6277.063
6278.912
6280.879
6282.873
6284.859
6286.848
6288.847
6290.851
6292.857
6294.861
6296.86
6298.852
6300.836
6302.811
6304.775
6306.728
6308.67
6310.6
6312.516
6314.419
6316.308
6318.182
6320.041
6321.884
6323.71
6325.519
6327.31
6329.083
6330.836
6332.57
6334.283
6335.976
6337.647
6339.296
6340.922
6342.525
6344.104
6345.659
6347.188
6348.692
6350.17
6351.621
6353.044
6354.439
6355.805
6357.142
6358.449
6359.725
6360.97
6362.183
6363.362
6364.508
6365.619
6366.695
6367.735
6368.738
6369.702
6370.627
6371.512
6372.355
6373.155
6373.911
6374.62
6375.282
6375.893
6376.452
6376.956
6377.402
6377.785
6378.101
6378.346
6378.511
6378.589
6378.569
6378.438
6378.178
6377.768
6377.179
6376.384
6375.366
6374.205
6373.146
6372.986
6374.208
6377.484
7228.49
7336.185
7445.809
7553.824
7660.89
7763.332
7857.295
7940.923
8012.07
8065.188
8091.552
8120.572
8138.473
8146.45
8145.935
8139.408
8128.329
8114
8099.346
8047.315
8030.441
8014.241
7999.784
7987.303
7977.056
7969.172
7963.696
7960.764
7961.269
7960.231
7963.506
7968.848
7975.661
7984.219
7994.156
8005.318
8017.698
8031.496
8043.672
8056.161
8071.667
8087.189
8102.764
8118.5
8134.295
8150.073
8165.682
8180.814
8196.713
8212.042
8226.875
8241.549
8256.105
8270.494
8284.681
8299.156
8254.03
8267.067
8279.675
8291.548
8303.091
8314.422
8325.453
8336.097
8346.305
8356.007
8365.416
8374.403
8382.732
8390.597
8398.167
8405.437
8412.347
8418.867
8424.928
8430.571
8435.769
8440.3
8444.476
8448.468
8452.209
8455.616
8458.652
8461.287
8463.532
8465.449
8466.936
8468.031
8468.832
8469.34
8469.528
8469.377
8468.828
8467.837
8466.266
8464.565
8462.517
8459.959
8457.069
8453.962
8450.646
8447.049
8443.166
8438.973
8434.481
8429.74
8424.83
8419.847
8414.865
8410.005
8405.245
8400.607
8395.86
8390.81
8383.352
8373.441
8363.533
8353.867
8342.659
8329.534
8315.482
8301.269
8287.112
8272.935
8258.677
8244.34
8229.941
8215.49
8201.005
8186.545
8172.22
8158.217
8144.777
8132.211
8120.586
8109.657
8099.674
8090.009
8078.484
8063.818
8046.422
8026.385
8004.019
7982.515
7965.337
7950.221
7935.359
7920.418
7905.466
7890.555
7875.656
7860.733
7845.782
7830.812
7815.834
7800.857
7785.886
7770.928
7755.989
7741.075
7726.19
7711.336
7696.518
7681.737
7666.995
7652.292
7637.628
7623.003
7608.416
7593.865
7579.348
7564.863
7550.407
7535.977
7521.569
7507.18
7492.804
7478.439
7464.079
7449.719
7435.357
7420.985
7406.6
7392.196
7377.77
7363.315
7348.829
7334.309
7319.756
7305.175
7290.571
7275.959
7261.348
7246.71
7231.971
7217.121
7202.19
7187.191
7172.124
7156.984
7141.774
7126.491
7111.137
7095.712
7080.216
7064.65
7049.014
7033.311
7017.542
7001.709
6985.814
6969.86
6953.85
6937.787
6921.675
6905.517
6889.318
6873.083
6856.817
6840.524
6824.21
6807.881
6791.543
6775.203
6758.866
6742.54
6726.232
6709.947
6693.695
6677.481
6661.314
6645.202
6629.15
6613.169
6597.265
6581.445
6565.718
6550.091
6534.575
6519.182
6503.896
6488.699
6473.371
6458.68
6444.106
6429.614
6415.27
6401.1
6387.108
6373.298
6359.676
6346.248
6333.02
6319.996
6307.181
6294.579
6282.193
6270.027
6258.085
6246.367
6234.878
6223.619
6212.59
6201.794
6191.23
6180.899
6170.799
6160.929
6151.286
6141.866
6132.666
6123.679
6114.898
6106.32
6097.948
6089.812
6081.99
6074.618
6067.803
6061.434
6055.35
6049.484
6043.823
6038.365
6033.129
6028.052
6023.181
6018.513
6014.044
6009.772
6005.699
6001.822
5998.138
5994.641
5991.329
5988.199
5985.248
5982.473
5979.872
5977.441
5975.176
5973.075
5971.134
5969.35
5967.719
5966.237
5964.902
5963.711
5962.661
5961.75
5960.969
5960.321
5959.686
5959.043
5958.623
5958.412
5958.337
5958.36
5958.477
5958.687
5958.994
5959.394
5959.885
5960.462
5961.122
5961.863
5962.682
5963.576
5964.541
5965.576
5966.678
5967.843
5969.069
5970.355
5971.696
5973.092
5974.539
5976.035
5977.578
5979.166
5980.797
5982.469
5984.179
5985.927
5987.71
5989.527
5991.376
5993.256
5995.166
5997.104
5999.071
6001.064
6003.084
6005.128
6007.192
6009.269
6011.344
6013.4
6015.414
6017.397
6019.38
6021.376
6023.385
6025.404
6027.421
6029.441
6031.468
6033.438
6035.381
6037.33
6039.293
6041.272
6043.264
6045.264
6047.268
6049.27
6051.269
6053.262
6055.248
6057.224
6059.191
6061.147
6063.091
6065.023
6066.942
6068.847
6070.738
6072.615
6074.476
6076.321
6078.15
6079.961
6081.754
6083.529
6085.285
6087.021
6088.737
6090.432
6092.106
6093.757
6095.386
6096.992
6098.573
6100.131
6101.663
6103.169
6104.649
6106.103
6107.528
6108.926
6110.295
6111.634
6112.943
6114.222
6115.468
6116.683
6117.865
6119.013
6120.126
6121.204
6122.246
6123.25
6124.217
6125.144
6126.03
6126.876
6127.678
6128.436
6129.148
6129.813
6130.428
6130.99
6131.499
6131.95
6132.34
6132.666
6132.922
6133.104
6133.204
6133.215
6133.129
6132.936
6132.626
6132.195
6131.65
6131.025
6130.417
6129.985
6129.989
6130.726
6132.213
6391.388
6422.653
6447.778
6467.623
6497.35
6505.814
6546.916
6595.592
6653.255
6711.104
6776.875
6856.591
6943.149
7037.55
7137.126
7238.333
7338.802
7434.104
7521.939
7600.075
7667.213
7723.992
7767.738
7797.563
7816.588
7826.264
7828.224
7824.199
7815.762
7804.869
7794.11
7706.23
7694.713
7683.981
7672.329
7661.94
7653.868
7648.147
7644.664
7643.388
7644.216
7647.134
7651.764
7658.051
7666.033
7675.6
7686.527
7698.595
7711.605
7725.361
7739.687
7754.138
7768.983
7784.353
7800.076
7815.946
7831.847
7847.709
7863.501
7879.187
7894.642
7909.835
7924.841
7939.66
7954.227
7968.531
7982.454
7996.275
8010.182
8023.159
8035.239
8046.994
8058.617
8070.017
8081.075
8091.725
8101.94
8111.733
8121.074
8129.905
8138.287
8146.278
8153.9
8161.153
8168.011
8174.451
8180.484
8186.101
8191.174
8195.733
8199.978
8203.977
8207.673
8211.006
8213.955
8216.536
8218.738
8220.549
8222.018
8223.155
8223.948
8224.406
8224.523
8224.289
8223.673
8222.681
8221.287
8219.523
8217.427
8215.011
8212.292
8209.28
8205.981
8202.383
8198.488
8194.276
8189.775
8185.073
8180.195
8175.164
8170.012
8164.783
8159.445
8153.998
8148.269
8141.986
8134.302
8125.074
8115.223
8105.071
8093.897
8081.557
8068.378
8054.824
8041.124
8027.308
8013.371
7999.331
7985.216
7971.056
7956.884
7942.757
7928.759
7915.012
7901.666
7888.86
7876.619
7864.802
7853.262
7841.567
7828.682
7813.871
7797.16
7778.756
7759.185
7740.317
7723.249
7707.369
7691.944
7676.666
7661.482
7646.378
7631.322
7616.28
7601.238
7586.198
7571.164
7556.14
7541.132
7526.144
7511.18
7496.245
7481.342
7466.476
7451.647
7436.859
7422.112
7407.406
7392.742
7378.119
7363.536
7348.991
7334.482
7320.007
7305.561
7291.143
7276.749
7262.373
7248.013
7233.664
7219.322
7204.981
7190.637
7176.285
7161.921
7147.539
7133.136
7118.707
7104.249
7089.76
7075.239
7060.687
7046.107
7031.504
7016.877
7002.206
6987.457
6972.622
6957.71
6942.728
6927.673
6912.546
6897.347
6882.076
6866.731
6851.313
6835.823
6820.262
6804.63
6788.929
6773.161
6757.327
6741.43
6725.472
6709.457
6693.387
6677.267
6661.101
6644.892
6628.645
6612.366
6596.059
6579.731
6563.386
6547.031
6530.672
6514.317
6497.971
6481.642
6465.336
6449.061
6432.825
6416.635
6400.498
6384.422
6368.416
6352.487
6336.642
6320.889
6305.238
6289.693
6274.263
6258.943
6243.749
6228.687
6213.931
6199.319
6184.803
6170.433
6156.235
6142.215
6128.375
6114.724
6101.267
6088.01
6074.957
6062.114
6049.484
6037.072
6024.88
6012.911
6001.17
5989.656
5978.374
5967.324
5956.507
5945.924
5935.575
5925.46
5915.577
5905.926
5896.505
5887.31
5878.342
5869.6
5861.088
5852.819
5844.821
5837.14
5829.835
5822.953
5816.455
5810.248
5804.281
5798.539
5793.016
5787.712
5782.609
5777.712
5773.019
5768.529
5764.24
5760.148
5756.25
5752.553
5749.034
5745.707
5742.563
5739.599
5736.813
5734.201
5731.761
5729.488
5727.379
5725.43
5723.638
5722
5720.512
5719.169
5717.97
5716.909
5715.981
5715.176
5714.492
5713.896
5713.393
5713.029
5712.798
5712.686
5712.686
5712.791
5712.998
5713.304
5713.704
5714.196
5714.775
5715.438
5716.182
5717.004
5717.901
5718.87
5719.909
5721.014
5722.183
5723.414
5724.703
5726.048
5727.448
5728.898
5730.398
5731.945
5733.537
5735.172
5736.847
5738.561
5740.312
5742.098
5743.918
5745.769
5747.651
5749.562
5751.5
5753.465
5755.454
5757.466
5759.498
5761.545
5763.601
5765.657
5767.702
5769.727
5771.734
5773.739
5775.751
5777.768
5779.79
5781.813
5783.84
5785.861
5787.845
5789.809
5791.782
5793.767
5795.761
5797.763
5799.768
5801.774
5803.779
5805.779
5807.774
5809.762
5811.741
5813.71
5815.669
5817.616
5819.551
5821.473
5823.382
5825.277
5827.156
5829.021
5830.869
5832.701
5834.515
5836.312
5838.09
5839.849
5841.589
5843.308
5845.006
5846.683
5848.338
5849.97
5851.578
5853.163
5854.724
5856.259
5857.769
5859.252
5860.708
5862.137
5863.538
5864.91
5866.252
5867.565
5868.846
5870.096
5871.314
5872.499
5873.65
5874.766
5875.848
5876.893
5877.901
5878.87
5879.801
5880.692
5881.542
5882.348
5883.111
5883.829
5884.5
5885.121
5885.692
5886.21
5886.672
5887.076
5887.417
5887.694
5887.902
5888.035
5888.091
5888.065
5887.954
5887.759
5887.486
5887.155
5886.806
5886.509
5886.359
5886.483
5886.947
5887.791
6088.28
6092.972
6099.873
6087.109
6086.979
6059.129
6064.506
6071.854
6081.456
6093.253
6107.933
6121.907
6140.324
6161.374
6184.599
6211.091
6191.72
6230.582
6272.687
6322.25
6380.644
6450.458
6530.696
6619.115
6714.567
6815.073
6917.125
7017.754
7113.842
7202.05
7280.075
7346.478
7400.709
7442.254
7471.043
7488.606
7496.923
7497.779
7492.92
7483.761
7471.478
7457.121
7441.195
7428.321
7417.654
7407.392
7398.495
7391.959
7387.727
7385.6
7385.589
7387.667
7391.64
7397.352
7404.786
7413.839
7424.349
7436.12
7448.949
7462.647
7477.039
7491.903
7507.008
7522.48
7538.377
7554.526
7570.752
7586.956
7603.091
7619.1
7634.929
7650.571
7665.997
7681.167
7696.088
7710.734
7725.103
7739.194
7752.997
7766.469
7779.325
7791.612
7803.576
7815.291
7826.697
7837.722
7848.331
7858.512
7868.257
7877.54
7886.372
7894.794
7902.809
7910.415
7917.619
7924.418
7930.805
7936.778
7942.31
7947.373
7952.013
7956.3
7960.261
7963.881
7967.137
7970.024
7972.548
7974.703
7976.495
7977.951
7979.063
7979.826
7980.246
7980.321
7980.049
7979.42
7978.429
7977.048
7975.296
7973.221
7970.83
7968.112
7965.071
7961.723
7958.077
7954.131
7949.884
7945.367
7940.615
7935.641
7930.46
7925.085
7919.53
7913.768
7907.75
7901.325
7894.287
7886.322
7877.301
7867.504
7857.112
7846.107
7834.208
7821.592
7808.541
7795.238
7781.754
7768.114
7754.349
7740.493
7726.581
7712.652
7698.757
7684.96
7671.342
7657.984
7644.941
7632.203
7619.65
7607.087
7594.213
7580.522
7565.606
7549.411
7532.191
7514.365
7496.734
7479.86
7463.742
7448.076
7432.619
7417.283
7402.036
7386.85
7371.699
7356.569
7341.456
7326.361
7311.287
7296.236
7281.211
7266.217
7251.257
7236.335
7221.452
7206.612
7191.815
7177.062
7162.354
7147.691
7133.072
7118.494
7103.958
7089.459
7074.995
7060.564
7046.161
7031.783
7017.426
7003.085
6988.756
6974.435
6960.116
6945.794
6931.465
6917.125
6902.768
6888.39
6873.987
6859.556
6845.095
6830.602
6816.075
6801.515
6786.921
6772.288
6757.605
6742.855
6728.03
6713.131
6698.159
6683.114
6667.997
6652.805
6637.539
6622.2
6606.785
6591.297
6575.736
6560.102
6544.398
6528.625
6512.784
6496.879
6480.911
6464.884
6448.801
6432.666
6416.484
6400.257
6383.991
6367.691
6351.363
6335.011
6318.641
6302.261
6285.875
6269.492
6253.117
6236.758
6220.422
6204.117
6187.849
6171.626
6155.456
6139.347
6123.306
6107.342
6091.463
6075.676
6059.99
6044.413
6028.954
6013.62
5998.431
5983.4
5968.555
5953.862
5939.304
5924.902
5910.672
5896.619
5882.75
5869.071
5855.587
5842.305
5829.228
5816.362
5803.711
5791.279
5779.068
5767.083
5755.325
5743.798
5732.503
5721.442
5710.617
5700.027
5689.674
5679.557
5669.677
5660.033
5650.625
5641.452
5632.516
5623.82
5615.371
5607.182
5599.272
5591.669
5584.405
5577.498
5570.925
5564.639
5558.606
5552.812
5547.248
5541.906
5536.779
5531.862
5527.153
5522.651
5518.352
5514.254
5510.352
5506.64
5503.13
5499.806
5496.665
5493.702
5490.918
5488.309
5485.871
5483.602
5481.497
5479.552
5477.765
5476.131
5474.647
5473.309
5472.112
5471.053
5470.126
5469.325
5468.648
5468.082
5467.621
5467.274
5467.047
5466.937
5466.942
5467.054
5467.268
5467.582
5467.989
5468.489
5469.075
5469.747
5470.499
5471.33
5472.236
5473.214
5474.261
5475.375
5476.553
5477.792
5479.09
5480.444
5481.851
5483.31
5484.818
5486.373
5487.973
5489.614
5491.297
5493.018
5494.776
5496.568
5498.393
5500.25
5502.137
5504.051
5505.992
5507.958
5509.946
5511.954
5513.98
5516.019
5518.065
5520.113
5522.157
5524.19
5526.215
5528.237
5530.262
5532.289
5534.319
5536.349
5538.376
5540.394
5542.396
5544.391
5546.388
5548.391
5550.398
5552.407
5554.418
5556.428
5558.436
5560.44
5562.438
5564.428
5566.41
5568.383
5570.345
5572.297
5574.236
5576.162
5578.075
5579.973
5581.857
5583.725
5585.578
5587.414
5589.232
5591.033
5592.815
5594.578
5596.321
5598.044
5599.746
5601.427
5603.085
5604.721
5606.333
5607.922
5609.486
5611.025
5612.539
5614.026
5615.486
5616.919
5618.324
5619.699
5621.046
5622.362
5623.648
5624.902
5626.124
5627.313
5628.468
5629.589
5630.675
5631.726
5632.739
5633.714
5634.651
5635.548
5636.404
5637.218
5637.988
5638.715
5639.395
5640.027
5640.611
5641.143
5641.621
5642.044
5642.409
5642.714
5642.956
5643.133
5643.242
5643.284
5643.259
5643.173
5643.037
5642.872
5642.711
5642.602
5642.603
5642.784
5643.134
5643.746
6037.183
6017.773
5996.541
5962.68
5942.998
5892.314
5875.911
5861.195
5848.093
5837.057
5827.081
5819.925
5815.163
5812.362
5811.255
5755.687
5761.852
5769.222
5778.884
5790.553
5804.211
5820.232
5838.303
5857.703
5877.869
5900.332
5927.589
5961.842
6000.943
6047.059
6102.659
6168.805
6245.909
6332.682
6427.021
6526.499
6628.091
6728.382
6824.066
6912.016
6989.877
7056.15
7110.197
7151.889
7181.52
7200.328
7210.095
7212.59
7209.466
7202.158
7191.855
7180.241
7168.238
7157.31
7147.711
7139.072
7131.782
7126.424
7123.35
7122.564
7123.95
7127.378
7132.706
7139.816
7148.592
7158.887
7170.542
7183.364
7197.164
7211.771
7226.968
7242.595
7258.555
7274.808
7291.314
7307.973
7324.673
7341.328
7357.877
7374.266
7390.459
7406.431
7422.14
7437.549
7452.682
7467.478
7481.974
7496.14
7509.92
7523.323
7536.284
7548.789
7560.894
7572.646
7584.033
7595.025
7605.6
7615.748
7625.46
7634.732
7643.572
7651.988
7659.982
7667.557
7674.72
7681.473
7687.813
7693.731
7699.221
7704.286
7708.942
7713.216
7717.128
7720.686
7723.884
7726.72
7729.198
7731.318
7733.086
7734.512
7735.594
7736.333
7736.73
7736.773
7736.464
7735.814
7734.807
7733.417
7731.661
7729.565
7727.134
7724.367
7721.273
7717.863
7714.145
7710.125
7705.809
7701.211
7696.347
7691.228
7685.863
7680.256
7674.4
7668.261
7661.781
7654.85
7647.345
7639.115
7630.073
7620.309
7609.94
7598.963
7587.307
7575.061
7562.383
7549.407
7536.205
7522.82
7509.288
7495.645
7481.928
7468.176
7454.432
7440.742
7427.157
7413.718
7400.441
7387.295
7374.183
7360.949
7347.387
7333.227
7318.248
7302.419
7285.914
7269.004
7252.087
7235.532
7219.439
7203.68
7188.109
7172.655
7157.29
7141.991
7126.739
7111.522
7096.334
7081.174
7066.043
7050.943
7035.878
7020.85
7005.861
6990.916
6976.015
6961.16
6946.354
6931.596
6916.886
6902.225
6887.61
6873.04
6858.513
6844.027
6829.578
6815.164
6800.779
6786.421
6772.084
6757.765
6743.459
6729.16
6714.865
6700.567
6686.262
6671.946
6657.613
6643.26
6628.881
6614.475
6600.036
6585.564
6571.056
6556.509
6541.921
6527.287
6512.598
6497.846
6483.022
6468.126
6453.157
6438.113
6422.995
6407.802
6392.533
6377.187
6361.766
6346.268
6330.695
6315.049
6299.33
6283.539
6267.68
6251.754
6235.764
6219.713
6203.605
6187.442
6171.23
6154.973
6138.676
6122.342
6105.979
6089.591
6073.184
6056.766
6040.341
6023.918
6007.503
5991.103
5974.725
5958.378
5942.068
5925.804
5909.593
5893.443
5877.363
5861.362
5845.446
5829.625
5813.906
5798.299
5782.811
5767.453
5752.236
5737.167
5722.263
5707.518
5692.927
5678.499
5664.244
5650.168
5636.278
5622.579
5609.078
5595.78
5582.689
5569.811
5557.149
5544.708
5532.491
5520.5
5508.74
5497.212
5485.918
5474.861
5464.041
5453.46
5443.118
5433.016
5423.155
5413.535
5404.156
5395.02
5386.128
5377.485
5369.097
5360.975
5353.132
5345.586
5338.352
5331.439
5324.833
5318.508
5312.444
5306.625
5301.041
5295.685
5290.55
5285.63
5280.923
5276.425
5272.133
5268.043
5264.152
5260.453
5256.948
5253.633
5250.513
5247.558
5244.787
5242.194
5239.772
5237.518
5235.429
5233.5
5231.728
5230.11
5228.641
5227.317
5226.135
5225.089
5224.176
5223.39
5222.728
5222.18
5221.743
5221.421
5221.215
5221.126
5221.148
5221.276
5221.505
5221.833
5222.255
5222.769
5223.369
5224.054
5224.821
5225.665
5226.584
5227.575
5228.635
5229.762
5230.952
5232.204
5233.514
5234.879
5236.299
5237.769
5239.288
5240.853
5242.463
5244.115
5245.807
5247.538
5249.304
5251.105
5252.938
5254.801
5256.694
5258.614
5260.559
5262.527
5264.516
5266.525
5268.549
5270.585
5272.629
5274.676
5276.723
5278.765
5280.803
5282.84
5284.877
5286.915
5288.954
5290.992
5293.026
5295.055
5297.076
5299.091
5301.105
5303.121
5305.137
5307.154
5309.172
5311.187
5313.199
5315.207
5317.208
5319.202
5321.188
5323.165
5325.131
5327.086
5329.028
5330.958
5332.875
5334.777
5336.665
5338.537
5340.394
5342.233
5344.055
5345.86
5347.645
5349.412
5351.159
5352.886
5354.592
5356.276
5357.938
5359.578
5361.194
5362.786
5364.354
5365.897
5367.415
5368.906
5370.37
5371.807
5373.215
5374.595
5375.946
5377.266
5378.556
5379.815
5381.041
5382.235
5383.396
5384.522
5385.614
5386.669
5387.688
5388.67
5389.613
5390.517
5391.381
5392.204
5392.984
5393.72
5394.412
5395.057
5395.655
5396.204
5396.701
5397.147
5397.539
5397.875
5398.154
5398.376
5398.541
5398.649
5398.705
5398.715
5398.692
5398.654
5398.627
5398.645
5398.742
5398.961
5399.277
5399.807
6042.338
5969.269
5906.104
5847.34
5799.661
5763.124
5733.413
5708.595
5687.199
5667.247
5586.325
5570.488
5555.872
5543.041
5532.093
5523.251
5516.57
5512.062
5509.702
5509.917
5511.373
5516.669
5523.605
5532.587
5543.619
5555.955
5569.615
5585.091
5602.504
5621.771
5643.412
5668.207
5698.564
5735.446
5779.545
5832.634
5896.267
5970.675
6054.655
6146.183
6242.819
6341.495
6438.817
6531.515
6616.652
6691.973
6756.078
6808.39
6849.007
6878.517
6898.06
6909.174
6913.549
6912.732
6908.058
6900.827
6892.572
6883.978
6875.576
6868.021
6861.585
6856.443
6852.996
6851.816
6853.013
6856.382
6861.744
6868.969
6877.922
6888.444
6900.353
6913.524
6927.783
6942.875
6958.689
6975.086
6991.89
7008.945
7026.173
7043.521
7060.919
7078.282
7095.532
7112.61
7129.472
7146.082
7162.41
7178.435
7194.156
7209.52
7224.57
7239.248
7253.55
7267.443
7280.941
7293.999
7306.617
7318.796
7330.573
7341.958
7352.939
7363.495
7373.624
7383.32
7392.581
7401.405
7409.797
7417.761
7425.302
7432.426
7439.134
7445.425
7451.297
7456.749
7461.787
7466.419
7470.66
7474.529
7478.036
7481.183
7483.972
7486.407
7488.492
7490.231
7491.629
7492.679
7493.397
7493.78
7493.796
7493.445
7492.733
7491.662
7490.232
7488.449
7486.318
7483.843
7481.025
7477.871
7474.386
7470.574
7466.448
7462.017
7457.287
7452.266
7446.963
7441.382
7435.517
7429.356
7422.866
7415.997
7408.679
7400.829
7392.362
7383.227
7373.451
7363.09
7352.162
7340.671
7328.672
7316.26
7303.531
7290.55
7277.365
7264.014
7250.533
7236.959
7223.324
7209.665
7196.015
7182.406
7168.856
7155.365
7141.9
7128.385
7114.708
7100.733
7086.305
7071.303
7055.714
7039.643
7023.268
7006.83
6990.557
6974.542
6958.746
6943.1
6927.558
6912.1
6896.709
6881.37
6866.074
6850.817
6835.596
6820.412
6805.267
6790.163
6775.103
6760.088
6745.122
6730.206
6715.342
6700.53
6685.771
6671.064
6656.409
6641.804
6627.248
6612.737
6598.27
6583.842
6569.45
6555.09
6540.758
6526.449
6512.158
6497.88
6483.611
6469.344
6455.076
6440.802
6426.515
6412.211
6397.887
6383.536
6369.157
6354.744
6340.295
6325.807
6311.276
6296.699
6282.07
6267.384
6252.635
6237.815
6222.923
6207.957
6192.916
6177.798
6162.602
6147.329
6131.977
6116.547
6101.039
6085.453
6069.792
6054.055
6038.245
6022.364
6006.414
5990.398
5974.319
5958.181
5941.987
5925.741
5909.449
5893.115
5876.743
5860.34
5843.911
5827.462
5811.001
5794.532
5778.064
5761.604
5745.158
5728.735
5712.341
5695.986
5679.676
5663.42
5647.226
5631.103
5615.06
5599.104
5583.243
5567.486
5551.842
5536.319
5520.927
5505.673
5490.568
5475.62
5460.835
5446.211
5431.754
5417.471
5403.371
5389.458
5375.739
5362.219
5348.904
5335.799
5322.909
5310.237
5297.787
5285.564
5273.57
5261.808
5250.281
5238.991
5227.94
5217.129
5206.559
5196.233
5186.15
5176.311
5166.718
5157.371
5148.272
5139.423
5130.829
5122.495
5114.429
5106.639
5099.137
5091.93
5085.022
5078.406
5072.065
5065.986
5060.155
5054.563
5049.203
5044.068
5039.152
5034.452
5029.964
5025.683
5021.606
5017.729
5014.048
5010.559
5007.259
5004.139
5001.219
4998.472
4995.899
4993.498
4991.265
4989.196
4987.287
4985.536
4983.938
4982.489
4981.184
4980.021
4978.995
4978.101
4977.335
4976.692
4976.168
4975.758
4975.463
4975.283
4975.216
4975.259
4975.406
4975.655
4976.001
4976.441
4976.972
4977.59
4978.293
4979.076
4979.937
4980.872
4981.879
4982.955
4984.098
4985.303
4986.569
4987.894
4989.274
4990.707
4992.191
4993.723
4995.301
4996.923
4998.587
5000.291
5002.032
5003.809
5005.619
5007.461
5009.333
5011.234
5013.16
5015.111
5017.084
5019.077
5021.088
5023.114
5025.151
5027.197
5029.247
5031.299
5033.35
5035.4
5037.45
5039.499
5041.548
5043.598
5045.645
5047.69
5049.731
5051.767
5053.798
5055.827
5057.855
5059.882
5061.908
5063.932
5065.954
5067.972
5069.985
5071.991
5073.99
5075.98
5077.961
5079.931
5081.891
5083.838
5085.772
5087.693
5089.6
5091.492
5093.368
5095.228
5097.072
5098.899
5100.707
5102.497
5104.268
5106.019
5107.75
5109.46
5111.148
5112.815
5114.458
5116.079
5117.675
5119.248
5120.795
5122.316
5123.812
5125.28
5126.722
5128.135
5129.519
5130.875
5132.2
5133.495
5134.758
5135.99
5137.19
5138.356
5139.488
5140.585
5141.647
5142.673
5143.661
5144.612
5145.524
5146.397
5147.229
5148.019
5148.767
5149.471
5150.131
5150.744
5151.311
5151.829
5152.299
5152.718
5153.086
5153.404
5153.67
5153.888
5154.058
5154.186
5154.28
5154.351
5154.414
5154.489
5154.6
5154.77
5155.026
5155.342
5155.847
5755.712
5680.408
5548.961
5507.064
5471.711
5442.734
5418.447
5397.291
5378.098
5360.38
5343.608
5327.956
5313.443
5300.484
5289.346
5280.224
5273.271
5268.654
5266.43
5266.328
5268.702
5273.934
5280.773
5289.03
5298.505
5309.507
5321.803
5335.541
5351.231
5369.227
5390.017
5413.894
5442.588
5477.741
5520.14
5571.046
5631.825
5702.688
5782.603
5869.724
5961.53
6054.939
6146.687
6233.719
6313.452
6383.966
6444.139
6493.549
6532.392
6561.368
6581.541
6594.204
6600.93
6603.055
6601.705
6597.985
6592.883
6587.256
6581.882
6577.298
6573.705
6571.496
6571.162
6572.97
6576.934
6582.921
6590.795
6600.43
6611.688
6624.401
6638.363
6653.445
6669.51
6686.413
6703.877
6721.759
6739.927
6758.251
6776.64
6795.03
6813.355
6831.546
6849.537
6867.279
6884.732
6901.868
6918.665
6935.108
6951.185
6966.863
6982.139
6997.005
7011.463
7025.516
7039.133
7052.317
7065.034
7077.296
7089.128
7100.525