/*--------------------------------*- C++ -*----------------------------------*\
| =========                 |                                                 |
| \\      /  F ield         | foam-extend: Open Source CFD                    |
|  \\    /   O peration     | Version:     3.1                                |
|   \\  /    A nd           | Web:         http://www.extend-project.de       |
|    \\/     M anipulation  |                                                 |
\*---------------------------------------------------------------------------*/
FoamFile
{
    version     2.0;
    format      ascii;
    class       volScalarField;
    location    "3";
    object      pd;
}
// * * * * * * * * * * * * * * * * * * * * * * * * * * * * * * * * * * * * * //

dimensions      [1 -1 -2 0 0 0 0];

internalField   nonuniform List<scalar> 
119952
(
9532.137
9275.084
9218.103
9242.378
9270.363
9226.284
9205.108
9186.086
9169.504
9153.648
9138.177
9123.008
9107.973
9092.943
9077.781
9062.415
9046.595
9029.729
9009.934
8977.461
9027.355
8969.71
8938.153
9007.067
8974.2
8969.372
8958.079
8965.256
9025.124
7083.938
9293.542
9292.176
9297.307
9301.133
9306.355
9309.961
9313.544
9316.992
9320.856
9319.39
9321.264
9325.111
9326.06
9327.046
9327.758
9328.211
9328.427
9328.459
9327.668
9330.676
9327.231
9322.306
9319.586
9316.925
9313.788
9310.482
9307.002
9302.874
9298.959
9292.456
9287.732
9283.276
9278.181
9272.953
9267.638
9262.251
9258.224
9262.932
9281.952
9249.445
9233.557
9237.263
9232.674
9217.656
9199.168
9182.458
9166.64
9151.132
9135.956
9120.965
9106.032
9091.089
9076.044
9060.793
9045.202
9029.117
9012.676
8996.982
8986.453
8974.513
8958.753
8961.02
8969.778
8958.671
8947.351
8935.874
8910.237
8847.362
8824.645
8817.42
8804.495
8791.807
8778.332
8764.275
8749.971
8735.459
8720.807
8706.054
8691.233
8676.368
8661.477
8646.575
8631.671
8616.776
8601.896
8587.037
8572.204
8557.4
8542.629
8527.891
8513.189
8498.523
8483.893
8469.297
8454.735
8440.205
8425.706
8411.233
8396.785
8382.357
8367.945
8353.547
8339.159
8324.775
8310.391
8296.003
8281.606
8267.195
8252.765
8238.309
8223.822
8209.297
8194.724
8180.089
8165.363
8150.541
8135.85
8121.658
8107.533
8092.508
8077.599
8062.628
8047.594
8032.506
8017.35
8002.128
7986.838
7971.482
7956.06
7940.567
7925.005
7909.375
7893.679
7877.917
7862.093
7846.207
7830.264
7814.265
7798.214
7782.115
7765.971
7749.787
7733.567
7717.316
7701.038
7684.741
7668.428
7652.107
7635.784
7619.463
7603.154
7586.862
7570.593
7554.357
7538.158
7522.006
7505.907
7489.869
7473.899
7458.004
7442.19
7426.465
7410.834
7395.297
7379.843
7364.434
7349.192
7336.789
7321.79
7307.08
7292.568
7278.228
7264.025
7250
7236.154
7222.494
7209.028
7195.762
7182.699
7169.842
7157.196
7144.765
7132.551
7120.559
7108.791
7097.249
7085.936
7074.853
7064
7053.379
7042.989
7032.828
7022.895
7013.186
7003.696
6994.419
6985.339
6976.442
6967.695
6959.029
6950.308
6941.191
6931.625
6926.431
6920.779
6915.051
6909.367
6903.807
6898.399
6893.158
6888.096
6883.223
6878.542
6874.056
6869.761
6865.646
6861.794
6858.067
6854.531
6851.18
6848.011
6845.021
6842.207
6839.565
6837.093
6834.788
6832.646
6830.665
6828.842
6827.172
6825.653
6824.284
6823.04
6821.957
6821.014
6820.202
6819.535
6822.693
6819.756
6818.161
6817.856
6817.565
6817.478
6817.532
6817.691
6817.973
6818.354
6818.828
6819.389
6820.035
6820.762
6821.567
6822.447
6823.4
6824.422
6825.511
6826.664
6827.879
6829.153
6830.483
6831.867
6833.304
6834.789
6836.322
6837.9
6839.521
6841.183
6842.884
6844.622
6846.396
6848.204
6850.045
6851.918
6853.821
6855.754
6857.718
6859.713
6861.741
6863.808
6865.923
6868.106
6870.364
6872.568
6874.476
6876.287
6878.195
6880.138
6882.113
6884.121
6886.147
6888.071
6888.896
6891.451
6893.715
6895.713
6897.711
6899.715
6901.723
6903.731
6905.742
6907.75
6909.753
6911.748
6913.735
6915.712
6917.679
6919.636
6921.581
6923.513
6925.433
6927.339
6929.231
6931.109
6932.971
6934.817
6936.646
6938.459
6940.253
6942.029
6943.786
6945.523
6947.24
6948.937
6950.611
6952.264
6953.894
6955.501
6957.085
6958.644
6960.178
6961.686
6963.169
6964.624
6966.053
6967.453
6968.825
6970.168
6971.481
6972.763
6974.014
6975.233
6976.42
6977.573
6978.691
6979.775
6980.822
6981.833
6982.805
6983.739
6984.633
6985.485
6986.295
6987.06
6987.78
6988.452
6989.074
6989.644
6990.159
6990.616
6991.01
6991.338
6991.594
6991.769
6991.855
6991.84
6991.707
6991.433
6990.986
6990.317
6989.351
6987.96
6985.927
6982.944
6979.352
6980.205
6999.537
8838.577
8853.515
8867.987
8882.974
8898.06
8913.54
8929.285
8945.137
8961.001
8969.596
8989.881
9005.239
9020.53
9035.479
9050.29
9064.982
9079.23
9092.973
9112.869
9126.294
9135.063
9146.718
9158.338
9169.739
9180.913
9191.788
9202.193
9212.221
9221.17
9228.96
9238.11
9246.36
9254.164
9261.626
9268.688
9275.398
9281.965
9288.379
9290.992
9295.59
9300.676
9305.169
9309.186
9312.835
9316.121
9319.046
9321.307
9322.959
9325.084
9326.357
9327.122
9327.651
9327.924
9327.935
9327.746
9327.377
9324.097
9322.701
9321.3
9318.967
9315.975
9312.71
9309.276
9305.592
9301.556
9297.11
9292.787
9288.067
9282.906
9277.706
9272.622
9267.808
9263.657
9260.502
9257.984
9254.355
9245.871
9234.613
9225.794
9217.142
9205.625
9191.333
9176.066
9161.019
9146.301
9131.693
9117.081
9102.434
9087.738
9072.964
9058.087
9043.125
9028.21
9013.646
8999.923
8987.552
8976.545
8966.899
8959.566
8953.38
8943.683
8929.584
8910.945
8888.053
8860.207
8835.857
8819.278
8805.332
8791.29
8776.844
8762.227
8747.564
8732.845
8718.052
8703.196
8688.297
8673.375
8658.441
8643.506
8628.578
8613.665
8598.771
8583.903
8569.064
8554.258
8539.486
8524.751
8510.053
8495.392
8480.768
8466.181
8451.628
8437.107
8422.618
8408.156
8393.718
8379.301
8364.901
8350.514
8336.136
8321.763
8307.39
8293.012
8278.624
8264.222
8249.8
8235.354
8220.876
8206.363
8191.809
8177.213
8162.584
8147.95
8133.345
8118.779
8104.182
8089.441
8074.58
8059.629
8044.609
8029.524
8014.369
7999.146
7983.852
7968.488
7953.055
7937.551
7921.979
7906.339
7890.633
7874.861
7859.026
7843.131
7827.177
7811.167
7795.106
7778.997
7762.843
7746.65
7730.421
7714.161
7697.876
7681.571
7665.253
7648.926
7632.597
7616.274
7599.961
7583.667
7567.399
7551.163
7534.966
7518.817
7502.723
7486.691
7470.728
7454.843
7439.041
7423.331
7407.719
7392.216
7376.846
7361.656
7346.768
7335.352
7320.831
7306.007
7291.459
7277.081
7262.875
7248.847
7235.003
7221.348
7207.888
7194.627
7181.569
7168.72
7156.081
7143.659
7131.455
7119.472
7107.715
7096.184
7084.881
7073.809
7062.968
7052.358
7041.98
7031.83
7021.909
7012.212
7002.734
6993.469
6984.406
6975.528
6966.813
6958.226
6949.738
6941.41
6933.57
6926.905
6920.837
6914.913
6909.146
6903.533
6898.094
6892.826
6887.756
6882.881
6878.2
6873.711
6869.412
6865.311
6861.408
6857.69
6854.16
6850.813
6847.649
6844.664
6841.855
6839.219
6836.753
6834.454
6832.319
6830.344
6828.526
6826.862
6825.349
6823.983
6822.761
6821.686
6820.755
6819.98
6819.427
6818.951
6818.558
6817.888
6817.406
6817.205
6817.183
6817.277
6817.473
6817.77
6818.166
6818.654
6819.231
6819.892
6820.633
6821.453
6822.348
6823.315
6824.351
6825.453
6826.619
6827.847
6829.133
6830.475
6831.871
6833.318
6834.815
6836.358
6837.946
6839.577
6841.249
6842.959
6844.707
6846.489
6848.306
6850.155
6852.035
6853.946
6855.886
6857.855
6859.854
6861.883
6863.944
6866.035
6868.151
6870.269
6872.343
6874.334
6876.279
6878.236
6880.215
6882.216
6884.236
6886.28
6888.317
6890.188
6892.037
6894.004
6895.998
6897.984
6899.973
6901.972
6903.976
6905.982
6907.986
6909.985
6911.977
6913.961
6915.936
6917.9
6919.853
6921.795
6923.725
6925.641
6927.544
6929.433
6931.307
6933.166
6935.009
6936.835
6938.644
6940.435
6942.208
6943.961
6945.695
6947.408
6949.101
6950.772
6952.421
6954.047
6955.65
6957.229
6958.784
6960.313
6961.817
6963.295
6964.746
6966.169
6967.564
6968.93
6970.267
6971.574
6972.85
6974.095
6975.308
6976.487
6977.633
6978.744
6979.82
6980.86
6981.863
6982.827
6983.752
6984.637
6985.48
6986.28
6987.036
6987.745
6988.407
6989.018
6989.577
6990.081
6990.527
6990.91
6991.226
6991.471
6991.636
6991.714
6991.694
6991.563
6991.303
6990.893
6990.304
6989.509
6988.491
6987.33
6986.271
6986.111
6987.333
6990.609
8009.475
8113.629
8219.986
8324.734
8428.533
8527.703
8618.403
8698.763
8766.643
8817.613
8857.958
8886.978
8904.879
8912.856
8912.341
8905.814
8894.735
8880.406
8865.752
8844.378
8827.504
8811.304
8796.846
8784.365
8774.119
8766.235
8760.759
8757.827
8758.332
8757.294
8760.569
8765.91
8772.724
8781.282
8791.219
8802.38
8814.76
8828.559
8840.735
8853.224
8868.729
8884.251
8899.827
8915.562
8931.357
8947.135
8962.744
8977.876
8993.776
9009.104
9023.938
9038.611
9053.167
9067.557
9081.743
9096.219
9112.405
9125.442
9138.05
9149.923
9161.466
9172.797
9183.828
9194.472
9204.68
9214.382
9223.791
9232.778
9241.107
9248.972
9256.542
9263.812
9270.722
9277.242
9283.303
9288.946
9294.144
9298.675
9302.851
9306.843
9310.584
9313.991
9317.027
9319.662
9321.907
9323.825
9325.311
9326.406
9327.207
9327.715
9327.903
9327.752
9327.203
9326.212
9324.641
9322.94
9320.892
9318.334
9315.444
9312.337
9309.021
9305.424
9301.541
9297.348
9292.856
9288.115
9283.205
9278.222
9273.24
9268.38
9263.62
9258.982
9254.235
9249.185
9241.727
9231.816
9221.908
9212.242
9201.034
9187.909
9173.857
9159.644
9145.487
9131.31
9117.052
9102.715
9088.316
9073.865
9059.38
9044.92
9030.595
9016.592
9003.152
8990.586
8978.961
8968.032
8958.049
8948.384
8936.859
8922.193
8904.797
8884.76
8862.394
8840.89
8823.712
8808.596
8793.734
8778.793
8763.841
8748.93
8734.031
8719.108
8704.157
8689.187
8674.209
8659.232
8644.261
8629.303
8614.364
8599.45
8584.565
8569.711
8554.893
8540.112
8525.37
8510.667
8496.003
8481.378
8466.791
8452.24
8437.723
8423.238
8408.782
8394.352
8379.944
8365.555
8351.179
8336.814
8322.454
8308.095
8293.732
8279.36
8264.975
8250.571
8236.145
8221.69
8207.204
8192.684
8178.131
8163.55
8148.946
8134.334
8119.723
8105.085
8090.346
8075.496
8060.565
8045.566
8030.499
8015.359
8000.149
7984.866
7969.512
7954.087
7938.591
7923.025
7907.389
7891.686
7875.917
7860.084
7844.189
7828.235
7812.225
7796.162
7780.05
7763.892
7747.693
7731.458
7715.192
7698.899
7682.585
7666.256
7649.918
7633.578
7617.241
7600.915
7584.607
7568.322
7552.07
7535.856
7519.689
7503.576
7487.525
7471.544
7455.64
7439.82
7424.093
7408.466
7392.95
7377.557
7362.271
7347.074
7331.746
7317.055
7302.481
7287.989
7273.645
7259.475
7245.483
7231.673
7218.051
7204.623
7191.395
7178.371
7165.556
7152.954
7140.568
7128.402
7116.46
7104.742
7093.253
7081.994
7070.965
7060.169
7049.605
7039.274
7029.174
7019.304
7009.661
7000.241
6991.041
6982.054
6973.273
6964.695
6956.323
6948.187
6940.365
6932.993
6926.178
6919.809
6913.725
6907.859
6902.198
6896.74
6891.504
6886.427
6881.556
6876.888
6872.419
6868.147
6864.074
6860.197
6856.513
6853.016
6849.704
6846.574
6843.623
6840.848
6838.247
6835.816
6833.551
6831.45
6829.509
6827.725
6826.094
6824.612
6823.277
6822.086
6821.036
6820.125
6819.344
6818.696
6818.061
6817.418
6816.998
6816.787
6816.712
6816.735
6816.852
6817.062
6817.369
6817.769
6818.26
6818.837
6819.497
6820.238
6821.057
6821.951
6822.916
6823.951
6825.053
6826.218
6827.444
6828.73
6830.071
6831.467
6832.914
6834.41
6835.953
6837.541
6839.172
6840.844
6842.554
6844.302
6846.085
6847.902
6849.751
6851.631
6853.541
6855.479
6857.446
6859.439
6861.459
6863.503
6865.567
6867.644
6869.719
6871.775
6873.789
6875.772
6877.755
6879.751
6881.76
6883.779
6885.796
6887.816
6889.843
6891.813
6893.756
6895.705
6897.668
6899.647
6901.639
6903.639
6905.643
6907.645
6909.644
6911.637
6913.623
6915.599
6917.566
6919.522
6921.466
6923.398
6925.317
6927.222
6929.113
6930.99
6932.851
6934.696
6936.525
6938.336
6940.129
6941.904
6943.66
6945.396
6947.112
6948.807
6950.481
6952.132
6953.761
6955.367
6956.948
6958.506
6960.038
6961.544
6963.024
6964.478
6965.903
6967.301
6968.67
6970.009
6971.318
6972.597
6973.843
6975.058
6976.24
6977.388
6978.501
6979.579
6980.621
6981.625
6982.592
6983.519
6984.405
6985.251
6986.053
6986.811
6987.523
6988.188
6988.803
6989.365
6989.874
6990.325
6990.715
6991.041
6991.297
6991.479
6991.579
6991.59
6991.504
6991.311
6991.001
6990.57
6990.025
6989.4
6988.792
6988.36
6988.364
6989.101
6990.588
7408.592
7428.303
7449.955
7479.279
7509.006
7548.126
7589.229
7637.905
7695.568
7753.417
7819.188
7898.903
7985.461
8079.863
8179.438
8280.646
8381.114
8476.416
8564.252
8642.387
8709.526
8766.304
8810.051
8839.875
8858.9
8868.576
8870.536
8866.512
8858.075
8847.181
8836.423
8809.855
8798.338
8787.606
8775.954
8765.565
8757.493
8751.772
8748.289
8747.013
8747.841
8750.759
8755.389
8761.676
8769.658
8779.225
8790.152
8802.22
8815.23
8828.986
8843.312
8857.763
8872.608
8887.978
8903.701
8919.571
8935.472
8951.334
8967.126
8982.812
8998.267
9013.46
9028.466
9043.285
9057.852
9072.156
9086.079
9099.9
9113.807
9126.784
9138.864
9150.619
9162.242
9173.642
9184.7
9195.35
9205.565
9215.358
9224.699
9233.53
9241.912
9249.903
9257.525
9264.778
9271.636
9278.076
9284.109
9289.726
9294.799
9299.358
9303.603
9307.602
9311.298
9314.631
9317.58
9320.161
9322.363
9324.174
9325.643
9326.78
9327.573
9328.031
9328.148
9327.914
9327.298
9326.306
9324.912
9323.148
9321.052
9318.636
9315.917
9312.905
9309.606
9306.008
9302.113
9297.901
9293.4
9288.698
9283.82
9278.789
9273.637
9268.408
9263.07
9257.623
9251.894
9245.611
9237.927
9228.699
9218.848
9208.696
9197.522
9185.182
9172.003
9158.449
9144.749
9130.933
9116.996
9102.956
9088.841
9074.681
9060.509
9046.382
9032.384
9018.637
9005.291
8992.485
8980.244
8968.427
8956.887
8945.192
8932.307
8917.497
8900.785
8882.381
8862.81
8843.942
8826.874
8810.994
8795.569
8780.291
8765.107
8750.003
8734.947
8719.905
8704.863
8689.823
8674.789
8659.765
8644.757
8629.769
8614.805
8599.87
8584.967
8570.101
8555.272
8540.484
8525.737
8511.031
8496.367
8481.744
8467.161
8452.616
8438.107
8423.632
8409.186
8394.768
8380.374
8365.998
8351.638
8337.289
8322.947
8308.606
8294.262
8279.91
8265.546
8251.164
8236.761
8222.332
8207.874
8193.385
8178.864
8164.312
8149.732
8135.129
8120.502
8105.831
8091.082
8076.247
8061.335
8046.353
8031.298
8016.171
8000.972
7985.701
7970.356
7954.938
7939.448
7923.887
7908.255
7892.554
7876.786
7860.952
7845.055
7829.097
7813.082
7797.012
7780.892
7764.726
7748.517
7732.27
7715.991
7699.684
7683.356
7667.011
7650.656
7634.297
7617.942
7601.596
7585.267
7568.961
7552.686
7536.45
7520.26
7504.123
7488.047
7472.041
7456.112
7440.267
7424.514
7408.863
7393.318
7377.888
7362.568
7347.374
7332.312
7317.556
7302.944
7288.428
7274.058
7259.86
7245.84
7232
7218.349
7204.892
7191.635
7178.582
7165.739
7153.109
7140.697
7128.505
7116.536
7104.795
7093.281
7081.999
7070.949
7060.132
7049.549
7039.2
7029.085
7019.202
7009.551
7000.13
6990.935
6981.967
6973.225
6964.713
6956.444
6948.446
6940.765
6933.46
6926.578
6920.08
6913.873
6907.906
6902.164
6896.641
6891.337
6886.234
6881.337
6876.644
6872.154
6867.865
6863.773
6859.875
6856.178
6852.659
6849.332
6846.188
6843.224
6840.438
6837.826
6835.386
6833.113
6831.004
6829.055
6827.263
6825.625
6824.137
6822.794
6821.595
6820.534
6819.606
6818.801
6818.117
6817.521
6817.018
6816.654
6816.423
6816.311
6816.311
6816.416
6816.623
6816.929
6817.329
6817.821
6818.4
6819.063
6819.807
6820.629
6821.526
6822.495
6823.534
6824.639
6825.808
6827.039
6828.328
6829.673
6831.073
6832.523
6834.023
6835.57
6837.162
6838.797
6840.472
6842.186
6843.937
6845.723
6847.543
6849.394
6851.276
6853.187
6855.125
6857.09
6859.079
6861.091
6863.123
6865.17
6867.226
6869.282
6871.327
6873.352
6875.359
6877.364
6879.376
6881.393
6883.415
6885.438
6887.465
6889.486
6891.47
6893.434
6895.407
6897.392
6899.386
6901.388
6903.393
6905.399
6907.404
6909.404
6911.399
6913.387
6915.366
6917.335
6919.294
6921.241
6923.176
6925.098
6927.007
6928.902
6930.781
6932.646
6934.494
6936.326
6938.14
6939.937
6941.715
6943.474
6945.214
6946.933
6948.631
6950.308
6951.963
6953.595
6955.203
6956.788
6958.349
6959.884
6961.394
6962.877
6964.333
6965.762
6967.163
6968.535
6969.877
6971.19
6972.471
6973.721
6974.939
6976.124
6977.275
6978.391
6979.473
6980.518
6981.526
6982.495
6983.426
6984.317
6985.167
6985.973
6986.736
6987.454
6988.125
6988.746
6989.317
6989.835
6990.297
6990.701
6991.042
6991.319
6991.527
6991.66
6991.716
6991.69
6991.579
6991.384
6991.111
6990.78
6990.431
6990.134
6989.984
6990.108
6990.572
6991.416
7356.625
7349.6
7345.476
7344.015
7343.886
7346.692
7352.069
7359.416
7369.019
7380.816
7395.496
7409.469
7427.887
7448.936
7472.162
7498.653
7540.595
7579.457
7621.562
7671.125
7729.519
7799.333
7879.571
7967.99
8063.442
8163.948
8266
8366.629
8462.717
8550.925
8628.95
8695.353
8749.584
8791.129
8819.918
8837.481
8845.798
8846.654
8841.795
8832.636
8820.353
8805.996
8790.07
8777.196
8766.529
8756.267
8747.37
8740.834
8736.602
8734.475
8734.464
8736.542
8740.515
8746.227
8753.661
8762.714
8773.224
8784.995
8797.824
8811.522
8825.914
8840.778
8855.883
8871.355
8887.252
8903.401
8919.627
8935.831
8951.966
8967.975
8983.804
8999.446
9014.872
9030.042
9044.964
9059.609
9073.978
9088.069
9101.872
9115.344
9128.2
9140.487
9152.451
9164.166
9175.572
9186.597
9197.206
9207.387
9217.132
9226.415
9235.247
9243.669
9251.684
9259.29
9266.494
9273.293
9279.68
9285.653
9291.185
9296.248
9300.888
9305.175
9309.136
9312.756
9316.012
9318.899
9321.423
9323.578
9325.37
9326.826
9327.938
9328.701
9329.121
9329.196
9328.924
9328.295
9327.304
9325.923
9324.171
9322.096
9319.705
9316.987
9313.946
9310.598
9306.952
9303.006
9298.759
9294.242
9289.49
9284.516
9279.335
9273.96
9268.405
9262.643
9256.625
9250.2
9243.162
9235.197
9226.176
9216.379
9205.987
9194.982
9183.083
9170.467
9157.416
9144.113
9130.629
9116.989
9103.224
9089.368
9075.456
9061.527
9047.632
9033.835
9020.217
9006.859
8993.816
8981.078
8968.525
8955.962
8943.088
8929.397
8914.481
8898.286
8881.066
8863.24
8845.609
8828.735
8812.617
8796.951
8781.494
8766.158
8750.911
8735.725
8720.574
8705.444
8690.331
8675.236
8660.162
8645.111
8630.086
8615.092
8600.132
8585.21
8570.327
8555.487
8540.69
8525.937
8511.229
8496.566
8481.947
8467.369
8452.833
8438.334
8423.87
8409.439
8395.036
8380.658
8366.301
8351.96
8337.631
8323.31
8308.991
8294.669
8280.34
8266
8251.643
8237.265
8222.862
8208.431
8193.97
8179.477
8164.95
8150.39
8135.796
8121.163
8106.48
8091.73
8076.905
8062.006
8047.034
8031.989
8016.872
8001.68
7986.414
7971.075
7955.66
7940.172
7924.611
7908.977
7893.273
7877.5
7861.659
7845.754
7829.786
7813.759
7797.676
7781.541
7765.359
7749.132
7732.866
7716.566
7700.238
7683.886
7667.516
7651.136
7634.75
7618.367
7601.992
7585.633
7569.297
7552.992
7536.724
7520.501
7504.331
7488.222
7472.181
7456.217
7440.338
7424.551
7408.865
7393.288
7377.829
7362.495
7347.306
7332.275
7317.43
7302.737
7288.179
7273.777
7259.547
7245.494
7231.625
7217.946
7204.462
7191.18
7178.103
7165.237
7152.586
7140.154
7127.943
7115.958
7104.2
7092.673
7081.378
7070.317
7059.492
7048.902
7038.549
7028.432
7018.552
7008.908
6999.5
6990.327
6981.391
6972.695
6964.246
6956.057
6948.147
6940.544
6933.28
6926.373
6919.8
6913.514
6907.481
6901.687
6896.123
6890.781
6885.654
6880.737
6876.028
6871.526
6867.227
6863.129
6859.227
6855.515
6852.005
6848.681
6845.54
6842.577
6839.793
6837.184
6834.746
6832.477
6830.372
6828.427
6826.64
6825.006
6823.522
6822.184
6820.987
6819.928
6819.001
6818.2
6817.523
6816.957
6816.496
6816.149
6815.922
6815.812
6815.817
6815.929
6816.143
6816.457
6816.864
6817.364
6817.95
6818.622
6819.374
6820.205
6821.111
6822.089
6823.136
6824.25
6825.428
6826.667
6827.965
6829.319
6830.726
6832.185
6833.693
6835.248
6836.848
6838.489
6840.172
6841.893
6843.651
6845.443
6847.268
6849.125
6851.012
6852.926
6854.867
6856.833
6858.821
6860.829
6862.855
6864.894
6866.94
6868.988
6871.032
6873.065
6875.09
6877.112
6879.137
6881.164
6883.194
6885.224
6887.251
6889.269
6891.271
6893.266
6895.263
6897.266
6899.273
6901.282
6903.293
6905.303
6907.311
6909.315
6911.313
6913.303
6915.285
6917.258
6919.22
6921.172
6923.111
6925.037
6926.95
6928.848
6930.732
6932.6
6934.453
6936.289
6938.107
6939.908
6941.69
6943.453
6945.196
6946.919
6948.621
6950.302
6951.96
6953.596
6955.208
6956.797
6958.361
6959.9
6961.414
6962.901
6964.361
6965.794
6967.199
6968.574
6969.921
6971.237
6972.523
6973.777
6974.999
6976.188
6977.343
6978.464
6979.55
6980.601
6981.614
6982.589
6983.526
6984.423
6985.279
6986.093
6986.863
6987.59
6988.27
6988.902
6989.486
6990.018
6990.496
6990.919
6991.284
6991.589
6991.831
6992.008
6992.117
6992.159
6992.134
6992.048
6991.912
6991.747
6991.586
6991.477
6991.478
6991.659
6992.009
6992.621
7544.818
7513.859
7489.179
7464.836
7445.155
7425.127
7408.724
7394.007
7380.906
7369.87
7359.893
7352.738
7347.975
7345.175
7344.068
7349.812
7355.977
7363.347
7373.009
7384.678
7398.336
7414.357
7432.428
7451.828
7471.994
7494.457
7521.714
7555.967
7595.068
7641.184
7696.784
7762.93
7840.034
7926.807
8021.146
8120.624
8222.216
8322.507
8418.191
8506.141
8584.002
8650.275
8704.322
8746.014
8775.645
8794.453
8804.22
8806.715
8803.591
8796.283
8785.98
8774.366
8762.363
8751.435
8741.836
8733.197
8725.907
8720.549
8717.475
8716.689
8718.075
8721.503
8726.831
8733.941
8742.717
8753.012
8764.667
8777.489
8791.289
8805.896
8821.093
8836.72
8852.68
8868.933
8885.439
8902.098
8918.798
8935.453
8952.002
8968.391
8984.584
9000.556
9016.265
9031.674
9046.807
9061.603
9076.099
9090.265
9104.045
9117.448
9130.409
9142.914
9155.02
9166.771
9178.158
9189.15
9199.725
9209.873
9219.585
9228.857
9237.697
9246.113
9254.107
9261.682
9268.845
9275.598
9281.938
9287.856
9293.346
9298.411
9303.067
9307.341
9311.253
9314.811
9318.009
9320.845
9323.323
9325.443
9327.211
9328.637
9329.719
9330.458
9330.855
9330.898
9330.589
9329.939
9328.932
9327.542
9325.786
9323.69
9321.259
9318.492
9315.398
9311.988
9308.27
9304.25
9299.934
9295.336
9290.472
9285.353
9279.988
9274.381
9268.525
9262.386
9255.906
9248.975
9241.47
9233.24
9224.198
9214.434
9204.065
9193.088
9181.432
9169.186
9156.508
9143.532
9130.33
9116.945
9103.413
9089.77
9076.053
9062.302
9048.557
9034.867
9021.282
9007.843
8994.566
8981.42
8968.308
8955.074
8941.512
8927.352
8912.373
8896.544
8880.039
8863.129
8846.212
8829.657
8813.564
8797.805
8782.234
8766.78
8751.415
8736.116
8720.864
8705.647
8690.459
8675.299
8660.168
8645.069
8630.003
8614.975
8599.986
8585.041
8570.14
8555.285
8540.479
8525.721
8511.011
8496.35
8481.735
8467.165
8452.638
8438.152
8423.703
8409.289
8394.904
8380.546
8366.209
8351.89
8337.584
8323.285
8308.99
8294.692
8280.387
8266.071
8251.738
8237.385
8223.006
8208.6
8194.161
8179.689
8165.181
8150.634
8136.046
8121.412
8106.723
8091.971
8077.147
8062.251
8047.282
8032.238
8017.121
8001.927
7986.658
7971.312
7955.891
7940.393
7924.82
7909.174
7893.455
7877.664
7861.805
7845.879
7829.889
7813.838
7797.73
7781.567
7765.355
7749.098
7732.801
7716.467
7700.104
7683.716
7667.309
7650.891
7634.466
7618.043
7601.628
7585.228
7568.85
7552.503
7536.193
7519.929
7503.718
7487.568
7471.488
7455.487
7439.571
7423.75
7408.031
7392.424
7376.936
7361.578
7346.361
7331.292
7316.388
7301.643
7287.052
7272.624
7258.369
7244.293
7230.403
7216.704
7203.203
7189.905
7176.814
7163.936
7151.274
7138.833
7126.616
7114.625
7102.865
7091.337
7080.043
7068.986
7058.166
7047.585
7037.243
7027.141
7017.28
7007.66
6998.281
6989.145
6980.253
6971.61
6963.222
6955.1
6947.257
6939.711
6932.477
6925.564
6918.958
6912.633
6906.569
6900.75
6895.166
6889.81
6884.675
6879.755
6875.048
6870.55
6866.258
6862.168
6858.277
6854.578
6851.073
6847.758
6844.638
6841.683
6838.912
6836.319
6833.897
6831.643
6829.554
6827.625
6825.853
6824.235
6822.766
6821.442
6820.26
6819.214
6818.301
6817.515
6816.853
6816.305
6815.868
6815.546
6815.34
6815.251
6815.273
6815.401
6815.63
6815.958
6816.38
6816.894
6817.494
6818.179
6818.946
6819.79
6820.709
6821.7
6822.76
6823.887
6825.077
6826.329
6827.639
6829.004
6830.424
6831.894
6833.413
6834.978
6836.588
6838.24
6839.932
6841.663
6843.429
6845.23
6847.063
6848.926
6850.819
6852.739
6854.684
6856.652
6858.641
6860.65
6862.674
6864.71
6866.754
6868.801
6870.848
6872.89
6874.928
6876.965
6879.002
6881.04
6883.079
6885.117
6887.151
6889.18
6891.201
6893.216
6895.23
6897.246
6899.262
6901.279
6903.297
6905.312
6907.324
6909.332
6911.333
6913.327
6915.313
6917.29
6919.256
6921.211
6923.153
6925.083
6927
6928.902
6930.79
6932.662
6934.519
6936.358
6938.18
6939.985
6941.77
6943.537
6945.284
6947.011
6948.717
6950.401
6952.063
6953.703
6955.319
6956.911
6958.479
6960.022
6961.54
6963.031
6964.495
6965.932
6967.34
6968.72
6970.071
6971.391
6972.681
6973.94
6975.166
6976.36
6977.521
6978.647
6979.739
6980.794
6981.813
6982.795
6983.738
6984.642
6985.506
6986.329
6987.109
6987.845
6988.537
6989.182
6989.78
6990.329
6990.826
6991.272
6991.664
6992
6992.279
6992.501
6992.666
6992.774
6992.83
6992.84
6992.817
6992.779
6992.752
6992.77
6992.867
6993.086
6993.402
6993.932
7790.587
7747.332
7684.167
7625.403
7577.724
7541.186
7511.476
7486.658
7465.262
7445.309
7425.7
7409.863
7395.247
7382.416
7371.468
7362.626
7355.945
7351.437
7349.077
7349.292
7350.748
7356.045
7362.98
7371.962
7382.994
7395.33
7408.99
7424.466
7441.879
7461.146
7482.787
7507.582
7537.939
7574.821
7618.92
7672.009
7735.642
7810.05
7894.031
7985.558
8082.194
8180.87
8278.192
8370.89
8456.027
8531.348
8595.453
8647.765
8688.382
8717.892
8737.435
8748.549
8752.924
8752.107
8747.433
8740.202
8731.947
8723.353
8714.951
8707.397
8700.96
8695.818
8692.371
8691.191
8692.388
8695.757
8701.119
8708.344
8717.297
8727.819
8739.728
8752.899
8767.158
8782.25
8798.064
8814.461
8831.265
8848.32
8865.548
8882.896
8900.294
8917.657
8934.907
8951.985
8968.847
8985.457
9001.785
9017.81
9033.531
9048.895
9063.945
9078.623
9092.925
9106.818
9120.316
9133.374
9145.992
9158.171
9169.948
9181.333
9192.314
9202.87
9212.999
9222.695
9231.956
9240.78
9249.172
9257.136
9264.677
9271.801
9278.509
9284.8
9290.672
9296.124
9301.162
9305.794
9310.035
9313.904
9317.411
9320.558
9323.347
9325.782
9327.867
9329.606
9331.004
9332.054
9332.772
9333.155
9333.171
9332.82
9332.108
9331.037
9329.607
9327.824
9325.693
9323.218
9320.4
9317.246
9313.761
9309.949
9305.823
9301.392
9296.662
9291.641
9286.338
9280.757
9274.892
9268.731
9262.241
9255.372
9248.054
9240.204
9231.737
9222.602
9212.826
9202.465
9191.537
9180.046
9168.047
9155.635
9142.906
9129.926
9116.74
9103.389
9089.908
9076.334
9062.699
9049.04
9035.39
9021.781
9008.231
8994.74
8981.275
8967.76
8954.083
8940.108
8925.68
8910.678
8895.089
8879.018
8862.643
8846.205
8829.932
8813.917
8798.121
8782.475
8766.933
8751.475
8736.084
8720.745
8705.449
8690.192
8674.971
8659.787
8644.642
8629.538
8614.478
8599.463
8584.497
8569.581
8554.717
8539.905
8525.146
8510.439
8495.784
8481.179
8466.623
8452.112
8437.645
8423.217
8408.825
8394.465
8380.133
8365.824
8351.533
8337.255
8322.986
8308.719
8294.452
8280.177
8265.89
8251.586
8237.262
8222.911
8208.532
8194.119
8179.67
8165.182
8150.651
8136.074
8121.445
8106.759
8092.01
8077.19
8062.298
8047.332
8032.291
8017.173
8001.977
7986.704
7971.352
7955.922
7940.414
7924.828
7909.167
7893.43
7877.62
7861.739
7845.789
7829.773
7813.694
7797.556
7781.362
7765.116
7748.824
7732.49
7716.118
7699.715
7683.286
7666.837
7650.376
7633.907
7617.439
7600.979
7584.533
7568.11
7551.716
7535.361
7519.051
7502.795
7486.601
7470.478
7454.435
7438.479
7422.618
7406.861
7391.217
7375.694
7360.302
7345.048
7329.943
7314.995
7300.21
7285.586
7271.129
7256.846
7242.746
7228.833
7215.114
7201.594
7188.279
7175.174
7162.284
7149.612
7137.162
7124.939
7112.945
7101.183
7089.656
7078.366
7067.315
7056.504
7045.934
7035.608
7025.525
7015.686
7006.093
6996.746
6987.647
6978.798
6970.204
6961.87
6953.804
6946.014
6938.512
6931.305
6924.397
6917.781
6911.44
6905.361
6899.53
6893.938
6888.578
6883.443
6878.527
6873.827
6869.339
6865.058
6860.981
6857.104
6853.423
6849.934
6846.634
6843.514
6840.594
6837.847
6835.274
6832.873
6830.64
6828.571
6826.662
6824.911
6823.313
6821.864
6820.559
6819.396
6818.37
6817.476
6816.71
6816.067
6815.543
6815.133
6814.838
6814.658
6814.591
6814.634
6814.781
6815.03
6815.376
6815.816
6816.347
6816.965
6817.668
6818.451
6819.312
6820.247
6821.254
6822.33
6823.473
6824.678
6825.944
6827.269
6828.649
6830.082
6831.566
6833.098
6834.676
6836.298
6837.962
6839.666
6841.407
6843.184
6844.994
6846.836
6848.708
6850.609
6852.535
6854.486
6856.459
6858.452
6860.463
6862.489
6864.526
6866.572
6868.622
6870.674
6872.725
6874.775
6876.825
6878.874
6880.923
6882.973
6885.02
6887.065
6889.106
6891.142
6893.173
6895.202
6897.23
6899.257
6901.283
6903.307
6905.329
6907.347
6909.36
6911.366
6913.365
6915.355
6917.336
6919.306
6921.266
6923.213
6925.147
6927.068
6928.975
6930.867
6932.743
6934.603
6936.447
6938.274
6940.082
6941.872
6943.643
6945.394
6947.125
6948.835
6950.523
6952.19
6953.833
6955.454
6957.05
6958.623
6960.17
6961.691
6963.187
6964.655
6966.097
6967.51
6968.894
6970.25
6971.575
6972.87
6974.133
6975.365
6976.565
6977.731
6978.863
6979.96
6981.022
6982.048
6983.036
6983.987
6984.899
6985.772
6986.604
6987.394
6988.142
6988.846
6989.506
6990.119
6990.686
6991.204
6991.674
6992.093
6992.461
6992.779
6993.045
6993.263
6993.433
6993.561
6993.655
6993.726
6993.789
6993.864
6993.975
6994.145
6994.401
6994.717
6995.222
7748.366
7703.72
7633.586
7591.689
7556.336
7527.359
7503.072
7481.916
7462.724
7445.005
7428.233
7412.581
7398.068
7385.109
7373.971
7364.849
7357.896
7353.279
7351.055
7350.953
7353.327
7358.559
7365.398
7373.655
7383.13
7394.132
7406.428
7420.166
7435.856
7453.852
7474.642
7498.519
7527.213
7562.366
7604.765
7655.671
7716.45
7787.313
7867.228
7954.349
8046.155
8139.564
8231.312
8318.344
8398.077
8468.591
8528.764
8578.174
8617.017
8645.993
8666.166
8678.83
8685.555
8687.68
8686.33
8682.61
8677.508
8671.881
8666.507
8661.923
8658.33
8656.121
8655.787
8657.595
8661.559
8667.546
8675.42
8685.055
8696.313
8709.026
8722.988
8738.07
8754.135
8771.038
8788.502
8806.384
8824.552
8842.876
8861.265
8879.655
8897.98
8916.171
8934.162
8951.904
8969.357
8986.493
9003.29
9019.733
9035.81
9051.488
9066.764
9081.63
9096.088
9110.141
9123.758
9136.942
9149.659
9161.921
9173.753
9185.15