/*--------------------------------*- C++ -*----------------------------------*\
| =========                 |                                                 |
| \\      /  F ield         | foam-extend: Open Source CFD                    |
|  \\    /   O peration     | Version:     3.1                                |
|   \\  /    A nd           | Web:         http://www.extend-project.de       |
|    \\/     M anipulation  |                                                 |
\*---------------------------------------------------------------------------*/
FoamFile
{
    version     2.0;
    format      ascii;
    class       volScalarField;
    location    "11";
    object      k;
}
// * * * * * * * * * * * * * * * * * * * * * * * * * * * * * * * * * * * * * //

dimensions      [0 2 -2 0 0 0 0];

internalField   nonuniform List<scalar> 
119952
(
0.0400947
0.03625046
0.035215
0.03494091
0.03463894
0.03402965
0.03404324
0.03436038
0.03480375
0.03527198
0.03570258
0.03605508
0.03630618
0.03644362
0.03646186
0.03640094
0.03638773
0.03662947
0.03723583
0.03831304
0.04174612
0.04160893
0.0426596
0.04550457
0.04458936
0.04460432
0.04469596
0.04468537
0.04395807
0.01311491
0.07434253
0.06857003
0.06502593
0.06289004
0.06169976
0.0611474
0.06102528
0.06119847
0.06157956
0.06223242
0.06188041
0.06478027
0.06884082
0.07326447
0.07757238
0.08165374
0.08543754
0.08894518
0.09216178
0.1057073
0.1081465
0.1100984
0.1115392
0.1126191
0.1133656
0.1137278
0.1136486
0.1131142
0.1122285
0.1110327
0.1092492
0.1072228
0.1051844
0.1032804
0.1015982
0.1001574
0.09891879
0.09798222
0.0990018
0.09802637
0.09695944
0.09674993
0.09684845
0.09694528
0.0970293
0.09725614
0.09763853
0.09812086
0.09863506
0.09910367
0.09943825
0.09956584
0.09943146
0.09902544
0.09840191
0.0976591
0.09687177
0.09607275
0.09542269
0.0949117
0.09424887
0.09395745
0.09436926
0.09468328
0.09497352
0.09561895
0.09659181
0.09552687
0.09471644
0.09465338
0.09497526
0.09549901
0.09615106
0.09689775
0.09770843
0.09855204
0.09941382
0.1002784
0.1011262
0.1019284
0.1026636
0.1033098
0.1038294
0.1041653
0.1042246
0.1038828
0.1030279
0.1015292
0.09927928
0.09611829
0.09151879
0.08347846
0.07764498
0.07979304
0.0873057
0.09599525
0.10288
0.106119
0.1054354
0.1020542
0.09756962
0.0930511
0.08915455
0.08595784
0.08321449
0.0808082
0.0786309
0.07664319
0.07491535
0.07353719
0.07256626
0.07203804
0.07198224
0.07242354
0.07336366
0.07475684
0.07651465
0.07860116
0.08084578
0.08312984
0.08530775
0.08717626
0.08857828
0.08944749
0.08983799
0.08982121
0.08934857
0.08824458
0.0863858
0.08399191
0.08145381
0.07901192
0.07685705
0.07509354
0.0737189
0.07261061
0.07154308
0.07022679
0.06834404
0.06570046
0.06227131
0.0583735
0.05447834
0.05438171
0.05851758
0.06323719
0.06667412
0.06809186
0.0675742
0.06567124
0.06302064
0.06022858
0.05765159
0.05537145
0.05331522
0.05136785
0.04946647
0.04759059
0.04574063
0.04395587
0.04226921
0.04064254
0.03912017
0.03744053
0.03477187
0.0350866
0.03806799
0.04058255
0.04284102
0.0419957
0.03666595
0.0306568
0.02635051
0.02565894
0.02716465
0.02696356
0.02441553
0.02140859
0.01903016
0.01732168
0.01611297
0.01528063
0.01473676
0.0144227
0.01429605
0.01431814
0.01446105
0.01470816
0.01504539
0.01545751
0.01592991
0.01645005
0.01700689
0.01759019
0.01819022
0.0187981
0.01940616
0.02000802
0.02059873
0.02117511
0.02173743
0.02229785
0.02286728
0.02349494
0.02406162
0.02456846
0.02502068
0.02541707
0.02575677
0.02603906
0.02626364
0.02643058
0.02654014
0.0265932
0.02659107
0.0265356
0.026429
0.02627401
0.02607396
0.02583261
0.02555411
0.02524296
0.02490401
0.02454239
0.02416329
0.0237717
0.02337216
0.02296858
0.02256392
0.02216051
0.02176035
0.02136547
0.02097823
0.02060136
0.02023757
0.01988963
0.01955673
0.02138929
0.02107272
0.02071659
0.02034313
0.01999757
0.01969379
0.01943429
0.01921599
0.01903249
0.01887597
0.01873913
0.01861607
0.01850219
0.01839412
0.0182896
0.01818718
0.01808603
0.01798573
0.01788616
0.0177873
0.01768929
0.01759229
0.01749651
0.01740217
0.01730946
0.01721854
0.01712955
0.0170426
0.01695777
0.01687513
0.01679472
0.01671654
0.01664061
0.01656694
0.01649553
0.01642634
0.01635937
0.01629457
0.0162319
0.01617129
0.01611269
0.01605605
0.01600137
0.01594894
0.01589993
0.01585416
0.01580392
0.015751
0.01569923
0.01564818
0.01559785
0.01554894
0.01550201
0.0154709
0.01547433
0.01538339
0.01529288
0.01520236
0.01511135
0.01502141
0.0149342
0.01485109
0.01477316
0.01470104
0.0146352
0.01457568
0.01452218
0.01447429
0.01443153
0.01439339
0.01435933
0.01432887
0.01430154
0.01427692
0.01425466
0.01423443
0.01421597
0.01419904
0.01418344
0.01416899
0.01415555
0.01414299
0.01413121
0.01412011
0.01410963
0.01409969
0.01409024
0.01408124
0.01407264
0.0140644
0.0140565
0.01404891
0.01404159
0.01403453
0.01402771
0.01402112
0.01401474
0.01400858
0.01400262
0.01399687
0.01399131
0.01398597
0.01398083
0.0139759
0.01397119
0.01396669
0.01396241
0.01395835
0.01395451
0.01395089
0.01394749
0.01394433
0.0139414
0.01393868
0.01393603
0.01393325
0.01393033
0.01392733
0.01392433
0.01392139
0.01391852
0.01391572
0.01391298
0.01391029
0.01390763
0.01390499
0.01390231
0.01389958
0.01389673
0.01389378
0.01389057
0.01388693
0.01388241
0.01387623
0.01386524
0.01384279
0.01379016
0.0137141
0.01392486
0.0850524
0.08170264
0.08813895
0.09581528
0.1023433
0.1074921
0.1115217
0.1147062
0.1173818
0.1205131
0.1302567
0.1406333
0.1500152
0.1577626
0.1638553
0.1684939
0.171967
0.1745398
0.1985638
0.1983608
0.1981431
0.197697
0.1972963
0.1970843
0.1970957
0.1973249
0.1977042
0.1980932
0.1987123
0.1990208
0.1989238
0.1985701
0.1980127
0.1972516
0.1962576
0.1949925
0.1934148
0.1917202
0.1894661
0.1865748
0.1833752
0.180028
0.1766722
0.173449
0.1704783
0.1678515
0.1656378
0.1638208
0.1624618
0.1615881
0.1611557
0.1611127
0.1614297
0.1620673
0.162976
0.164109
0.1769601
0.1778903
0.1787129
0.1793416
0.1796691
0.1796023
0.1790626
0.177997
0.1763651
0.174164
0.1714655
0.168351
0.1649385
0.1613799
0.1578535
0.1544387
0.1512071
0.1482401
0.1456611
0.143327
0.1410297
0.1390868
0.1376008
0.1364544
0.1355785
0.134994
0.1347021
0.1346589
0.1348062
0.1350917
0.1354323
0.1357355
0.135917
0.1359037
0.1356442
0.1351189
0.1343419
0.1333526
0.1322163
0.131016
0.1297959
0.12865
0.1277871
0.1272463
0.1269637
0.1270065
0.1274071
0.1278671
0.1281855
0.1286371
0.129345
0.1302304
0.1312638
0.1324127
0.1336486
0.134952
0.136309
0.1377088
0.1391309
0.1405589
0.1419793
0.1433747
0.1447108
0.1459122
0.1468792
0.1475409
0.1477862
0.1474464
0.1463475
0.1443647
0.14115
0.1362152
0.1299551
0.1236139
0.1181325
0.1139919
0.1113581
0.1102726
0.1105341
0.1116898
0.1131551
0.114342
0.1147621
0.1142231
0.1126507
0.1101002
0.1068137
0.1031902
0.09970306
0.09667571
0.09429626
0.09266941
0.09185425
0.09188874
0.09279161
0.09453616
0.09702111
0.1000805
0.1035431
0.1072447
0.1109972
0.1145359
0.1175592
0.1198771
0.1214915
0.1225105
0.1229485
0.1226775
0.1216351
0.1200052
0.1181497
0.1163771
0.1147962
0.1134389
0.1122796
0.1112375
0.1101861
0.1089488
0.107304
0.1050305
0.1019132
0.09772808
0.09256963
0.08716844
0.08220588
0.07807281
0.07482393
0.07236511
0.07060981
0.06944537
0.06874764
0.06838807
0.06823225
0.06814766
0.06800701
0.06767908
0.06709092
0.06621514
0.06505613
0.06370154
0.06222749
0.06064579
0.05909845
0.05743833
0.05539372
0.05313799
0.05099881
0.04915525
0.04778885
0.04642968
0.04681945
0.04893609
0.0525274
0.05667627
0.06090899
0.06476328
0.06537118
0.06153006
0.05567926
0.05018445
0.04563362
0.04198545
0.03925542
0.03735463
0.03615288
0.03554169
0.03540347
0.03562012
0.03609857
0.03677118
0.037584
0.03849238
0.03946289
0.04047368
0.04151125
0.04256613
0.04363017
0.04469613
0.0457575
0.04680783
0.0478401
0.04884581
0.04980904
0.05070556
0.05154278
0.05229952
0.05295541
0.05350251
0.05393723
0.05425916
0.05446963
0.05457064
0.05456454
0.054454
0.05424224
0.05393317
0.05353123
0.05304147
0.05246965
0.05182202
0.05110505
0.05032539
0.04949003
0.04860656
0.04768296
0.04672741
0.04574802
0.04475271
0.04374901
0.04274361
0.04174206
0.04074908
0.03976888
0.03880565
0.03786408
0.03694952
0.03606657
0.03521282
0.03644029
0.03569192
0.03497906
0.03429481
0.03363689
0.03300697
0.03240651
0.03183562
0.03129383
0.0307802
0.03029341
0.02983196
0.02939428
0.0289788
0.02858399
0.0282084
0.02785067
0.02750953
0.02718384
0.02687252
0.02657461
0.02628921
0.02601549
0.02575273
0.02550022
0.02525735
0.02502352
0.02479821
0.02458091
0.02437118
0.02416857
0.0239727
0.0237832
0.02359975
0.02342203
0.02324978
0.02308274
0.02292068
0.0227634
0.02261072
0.02246251
0.0223187
0.02217931
0.02204441
0.02191368
0.02178598
0.02165961
0.02153468
0.02141202
0.02129206
0.02117447
0.02105964
0.0209472
0.02084318
0.02074276
0.02063406
0.02052204
0.02041157
0.0203039
0.02019871
0.02009564
0.01999435
0.01989459
0.01979618
0.01969906
0.01960326
0.01950886
0.01941597
0.01932471
0.01923523
0.01914765
0.01906211
0.01897873
0.01889762
0.01881888
0.0187426
0.01866884
0.01859764
0.01852904
0.01846305
0.01839966
0.01833885
0.01828058
0.01822481
0.01817147
0.01812049
0.0180718
0.01802529
0.01798088
0.01793847
0.01789795
0.01785922
0.01782217
0.01778669
0.01775269
0.01772006
0.01768871
0.01765855
0.01762949
0.01760145
0.01757436
0.01754814
0.01752273
0.01749808
0.01747411
0.01745077
0.01742802
0.01740582
0.0173841
0.01736283
0.01734198
0.0173215
0.01730133
0.01728142
0.0172617
0.01724212
0.01722267
0.0172033
0.01718398
0.01716466
0.01714532
0.01712588
0.01710633
0.01708657
0.01706659
0.01704626
0.0170256
0.01700437
0.01698266
0.01696
0.01693653
0.01691118
0.016884
0.01685235
0.01681577
0.01677139
0.01673173
0.01672392
0.01675006
0.04702843
0.05048397
0.05455203
0.05902803
0.06394789
0.0694092
0.07557591
0.08269161
0.09112814
0.1008276
0.1469139
0.1608622
0.1748005
0.1889815
0.2032991
0.2175416
0.2314874
0.2473955
0.273269
0.3261425
0.3372518
0.347169
0.3558765
0.3637433
0.3709255
0.3769706
0.3820304
0.3860562
0.3897006
0.3932648
0.3968211
0.3992611
0.4004292
0.4004912
0.3996272
0.3980319
0.3958698
0.3935743
0.388801
0.3846066
0.3807999
0.3772602
0.3738875
0.3705594
0.3671735
0.3636644
0.3600092
0.3562389
0.3521762
0.3478844
0.3434278
0.3388616
0.3342509
0.329643
0.3250634
0.3205315
0.3324455
0.3280276
0.3236107
0.3192919
0.3151077
0.3110966
0.3072944
0.3037301
0.300444
0.2974404
0.2946811
0.2921558
0.2898114
0.2875482
0.2852832
0.2829505
0.2804975
0.2778809
0.2750363
0.2718817
0.2683835
0.2645276
0.2603428
0.2559417
0.2513475
0.2466174
0.2418373
0.237105
0.2325441
0.2283332
0.2245896
0.2213546
0.2186596
0.2165159
0.2149165
0.2138284
0.2132028
0.2129582
0.2129134
0.2130446
0.2132294
0.2133445
0.2132849
0.2129512
0.2122511
0.2111042
0.2094472
0.207256
0.2045479
0.2013669
0.1978149
0.1940288
0.1900488
0.1859813
0.1819732
0.1781213
0.1745211
0.1711226
0.1679568
0.1651384
0.1627211
0.1607023
0.1590693
0.1578185
0.1569382
0.1563942
0.1561265
0.1560612
0.1561506
0.156301
0.1564189
0.1564222
0.1562473
0.1558567
0.1552433
0.1544288
0.1534604
0.1524084
0.1513536
0.1503824
0.1496158
0.1491591
0.1490423
0.1492791
0.1498447
0.1506498
0.1514896
0.1523786
0.1533885
0.1545177
0.1557414
0.1570306
0.1583676
0.1597494
0.1611828
0.1626731
0.1642145
0.1658051
0.1674517
0.1691499
0.1708503
0.1724353
0.1737346
0.1745755
0.1748945
0.1745336
0.1733564
0.1712594
0.1680142
0.1634665
0.1580141
0.1522071
0.1463494
0.1406695
0.1353768
0.1306403
0.1265658
0.1231899
0.1204774
0.1183059
0.1164744
0.1147451
0.112889
0.1107505
0.1083094
0.1056778
0.1030589
0.1007614
0.09902785
0.09804004
0.09793867
0.0988255
0.1007591
0.1037227
0.1075803
0.1120901
0.1169966
0.1220992
0.1271812
0.131913
0.1359064
0.1389253
0.1410025
0.1423361
0.1429829
0.1427895
0.1417353
0.1401524
0.1385222
0.1370418
0.1357282
0.1345605
0.1335214
0.1325509
0.1315223
0.1302428
0.1285151
0.1261739
0.1230499
0.1190325
0.1143314
0.1093842
0.1044194
0.09951255
0.09473566
0.09016247
0.08587745
0.08198605
0.07858708
0.07573819
0.07344632
0.07167841
0.07035249
0.06936573
0.0686063
0.067969
0.06735634
0.06673308
0.06604129
0.06525882
0.06441972
0.06343415
0.06216311
0.06070336
0.0591869
0.05761094
0.05616098
0.05470929
0.05335719
0.05240931
0.05220794
0.0531083
0.05561788
0.05997253
0.06553494
0.07119655
0.07546437
0.07694384
0.0753527
0.07165167
0.06704825
0.06270254
0.05929752
0.05690338
0.0553756
0.05457276
0.05433995
0.05453273
0.05503006
0.055738
0.05659045
0.05754665
0.0585826
0.05968153
0.06082795
0.06200671
0.06320261
0.06439944
0.06557962
0.06672578
0.06782873
0.06884909
0.06975691
0.07053313
0.07116628
0.07165103
0.07198889
0.07218503
0.07224551
0.07217637
0.0719834
0.0716721
0.07124807
0.07071658
0.07008285
0.06935592
0.06854349
0.06765228
0.06668829
0.06565679
0.06456306
0.06341505
0.06222058
0.06098724
0.05972244
0.05843362
0.05712824
0.05581352
0.0544973
0.05318738
0.05189033
0.05061201
0.04935978
0.04814027
0.04696391
0.045837
0.04471845
0.04366186
0.0426645
0.04172139
0.04083108
0.03999227
0.03920228
0.0384576
0.03775476
0.0370906
0.03646218
0.03586677
0.03530186
0.03476509
0.03425435
0.0337677
0.03330341
0.0328599
0.03243575
0.03202968
0.03164052
0.03126718
0.0309087
0.03056416
0.03023272
0.0299136
0.02960608
0.02930948
0.02902315
0.02874651
0.028479
0.0282201
0.02796933
0.02772625
0.02749046
0.02726159
0.02703931
0.02682334
0.02661342
0.02640935
0.02621095
0.0260181
0.0258307
0.0256486
0.02547146
0.02529867
0.02512943
0.02496332
0.02480052
0.0246412
0.02448543
0.02433311
0.02418407
0.0240377
0.02389371
0.02375194
0.02361366
0.02347874
0.02334623
0.0232155
0.02308645
0.02295915
0.0228337
0.02271016
0.02258857
0.02246896
0.02235137
0.02223586
0.02212248
0.02201129
0.02190236
0.02179577
0.0216916
0.02158992
0.0214908
0.02139432
0.02130052
0.02120947
0.0211212
0.02103574
0.02095309
0.02087326
0.02079623
0.02072196
0.02065043
0.02058157
0.02051531
0.02045159
0.02039032
0.0203314
0.02027474
0.02022023
0.02016776
0.02011723
0.02006853
0.02002154
0.01997616
0.01993228
0.01988981
0.01984864
0.01980868
0.01976984
0.01973205
0.01969521
0.01965926
0.01962412
0.01958973
0.01955602
0.01952293
0.01949042
0.01945841
0.01942687
0.01939572
0.01936491
0.01933439
0.0193041
0.01927401
0.01924408
0.01921426
0.01918452
0.01915478
0.019125
0.01909509
0.01906502
0.01903466
0.01900398
0.01897281
0.01894111
0.01890856
0.01887518
0.01884029
0.01880394
0.01876483
0.0187234
0.01867806
0.01863208
0.01858634
0.01855155
0.01852913
0.03723182
0.04168679
0.04564082
0.06921338
0.09299863
0.122214
0.1416169
0.1609322
0.1790205
0.1957055
0.2101342
0.2225561
0.2346912
0.2470453
0.2594632
0.2720727
0.2848965
0.2979428
0.3110017
0.3238097
0.3363692
0.3487072
0.360835
0.3728085
0.3846147
0.3962621
0.4078502
0.4193789
0.4308602
0.4422192
0.4538837
0.4856109
0.4922739
0.4986628
0.5035175
0.5069595
0.5092426
0.5104566
0.5106324
0.5099617
0.5087606
0.5069785
0.5047016
0.5020017
0.4989388
0.4955741
0.4919812
0.4882256
0.4843654
0.4804453
0.4764682
0.4725103
0.4685547
0.4645925
0.460538
0.4562705
0.4518064
0.4471276
0.4422453
0.4371688
0.431909
0.4264991
0.4209699
0.4153528
0.4096749
0.4039306
0.3981247
0.392207
0.3859313
0.3797769
0.3737819
0.3679619
0.3623418
0.3569601
0.3518662
0.3471109
0.3427416
0.3387961
0.3352812
0.3321626
0.3293636
0.3267805
0.3243066
0.3218597
0.3193878
0.3168478
0.3141751
0.311275
0.3080499
0.3044547
0.3003965
0.2957751
0.2906843
0.2852701
0.279693
0.2741022
0.2686279
0.2633421
0.2583375
0.2538155
0.2498919
0.2465946
0.2439337
0.241887
0.2404219
0.2394624
0.2389176
0.2386636
0.2385641
0.2384944
0.238344
0.2379973
0.2373454
0.2362893
0.2347494
0.232677
0.2300665
0.2269628
0.2234297
0.2194652
0.2151926
0.210741
0.2062407
0.2018017
0.1975237
0.1934636
0.1896712
0.1862248
0.1831975
0.1806218
0.1784982
0.1768147
0.1755519
0.174673
0.1741185
0.1738129
0.1736914
0.1737047
0.1737624
0.1737799
0.1736878
0.1734408
0.1730251
0.1724602
0.1717958
0.1711082
0.1704907
0.1700404
0.1698551
0.1700218
0.1705826
0.1715264
0.1727934
0.174285
0.175853
0.1774041
0.1789333
0.1804526
0.1819538
0.1834246
0.1848729
0.1863293
0.1878382
0.1894393
0.1911588
0.19303
0.1950988
0.1973684
0.1997243
0.2019123
0.2035946
0.2044647
0.2044655
0.2036081
0.2018231
0.1990751
0.1952868
0.1904941
0.1850389
0.1792447
0.1732161
0.1669899
0.1606858
0.1544226
0.1483154
0.1424826
0.1370398
0.1320747
0.1276234
0.1236576
0.1200948
0.1168384
0.1138264
0.1110585
0.1086021
0.1066046
0.1053875
0.1051341
0.1059771
0.1080189
0.1113038
0.1157675
0.1211829
0.1271887
0.1334547
0.1397863
0.1459668
0.151615
0.1562632
0.1596687
0.161952
0.1633851
0.164013
0.1636421
0.1623488
0.1606909
0.1592497
0.1579314
0.1566268
0.1553717
0.1542067
0.1531059
0.1519557
0.1505478
0.1486813
0.1462287
0.143093
0.1392611
0.1349103
0.130264
0.1253525
0.12016
0.1147703
0.1092993
0.1038682
0.09861566
0.09367533
0.08915069
0.0851186
0.08162779
0.0786777
0.07623472
0.07424497
0.07264365
0.07135243
0.07031171
0.06944995
0.06868689
0.06799729
0.06732312
0.06654271
0.06564969
0.06469549
0.06366056
0.06256756
0.06135664
0.06004604
0.05873124
0.05751334
0.05665265
0.05661992
0.05787342
0.06071228
0.06501826
0.07007945
0.07525078
0.07982161
0.08288531
0.08360569
0.08189541
0.07864402
0.07495553
0.07165778
0.06924293
0.06775509
0.06702537
0.06687385
0.06715752
0.0677588
0.06859269
0.06960078
0.07074213
0.07198347
0.07329379
0.07464222
0.07599601
0.0773203
0.07858093
0.07974841
0.08078747
0.08166951
0.08237906
0.08290663
0.08324592
0.08340577
0.08340567
0.08325955
0.08297861
0.08257285
0.08205128
0.08142217
0.08069315
0.07987042
0.07896403
0.07798179
0.07693009
0.07581427
0.07463868
0.07340632
0.07212321
0.07079548
0.06942901
0.06802942
0.06660234
0.06515317
0.0636857
0.0622043
0.06072016
0.05924253
0.05777984
0.05634123
0.0549351
0.05357133
0.05225414
0.05098617
0.04977377
0.04862035
0.04752619
0.0464905
0.04551194
0.04458828
0.04371653
0.04289342
0.04211565
0.04137995
0.04068318
0.04002232
0.03939455
0.03879728
0.03822813
0.03768499
0.03716593
0.03666924
0.03619337
0.03573693
0.03529866
0.0348774
0.03447211
0.03408181
0.03370562
0.03334269
0.03299223
0.03265353
0.03232588
0.03200864
0.0317012
0.03140301
0.03111355
0.03083234
0.03055896
0.03029303
0.03003422
0.02978225
0.02953688
0.0292979
0.02906515
0.02883846
0.02861764
0.02840242
0.02819244
0.0279872
0.02778631
0.02758966
0.02739736
0.02720939
0.02702566
0.02684587
0.02666995
0.02649817
0.02632999
0.02616499
0.02600296
0.02584383
0.02568757
0.02553412
0.02538345
0.02523551
0.02509025
0.02494759
0.02480749
0.02466993
0.02453491
0.02440244
0.02427254
0.02414528
0.02402068
0.02389882
0.02377976
0.02366356
0.02355029
0.02343999
0.02333272
0.02322852
0.02312741
0.02302941
0.02293453
0.02284274
0.02275403
0.02266836
0.02258568
0.02250591
0.02242898
0.02235482
0.02228331
0.02221436
0.02214786
0.02208369
0.02202174
0.02196187
0.02190396
0.0218479
0.02179357
0.02174085
0.02168963
0.02163979
0.02159123
0.02154386
0.02149758
0.02145231
0.02140794
0.02136442
0.02132166
0.02127959
0.02123814
0.02119726
0.02115689
0.02111696
0.02107741
0.02103819
0.02099925
0.02096055
0.02092204
0.02088369
0.02084543
0.02080722
0.020769
0.02073068
0.0206922
0.02065347
0.02061439
0.02057482
0.02053466
0.02049366
0.02045169
0.02040834
0.02036348
0.0203166
0.02026784
0.02021716
0.02016555
0.02011459
0.02006708
0.02002947
0.01917214
0.02129533
0.02331959
0.03083139
0.04088552
0.05775109
0.06959217
0.08211572
0.09553023
0.1090926
0.1230344
0.1383098
0.154544
0.1710803
0.1882827
0.2076437
0.2376012
0.2512579
0.2651022
0.2789895
0.2931765
0.3070959
0.3203995
0.3332076
0.3456981
0.3580021
0.3700828
0.3819213
0.3937027
0.4054021
0.4169931
0.4284387
0.4396736
0.4506487
0.4613217
0.4716743
0.481658
0.4912262
0.5004177
0.5092847
0.5177232
0.5240069
0.5264106
0.5287408
0.5302998
0.5306529
0.5298091
0.527886
0.5250385
0.521425
0.5172533
0.5127714
0.5080908
0.5032956
0.4984903
0.4937851
0.4892631
0.4849948
0.4810225
0.477378
0.4740617
0.471037
0.4682934
0.4657662
0.4634036
0.4611403
0.4588913
0.4564352
0.4536172
0.4505042
0.447126
0.4435058
0.4396647
0.4356293
0.4314248
0.4270701
0.4225356
0.4177994
0.4128002
0.407552
0.4021506
0.3966776
0.391187
0.3857462
0.3804357
0.375343
0.3705542
0.3661531
0.3622305
0.3588344
0.3559262
0.3534161
0.3511801
0.3490765
0.3470048
0.344927
0.3428314
0.3406811
0.3383873
0.3358347
0.3327519
0.3289528
0.3244101
0.3192037
0.313489
0.3074605
0.3013132
0.2952219
0.2893304
0.2837495
0.2785429
0.2738765
0.2698782
0.2665803
0.2639805
0.2620519
0.2607381
0.2599359
0.2594957
0.2592786
0.2591609
0.2590133
0.2587
0.2581008
0.2571109
0.2556441
0.2536487
0.2511202
0.2480917
0.244513
0.2404485
0.2360042
0.2313011
0.2264666
0.2216219
0.2168817
0.2123431
0.2080902
0.2042099
0.2007807
0.1978511
0.1954366
0.1935263
0.1920919
0.1910886
0.1904536
0.1901108
0.1899749
0.1900114
0.1901498
0.1903048
0.1904057
0.1904086
0.1903061
0.1901306
0.1899515
0.1898661
0.1899869
0.1904248
0.1912723
0.1925892
0.1943802
0.1965827
0.1990825
0.2017417
0.204395
0.2069023
0.2092259
0.2113841
0.2133741
0.2151892
0.2168682
0.2185015
0.2202121
0.2221245
0.2243641
0.2270297
0.2302165
0.2339525
0.2379502
0.241516
0.2438473
0.2443545
0.2430507
0.2405329
0.2370167
0.2325792
0.227217
0.2210905
0.2144974
0.2076411
0.2006071
0.1934262
0.1861358
0.1787851
0.1714226
0.1641629
0.1571387
0.1504991
0.1443833
0.1388856
0.1340357
0.1298141
0.1261866
0.1231386
0.1206992
0.1189455
0.1180375
0.1183547
0.1200346
0.123161
0.1277219
0.1335462
0.1402652
0.1473863
0.1545644
0.1616982
0.1686348
0.1749097
0.179972
0.1836184
0.1860488
0.187491
0.1879103
0.1871764
0.1855695
0.1838865
0.1825779
0.1812567
0.1797731
0.1781297
0.1765127
0.1750451
0.1736401
0.1719944
0.1698236
0.1670198
0.1635899
0.1596086
0.1551983
0.1504217
0.1452388
0.1396442
0.1337401
0.1276639
0.1215514
0.1155422
0.1097633
0.1043195
0.09928702
0.094714
0.09061553
0.08699348
0.08384101
0.08113725
0.07884487
0.07692572
0.07532872
0.07399503
0.07288782
0.07194633
0.07108561
0.07027435
0.06950628
0.06874549
0.06795092
0.06707043
0.06607684
0.06495499
0.0636847
0.06237171
0.06132012
0.0608708
0.0612781
0.06266731
0.06515019
0.06888254
0.07355825
0.07870658
0.0837303
0.08777705
0.08991864
0.08978071
0.08790141
0.08528572
0.08280959
0.08092034
0.0797313
0.07922277
0.07927704
0.07976418
0.08056932
0.08160416
0.08281083
0.08413637
0.08552873
0.08693416
0.08829802
0.08956702
0.09069172
0.09162711
0.09235152
0.09286144
0.09315627
0.09323169
0.09309771
0.09278636
0.09232121
0.09172197
0.09100602
0.09018881
0.08928362
0.08830213
0.08725468
0.08614798
0.08498788
0.08377895
0.08252512
0.08122966
0.07989547
0.07852391
0.07711676
0.07567641
0.07420544
0.07270647
0.07118303
0.06963822
0.06807209
0.06649343
0.06490807
0.06332754
0.06176432
0.06022979
0.05873441
0.0572862
0.05589117
0.05455457
0.05327997
0.05206864
0.05092031
0.04983389
0.04880754
0.04783864
0.04692399
0.04606017
0.04524363
0.04447086
0.04373845
0.04304316
0.04238201
0.04175223
0.04115135
0.04057714
0.04002759
0.03950092
0.03899554
0.03851001
0.03804304
0.03759345
0.03716018
0.03674221
0.03633863
0.03594857
0.03557123
0.03520583
0.03485167
0.03450807
0.0341744
0.03385007
0.03353455
0.03322737
0.0329281
0.03263638
0.03235189
0.03207435
0.03180355
0.03153929
0.03128138
0.03102964
0.03078386
0.03054379
0.03030909
0.03007951
0.02985493
0.02963536
0.02942078
0.02921113
0.02900631
0.02880626
0.02861094
0.02841985
0.02823251
0.02804881
0.02786876
0.02769232
0.02751938
0.02734981
0.02718348
0.02702029
0.02686015
0.02670297
0.02654871
0.02639734
0.02624884
0.02610323
0.02596054
0.02582081
0.02568408
0.02555042
0.02541988
0.02529252
0.0251684
0.02504757
0.02493008
0.02481596
0.02470523
0.0245979
0.02449396
0.0243934
0.02429618
0.02420226
0.02411156
0.02402401
0.02393952
0.023858
0.02377933
0.02370338
0.02363005
0.02355919
0.02349066
0.02342434
0.02336008
0.02329776
0.02323723
0.02317837
0.02312105
0.02306515
0.02301056
0.02295717
0.02290487
0.02285356
0.02280317
0.02275359
0.02270475
0.02265657
0.02260899
0.02256194
0.02251536
0.02246918
0.02242336
0.02237783
0.02233257
0.02228753
0.02224265
0.02219791
0.02215323
0.02210856
0.02206384
0.02201899
0.02197391
0.02192851
0.02188267
0.02183624
0.02178906
0.02174096
0.0216917
0.02164114
0.02158911
0.02153566
0.02148106
0.02142563
0.02137089
0.02131745
0.02127308
0.007723396
0.009186199
0.01028009
0.01539371
0.0213005
0.02903178
0.03545357
0.04275014
0.05064449
0.05906554
0.06831343
0.07915042
0.0910008
0.1041756
0.1198919
0.1441336
0.156554
0.1695223
0.182597
0.1957342
0.2088809
0.2219415
0.2348076
0.2474059
0.259632
0.2714138
0.2830383
0.2956823
0.3085473
0.3216415
0.3350549
0.3483914
0.3613163
0.3737666
0.3858149
0.397319
0.4084494
0.4193229
0.4299954
0.440475
0.4507267
0.4606895
0.470295
0.4794799
0.4881538
0.4962397
0.5036837
0.5104468
0.5163996
0.521372
0.5247854
0.5261602
0.5252907
0.5232796
0.5198777
0.5152181
0.5095389
0.50308
0.4960835
0.4887801
0.4813985
0.474137
0.4671729
0.4606354
0.4546426
0.4492947
0.4446695
0.4408191
0.4377535
0.4354654
0.4338876
0.4329508
0.4325555
0.4326266
0.4330487
0.4336791
0.4341356
0.4343657
0.434355
0.4340735
0.4334961
0.4326064
0.4313904
0.429852
0.4280111
0.4258779
0.4234161
0.4205625
0.4172701
0.4135605
0.4095258
0.4052681
0.4008646
0.3963911
0.3919416
0.3876288
0.383561
0.3798465
0.3766188
0.3739579
0.3718027
0.370029
0.3684752
0.3669548
0.3653532
0.3636607
0.3619229
0.3601741
0.3584034
0.3563788
0.3537813
0.3503865
0.3461022
0.3409824
0.335195
0.3289673
0.3225348
0.3161095
0.3098707
0.3039647
0.2985
0.2935481
0.2892857
0.2857944
0.2830845
0.2811309
0.2798655
0.2791552
0.2788276
0.2787213
0.2786955
0.2786051
0.2783085
0.2776849
0.2766365
0.2750968
0.273045
0.2705077
0.2673959
0.2637125
0.2595212
0.2549152
0.2500067
0.2449199
0.2397826
0.2347224
0.2298608
0.2253089
0.2211675
0.2175229
0.2144368
0.2119334
0.2100029
0.2086117
0.2077087
0.2072264
0.2070836
0.2071885
0.2074534
0.2078645
0.2083379
0.2088063
0.2092362
0.2096399
0.2100787
0.2106587
0.2115158
0.2127965
0.2146327
0.2171132
0.2202531
0.2239737
0.2281127
0.2324687
0.2368311
0.2409853
0.2447866
0.2482617
0.2514609
0.2543122
0.2567387
0.2588069
0.2607303
0.2628523
0.2654658
0.2687276
0.273016
0.2786092
0.2852613
0.2924526
0.2985728
0.3018583
0.3012391
0.2968637
0.2905477
0.2833845
0.2757458
0.2675373
0.258748
0.2495628
0.2401975
0.2308355
0.2216049
0.2125204
0.2036092
0.1948994
0.1864378
0.1782915
0.17059
0.1634861
0.1571058
0.1515255
0.1467717
0.1428404
0.1397261
0.1374515
0.1360879
0.1357431
0.1367042
0.1392716
0.1435052
0.1493079
0.1563427
0.1641211
0.1721195
0.1800552
0.1879035
0.1954896
0.2021778
0.207444
0.2111927
0.2136052
0.2148984
0.215084
0.2140982
0.212347
0.2107263
0.2095241
0.2082483
0.2062468
0.2036478
0.2010774
0.1990457
0.19739
0.1955233
0.1929555
0.1895365
0.1854021
0.1807196
0.1755813
0.1700034
0.1639982
0.1576427
0.1510709
0.1444232
0.1378108
0.1313522
0.1251419
0.1192427
0.113694
0.1085234
0.1037522
0.09939312
0.09545155
0.09192235
0.08879409
0.08605489
0.08368178
0.08164359
0.07991113
0.0784409
0.0771834
0.07610595
0.07517831
0.07435806
0.07359591
0.07283487
0.07202357
0.07111374
0.07005092
0.06883649
0.06757175
0.06639136
0.06544173
0.06494768
0.0652046
0.06645078
0.06875922
0.07220746
0.07673506
0.08189129
0.08714062
0.09173013
0.0948717
0.09616214
0.0958634
0.09468255
0.09333066
0.09227082
0.09170709
0.0916607
0.09205313
0.09277458
0.09375421
0.09491364
0.09617324
0.09745181
0.09866831
0.09974476
0.1006102
0.1012123
0.1015407
0.1016123
0.1014444
0.101059
0.1004789
0.09972605
0.0988266
0.09780708
0.09669265
0.0955058
0.09426538
0.09298656
0.09168124
0.09035813
0.08902264
0.08767736
0.08632284
0.08495818
0.08358114
0.08218843
0.0807765
0.07934271
0.07788523
0.07640259
0.0748942
0.07336195
0.07181103
0.07024402
0.06865724
0.06706021
0.06546772
0.0638937
0.06235017
0.06084712
0.05939243
0.05799236
0.05665152
0.05537266
0.05415689
0.05300413
0.05191334
0.05088248
0.0499088
0.04898906
0.04811975
0.04729727
0.04651804
0.04577862
0.04507575
0.04440642
0.04376789
0.04315772
0.04257368
0.04201383
0.04147642
0.0409599
0.04046288
0.0399841
0.03952241
0.03907676
0.03864616
0.03822969
0.03782651
0.03743578
0.03705675
0.03668869
0.03633092
0.03598279
0.03564372
0.03531319
0.03499072
0.03467591
0.03436842
0.03406793
0.0337742
0.03348702
0.03320621
0.03293158
0.03266299
0.03240023
0.03214314
0.03189155
0.0316454
0.03140467
0.03116938
0.0309395
0.03071497
0.03049568
0.0302815
0.03007215
0.02986735
0.02966694
0.02947083
0.02927888
0.02909091
0.02890676
0.02872627
0.02854931
0.02837574
0.02820546
0.0280384
0.02787448
0.02771368
0.02755599
0.02740141
0.02724997
0.02710171
0.02695669
0.02681495
0.02667657
0.0265416
0.02641011
0.02628214
0.02615775
0.02603695
0.02591977
0.02580623
0.0256963
0.02558997
0.02548719
0.0253879
0.02529204
0.02519951
0.02511022
0.02502405
0.02494087
0.02486055
0.02478295
0.02470792
0.02463532
0.02456499
0.02449678
0.02443055
0.02436615
0.02430344
0.02424228
0.02418255
0.02412412
0.02406687
0.02401069
0.02395549
0.02390116
0.02384761
0.02379476
0.02374254
0.02369087
0.02363969
0.02358893
0.02353856
0.02348851
0.02343874
0.02338922
0.02333989
0.02329072
0.02324166
0.02319265
0.02314363
0.02309454
0.02304529
0.02299579
0.02294592
0.02289558
0.02284461
0.0227929
0.02274029
0.02268668
0.02263205
0.0225764
0.02252007
0.02246318
0.02240695
0.02235148
0.02230486
0.001724652
0.007028883
0.01064759
0.01498113
0.01994747
0.02573897
0.03244349
0.03992933
0.04836449
0.05856338
0.07402278
0.08313412
0.09294535
0.1031952
0.113874
0.124899
0.1361985
0.1476663
0.1591449
0.1705383
0.1818788
0.1945652
0.2073156
0.2199641
0.2324486
0.244734
0.2567767
0.2685542
0.2801281
0.291484
0.3026078
0.3137976
0.3253223
0.3370252
0.3489715
0.3609871
0.3727733
0.384055
0.3947248
0.4046777
0.414162
0.423347
0.4323384
0.4411917
0.4499168
0.4584754
0.4667695
0.4747172
0.4822377
0.4891354
0.495269
0.50056
0.5045515
0.5067154
0.5072978
0.5060627
0.5028544
0.4977615
0.491193
0.4833709
0.4745962
0.4651789
0.4554316
0.4456386
0.4360634
0.4269432
0.4184779
0.4108547
0.4042198
0.3987086
0.3944156
0.3914202
0.3897429
0.3893643
0.3902076
0.392155
0.3950486
0.3986648
0.4024245
0.4063444
0.4103957
0.4144484
0.4183573
0.421951
0.4250826
0.4276632
0.429642
0.4309903
0.4317276
0.4319068
0.431556
0.430638
0.4290784
0.4268513
0.424037