/*--------------------------------*- C++ -*----------------------------------*\
| =========                 |                                                 |
| \\      /  F ield         | foam-extend: Open Source CFD                    |
|  \\    /   O peration     | Version:     3.1                                |
|   \\  /    A nd           | Web:         http://www.extend-project.de       |
|    \\/     M anipulation  |                                                 |
\*---------------------------------------------------------------------------*/
FoamFile
{
    version     2.0;
    format      ascii;
    class       volScalarField;
    location    "11";
    object      nut;
}
// * * * * * * * * * * * * * * * * * * * * * * * * * * * * * * * * * * * * * //

dimensions      [0 2 -1 0 0 0 0];

internalField   nonuniform List<scalar> 
119952
(
4.545821e-05
2.929519e-05
2.973264e-05
3.344802e-05
3.618446e-05
3.442661e-05
3.342155e-05
3.277407e-05
3.228658e-05
3.183514e-05
3.135986e-05
3.082679e-05
3.022172e-05
2.954031e-05
2.879174e-05
2.802634e-05
2.731306e-05
2.670364e-05
2.620645e-05
2.577525e-05
3.37885e-05
3.226626e-05
3.191309e-05
4.20082e-05
4.063222e-05
4.008764e-05
3.961782e-05
3.94585e-05
3.94278e-05
2.36639e-05
3.150454e-05
3.310153e-05
3.684504e-05
4.09069e-05
4.53172e-05
5.007245e-05
5.521356e-05
6.065388e-05
6.6374e-05
7.613914e-05
0.0003160174
0.0003819677
0.0004552621
0.0005330674
0.0006127338
0.0006938256
0.00077537
0.0008568181
0.0009374563
0.001365009
0.00146207
0.001556977
0.001646373
0.001727908
0.001798733
0.001855703
0.001896335
0.001919596
0.001926778
0.001918934
0.001897685
0.00187138
0.001847156
0.001831102
0.001827892
0.001840464
0.001870527
0.001920293
0.001985898
0.002022685
0.002073383
0.002140921
0.002212439
0.002281397
0.002348638
0.002415478
0.002480311
0.002540601
0.00259368
0.00263608
0.002663766
0.002673368
0.002663224
0.002635861
0.002598352
0.002559167
0.002524462
0.002497815
0.002482959
0.002477789
0.002482775
0.002508541
0.002547412
0.002583644
0.002620398
0.002653138
0.002507965
0.002469933
0.002453288
0.002472894
0.002506573
0.002545687
0.00258623
0.002625783
0.002662113
0.002692914
0.002718155
0.002738142
0.002753181
0.00276294
0.00276715
0.00276491
0.002754084
0.002731099
0.00268977
0.002622599
0.002522566
0.002382104
0.002192475
0.001933609
0.001577882
0.001160512
0.0009142315
0.0008528946
0.0007878378
0.0008067187
0.0008867802
0.0009914997
0.001101957
0.001208103
0.001309264
0.001381503
0.00145788
0.001541079
0.001623633
0.00170114
0.001770995
0.001832184
0.001886665
0.001937456
0.001987339
0.002038765
0.002094003
0.002154938
0.002222432
0.002295658
0.002372136
0.002437499
0.002490781
0.002537665
0.002575782
0.002601332
0.002610793
0.002603473
0.002581956
0.002548019
0.002496346
0.002417091
0.002297371
0.00215156
0.002006011
0.001874654
0.001766602
0.001684652
0.001625245
0.001578714
0.001530795
0.001464666
0.001363829
0.001217133
0.001022683
0.0007987518
0.0006153813
0.0005511515
0.0005307734
0.0005483382
0.0006029622
0.0006636242
0.0007167247
0.0007600086
0.0007834701
0.0007987361
0.0008162662
0.0008354959
0.0008536977
0.0008676602
0.0008751742
0.0008750457
0.0008669934
0.0008511358
0.0008263294
0.0007897069
0.0007316167
0.0006185532
0.0004798602
0.0004344417
0.0004127147
0.0003473559
0.0003730304
0.0004159765
0.0004136989
0.000386229
0.0003591345
0.0003846738
0.0004617039
0.0005045378
0.000483898
0.0004415505
0.0004050188
0.0003768425
0.0003552223
0.0003390197
0.0003273224
0.0003196637
0.0003155142
0.0003141406
0.0003150937
0.0003181955
0.0003232362
0.0003299102
0.0003379108
0.0003469701
0.0003568397
0.0003672579
0.0003779615
0.0003886934
0.0003992243
0.0004093605
0.000418951
0.0004279016
0.00043625
0.0004447906
0.0004546729
0.0004661118
0.0004781982
0.000490297
0.0005019579
0.0005129712
0.0005232304
0.0005326732
0.0005412603
0.0005489648
0.0005557637
0.0005616347
0.0005665829
0.0005706054
0.0005737059
0.0005758979
0.0005772054
0.0005776609
0.0005773043
0.0005761858
0.0005743688
0.0005719293
0.0005689517
0.0005655239
0.0005617297
0.0005576423
0.0005533092
0.0005487607
0.0005440314
0.0005391572
0.0005341919
0.0005292134
0.0005243211
0.0005196236
0.0005151308
0.0006998533
0.0007083196
0.0007156691
0.0007217256
0.0007265852
0.0007303369
0.0007331058
0.0007350422
0.0007362932
0.0007369875
0.0007372434
0.000737176
0.0007368878
0.0007364674
0.0007359899
0.0007355183
0.0007351039
0.0007347869
0.000734597
0.0007345545
0.0007346723
0.0007349579
0.0007354152
0.0007360444
0.0007368425
0.0007378039
0.0007389219
0.0007401877
0.0007415917
0.000743124
0.0007447728
0.0007465254
0.00074837
0.0007502959
0.000752292
0.0007543462
0.0007564478
0.0007585866
0.0007607508
0.000762928
0.0007651055
0.000767267
0.0007693914
0.0007714448
0.0007733724
0.0007750367
0.0007761601
0.0007769782
0.0007776751
0.00077824
0.0007786861
0.0007790264
0.0007792429
0.0007798279
0.0007802179
0.0007785011
0.0007773151
0.0007765847
0.0007762453
0.0007762377
0.0007765198
0.0007770253
0.0007776915
0.0007784656
0.000779313
0.0007802043
0.0007811144
0.0007820272
0.0007829356
0.0007838383
0.0007847379
0.0007856404
0.0007865535
0.0007874864
0.0007884487
0.0007894489
0.0007904944
0.0007915921
0.0007927476
0.0007939645
0.0007952454
0.0007965916
0.0007980036
0.0007994812
0.0008010235
0.0008026288
0.0008042949
0.0008060201
0.0008078019
0.0008096369
0.0008115224
0.0008134553
0.0008154325
0.0008174511
0.0008195084
0.0008216022
0.0008237307
0.000825892
0.0008280842
0.000830306
0.000832556
0.0008348334
0.0008371373
0.0008394667
0.0008418207
0.0008441978
0.0008465968
0.0008490165
0.0008514554
0.0008539122
0.0008563849
0.0008588711
0.000861368
0.0008638715
0.0008663818
0.0008689089
0.0008714622
0.0008740432
0.0008766479
0.0008792707
0.0008819058
0.0008845487
0.000887196
0.0008898465
0.0008924995
0.0008951573
0.0008978237
0.0009005077
0.0009032205
0.0009059858
0.0009088273
0.0009117935
0.0009149547
0.0009184474
0.0009224935
0.0009276091
0.0009346731
0.0009467095
0.0007651847
5.217161e-05
5.649871e-05
6.685655e-05
7.860932e-05
8.999018e-05
0.0001006551
0.000110677
0.000120187
0.0001307214
0.0004304874
0.000592289
0.0007589909
0.000915292
0.001053752
0.001173859
0.001278169
0.0013702
0.001453397
0.002081172
0.002181514
0.002287312
0.002393217
0.002498718
0.002603526
0.002707304
0.002809626
0.002909767
0.003006285
0.00309904
0.00318633
0.003269289
0.003348403
0.003422455
0.003489367
0.003546935
0.003593236
0.003626729
0.003629475
0.003603619
0.003575183
0.00354749
0.003523395
0.003506117
0.003498932
0.003504597
0.003525101
0.00356174
0.003614823
0.003684496
0.00377072
0.003872209
0.003987255
0.004114039
0.004250156
0.004392648
0.00453742
0.005439293
0.005571755
0.005689767
0.005790099
0.005868811
0.005922308
0.005947515
0.005942585
0.005906826
0.005841716
0.005751417
0.005641965
0.005521372
0.005398797
0.005284103
0.005181651
0.005094283
0.005025204
0.004977968
0.004951303
0.004942661
0.00495716
0.004995693
0.005054652
0.005129854
0.005219539
0.005320659
0.005428868
0.005539544
0.005649273
0.005752744
0.005844117
0.00591854
0.00597258
0.00600486
0.006016342
0.006009964
0.005989963
0.005961554
0.00593021
0.005899678
0.005875465
0.005864275
0.005865393
0.005877114
0.005901365
0.005937944
0.005974006
0.006014624
0.00606888
0.006135251
0.006208785
0.00628715
0.006368184
0.006450098
0.006531559
0.006611457
0.006688721
0.00676185
0.006829737
0.00689125
0.006944259
0.006984708
0.007004871
0.006994967
0.006946899
0.006848602
0.006684355
0.006438967
0.006095557
0.005623527
0.00501657
0.004378784
0.003822608
0.003381568
0.003047806
0.002801179
0.002627325
0.002514598
0.002452124
0.002430571
0.002441652
0.002447085
0.002498207
0.002604684
0.002683809
0.002766533
0.002856232
0.002961074
0.003082894
0.003222786
0.003382488
0.003564284
0.003770668
0.004003448
0.004262226
0.004543175
0.004839417
0.00514299
0.005445441
0.005736904
0.006004777
0.006236095
0.006423158
0.006566168
0.006669196
0.006731521
0.006745362
0.006704683
0.006613858
0.006485825
0.00634106
0.006197005
0.006065918
0.005952682
0.005851908
0.005747306
0.005612611
0.005415942
0.005127895
0.004724291
0.004197604
0.003608839
0.003089847
0.002696464
0.002418034
0.002218856
0.002069075
0.001955572
0.001873084
0.001819526
0.001793054
0.00179088
0.001809356
0.001843965
0.001889806
0.001942642
0.001998795
0.002054956
0.00210942
0.002159116
0.002198679
0.002223295
0.002213724
0.002145985
0.002034284
0.001884788
0.001715131
0.001546341
0.001299712
0.001127524
0.0009573416
0.0007913335
0.0007428869
0.000788621
0.0008888795
0.001059322
0.001329878
0.001506736
0.001585798
0.001640125
0.001672738
0.001691919
0.001705578
0.001721392
0.001745512
0.001780646
0.001827415
0.001885759
0.001954956
0.002033587
0.002119936
0.002212369
0.002309381
0.002409467
0.002511063
0.002612624
0.002712719
0.002810084
0.002903628
0.00299243
0.003075683
0.00315234
0.003223449
0.003290654
0.003352969
0.003409731
0.003460742
0.00350597
0.003545491
0.003579418
0.003607857
0.003630894
0.003648606
0.003661067
0.003668358
0.003670553
0.00366774
0.003660037
0.003647572
0.003630483
0.003608918
0.003583067
0.003553178
0.003519557
0.003482546
0.003442512
0.003399826
0.003354839
0.003307849
0.003259098
0.003208818
0.003157263
0.00310476
0.003051742
0.002998723
0.00294617
0.002893652
0.003267165
0.003226523
0.003184086
0.003141223
0.003098878
0.003057711
0.00301811
0.002980272
0.002944287
0.002910173
0.002877902
0.002847423
0.00281868
0.00279161
0.002766153
0.002742251
0.002719849
0.002698894
0.002679332
0.002661111
0.002644176
0.002628473
0.002613946
0.002600536
0.002588184
0.002576831
0.002566415
0.002556874
0.002548145
0.002540165
0.002532873
0.002526207
0.002520109
0.00251452
0.002509385
0.002504651
0.002500267
0.002496183
0.002492352
0.002488725
0.002485257
0.002481902
0.002478612
0.002475338
0.002471999
0.002468477
0.002464661
0.002460607
0.002456382
0.00245202
0.002447479
0.002442799
0.002437912
0.002433302
0.002428407
0.002422733
0.002416687
0.002410557
0.00240443
0.002398328
0.002392272
0.002386273
0.002380341
0.002374491
0.002368741
0.002363115
0.002357633
0.002352319
0.002347194
0.002342276
0.002337585
0.002333137
0.002328946
0.002325026
0.002321386
0.002318035
0.002314977
0.002312217
0.002309753
0.002307586
0.002305712
0.002304125
0.002302819
0.002301785
0.002301014
0.002300497
0.002300223
0.002300182
0.002300363
0.002300756
0.002301349
0.002302134
0.002303099
0.002304236
0.002305537
0.002306995
0.002308603
0.002310356
0.002312248
0.002314276
0.002316436
0.002318724
0.00232114
0.00232368
0.002326341
0.002329122
0.00233202
0.002335031
0.002338154
0.002341385
0.002344718
0.00234815
0.002351675
0.002355288
0.002358984
0.002362762
0.002366619
0.002370548
0.002374545
0.002378599
0.002382704
0.002386849
0.002391029
0.002395233
0.002399462
0.002403707
0.00240798
0.002412273
0.002416622
0.002421022
0.002425556
0.002430224
0.002435202
0.002440481
0.002446374
0.002452917
0.002461647
0.002474402
0.002490007
2.841015e-05
3.447222e-05
4.359216e-05
5.432017e-05
6.702128e-05
8.21543e-05
0.000100539
0.0001231056
0.0001514832
0.0002005948
0.0008560579
0.001002674
0.00115745
0.001323796
0.001499811
0.001676703
0.001828029
0.001984751
0.002363179
0.004237581
0.004472459
0.004633137
0.004777254
0.004913141
0.005044994
0.005163695
0.005273762
0.005380107
0.005541109
0.005832894
0.006057473
0.006202062
0.006301302
0.006375128
0.006432502
0.006478771
0.006517207
0.006554891
0.006455551
0.006459002
0.006504797
0.006565893
0.006628815
0.006686815
0.006736741
0.006777621
0.006809568
0.006832966
0.006848165
0.006859124
0.006868084
0.006876069
0.00688346
0.006890192
0.006896026
0.006899596
0.007714714
0.007724956
0.00773145
0.007737958
0.007746579
0.00775871
0.007775202
0.007796344
0.00782219
0.00785185
0.007883394
0.007915165
0.007944888
0.007969742
0.007987355
0.007995747
0.007993236
0.007978391
0.007949742
0.007906065
0.007847931
0.007777778
0.007700478
0.007623648
0.007548916
0.007478316
0.00741453
0.00736057
0.007320226
0.007299635
0.007302755
0.007329338
0.007378648
0.007449125
0.007538556
0.007643859
0.007761597
0.007888841
0.008001528
0.008112145
0.008214601
0.008303463
0.008374026
0.008421898
0.008443261
0.00843526
0.00839639
0.008327274
0.008230831
0.00811187
0.007977763
0.007836384
0.007688268
0.007540132
0.00740174
0.007278872
0.00717707
0.007093724
0.007031948
0.006997565
0.006990214
0.007007418
0.007047736
0.007110288
0.0071927
0.007290964
0.007399719
0.007512894
0.007627467
0.007737248
0.007836281
0.007919804
0.007984699
0.008029777
0.008055778
0.008065147
0.008061712
0.008050285
0.00803593
0.008023941
0.008019911
0.00802748
0.008048068
0.00808236
0.008129661
0.008186473
0.008248295
0.008316245
0.00839097
0.008470675
0.008553387
0.008637455
0.008721873
0.008806246
0.008890476
0.008974222
0.00905656
0.00913687
0.009214541
0.009287892
0.009352409
0.009399601
0.009417086
0.009389525
0.009307918
0.009158587
0.008930547
0.008611405
0.008178577
0.007628607
0.007019996
0.006417101
0.005849267
0.005332472
0.00487311
0.004472254
0.004131374
0.003852664
0.003637586
0.003484824
0.003389696
0.003344688
0.003340951
0.003370017
0.003425083
0.003500797
0.003594499
0.003717812
0.003875906
0.004071459
0.004307738
0.004587774
0.004912931
0.00528057
0.005682118
0.006104198
0.006532789
0.006955739
0.007360265
0.007730405
0.008050281
0.008311739
0.008517147
0.008674824
0.008786526
0.008844367
0.008844657
0.008798697
0.008726349
0.008638908
0.008548547
0.008462846
0.0083848
0.008309002
0.008219031
0.008088824
0.00789024
0.007598573
0.007192564
0.006667289
0.00606977
0.005485304
0.004961694
0.004507447
0.004115009
0.003772907
0.003474138
0.003218552
0.003008521
0.002844808
0.002725956
0.002648545
0.002606848
0.002594936
0.002606998
0.002637643
0.002681872
0.002736714
0.002797176
0.002858893
0.002917875
0.002961215
0.002974182
0.00295201
0.002886868
0.002768961
0.002617005
0.00242821
0.002213148
0.001994857
0.001802073
0.001664847
0.001599705
0.001507968
0.001301174
0.001245638
0.001302731
0.001445693
0.001672076
0.001981994
0.002277792
0.002400513
0.002531241
0.002669626
0.002813376
0.002962182
0.003115824
0.003273615
0.003434445
0.003596893
0.003759526
0.003920913
0.004079585
0.00423402
0.004382717
0.004524323
0.004657694
0.004781907
0.004896255
0.005000243
0.005094332
0.005180022
0.005258071
0.005328809
0.005392485
0.005449403
0.00550004
0.005544914
0.005584461
0.005619015
0.00564883
0.005674046
0.005694791
0.005711085
0.005722881
0.005730375
0.005733644
0.005732668
0.005727348
0.005717513
0.005702981
0.005683789
0.005659975
0.005631574
0.005598633
0.005561218
0.005519409
0.005473293
0.005423049
0.005368987
0.005311473
0.005250959
0.005188087
0.005123493
0.005058186
0.004994088
0.004914353
0.00483951
0.004768657
0.004701186
0.004636919
0.004575751
0.004517549
0.004462167
0.00440948
0.00435938
0.004311771
0.004266564
0.004223677
0.004183032
0.004144561
0.004108197
0.00407388
0.004041552
0.004011153
0.003982625
0.003955907
0.003930935
0.003907641
0.003885956
0.003865805
0.003847111
0.003829793
0.003813769
0.003798954
0.003785263
0.00377261
0.00376091
0.003750078
0.003740035
0.003730699
0.003721996
0.003713851
0.003706194
0.003698957
0.003692077
0.00368549
0.003679138
0.003672959
0.003666891
0.003660859
0.003654775
0.003648556
0.003642176
0.003635643
0.003628967
0.003622133
0.003615135
0.003607947
0.003600558
0.003592881
0.003584914
0.003576812
0.003568586
0.003560194
0.003551626
0.003542913
0.003534092
0.003525206
0.003516291
0.003507387
0.003498533
0.003489768
0.003481131
0.003472662
0.003464399
0.003456377
0.003448632
0.003441196
0.003434097
0.003427362
0.003421014
0.003415071
0.003409547
0.003404453
0.003399795
0.003395577
0.003391797
0.003388453
0.003385536
0.003383039
0.003380949
0.003379255
0.003377942
0.003376995
0.0033764
0.00337614
0.0033762
0.003376564
0.00337722
0.003378152
0.003379349
0.003380799
0.003382492
0.003384421
0.003386576
0.003388952
0.003391543
0.003394345
0.003397352
0.003400562
0.003403971
0.003407575
0.003411372
0.003415357
0.003419526
0.003423875
0.003428399
0.003433091
0.003437945
0.003442954
0.003448113
0.003453415
0.003458851
0.003464412
0.003470087
0.003475865
0.003481733
0.003487679
0.003493693
0.003499764
0.003505886
0.003512051
0.003518265
0.003524523
0.003530853
0.003537258
0.003543802
0.003550501
0.003557496
0.003564856
0.003572965
0.003582199
0.003593291
0.003605575
3.656281e-05
5.872119e-05
0.0001317654
0.0004459516
0.0007688663
0.001381958
0.001854636
0.002427866
0.00308455
0.003618843
0.004006143
0.00431438
0.004621829
0.004934856
0.005256458
0.005583733
0.005918663
0.006263248
0.006607213
0.006937008
0.007256534
0.007558449
0.007812881
0.008032632
0.008236009
0.008423865
0.008600617
0.008767609
0.008929161
0.009096152
0.009296045
0.01
0.01
0.009803754
0.009513208
0.009247291
0.00901662
0.008826204
0.008688023
0.00858145
0.008474007
0.008417099
0.008403454
0.008421509
0.008467144
0.008540092
0.008637897
0.008757351
0.008899238
0.009065679
0.009247363
0.009421232
0.009620975
0.00984565
0.01
0.01
0.01
0.01
0.01
0.01
0.01
0.01
0.01
0.01
0.01
0.01
0.01
0.01
0.01
0.01
0.01
0.01
0.01
0.01
0.01
0.01
0.01
0.01
0.01
0.01
0.01
0.01
0.01
0.01
0.01
0.01
0.01
0.01
0.01
0.009967343
0.009892409
0.009805656
0.009712906
0.009620784
0.00953517
0.009460552
0.00939978
0.009351991
0.009317853
0.009305066
0.009316952
0.009352545
0.009410107
0.009486903
0.009579675
0.009684025
0.009793849
0.009903556
0.01
0.01
0.01
0.01
0.01
0.01
0.01
0.01
0.01
0.009996508
0.009868325
0.009719208
0.009557522
0.009391838
0.009230559
0.009080502
0.008947439
0.008834362
0.008744025
0.008679886
0.008643737
0.008635223
0.008653068
0.008695529
0.008760138
0.008843293
0.008940187
0.009045033
0.009152874
0.009260967
0.009363722
0.009456215
0.009534743
0.009597217
0.009643369
0.009674723
0.009694359
0.009706642
0.009716642
0.009729502
0.009750048
0.009781968
0.009826951
0.009884671
0.009953145
0.01
0.01
0.01
0.01
0.01
0.01
0.01
0.01
0.01
0.01
0.01
0.01
0.01
0.01
0.01
0.01
0.01000002
0.01000006
0.01000009
0.01000006
0.01000001
0.01
0.01
0.01
0.009763566
0.009275602
0.008752058
0.008211047
0.007664729
0.007125747
0.00660407
0.006110765
0.0056595
0.005264349
0.004936313
0.004680909
0.004497648
0.004381278
0.0043242
0.004318724
0.00435818
0.004437042
0.004551519
0.004716458
0.004938002
0.005219209
0.005561991
0.00596477
0.006419452
0.006909461
0.007412809
0.00791031
0.008389303
0.008837033
0.009238015
0.009577166
0.009849297
0.0100006
0.01000249
0.01000317
0.01000216
0.01000053
0.01000015
0.01000026
0.01000196
0.01001865
0.01002861
0.01002165
0.01000535
0.01000041
0.009925346
0.009751775
0.00950058
0.009158175
0.008723057
0.008218899
0.007688207
0.007161813
0.006653824
0.006171569
0.005718612
0.005296917
0.004911182
0.004567655
0.004271646
0.004026298
0.00383187
0.003684826
0.003580302
0.003512971
0.003477547
0.003468812
0.003482809
0.003514715
0.003559545
0.003613353
0.003668323
0.003714349
0.003743959
0.003747331
0.003710276
0.003622674
0.003473418
0.003263683
0.003006959
0.002728689
0.002469893
0.002263459
0.002121416
0.002045554
0.001973816
0.001685504
0.001553604
0.001536282
0.001611924
0.001778554
0.002054374
0.002440533
0.002870154
0.003050392
0.003246783
0.003455049
0.003669587
0.003884557
0.004096016
0.004301202
0.004498194
0.004685731
0.004862932
0.005029146
0.005183826
0.005326465
0.00545655
0.005573514
0.005676818
0.005766371
0.005845271
0.005915848
0.005979313
0.00603632
0.006087241
0.006132882
0.006174338
0.006212309
0.006247268
0.006279538
0.006309296
0.006336702
0.006360789
0.006358169
0.006362778
0.006375428
0.006395492
0.006422446
0.006454175
0.006469125
0.006472497
0.006472111
0.006467707
0.006459004
0.006445706
0.006427467
0.006403795
0.006374185
0.006338999
0.006298585
0.006253424
0.006204161
0.006151449
0.006096198
0.006039064
0.005979536
0.005918902
0.005858059
0.005797614
0.005738035
0.005679683
0.005622807
0.005567567
0.005514068
0.005462381
0.00541255
0.0053646
0.005318543
0.005274384
0.005232123
0.005191758
0.005153284
0.005116695
0.005081979
0.005049121
0.005018099
0.004988884
0.004961439
0.004935721
0.004911678
0.004889248
0.004868366
0.004848958
0.004830945
0.004814244
0.004798769
0.004784432
0.004771144
0.004758817
0.004747362
0.004736694
0.004726732
0.004717395
0.004708606
0.004700292
0.004692382
0.004684808
0.0046775
0.004670391
0.004663409
0.004656479
0.004649525
0.004642491
0.004635351
0.004628092
0.004620692
0.004613129
0.004605365
0.00459739
0.004589202
0.00458076
0.004572055
0.004563093
0.004553888
0.004544461
0.004534835
0.004525038
0.0045151
0.004505055
0.004494936
0.004484783
0.004474638
0.004464547
0.004454556
0.004444712
0.004435063
0.004425656
0.004416535
0.004407743
0.004399319
0.004391299
0.004383713
0.004376588
0.004369946
0.004363803
0.004358173
0.004353061
0.004348472
0.004344403
0.00434085
0.004337806
0.004335258
0.004333195
0.004331601
0.004330461
0.004329757
0.004329471
0.004329587
0.004330087
0.004330956
0.004332177
0.004333738
0.004335625
0.004337828
0.004340337
0.004343143
0.00434624
0.004349622
0.004353283
0.004357221
0.00436143
0.004365909
0.004370654
0.004375661
0.004380928
0.004386451
0.004392224
0.004398244
0.004404503
0.004410995
0.004417714
0.00442465
0.004431796
0.004439139
0.004446669
0.00445437
0.00446223
0.004470231
0.00447836
0.004486601
0.004494941
0.004503367
0.004511872
0.004520446
0.004529094
0.004537814
0.004546635
0.004555583
0.004564731
0.004574196
0.004584109
0.004594799
0.00460634
0.004618875
2.122418e-05
3.414343e-05
5.118475e-05
0.0002230144
0.0003655028
0.000619855
0.0008741107
0.001107707
0.001402468
0.00169138
0.002004471
0.002410961
0.002893641
0.003441127
0.004059855
0.004854676
0.006370736
0.006979431
0.00756779
0.008094254
0.008558529
0.008959667
0.009314991
0.009639205
0.009938597
0.01
0.01
0.01
0.01
0.01
0.01
0.01
0.01
0.01
0.01
0.01
0.01
0.01
0.01
0.01
0.01
0.009739727
0.00959922
0.009244724
0.008881282
0.008555074
0.008266654
0.008022515
0.007821811
0.00766488
0.007545535
0.007449904
0.007392029
0.007376304
0.007397222
0.007447306
0.007527049
0.007632817
0.00776506
0.007919873
0.008095638
0.008303186
0.008523596
0.008783923
0.009079586
0.009408736
0.009772146
0.01
0.01
0.01
0.01
0.01
0.01
0.01
0.01
0.01
0.01
0.01
0.01
0.01
0.01
0.01
0.01
0.01
0.01
0.01
0.01
0.01
0.01
0.01
0.01
0.01
0.01
0.01
0.01
0.01
0.01
0.01
0.01
0.01
0.01
0.01
0.01
0.01
0.01
0.01
0.01
0.01
0.01
0.01
0.01
0.01
0.01
0.01
0.01
0.01
0.01
0.01
0.01
0.01
0.01
0.01
0.01
0.01
0.01
0.01
0.01
0.01
0.01
0.01
0.01
0.01
0.01
0.01
0.01
0.01
0.01
0.01
0.01
0.009992865
0.009968643
0.009972067
0.01
0.01
0.01
0.01
0.01
0.01
0.01
0.01
0.01
0.01
0.01
0.01
0.01
0.01
0.01
0.01
0.01
0.01
0.01
0.01
0.01
0.01
0.01
0.01
0.01
0.01
0.01
0.01
0.01
0.01
0.01
0.01
0.01
0.01
0.01
0.01000001
0.01000004
0.01000033
0.01000124
0.01000108
0.01000034
0.01000003
0.01
0.01
0.01
0.01
0.01
0.01000003
0.01000036
0.01000218
0.009556405
0.009063579
0.008549459
0.008024043
0.00750525
0.007014402
0.006572749
0.00619745
0.005898788
0.005679749
0.005537925
0.005468098
0.005464427
0.005521777
0.005635722
0.005804999
0.006047528
0.006365653
0.006757897
0.00721665
0.007725337
0.008258379
0.008786717
0.009291117
0.009764721
0.01000005
0.01000004
0.0100001
0.01000077
0.0100057
0.0100228
0.01001466
0.01000313
0.01000041
0.0100017
0.01002356
0.01005117
0.01004055
0.01001155
0.01000148
0.01000009
0.01
0.01
0.01
0.01
0.01
0.01
0.009856546
0.009413139
0.008949036
0.008473301
0.007994336
0.007520166
0.007058148
0.006616767
0.00620532
0.005832528
0.005504422
0.005223681
0.004989726
0.004800467
0.004652891
0.004543223
0.004467337
0.004421727
0.004402444
0.004405346
0.004426952
0.004461622
0.004502342
0.004542889
0.004574962
0.004586418
0.00456231
0.004485889
0.004344667
0.004132838
0.003856875
0.003544986
0.003236204
0.002957839
0.002730582
0.002566303
0.002467549
0.002432728
0.00218296
0.001904364
0.001786644
0.001799265
0.001927775
0.002164841
0.002503775
0.00292293
0.003364044
0.003750849
0.003995183
0.004235353
0.00446987
0.004693131
0.004901594
0.00509365
0.00526927
0.00542893
0.005573187
0.005702434
0.005816823
0.005916311
0.0060009
0.00607365
0.006137718
0.006195007
0.006246451
0.006277824
0.006199095
0.006130156
0.006072955
0.006027413
0.005993758
0.005971629
0.005961047
0.005962011
0.005973913
0.005995933
0.006027436
0.006068129
0.006117663
0.006175472
0.006241158
0.006314736
0.006396094
0.00648405
0.006577318
0.006677772
0.006787664
0.006898868
0.006908008
0.006897751
0.006880667
0.006857268
0.006828292
0.006794527
0.006756799
0.006715861
0.006672331
0.00662688
0.006580129
0.006532589
0.006484693
0.006436817
0.006389269
0.006342288
0.006296056
0.006250713
0.006206369
0.006163113
0.006121014
0.006080137
0.006040536
0.006002266
0.005965376
0.005929915
0.005895924
0.005863441
0.005832497
0.005803112
0.005775297
0.005749051
0.005724363
0.005701208
0.005679553
0.005659352
0.00564055
0.005623085
0.005606888
0.005591883
0.005577991
0.005565131
0.005553222
0.00554218
0.005531927
0.005522383
0.00551347
0.005505116
0.005497248
0.005489795
0.005482689
0.00547586
0.005469241
0.005462759
0.005456344
0.005449936
0.005443492
0.00543698
0.005430368
0.005423624
0.005416716
0.005409621
0.005402316
0.005394753
0.005386893
0.005378738
0.005370302
0.005361597
0.005352633
0.005343426
0.005333999
0.005324376
0.005314591
0.005304681
0.005294688
0.005284658
0.005274644
0.005264696
0.005254869
0.005245217
0.005235793
0.00522665
0.005217836
0.005209397
0.005201374
0.005193806
0.005186723
0.005180152
0.005174115
0.005168626
0.005163698
0.005159335
0.005155537
0.005152303
0.005149623
0.005147488
0.005145885
0.005144799
0.005144213
0.005144108
0.005144468
0.005145273
0.005146506
0.00514815
0.005150191
0.005152614
0.005155406
0.005158556
0.005162057
0.005165899
0.005170078
0.005174588
0.005179426
0.005184589
0.005190075
0.005195883
0.005202011
0.005208459
0.005215224
0.005222304
0.005229696
0.005237396
0.0052454
0.005253702
0.005262295
0.005271172
0.005280321
0.005289732
0.00529939
0.00530928
0.005319386
0.00532969
0.005340174
0.00535082
0.005361609
0.005372525
0.005383552
0.005394682
0.005405906
0.005417232
0.005428681
0.005440286
0.005452142
0.005464286
0.005476988
0.005490133
0.00550393
1.96161e-05
3.014161e-05
5.864668e-05
0.0001763725
0.0002844651
0.0004513103
0.0005803831
0.0007282505
0.00090314
0.001075257
0.00127734
0.001539527
0.001840478
0.002199633
0.002667955
0.003571232
0.003994625
0.004450383
0.004929525
0.005430154
0.005956981
0.00650065
0.007046054
0.007579845
0.008087512
0.008558539
0.009015953
0.009515911
0.0099824
0.01
0.01
0.01
0.01
0.01
0.01
0.01
0.01
0.01
0.01
0.01
0.01
0.01
0.01
0.01
0.01
0.01
0.01
0.01
0.01
0.00984522
0.009384085
0.008920573
0.008518406
0.008086688
0.007737552
0.007442917
0.007191627
0.006984284
0.006818257
0.006693586
0.006605681
0.006555077
0.006540456
0.006565442
0.006628715
0.006726149
0.00685914
0.00702292
0.007224872
0.007456634
0.007738286
0.008070487
0.008456896
0.008885536
0.009347274
0.009858562
0.01
0.01
0.01
0.01
0.01
0.01
0.01
0.01
0.01
0.01
0.01
0.01
0.01
0.01
0.01
0.01
0.01
0.01
0.01
0.01
0.01
0.01
0.01
0.01
0.01
0.01
0.01
0.01
0.01
0.01
0.01
0.01
0.01
0.01
0.01
0.01
0.01
0.01
0.01
0.01
0.01
0.01
0.01
0.01
0.01
0.01
0.01
0.01
0.01
0.01
0.01
0.01
0.01
0.01
0.01
0.01
0.01
0.01
0.01
0.01
0.01
0.01
0.01
0.01
0.01
0.01
0.01
0.01
0.01
0.01
0.01
0.01
0.01
0.01
0.01
0.01
0.01
0.01
0.01
0.01
0.01
0.01
0.01
0.01
0.01
0.01
0.01
0.01
0.01
0.01
0.01
0.01
0.01
0.01
0.01
0.01000001
0.01000002
0.01000002
0.01
0.01
0.01
0.01
0.01
0.01
0.01000001
0.01000004
0.01000013
0.01000017
0.01000011
0.01000002
0.01000001
0.01000006
0.01000137
0.01000455
0.01000338
0.0100009
0.01000006
0.01
0.01
0.01
0.01
0.01
0.01000001
0.01000012
0.010002
0.01000913
0.0100098
0.01000697
0.01000146
0.009547436
0.009064375
0.008577813
0.008112212
0.007691954
0.007336336
0.007057522
0.006860793
0.006746386
0.006711825
0.006753912
0.006869783
0.007055722
0.00731747
0.007663519
0.008086815
0.008571955
0.00909325
0.009621618
0.01000001
0.01000025
0.0100015
0.01000173
0.01000085
0.01000126
0.01001041
0.01002581
0.01002581
0.01001541
0.01000179
0.01000158
0.01002337
0.01012599
0.01004837
0.01000665
0.01000034
0.01
0.01
0.01
0.01
0.01
0.01000001
0.01000006
0.01000039
0.01000211
0.01000448
0.01000288
0.009862398
0.009430999
0.00899168
0.008550618
0.008116827
0.007699997
0.007309076
0.006951019
0.006630338
0.006349328
0.006108228
0.005905732
0.005739637
0.005607583
0.005507535
0.005437101
0.005393602
0.005374459
0.005375841
0.005393115
0.005421482
0.005454363
0.005482317
0.005492735
0.00547004
0.005397763
0.005260362
0.005048151
0.004766271
0.004434524
0.004078543
0.003728144
0.003413936
0.003159555
0.002976556
0.002864011
0.002816566
0.002733279
0.002325729
0.002106985
0.002057346
0.002141661
0.002337421
0.002625011
0.002981503
0.003382408
0.003792683
0.004180693
0.004535227
0.004851381
0.005058911
0.005239168
0.005401524
0.005546785
0.00567586
0.00578949
0.005888063
0.005971559
0.006010991
0.005945234
0.005870435
0.005794464
0.005723254
0.005661679
0.005611883
0.005574646
0.005550326
0.005538422
0.005538133
0.005549066
0.005571114
0.005603853
0.005646008
0.005697414
0.005758299
0.005828754
0.005908399
0.00599673
0.006093669
0.006200029
0.00631495
0.006435842
0.006561807
0.006695717
0.006841267
0.006997896
0.007151519
0.007197074
0.007195385
0.007187114
0.007173171
0.0071544
0.007131577
0.007105399
0.007076512
0.007045502
0.007012874
0.006979058
0.006944422
0.006909277
0.006873872
0.006838402
0.006803022
0.006767856
0.006733009
0.006698572
0.006664629
0.006631263
0.006598557
0.006566595
0.006535463
0.006505246
0.006476026
0.00644788
0.006420878
0.00639508
0.006370531
0.006347267
0.006325308
0.006304658
0.00628531
0.006267244
0.006250427
0.006234816
0.00622036
0.006206998
0.006194666
0.006183297
0.006172821
0.006163167
0.006154265
0.006146046
0.00613844
0.006131382
0.006124804
0.006118641
0.00611283
0.006107305
0.006102
0.006096853
0.006091805
0.006086805
0.006081813
0.006076789
0.006071694
0.006066489
0.006061135
0.006055595
0.006049824
0.006043785
0.00603746
0.00603084
0.006023919
0.006016693
0.006009167
0.006001351
0.005993263
0.005984929
0.005976381
0.005967656
0.0059588
0.005949861