/*--------------------------------*- C++ -*----------------------------------*\
| =========                 |                                                 |
| \\      /  F ield         | foam-extend: Open Source CFD                    |
|  \\    /   O peration     | Version:     3.1                                |
|   \\  /    A nd           | Web:         http://www.extend-project.de       |
|    \\/     M anipulation  |                                                 |
\*---------------------------------------------------------------------------*/
FoamFile
{
    version     2.0;
    format      ascii;
    class       volScalarField;
    location    "11";
    object      omega;
}
// * * * * * * * * * * * * * * * * * * * * * * * * * * * * * * * * * * * * * //

dimensions      [0 0 -1 0 0 0 0];

internalField   nonuniform List<scalar> 
119952
(
285.201
354.8032
334.6902
294.1423
266.4118
269.2147
274.9086
282.0852
290.0875
298.5333
307.1831
315.8772
324.521
333.0594
341.4648
349.9412
359.1434
370.1885
383.7298
400.4706
344.4192
347.4919
355.5602
304.2329
301.1638
301.2174
301.5359
301.5159
298.7525
163.24
713.6394
583.3307
486.8103
418.858
368.7515
330.4331
300.0712
275.4789
255.1085
233.0859
195.8133
169.5962
151.2114
137.4394
126.6004
117.6863
110.1894
103.8087
98.31048
77.44072
73.96805
70.71292
67.74844
65.17654
63.02526
61.28554
59.93069
58.92605
58.24674
57.86167
57.56972
57.29611
56.94395
56.40344
55.58213
54.41964
52.88284
51.02463
49.85241
48.4635
46.76389
45.1908
43.77452
42.49382
41.31301
40.26373
39.36544
38.62112
38.02899
37.59509
37.32995
37.2436
37.33499
37.56854
37.8709
38.1605
38.37323
38.46271
38.43104
38.305
37.9611
37.45502
37.04516
36.64718
36.24393
36.03995
36.8398
38.6759
38.60796
38.27635
37.89048
37.51405
37.17807
36.90243
36.70334
36.5968
36.57401
36.6228
36.73069
36.89128
37.10083
37.36462
37.70017
38.14041
38.74853
39.61062
40.8425
42.62167
45.28184
49.70926
58.00105
71.93247
84.92923
93.55556
99.34038
101.8564
100.5519
95.98129
89.31449
81.78681
74.30326
67.355
61.15356
55.77771
51.25205
47.50237
44.39927
41.83159
39.70782
37.95554
36.51429
35.33415
34.37542
33.60817
33.01053
32.56445
32.25559
32.24665
32.45801
32.7584
33.11916
33.51216
33.92773
34.35699
34.79455
35.25139
35.79174
36.50858
37.60203
39.03769
40.60487
42.14746
43.50558
44.5751
45.35864
45.99351
46.73591
47.94732
50.1119
53.97969
60.89014
73.0809
88.52778
98.66925
102.4201
102.2471
99.57707
95.44448
90.6217
85.55519
80.43784
75.40485
70.62842
66.27375
62.45211
59.20272
56.52185
54.38641
52.75777
51.64378
51.15297
51.46535
53.47085
60.52921
72.46251
80.7625
88.407
95.95775
100.9032
97.1204
88.62956
79.37465
73.37225
66.70311
58.83566
53.44209
50.45594
48.48502
46.98588
45.9653
45.36026
45.07297
45.02215
45.11834
45.31033
45.57875
45.89443
46.22364
46.54613
46.8537
47.14236
47.41057
47.65975
47.89602
48.12718
48.36229
48.60966
48.87629
49.16739
49.48593
49.82792
50.13112
50.29391
50.40624
50.31726
50.10934
49.84618
49.54872
49.22644
48.88375
48.52312
48.14622
47.75436
47.34964
46.93235
46.50428
46.06716
45.6227
45.17276
44.71934
44.26455
43.81045
43.35891
42.91159
42.46985
42.03482
41.60748
41.18873
40.77994
40.38284
39.99832
39.62753
39.27096
38.92825
38.59766
38.27699
37.96459
30.56254
29.75029
28.94716
28.18679
27.52268
26.96535
26.50953
26.14271
25.84907
25.61233
25.41784
25.25323
25.10855
24.97615
24.85034
24.72702
24.60336
24.47748
24.34826
24.21509
24.07779
23.93646
23.79134
23.64282
23.49139
23.33755
23.18181
23.0247
22.86672
22.70837
22.55012
22.39246
22.2358
22.08054
21.92703
21.7756
21.62657
21.48017
21.33668
21.19635
21.05944
20.92629
20.79744
20.67411
20.55921
20.45601
20.36167
20.27213
20.18739
20.10714
20.03098
19.95946
19.89369
19.83887
19.83335
19.76027
19.67398
19.57592
19.46723
19.35156
19.23222
19.11275
18.99617
18.88464
18.77962
18.68187
18.59161
18.50868
18.43259
18.3627
18.29825
18.23846
18.18253
18.12973
18.07937
18.03085
17.98365
17.93732
17.8915
17.84588
17.80023
17.75439
17.7082
17.66159
17.6145
17.56689
17.51875
17.47008
17.4209
17.37125
17.32115
17.27066
17.21981
17.16865
17.11722
17.06558
17.01374
16.96176
16.90966
16.85748
16.80525
16.753
16.70076
16.64855
16.5964
16.54434
16.4924
16.44061
16.38901
16.33761
16.28648
16.23565
16.18519
16.13514
16.08532
16.03534
15.98501
15.93437
15.88361
15.83288
15.78232
15.732
15.68197
15.63224
15.58279
15.53357
15.48445
15.43527
15.38575
15.33554
15.28406
15.23035
15.17279
15.10836
15.03018
14.92309
14.754
14.48607
14.46255
708.236
587.8656
529.1108
486.7394
450.0697
417.3126
388.0875
362.0975
337.9983
279.9457
219.9208
185.2899
163.8987
149.7151
139.5869
131.8244
125.505
120.0909
95.40963
90.92804
86.62703
82.60721
78.95902
75.69899
72.80147
70.23175
67.94501
65.89303
64.1206
62.46083
60.84618
59.30292
57.85692
56.52933
55.33161
54.26656
53.33036
52.82312
52.57662
52.18608
51.69153
51.09503
50.3897
49.572
48.64419
47.61609
46.50476
45.31918
44.09337
42.85339
41.61854
40.40693
39.23875
38.13209
37.10199
36.1679
32.53366
31.92716
31.40953
30.97385
30.61423
30.32641
30.10712
29.95279
29.85784
29.81384
29.81273
29.83907
29.87275
29.89183
29.87327
29.80493
29.68173
29.49932
29.26115
28.94733
28.53315
28.05776
27.54388
26.99581
26.42932
25.8632
25.31681
24.80424
24.33525
23.91311
23.5422
23.22601
22.96462
22.75461
22.58907
22.45864
22.35319
22.26267
22.17816
22.09297
22.0005
21.89613
21.79077
21.69442
21.60306
21.52154
21.45643
21.4039
21.31231
21.19619
21.08227
20.97518
20.87811
20.79285
20.72039
20.66153
20.61709
20.58822
20.57587
20.58043
20.60284
20.64651
20.71823
20.83011
20.99784
21.23837
21.57903
22.05844
22.72841
23.68359
25.0999
27.15305
29.67837
32.3376
34.93425
37.40129
39.75401
41.97143
43.95694
45.54817
46.55493
46.82978
46.31741
45.07138
43.24118
41.02386
38.60921
36.12808
33.67125
31.35875
29.25923
27.39682
25.77074
24.36936
23.17792
22.18
21.35535
20.68029
20.13286
19.6944
19.34793
19.07413
18.85141
18.66326
18.50265
18.3696
18.26459
18.18695
18.14181
18.14451
18.2166
18.35294
18.52447
18.70103
18.86202
19.00875
19.17178
19.41144
19.81262
20.48219
21.57218
23.28187
25.6508
28.21125
30.48655
32.28772
33.72185
34.97463
36.10698
37.07543
37.78326
38.14055
38.09984
37.66404
36.88087
35.81272
34.53591
33.12753
31.65816
30.19861
28.82082
27.58282
26.58147
25.94647
25.81273
26.12123
27.05812
28.65977
30.90448
35.72306
41.52411
47.97068
54.25905
58.65204
59.59765
57.32759
51.65861
43.9444
36.95358
31.64617
27.82326
25.09984
23.20172
21.90145
21.00212
20.36176
19.88237
19.49208
19.14272
18.80922
18.48163
18.15733
17.83739
17.52577
17.2284
16.95144
16.69975
16.4765
16.28332
16.12046
15.98704
15.88129
15.80066
15.73022
15.66338
15.59797
15.53067
15.45984
15.3844
15.30371
15.21745
15.1255
15.02785
14.92461
14.81597
14.70227
14.58397
14.46162
14.33583
14.20726
14.07665
13.94473
13.8122
13.67974
13.548
13.4176
13.28914
13.16324
13.04057
12.92188
12.80785
12.69909
12.596
12.49876
12.40737
12.32175
12.24185
12.16899
11.15349
11.06204
10.98559
10.91766
10.85454
10.79467
10.73735
10.68212
10.62866
10.57676
10.52621
10.47683
10.42839
10.38068
10.33348
10.28659
10.23978
10.19289
10.14575
10.09824
10.05024
10.0017
9.952577
9.902855
9.852552
9.801707
9.750379
9.698644
9.646593
9.594328
9.541959
9.489601
9.437371
9.385389
9.333773
9.282641
9.232108
9.182291
9.133303
9.085264
9.038305
8.992579
8.948278
8.905618
8.864761
8.825679
8.788068
8.751776
8.716893
8.68348
8.65154
8.621111
8.592271
8.565801
8.541718
8.516851
8.491806
8.467574
8.444372
8.421997
8.400233
8.378905
8.357873
8.33702
8.316255
8.295516
8.274763
8.253968
8.233115
8.212196
8.191211
8.170163
8.149061
8.127917
8.106743
8.085556
8.064372
8.043209
8.022086
8.001021
7.980032
7.959136
7.938349
7.917685
7.897157
7.876773
7.85654
7.836462
7.81654
7.796772
7.777155
7.757681
7.738343
7.719128
7.700023
7.681013
7.662084
7.643216
7.624394
7.605598
7.586811
7.568015
7.549193
7.53033
7.511412
7.492426
7.473361
7.45421
7.434967
7.415627
7.39619
7.376655
7.357024
7.337286
7.317429
7.297443
7.277331
7.257095
7.236746
7.216291
7.195741
7.175102
7.154381
7.133572
7.112673
7.091653
7.070492
7.049107
7.02744
7.005304
6.982536
6.958692
6.933306
6.905341
6.873752
6.837323
6.796969
6.758773
6.726914
568.0319
500.8277
446.131
406.0082
375.5943
352.1962
334.0377
320.2773
310.3486
296.6602
171.6168
160.4332
151.0221
142.7573
135.5498
129.7437
126.6322
124.6481
115.6362
76.96432
75.40636
74.93173
74.49394
74.03479
73.52348
73.00404
72.43983
71.75623
70.32899
67.42189
65.50934
64.37554
63.54706
62.8209
62.12624
61.43632
60.74225
60.04284
60.22739
59.54583
58.54139
57.45756
56.40336
55.41642
54.50313
53.65664
52.86814
52.13532
51.42637
50.71849
50.00344
49.28129
48.55856
47.84235
47.13778
46.45656
43.0924
42.46336
41.85641
41.26306
40.67701
40.09643
39.52237
38.95802
38.4092
37.88156
37.37998
36.91089
36.47772
36.07999
35.71685
35.38762
35.09185
34.82919
34.59688
34.389
34.198
34.01069
33.80865
33.57207
33.29584
32.97766
32.61667
32.21285
31.76734
31.28009
30.75409
30.20117
29.6341
29.06595
28.50898
27.97389
27.46894
26.99486
26.60909
26.26242
25.95737
25.69344
25.46981
25.28541
25.13853
25.0264
24.94491
24.88881
24.85142
24.82373
24.79579
24.75999
24.71933
24.66552
24.58519
24.471
24.31648
24.12309
23.88482
23.59941
23.27842
22.93316
22.57027
22.1958
21.81909
21.45041
21.09897
20.77244
20.47214
20.20111
19.96086
19.75077
19.56833
19.40984
19.27104
19.14767
19.0357
18.93206
18.83461
18.74171
18.65554
18.58106
18.51902
18.46975
18.43185
18.40228
18.36618
18.32301
18.28019
18.24148
18.20815
18.18019
18.15752
18.14047
18.12983
18.12671
18.1321
18.14682
18.17254
18.21187
18.26805
18.34496
18.44887
18.59258
18.78986
19.05683
19.41162
19.88751
20.54321
21.4281
22.50914
23.71898
25.02012
26.3798
27.78036
29.21129
30.63529
31.97524
33.12014
33.9489
34.3613
34.30666
33.78947
32.86349
31.62242
30.18678
28.67128
27.10233
25.5496
24.07983
22.73552
21.54106
20.50896
19.64233
18.93313
18.36278
17.90913
17.55373
17.27943
17.06418
16.88219
16.71435
16.55514
16.40796
16.27298
16.14469
16.02496
15.92876
15.87401
15.86332
15.87734
15.90015
15.92422
15.95269
16.00217
16.10158
16.28786
16.60495
17.10793
17.85321
18.83619
19.94132
21.04511
22.07736
23.02198
23.89735
24.71907
25.47296
26.1215
26.6233
26.94333
27.06332
26.98757
26.73118
26.31621
25.76884
25.11542
24.38438
23.60999
22.8266
22.07762
21.42166
20.90091
20.5634
20.50211
20.80598
21.46002
22.53071
24.10918
26.27222
28.97104
31.89981
34.76759
37.54798
39.99927
41.58295
41.7469
40.15528
37.06001
33.22767
29.43563
26.12048
23.42626
21.31512
19.68297
18.42317
17.43999
16.65826
16.02298
15.49615
15.05255
14.67685
14.35994
14.09571
13.87905
13.70519
13.56951
13.46731
13.39383
13.34451
13.31455
13.29127
13.26663
13.23619
13.19731
13.14842
13.08879
13.01824
12.93688
12.84502
12.74306
12.63157
12.5111
12.38234
12.24608
12.10321
11.95461
11.80119
11.64383
11.48345
11.32093
11.15718
10.99308
10.82952
10.66733
10.50734
10.35043
10.19743
10.0492
9.906409
9.769479
9.638623
9.514062
9.395988
9.284733
9.178253
9.09956
9.021959
8.946858
8.874652
8.805649
8.740044
8.677776
8.618593
8.562181
8.508228
8.456427
8.406477
8.358087
8.310978
8.264892
8.219591
8.174862
8.130515
8.086391
8.042355
7.998297
7.954135
7.90981
7.865286
7.820549
7.775601
7.730465
7.685173
7.639774
7.594324
7.548886
7.503531
7.458333
7.413368
7.368715
7.324454
7.280667
7.237436
7.194845
7.15298
7.111931
7.071794
7.032669
6.994644
6.957783
6.922089
6.8875
6.853958
6.821494
6.790142
6.759949
6.7309
6.703001
6.676103
6.650291
6.625526
6.601876
6.579285
6.557573
6.536584
6.516234
6.496476
6.477268
6.458556
6.440284
6.422395
6.404831
6.387539
6.370466
6.353567
6.336797
6.320122
6.303507
6.286927
6.270361
6.253794
6.237213
6.220614
6.203994
6.187355
6.170702
6.154041
6.137382
6.120734
6.104107
6.087512
6.070958
6.054453
6.038005
6.02162
6.005301
5.989049
5.972864
5.956743
5.940682
5.924673
5.908709
5.892779
5.876871
5.860974
5.845074
5.829159
5.813213
5.797224
5.78118
5.765067
5.748876
5.732597
5.716221
5.699742
5.683154
5.666454
5.649638
5.632701
5.615639
5.598453
5.581145
5.56372
5.546183
5.52854
5.510795
5.492953
5.475014
5.456981
5.438841
5.420594
5.402201
5.383651
5.364857
5.345784
5.326241
5.306148
5.285121
5.263084
5.239498
5.21474
5.188529
5.162831
5.139023
335.9258
242.9901
346.3795
155.2038
120.9555
88.43539
76.35832
66.28544
58.03779
54.07958
52.45299
51.58473
50.77886
50.0613
49.36085
48.72595
48.13528
47.57001
47.07003
46.67858
46.35397
46.13476
46.18463
46.41175
46.69916
47.04041
47.42103
47.83276
48.25315
48.61607
48.82546
47.55894
48.18173
48.87908
49.52232
50.04409
50.4648
50.7826
50.98604
51.08226
51.08428
50.96857
50.75785
50.47596
50.13602
49.74504
49.30955
48.83715
48.3349
47.81134
47.27693
46.73672
46.18643
45.62589
45.05872
44.48923
43.92158
43.35982
42.80574
42.25999
41.72237
41.19323
40.67245
40.15979
39.65466
39.1547
38.65706
38.14951
37.68693
37.21534
36.73871
36.2586
35.77684
35.29647
34.82159
34.3571
33.90869
33.48256
33.0844
32.71795
32.38436
32.08269
31.81071
31.56647
31.34931
31.15888
30.99285
30.84448
30.70142
30.54522
30.36636
30.16373
29.92763
29.65144
29.33277
28.97317
28.57811
28.15894
27.725
27.27713
26.8212
26.36657
25.92252
25.49695
25.09709
24.72756
24.39466
24.09877
23.83839
23.61161
23.41723
23.25317
23.11667
23.00437
22.91215
22.8351
22.76772
22.70421
22.64109
22.58056
22.51552
22.43874
22.34325
22.22363
22.076
21.89899
21.69152
21.45475
21.19425
20.91687
20.62831
20.33397
20.03985
19.75203
19.47593
19.2164
18.9767
18.75665
18.55698
18.37732
18.21631
18.07199
17.94239
17.82586
17.72121
17.62795
17.54626
17.47679
17.42095
17.38115
17.35865
17.35277
17.36068
17.37806
17.39755
17.41442
17.42934
17.44435
17.46026
17.47707
17.49524
17.51604
17.54152
17.57413
17.61656
17.67246
17.74702
17.84434
17.96252
18.09126
18.21578
18.32798
18.44132
18.5691
18.72102
18.91357
19.16946
19.51071
19.94899
20.48029
21.0955
21.7868
22.55003
23.38295
24.27116
25.17583
26.03167
26.75575
27.26467
27.49384
27.41091
27.01965
26.35648
25.48276
24.47624
23.42175
22.34463
21.29082
20.3052
19.42091
18.6602
18.03386
17.53869
17.15796
16.87098
16.66245
16.51763
16.41207
16.31622
16.21118
16.09545
15.97554
15.85071
15.71308
15.56892
15.44363
15.35768
15.29794
15.24696
15.20121
15.16309
15.13833
15.1365
15.16802
15.24659
15.39156
15.62462
15.96471
16.41464
16.94335
17.5029
18.05878
18.59662
19.11291
19.60919
20.07982
20.50841
20.87034
21.14066
21.30234
21.35181
21.29282
21.13453
20.88934
20.5697
20.18822
19.75977
19.29654
18.81834
18.35256
17.91504
17.53483
17.26442
17.15791
17.2711
17.66463
18.39824
19.53177
21.07728
22.93729
25.01478
27.28056
29.68012
32.04635
34.12796
35.65483
36.39989
36.10533
34.6193
32.1078
29.09274
26.11551
23.49134
21.32663
19.61046
18.2651
17.21531
16.39582
15.75346
15.24894
14.85377
14.54722
14.31326
14.13894
14.01346
13.92748
13.87281
13.84243
13.82991
13.821
13.80521
13.77734
13.73463
13.67548
13.59977
13.50844
13.40235
13.28238
13.14951
13.00482
12.8493
12.68406
12.51024
12.32892
12.14116
11.94803
11.75062
11.55002
11.34718
11.14303
10.93855
10.73472
10.53249
10.33282
10.13668
9.944994
9.758784
9.578825
9.405689
9.239713
9.081201
8.930433
8.787664
8.652689
8.526778
8.409292
8.299738
8.197542
8.102164
8.013113
7.929897
7.851999
7.778906
7.710126
7.645186
7.583638
7.525054
7.469033
7.415207
7.363235
7.31281
7.263661
7.215544
7.168253
7.121608
7.075462
7.029694
6.984208
6.938935
6.893824
6.848845
6.803984
6.759242
6.714632
6.670176
6.625907
6.581862
6.538086
6.494626
6.451536
6.408873
6.366695
6.325066
6.284051
6.243716
6.20413
6.165358
6.12746
6.090484
6.054455
6.019368
5.985215
5.952012
5.919796
5.888596
5.858422
5.829259
5.801108
5.774025
5.747952
5.722807
5.698538
5.675113
5.652501
5.630662
5.609556
5.589137
5.569354
5.550154
5.53148
5.513279
5.495498
5.478085
5.460994
5.444179
5.427598
5.411215
5.394997
5.378914
5.362943
5.347063
5.331258
5.315516
5.299828
5.28419
5.268597
5.253051
5.237551
5.222102
5.206705
5.191365
5.176084
5.160866
5.145714
5.130627
5.115605
5.100647
5.085749
5.070905
5.056109
5.041353
5.026628
5.011921
4.997222
4.982518
4.967796
4.953043
4.938246
4.923392
4.908468
4.893464
4.878368
4.86317
4.847864
4.832441
4.816897
4.801225
4.785424
4.769489
4.753421
4.737222
4.720895
4.704445
4.687876
4.671192
4.654399
4.637496
4.620487
4.603366
4.586132
4.568764
4.551251
4.533548
4.515625
4.497394
4.478801
4.459715
4.440095
4.419829
4.399012
4.377687
4.356404
4.33644
307.1321
206.2626
155.4328
138.2484
111.861
93.16871
79.61482
74.13126
68.1158
64.49918
61.37998
57.36707
53.40814
49.71637
46.37671
42.77189
37.29572
35.99977
35.03033
34.46759
34.25548
34.27537
34.39612
34.56795
34.78339
35.03994
35.35648
35.74524
36.1824
36.65901
37.17423
37.72848
38.32146
38.95121
39.61245
40.30478
41.03443
41.809
42.63105
43.52174
44.49705
45.42323
46.21219
47.02314
47.75506
48.37465
48.86595
49.22131
49.4391
49.52052
49.47624
49.32599
49.07542
48.73072
48.30517
47.81576
47.27699
46.70307
46.10528
45.49438
44.87821
44.26048
43.64841
43.04297
42.44729
41.86302
41.29467
40.74585
40.21916
39.71317
39.22521
38.75266
38.29315
37.84492
37.40654
36.97658
36.55092
36.12545
35.69323
35.25493
34.81163
34.36481
33.91494
33.4639
33.01535
32.57395
32.14531
31.73591
31.35359
31.00526
30.69322
30.41655
30.17187
29.95369
29.75792
29.58393
29.43296
29.3045
29.19256
29.08293
28.9644
28.82327
28.64677
28.42755
28.16311
27.85497
27.50743
27.12673
26.7208
26.299
25.87358
25.45081
25.03625
24.63778
24.26208
23.9148
23.60017
23.31996
23.0722
22.85379
22.66215
22.49512
22.34945
22.22188
22.10915
22.00773
21.914
21.82456
21.7368
21.65087
21.56245
21.46699
21.36022
21.23819
21.09766
20.9365
20.75391
20.55046
20.32852
20.0924
19.84734
19.59841
19.35001
19.1062
18.87071
18.64664
18.43657
18.24322
18.06709
17.90754
17.76363
17.63408
17.5177
17.41382
17.32261
17.24516
17.1833
17.13931
17.11557
17.11406
17.13611
17.18143
17.24721
17.32852
17.41928
17.51217
17.60148
17.68705
17.77126
17.85417
17.93439
18.01246
18.09208
18.17996
18.28478
18.41867
18.59634
18.83622
19.15028
19.51655
19.86981
20.13046
20.2423
20.22189
20.14318
20.04001
19.93347
19.84121
19.7862
19.79177
19.86903
20.01904
20.24048
20.53668
20.91186
21.36361
21.87307
22.4023
22.89744
23.29721
23.54476
23.59887
23.44093
23.07688
22.53458
21.85875
21.10564
20.33376
19.57076
18.8566
18.22476
17.69823
17.28678
16.98459
16.77376
16.63572
16.55943
16.53117
16.52286
16.50306
16.45665
16.38668
16.29789
16.18481
16.04192
15.88679
15.75841
15.67105
15.5934
15.51042
15.42245
15.34368
15.2876
15.25943
15.25435
15.27057
15.31697
15.40675
15.54963
15.74571
15.97997
16.22955
16.48049
16.72936
16.97621
17.22143
17.46203
17.68858
17.88581
18.03768
18.13166
18.16042
18.12188
18.01912
17.85896
17.64919
17.39721
17.11066
16.79664
16.46456
16.1256
15.78858
15.46909
15.19275
14.98893
14.89397
14.95142
15.20872
15.7168
16.512
17.59434
18.94816
20.57948
22.44141
24.4193
26.4028
28.31493
30.08079
31.57063
32.58523
32.85042
32.13177
30.46953
28.20444
25.76708
23.49075
21.54221
19.95686
18.70512
17.73587
16.99594
16.43737
16.02076
15.71581
15.49778
15.34647
15.2451
15.17977
15.139
15.11302
15.086
15.04656
14.98972
14.91347
14.81722
14.7007
14.56455
14.41023
14.23949
14.05425
13.85637
13.64757
13.42952
13.20376
12.97165
12.73441
12.49326
12.24921
12.00327
11.7564
11.5094
11.26314
11.01853
10.7765
10.53792
10.30381
10.07556
9.854084
9.639871
9.433399
9.235098
9.045355
8.864457
8.692638
8.529987
8.376558
8.232315
8.097102
7.970599
7.852385
7.742008
7.638987
7.542804
7.452919
7.368787
7.289871
7.21565
7.145621
7.079309
7.016266
6.956078
6.898367
6.842786
6.789027
6.736815
6.685908
6.636096
6.587201
6.539071
6.491583
6.444636
6.39815
6.352066
6.30634
6.260946
6.215868
6.171101
6.12665
6.082528
6.038756
5.995361
5.952375
5.909837
5.86779
5.826281
5.785359
5.745076
5.705481
5.666623
5.628544
5.591275
5.554835
5.51924
5.484518
5.450702
5.417824
5.385905
5.354961
5.325005
5.29605
5.268055
5.240964
5.214756
5.189421
5.16494
5.141279
5.118402
5.096267
5.074828
5.054039
5.033851
5.014217
4.995089
4.97642
4.958166
4.940284
4.922735
4.905481
4.888489
4.871728
4.855172
4.838798
4.822585
4.806519
4.790585
4.774774
4.759078
4.743492
4.728013
4.712638
4.697367
4.682198
4.667132
4.652168
4.637304
4.622539
4.60787
4.593293
4.578802
4.56439
4.55005
4.53577
4.521542
4.507352
4.493189
4.479038
4.464886
4.450718
4.436521
4.422279
4.40798
4.39361
4.379157
4.364609
4.349957
4.335191
4.320305
4.305291
4.290144
4.274861
4.259441
4.243884
4.228192
4.212368
4.196414
4.180336
4.164136
4.147817
4.131382
4.11483
4.09816
4.081362
4.064429
4.047339
4.030072
4.012592
3.99487
3.976862
3.958553
3.93993
3.92103
3.901942
3.882866
3.865072
152.9515
113.9386
175.2885
87.27955
74.87914
64.32777
61.0865
58.70252
56.07601
54.93157
53.481
51.41217
49.4441
47.36044
44.93777
40.35962
39.19118
38.09161
37.0415
36.04579
35.0649
34.14144
33.32469
32.63996
32.10283
31.71263
31.39305
31.07241
30.90913
30.92279
31.0965
31.38399
31.7337
32.12186
32.54213
33.01019
33.51752
34.05741
34.62717
35.22679
35.85571
36.51306
37.19963
37.91745
38.66627
39.44815
40.2785
41.17449
42.09761
43.07574
44.14177
45.06743
45.84089
46.53769
47.0753
47.44189
47.64038
47.67507
47.55521
47.29313
46.90751
46.417
45.84218
45.19994
44.50911
43.78893
43.05646
42.32725
41.61194
40.92065
40.25699
39.62596
39.02972
38.47924
37.97653
37.51788
37.10205
36.72512
36.37885
36.05622
35.75104
35.45818
35.17302
34.89226
34.6141
34.33679
34.05611
33.76588
33.46028
33.13735
32.79944
32.45029
32.09251
31.72904
31.36453
31.00526
30.65807
30.3303
30.03171
29.7701
29.545
29.35142
29.18163
29.02551
28.8765
28.7345
28.60348
28.48747
28.3868
28.29511
28.19524
28.06768
27.89816
27.67981
27.41251
27.10079
26.75154
26.37257
25.97224
25.55959
25.14444
24.73823
24.34982
23.98649
23.65426
23.35747
23.09835
22.87517
22.68264
22.51473
22.3664
22.23235
22.1073
21.98715
21.86897
21.75104
21.63323
21.51695
21.40188
21.28505
21.16324
21.03357
20.89336
20.74036
20.57294
20.39049
20.19362
19.9842
19.76533
19.54132
19.31716
19.09749
18.88571
18.68441
18.49563
18.3207
18.16036
18.0151
17.88586
17.77265
17.67355
17.58687
17.5118
17.44898
17.40062
17.37043
17.36307
17.38347
17.43599
17.52339
17.64566
17.79926
17.97784
18.17446
18.38219
18.59435
18.80992
19.04069
19.29353
19.55648
19.81173
20.0523
20.28644
20.53909
20.83815
21.20314
21.68154
22.32162
23.10627
23.96151
24.7008
25.13768
25.1626
24.79218
24.22566
23.60688
23.00323
22.43004
21.89852
21.42649
21.02963
20.71851
20.49877
20.37333
20.34543
20.41379
20.56819
20.78519
21.02879
21.25417
21.41475
21.47007
21.39281
21.17288
20.8179
20.35139
19.80964
19.23873
18.68189
18.17332
17.74558
17.41819
17.19327
17.05754
16.99091
16.979
17.01581
17.08573
17.15335
17.19152
17.193
17.16164
17.10174
17.00836
16.87661
16.72967
16.61389
16.53888
16.4657
16.3543
16.21407
16.0847
16.00069
15.9598
15.93589
15.90942
15.88096
15.86462
15.86965
15.89286
15.92375
15.95419
15.98422
16.01854
16.06187
16.11705
16.1827
16.2522
16.31433
16.35645
16.3677
16.34065
16.27201
16.16253
16.01536
15.83464
15.62494
15.39088
15.13712
14.86868
14.59137
14.31147
14.03785
13.78315
13.56326
13.39877
13.31523
13.34323
13.51879
13.87655
14.44242
15.23766
16.27821
17.55343
19.02428
20.63728
22.32472
24.00801
25.6367
27.17247
28.53966
29.56931
30.04407
29.7715
28.74213
27.174
25.38182
23.62831
22.06984
20.77113
19.73655
18.93921
18.33884
17.89487
17.57164
17.33855
17.16952
17.04266
16.94017
16.84823
16.75201
16.64006
16.50667
16.3499
16.17006
15.96812
15.74561
15.5051
15.24957
14.98211
14.70564
14.42271
14.13546
13.84574
13.55509
13.26467
12.97543
12.68801
12.40296
12.12069
11.84146
11.56554
11.29329
11.0252
10.76169
10.50327
10.25077
10.00527
9.768024
9.539604
9.319891
9.109041
8.907316
8.714939
8.53207
8.358775
8.195048
8.040807
7.895859
7.759914
7.63262
7.51357
7.402302
7.298313
7.201073
7.110043
7.024685
6.944472
6.868892
6.79746
6.729716
6.665234
6.60362
6.544515
6.487595
6.432567
6.379175
6.32719
6.276416
6.226682
6.177844
6.129779
6.082388
6.035588
5.989315
5.943519
5.898163
5.853219
5.808673
5.764517
5.720753
5.677393
5.634452
5.591956
5.549932
5.508416
5.467444
5.427055
5.387289
5.348184
5.309772
5.272087
5.235157
5.199016
5.163703
5.129252
5.095694
5.063055
5.031348
5.000583
4.970749
4.941828
4.913812
4.886688
4.860437
4.835033
4.810444
4.786634
4.763566
4.741199
4.719489
4.698394
4.677868
4.65787
4.638356
4.619286
4.600621
4.582324
4.564362
4.546704
4.529323
4.512192
4.495292
4.478603
4.462111
4.445802
4.429666
4.413696
4.397885
4.382228
4.366721
4.351363
4.33615
4.321079
4.306148
4.291354
4.27669
4.262153
4.247735
4.233428
4.219223
4.205109
4.191076
4.177109
4.163197
4.149323
4.135474
4.121634
4.107787
4.093919
4.080014
4.066057
4.052034
4.037933
4.02374
4.009446
3.99504
3.980515
3.965863
3.951079
3.936161
3.921106
3.905914
3.890587
3.875127
3.859537
3.843819
3.827977
3.812014
3.79593
3.779727
3.763401
3.746949
3.730363
3.713633
3.696746
3.679692
3.662461
3.645051
3.627479
3.609768
3.592001
3.574282
3.557896
60.19714
45.61925
46.23761
44.20946
43.29889
42.12006
41.16892
40.32531
39.59223
38.43384
35.67627
35.40809
35.1348
34.86281
34.55794
34.21253
33.86564
33.55131
33.28302
33.04982
32.72563
32.18184
31.65448
31.15014
30.67768
30.24238
29.86372
29.5561
29.32225
29.16225
29.0683
29.02956
29.05811
29.1786
29.39693
29.70489
30.0763
30.48363
30.9131
31.38273
31.88232
32.41033
32.96937
33.56243
34.19176
34.85734
35.55472
36.28816
37.06672
37.88678
38.74005
39.65971
40.68141
41.66229
42.60061
43.45373
44.15293
44.67373
45.02186
45.17836
45.14498
44.93026
44.54972
44.02213
43.37006
42.62019
41.79764
40.93132
40.04536
39.16474
38.30969
37.49941
36.74693
36.06342
35.45471
34.93173
34.49837
34.14833
33.87621
33.67513
33.53427
33.43945
33.37766
33.33474
33.29769
33.25695
33.2057
33.13885
33.05442
32.95287
32.83367
32.69272
32.52381
32.32346
32.09435
31.84472
31.58249
31.31267
31.03993
30.77028
30.51135
30.27103
30.05822
29.88411
29.75239
29.65212
29.56902
29.48649
29.38899
29.27051
29.13304
28.98244
28.829
28.68498
28.54218
28.38516
28.19721
27.96686
27.69011
27.36971
27.01292
26.62866
26.22569
25.81235
25.39705
24.98862
24.59724
24.23686
23.91824
23.64572
23.42109
23.24169
23.0998
22.98564
22.88872
22.79868
22.7057
22.60152
22.48031
22.33989
22.18319
22.01896
21.85044
21.67743
21.50047
21.3194
21.13344
20.94143
20.74227
20.53542
20.32142
20.10217
19.88076
19.66116
19.44799
19.24628
19.06033
18.89258
18.74398
18.61464
18.50377
18.40961
18.32966
18.26098
18.20361
18.15828
18.12281
18.0974
18.08508
18.09157
18.12451
18.1925
18.30382
18.46512
18.67935
18.94333
19.25007
19.59364
19.97612
20.39848
20.86585
21.38453
21.98708
22.67819
23.39743
24.06941
24.66209
25.19949
25.75102
26.33308
26.99324
27.80535
28.81315
29.94208
31.02548
31.83666
32.14067
31.85223
31.02307
29.84112
28.58404
27.39377
26.28529
25.24085
24.26502
23.37736
22.59247
21.92029
21.36691
20.93781
20.63513
20.45165
20.36895
20.35871
20.38522
20.40937
20.39384
20.30885
20.13653
19.87311
19.52954
19.13084
18.71368
18.32146
17.99106
17.7497
17.60933
17.5604
17.57737
17.63666
17.73092
17.85833
17.99372
18.09616
18.15217
18.16873
18.15384
18.12622
18.08817
18.01913
17.9303
17.87162
17.85121
17.7734
17.57848
17.32782
17.12327
17.01748
16.98607
16.96765
16.91459
16.8159
16.69047
16.55892
16.42419
16.27952
16.12891
15.98236
15.84931
15.73668
15.64765
15.58127
15.53163
15.48852
15.44057
15.3784
15.29547
15.1881
15.0553
14.89809
14.71867
14.5198
14.30411
14.07427
13.83343
13.58529
13.33442
13.08649
12.84868
12.63003
12.44207
12.29954
12.22136
12.23081
12.35281
12.61141
13.03113
13.63609
14.44062
15.43996
16.60843
17.9083
19.30263
20.75679
22.22745
23.66171
25.00504
26.19278
27.11058
27.61071
27.59302
27.06203
26.13914
25.00896
23.84778
22.77588
21.85446
21.10007
20.50119
20.03399
19.66997
19.37992
19.13602
18.91261
18.68772
18.45108
18.1966
17.92099
17.62398
17.3071
16.97304
16.62516
16.26714
15.90275
15.53556
15.16881
14.80519
14.4468
14.0953
13.75192
13.41739
13.09203
12.7759
12.46884
12.1705
11.88031
11.59755
11.32159
11.05193
10.78814
10.53001
10.27761
10.03151
9.792688
9.561688
9.338366
9.122646
8.914737
8.71491
8.523449
8.3406
8.166551
8.001423
7.845238
7.697919
7.559296
7.429115
7.307045
7.192687
7.085595
6.985288
6.891266
6.803025
6.720061
6.641884
6.568025
6.498038
6.431507
6.368046
6.307299
6.248945
6.19269
6.138275
6.085467
6.03406
5.983874
5.934752
5.886561
5.839183
5.792524
5.7465
5.701046
5.656105
5.611635
5.567603
5.523987
5.480774
5.437961
5.395553
5.353559
5.312
5.270897
5.230279
5.190175
5.150618
5.111643
5.073284
5.035577
4.998562
4.96228
4.926772
4.892073
4.858216
4.825223
4.793114
4.761897
4.731574
4.702142
4.673595
4.645922
4.619103
4.593116
4.567932
4.54352
4.519843
4.496865
4.474544
4.452842
4.431718
4.41113
4.391042
4.371414
4.352212
4.333401
4.314951
4.296833
4.279021
4.261493
4.244229
4.22721
4.210424
4.193856
4.177498
4.161341
4.145378
4.129605
4.114017
4.098609
4.083379
4.068321
4.053431
4.038705
4.024135
4.009714
3.995434
3.981286
3.967258
3.953338
3.939515
3.925773
3.912098
3.898475
3.884888
3.871321
3.857758
3.844182
3.830577
3.816929
3.803223
3.789445
3.775582
3.761623
3.747558
3.733378
3.719077
3.704649
3.690092
3.675402
3.66058
3.645627
3.630544
3.615333
3.599998
3.584541
3.568965
3.553272
3.537462
3.521537
3.505495
3.489335
3.473056
3.456657
3.440143
3.423522
3.406818
3.39005
3.373288
3.356615
3.34131
88.46931
36.32223
31.43999
30.33335
29.68082
29.36179
29.29963
29.38072
29.56376
29.81846
30.00899
29.99802
29.9703
29.91732
29.84169
29.74102
29.62693
29.50463
29.36682
29.19756
28.9773
28.71793
28.47029
28.24226
28.04239
27.87504
27.74967
27.67068
27.63527
27.64203
27.68821
27.77511
27.90848
28.09334
28.33182
28.61878
28.94
29.28285
29.67856
30.11788
30.60013
31.12737
31.70185
32.32735
33.00758
33.74392
34.51195
35.3212
36.20114
37.14079
38.08969
39.06709
40.02868
40.90502
41.65087
42.22421
42.60047
42.77304
42.72291
42.45919
41.99823
41.36143
40.57899
39.68166
38.7048
37.68256
36.64755
35.63269
34.66721
33.77904
32.99073
32.32365
31.79333
31.4138
31.18109
31.09044
31.13151
31.28649
31.52936
31.83742
32.19141
32.57912
32.97423
33.34637
33.67341
33.94445
34.15399
34.3016
34.39252
34.43272
34.42256
34.35463
34.22049
34.02238
33.7754
33.50886