/*--------------------------------*- C++ -*----------------------------------*\
| =========                 |                                                 |
| \\      /  F ield         | foam-extend: Open Source CFD                    |
|  \\    /   O peration     | Version:     3.1                                |
|   \\  /    A nd           | Web:         http://www.extend-project.de       |
|    \\/     M anipulation  |                                                 |
\*---------------------------------------------------------------------------*/
FoamFile
{
    version     2.0;
    format      ascii;
    class       surfaceScalarField;
    location    "11";
    object      phi;
}
// * * * * * * * * * * * * * * * * * * * * * * * * * * * * * * * * * * * * * //

dimensions      [0 3 -1 0 0 0 0];

internalField   nonuniform List<scalar> 
275122
(
-0.0002358861
0.0002387872
-1.488765e-07
-2.752232e-06
-0.0002106819
0.0002012426
8.172164e-07
8.622025e-06
-0.0002091722
0.0002146358
-2.096699e-07
-5.25395e-06
-0.0002337436
0.0002402579
-2.399332e-07
-6.27436e-06
-0.0002571015
0.0002594567
-2.536061e-07
-2.101587e-06
-0.0002607966
0.0002609075
-2.528017e-07
1.419607e-07
-0.0002600321
0.0002595689
-2.207485e-07
6.83948e-07
-0.0002578217
0.0002571348
-1.927594e-07
8.79734e-07
-0.0002548537
0.0002540273
-1.726554e-07
9.991282e-07
-0.0002513723
0.0002504296
-1.540285e-07
1.096748e-06
-0.0002474371
0.0002463858
-1.363672e-07
1.187717e-06
-0.0002430774
0.0002419243
-1.206501e-07
1.273755e-06
-0.0002383179
0.0002370694
-1.069107e-07
1.355419e-06
-0.0002331869
0.0002318487
-9.531713e-08
1.433512e-06
-0.00022768
0.0002262415
-8.95359e-08
1.528093e-06
-0.0002217036
0.0002201763
-6.702959e-08
1.594307e-06
-0.0002155665
0.0002140954
-7.182963e-08
1.543003e-06
-0.000210112
0.0002089702
-8.997017e-08
1.231771e-06
-0.0002061464
0.0002055003
-1.38407e-07
7.845496e-07
-0.0002047786
0.0002055021
-3.849768e-07
-3.385322e-07
-0.000230387
0.0002385352
-6.3632e-07
-7.511918e-06
-0.0002444699
0.0002460701
-2.424765e-07
-1.357769e-06
-0.0002526912
0.0002552633
-1.237471e-07
-2.448399e-06
-0.0002866438
0.0002984159
2.18559e-07
-1.199068e-05
-0.0003046375
0.0003059322
3.425295e-07
-1.637238e-06
-0.0003125536
0.0003146379
-9.552502e-08
-1.988728e-06
-0.0003192945
0.0003202073
-4.85262e-08
-8.642662e-07
-0.0003212058
0.0003202283
-6.556323e-08
1.043017e-06
-0.0003061061
0.0002877937
-5.827191e-08
1.837059e-05
-0.0001501052
0.000154078
3.994431e-09
-3.976817e-06
-0.0002078277
0.0002176155
-5.566411e-08
-9.73211e-06
-0.0002452638
0.0002544771
6.766705e-09
-9.220061e-06
-0.0002819293
0.0002909908
7.253924e-09
-9.068771e-06
-0.0003181227
0.0003271378
7.442466e-09
-9.022547e-06
-0.0003542328
0.0003632558
7.471811e-09
-9.030459e-06
-0.0003903199
0.0003993253
7.357642e-09
-9.012723e-06
-0.0004263446
0.0004353517
6.699088e-09
-9.013765e-06
-0.0004624149
0.0004714605
6.30555e-09
-9.051898e-06
-0.0004986792
0.0005078132
5.354749e-09
-9.13944e-06
-0.0005348132
0.0005452766
1.612395e-07
-1.062461e-05
8.611919e-06
-0.0003694214
0.000370319
-6.219526e-10
-9.508879e-06
8.577342e-06
-0.0003730875
0.0003739417
-1.334781e-09
-9.430195e-06
8.954797e-06
-0.0003764128
0.0003771982
-1.488907e-09
-9.738623e-06
9.29318e-06
-0.0003797036
0.0003804969
-1.403966e-09
-1.008511e-05
9.713418e-06
-0.0003825427
0.000383182
-1.144688e-09
-1.035161e-05
1.008313e-05
-0.0003850933
0.000385708
-8.374425e-10
-1.069705e-05
1.040501e-05
-0.0003875592
0.0003881761
-3.302791e-10
-1.102154e-05
1.065777e-05
-0.0003900776
0.000390735
-1.55414e-10
-1.1315e-05
1.139448e-05
-0.0003926359
0.000392468
6.531556e-10
-1.122722e-05
9.716467e-06
-0.001603537
0.001612024
-9.407744e-11
-4.814135e-05
1.014536e-05
9.68438e-06
1.010823e-05
1.054545e-05
-0.001618968
0.001625107
-2.061488e-10
-4.911253e-05
1.097041e-05
1.051426e-05
1.09435e-05
1.075526e-05
-0.001630781
0.001636243
-9.165414e-11
-4.892509e-05
1.099987e-05
1.072749e-05
1.098039e-05
1.088164e-05
-0.001641548
0.001646559
-4.489301e-11
-4.869253e-05
1.097972e-05
1.086001e-05
1.096057e-05
1.083349e-05
-0.001651383
0.001655724
4.824255e-12
-4.775096e-05
1.08884e-05
1.081676e-05
1.087141e-05
1.065037e-05
-0.001659856
0.001663455
4.525616e-11
-4.616495e-05
1.064784e-05
1.063564e-05
1.063195e-05
1.030105e-05
-0.001666818
0.001669507
6.241177e-11
-4.377121e-05
1.02559e-05
1.028497e-05
1.024021e-05
9.77184e-06
-0.001671922
0.001673602
5.442764e-11
-4.055687e-05
9.6811e-06
9.75676e-06
9.667675e-06
9.121498e-06
-0.00167508
0.001675388
4.074399e-11
-3.660984e-05
9.042845e-06
9.107203e-06
9.029442e-06
7.808236e-06
-0.001674591
0.001676363
3.151913e-11
-3.340177e-05
8.018944e-06
7.791112e-06
8.010622e-06
7.903148e-06
-0.001675162
0.001672339
2.00729e-11
-2.827743e-05
7.652641e-06
7.896826e-06
7.648324e-06
6.954318e-06
-0.001669466
0.001665876
-6.32312e-12
-2.382427e-05
6.755852e-06
6.951683e-06
6.752509e-06
6.341299e-06
-0.001661822
0.001656984
-6.037336e-11
-2.026992e-05
6.21606e-06
6.337887e-06
6.212662e-06
5.997763e-06
-0.001651601
0.0016455
-3.929167e-11
-1.776264e-05
5.937018e-06
5.994078e-06
5.934484e-06
5.921606e-06
-0.001638891
0.001631689
-1.188586e-11
-1.646848e-05
5.919109e-06
5.914502e-06
5.915032e-06
6.104999e-06
-0.001624087
0.001616027
3.368793e-12
-1.638253e-05
6.13521e-06
6.080094e-06
6.122042e-06
6.54807e-06
-0.001607755
0.001599255
3.195464e-11
-1.75732e-05
6.596069e-06
6.422049e-06
6.507425e-06
7.633204e-06
-0.001590598
0.001581124
5.893021e-11
-2.032677e-05
7.848414e-06
7.063814e-06
7.255106e-06
1.097787e-05
-0.001569295
0.001550868
5.521734e-11
-2.274529e-05
1.174198e-05
9.387563e-06
9.064708e-06
9.055267e-06
-0.001530269
0.00153526
2.005771e-12
-1.404653e-05
8.423447e-06
-0.001536639
0.001533374
-1.641506e-10
-5.158966e-06
2.189369e-05
-0.001524959
0.001516104
-2.927459e-10
-1.303846e-05
1.939717e-05
-0.001508637
0.001501897
-2.654116e-10
-1.265625e-05
1.086062e-05
-0.001495523
0.001491831
-1.457058e-10
-7.169102e-06
3.325489e-06
-0.001490462
0.001489014
1.548489e-11
-1.877505e-06
1.137288e-06
-0.001487678
0.001486729
1.187327e-10
-1.876322e-07
2.320008e-07
-0.001485997
0.001485571
1.579685e-10
1.938192e-07
-2.246542e-07
-0.00148535
0.001485454
1.312918e-10
1.206656e-07
-4.06824e-07
-0.00148583
0.001486658
1.224025e-10
-4.210691e-07
-3.629863e-07
-0.001487747
0.001489269
9.711604e-11
-1.15975e-06
-2.227387e-07
-0.001491088
0.0014934
6.847517e-11
-2.08913e-06
-7.924757e-08
-0.001496019
0.00149915
4.382137e-11
-3.051152e-06
5.461633e-08
-0.001502596
0.001506558
2.751173e-11
-4.017022e-06
1.217506e-07
-0.001510858
0.001515689
1.317159e-11
-4.953535e-06
3.413101e-07
-0.001520809
0.001526482
7.035507e-12
-6.014279e-06
1.184353e-06
-0.001532413
0.00153879
3.443965e-12
-7.560612e-06
3.166173e-06
-0.001545207
0.001552048
9.846901e-13
-1.000649e-05
6.486301e-06
-0.001558713
0.001565699
2.556664e-12
-1.347199e-05
1.170935e-05
-0.00157193
0.001578237
7.414965e-12
-1.801663e-05
1.8585e-05
-0.001582666
0.001587391
1.168413e-11
-2.331052e-05
1.738468e-05
-0.001594616
0.00160268
1.364552e-11
-2.544877e-05
2.57323e-05
-0.00160843
0.001614228
1.256331e-11
-3.153006e-05
4.19991e-05
-0.001612605
0.00161016
3.152716e-12
-3.955404e-05
2.758851e-05
-0.001611278
0.001616077
-8.143597e-12
-3.238767e-05
1.727654e-05
-0.001623261
0.00162893
-1.86451e-11
-2.294516e-05
9.917048e-06
-0.001634328
0.001639792
-2.926225e-11
-1.538155e-05
-4.224895e-06
-0.00164587
0.001653022
-4.048979e-11
-2.927209e-06
-4.476345e-05
-0.001662531
0.0016918
-4.784537e-11
1.54949e-05
-8.752899e-06
-0.001725818
0.001734314
-5.248255e-11
1.875143e-05
-4.899272e-06
-8.717333e-06
-4.878533e-06
-1.020206e-06
-0.001737981
0.001745252
-5.30636e-11
-3.038118e-06
-1.079615e-06
-1.035029e-06
-1.097345e-06
2.853407e-08
-0.001752436
0.001758603
-5.072805e-11
-6.750017e-06
3.03456e-07
-4.374641e-09
2.554201e-07
6.339803e-07
-0.001764043
0.001769308
-4.752066e-11
-7.835767e-06
6.923095e-07
5.930103e-07
6.519867e-07
6.035512e-07
-0.001774599
0.001779711
-4.199228e-11
-7.456686e-06
6.059747e-07
5.645634e-07
5.709412e-07
4.369278e-07
-0.001784679
0.001789319
-3.612032e-11
-6.287075e-06
4.185026e-07
4.051849e-07
3.870693e-07
1.928965e-07
-0.00179377
0.001797888
-2.880467e-11
-4.757706e-06
1.566813e-07
1.632803e-07
1.265343e-07
-8.231272e-08
-0.001801798
0.001805388
-2.116084e-11
-3.119363e-06
-1.24939e-07
-1.089866e-07
-1.545425e-07
-3.392563e-07
-0.001808776
0.001811896
-1.381601e-11
-1.622648e-06
-3.823041e-07
-3.668285e-07
-4.090216e-07
-5.548319e-07
-0.001814847
0.001817616
-7.313753e-12
-4.281346e-07
-5.901239e-07
-5.811529e-07
-6.155027e-07
-7.174588e-07
-0.001820275
0.00182281
-1.986533e-12
4.388172e-07
-7.446845e-07
-7.427346e-07
-7.687118e-07
-8.331516e-07
-0.001825283
0.00182769
2.931776e-12
1.010995e-06
-8.528944e-07
-8.567082e-07
-8.753457e-07
-9.132614e-07
-0.001830077
0.001832444
6.725662e-12
1.356705e-06
-9.275866e-07
-9.347696e-07
-9.482573e-07
-9.76176e-07
-0.001834839
0.001837253
9.813617e-12
1.555832e-06
-9.894039e-07
-9.958726e-07
-1.008361e-06
-1.058477e-06
-0.00183972
0.00184218
1.139567e-11
1.850288e-06
-1.079707e-06
-1.075948e-06
-1.096405e-06
-1.215534e-06
-0.001844682
0.001847043
1.113727e-11
2.609844e-06
-1.254522e-06
-1.230983e-06
-1.269476e-06
-1.4945e-06
-0.001849378
0.001851328
1.164801e-11
4.173871e-06
-1.557386e-06
-1.506367e-06
-1.565136e-06
-2.005011e-06
-0.001853056
0.001854104
1.47252e-11
7.237356e-06
-2.123446e-06
-2.018066e-06
-2.138747e-06
-2.862253e-06
-0.001854745
0.00185435
1.966988e-11
1.224508e-05
-3.045755e-06
-2.878543e-06
-3.063609e-06
-4.125195e-06
-0.001853276
0.001850681
3.176406e-11
1.964557e-05
-4.3904e-06
-4.133488e-06
-4.401553e-06
-5.951129e-06
-0.001846863
0.001841132
5.053193e-11
3.020913e-05
-6.333383e-06
-5.904661e-06
-6.289115e-06
-8.424369e-06
-0.001834037
0.001825123
9.304024e-11
4.322376e-05
-8.967518e-06
-8.203591e-06
-8.714952e-06
-1.237521e-05
-0.001814609
0.001803524
1.096202e-10
6.134423e-05
-1.350609e-05
-1.176791e-05
-1.261101e-05
-1.847461e-05
-0.001793265
0.001781072
2.635389e-10
8.831414e-05
-2.048646e-05
-1.795785e-05
-1.920155e-05
-3.072443e-05
-0.001771052
0.001770477
3.923962e-11
0.0001260383
-3.224446e-05
-2.972676e-05
-3.276761e-05
-2.71301e-05
0.001759985
-2.593332e-10
0.0001201026
-2.478251e-05
-3.010199e-05
-2.727651e-05
-0.001770796
-1.72825e-05
-0.00173554
0.001700859
-2.575496e-10
0.0001012712
-1.569348e-05
-1.786699e-05
-1.574702e-05
-1.090491e-05
-0.001660246
0.001616405
-4.63707e-11
8.555067e-05
-1.028965e-05
-1.064447e-05
-9.870379e-06
-7.112841e-06
-0.001571065
0.001525696
1.681878e-10
7.302131e-05
-6.715083e-06
-7.056214e-06
-6.768293e-06
-4.801477e-06
-0.001481193
0.001438418
3.895062e-10
6.195888e-05
-4.643714e-06
-4.945714e-06
-4.793177e-06
-3.915258e-06
-0.001398115
0.0013608
6.078298e-10
5.316317e-05
-3.896909e-06
-4.022161e-06
-4.014714e-06
-3.876539e-06
-0.001326877
0.001296247
6.149078e-10
4.640453e-05
-3.95104e-06
-3.9417e-06
-4.005374e-06
-3.948359e-06
-0.001268758
0.001244112
3.427821e-10
4.046554e-05
-3.952783e-06
-3.960316e-06
-3.958414e-06
-3.613385e-06
-0.001221977
0.001202302
-7.761241e-11
3.394374e-05
-3.530066e-06
-3.605041e-06
-3.521016e-06
-2.922763e-06
-0.001184728
0.001169625
-4.485459e-10
2.651514e-05
-2.79194e-06
-2.914246e-06
-2.783002e-06
-2.001454e-06
-0.001156509
0.001145948
-6.722315e-10
1.824131e-05
-1.843738e-06
-1.996646e-06
-1.83827e-06
-9.047568e-07
-0.001137278
0.001131068
-7.224399e-10
9.506744e-06
-7.458488e-07
-9.025845e-07
-7.436288e-07
1.782897e-07
-0.001126604
0.001124417
-6.464774e-10
1.197356e-06
3.162312e-07
1.788131e-07
3.168966e-07
1.123367e-06
-0.001123705
0.001125141
-5.152195e-10
-6.17782e-06
1.248049e-06
1.123162e-06
1.247733e-06
1.884322e-06
-0.001127761
0.001132244
-3.669763e-10
-1.219793e-05
1.974122e-06
1.883323e-06
1.973016e-06
2.441169e-06
-0.001137729
0.001144761
-2.4389e-10
-1.692412e-05
2.506578e-06
2.439694e-06
2.504921e-06
2.861463e-06
-0.001152606
0.001161784
-1.551978e-10
-2.072071e-05
2.912019e-06
2.859666e-06
2.909752e-06
3.190139e-06
-0.001171633
0.001182618
-9.646684e-11
-2.381645e-05
3.228029e-06
3.187549e-06
3.225358e-06
3.442947e-06
-0.001194153
0.001206645
-5.939126e-11
-2.631527e-05
3.471138e-06
3.440251e-06
3.468429e-06
3.637792e-06
-0.00121958
0.001233329
-3.610789e-11
-2.833867e-05
3.659482e-06
3.635037e-06
3.656655e-06
3.798739e-06
-0.001247442
0.001262287
-2.133899e-11
-3.007337e-05
3.818505e-06
3.79581e-06
3.815509e-06
3.952029e-06
-0.00127746
0.001293339
-1.156787e-11
-3.172621e-05
3.975137e-06
3.948922e-06
3.971986e-06
4.109112e-06
-0.001309546
0.001326446
-4.889835e-12
-3.339788e-05
4.14331e-06
4.10576e-06
4.140014e-06
4.256591e-06
-0.001343673
0.001361472
-1.818281e-13
-3.499364e-05
4.344774e-06
4.252504e-06
4.341097e-06
4.318547e-06
-0.001379278
0.001397703
2.646803e-12
-3.623177e-05
4.588565e-06
4.312486e-06
4.586572e-06
4.609022e-06
-0.001416927
0.001435609
4.167978e-12
-3.737624e-05
4.734547e-06
4.612698e-06
4.73888e-06
4.357934e-06
-0.001455184
0.00147435
4.799501e-12
-3.680764e-05
4.46159e-06
4.359335e-06
4.46373e-06
4.548403e-06
-0.001493412
0.001512943
4.592763e-12
-3.762633e-05
4.500653e-06
4.547343e-06
4.498598e-06
4.365644e-06
-0.001532589
0.001552163
3.460671e-12
-3.700325e-05
4.351796e-06
4.363052e-06
4.349265e-06
4.1468e-06
-0.001571727
0.001590939
1.799872e-12
-3.571738e-05
4.10808e-06
4.14437e-06
4.106022e-06
3.742507e-06
-0.001609898
0.001628089
-1.706833e-13
-3.30442e-05
3.68587e-06
3.740919e-06
3.684219e-06
3.169294e-06
-0.001645795
0.001662438
-1.967331e-12
-2.915688e-05
3.089268e-06
3.167891e-06
3.087997e-06
2.526602e-06
-0.001678505
0.00169355
-3.7741e-12
-2.497975e-05
2.441377e-06
2.525969e-06
2.440841e-06
1.93137e-06
-0.0017081
0.00172177
-5.689898e-12
-2.121975e-05
1.84406e-06
1.92934e-06
1.844577e-06
1.21029e-06
-0.001735146
0.001747634
-8.240395e-12
-1.714654e-05
1.120504e-06
1.207714e-06
1.120586e-06
4.333074e-07
-0.001759512
0.001769825
-1.000598e-11
-1.181609e-05
3.183295e-07
4.337399e-07
3.182621e-07
-5.749664e-07
-0.001779043
0.001786325
-9.673608e-12
-4.688875e-06
-7.216573e-07
-5.747514e-07
-7.224886e-07
-1.572959e-06
-0.001792024
0.001795458
-9.984203e-12
3.151357e-06
-1.722074e-06
-1.570264e-06
-1.720252e-06
-2.612436e-06
-0.001797519
0.001797616
-1.232678e-11
1.060871e-05
-2.741902e-06
-2.611053e-06
-2.740663e-06
-3.423212e-06
-0.001796547
0.001793957
-1.230927e-11
1.646581e-05
-3.516051e-06
-3.422053e-06
-3.515229e-06
-3.941838e-06
-0.001790445
0.001785862
-1.148004e-11
2.044613e-05
-3.990501e-06
-3.940898e-06
-3.98972e-06
-4.167253e-06
-0.001780655
0.001774893
-9.381742e-12
2.244365e-05
-4.174598e-06
-4.166248e-06
-4.173667e-06
-4.14017e-06
-0.001768878
0.001762825
-6.449451e-12
2.256766e-05
-4.118351e-06
-4.139054e-06
-4.117202e-06
-3.992706e-06
-0.001756839
0.001751128
1.322086e-12
2.162502e-05
-3.964586e-06
-3.992302e-06
-3.964322e-06
-3.917005e-06
-0.001745616
0.001740369
1.8281e-11
2.091728e-05
-3.917622e-06
-3.916653e-06
-3.918168e-06
-4.115716e-06
-0.001735192
0.001729811
5.681422e-11
2.196008e-05
-4.178096e-06
-4.11137e-06
-4.174094e-06
-4.861801e-06
-0.001724026
0.001717813
1.125163e-10
2.59574e-05
-5.027541e-06
-4.844599e-06
-5.009708e-06
-6.303876e-06
-0.001710865
0.001702518
2.897558e-10
3.409852e-05
-6.659688e-06
-6.224291e-06
-6.564725e-06
-9.229153e-06
-0.001692782
0.001682217
4.526755e-10
4.804147e-05
-9.893035e-06
-8.89291e-06
-9.462538e-06
-1.489356e-05
-0.001671177
0.001658914
1.089168e-09
7.320095e-05
-1.64141e-05
-1.415814e-05
-1.54737e-05
-2.164522e-05
0.00163985
5.981101e-10
9.503437e-05
-0.001648077
-2.217088e-05
-2.110635e-05
-2.188592e-05
-1.628752e-05
-0.001627366
0.001604019
-1.152918e-10
8.575122e-05
-1.409497e-05
-1.699772e-05
-1.502376e-05
-6.956192e-06
-0.001571583
0.001536029
-2.704282e-10
6.244691e-05
-6.03159e-06
-7.518391e-06
-6.386611e-06
-3.128719e-06
-0.001499724
0.001464955
-2.30223e-10
4.699189e-05
-2.894844e-06
-3.229027e-06
-2.97016e-06
-2.062573e-06
-0.001432171
0.001401575
-1.537254e-10
3.897148e-05
-2.069775e-06
-2.118752e-06
-2.124266e-06
-2.203506e-06
-0.001372908
0.001346072
-1.986071e-11
3.583644e-05
-2.267337e-06
-2.24056e-06
-2.289314e-06
-2.643693e-06
-0.001320729
0.00129681
-2.233164e-11
3.471817e-05
-2.726174e-06
-2.672861e-06
-2.756363e-06
-3.047972e-06
-0.001274302
0.001253199
-2.592544e-10
3.339796e-05
-3.086413e-06
-3.062673e-06
-3.097533e-06
-3.111869e-06
-0.001233453
0.001215094
-5.245973e-10
3.079141e-05
-3.104104e-06
-3.112818e-06
-3.103272e-06
-2.88883e-06
-0.001198032
0.001182446
-6.693381e-10
2.705813e-05
-2.850762e-06
-2.884951e-06
-2.846143e-06
-2.528663e-06
-0.001168148
0.001155443
-6.652149e-10
2.271689e-05
-2.481272e-06
-2.524263e-06
-2.476517e-06
-2.153781e-06
-0.001143963
0.001134007
-5.640842e-10
1.847914e-05
-2.110822e-06
-2.15011e-06
-2.107305e-06
-1.843293e-06
-0.001125082
0.001117468
-4.193218e-10
1.491333e-05
-1.808546e-06
-1.840723e-06
-1.806304e-06
-1.628299e-06
-0.001110657
0.001104834
-2.681873e-10
1.229121e-05
-1.607327e-06
-1.626828e-06
-1.605671e-06
-1.51535e-06
-0.001099585
0.001095055
-1.489023e-10
1.056899e-05
-1.505049e-06
-1.514388e-06
-1.504e-06
-1.509804e-06
-0.001090855
0.001087
-5.190724e-11
9.899309e-06
-1.512784e-06
-1.50901e-06
-1.512075e-06
-1.574813e-06
-0.001083329
0.001079826
-6.178024e-12
9.811898e-06
-1.57967e-06
-1.574356e-06
-1.579172e-06
-1.720102e-06
-0.00107629
0.001072863
1.1246e-11
1.032615e-05
-1.72968e-06
-1.719891e-06
-1.72945e-06
-2.018617e-06
-0.00106914
0.001064848
2.315716e-11
1.243569e-05
-2.053519e-06
-2.018665e-06
-2.052976e-06
-2.440871e-06
-0.001060175
0.001055326
-1.238878e-10
1.467242e-05
-2.470043e-06
-2.441629e-06
-2.470372e-06
-3.360433e-06
-0.001049139
0.001042304
-1.983202e-10
2.067136e-05
-3.552316e-06
-3.363893e-06
-3.559255e-06
-5.977848e-06
-0.001036436
0.001030472
-6.569921e-10
3.25504e-05
-7.28914e-06
-5.99324e-06
-7.325681e-06
-1.040041e-05
-0.001030396
0.001026359
-2.546579e-10
4.429005e-05
-9.703232e-06
-1.042515e-05
-9.723493e-06
-5.497932e-06
-0.001014289
0.000998363
-5.882786e-12
3.641209e-05
-4.725899e-06
-5.517768e-06
-4.744161e-06
-4.241734e-06
-0.0009783572
0.0009518437
-1.003141e-09
4.211391e-05
-3.54519e-06
-4.257479e-06
-3.555037e-06
-4.671186e-06
-0.0002288874
0.0002247121
3.478597e-09
8.843031e-06
-2.455551e-06
-0.0002112596
0.0002061593
3.43379e-09
7.552366e-06
-1.820988e-06
-0.0001907682
0.0001859142
6.11808e-09
6.668862e-06
-2.589281e-06
-0.0001725809
0.000168576
4.686062e-09
6.58951e-06
-2.749347e-06
-0.0001588182
0.0001561934
1.170541e-09
5.373006e-06
-3.831453e-06
-0.0001482924
0.0001453549
-8.146377e-10
6.769839e-06
-3.608023e-06
-0.0001361408
0.0001333209
-1.016708e-09
6.428882e-06
-1.632339e-06
-0.0001268233
0.0001254843
-6.495359e-10
2.971974e-06
-4.813403e-07
-0.0001232987
0.0001229918
-4.199645e-10
7.886185e-07
-5.365539e-07
-0.0001223205
0.000122083
-2.861642e-10
7.742958e-07
-8.236278e-07
-0.0001212881
0.0001209849
-1.992344e-10
1.127066e-06
-9.394611e-07
-0.000119987
0.0001196331
-1.522815e-10
1.293482e-06
-9.863591e-07
-0.0001185133
0.000118119
-1.218983e-10
1.38078e-06
-1.017789e-06
-0.0001168675
0.000116426
-1.10282e-10
1.459393e-06
-1.038898e-06
-0.0001150365
0.0001145491
-1.192228e-10
1.526479e-06
-1.065721e-06
-0.00011301
0.0001124643
-1.416415e-10
1.611559e-06
-1.101245e-06
-0.000110734
0.000110121
-1.681312e-10
1.714361e-06
-1.141084e-06
-0.0001081905
0.0001075109
-1.953596e-10
1.820827e-06
-1.187761e-06
-0.0001053781
0.0001046284
-2.213536e-10
1.93764e-06
-1.23741e-06
-0.00010228
0.0001014576
-2.406128e-10
2.060015e-06
-1.279082e-06
-9.889869e-05
9.8011e-05
-2.509933e-10
2.167033e-06
-1.303713e-06
-9.527688e-05
9.433968e-05
-2.546054e-10
2.241167e-06
-1.307028e-06
-9.148442e-05
9.051751e-05
-2.5221e-10
2.274198e-06
-1.287395e-06
-8.760338e-05
8.662855e-05
-2.422488e-10
2.26247e-06
-1.244461e-06
-8.372322e-05
8.276395e-05
-2.238536e-10
2.203956e-06
-1.178928e-06
-7.993893e-05
7.901927e-05
-2.028489e-10
2.098784e-06
-1.093241e-06
-7.634572e-05
7.548892e-05
-1.875856e-10
1.950227e-06
-9.91167e-07
-7.303339e-05
7.226016e-05
-1.688279e-10
1.764566e-06
-8.773389e-07
-7.008005e-05
6.940788e-05
-1.39184e-10
1.549652e-06
-7.563726e-07
-6.75505e-05
6.699344e-05
-9.758061e-11
1.313534e-06
-6.322402e-07
-6.549538e-05
6.506382e-05
-6.429342e-11
1.063869e-06
-5.083007e-07
-6.395127e-05
6.365216e-05
-3.187545e-11
8.074381e-07
-3.872446e-07
-6.294239e-05
6.27802e-05
3.997174e-12
5.49433e-07
-2.719099e-07
-6.248349e-05
6.246295e-05
3.234756e-11
2.924187e-07
-1.51653e-07
-6.260454e-05
6.273522e-05
6.150274e-11
2.091399e-08
2.0568e-07
-6.334139e-05
6.355052e-05
9.697766e-11
-4.149021e-07
5.389024e-07
-6.419529e-05
6.448628e-05
1.208191e-10
-8.300129e-07
6.369854e-07
-6.5544e-05
6.595763e-05
1.426718e-10
-1.050755e-06
7.403754e-07
-6.734419e-05
6.785938e-05
1.589544e-10
-1.255734e-06
8.359435e-07
-6.953263e-05
7.013674e-05
1.734988e-10
-1.44023e-06
9.266333e-07
-7.205916e-05
7.274007e-05
1.857358e-10
-1.607732e-06
1.011566e-06
-7.487695e-05
7.562367e-05
1.983204e-10
-1.75848e-06
1.09066e-06
-7.794333e-05
7.874569e-05
2.087879e-10
-1.893224e-06
1.163936e-06
-8.121863e-05
8.206716e-05
2.108287e-10
-2.012678e-06
1.231121e-06
-8.466604e-05
8.555193e-05
2.248894e-10
-2.117236e-06
1.291948e-06
-8.825082e-05
8.916583e-05
2.339427e-10
-2.207188e-06
1.346618e-06
-9.194056e-05
9.287661e-05
2.296412e-10
-2.282891e-06
1.394567e-06
-9.570424e-05
9.665403e-05
2.312047e-10
-2.344588e-06
1.435753e-06
-9.951294e-05
0.0001004694
2.318503e-10
-2.392475e-06
1.469947e-06
-0.000103339
0.0001042955
2.294047e-10
-2.426666e-06
1.497188e-06
-0.0001071562
0.0001081065
2.267471e-10
-2.447716e-06
1.517724e-06
-0.0001109408
0.0001118793
2.23516e-10
-2.456454e-06
1.531765e-06
-0.000114671
0.0001155927
2.177235e-10
-2.453662e-06
1.539431e-06
-0.0001183277
0.0001192281
2.112289e-10
-2.44007e-06
1.541084e-06
-0.0001218937
0.0001227688
2.052046e-10
-2.416427e-06
1.537215e-06
-0.0001253535
0.0001261999
1.972402e-10
-2.38379e-06
1.528548e-06
-0.0001286942
0.0001295091
1.880412e-10
-2.343615e-06
1.51591e-06
-0.000131906
0.0001326875
1.817732e-10
-2.297564e-06
1.500252e-06
-0.0001349823
0.0001357293
1.747696e-10
-2.247411e-06
1.482472e-06
-0.0001379199
0.0001386322
1.63498e-10
-2.194857e-06
1.463174e-06
-0.0001407187
0.0001413966
1.543606e-10
-2.141218e-06
1.442617e-06
-0.0001433808
0.0001440251
1.472009e-10
-2.08704e-06
1.420753e-06
-0.000145909
0.0001465201
1.379653e-10
-2.032007e-06
1.397138e-06
-0.0001483048
0.000148883
1.30612e-10
-1.975474e-06
1.37158e-06
-0.0001505686
0.0001511138
1.235808e-10
-1.91689e-06
1.344186e-06
-0.0001526997
0.0001532117
1.152455e-10
-1.856259e-06
1.316213e-06
-0.0001546976
0.0001551764
1.103762e-10
-1.795059e-06
1.292467e-06
-0.0001565628
0.0001570079
1.128487e-10
-1.737638e-06
1.279753e-06
-0.0001582856
0.0001586922
9.735065e-11
-1.686482e-06
1.249521e-06
-0.0001599196
0.0001603034
2.572766e-10
-1.633539e-06
1.364823e-06
-0.0001603251
0.0006569618
2.061397e-11
-7.478709e-06
2.193773e-07
1.365411e-06
2.103943e-07
-0.000160327
-0.0001659949
-0.000165996
7.595728e-07
-0.0006622538
0.0006656167
6.80208e-12
-6.928104e-06
1.033461e-06
7.486103e-07
1.023652e-06
9.208084e-07
-0.0006685602
0.0006713363
7.654335e-12
-6.5735e-06
9.863904e-07
9.120768e-07
9.781496e-07
9.588187e-07
-0.0006741208
0.0006767114
6.814047e-12
-6.49396e-06
1.000345e-06
9.511734e-07
9.930033e-07
9.880972e-07
-0.0006791984
0.0006815114
5.574997e-12
-6.300733e-06
1.012981e-06
9.80805e-07
1.005908e-06
9.977996e-07
-0.0006837585
0.0006858952
5.280037e-12
-6.137125e-06
1.008983e-06
9.910677e-07
1.002595e-06
1.004436e-06
-0.0006879812
0.0006899662
6.307376e-12
-6.002299e-06
1.00986e-06
9.987697e-07
1.004267e-06
1.009914e-06
-0.000691906
0.0006937518
9.284353e-12
-5.886259e-06
1.015152e-06
1.005019e-06
1.010306e-06
1.01448e-06
-0.0006955554
0.0006972758
1.079682e-11
-5.776868e-06
1.017938e-06
1.010186e-06
1.013853e-06
1.017874e-06
-0.0006989546
0.0007005594
8.561425e-12
-5.672733e-06
1.019667e-06
1.014245e-06
1.016093e-06
1.019037e-06
-0.0007021253
0.0007036241
7.749463e-12
-5.570975e-06
1.020105e-06
1.015876e-06
1.017061e-06
1.018437e-06
-0.0007050878
0.0007064911
1.027159e-11
-5.47309e-06
1.01909e-06
1.015756e-06
1.016491e-06
1.017027e-06
-0.0007078618
0.0007091782
1.314134e-11
-5.380777e-06
1.017428e-06
1.01473e-06
1.015202e-06
1.014849e-06
-0.0007104649
0.0007117024
7.97274e-12
-5.293406e-06
1.015136e-06
1.012821e-06
1.013153e-06
1.012311e-06
-0.0007129126
0.0007140781
-3.239543e-12
-5.211701e-06
1.012569e-06
1.010546e-06
1.01086e-06
1.009672e-06
-0.0007152185
0.0007163182
-8.939944e-13
-5.135852e-06
1.009933e-06
1.008149e-06
1.008452e-06
1.007131e-06
-0.000717395
0.0007184349
4.523628e-12
-5.066207e-06
1.007412e-06
1.005766e-06
1.006076e-06
1.004838e-06
-0.0007194539
0.0007204396
5.505801e-12
-5.003237e-06
1.005154e-06
1.003632e-06
1.003983e-06
1.002965e-06
-0.0007214064
0.0007223432
5.864637e-12
-4.947292e-06
1.003341e-06
1.001892e-06
1.002289e-06
1.001564e-06
-0.0007232632
0.0007241563
1.142175e-11
-4.898331e-06
1.001979e-06
1.000587e-06
1.001033e-06
1.000647e-06
-0.0007250345
0.000725889
1.260808e-11
-4.856327e-06
1.001116e-06
9.997663e-07
1.000249e-06
1.000249e-06
-0.0007267303
0.0007275511
4.483589e-12
-4.821234e-06
1.000769e-06
9.994647e-07
1.000014e-06
1.000488e-06
-0.0007283602
0.0007291516
-7.652669e-12
-4.793249e-06
1.00108e-06
9.998239e-07
1.000446e-06
1.001436e-06
-0.0007299331
0.0007306996
-9.25859e-12
-4.77243e-06
1.002096e-06
1.000832e-06
1.00154e-06
1.003012e-06
-0.0007314578
0.0007322039
1.670259e-12
-4.758291e-06
1.003713e-06
1.002409e-06
1.003092e-06
1.005107e-06
-0.0007329432
0.000733673
1.848253e-11
-4.750584e-06
1.00592e-06
1.004506e-06
1.005307e-06
1.007922e-06
-0.0007343973
0.0007351144
2.704116e-11
-4.749458e-06
1.008755e-06
1.007368e-06
1.008235e-06
1.011291e-06
-0.0007358275
0.0007365358
3.050394e-11
-4.754323e-06
1.012194e-06
1.01083e-06
1.011768e-06
1.015247e-06
-0.0007372412
0.0007379438
1.738969e-11
-4.764718e-06
1.016225e-06
1.014827e-06
1.015803e-06
1.019795e-06
-0.0007386448
0.0007393448
1.220505e-12
-4.780519e-06
1.020835e-06
1.019382e-06
1.020445e-06
1.024831e-06
-0.0007400443
0.0007407446
4.04172e-13
-4.801053e-06
1.025924e-06
1.024463e-06
1.02556e-06
1.030257e-06
-0.0007414452
0.0007421482
9.651598e-12
-4.825549e-06
1.031388e-06
1.029904e-06
1.031053e-06
1.035955e-06
-0.0007428523
0.00074356
7.61345e-12
-4.853254e-06
1.037106e-06
1.03563e-06
1.036794e-06
1.041977e-06
-0.0007442697
0.000744984
-4.130818e-12
-4.884033e-06
1.043201e-06
1.041652e-06
1.042886e-06
1.048339e-06
-0.0007457008
0.000746423
2.084917e-12
-4.917513e-06
1.04959e-06
1.048041e-06
1.049306e-06
1.054756e-06
-0.0007471482
0.0007478795
1.853978e-11
-4.952279e-06
1.056007e-06
1.054443e-06
1.055708e-06
1.061131e-06
-0.0007486142
0.0007493554
1.158627e-11
-4.987771e-06
1.062419e-06
1.060866e-06
1.06217e-06
1.067579e-06
-0.0007501002
0.0007508513
-2.326289e-12
-5.023607e-06
1.068905e-06
1.067335e-06
1.068666e-06
1.073816e-06
-0.0007516062
0.000752367
4.2612e-12
-5.058164e-06
1.075146e-06
1.073552e-06
1.074901e-06
1.079509e-06
-0.0007531315
0.0007539008
1.627786e-11
-5.089621e-06
1.080854e-06
1.079284e-06
1.080682e-06
1.084361e-06
-0.0007546737
0.0007554494
2.168036e-11
-5.115467e-06
1.085775e-06
1.084119e-06
1.085522e-06
1.087543e-06
-0.0007562282
0.0007570062
2.227453e-11
-5.130741e-06
1.089102e-06
1.087259e-06
1.088793e-06
1.087607e-06
-0.0007577849
0.0007585572
2.212765e-11
-5.125466e-06
1.089244e-06
1.087307e-06
1.088976e-06
1.079608e-06
-0.0007593239
0.0007600788
1.951278e-11
-5.073662e-06
1.080015e-06
1.079384e-06
1.079818e-06
1.043723e-06
-0.0007608295
0.0007616025
1.491164e-11
-4.929548e-06
1.034754e-06
1.043505e-06
1.034551e-06
9.489969e-07
-0.0007624345
0.0007633563
7.78651e-12
-4.651968e-06
9.163025e-07
9.487811e-07
9.160668e-07
8.368648e-07
-0.00076434
0.0007653399
-4.06074e-13
-4.327643e-06
8.272195e-07
8.366448e-07
8.270089e-07
8.208523e-07
-0.0007663227
0.0007672918
2.994384e-12
-4.25892e-06
8.242469e-07
8.206624e-07
8.240727e-07
8.188944e-07
-0.0007682603
0.0007692277
1.766741e-11
-4.244487e-06
8.197939e-07
8.187016e-07
8.196118e-07
8.14128e-07
-0.0007701946
0.000771156
1.762145e-11
-4.22217e-06
8.16462e-07
8.139138e-07
8.162614e-07
8.126226e-07
-0.0007721154
0.0007730607
7.876515e-12
-4.205253e-06
8.175575e-07
8.123539e-07
8.174533e-07
8.058027e-07
-0.0007740038
0.0007749405
2.598662e-12
-4.173531e-06
8.128339e-07
8.051908e-07
8.129809e-07
7.834241e-07
-0.0007759157
0.0007768745
6.676128e-12
-4.089973e-06
7.819369e-07
7.825917e-07
7.832504e-07
6.575554e-07
-0.000778139
0.0007798645
1.947275e-11
-4.443635e-06
7.034239e-07
6.557799e-07
7.013443e-07
8.758402e-07
-0.0007813279
0.0007813445
1.029205e-11
-3.316292e-06
7.690363e-07
8.811711e-07
7.736897e-07
7.620192e-07
-0.0007817638
0.0007827533
8.00344e-12
-3.878003e-06
6.766238e-07
7.678756e-07
6.820072e-07
7.209474e-07
-0.0007837636
0.0007847927
1.896819e-12
-3.856328e-06
6.878429e-07
7.259465e-07
6.924456e-07
7.128864e-07
-0.0007857822
0.0007868432
1.325502e-11
-3.877085e-06
6.912192e-07
7.169646e-07
6.950409e-07
7.125967e-07
-0.0007879003
0.0007889779
2.001237e-11
-3.913591e-06
7.020953e-07
7.160003e-07
7.053315e-07
7.237089e-07
-0.0007900332
0.0007910928
1.962093e-11
-3.950468e-06
7.186459e-07
7.26768e-07
7.216526e-07
7.342447e-07
-0.0007921397
0.0007931889
8.192889e-12
-3.986923e-06
7.320516e-07
7.36872e-07
7.345748e-07
7.443532e-07
-0.0007942261
0.0007952614
-2.270526e-12
-4.016375e-06
7.439564e-07
7.466385e-07
7.461731e-07
7.534124e-07
-0.0007962859
0.0007973074
-5.315439e-12
-4.039952e-06
7.538404e-07
7.553944e-07
7.557549e-07
7.618619e-07
-0.0007983169
0.0007993215
-6.02465e-12
-4.056887e-06
7.62522e-07
7.636409e-07
7.642742e-07
7.692682e-07
-0.0008003188
0.0008013098
-4.199246e-12
-4.073795e-06
7.70662e-07
7.707248e-07
7.721371e-07
7.771973e-07
-0.0008022915
0.000803265
5.740818e-14
-4.087378e-06
7.784281e-07
7.785139e-07
7.796994e-07
7.837819e-07
-0.0008042303
0.0008051864
8.372094e-12
-4.095628e-06
7.84844e-07
7.849025e-07
7.859483e-07
7.892128e-07
-0.0008061343
0.0008070725
1.408486e-11
-4.09877e-06
7.901193e-07
7.901809e-07
7.910659e-07
7.937554e-07
-0.0008080025
0.0008089222
1.372584e-11
-4.097885e-06