/*--------------------------------*- C++ -*----------------------------------*\
| =========                 |                                                 |
| \\      /  F ield         | foam-extend: Open Source CFD                    |
|  \\    /   O peration     | Version:     3.1                                |
|   \\  /    A nd           | Web:         http://www.extend-project.de       |
|    \\/     M anipulation  |                                                 |
\*---------------------------------------------------------------------------*/
FoamFile
{
    version     2.0;
    format      ascii;
    class       volScalarField;
    location    "5";
    object      k;
}
// * * * * * * * * * * * * * * * * * * * * * * * * * * * * * * * * * * * * * //

dimensions      [0 2 -2 0 0 0 0];

internalField   nonuniform List<scalar> 
119952
(
0.0121716
0.01023237
0.009814672
0.01002078
0.01008995
0.009888663
0.009958913
0.01014939
0.01035321
0.01052592
0.01065778
0.01075072
0.01081196
0.01084966
0.01087116
0.01088264
0.01088953
0.01089761
0.01091777
0.01099786
0.01187345
0.01158601
0.01162118
0.01244564
0.01198514
0.01177052
0.01158599
0.01141065
0.01101094
0.01913797
0.03672323
0.03513453
0.03337386
0.03187445
0.03068474
0.02976539
0.02904145
0.02844016
0.0279188
0.02752074
0.02719447
0.02832005
0.03001881
0.03182049
0.03336168
0.03457262
0.03547931
0.0361327
0.0366001
0.03952622
0.03992859
0.04018407
0.04035553
0.04048513
0.04058299
0.0406436
0.04069789
0.04076531
0.04095971
0.04114615
0.04121607
0.04127521
0.041324
0.04134991
0.04135204
0.04132638
0.04126218
0.04111874
0.04153576
0.04134372
0.04101698
0.04097422
0.040966
0.04085286
0.04063538
0.0404017
0.0401682
0.03993707
0.03970728
0.03947629
0.03924228
0.03900415
0.03876117
0.03851248
0.03825664
0.03799106
0.03771085
0.03740966
0.03717778
0.03697183
0.03665197
0.03649744
0.03665355
0.03665014
0.03655999
0.03651516
0.0363693
0.0353519
0.03456912
0.03399848
0.0335221
0.03308408
0.03266673
0.03226531
0.03187627
0.03149744
0.03112785
0.03076711
0.03041498
0.03007124
0.02973559
0.02940773
0.0290874
0.02877438
0.02846854
0.0281698
0.02787811
0.02759342
0.02731564
0.02704469
0.02678053
0.02652317
0.02627265
0.02602903
0.02579234
0.02556262
0.02533989
0.02512415
0.02491539
0.02471354
0.02451855
0.0243303
0.0241486
0.02397315
0.02380445
0.02364199
0.02348528
0.02333412
0.0231883
0.02304756
0.02291159
0.02278009
0.0226527
0.02252901
0.02240819
0.0222882
0.02217081
0.02207174
0.02201168
0.02195352
0.02189079
0.02181939
0.02173867
0.02164952
0.02155299
0.02145016
0.02134211
0.02122992
0.02111448
0.02099655
0.02087676
0.0207556
0.02063352
0.02051089
0.02038804
0.02026525
0.02014281
0.02002095
0.01989991
0.01977992
0.0196612
0.01954398
0.01942842
0.01931472
0.01920307
0.01909374
0.01898715
0.01888357
0.01878311
0.01868592
0.0185922
0.01850213
0.01841593
0.01833382
0.01825598
0.01818264
0.01811395
0.01805013
0.01799134
0.0179378
0.01788907
0.01784484
0.01780476
0.01776884
0.01773628
0.01770508
0.01767971
0.01776397
0.01793299
0.01799625
0.01801364
0.01800705
0.01798859
0.0179592
0.01791374
0.01786143
0.01780871
0.01775935
0.01771562
0.01767882
0.01764982
0.01762908
0.01761686
0.01761327
0.01761888
0.01763241
0.01765483
0.01768578
0.01772272
0.01776784
0.0178214
0.01788346
0.01795402
0.01803252
0.01811182
0.01819069
0.01827109
0.01835445
0.01844188
0.01853412
0.01863065
0.01872735
0.01878675
0.0188973
0.01902625
0.01915137
0.01926696
0.01936951
0.01945847
0.01953392
0.01959629
0.01964636
0.01968487
0.01971266
0.01973073
0.01974008
0.01974163
0.01973633
0.01972505
0.01970863
0.01968782
0.01966333
0.01963577
0.01960573
0.01957369
0.0195401
0.01950534
0.01946979
0.01943372
0.01939737
0.019361
0.0193248
0.0192889
0.01925345
0.01921889
0.01918613
0.01915509
0.01827452
0.01836894
0.01841397
0.01840407
0.01837407
0.01833358
0.01827562
0.01820873
0.01814164
0.01807926
0.01802435
0.01797795
0.01794105
0.01791309
0.01789351
0.01788132
0.01787546
0.01787482
0.01787832
0.01788499
0.01789395
0.01790444
0.01791582
0.01792753
0.01793916
0.01795035
0.01796086
0.01797049
0.01797914
0.01798673
0.01799326
0.01799873
0.01800321
0.01800676
0.01800947
0.01801143
0.01801273
0.01801347
0.01801377
0.01801371
0.01801346
0.01801321
0.01801332
0.0180147
0.01801959
0.01802919
0.01803515
0.01803749
0.01804106
0.01804562
0.01805064
0.01805697
0.01806508
0.01808826
0.01817742
0.01815426
0.01813145
0.01810443
0.01807085
0.01803121
0.01798554
0.0179352
0.01788242
0.01782939
0.0177778
0.01772895
0.01768363
0.01764239
0.01760552
0.01757298
0.0175446
0.01752008
0.01749904
0.01748104
0.01746562
0.01745235
0.01744079
0.01743054
0.01742125
0.01741261
0.01740434
0.01739621
0.01738805
0.0173797
0.01737106
0.01736206
0.01735267
0.01734289
0.01733275
0.0173223
0.0173116
0.01730068
0.01728959
0.01727836
0.01726702
0.01725561
0.01724413
0.01723256
0.01722085
0.01720894
0.01719675
0.01718421
0.01717126
0.01715784
0.0171439
0.01712943
0.01711441
0.01709884
0.01708274
0.01706612
0.01704901
0.01703146
0.01701349
0.01699514
0.01697644
0.01695742
0.01693811
0.01691852
0.01689867
0.01687859
0.01685827
0.01683773
0.01681698
0.01679602
0.01677486
0.01675351
0.01673196
0.01671018
0.01668809
0.01666574
0.01664302
0.01661956
0.01659475
0.01656738
0.01653333
0.01648387
0.01639679
0.01628082
0.01652405
0.05307102
0.0506608
0.05009439
0.05049236
0.05135355
0.05237854
0.05339924
0.0543317
0.05513642
0.05360261
0.05252395
0.05328631
0.05481518
0.05657991
0.05825282
0.05971244
0.06094085
0.06193636
0.06807561
0.06799809
0.06782217
0.06742253
0.06690543
0.06635349
0.06580386
0.06530821
0.06483931
0.06436856
0.06411532
0.06375972
0.06327788
0.06273951
0.06217344
0.0615921
0.06100427
0.0604168
0.05983343
0.05944367
0.05915337
0.05868077
0.05817843
0.05767291
0.05715621
0.05664959
0.05616176
0.05569086
0.05523851
0.05476562
0.05430907
0.05390815
0.05353761
0.05318307
0.05284496
0.05251782
0.05220676
0.05198452
0.05456997
0.05422774
0.05395628
0.05373154
0.05353056
0.05334723
0.05318244
0.05303887
0.05291792
0.05282724
0.05277219
0.05273354
0.05270922
0.05269757
0.05269927
0.05270585
0.05272222
0.05275468
0.05283764
0.0529118
0.05285661
0.05276966
0.05271237
0.05263468
0.05249431
0.05230156
0.05207805
0.05183549
0.05158171
0.05132285
0.05106347
0.05080652
0.05055362
0.05030476
0.05005867
0.04981268
0.04956429
0.04930805
0.04905349
0.04881837
0.04858462
0.04838038
0.04827463
0.04822447
0.04815924
0.04808178
0.04794943
0.04763835
0.04714745
0.04669028
0.04628155
0.04588741
0.04550272
0.04512346
0.04474429
0.04436357
0.04397991
0.04359278
0.0432024
0.04280937
0.04241441
0.04201831
0.04162192
0.04122608
0.0408317
0.04043963
0.04005073
0.0396658
0.03928559
0.03891075
0.03854189
0.03817955
0.03782419
0.03747627
0.03713615
0.03680417
0.03648062
0.03616572
0.03585965
0.03556254
0.03527443
0.03499533
0.03472517
0.0344638
0.03421082
0.03396596
0.03372917
0.0335002
0.03327871
0.03306432
0.03285662
0.03265518
0.03245952
0.0322691
0.0320833
0.03190182
0.03172498
0.03155345
0.03138761
0.03122516
0.03106393
0.03090444
0.03074648
0.03058955
0.03043311
0.03027676
0.03012012
0.02996284
0.02980455
0.02964495
0.02948379
0.02932088
0.02915606
0.02898927
0.02882046
0.02864963
0.02847685
0.0283022
0.02812581
0.02794784
0.02776847
0.02758792
0.02740642
0.02722423
0.02704162
0.02685889
0.02667632
0.02649418
0.0263128
0.02613252
0.02595364
0.02577649
0.02560131
0.02542843
0.02525805
0.0250905
0.0249259
0.02476461
0.0246066
0.02445234
0.02430154
0.02415488
0.02401155
0.02387266
0.02373648
0.02360525
0.02347668
0.02336102
0.02301493
0.02258629
0.02226407
0.02201055
0.02180289
0.02162635
0.02147167
0.02133285
0.02120576
0.02108741
0.0209756
0.02086863
0.02076518
0.02066418
0.02056476
0.02046621
0.02036792
0.02026946
0.02017046
0.0200706
0.01996974
0.01986772
0.01976447
0.01965994
0.01955422
0.01944746
0.01933993
0.01923194
0.01912379
0.0190157
0.01890776
0.01879991
0.01869172
0.01858212
0.01847158
0.01836163
0.01826342
0.01818118
0.01810715
0.01803823
0.01797378
0.01791345
0.01785692
0.01780414
0.01775509
0.01770977
0.01766821
0.01763043
0.01759644
0.01756624
0.01753979
0.01751703
0.01749791
0.01748232
0.01747018
0.01746137
0.01745576
0.01745321
0.01745357
0.01745671
0.01746248
0.01747072
0.01748128
0.01749398
0.0175087
0.01752527
0.0175436
0.01756357
0.01758512
0.01760839
0.01832309
0.01833601
0.01836831
0.01840811
0.01844936
0.01849033
0.01853069
0.01857006
0.01860806
0.0186445
0.01867936
0.01871264
0.0187444
0.01877467
0.01880355
0.01883114
0.01885753
0.01888283
0.01890716
0.01893061
0.01895332
0.01897537
0.01899689
0.01901795
0.01903864
0.01905903
0.01907917
0.01909912
0.01911889
0.01913854
0.01915807
0.01917751
0.01919687
0.01921616
0.01923538
0.01925454
0.01927364
0.01929269
0.01931168
0.01933065
0.0193496
0.01936864
0.0193879
0.01940754
0.01942737
0.01944658
0.01946412
0.01947987
0.01949486
0.01950949
0.01952395
0.01953815
0.01955329
0.01957463
0.01959905
0.01961261
0.01961973
0.01962615
0.01963328
0.01964133
0.01965023
0.01965974
0.01966958
0.01967944
0.01968916
0.0196986
0.01970763
0.01971616
0.01972415
0.01973159
0.01973845
0.01974474
0.01975045
0.01975558
0.01976014
0.01976412
0.01976751
0.01977032
0.01977253
0.01977413
0.01977513
0.0197755
0.01977524
0.01977435
0.01977283
0.01977067
0.0197679
0.01976453
0.0197606
0.01975616
0.01975129
0.01974603
0.01974046
0.01973464
0.01972865
0.01972255
0.0197164
0.01971026
0.01970416
0.01969814
0.0196922
0.01968635
0.01968058
0.01967487
0.0196692
0.01966357
0.01965796
0.01965237
0.0196468
0.01964127
0.0196358
0.01963041
0.01962514
0.01962003
0.0196151
0.0196104
0.01960597
0.01960185
0.01959806
0.01959464
0.0195916
0.01958898
0.01958677
0.019585
0.01958364
0.01958272
0.01958217
0.01958201
0.01958216
0.01958261
0.01958326
0.01958389
0.01958418
0.01958327
0.01958059
0.01957649
0.0195828
0.01962531
0.01968882
0.05378967
0.0563984
0.05953076
0.06298684
0.0667967
0.07107536
0.07601172
0.08188035
0.08961598
0.1000229
0.1452393
0.1531286
0.1582594
0.1621384
0.1652081
0.1673067
0.168559
0.1689738
0.1685597
0.1914155
0.1904401
0.1886502
0.1861077
0.18295
0.179359
0.1755635
0.171638
0.1676753
0.1638438
0.1598935
0.1561317
0.1526199
0.1493493
0.1462799
0.143375
0.1406023
0.1379296
0.1354244
0.1326627
0.1299862
0.1273917
0.1249081
0.1225439
0.1202907
0.1181417
0.1160904
0.1141272
0.1122631
0.1104637
0.1087099
0.1070116
0.1053577
0.1037455
0.1021762
0.1006529
0.09918706
0.1008015
0.09947381
0.09816201
0.09689681
0.09567576
0.0944891
0.09332995
0.09219588
0.09109017
0.09000196
0.08893236
0.08789985
0.08689791
0.08591533
0.08494951
0.08401455
0.08311063
0.08223686
0.08139124
0.08057174
0.07975938
0.07894428
0.07812888
0.07731229
0.07649193
0.0756666
0.07483787
0.07400936
0.0731829
0.07235768
0.07152592
0.07070045
0.06988075
0.06907935
0.06828342
0.06751428
0.06672719
0.06592198
0.06527998
0.06463802
0.06397543
0.06331395
0.06267418
0.06206502
0.06148838
0.06094626
0.06044083
0.0599763
0.05955321
0.05917249
0.05883599
0.05854465
0.05829837
0.05809538
0.05793578
0.0578174
0.05773927
0.05767849
0.05760638
0.05751999
0.05743162
0.05733738
0.05722092
0.05707371
0.05689849
0.05670184
0.05648948
0.05626561
0.05603365
0.0557966
0.05555714
0.05531728
0.05507838
0.05484135
0.05460701
0.05437653
0.05415293
0.05393806
0.05373857
0.05356255
0.05342999
0.05333967
0.05326724
0.05317277
0.05303781
0.0528157
0.05250417
0.05215333
0.05181136
0.05148448
0.05116349
0.05083957
0.05050908
0.05017082
0.04982431
0.04946928
0.04910579
0.0487343
0.04835554
0.04797042
0.04757996
0.04718525
0.04678743
0.04638764
0.04598704
0.04558676
0.04518789
0.04479147
0.04439844
0.0440097
0.04362607
0.04324829
0.04287702
0.04251287
0.04215636
0.04180795
0.041468
0.04113683
0.04081466
0.04050163
0.04019783
0.03990327
0.03961791
0.03934162
0.03907415
0.03881522
0.03856452
0.03832168
0.03808627
0.03785782
0.03763579
0.03741963
0.03720876
0.03700274
0.03680143
0.03660503
0.03641366
0.03622636
0.03604128
0.03585735
0.03567417
0.03549151
0.03530907
0.03512651
0.03494347
0.0347596
0.03457459
0.03438815
0.03420005
0.03401006
0.03381805
0.03362388
0.0334275
0.03322886
0.03302799
0.03282496
0.03261986
0.03241284
0.03220408
0.03199379
0.03178221
0.03156963
0.03135634
0.03114266
0.03092894
0.0307155
0.03050273
0.03029096
0.03008056
0.02987187
0.02966529
0.0294611
0.0292597
0.02906132
0.02886636
0.02867494
0.0284875
0.02830399
0.02812492
0.02794994
0.02777982
0.02761361
0.02745268
0.02729498
0.02714328
0.02699238
0.02683153
0.02668361
0.02654549
0.02641429
0.02628838
0.02616682
0.02604897
0.02593432
0.02582247
0.02571304
0.02560571
0.02550016
0.02539609
0.02529319
0.02519115
0.02508963
0.02498831
0.02488686
0.02478495
0.02468228
0.02457857
0.02447353
0.02436693
0.02425856
0.02414826
0.0240359
0.02392145
0.02380492
0.02368644
0.02356619
0.02344437
0.02332116
0.02319667
0.02307111
0.02294526
0.02282161
0.02270363
0.02259208
0.02248564
0.02238379
0.0222864
0.02219335
0.02210455
0.02202003
0.02193985
0.02186407
0.02179278
0.02172604
0.02166388
0.02160633
0.02155338
0.021505
0.02146115
0.02142175
0.02138669
0.02135588
0.02132918
0.02130644
0.02128751
0.02127224
0.02126043
0.02125193
0.02124653
0.02124408
0.02124437
0.02124725
0.02125252
0.02126011
0.02126942
0.02128156
0.02130732
0.02133389
0.02135592
0.02137355
0.02138987
0.02140705
0.02142572
0.02144571
0.02146669
0.02148838
0.02151067
0.02153344
0.02155657
0.02157994
0.02160346
0.02162703
0.02165058
0.02167405
0.02169739
0.02172056
0.02174354
0.02176631
0.02178888
0.02181123
0.02183339
0.02185535
0.02187712
0.02189872
0.02192016
0.02194144
0.02196256
0.02198355
0.02200441
0.02202514
0.02204575
0.02206624
0.02208663
0.02210691
0.02212708
0.02214715
0.02216713
0.02218703
0.02220687
0.02222657
0.02224601
0.02226486
0.0222828
0.02229969
0.02231576
0.02233126
0.02234627
0.02236083
0.02237454
0.02238698
0.02239839
0.02241067
0.02242382
0.02243742
0.02245043
0.02246278
0.0224746
0.02248598
0.022497
0.0225077
0.02251809
0.02252825
0.02253819
0.02254788
0.02255732
0.02256649
0.02257538
0.02258398
0.02259225
0.02260017
0.02260772
0.02261486
0.02262157
0.02262781
0.02263355
0.02263877
0.02264343
0.02264751
0.02265098
0.02265383
0.02265603
0.02265758
0.02265849
0.02265875
0.02265838
0.02265742
0.02265591
0.02265388
0.02265139
0.02264849
0.02264524
0.0226417
0.02263792
0.02263396
0.02262989
0.02262575
0.02262158
0.02261742
0.02261328
0.02260919
0.02260516
0.02260119
0.0225973
0.02259349
0.02258979
0.02258619
0.02258273
0.02257943
0.02257631
0.02257341
0.02257075
0.02256836
0.02256629
0.02256454
0.02256316
0.02256216
0.02256157
0.0225614
0.02256166
0.02256237
0.02256352
0.02256515
0.0225672
0.02256977
0.0225727
0.02257625
0.02258006
0.02258465
0.02258928
0.02259524
0.02260176
0.02261267
0.0226286
0.02265709
0.02268936
0.04451608
0.04906125
0.05307164
0.07829774
0.1040901
0.1353448
0.1556235
0.1751311
0.1925065
0.2079231
0.2206161
0.2304939
0.2393494
0.2476526
0.255425
0.262405
0.2684047
0.2736494
0.2780387
0.2816754
0.2845371
0.2863785
0.2866479
0.2854891
0.2831748
0.2797918
0.2755338
0.270334
0.264369
0.2581795
0.2512667
0.2418941
0.2355542
0.2292811
0.2231345
0.2171485
0.2113566
0.2057697
0.2003913
0.1952252
0.1902786
0.1855309
0.1809767
0.1765272
0.1722063
0.1680373
0.1640354
0.160203
0.1565405
0.1530398
0.1496785
0.1464658
0.1433977
0.1404651
0.1376607
0.1349795
0.1324167
0.1299699
0.1276297
0.1253879
0.1232456
0.1211958
0.1192301
0.1173449
0.1155374
0.1138049
0.1121417
0.1105249
0.1089109
0.1073736
0.1059146
0.1045289
0.1032077
0.1019444
0.100735
0.09957768
0.09847022
0.09740857
0.09639259
0.09541776
0.09447726
0.0935688
0.09269175
0.09183413
0.09099174
0.09016368
0.08934666
0.08853851
0.08772848
0.08691085
0.08608754
0.0852593
0.0844237
0.08357936
0.08272553
0.08186148
0.08098688
0.08010082
0.0792037
0.07830192
0.07739641
0.07649411
0.0755917
0.07470178
0.07381138
0.07294615
0.07211118
0.07127988
0.07045104
0.06963847
0.06885319
0.06809881
0.06737499
0.06668178
0.06602061
0.06539411
0.06480512
0.06425636
0.06374979
0.06328676
0.0628681
0.06249416
0.0621651
0.06188038
0.06163777
0.06142968
0.06124143
0.06106346
0.06089711
0.06074121
0.06058682
0.06042429
0.06024962
0.06006329
0.05986686
0.05966143
0.05944791
0.05922744
0.05900157
0.05877205
0.05854067
0.05830918
0.05807967
0.05785485
0.05763885
0.05743614
0.05725008
0.05708181
0.05693754
0.05681883
0.05671126
0.05659394
0.0564509
0.05626377
0.05602608
0.0557532
0.05547342
0.05519955
0.05492661
0.05464861
0.05436271
0.05406777
0.05376323
0.0534486
0.05312355
0.05278811
0.05244265
0.05208778
0.05172433
0.05135325
0.05097558
0.05059246
0.0502051
0.04981471
0.04942255
0.04902982
0.04863769
0.04824731
0.04785971
0.04747589
0.04709676
0.04672315
0.0463558
0.04599538
0.04564245
0.04529751
0.04496095
0.0446331
0.04431419
0.04400438
0.04370373
0.04341221
0.04312969
0.042856
0.0425909
0.04233408
0.04208514
0.04184366
0.04160913
0.04138103
0.04115885
0.04094212
0.04073051
0.04052379
0.04032164
0.04012331
0.03992757
0.03973337
0.03954009
0.03934727
0.03915448
0.03896125
0.03876714
0.03857173
0.03837464
0.03817556
0.0379742
0.03777034
0.0375638
0.03735444
0.03714218
0.03692698
0.03670885
0.03648785
0.0362641
0.03603775
0.03580899
0.03557806
0.03534522
0.03511079
0.0348751
0.03463852
0.03440142
0.0341642
0.03392729
0.03369109
0.03345603
0.03322254
0.03299104
0.03276193
0.03253564
0.0323125
0.03209291
0.03187716
0.03166561
0.03145844
0.03125601
0.03105836
0.03086584
0.03067829
0.03049617
0.03031912
0.03014794
0.02998228
0.02982242
0.0296678
0.02951789
0.02937262
0.02923221
0.02909668
0.02896585
0.02883944
0.02871714
0.02859863
0.02848359
0.02837169
0.02826262
0.02815605
0.02805163
0.02794903
0.02784786
0.02774777
0.02764839
0.02754934
0.0274503
0.02735092
0.02725089
0.02714993
0.02704777
0.02694423
0.02683914
0.02673239
0.02662392
0.02651374
0.02640189
0.02628845
0.02617354
0.02605746
0.02594083
0.02582486
0.02571122
0.02560106
0.02549454
0.02539155
0.02529205
0.0251961
0.02510381
0.02501531
0.02493077
0.02485035
0.02477416
0.02470235
0.02463501
0.0245722
0.02451397
0.02446032
0.02441123
0.02436667
0.02432655
0.02429077
0.02425923
0.02423178
0.02420829
0.02418857
0.02417247
0.02415979
0.02415037
0.02414399
0.02414051
0.02413968
0.02414139
0.02414536
0.0241516
0.02415969
0.02416986
0.02418133
0.02419461
0.02420996
0.02422702
0.02424536
0.0242646
0.02428451
0.02430492
0.02432574
0.02434692
0.02436841
0.02439019
0.0244122
0.02443442
0.02445679
0.0244793
0.02450189
0.02452454
0.02454721
0.02456988
0.02459252
0.02461513
0.02463768
0.02466016
0.02468258
0.02470491
0.02472717
0.02474933
0.0247714
0.02479338
0.02481526
0.02483703
0.02485871
0.02488027
0.02490172
0.02492305
0.02494426
0.02496534
0.02498628
0.02500706
0.02502767
0.02504806
0.02506817
0.0250879
0.02510713
0.02512571
0.02514352
0.02516062
0.0251771
0.02519305
0.02520852
0.02522352
0.02523827
0.02525291
0.02526716
0.02528034
0.02529263
0.0253043
0.02531563
0.02532674
0.02533765
0.02534838
0.02535892
0.02536926
0.0253794
0.02538932
0.025399
0.02540842
0.02541757
0.02542644
0.02543502
0.02544329
0.02545124
0.02545885
0.0254661
0.02547296
0.02547941
0.02548542
0.02549096
0.02549601
0.02550054
0.02550452
0.02550794
0.02551076
0.02551299
0.02551461
0.02551562
0.02551603
0.02551585
0.02551512
0.02551385
0.02551209
0.02550987
0.02550724
0.02550426
0.02550096
0.02549742
0.02549367
0.02548978
0.0254858
0.02548177
0.02547772
0.02547371
0.02546974
0.02546585
0.02546207
0.02545841
0.02545489
0.02545154
0.02544837
0.02544541
0.02544269
0.02544022
0.02543804
0.02543617
0.02543463
0.02543345
0.02543264
0.02543222
0.02543221
0.02543264
0.0254335
0.02543483
0.02543664
0.02543895
0.02544177
0.02544516
0.02544913
0.02545376
0.02545912
0.02546539
0.02547274
0.02548171
0.02549287
0.0255074
0.02552611
0.02555088
0.02557875
0.02300554
0.02529838
0.02753099
0.0359172
0.04744837
0.06691141
0.08069662
0.09527486
0.1108494
0.126467
0.1424068
0.1596391
0.1778029
0.1959646
0.2144711
0.2350374
0.2668089
0.2787872
0.2901767
0.3009209
0.3112723
0.3203659
0.3275818
0.3330337
0.3364014
0.3380651
0.3384731
0.3377153
0.3357887
0.3326493
0.328222
0.3225072
0.3154925
0.307142
0.2980008
0.2883824
0.2773019
0.2672564
0.2575449
0.2482028
0.2393528
0.2308019
0.2223736
0.2147889
0.2078059
0.2012954
0.1952118
0.1895359
0.1842391
0.1792845
0.1746435
0.1702936
0.1662101
0.1623702
0.1587349
0.1552829
0.1520092
0.1488551
0.1458111
0.1428882
0.1400941
0.137425
0.1348806
0.1324589
0.1301551
0.1279643
0.1258807
0.1238988
0.1220121
0.120215
0.1184996
0.1168619
0.1152956
0.1137965
0.1123601
0.1109853
0.1096665
0.1084046
0.10719
0.1060222
0.1049045
0.1038364
0.1028137
0.1018351
0.1009011
0.1000126
0.09916927
0.0983705
0.0976131
0.09688807
0.09619176
0.09552157
0.09487616
0.09425446
0.09365333
0.09306892
0.09249664
0.09193061
0.09136427
0.09079083
0.09020564
0.08960559
0.08898756
0.08834756
0.0876816
0.08698656
0.08626039
0.08550247
0.08471379
0.08389616
0.08305322
0.08218813
0.08130656
0.08041198
0.07951163
0.07860837
0.07770745
0.07681157
0.07592093
0.07503798
0.074169
0.07332036
0.0724959
0.07169736
0.07092619
0.07018427
0.06947402
0.06879785
0.06815781
0.06755548
0.06699214
0.06646892
0.06598664
0.06554585
0.06514631
0.06478645
0.06446242
0.06416721
0.06389465
0.06364242
0.06340853
0.06318796
0.06297412
0.06276226
0.06255009
0.06233655
0.0621207
0.06190166
0.06167889
0.06145244
0.06122291
0.06099129
0.060759
0.06052796
0.06030063
0.06008026
0.0598702
0.05967388
0.05949352
0.05933065
0.05918284
0.05904341
0.05889966
0.05874315
0.05856033
0.05835121
0.05812078
0.05788109
0.05763971
0.05739683
0.05714889
0.05689387
0.0566309
0.05635922
0.05607811
0.05578697
0.05548542
0.0551734
0.05485112
0.05451899
0.05417765
0.05382787
0.05347056
0.05310678
0.05273763
0.0523643
0.05198801
0.05161
0.05123145
0.05085356
0.05047744
0.05010415
0.04973469
0.04936997
0.04901081
0.04865796
0.04831207
0.0479737
0.04764334
0.04732136
0.04700804
0.0467036
0.04640813
0.04612165
0.04584408
0.04557528
0.04531503
0.04506301
0.04481885
0.04458213
0.04435238
0.04412912
0.04391186
0.04370016
0.04349358
0.04329163
0.0430936
0.04289855
0.04270552
0.04251373
0.04232254
0.04213138
0.04193968
0.04174691
0.04155255
0.04135615
0.0411573
0.04095564
0.04075087
0.04054273
0.04033104
0.04011565
0.03989647
0.0396735
0.03944675
0.03921631
0.03898233
0.03874499
0.03850454
0.03826126
0.03801547
0.03776753
0.03751786
0.03726687
0.037015
0.03676274
0.03651055
0.03625893
0.03600838
0.03575937
0.03551241
0.03526795
0.03502646
0.03478836
0.03455406
0.03432394
0.03409834
0.03387759
0.03366191
0.03345161
0.03324683
0.03304785
0.0328548
0.03266806
0.03248781
0.03231413
0.03214669
0.03198523
0.03182959
0.03167969
0.03153541
0.03139657
0.03126295
0.0311343
0.03101036
0.03089084
0.03077547
0.03066395
0.03055601
0.03045133
0.03034959
0.03025043
0.0301535
0.0300584
0.02996476
0.02987222
0.0297804
0.02968893
0.02959748
0.02950572
0.02941333
0.02932007
0.02922573
0.02913016
0.02903325
0.02893499
0.02883539
0.02873453
0.02863266
0.02853019
0.0284278
0.02832645
0.02822705
0.02813008
0.02803567
0.02794391
0.02785491
0.02776886
0.02768594
0.02760633
0.02753021
0.02745777
0.02738916
0.02732452
0.02726396
0.02720755
0.02715535
0.02710739
0.02706365
0.0270241
0.02698868
0.02695729
0.02692984
0.02690619
0.0268862
0.02686973
0.02685659
0.02684662
0.02683964
0.02683548
0.02683393
0.02683484
0.02683798
0.02684323
0.02685024
0.02685894
0.02686928
0.02688126
0.0268946
0.02690905
0.02692455
0.02694111
0.02695866
0.02697709
0.02699628
0.02701612
0.02703652
0.02705741
0.02707871
0.02710036
0.02712231
0.02714451
0.02716691
0.02718948
0.02721218
0.02723497
0.02725784
0.02728076
0.02730371
0.02732669
0.02734966
0.02737264
0.02739559
0.02741853
0.02744142
0.02746427
0.02748707
0.0275098
0.02753246
0.02755503
0.0275775
0.02759987
0.02762211
0.02764421
0.02766616
0.02768791
0.02770945
0.02773072
0.02775167
0.02777223
0.02779232
0.02781187
0.02783079
0.0278491
0.02786683
0.02788405
0.02790079
0.02791708
0.02793289
0.02794814
0.02796278
0.02797686
0.02799053
0.02800378
0.02801655
0.02802885
0.02804074
0.02805223
0.02806336
0.02807413
0.02808454
0.02809461
0.02810433
0.02811371
0.02812275
0.02813144
0.02813978
0.02814777
0.02815539
0.02816264
0.02816951
0.02817597
0.028182
0.0281876
0.02819273
0.02819738
0.02820151
0.02820512
0.02820818
0.02821068
0.0282126
0.02821392
0.02821466
0.02821481
0.02821439
0.0282134
0.02821187
0.02820984
0.02820733
0.02820438
0.02820103
0.02819734
0.02819335
0.02818912
0.0281847
0.02818015
0.02817551
0.02817083
0.02816616
0.02816154
0.02815701
0.02815259
0.02814833
0.02814425
0.02814037
0.02813673
0.02813336
0.02813027
0.02812749
0.02812505
0.02812296
0.02812125
0.02811994
0.02811904
0.02811857
0.02811855
0.02811899
0.02811992
0.02812137
0.02812336
0.02812592
0.02812909
0.02813293
0.02813752
0.02814294
0.02814935
0.02815692
0.02816596
0.02817687
0.02819018
0.02820657
0.02822667
0.02825105
0.02827703
0.01007176
0.01146652
0.01256469
0.01826887
0.02495759
0.03379017
0.0411355
0.04949838
0.05859067
0.06828985
0.07893089
0.09158639
0.1054852
0.1210772
0.1398364
0.1684748
0.1836078
0.1993937
0.2152039
0.2309359
0.2464295
0.2614876
0.2758367
0.2892822
0.3016714
0.3127724
0.322565
0.3327659
0.3421139
0.3506184
0.3580824
0.3638894
0.3675918
0.368708
0.3678474
0.3652622
0.3610918
0.3554689
0.3484733
0.3400854
0.3302656
0.3193578
0.3076628
0.2946637
0.2809859
0.2680262
0.2551914
0.2427952
0.2310125
0.2199554
0.209668
0.2001854
0.1915182
0.1836424
0.1765177
0.1700679
0.164222
0.1589249
0.154128
0.1497843
0.1458491
0.1422822
0.1390465
0.1361037
0.1334373
0.1310078
0.1287405
0.1265876
0.1245475
0.1226215
0.120808
0.1191009
0.1174924
0.1159759
0.1145447
0.1131925
0.1119129
0.1106997
0.1095466
0.1084486
0.1073999
0.1063958
0.1054323
0.1045066
0.1036158
0.1027584
0.1019324
0.1011374
0.1003725
0.0996375
0.09893259
0.09825745
0.0976117
0.09699643
0.09641353
0.09586455
0.09535018
0.09486864
0.09441187
0.09398553
0.09359056
0.0932253
0.09288636
0.09256963
0.09227111
0.09198646
0.09171057
0.09143747
0.09116075
0.09087402
0.09057084
0.09024497
0.08989048
0.08950155
0.08907267
0.0885993
0.08807835
0.0875083
0.0868894
0.08622287
0.08551185
0.08476025
0.0839739
0.0831581
0.08231958
0.08146351
0.08059513
0.07972071
0.07884512
0.07797191
0.07710553
0.07625144
0.07541455
0.07459847
0.07380595
0.07303939
0.07230109
0.07159315
0.07091733
0.07027502
0.06966731
0.06909506
0.06855884
0.06805884
0.0675947
0.06716523
0.06676821
0.06640016
0.06605739
0.06573734
0.06543801
0.06515644
0.06488862
0.06463082
0.06438031
0.06413514
0.06389362
0.06365414
0.06341534
0.06317631
0.06293666
0.06269656
0.06245667
0.06221819
0.06198286
0.06175291
0.06153083
0.06131906
0.06111911
0.06093142
0.06075439
0.0605842
0.06041408
0.06023777
0.06004943
0.05984696
0.05963179
0.05940882
0.05918275
0.05895495
0.05872421
0.05848849
0.05824625
0.05799675
0.05773931
0.0574732
0.05719785
0.05691289
0.05661814
0.0563137
0.05599983
0.05567701
0.05534585
0.05500715
0.05466179
0.0543108
0.05395525
0.05359631
0.05323513
0.05287289
0.05251074
0.0521498
0.05179114
0.05143578
0.05108465
0.05073861
0.05039845
0.05006487
0.04973846
0.04941975
0.04910915
0.048807
0.04851353
0.0482289
0.04795314
0.04768623
0.04742806
0.04717842
0.04693704
0.04670359
0.04647767
0.04625885
0.04604666
0.04584062
0.04564023
0.0454449
0.04525396
0.04506656
0.04488181
0.0446989
0.04451709
0.0443357
0.04415406
0.04397155
0.04378756
0.04360153
0.04341295
0.04322135
0.04302634
0.04282755
0.04262469
0.04241753
0.04220591
0.04198972
0.04176891
0.04154353
0.04131364
0.0410794
0.04084102
0.04059875
0.04035291
0.04010386
0.039852
0.03959778
0.03934168
0.0390842
0.03882586
0.03856722
0.0383088
0.03805119
0.03779491
0.03754053
0.03728857
0.03703954
0.03679392
0.03655218
0.03631474
0.036082
0.0358543
0.03563199
0.03541535
0.03520468
0.03500024
0.03480231
0.03461109
0.03442672
0.03424918
0.03407838
0.0339142
0.03375653
0.03360525
0.03346024
0.03332132
0.03318826
0.03306083
0.03293874
0.03282174
0.03270955
0.03260191
0.03249855
0.03239916
0.03230342
0.03221097
0.03212142
0.03203443
0.03194961
0.03186658
0.03178496
0.03170434
0.03162433
0.03154453
0.0314646
0.03138419
0.03130307
0.03122108
0.03113816
0.0310543
0.03096955
0.03088407
0.03079813
0.03071218
0.03062679
0.03054258
0.03045997
0.03037919
0.03030039
0.03022371
0.03014931
0.03007739
0.03000812
0.02994167
0.02987823
0.02981796
0.02976102
0.02970752
0.02965758
0.02961128
0.02956868
0.0295298
0.02949465
0.02946318
0.02943536
0.0294111
0.02939032
0.0293729
0.0293587
0.0293476
0.02933943
0.02933404
0.02933127
0.02933094
0.02933289
0.02933694
0.02934291
0.02935062
0.02935994
0.02937073
0.02938278
0.02939595
0.02941018
0.02942547
0.02944177
0.029459
0.02947706
0.02949585
0.02951529
0.02953532
0.02955586
0.02957687
0.02959828
0.02962006
0.02964214
0.02966451
0.02968711
0.02970992
0.0297329
0.02975604
0.0297793
0.02980266
0.02982611
0.02984964
0.02987322
0.02989684
0.0299205
0.02994417
0.02996783
0.02999149
0.03001512
0.03003871
0.03006224
0.0300857
0.03010906
0.03013232
0.03015543
0.03017839
0.03020115
0.03022367
0.03024592
0.03026785
0.0302894
0.03031051
0.03033114
0.03035122
0.03037077
0.03038978
0.0304083
0.03042631
0.03044383
0.03046082
0.03047727
0.03049319
0.0305086
0.0305235
0.03053789
0.03055175
0.03056512
0.03057801
0.03059043
0.03060239
0.0306139
0.03062495
0.03063556
0.03064572
0.03065544
0.03066471
0.03067355
0.03068195
0.03068991
0.03069743
0.03070451
0.03071113
0.03071729
0.03072298
0.03072818
0.03073288
0.03073707
0.03074072
0.03074381
0.03074635
0.0307483
0.03074967
0.03075043
0.0307506
0.03075017
0.03074914
0.03074754
0.03074538
0.03074269
0.0307395
0.03073583
0.03073174
0.03072726
0.03072245
0.03071736
0.03071203
0.03070653
0.03070092
0.03069524
0.03068955
0.03068389
0.03067832
0.03067287
0.0306676
0.03066253
0.0306577
0.03065314
0.03064889
0.03064498
0.03064142
0.03063826
0.0306355
0.03063318
0.0306313
0.03062989
0.03062897
0.03062855
0.03062866
0.03062932
0.03063056
0.03063243
0.03063497
0.03063822
0.03064225
0.03064718
0.03065309
0.03066017
0.0306686
0.03067867
0.03069072
0.03070519
0.03072259
0.03074329
0.03076754
0.03079223
0.00286155
0.01000498
0.01436358
0.01943867
0.02500163
0.0312897
0.03845525
0.04628833