/*--------------------------------*- C++ -*----------------------------------*\
| =========                 |                                                 |
| \\      /  F ield         | foam-extend: Open Source CFD                    |
|  \\    /   O peration     | Version:     3.1                                |
|   \\  /    A nd           | Web:         http://www.extend-project.de       |
|    \\/     M anipulation  |                                                 |
\*---------------------------------------------------------------------------*/
FoamFile
{
    version     2.0;
    format      ascii;
    class       volScalarField;
    location    "5";
    object      nut;
}
// * * * * * * * * * * * * * * * * * * * * * * * * * * * * * * * * * * * * * //

dimensions      [0 2 -1 0 0 0 0];

internalField   nonuniform List<scalar> 
119952
(
3.154647e-05
1.88612e-05
1.890239e-05
2.185312e-05
2.400155e-05
2.277732e-05
2.221808e-05
2.196102e-05
2.174358e-05
2.146457e-05
2.110792e-05
2.068111e-05
2.020124e-05
1.968593e-05
1.914956e-05
1.860272e-05
1.805241e-05
1.750147e-05
1.694156e-05
1.638702e-05
2.145466e-05
2.026891e-05
1.980688e-05
2.647327e-05
2.544019e-05
2.489979e-05
2.441847e-05
2.420732e-05
2.382588e-05
2.760456e-05
2.093047e-05
2.303807e-05
2.584913e-05
2.852258e-05
3.119662e-05
3.39277e-05
3.677846e-05
3.969678e-05
4.267288e-05
4.797333e-05
0.0001970389
0.0002238206
0.0002534254
0.0002809446
0.0003026646
0.000325051
0.0003474243
0.0003696946
0.000387184
0.0004964636
0.0005174187
0.0005526075
0.0005862952
0.0006199734
0.0006494627
0.0006725113
0.0006960142
0.0007203209
0.000745167
0.0007738274
0.0008007837
0.0008287663
0.0008582135
0.0008890104
0.0009209737
0.0009539136
0.000987699
0.001022302
0.0009661714
0.001076741
0.001099041
0.001125435
0.001150986
0.001173356
0.001193618
0.00121322
0.001231904
0.001249704
0.001266635
0.001282659
0.001297758
0.00131193
0.001325193
0.001337581
0.001349164
0.001360161
0.001370973
0.001381898
0.001395069
0.001408505
0.001421294
0.001439827
0.001461613
0.001475883
0.001484459
0.001483343
0.001448986
0.001365691
0.001335
0.001320522
0.001312778
0.001307392
0.001303036
0.001299142
0.001295376
0.001291543
0.001287533
0.001283287
0.001278766
0.001273945
0.001268804
0.001263333
0.001257526
0.001251386
0.001244926
0.001238161
0.001231111
0.001223794
0.001216226
0.001208422
0.001200401
0.001192184
0.001183795
0.001175257
0.001166592
0.001157823
0.001148968
0.001140047
0.001131074
0.001122064
0.001113029
0.001103979
0.001094919
0.001085867
0.001076817
0.001067772
0.001058731
0.001049689
0.001040642
0.001031584
0.001022508
0.001013408
0.001004281
0.0009951274
0.0009859765
0.0009770288
0.0009691289
0.0009602237
0.0009504621
0.000940462
0.0009303693
0.000920235
0.0009101038
0.0009000155
0.0008899851
0.0008800124
0.0008700912
0.0008602153
0.0008503757
0.0008405633
0.0008307669
0.0008209772
0.0008111854
0.0008013849
0.0007915707
0.0007817392
0.0007718887
0.0007620188
0.0007521301
0.0007422247
0.0007323055
0.0007223756
0.0007124428
0.0007025097
0.0006925924
0.0006826964
0.0006728138
0.0006629645
0.0006531566
0.0006433989
0.0006336982
0.0006240585
0.0006144894
0.0006049961
0.000595585
0.0005862613
0.0005770291
0.0005678928
0.0005588531
0.0005499213
0.0005411196
0.0005324395
0.000523869
0.0005154142
0.0005070712
0.0004989369
0.0004923024
0.0003757246
0.0003714523
0.0003635559
0.0003575509
0.0003526448
0.0003483176
0.0003401393
0.0003307872
0.0003225409
0.0003151317
0.0003083691
0.0003021155
0.000296268
0.0002907536
0.0002855181
0.0002805205
0.0002757291
0.0002711212
0.0002667034
0.0002624201
0.0002583035
0.0002543127
0.0002504186
0.0002466392
0.0002429809
0.00023944
0.0002359729
0.0002315187
0.0002270494
0.0002225875
0.0002181708
0.0002138353
0.0002096306
0.000205832
0.0002027892
0.0002069866
0.0001982189
0.0001999924
0.0002016846
0.000203977
0.0002065627
0.0002092619
0.0002120717
0.0002149547
0.0002178993
0.0002208805
0.0002239197
0.0002269757
0.0002300535
0.0002331478
0.0002362568
0.0002393796
0.000242515
0.0002456628
0.0002488239
0.0002519996
0.0002551911
0.0002583996
0.0002616266
0.0002648741
0.0002681405
0.0002714159
0.0002747434
0.0002780821
0.0002814477
0.0002848431
0.0002882676
0.0002916279
0.0002948947
0.0002986835
0.0004013554
0.0003607051
0.0003815903
0.0003988284
0.0004135147
0.0004284774
0.0004340671
0.0004394515
0.0004446756
0.0004497724
0.0004547679
0.0004596813
0.0004645403
0.0004693569
0.0004741495
0.0004789263
0.000483693
0.0004884526
0.0004932077
0.0004979604
0.0005027121
0.0005074638
0.0005122159
0.0005169684
0.0005217212
0.0005264738
0.000531226
0.0005359776
0.0005407282
0.0005454771
0.0005502239
0.000554969
0.000559713
0.0005644565
0.0005692
0.0005739436
0.0005786869
0.0005834295
0.0005881705
0.0005929083
0.00059764
0.0006023606
0.0006070617
0.0006117284
0.0006163459
0.0006208627
0.0006250008
0.0006288872
0.0006327249
0.0006365035
0.000640206
0.000643844
0.0006474183
0.0006513628
0.0006555871
0.0006578867
0.0006600188
0.0006621931
0.000664477
0.0006668553
0.0006693042
0.0006718211
0.000674411
0.0006770864
0.0006798277
0.0006826447
0.0006855296
0.0006884738
0.0006914696
0.0006945078
0.0006975793
0.0007006754
0.0007037877
0.0007069081
0.000710029
0.000713143
0.0007162435
0.0007193246
0.000722381
0.0007254074
0.000728399
0.0007313511
0.0007342599
0.0007371222
0.0007399352
0.0007426967
0.0007454057
0.0007480635
0.0007506747
0.0007532454
0.0007557826
0.0007582927
0.000760782
0.0007632576
0.0007657278
0.0007682013
0.0007706865
0.0007731896
0.0007757145
0.0007782628
0.0007808333
0.0007834234
0.0007860287
0.0007886443
0.000791265
0.0007938866
0.0007965054
0.0007991189
0.0008017262
0.000804327
0.0008069225
0.0008095148
0.0008121067
0.0008147016
0.0008173032
0.0008199156
0.000822543
0.0008251899
0.0008278608
0.0008305602
0.000833293
0.0008360641
0.0008388786
0.000841742
0.0008446605
0.0008476394
0.0008506845
0.0008538044
0.0008570158
0.0008603451
0.0008638234
0.0008674887
0.0008714119
0.0008757238
0.0008806459
0.0008866706
0.0008946624
0.0009071287
0.0007053598
2.833989e-05
3.139392e-05
3.510603e-05
3.926184e-05
4.373019e-05
4.837819e-05
5.310111e-05
5.783359e-05
6.307848e-05
0.0002695588
0.0003181267
0.0003730496
0.0004305308
0.0004882808
0.0005443813
0.0005980525
0.0006490174
0.0006973149
0.0009895738
0.001028637
0.001067625
0.001104587
0.001139746
0.001173282
0.001205181
0.001235865
0.00126491
0.001291635
0.001318726
0.001341975
0.001362067
0.001379939
0.001395947
0.001410209
0.00142279
0.001433748
0.001443125
0.001449025
0.00144919
0.001447473
0.001446151
0.001445289
0.001444774
0.001445541
0.001447934
0.00145173
0.001456804
0.001462588
0.001469427
0.001477683
0.001486974
0.001497085
0.001507995
0.001519578
0.001531828
0.001545515
0.001844338
0.001859368
0.001874643
0.001889774
0.001904391
0.001918421
0.001931956
0.001945162
0.001958227
0.001971479
0.001985227
0.001999406
0.002014248
0.00202999
0.002046898
0.002065066
0.002084799
0.002106388
0.002130698
0.002156395
0.002180847
0.0022061
0.002233151
0.002260401
0.002286405
0.002311761
0.002336889
0.002361897
0.00238683
0.002411695
0.002436469
0.002461099
0.002485525
0.002509677
0.002533497
0.00255694
0.002579935
0.002601897
0.002623326
0.002645304
0.002667223
0.002689918
0.002714791
0.002739595
0.002762042
0.002781232
0.002794141
0.002797034
0.002795528
0.002797668
0.002801494
0.002805858
0.002810643
0.00281567
0.002820398
0.002824772
0.002828735
0.002832259
0.00283534
0.002837983
0.002840198
0.002841998
0.002843398
0.002844416
0.002845072
0.002845391
0.002845398
0.002845121
0.002844587
0.002843822
0.002842854
0.002841708
0.002840414
0.002838999
0.002837495
0.002835931
0.002834338
0.002832745
0.002831183
0.002829678
0.002828256
0.002826939
0.002825747
0.002824693
0.002823753
0.002822903
0.002822169
0.002821566
0.002821095
0.002820757
0.002820549
0.002820468
0.002820508
0.00282067
0.002820964
0.002821446
0.002822229
0.002823358
0.002824556
0.00282537
0.002825789
0.002825926
0.002825758
0.002825273
0.00282445
0.002823271
0.002821717
0.002819772
0.002817422
0.002814652
0.002811449
0.002807802
0.002803699
0.002799131
0.002794092
0.002788574
0.002782573
0.002776085
0.002769111
0.002761653
0.002753711
0.002745291
0.002736403
0.002727059
0.002717272
0.002707059
0.002696436
0.002685419
0.002674032
0.002662302
0.002650254
0.002637915
0.002625311
0.002612473
0.002599422
0.002586195
0.002572805
0.002559298
0.002545669
0.002531983
0.002518205
0.002504444
0.002490611
0.002476928
0.002463226
0.002450034
0.002437229
0.002429699
0.002315773
0.002185724
0.002094277
0.002027685
0.001977284
0.001937696
0.001905452
0.001878247
0.001854514
0.001833168
0.001813447
0.001794806
0.001776855
0.001759305
0.001741943
0.001724611
0.001707194
0.001689615
0.001671814
0.001653754
0.001635428
0.001616814
0.00159792
0.001578779
0.001559428
0.001539925
0.001520335
0.001500748
0.001481266
0.001462001
0.001443081
0.001424674
0.001407039
0.001390667
0.001377011
0.001366199
0.001357753
0.001351186
0.001345746
0.001341191
0.001337408
0.001334313
0.001331852
0.001329992
0.001328711
0.001327989
0.001327811
0.001328159
0.001329019
0.001330373
0.001332204
0.001334492
0.00133722
0.001340365
0.001343908
0.001347825
0.001352094
0.001356692
0.001361599
0.001366791
0.001372249
0.001377949
0.001383871
0.001389995
0.0013963
0.001402767
0.001409379
0.001416114
0.001422927
0.001429578
0.001737502
0.001749386
0.001761501
0.00177336
0.001784826
0.001795912
0.001806635
0.001817015
0.001827082
0.001836878
0.001846443
0.001855809
0.001865002
0.001874047
0.001882966
0.001891775
0.001900488
0.001909116
0.001917671
0.001926162
0.001934598
0.001942989
0.001951343
0.001959667
0.001967969
0.001976255
0.00198453
0.001992797
0.00200106
0.002009322
0.002017583
0.002025845
0.002034111
0.00204238
0.002050652
0.002058927
0.002067202
0.002075475
0.002083738
0.002091985
0.002100202
0.002108374
0.002116479
0.002124494
0.002132368
0.002140005
0.002147336
0.002154401
0.002161325
0.002168129
0.002174834
0.002181424
0.002188002
0.002194849
0.002201578
0.002207496
0.002213064
0.002218597
0.002224099
0.002229639
0.002235225
0.002240848
0.002246508
0.002252182
0.00225786
0.002263545
0.002269233
0.002274921
0.002280609
0.002286296
0.002291982
0.002297663
0.002303337
0.002308997
0.002314638
0.002320249
0.002325824
0.002331352
0.002336821
0.002342221
0.00234754
0.002352767
0.002357891
0.002362902
0.002367793
0.002372556
0.002377185
0.002381681
0.002386043
0.002390276
0.002394385
0.002398377
0.00240226
0.002406045
0.002409744
0.002413371
0.002416941
0.002420468
0.002423964
0.002427442
0.002430908
0.002434369
0.002437826
0.002441279
0.002444725
0.002448162
0.002451585
0.002454991
0.002458377
0.002461742
0.002465087
0.002468412
0.002471721
0.002475019
0.002478309
0.0024816
0.002484898
0.00248821
0.002491543
0.002494907
0.002498308
0.002501756
0.002505255
0.00250882
0.002512452
0.002516171
0.002519977
0.002523909
0.002527978
0.002532252
0.00253677
0.002541658
0.002547023
0.002553088
0.00256004
0.002568297
0.002579169
0.002594423
0.002610701
2.873454e-05
3.436284e-05
4.295655e-05
5.313783e-05
6.538045e-05
8.040103e-05
9.950386e-05
0.0001243231
0.0001587518
0.0002240789
0.00101895
0.001170759
0.001266127
0.00134563
0.001427337
0.001505721
0.001579411
0.00164957
0.001716754
0.002759178
0.002956371
0.003047413
0.003101309
0.003136911
0.003160171
0.003176364
0.003186385
0.00319275
0.003197408
0.003207049
0.003229125
0.003258023
0.003288708
0.003317737
0.003343537
0.003365607
0.003383927
0.003401776
0.003364644
0.00334485
0.003335803
0.003333963
0.003336708
0.003342158
0.003349046
0.003356522
0.003363841
0.003370855
0.0033769
0.003381824
0.003386018
0.0033895
0.003392301
0.003394458
0.003395933
0.003396166
0.003813795
0.003811937
0.003807393
0.003801351
0.003793935
0.003785086
0.003774776
0.003763034
0.00374998
0.003735344
0.00371924
0.003702033
0.003683627
0.003663917
0.003643
0.003622653
0.0036031
0.003584143
0.003565589
0.003546988
0.003525928
0.003502964
0.003478356
0.003452217
0.003425022
0.003397148
0.003368882
0.00334067
0.003312843
0.003285732
0.003259517
0.003234714
0.00321136
0.003189992
0.003170073
0.00315232
0.003135337
0.003120597
0.003098762
0.003078871
0.003060858
0.003044651
0.00303016
0.00301722
0.003005656
0.002995423
0.002986479
0.002978991
0.002972981
0.00296847
0.002965667
0.00296466
0.002965688
0.002968729
0.002974162
0.002981732
0.002991723
0.003002557
0.003013967
0.00302724
0.003042425
0.003058942
0.003076303
0.003094605
0.003114013
0.003134592
0.003156313
0.003179079
0.00320276
0.003227211
0.003252291
0.003277857
0.003303788
0.003329983
0.0033564
0.003382993
0.00340953
0.00343524
0.003460439
0.003485642
0.003511567
0.003537715
0.003563289
0.003585853
0.003604419
0.00361751
0.003627567
0.003637635
0.003648572
0.003660064
0.003671593
0.003682738
0.003693371
0.003703447
0.003712938
0.003721826
0.003730107
0.00373779
0.003744894
0.003751443
0.003757466
0.003762993
0.003768057
0.003772696
0.003776948
0.003780853
0.003784452
0.003787787
0.0037909
0.003793835
0.003796634
0.003799343
0.003802005
0.003804665
0.00380737
0.003810163
0.003813089
0.003816189
0.003819505
0.003823074
0.003826931
0.003831106
0.003835626
0.00384051
0.00384577
0.003851419
0.003857463
0.003863906
0.003870745
0.003877974
0.003885581
0.003893552
0.003901871
0.003910528
0.003919528
0.003928881
0.003938562
0.00394846
0.003958447
0.003968446
0.003978416
0.003988315
0.003998099
0.00400772
0.004017131
0.004026282
0.004035126
0.00404362
0.004051719
0.004059385
0.00406658
0.004073269
0.004079426
0.004085015
0.004090016
0.004094409
0.004098182
0.004101319
0.004103812
0.004105657
0.004106858
0.004107419
0.004107351
0.00410667
0.004105389
0.004103529
0.004101117
0.004098178
0.004094741
0.004090838
0.004086507
0.004081782
0.004076701
0.004071298
0.004065614
0.004059681
0.004053541
0.004047216
0.004040754
0.004034162
0.004027498
0.004020748
0.004014001
0.004007199
0.004000521
0.00399353
0.003975875
0.003964624
0.00395733
0.003952354
0.003948625
0.003945429
0.003942297
0.003938915
0.003935076
0.003930637
0.003925499
0.003919585
0.003912833
0.00390519
0.003896603
0.003887022
0.0038764
0.003864694
0.00385186
0.003837863
0.003822672
0.003806258
0.003788605
0.003769703
0.003749553
0.003728174
0.003705604
0.003681919
0.003657247
0.003631781
0.003605776
0.003579538
0.00355341
0.003527787
0.003503047
0.003479664
0.003457983
0.003437891
0.003419116
0.003401563
0.003385193
0.003369971
0.003355879
0.00334291
0.003331064
0.003320345
0.003310752
0.003302284
0.003294931
0.003288682
0.00328352
0.003279421
0.003276357
0.003274294
0.003273197
0.003273023
0.003273729
0.003275269
0.003277595
0.003280659
0.003284409
0.003288795
0.003293765
0.003299271
0.003305263
0.00331169
0.003318507
0.003325667
0.003333122
0.003342096
0.003341252
0.003341543
0.003342395
0.003343818
0.003345984
0.003348949
0.003352636
0.003356938
0.003361754
0.003367007
0.003372642
0.003378611
0.00338487
0.003391384
0.003398119
0.00340505
0.003412152
0.003419404
0.003426788
0.003434289
0.003441896
0.003449599
0.003457391
0.003465266
0.003473219
0.003481245
0.003489342
0.003497505
0.00350573
0.003514013
0.003522349
0.003530735
0.003539166
0.003547638
0.003556146
0.003564684
0.003573244
0.003581818
0.003590395
0.003598961
0.0036075
0.003615988
0.003624401
0.003632706
0.003640859
0.003648807
0.003656512
0.003663983
0.003671278
0.003678434
0.003685466
0.003692374
0.00369912
0.003705625
0.003711928
0.003718225
0.003724525
0.003730757
0.00373682
0.00374278
0.00374866
0.003754473
0.003760236
0.003765947
0.003771603
0.003777217
0.00378279
0.00378832
0.003793808
0.003799255
0.00380466
0.003810021
0.003815336
0.003820601
0.003825809
0.003830954
0.003836027
0.003841018
0.003845917
0.00385071
0.003855386
0.003859932
0.003864337
0.00386859
0.00387268
0.0038766
0.003880343
0.003883906
0.00388729
0.003890496
0.00389353
0.003896396
0.003899105
0.003901665
0.00390409
0.003906394
0.003908591
0.003910697
0.003912728
0.003914698
0.003916619
0.003918501
0.003920351
0.003922173
0.003923971
0.003925745
0.003927495
0.003929222
0.003930925
0.003932605
0.003934263
0.003935901
0.003937521
0.003939127
0.003940724
0.003942316
0.003943906
0.003945499
0.003947099
0.00394871
0.003950334
0.003951976
0.003953638
0.003955328
0.003957047
0.003958811
0.003960627
0.003962534
0.003964548
0.003966753
0.003969181
0.003971997
0.003975252
0.003979246
0.003984064
0.003990307
0.003998128
0.004008169
0.004018718
3.809833e-05
6.024034e-05
0.0001388846
0.0004605114
0.0007856941
0.001397048
0.001878704
0.002464304
0.003128221
0.00365087
0.004008819
0.004276436
0.004530342
0.004765294
0.004985696
0.005168832
0.005309222
0.005422097
0.005507781
0.005576075
0.005630633
0.005666385
0.005329205
0.00502462
0.00476324
0.004520938
0.004338129
0.004212282
0.004134059
0.004097866
0.004287802
0.004022146
0.004132825
0.00422435
0.004327831
0.004445086
0.004570345
0.004703105
0.004842364
0.004984957
0.005128901
0.005282385
0.005438187
0.00548421
0.005482279
0.005478965
0.005474501
0.005468975
0.0054626
0.005455347
0.005446775
0.005437247
0.005426949
0.005416006
0.005404551
0.00539273
0.005380647
0.005368429
0.005356018
0.005343365
0.005330628
0.005317743
0.00530462
0.005291251
0.005277639
0.005263762
0.005249591
0.005235545
0.005211056
0.005187504
0.005164715
0.005142459
0.005120415
0.005098308
0.005075938
0.005053171
0.005029887
0.005005915
0.00498128
0.004956012
0.00493134
0.004907567
0.004884324
0.004859097
0.004831352
0.004801337
0.004769166
0.00473513
0.00469916
0.004661366
0.004622207
0.004581957
0.004540829
0.004499155
0.00445726
0.004415494
0.0043742
0.004333693
0.004294127
0.004256088
0.00421958
0.004185143
0.004152333
0.004122062
0.004092872
0.004066254
0.00404102
0.004016084
0.003991729
0.003968465
0.003946463
0.003925634
0.003905817
0.003886924
0.003868937
0.003851908
0.003835906
0.003821012
0.003807361
0.003795073
0.003784332
0.003775267
0.003768113
0.003762951
0.003759917
0.003758743
0.003759196
0.003761574
0.003766242
0.003773215
0.003782292
0.003793355
0.003806436
0.003821577
0.003838751
0.003857843
0.003878691
0.003901105
0.003924893
0.003949857
0.003975808
0.004002572
0.004030012
0.004058024
0.004086533
0.00411541
0.004144447
0.004173213
0.004201532
0.004229478
0.004256165
0.004280706
0.004302571
0.004321333
0.004337502
0.004352296
0.004366968
0.00438176
0.004396206
0.004410092
0.004423402
0.004436112
0.004448216
0.004459707
0.004470579
0.004480841
0.004490507
0.004499599
0.004508143
0.004516167
0.004523703
0.004530786
0.004537453
0.004543744
0.004549701
0.004555367
0.004560788
0.004566011
0.004571084
0.004576057
0.00458098
0.004585907
0.004590889
0.004595981
0.004601236
0.004606708
0.004612449
0.004618509
0.004624939
0.004631783
0.004639084
0.004646881
0.004655205
0.004664085
0.004673546
0.004683605
0.004694277
0.004705566
0.004717475
0.00473
0.004743133
0.004756865
0.00477119
0.004786099
0.00480157
0.004817547
0.004833944
0.00485069
0.004867733
0.004885027
0.004902515
0.004920148
0.004937862
0.004955594
0.004973288
0.004990884
0.005008326
0.005025559
0.005042532
0.005059189
0.005075478
0.005091353
0.005106775
0.005121707
0.00513612
0.005149983
0.005163274
0.005175975
0.005188074
0.005199563
0.005210442
0.005220715
0.005230395
0.005239485
0.00524801
0.005255992
0.005263458
0.005270441
0.005276974
0.005283093
0.005288838
0.005294249
0.005299367
0.005304233
0.00530889
0.005313374
0.00531773
0.005321983
0.00532618
0.005330333
0.005334497
0.005338659
0.005342887
0.005347115
0.005350734
0.005354142
0.00535755
0.005361084
0.005364807
0.005368713
0.005372733
0.005376777
0.005380745
0.005384536
0.005388043
0.005391159
0.005393775
0.005395789
0.005397084
0.005397554
0.00539709
0.005395587
0.005392943
0.005389063
0.005383854
0.00537723
0.005369117
0.005359456
0.005348196
0.005335315
0.00532081
0.005304718
0.005287112
0.005268116
0.0052479
0.005226669
0.005204674
0.005182195
0.005159548
0.005137075
0.005115075
0.005093676
0.005072887
0.005052732
0.005033266
0.005014565
0.004996708
0.004979775
0.004963845
0.004948984
0.004935252
0.004922694
0.004911345
0.004901226
0.004892349
0.004884712
0.004878303
0.004873102
0.004869079
0.004866197
0.004864415
0.004863685
0.004863955
0.00486517
0.004867271
0.004870196
0.004873888
0.004878282
0.004883321
0.004888938
0.004895079
0.004901674
0.004908687
0.004916106
0.004923226
0.004930049
0.00493672
0.004943379
0.004950061
0.004956764
0.004963477
0.004970206
0.00497695
0.004983719
0.004990521
0.004997366
0.005004259
0.005011202
0.005018197
0.005025246
0.005032348
0.005039502
0.005046707
0.005053962
0.005061265
0.005068617
0.005076018
0.005083468
0.005090969
0.005098519
0.005106121
0.005113771
0.00512147
0.005129214
0.005137002
0.005144829
0.005152693
0.005160589
0.00516851
0.005176452
0.005184405
0.005192359
0.005200302
0.00520822
0.005216093
0.0052239
0.005231616
0.00523921
0.00524665
0.005253903
0.005260946
0.005267774
0.005274409
0.005280877
0.005287192
0.005293353
0.005299352
0.005305202
0.005310939
0.005316522
0.00532189
0.00532708
0.005332124
0.005337066
0.005341924
0.005346702
0.005351402
0.005356021
0.005360556
0.005365009
0.005369378
0.005373662
0.00537786
0.005381972
0.005385997
0.005389934
0.005393782
0.005397535
0.00540119
0.00540474
0.005408176
0.005411489
0.005414669
0.005417704
0.005420581
0.005423288
0.005425814
0.005428146
0.005430275
0.005432191
0.005433889
0.005435363
0.005436613
0.005437641
0.005438448
0.005439041
0.005439427
0.005439616
0.005439619
0.00543945
0.005439123
0.005438655
0.00543806
0.005437354
0.005436552
0.005435665
0.005434706
0.005433682
0.005432601
0.005431469
0.005430289
0.005429065
0.0054278
0.005426499
0.005425162
0.005423795
0.005422399
0.005420978
0.005419535
0.005418072
0.00541659
0.005415091
0.005413575
0.005412044
0.005410499
0.005408941
0.005407373
0.005405805
0.005404244
0.005402707
0.005401214
0.005399805
0.005398522
0.005397433
0.005396613
0.005396181
0.005396254
0.005397027
0.005398673
0.005401463
0.005405518
0.005411019
0.005417341
2.252974e-05
3.593523e-05
5.369723e-05
0.0002359451
0.0003830466
0.0006381944
0.0008947812
0.001128008
0.001420326
0.001703943
0.002010602
0.002408602
0.002875495
0.003399749
0.003982876
0.004715022
0.006026583
0.006501745
0.006920529
0.007250973
0.007495606
0.007661044
0.00776415
0.007817674
0.007744583
0.00746493
0.007181162
0.006880282
0.006557067
0.006217181
0.005866839
0.0055174
0.00518049
0.004866486
0.004575367
0.004314993
0.004082577
0.003915086
0.003797148
0.003718574
0.003657945
0.00365938
0.003734291
0.003752742
0.003815678
0.003916606
0.004036331
0.004166637
0.00430782
0.00446289
0.004628636
0.004801244
0.004983642
0.005168608
0.005362921
0.005566095
0.005785438
0.005876783
0.005896624
0.005913523
0.00592809
0.005940664
0.005951614
0.005961217
0.005969647
0.005977033
0.005983463
0.005988999
0.005993664
0.005997463
0.006000355
0.006002369
0.006003464
0.006003635
0.006002853
0.006001167
0.005998507
0.005994938
0.005990278
0.005984157
0.005976779
0.0059682
0.005958363
0.005947266
0.005934933
0.005921379
0.005906588
0.005890565
0.005873378
0.005856251
0.005839551
0.005821191
0.005800604
0.00577795
0.005753212
0.005726307
0.005697167
0.005665709
0.005631915
0.005595769
0.00555738
0.005516992
0.00547485
0.005431177
0.005386243
0.005340356
0.005293875
0.005247163
0.005200624
0.005154588
0.005109499
0.005065599
0.005023281
0.004982592
0.00494389
0.004906947
0.004872043
0.004838982
0.004807348
0.004777043
0.004748165
0.004720731
0.004694629
0.004669685
0.004645752
0.004622734
0.004600576
0.004579258
0.004558775
0.004539159
0.004520466
0.004502805
0.004486299
0.004471122
0.00445743
0.004445382
0.004435051
0.004426462
0.004419804
0.004415394
0.004413461
0.004414082
0.004417247
0.004423013
0.004431445
0.004442554
0.004456275
0.004472475
0.004490981
0.004511593
0.004534092
0.004558253
0.004583852
0.00461068
0.004638545
0.004667282
0.004696722
0.004726666
0.004756842
0.004786969
0.004816619
0.004845266
0.004872265
0.004897281
0.004919933
0.00494048
0.004959469
0.004977593
0.004995167
0.005012168
0.005028274
0.005043529
0.00505806
0.005071882
0.005085013
0.005097468
0.005109265
0.005120427
0.005130983
0.005140962
0.005150397
0.005159322
0.005167771
0.005175783
0.005183395
0.00519065
0.005197589
0.005204256
0.005210697
0.005216958
0.005223089
0.005229139
0.00523516
0.005241205
0.00524733
0.00525359
0.005260041
0.005266741
0.005273746
0.005281112
0.005288894
0.005297145
0.005305913
0.005315247
0.005325189
0.005335777
0.005347048
0.005359029
0.005371745
0.005385215
0.005399452
0.005414465
0.005430258
0.005446836
0.005464192
0.005482316
0.005501173
0.005520714
0.005540883
0.005561633
0.005582918
0.005604691
0.005626899
0.005649497
0.005672409
0.005695584
0.00571895
0.005742455
0.005766044
0.005789647
0.005813205
0.005836661
0.005859963
0.005883058
0.0059059
0.005928445
0.005950654
0.005972491
0.005993929
0.006014942
0.006035514
0.006055632
0.00607529
0.006094487
0.006113229
0.006131526
0.006149393
0.006166854
0.006183933
0.006200662
0.006217073
0.006233206
0.006249099
0.006264794
0.006280335
0.006295765
0.006311125
0.006326461
0.00634181
0.006357213
0.006372702
0.006388317
0.006404084
0.006420043
0.006436205
0.006452525
0.006468959
0.006485469
0.006502056
0.006518718
0.00653544
0.006552192
0.00656893
0.006585597
0.006602129
0.006618452
0.006634484
0.006650136
0.006665315
0.006679918
0.006693824
0.006706919
0.006719081
0.006730184
0.006740106
0.006748725
0.006755923
0.00676159
0.006765621
0.00676793
0.006768441
0.006767109
0.006763915
0.006758877
0.006752049
0.006743522
0.006733423
0.006721911
0.006709178
0.006695446
0.006680954
0.00666594
0.00665059
0.006635018
0.00661932
0.006603599
0.006587981
0.006572598
0.006557584
0.00654307
0.006529179
0.006516024
0.006503706
0.006492308
0.006481904
0.006472549
0.006464284
0.006457134
0.006451108
0.006446205
0.006442412
0.006439706
0.006438054
0.006437418
0.00643775
0.006438997
0.006441108
0.006444023
0.006447683
0.006452025
0.006456986
0.006462507
0.006468523
0.006474981
0.006481811
0.006488916
0.00649624
0.006503745
0.006511386
0.006519122
0.006526932
0.006534799
0.006542705
0.006550628
0.006558547
0.006566452
0.006574333
0.006582185
0.006590006
0.006597792
0.006605543
0.00661326
0.006620944
0.006628596
0.006636219
0.006643815
0.006651388
0.006658942
0.006666479
0.006674005
0.006681521
0.006689031
0.006696536
0.006704037
0.006711535
0.006719029
0.006726517
0.006733997
0.006741467
0.00674892
0.006756353
0.006763757
0.006771122
0.006778438
0.006785691
0.006792863
0.006799936
0.006806888
0.006813694
0.00682033
0.006826774
0.006833008
0.006839024
0.00684483
0.006850438
0.006855857
0.006861091
0.006866139
0.006870998
0.006875662
0.006880121
0.006884384
0.006888477
0.006892407
0.006896175
0.006899792
0.006903265
0.0069066
0.0069098
0.006912867
0.006915801
0.006918603
0.006921275
0.006923818
0.006926232
0.006928517
0.006930673
0.006932699
0.00693459
0.006936344
0.006937955
0.006939414
0.006940714
0.006941844
0.006942793
0.00694355
0.006944102
0.006944439
0.006944548
0.006944419
0.006944043
0.006943412
0.006942523
0.006941371
0.006939957
0.006938283
0.006936351
0.00693417
0.006931745
0.006929088
0.006926211
0.006923126
0.006919849
0.006916395
0.00691278
0.006909017
0.006905123
0.006901108
0.006896986
0.006892767
0.006888459
0.00688407
0.006879607
0.006875077
0.006870485
0.006865836
0.006861135
0.006856385
0.006851591
0.006846754
0.006841877
0.006836961
0.006832007
0.006827016
0.006821991
0.006816935
0.006811854
0.006806756
0.006801656
0.006796573
0.00679153
0.006786561
0.006781712
0.006777037
0.006772606
0.006768504
0.006764834
0.006761718
0.006759302
0.006757735
0.006757175
0.006757733
0.006759454
0.006762002
2.048973e-05
3.132202e-05
6.379574e-05
0.0001904128
0.0003019083
0.0004730564
0.0006032237
0.0007500419
0.0009230397
0.001091344
0.001289332
0.001545276
0.001836603
0.002184279
0.002637295
0.003491419
0.00389487
0.004325886
0.004774543
0.005237779
0.005716945
0.006199924
0.006668559
0.00710767
0.007503908
0.00780292
0.008146351
0.008381396
0.008560494
0.008686726
0.008608671
0.008369829
0.00810338
0.007808108
0.007510394
0.007225341
0.006944042
0.006655899
0.006355398
0.006040238
0.005708992
0.005367151
0.005020241
0.004661713
0.00432529
0.004039837
0.003809524
0.003635876
0.003507834
0.003423915
0.003386707
0.003388017
0.003418739
0.003470525
0.003548181
0.003660227
0.003802074
0.003965312
0.00414686
0.004344953
0.004558039
0.004783289
0.005018025
0.005268377
0.005533054
0.005818401
0.005976236
0.006023472
0.006067857
0.006109906
0.006149996
0.006188332
0.006225037
0.0062602
0.006293869
0.006326052
0.006356725
0.006385844
0.00641335
0.006439186
0.006463277
0.006485565
0.006506006
0.006524578
0.00654126
0.006556056
0.006568956
0.006579982
0.006589134
0.0065964
0.006601793
0.006605295
0.006606872
0.006606531
0.006604302
0.006600195
0.00659425
0.006586822
0.006579657
0.006570932
0.006559919
0.006546608
0.00653095
0.006512894
0.006492391
0.006469378
0.006443784
0.006415533
0.006384571
0.006350886
0.006314522
0.006275589
0.006234254
0.006190713
0.006145209
0.006098038
0.00604956
0.006000164
0.005950284
0.005900323
0.005850728
0.005801863
0.005754128
0.005707771
0.005663079
0.005620149
0.005579093
0.005539953
0.005502649
0.005467078
0.005433201
0.005400982
0.005370335
0.005341115
0.005313163
0.005286331
0.005260494
0.005235546
0.005211401
0.005188001
0.005165321
0.005143375
0.005122217
0.005101944
0.005082676
0.005064565
0.005047743
0.005032366
0.005018648
0.005006882
0.004997369
0.004990352
0.004985948
0.004984306
0.00498556
0.004989799
0.004997043
0.00500724
0.005020281
0.005036013
0.005054248
0.005074774
0.005097359
0.00512177
0.00514777
0.005175114
0.00520359
0.005232954
0.005262917
0.00529316
0.005323292
0.005352873
0.005381404
0.005408521
0.00543396
0.005457705
0.005479956
0.005501041
0.005521205
0.005540529
0.00555898
0.005576436
0.005592837
0.005608313
0.00562297
0.00563684
0.005649954
0.005662349
0.005674065
0.005685142
0.005695624
0.005705552
0.005714968
0.005723914
0.005732433
0.005740567
0.005748359
0.005755853
0.005763093
0.005770123
0.005776988
0.005783736
0.005790414
0.005797071
0.005803757
0.005810526
0.005817429
0.005824522
0.005831858
0.005839494
0.005847485
0.005855887
0.005864752