/*--------------------------------*- C++ -*----------------------------------*\
| =========                 |                                                 |
| \\      /  F ield         | foam-extend: Open Source CFD                    |
|  \\    /   O peration     | Version:     3.1                                |
|   \\  /    A nd           | Web:         http://www.extend-project.de       |
|    \\/     M anipulation  |                                                 |
\*---------------------------------------------------------------------------*/
FoamFile
{
    version     2.0;
    format      ascii;
    class       volScalarField;
    location    "5";
    object      p;
}
// * * * * * * * * * * * * * * * * * * * * * * * * * * * * * * * * * * * * * //

dimensions      [1 -1 -2 0 0 0 0];

internalField   nonuniform List<scalar> 
119952
(
9478.359
9384.612
9371.958
9400.955
9431.842
9426.35
9429.875
9433.694
9437.943
9442.268
9446.609
9450.892
9455.062
9459.087
9462.94
9466.576
9469.902
9472.647
9473.774
9468.295
9516.343
9494.306
9490.664
9549.716
9544.031
9554.542
9561.138
9577.237
9625.119
9869.932
7790.159
7844.287
7895.77
7951.589
8007.866
8062.963
8117.357
8171.017
8223.619
8266.028
8303.294
8350.039
8394.422
8437.444
8478.971
8519.127
8557.947
8595.339
8634.12
8655.125
8677.762
8704.595
8734.173
8761.933
8788.942
8815.363
8840.796
8865.21
8887.867
8908.612
8931.622
8952.973
8973.299
8993.236
9012.598
9031.475
9050.515
9073.73
9104.004
9102.422
9111.925
9129.471
9142.697
9149.622
9154.347
9159.625
9164.814
9169.861
9174.87
9179.788
9184.571
9189.203
9193.664
9197.926
9201.956
9205.723
9209.245
9213.356
9220.588
9227.015
9231.81
9247.746
9266.567
9273.179
9279.498
9284.944
9279.626
9249.344
9246.02
9252.811
9257.229
9261.458
9265.153
9268.347
9271.213
9273.823
9276.214
9278.405
9280.41
9282.24
9283.909
9285.425
9286.797
9288.032
9289.136
9290.115
9290.976
9291.724
9292.363
9292.9
9293.34
9293.685
9293.941
9294.112
9294.202
9294.214
9294.153
9294.021
9293.821
9293.556
9293.229
9292.841
9292.391
9291.889
9291.344
9290.734
9290.078
9289.377
9288.627
9287.829
9286.982
9286.083
9285.126
9284.097
9282.971
9281.798
9281.161
9281.152
9281.026
9279.757
9278.453
9277.281
9276.107
9274.922
9273.737
9272.543
9271.339
9270.129
9268.911
9267.688
9266.459
9265.227
9263.991
9262.752
9261.512
9260.27
9259.029
9257.789
9256.551
9255.315
9254.083
9252.852
9251.622
9250.414
9249.2
9248.027
9246.842
9245.649
9244.46
9243.281
9242.112
9240.952
9239.8
9238.659
9237.525
9236.4
9235.283
9234.173
9233.068
9231.96
9230.845
9229.716
9228.553
9227.318
9225.941
9224.4
9223.244
9255.65
9256.022
9254.712
9253.679
9252.709
9251.767
9250.833
9249.903
9248.972
9248.034
9247.093
9246.14
9245.176
9244.194
9243.191
9242.162
9241.101
9239.985
9238.862
9237.671
9236.385
9235.114
9233.74
9232.272
9230.702
9229.014
9227.186
9225.185
9222.975
9220.502
9217.681
9214.38
9210.345
9205.135
9197.809
9188.732
9196.13
9200.591
9203.419
9205.098
9206.327
9207.173
9207.699
9208.006
9208.122
9208.082
9207.905
9207.608
9207.203
9206.702
9206.111
9205.437
9204.685
9203.86
9202.968
9202.01
9200.991
9199.914
9198.781
9197.597
9196.365
9195.086
9193.765
9192.403
9191.008
9189.585
9188.155
9186.765
9185.285
9183.462
9168.764
9159.411
9146.305
9145.1
9143.848
9141.112
9138.754
9136.806
9134.846
9132.837
9130.826
9128.865
9126.945
9125.028
9123.128
9121.243
9119.372
9117.516
9115.676
9113.853
9112.047
9110.263
9108.503
9106.772
9105.073
9103.409
9101.784
9100.204
9098.672
9097.194
9095.774
9094.416
9093.128
9091.913
9090.779
9089.733
9088.782
9087.936
9087.206
9086.598
9086.141
9085.861
9085.804
9086.022
9086.449
9086.578
9085.824
9084.674
9083.9
9083.52
9083.373
9083.434
9083.485
9082.152
9075.766
9081.028
9083.323
9083.841
9084.863
9085.959
9087.139
9088.519
9090.088
9091.815
9093.704
9095.712
9097.903
9100.242
9102.729
9105.362
9108.134
9111.044
9114.086
9117.257
9120.555
9123.977
9127.52
9131.18
9134.956
9138.842
9142.838
9146.937
9151.137
9155.434
9159.823
9164.299
9168.859
9173.497
9178.21
9182.992
9187.838
9192.745
9197.705
9202.713
9207.764
9212.849
9217.963
9223.098
9228.247
9233.4
9238.551
9243.691
9248.81
9253.898
9258.945
9263.941
9268.873
9273.732
9278.503
9283.175
9287.734
9292.167
9296.458
9300.593
9304.556
9308.33
9311.897
9315.24
9318.339
9321.172
9323.719
9325.956
9327.855
9329.388
9330.523
9331.224
9331.445
9331.136
9330.234
9328.667
9326.321
9323.027
9318.561
9312.556
9304.392
9293.73
9283.15
9288.988
9340.285
7817.727
7743.285
7671.227
7600.234
7532.677
7469.631
7410.898
7358.219
7305.321
7225.793
7193.357
7154.657
7117.944
7087.262
7060.535
7039.305
7022.481
7008.959
6975.066
6982.492
6972.324
6972.499
6982.591
6996.537
7014.999
7036.266
7062.142
7092.08
7122.766
7153.687
7194.271
7237.048
7281.071
7327.329
7375.585
7425.576
7477.52
7532.484
7578.685
7628.463
7683.028
7736.876
7789.289
7841.258
7892.23
7942.051
7990.53
8038.806
8084.662
8128.109
8170.248
8211.289
8251.131
8289.629
8326.69
8362.717
8351.167
8384.781
8410.364
8436.011
8463.249
8490.82
8517.459
8542.761
8566.864
8589.973
8612.096
8633.418
8654.185
8674.479
8694.337
8713.768
8732.93
8751.893
8770.49
8787.634
8800.862
8811.616
8822.567
8833.136
8841.863
8848.618
8854.322
8859.709
8865.012
8870.208
8875.237
8880.078
8884.746
8889.262
8893.649
8897.956
8902.286
8906.869
8912.068
8918.192
8925.355
8933.545
8943.108
8953.097
8960.574
8964.485
8964.596
8960.802
8953.824
8949.314
8950.176
8953.578
8957.204
8960.323
8963.044
8965.572
8967.97
8970.22
8972.298
8974.202
8975.943
8977.531
8978.975
8980.281
8981.455
8982.502
8983.428
8984.238
8984.939
8985.534
8986.03
8986.429
8986.738
8986.96
8987.099
8987.158
8987.142
8987.053
8986.895
8986.67
8986.381
8986.031
8985.621
8985.157
8984.642
8984.082
8983.47
8982.805
8982.09
8981.328
8980.52
8979.666
8978.767
8977.827
8976.856
8975.882
8974.961
8974.163
8973.504
8972.819
8971.926
8970.851
8969.702
8968.537
8967.372
8966.201
8965.018
8963.82
8962.61
8961.39
8960.163
8958.93
8957.692
8956.45
8955.205
8953.958
8952.71
8951.463
8950.216
8948.972
8947.731
8946.493
8945.259
8944.031
8942.809
8941.595
8940.39
8939.194
8938.006
8936.825
8935.652
8934.487
8933.33
8932.183
8931.043
8929.914
8928.792
8927.68
8926.572
8925.474
8924.371
8923.275
8922.162
8921.064
8919.949
8918.907
8917.898
8917.03
8979.77
8978.595
8977.588
8976.775
8975.876
8974.957
8974.038
8973.113
8972.182
8971.245
8970.302
8969.35
8968.387
8967.407
8966.406
8965.38
8964.325
8963.233
8962.104
8960.93
8959.694
8958.401
8957.035
8955.579
8954.023
8952.35
8950.541
8948.568
8946.397
8943.984
8941.265
8938.158
8934.57
8930.535
8926.47
8923.693
8924.236
8926.836
8928.665
8929.905
8930.881
8931.567
8932
8932.238
8932.312
8932.241
8932.04
8931.725
8931.305
8930.791
8930.189
8929.505
8928.744
8927.912
8927.012
8926.048
8925.023
8923.94
8922.802
8921.612
8920.373
8919.089
8917.761
8916.393
8914.992
8913.562
8912.111
8910.637
8909.214
8908.703
8847.685
8848.061
8845
8840.543
8836.749
8834.046
8831.94
8829.977
8827.971
8825.928
8823.902
8821.921
8819.98
8818.063
8816.16
8814.268
8812.392
8810.529
8808.681
8806.852
8805.044
8803.259
8801.5
8799.771
8798.075
8796.415
8794.796
8793.222
8791.698
8790.227
8788.815
8787.467
8786.188
8784.984
8783.859
8782.822
8781.879
8781.036
8780.307
8779.703
8779.23
8778.894
8778.69
8778.574
8778.465
8778.248
8777.819
8777.226
8776.7
8776.37
8776.237
8776.208
8776.152
8775.664
8774.195
8773.868
8775.212
8777.017
8778.4
8779.605
8780.902
8782.338
8783.909
8785.608
8787.545
8789.631
8791.842
8794.195
8796.694
8799.339
8802.126
8805.051
8808.11
8811.3
8814.619
8818.063
8821.629
8825.314
8829.114
8833.026
8837.047
8841.172
8845.398
8849.721
8854.136
8858.639
8863.226
8867.891
8872.63
8877.439
8882.311
8887.243
8892.227
8897.259
8902.332
8907.44
8912.574
8917.728
8922.895
8928.065
8933.232
8938.385
8943.516
8948.614
8953.67
8958.673
8963.612
8968.474
8973.248
8977.92
8982.478
8986.907
8991.193
8995.32
8999.273
9003.036
9006.589
9009.916
9012.997
9015.811
9018.336
9020.551
9022.428
9023.94
9025.056
9025.743
9025.963
9025.668
9024.812
9023.32
9021.137
9018.157
9014.376
9009.843
9005.103
9001.171
8999.752
9000.894
9005.523
5266.909
5373.732
5513.85
5678.263
5867.881
6082.126
6320.21
6577.731
6851.656
7127.384
7400.81
7683.901
7953.484
8204.624
8432.363
8627.527
8787.155
8909.598
8993.346
9012.075
9027.815
9016.326
8981.145
8926.933
8857.8
8777.317
8688.263
8593.673
8497.24
8393.717
8293.072
8191.461
8090.803
7991.909
7895.245
7801.224
7710.702
7624.976
7536.478
7453.217
7375.308
7302.182
7233.181
7168.152
7107.429
7051.027
6999.61
6950.595
6905.382
6866.823
6832.229
6801.681
6775.873
6754.793
6738.744
6730.731
6651.642
6649.202
6653.016
6660.84
6671.815
6686.311
6704.788
6727.432
6753.975
6783.928
6817.73
6854.811
6893.895
6935.299
6979.447
7026.257
7075.344
7126.199
7178.361
7231.28
7283.929
7335.707
7387.803
7440.509
7493.11
7545.081
7596.241
7646.324
7695.038
7742.142
7787.567
7831.68
7874.376
7915.669
7955.359
7993.726
8030.529
8067.202
8103.948
8135.802
8164.219
8191.965
8219.933
8247.596
8274.254
8299.62
8323.779
8346.905
8369.22
8390.847
8411.804
8432.107
8451.771
8470.849
8489.307
8507.222
8524.32
8540.324
8554.095
8565.563
8576.176
8586.323
8595.351
8602.856
8609.23
8615.055
8620.636
8626.024
8631.196
8636.151
8640.922
8645.556
8650.102
8654.627
8659.219
8664.053
8669.332
8675.336
8682.014
8689.202
8696.81
8704.55
8710.566
8714.114
8715.096
8713.72
8710.363
8707.735
8708.105
8710.572
8713.529
8716.251
8718.712
8721.039
8723.281
8725.414
8727.401
8729.233
8730.913
8732.449
8733.849
8735.117
8736.256
8737.271
8738.168
8738.952
8739.628
8740.201
8740.675
8741.056
8741.346
8741.552
8741.676
8741.722
8741.694
8741.595
8741.427
8741.195
8740.9
8740.545
8740.133
8739.668
8739.15
8738.581
8737.959
8737.287
8736.568
8735.805
8734.999
8734.151
8733.267
8732.352
8731.418
8730.484
8729.576
8728.719
8727.902
8727.065
8726.121
8725.058
8723.934
8722.791
8721.639
8720.475
8719.294
8718.097
8716.886
8715.664
8714.432
8713.192
8711.947
8710.696
8709.442
8708.185
8706.927
8705.669
8704.412
8703.157
8701.906
8700.658
8699.414
8698.176
8696.946
8695.722
8694.507
8693.299
8692.098
8690.905
8689.721
8688.547
8687.384
8686.231
8685.089
8683.957
8682.835
8681.722
8680.619
8679.522
8678.435
8677.351
8676.281
8675.218
8674.196
8673.212
8672.377
8671.721
8671.486
8671.019
8670.179
8669.161
8668.168
8667.236
8666.328
8665.414
8664.491
8663.559
8662.62
8661.671
8660.708
8659.728
8658.727
8657.701
8656.646
8655.557
8654.428
8653.254
8652.025
8650.736
8649.376
8647.936
8646.402
8644.763
8643.003
8641.102
8639.041
8636.797
8634.354
8631.72
8628.96
8626.248
8623.946
8622.522
8622.284
8622.976
8623.929
8624.734
8625.311
8625.693
8625.921
8626.017
8625.987
8625.836
8625.573
8625.206
8624.746
8624.198
8623.567
8622.859
8622.077
8621.226
8620.308
8619.328
8618.288
8617.191
8616.039
8614.835
8613.582
8612.283
8610.94
8609.556
8608.134
8606.677
8605.184
8603.661
8602.093
8600.67
8598.536
8595.063
8592.215
8590.214
8588.663
8587.179
8585.584
8583.891
8582.114
8580.277
8578.408
8576.532
8574.657
8572.782
8570.906
8569.032
8567.164
8565.306
8563.459
8561.629
8559.817
8558.028
8556.264
8554.528
8552.825
8551.158
8549.531
8547.948
8546.414
8544.934
8543.511
8542.151
8540.859
8539.639
8538.498
8537.442
8536.475
8535.606
8534.84
8534.184
8533.639
8533.199
8532.849
8532.564
8532.307
8532.033
8531.691
8531.273
8530.859
8530.566
8530.429
8530.433
8530.62
8531.166
8532.193
8533.18
8533.716
8534.001
8534.424
8535.148
8536.145
8537.372
8538.811
8540.44
8542.265
8544.266
8546.426
8548.744
8551.215
8553.838
8556.606
8559.516
8562.563
8565.744
8569.055
8572.494
8576.056
8579.738
8583.537
8587.45
8591.473
8595.601
8599.832
8604.16
8608.582
8613.093
8617.689
8622.365
8627.116
8631.937
8636.824
8641.77
8646.771
8651.819
8656.91
8662.035
8667.189
8672.364
8677.553
8682.746
8687.936
8693.115
8698.272
8703.398
8708.483
8713.516
8718.486
8723.382
8728.191
8732.901
8737.497
8741.968
8746.297
8750.47
8754.471
8758.283
8761.891
8765.274
8768.416
8771.295
8773.891
8776.182
8778.145
8779.752
8780.979
8781.793
8782.166
8782.06
8781.442
8780.272
8778.528
8776.214
8773.392
8770.268
8767.116
8764.418
8762.352
8761.964
8762.861
4790.825
4771.338
4752.223
4721.39
4707.269
4677.606
4694.953
4732.868
4789.958
4831.287
4859.305
4910.671
4990.455
5097.876
5230.703
5388.01
5567.611
5771.423
5996.886
6243.08
6505.629
6780.107
7061.333
7341.408
7611.69
7863.961
8090.636
8286.04
8445.996
8568.686
8655.736
8645.105
8663.354
8650.662
8611.022
8553.121
8482.174
8401.092
8312.297
8218.428
8121.415
8022.508
7922.927
7823.477
7725.168
7628.826
7534.815
7443.3
7354.505
7268.61
7185.742
7106.446
7030.937
6959.267
6891.628
6828.149
6768.873
6713.812
6662.857
6616.107
6573.758
6535.612
6501.825
6472.67
6448.169
6428.266
6412.77
6401.779
6394.985
6393.498
6396.487
6402.752
6412.856
6427.324
6446.205
6469.232
6496.087
6526.586
6560.324
6597.001
6636.596
6679.02
6724.147
6771.638
6821.136
6872.254
6924.534
6977.393
7030.557
7083.933
7137.429
7190.994
7244.322
7296.978
7348.64
7399.093
7448.181
7495.878
7542.144
7586.782
7629.879
7671.388
7711.55
7750.166
7787.839
7823.502
7857.603
7890.13
7920.705
7949.755
7977.871
8005.187
8031.538
8056.781
8080.934
8104.114
8126.449
8148.008
8168.806
8188.882
8208.26
8226.978
8245.003
8262.307
8278.699
8293.952
8307.639
8319.642
8330.453
8340.439
8349.484
8357.395
8364.307
8370.558
8376.419
8382
8387.328
8392.424
8397.329
8402.097
8406.787
8411.466
8416.22
8421.164
8426.416
8432.074
8438.129
8444.444
8450.955
8457.071
8462.209
8465.63
8467.183
8467.208
8466.177
8465.294
8465.837
8467.638
8470.003
8472.398
8474.669
8476.844
8478.946
8480.959
8482.851
8484.606
8486.222
8487.703
8489.053
8490.276
8491.374
8492.352
8493.215
8493.967
8494.613
8495.158
8495.607
8495.963
8496.232
8496.417
8496.522
8496.551
8496.507
8496.394
8496.213
8495.969
8495.664
8495.3
8494.879
8494.405
8493.879
8493.301
8492.675
8492.001
8491.283
8490.521
8489.719
8488.879
8488.005
8487.105
8486.187
8485.262
8484.342
8483.438
8482.542
8481.63
8480.659
8479.614
8478.513
8477.381
8476.228
8475.058
8473.869
8472.664
8471.444
8470.213
8468.971
8467.721
8466.464
8465.202
8463.937
8462.669
8461.399
8460.129
8458.861
8457.594
8456.33
8455.07
8453.815
8452.566
8451.323
8450.088
8448.86
8447.64
8446.428
8445.226
8444.033
8442.851
8441.679
8440.518
8439.368
8438.228
8437.1
8435.982
8434.874
8433.778
8432.692
8431.62
8430.565
8429.533
8428.541
8427.609
8426.772
8426.047
8425.375
8424.571
8423.69
8422.794
8421.909
8421.035
8420.158
8419.266
8418.358
8417.438
8416.506
8415.563
8414.605
8413.63
8412.636
8411.617
8410.572
8409.494
8408.379
8407.222
8406.015
8404.753
8403.428
8402.03
8400.551
8398.982
8397.311
8395.528
8393.624
8391.595
8389.45
8387.225
8384.999
8382.907
8381.144
8379.896
8379.332
8379.44
8379.908
8380.379
8380.716
8380.924
8381.028
8381.034
8380.94
8380.743
8380.448
8380.06
8379.585
8379.027
8378.391
8377.68
8376.898
8376.048
8375.132
8374.154
8373.116
8372.021
8370.871
8369.668
8368.415
8367.114
8365.767
8364.378
8362.945
8361.474
8359.959
8358.406
8356.797
8355.082
8353.154
8351.369
8349.783
8347.941
8345.847
8343.688
8341.616
8339.601
8337.614
8335.633
8333.655
8331.69
8329.741
8327.806
8325.883
8323.971
8322.072
8320.186
8318.316
8316.463
8314.631
8312.821
8311.038
8309.284
8307.563
8305.878
8304.235
8302.635
8301.085
8299.587
8298.147
8296.768
8295.457
8294.216
8293.052
8291.968
8290.971
8290.065
8289.254
8288.54
8287.922
8287.394
8286.946
8286.561
8286.219
8285.894
8285.559
8285.207
8284.878
8284.644
8284.546
8284.6
8284.814
8285.137
8285.402
8285.583
8285.914
8286.588
8287.579
8288.714
8289.959
8291.355
8292.913
8294.625
8296.495
8298.521
8300.699
8303.028
8305.507
8308.132
8310.902
8313.813
8316.861
8320.043
8323.356
8326.797
8330.363
8334.05
8337.854
8341.774
8345.804
8349.941
8354.181
8358.521
8362.955
8367.479
8372.09
8376.781
8381.549
8386.389
8391.295
8396.262
8401.284
8406.355
8411.47
8416.621
8421.802
8427.005
8432.222
8437.447
8442.67
8447.882
8453.075
8458.239
8463.363
8468.438
8473.451
8478.392
8483.249
8488.009
8492.658
8497.183
8501.57
8505.804
8509.869
8513.749
8517.428
8520.887
8524.109
8527.074
8529.763
8532.155
8534.228
8535.96
8537.327
8538.303
8538.867
8538.992
8538.66
8537.858
8536.591
8534.896
8532.849
8530.594
8528.275
8526.146
8524.438
8523.48
8522.678
5029.754
4998.872
4969.349
4914.19
4867.172
4786.57
4739.409
4693.249
4648.795
4606.428
4565.457
4528.709
4495.159
4466.398
4443.978
4428.261
4361.995
4369.32
4389.108
4418.948
4455.372
4503.753
4569.899
4656.041
4764.819
4897.155
5053.223
5233.09
5436.296
5662.171
5908.838
6172.964
6449.366
6731.24
7011.306
7280.403
7531.089
7754.051
7944.199
8097.779
8213.265
8291.291
8333.955
8348.357
8337.03
8302.048
8248.271
8180.596
8102.64
8017.025
7926.079
7831.747
7735.327
7637.909
7540.376
7443.813
7349.089
7256.481
7166.289
7078.872
6994.523
6913.216
6835.043
6760.441
6689.71
6622.971
6560.256
6501.594
6447.009
6396.599
6350.352
6308.229
6270.435
6237.116
6208.313
6184.011
6164.223
6148.935
6138.234
6131.992
6130.188
6132.508
6138.815
6149.355
6164.287
6183.503
6206.729
6233.691
6264.114
6297.841
6334.81
6375.004
6418.101
6463.697
6511.559
6561.434
6612.969
6665.772
6719.449
6773.738
6828.343
6882.975
6937.446
6991.542
7044.95
7097.391
7148.662
7198.627
7247.175
7294.201
7339.576
7383.357
7425.534
7466.232
7505.33
7542.945
7578.731
7613.049
7646.035
7677.324
7706.898
7735.156
7762.413
7788.712
7813.984
7838.208
7861.443
7883.767
7905.249
7925.93
7945.844
7965.01
7983.434
8001.082
8017.899
8033.764
8048.534
8062.043
8074.204
8085.17
8095.172
8104.282
8112.461
8119.766
8126.387
8132.526
8138.314
8143.809
8149.053
8154.09
8158.978
8163.777
8168.552
8173.372
8178.313
8183.443
8188.807
8194.386
8200.072
8205.669
8210.873
8215.312
8218.604
8220.622
8221.544
8221.873
8222.175
8222.983
8224.517
8226.542
8228.712
8230.835
8232.88
8234.855
8236.751
8238.544
8240.216
8241.761
8243.179
8244.472
8245.642
8246.692
8247.625
8248.446
8249.159
8249.769
8250.28
8250.696
8251.023
8251.263
8251.422
8251.503
8251.509
8251.445
8251.312
8251.114
8250.854
8250.534
8250.157
8249.724
8249.239
8248.704
8248.119
8247.487
8246.809
8246.088
8245.326
8244.525
8243.688
8242.821
8241.927
8241.013
8240.088
8239.156
8238.223
8237.284
8236.326
8235.328
8234.277
8233.178
8232.045
8230.889
8229.712
8228.518
8227.306
8226.08
8224.841
8223.592
8222.334
8221.068
8219.797
8218.522
8217.244
8215.963
8214.683
8213.403
8212.125
8210.85
8209.578
8208.312
8207.051
8205.796
8204.549
8203.309
8202.078
8200.856
8199.643
8198.44
8197.247
8196.066
8194.895
8193.736
8192.589
8191.454
8190.331
8189.221
8188.123
8187.041
8185.976
8184.932
8183.914
8182.935
8182.002
8181.124
8180.293
8179.482
8178.668
8177.839
8176.987
8176.116
8175.235
8174.347
8173.45
8172.543
8171.625
8170.698
8169.759
8168.807
8167.839
8166.852
8165.844
8164.81
8163.747
8162.65
8161.513
8160.332
8159.099
8157.811
8156.459
8155.038
8153.541
8151.963
8150.299
8148.55
8146.722
8144.835
8142.927
8141.064
8139.338
8137.864
8136.757
8136.109
8135.911
8135.997
8136.157
8136.276
8136.326
8136.308
8136.219
8136.05
8135.797
8135.46
8135.04
8134.542
8133.967
8133.317
8132.597
8131.808
8130.953
8130.034
8129.053
8128.013
8126.915
8125.763
8124.557
8123.301
8121.995
8120.641
8119.242
8117.797
8116.308
8114.77
8113.184
8111.531
8109.81
8108.056
8106.244
8104.318
8102.236
8100.118
8098.087
8096.155
8094.238
8092.318
8090.386
8088.445
8086.503
8084.565
8082.633
8080.707
8078.788
8076.878
8074.98
8073.096
8071.228
8069.38
8067.554
8065.753
8063.983
8062.244
8060.543
8058.881
8057.263
8055.693
8054.175
8052.714
8051.313
8049.977
8048.71
8047.517
8046.403
8045.37
8044.423
8043.563
8042.793
8042.11
8041.511
8040.987
8040.528
8040.121
8039.749
8039.401
8039.078
8038.803
8038.614
8038.542
8038.593
8038.755
8038.994
8039.309
8039.782
8040.43
8041.222
8042.132
8043.168
8044.35
8045.699
8047.216
8048.899
8050.745
8052.752
8054.915
8057.234
8059.705
8062.324
8065.089
8067.997
8071.044
8074.226
8077.542
8080.986
8084.557
8088.25
8092.063
8095.992
8100.033
8104.182
8108.436
8112.79
8117.24
8121.783
8126.412
8131.124
8135.914
8140.777
8145.708
8150.701
8155.751
8160.852
8165.997
8171.18
8176.395
8181.633
8186.889
8192.152
8197.417
8202.673
8207.911
8213.123
8218.297
8223.425
8228.494
8233.493
8238.41
8243.233
8247.949
8252.544
8257.004
8261.314
8265.46
8269.424
8273.192
8276.745
8280.066
8283.138
8285.941
8288.456
8290.664
8292.544
8294.078
8295.244
8296.025
8296.407
8296.381
8295.949
8295.126
8293.952
8292.487
8290.834
8289.091
8287.462
8286.009
8284.878
8283.46
5203.966
5168.985
5129.469
5077.515
5040.311
4966.388
4928.303
4889.795
4850.717
4810.312
4769.481
4727.995
4684.606
4640.611
4593.872
4479.99
4433.212
4387.257
4342.619
4299.587
4258.646
4220.555
4185.689
4154.2
4127.192
4107.038
4094.858
4093.906
4103.463
4124.139
4156.859
4204.237
4268.183
4351.688
4456.28
4583.546
4734.224
4908.345
5105.847
5325.992
5567.004
5826.007
6098.356
6378.166
6658.836
6928.483
7179.738
7403.879
7594.887
7749.179
7865.619
7945.568
7991.713
8008.075
7999.247
7968.514
7919.531
7856.482
7783.07
7702.069
7615.665
7525.633
7433.345
7339.865
7246.114
7152.947
7060.916
6970.476
6882.293
6796.841
6714.288
6634.655
6558.083
6484.897
6415.364
6349.612
6287.7
6229.693
6175.667
6125.709
6079.846
6038.135
6000.728
5967.713
5939.124
5914.981
5895.328
5880.179
5869.54
5863.303
5861.348
5863.661
5870.273
5881.179
5896.326
5915.592
5938.82
5965.855
5996.167
6030.253
6067.813
6108.496
6152.045
6198.197
6246.721
6297.341
6349.721
6403.5
6458.313
6513.816
6569.664
6625.555
6681.248
6736.513
6791.08
6844.687
6897.111
6948.186
6997.765
7045.752
7092.063
7136.704
7179.655
7220.958
7260.564
7298.515
7334.802
7369.527
7402.723
7434.273
7464.201
7492.75
7520.16
7546.525
7571.834
7596.082
7619.311
7641.586
7662.974
7683.52
7703.252
7722.18
7740.305
7757.598
7774.014
7789.483
7803.92
7817.245
7829.409
7840.467
7850.554
7859.768
7868.144
7875.73
7882.644
7889.033
7895.018
7900.674
7906.054
7911.208
7916.193
7921.065
7925.885
7930.706
7935.582
7940.552
7945.633
7950.79
7955.932
7960.905
7965.513
7969.521
7972.722
7975.042
7976.599
7977.686
7978.625
7979.761
7981.296
7983.162
7985.161
7987.155
7989.092
7990.957
7992.746
7994.441
7996.025
7997.494
7998.843
8000.073
8001.185
8002.18
8003.063
8003.837
8004.506
8005.075
8005.547
8005.926
8006.218
8006.425
8006.553
8006.605
8006.584
8006.494
8006.338
8006.118
8005.838
8005.5
8005.106
8004.659
8004.161
8003.614
8003.019
8002.378
8001.694
8000.968
8000.202
7999.399
7998.563
7997.696
7996.803
7995.889
7994.958
7994.014
7993.06
7992.091
7991.101
7990.078
7989.015
7987.913
7986.778
7985.618
7984.438
7983.239
7982.023
7980.791
7979.546
7978.29
7977.025
7975.752
7974.472
7973.188
7971.901
7970.611
7969.32
7968.03
7966.742
7965.456
7964.174
7962.896
7961.624
7960.358
7959.1
7957.849
7956.607
7955.374
7954.151
7952.938
7951.735
7950.544
7949.365
7948.198
7947.044
7945.903
7944.775
7943.662
7942.564
7941.482
7940.42
7939.381
7938.368
7937.387
7936.442
7935.535
7934.662
7933.818
7932.986
7932.143
7931.28
7930.4
7929.513
7928.622
7927.726
7926.823
7925.912
7924.992
7924.06
7923.115
7922.156
7921.18
7920.184
7919.165
7918.119
7917.042
7915.929
7914.775
7913.577
7912.329
7911.028
7909.668
7908.248
7906.765
7905.22
7903.618
7901.969
7900.295
7898.631
7897.029
7895.554
7894.28
7893.278
7892.59
7892.204
7892.033
7891.961
7891.902
7891.814
7891.684
7891.502
7891.258
7890.946
7890.563
7890.108
7889.581
7888.984
7888.318
7887.585
7886.785
7885.922
7884.996
7884.01
7882.964
7881.862
7880.705
7879.494
7878.232
7876.919
7875.557
7874.146
7872.688
7871.183
7869.627
7868.019
7866.356
7864.641
7862.869
7861.002
7859.052
7857.06
7855.077
7853.122
7851.185
7849.245
7847.298
7845.343
7843.383
7841.423
7839.465
7837.511
7835.564
7833.623
7831.692
7829.773
7827.868
7825.98
7824.11
7822.264
7820.443
7818.651
7816.891
7815.167
7813.483
7811.842
7810.248
7808.706
7807.219
7805.791
7804.426
7803.129
7801.903
7800.753
7799.68
7798.69
7797.782
7796.957
7796.216
7795.553
7794.965
7794.444
7793.982
7793.57
7793.205
7792.89
7792.639
7792.473
7792.409
7792.454
7792.607
7792.869
7793.256
7793.783
7794.433
7795.196
7796.091
7797.139
7798.344
7799.711
7801.241
7802.93
7804.78
7806.789
7808.954
7811.273
7813.744
7816.363
7819.129
7822.038
7825.088
7828.274
7831.595
7835.047
7838.626
7842.33
7846.154
7850.096
7854.152
7858.317
7862.589
7866.962
7871.433
7875.998
7880.651
7885.389
7890.206
7895.098
7900.059
7905.084
7910.167
7915.303
7920.486
7925.708
7930.964
7936.246
7941.547
7946.858
7952.173
7957.481
7962.775
7968.045
7973.28
7978.472
7983.607
7988.677
7993.667
7998.567
8003.364
8008.043
8012.591
8016.993
8021.235
8025.301
8029.174
8032.84
8036.279
8039.476
8042.413
8045.072
8047.435
8049.485
8051.205
8052.579
8053.596
8054.245
8054.526
8054.444
8054.018
8053.284
8052.286
8051.111
8049.82
8048.559
8047.298
8046.17
8044.594
5242.471
5175.721
5110.374
5041.74
4979.573
4927.139
4880.854
4838.717
4799.803
4760.691
4656.083
4618.437
4580.541
4541.887
4502.09
4461.245
4419.237
4375.781
4331.058
4285.797
4240.509
4194.303
4148.177
4102.9
4058.898
4016.177
3974.921
3936.001
3900.32
3868.907
3843.425
3826.322
3818.881
3821.903
3836.802
3865.293
3909.751
3971.735
4052.56
4153.682
4276.279
4421.16
4588.901
4779.639
4993.103
5227.904
5482.2
5749.95
6026.397
6303.467
6570.908
6819.653
7041.379
7230.025
7382.369
7497.68
7577.339
7624.365
7642.623
7636.567
7610.079
7566.616
7509.634
7442.377
7367.485
7287.059
7202.716
7115.912
7027.616
6938.553
6849.564
6761.225
6674.138
6588.987
6506.198
6425.967
6348.432
6273.781
6202.269
6134.126
6069.518
6008.562
5951.365
5898.029
5848.648
5803.305
5762.085
5725.09
5692.397
5664.066
5640.145
5620.676
5605.672
5595.115
5588.951
5587.131
5589.658
5596.506
5607.585
5622.805
5642.078
5665.333
5692.095
5723.204
5757.823
5795.814
5836.997
5881.185
5928.149
5977.616
6029.286
6082.822
6137.867
6194.046
6250.99
6308.348
6365.803
6423.066
6479.864
6535.922
6590.975
6644.79
6697.181
6747.998
6797.144
6844.542
6890.162
6933.98
6976.013
7016.26
7054.76
7091.548
7126.649
7160.1
7191.928
7222.197
7251.051
7278.648
7305.089
7330.412
7354.643
7377.828
7400.026
7421.296
7441.681
7461.208
7479.889
7497.726
7514.702
7530.789
7545.945
7560.121
7573.274
7585.383
7596.479
7606.642
7615.956
7624.479
7632.266
7639.404
7646.001
7652.161
7657.96
7663.458
7668.708
7673.764
7678.68
7683.507
7688.29
7693.067
7697.862
7702.675
7707.475
7712.19
7716.71
7720.899
7724.613
7727.735
7730.224
7732.152
7733.692
7735.061
7736.477
7738.08
7739.867
7741.744
7743.62
7745.449
7747.219
7748.915
7750.521
7752.018
7753.407
7754.683
7755.846
7756.895
7757.829
7758.655
7759.377
7759.998
7760.521
7760.949
7761.287
7761.539
7761.709
7761.802
7761.821
7761.77
7761.65
7761.467
7761.221
7760.917
7760.557
7760.143
7759.678
7759.163
7758.6
7757.992
7757.339
7756.644
7755.91
7755.137
7754.329
7753.488
7752.618
7751.721
7750.802
7749.862
7748.906
7747.933
7746.941
7745.927
7744.884
7743.809
7742.7
7741.561
7740.398
7739.213
7738.009
7736.788
7735.551
7734.301
7733.038
7731.767
7730.486
7729.2
7727.907
7726.612
7725.313
7724.014
7722.715
7721.416
7720.121
7718.828
7717.54
7716.258
7714.982
7713.713
7712.451
7711.199
7709.956
7708.722
7707.499
7706.288
7705.088
7703.9
7702.726
7701.565
7700.417
7699.285
7698.168
7697.068
7695.986
7694.924
7693.885
7692.871
7691.885
7690.93
7690.006
7689.11
7688.239
7687.377
7686.512
7685.638
7684.756
7683.871
7682.983
7682.093
7681.196
7680.293
7679.381
7678.46
7677.525
7676.577
7675.613
7674.633
7673.633
7672.61
7671.558
7670.471
7669.348
7668.186
7666.982
7665.733
7664.437
7663.093
7661.701
7660.267
7658.8
7657.307
7655.809
7654.337
7652.93
7651.635
7650.5
7649.567
7648.856
7648.358
7648.024
7647.787
7647.585
7647.378
7647.147
7646.879
7646.564
7646.193
7645.762
7645.268
7644.71
7644.087
7643.4
7642.65
7641.836
7640.961
7640.025
7639.03
7637.978
7636.868
7635.703
7634.485
7633.214
7631.892
7630.519
7629.097
7627.626
7626.105
7624.534
7622.913
7621.238
7619.508
7617.718
7615.862
7613.96
7612.032
7610.088
7608.135
7606.176
7604.212
7602.243
7600.27
7598.292
7596.314
7594.336
7592.362
7590.393
7588.431
7586.477
7584.535
7582.607
7580.695
7578.802
7576.931
7575.085
7573.268
7571.483
7569.733
7568.022
7566.354
7564.732
7563.161
7561.643
7560.184
7558.787
7557.455
7556.192
7555.002
7553.888
7552.852
7551.895
7551.018
7550.221
7549.502
7548.857
7548.282
7547.773
7547.326
7546.94
7546.619
7546.373
7546.213
7546.153
7546.2
7546.36
7546.638
7547.038
7547.56
7548.204
7548.976
7549.893
7550.963
7552.187
7553.567
7555.106
7556.802
7558.657
7560.669
7562.837
7565.158
7567.631
7570.254
7573.024
7575.938
7578.994
7582.188
7585.519
7588.981
7592.573
7596.291
7600.131
7604.091
7608.166
7612.352
7616.645
7621.043
7625.539
7630.131
7634.813
7639.581
7644.431
7649.356
7654.353
7659.416
7664.539
7669.717
7674.943
7680.212
7685.516
7690.849
7696.203
7701.57
7706.944
7712.314
7717.673
7723.011
7728.318
7733.584
7738.798
7743.949
7749.026
7754.015
7758.905
7763.682
7768.333
7772.842
7777.196
7781.379
7785.376
7789.17
7792.745
7796.085
7799.174
7801.994
7804.53
7806.766
7808.688
7810.284
7811.544
7812.462
7813.04
7813.287
7813.218
7812.866
7812.265
7811.48
7810.549
7809.571
7808.493
7807.44
7805.861
4961.941
4884.821
4741.866
4688.804
4639.709
4595.855
4555.868
4518.352
4482.139
4446.633
4411.596
4375.577
4338.738
4300.732
4261.562
4220.984
4178.964
4135.456
4090.378
4044.123
3998.02
3951.604
3904.92
3858.591
3812.681
3767.397
3723.286
3681.156
3642.487
3608.667
3580.84
3560.49
3549.234
3548.363
3559.599
3585.199
3626.687
3685.295
3762.257
3858.825
3976.027
4114.735
4276.339
4460.282
4667.168
4895.935
5143.993
5406.489
5677.584
5948.999
6210.735
6453.304
6668.863
6851.891
6999.661
7111.896
7190.348
7238.155
7259.095
7257.149
7236.035
7199.033
7149.118
7089.038
7021.191
6947.525
6869.669
6788.877
6705.993
6621.822
6537.353
6453.258
6370.05
6288.278
6208.381
6130.664
6055.367
5982.721
5912.963
5846.317
5782.975
5723.097
5666.824
5614.284
5565.59
5520.851
5480.162
5443.616
5411.3
5383.289
5359.646
5340.413
5325.612
5315.24
5309.277
5307.693
5310.45
5317.481
5328.697