/*--------------------------------*- C++ -*----------------------------------*\
| =========                 |                                                 |
| \\      /  F ield         | foam-extend: Open Source CFD                    |
|  \\    /   O peration     | Version:     3.1                                |
|   \\  /    A nd           | Web:         http://www.extend-project.de       |
|    \\/     M anipulation  |                                                 |
\*---------------------------------------------------------------------------*/
FoamFile
{
    version     2.0;
    format      ascii;
    class       volScalarField;
    location    "5";
    object      pd;
}
// * * * * * * * * * * * * * * * * * * * * * * * * * * * * * * * * * * * * * //

dimensions      [1 -1 -2 0 0 0 0];

internalField   nonuniform List<scalar> 
119952
(
9509.054
9422.027
9408.752
9434.482
9462.554
9457.702
9461.84
9466.272
9471.134
9476.072
9481.026
9485.922
9490.705
9495.343
9499.81
9504.059
9507.998
9511.356
9513.096
9508.23
9551.632
9529.856
9526.472
9580.378
9574.693
9585.204
9591.8
9607.899
9655.814
9900.627
8080.644
8131.232
8179.448
8232
8285.009
8336.834
8387.965
8438.357
8487.693
8527.953
8579.2
8625.945
8670.329
8713.35
8754.878
8795.033
8833.854
8871.245
8910.027
8961.688
8984.325
9011.157
9040.736
9068.496
9095.504
9121.925
9147.358
9171.773
9194.429
9215.175
9238.185
9259.535
9279.862
9299.798
9319.161
9338.037
9357.077
9380.293
9410.566
9408.985
9418.488
9436.033
9449.259
9456.184
9460.909
9466.187
9471.377
9476.424
9481.433
9486.35
9491.134
9495.765
9500.226
9504.488
9508.518
9512.285
9515.808
9519.919
9527.15
9533.577
9538.373
9554.308
9573.129
9579.742
9586.06
9591.507
9586.189
9555.906
9552.582
9559.374
9563.792
9568.02
9571.716
9574.91
9577.775
9580.385
9582.776
9584.968
9586.972
9588.803
9590.471
9591.987
9593.359
9594.594
9595.698
9596.678
9597.539
9598.286
9598.926
9599.463
9599.902
9600.248
9600.504
9600.675
9600.764
9600.777
9600.716
9600.584
9600.384
9600.119
9599.792
9599.404
9598.953
9598.452
9597.906
9597.297
9596.641
9595.94
9595.19
9594.392
9593.544
9592.645
9591.689
9590.659
9589.533
9588.36
9587.724
9587.715
9587.588
9586.319
9585.015
9583.844
9582.67
9581.485
9580.299
9579.105
9577.902
9576.691
9575.473
9574.25
9573.022
9571.789
9570.553
9569.315
9568.074
9566.833
9565.592
9564.352
9563.113
9561.878
9560.645
9559.415
9558.185
9556.976
9555.763
9554.59
9553.404
9552.211
9551.023
9549.843
9548.674
9547.514
9546.363
9545.221
9544.088
9542.963
9541.846
9540.736
9539.63
9538.523
9537.407
9536.278
9535.116
9533.881
9532.504
9530.962
9529.806
9531.556
9531.929
9530.618
9529.586
9528.615
9527.673
9526.74
9525.81
9524.878
9523.94
9522.999
9522.046
9521.082
9520.101
9519.098
9518.068
9517.007
9515.891
9514.768
9513.578
9512.291
9511.02
9509.647
9508.178
9506.608
9504.92
9503.093
9501.091
9498.881
9496.408
9493.588
9490.286
9486.251
9481.041
9473.715
9464.638
9472.036
9476.497
9479.325
9481.004
9482.233
9483.08
9483.605
9483.912
9484.028
9483.988
9483.811
9483.514
9483.109
9482.608
9482.017
9481.343
9480.591
9479.767
9478.874
9477.916
9476.897
9475.82
9474.688
9473.503
9472.271
9470.993
9469.671
9468.31
9466.914
9465.492
9464.062
9462.672
9461.191
9459.368
9475.327
9465.974
9452.867
9451.663
9450.41
9447.675
9445.317
9443.369
9441.408
9439.399
9437.389
9435.427
9433.508
9431.59
9429.69
9427.806
9425.934
9424.079
9422.239
9420.416
9418.61
9416.826
9415.066
9413.334
9411.635
9409.971
9408.347
9406.767
9405.235
9403.757
9402.336
9400.979
9399.69
9398.476
9397.342
9396.296
9395.345
9394.499
9393.768
9393.161
9392.704
9392.424
9392.367
9392.585
9393.012
9393.141
9392.387
9391.236
9390.463
9390.083
9389.935
9389.997
9390.048
9388.715
9382.329
9387.59
9389.886
9390.403
9391.425
9392.522
9393.701
9395.082
9396.651
9398.377
9400.266
9402.274
9404.466
9406.805
9409.292
9411.924
9414.697
9417.606
9420.648
9423.82
9427.118
9430.54
9434.082
9437.743
9441.518
9445.405
9449.4
9453.5
9457.7
9461.996
9466.385
9470.862
9475.421
9480.06
9484.772
9489.554
9494.401
9499.307
9504.267
9509.276
9514.326
9519.412
9524.526
9529.661
9534.809
9539.963
9545.114
9550.253
9555.372
9560.46
9565.507
9570.503
9575.436
9580.294
9585.066
9589.738
9594.297
9598.729
9603.021
9607.156
9611.118
9614.892
9618.46
9621.802
9624.901
9627.735
9630.282
9632.518
9634.417
9635.951
9637.086
9637.786
9638.008
9637.699
9636.797
9635.229
9632.884
9629.59
9625.123
9619.118
9610.955
9600.292
9589.712
9595.551
9646.848
8351.57
8273.846
8198.521
8124.26
8053.436
7987.123
7925.122
7869.176
7813.173
7746.949
7714.513
7675.813
7639.1
7608.418
7581.691
7560.461
7543.637
7530.115
7526.879
7534.305
7524.136
7524.312
7534.403
7548.35
7566.811
7588.078
7613.954
7643.893
7674.579
7705.5
7746.083
7788.86
7832.884
7879.141
7927.397
7977.389
8029.333
8084.297
8130.497
8180.276
8234.841
8288.688
8341.102
8393.071
8444.043
8493.864
8542.342
8590.618
8636.475
8679.922
8722.061
8763.102
8802.944
8841.441
8878.502
8914.53
8964.292
8997.906
9023.489
9049.136
9076.374
9103.945
9130.584
9155.886
9179.989
9203.098
9225.221
9246.543
9267.31
9287.604
9307.462
9326.893
9346.055
9365.018
9383.615
9400.759
9413.987
9424.741
9435.692
9446.261
9454.988
9461.743
9467.447
9472.834
9478.137
9483.333
9488.362
9493.203
9497.871
9502.387
9506.774
9511.081
9515.411
9519.994
9525.193
9531.317
9538.48
9546.67
9556.233
9566.222
9573.699
9577.61
9577.721
9573.927
9566.949
9562.439
9563.301
9566.703
9570.329
9573.448
9576.169
9578.697
9581.095
9583.345
9585.423
9587.327
9589.068
9590.656
9592.1
9593.406
9594.58
9595.627
9596.553
9597.363
9598.064
9598.659
9599.155
9599.554
9599.863
9600.085
9600.224
9600.283
9600.267
9600.178
9600.02
9599.795
9599.506
9599.156
9598.747
9598.282
9597.767
9597.207
9596.595
9595.93
9595.215
9594.453
9593.645
9592.791
9591.892
9590.952
9589.981
9589.007
9588.086
9587.288
9586.629
9585.944
9585.051
9583.976
9582.827
9581.662
9580.497
9579.326
9578.143
9576.945
9575.735
9574.515
9573.288
9572.055
9570.817
9569.575
9568.33
9567.083
9565.835
9564.588
9563.341
9562.097
9560.856
9559.618
9558.384
9557.156
9555.934
9554.72
9553.515
9552.319
9551.131
9549.95
9548.777
9547.612
9546.455
9545.308
9544.168
9543.039
9541.917
9540.805
9539.697
9538.599
9537.496
9536.4
9535.287
9534.189
9533.074
9532.032
9531.023
9530.155
9531.582
9530.408
9529.4
9528.587
9527.688
9526.77
9525.85
9524.925
9523.995
9523.057
9522.114
9521.163
9520.199
9519.219
9518.219
9517.193
9516.137
9515.045
9513.917
9512.743
9511.507
9510.214
9508.847
9507.391
9505.835
9504.163
9502.353
9500.381
9498.21
9495.796
9493.078
9489.971
9486.383
9482.347
9478.282
9475.506
9476.049
9478.649
9480.477
9481.717
9482.694
9483.38
9483.813
9484.051
9484.124
9484.053
9483.853
9483.537
9483.118
9482.603
9482.001
9481.317
9480.557
9479.725
9478.825
9477.86
9476.835
9475.752
9474.614
9473.424
9472.186
9470.901
9469.573
9468.206
9466.805
9465.375
9463.923
9462.449
9461.026
9460.516
9460.81
9461.186
9458.125
9453.668
9449.874
9447.171
9445.065
9443.102
9441.096
9439.053
9437.027
9435.046
9433.105
9431.188
9429.285
9427.394
9425.517
9423.654
9421.806
9419.977
9418.169
9416.384
9414.625
9412.896
9411.2
9409.54
9407.921
9406.347
9404.823
9403.352
9401.94
9400.592
9399.313
9398.109
9396.985
9395.947
9395.004
9394.161
9393.433
9392.828
9392.355
9392.019
9391.815
9391.699
9391.59
9391.374
9390.944
9390.351
9389.825
9389.495
9389.362
9389.333
9389.277
9388.789
9387.32
9386.993
9388.337
9390.142
9391.525
9392.73
9394.027
9395.463
9397.034
9398.733
9400.67
9402.756
9404.967
9407.32
9409.819
9412.464
9415.251
9418.176
9421.235
9424.425
9427.744
9431.188
9434.754
9438.439
9442.239
9446.151
9450.172
9454.297
9458.524
9462.846
9467.261
9471.764
9476.351
9481.016
9485.755
9490.564
9495.436
9500.368
9505.352
9510.384
9515.457
9520.565
9525.699
9530.853
9536.02
9541.19
9546.357
9551.51
9556.641
9561.739
9566.795
9571.798
9576.737
9581.599
9586.373
9591.045
9595.603
9600.032
9604.318
9608.445
9612.398
9616.161
9619.714
9623.041
9626.122
9628.936
9631.461
9633.676
9635.553
9637.065
9638.181
9638.868
9639.088
9638.793
9637.937
9636.445
9634.262
9631.282
9627.501
9622.968
9618.228
9614.296
9612.877
9614.019
9618.648
6047.895
6151.177
6288.027
6449.174
6635.524
6846.497
7081.318
7335.572
7606.229
7879.808
8167.216
8450.307
8719.89
8971.03
9198.769
9393.933
9553.561
9676.004
9759.753
9809.137
9824.878
9813.388
9778.208
9723.996
9654.862
9574.379
9485.325
9390.735
9294.303
9190.779
9090.134
8988.524
8887.866
8788.972
8692.307
8598.287
8507.764
8422.038
8333.54
8250.279
8172.37
8099.245
8030.243
7965.214
7904.492
7848.089
7796.673
7747.658
7702.445
7663.885
7629.291
7598.743
7572.935
7551.855
7535.806
7527.794
7510.017
7507.576
7511.391
7519.215
7530.19
7544.686
7563.163
7585.807
7612.35
7642.303
7676.105
7713.185
7752.27
7793.674
7837.822
7884.632
7933.719
7984.574
8036.736
8089.655
8142.304
8194.082
8246.178
8298.884
8351.485
8403.456
8454.616
8504.699
8553.413
8600.517
8645.942
8690.055
8732.751
8774.044
8813.734
8852.101
8888.904
8925.577
8962.323
8994.177
9022.594
9050.34
9078.308
9105.971
9132.629
9157.995
9182.154
9205.28
9227.595
9249.222
9270.179
9290.482
9310.146
9329.224
9347.682
9365.597
9382.695
9398.699
9412.47
9423.938
9434.551
9444.698
9453.726
9461.231
9467.605
9473.43
9479.011
9484.399
9489.571
9494.526
9499.297
9503.931
9508.477
9513.002
9517.594
9522.428
9527.707
9533.711
9540.389
9547.577
9555.185
9562.925
9568.941
9572.489
9573.471
9572.095
9568.738
9566.11
9566.48
9568.947
9571.904
9574.626
9577.087
9579.414
9581.656
9583.789
9585.776
9587.608
9589.288
9590.824
9592.224
9593.492
9594.631
9595.646
9596.543
9597.327
9598.003
9598.576
9599.05
9599.431
9599.721
9599.927
9600.051
9600.097
9600.069
9599.97
9599.802
9599.57
9599.275
9598.92
9598.508
9598.043
9597.525
9596.956
9596.334
9595.662
9594.943
9594.18
9593.374
9592.526
9591.642
9590.727
9589.793
9588.859
9587.951
9587.094
9586.277
9585.441
9584.496
9583.433
9582.309
9581.166
9580.014
9578.85
9577.669
9576.472
9575.261
9574.039
9572.807
9571.567
9570.322
9569.071
9567.817
9566.56
9565.302
9564.044
9562.787
9561.532
9560.281
9559.033
9557.789
9556.551
9555.321
9554.097
9552.882
9551.674
9550.473
9549.28
9548.096
9546.922
9545.759
9544.606
9543.464
9542.332
9541.21
9540.097
9538.994
9537.897
9536.81
9535.726
9534.656
9533.593
9532.571
9531.587
9530.752
9530.096
9529.861
9529.394
9528.554
9527.536
9526.543
9525.611
9524.703
9523.789
9522.865
9521.934
9520.995
9520.045
9519.082
9518.103
9517.102
9516.076
9515.021
9513.932
9512.803
9511.629
9510.4
9509.111
9507.751
9506.311
9504.777
9503.138
9501.378
9499.477
9497.416
9495.172
9492.729
9490.095
9487.335
9484.623
9482.321
9480.897
9480.659
9481.351
9482.304
9483.109
9483.686
9484.068
9484.296
9484.392
9484.362
9484.211
9483.948
9483.582
9483.121
9482.573
9481.942
9481.234
9480.452
9479.601
9478.683
9477.703
9476.663
9475.566
9474.414
9473.21
9471.957
9470.658
9469.315
9467.931
9466.509
9465.052
9463.559
9462.036
9460.468
9459.045
9456.911
9453.438
9450.59
9448.59
9447.038
9445.554
9443.959
9442.266
9440.489
9438.652
9436.783
9434.907
9433.032
9431.157
9429.281
9427.407
9425.539
9423.681
9421.834
9420.004
9418.192
9416.403
9414.639
9412.904
9411.2
9409.533
9407.906
9406.323
9404.789
9403.309
9401.886
9400.526
9399.234
9398.014
9396.873
9395.817
9394.851
9393.981
9393.216
9392.559
9392.014
9391.574
9391.225
9390.94
9390.682
9390.409
9390.066
9389.648
9389.234
9388.941
9388.804
9388.808
9388.995
9389.541
9390.568
9391.555
9392.091
9392.376
9392.799
9393.523
9394.52
9395.747
9397.186
9398.815
9400.64
9402.641
9404.801
9407.119
9409.59
9412.213
9414.981
9417.891
9420.938
9424.119
9427.43
9430.869
9434.431
9438.113
9441.912
9445.825
9449.848
9453.976
9458.207
9462.535
9466.957
9471.468
9476.064
9480.74
9485.491
9490.312
9495.199
9500.145
9505.146
9510.194
9515.285
9520.41
9525.564
9530.739
9535.928
9541.121
9546.311
9551.49
9556.647
9561.773
9566.858
9571.891
9576.861
9581.757
9586.566
9591.276
9595.872
9600.343
9604.672
9608.845
9612.846
9616.658
9620.266
9623.649
9626.791
9629.67
9632.266
9634.557
9636.52
9638.127
9639.354
9640.168
9640.541
9640.435
9639.817
9638.647
9636.903
9634.589
9631.767
9628.643
9625.491
9622.793
9620.727
9620.339
9621.236
5808.029
5776.989
5754.399
5733.046
5718.926
5719.918
5737.265
5775.181
5832.27
5873.599
5901.618
5952.984
6032.767
6140.188
6273.015
6430.322
6609.924
6813.735
7039.198
7285.392
7547.942
7822.419
8103.645
8383.72
8654.002
8906.274
9132.949
9328.352
9488.308
9610.998
9698.049
9748.73
9766.979
9754.287
9714.647
9656.746
9585.799
9504.717
9415.922
9322.052
9225.039
9126.133
9026.552
8927.102
8828.793
8732.451
8638.44
8546.925
8458.13
8372.234
8289.366
8210.07
8134.562
8062.892
7995.253
7931.774
7872.498
7817.437
7766.482
7719.732
7677.383
7639.236
7605.45
7576.294
7551.794
7531.891
7516.395
7505.404
7498.61
7497.122
7500.112
7506.377
7516.481
7530.949
7549.83
7572.856
7599.712
7630.211
7663.948
7700.625
7740.221
7782.645
7827.771
7875.263
7924.761
7975.879
8028.159
8081.018
8134.182
8187.557
8241.054
8294.619
8347.947
8400.602
8452.265
8502.718
8551.806
8599.503
8645.769
8690.407
8733.504
8775.013
8815.175
8853.791
8891.464
8927.127
8961.228
8993.755
9024.33
9053.38
9081.496
9108.812
9135.163
9160.406
9184.559
9207.739
9230.074
9251.633
9272.431
9292.507
9311.885
9330.603
9348.628
9365.932
9382.324
9397.577
9411.264
9423.267
9434.078
9444.064
9453.109
9461.02
9467.932
9474.183
9480.044
9485.625
9490.953
9496.049
9500.954
9505.722
9510.412
9515.091
9519.845
9524.789
9530.041
9535.699
9541.754
9548.069
9554.58
9560.696
9565.834
9569.255
9570.808
9570.833
9569.802
9568.919
9569.462
9571.263
9573.628
9576.023
9578.294
9580.469
9582.571
9584.584
9586.476
9588.231
9589.847
9591.328
9592.678
9593.901
9594.999
9595.977
9596.84
9597.592
9598.238
9598.783
9599.232
9599.588
9599.857
9600.042
9600.147
9600.176
9600.132
9600.019
9599.838
9599.594
9599.289
9598.925
9598.504
9598.03
9597.504
9596.926
9596.3
9595.626
9594.908
9594.146
9593.344
9592.504
9591.63
9590.73
9589.812
9588.887
9587.968
9587.063
9586.167
9585.255
9584.284
9583.239
9582.138
9581.006
9579.853
9578.683
9577.494
9576.289
9575.069
9573.838
9572.596
9571.346
9570.089
9568.828
9567.562
9566.294
9565.024
9563.754
9562.486
9561.219
9559.955
9558.695
9557.44
9556.191
9554.948
9553.713
9552.485
9551.265
9550.053
9548.851
9547.658
9546.476
9545.304
9544.143
9542.993
9541.853
9540.725
9539.607
9538.499
9537.403
9536.317
9535.245
9534.19
9533.158
9532.166
9531.234
9530.397
9529.672
9529
9528.196
9527.315
9526.419
9525.534
9524.66
9523.783
9522.89
9521.982
9521.06
9520.129
9519.186
9518.229
9517.255
9516.26
9515.242
9514.196
9513.119
9512.004
9510.847
9509.64
9508.378
9507.053
9505.655
9504.176
9502.607
9500.936
9499.153
9497.249
9495.22
9493.075
9490.85
9488.624
9486.532
9484.769
9483.521
9482.957
9483.065
9483.533
9484.004
9484.341
9484.549
9484.653
9484.659
9484.565
9484.368
9484.073
9483.685
9483.21
9482.652
9482.016
9481.305
9480.523
9479.673
9478.757
9477.779
9476.741
9475.646
9474.496
9473.293
9472.04
9470.739
9469.393
9468.003
9466.57
9465.099
9463.584
9462.031
9460.422
9458.707
9456.779
9454.994
9453.408
9451.566
9449.472
9447.313
9445.241
9443.226
9441.239
9439.258
9437.28
9435.315
9433.366
9431.431
9429.508
9427.596
9425.697
9423.811
9421.941
9420.088
9418.256
9416.446
9414.663
9412.909
9411.188
9409.503
9407.86
9406.26
9404.71
9403.212
9401.772
9400.394
9399.082
9397.841
9396.677
9395.593
9394.597
9393.691
9392.88
9392.166
9391.547
9391.019
9390.571
9390.186
9389.844
9389.519
9389.184
9388.832
9388.503
9388.269
9388.171
9388.226
9388.439
9388.762
9389.027
9389.208
9389.539
9390.213
9391.204
9392.339
9393.584
9394.98
9396.538
9398.25
9400.12
9402.146
9404.324
9406.653
9409.132
9411.758
9414.527
9417.438
9420.486
9423.668
9426.981
9430.422
9433.988
9437.675
9441.479
9445.399
9449.429
9453.566
9457.806
9462.146
9466.58
9471.104
9475.715
9480.406
9485.174
9490.014
9494.92
9499.887
9504.909
9509.98
9515.095
9520.246
9525.427
9530.63
9535.847
9541.072
9546.295
9551.507
9556.7
9561.864
9566.988
9572.063
9577.076
9582.017
9586.874
9591.634
9596.283
9600.808
9605.195
9609.429
9613.494
9617.374
9621.053
9624.512
9627.734
9630.699
9633.388
9635.78
9637.853
9639.585
9640.952
9641.928
9642.492
9642.617
9642.285
9641.483
9640.216
9638.521
9636.474
9634.219
9631.9
9629.771
9628.063
9627.105
9626.303
6298.099
6255.499
6214.953
6171.096
6124.078
6074.132
6026.972
5980.812
5936.358
5893.991
5853.019
5816.271
5782.722
5753.96
5731.541
5715.823
5710.87
5718.195
5737.983
5767.823
5804.247
5852.628
5918.774
6004.916
6113.694
6246.03
6402.098
6581.965
6785.171
7011.046
7257.713
7521.839
7798.241
8080.115
8360.181
8629.278
8879.964
9102.926
9293.074
9446.654
9562.14
9640.166
9682.83
9697.232
9685.905
9650.923
9597.146
9529.471
9451.515
9365.9
9274.954
9180.622
9084.202
8986.783
8889.251
8792.688
8697.964
8605.356
8515.164
8427.747
8343.397
8262.09
8183.917
8109.316
8038.585
7971.846
7909.131
7850.469
7795.884
7745.474
7699.227
7657.103
7619.309
7585.991
7557.187
7532.886
7513.098
7497.81
7487.109
7480.867
7479.063
7481.383
7487.69
7498.23
7513.161
7532.377
7555.604
7582.566
7612.989
7646.716
7683.685
7723.879
7766.975
7812.571
7860.433
7910.308
7961.844
8014.647
8068.324
8122.613
8177.218
8231.85
8286.321
8340.416
8393.825
8446.266
8497.537
8547.502
8596.05
8643.076
8688.451
8732.232
8774.409
8815.107
8854.205
8891.82
8927.606
8961.924
8994.91
9026.199
9055.773
9084.031
9111.288
9137.587
9162.859
9187.083
9210.318
9232.642
9254.124
9274.805
9294.719
9313.885
9332.309
9349.957
9366.774
9382.639
9397.409
9410.918
9423.079
9434.045
9444.047
9453.157
9461.336
9468.641
9475.262
9481.401
9487.189
9492.684
9497.928
9502.965
9507.853
9512.652
9517.427
9522.247
9527.188
9532.318
9537.682
9543.261
9548.947
9554.544
9559.748
9564.187
9567.479
9569.497
9570.419
9570.748
9571.05
9571.858
9573.392
9575.417
9577.587
9579.71
9581.755
9583.73
9585.626
9587.419
9589.091
9590.636
9592.054
9593.347
9594.517
9595.567
9596.5
9597.321
9598.034
9598.644
9599.155
9599.571
9599.898
9600.138
9600.297
9600.378
9600.384
9600.32
9600.187
9599.989
9599.729
9599.409
9599.031
9598.599
9598.114
9597.579
9596.994
9596.362
9595.684
9594.963
9594.201
9593.4
9592.563
9591.696
9590.802
9589.888
9588.963
9588.031
9587.098
9586.159
9585.201
9584.203
9583.152
9582.053
9580.92
9579.764
9578.587
9577.393
9576.181
9574.955
9573.716
9572.467
9571.209
9569.943
9568.672
9567.397
9566.119
9564.839
9563.558
9562.278
9561
9559.725
9558.454
9557.187
9555.926
9554.671
9553.424
9552.184
9550.953
9549.731
9548.518
9547.315
9546.122
9544.941
9543.77
9542.611
9541.464
9540.329
9539.206
9538.096
9536.998
9535.916
9534.851
9533.807
9532.789
9531.81
9530.876
9529.999
9529.168
9528.357
9527.543
9526.714
9525.862
9524.991
9524.11
9523.222
9522.325
9521.417
9520.497
9519.565
9518.628
9517.678
9516.712
9515.726
9514.718
9513.685
9512.622
9511.525
9510.388
9509.206
9507.974
9506.686
9505.334
9503.913
9502.416
9500.838
9499.174
9497.425
9495.597
9493.71
9491.802
9489.939
9488.213
9486.739
9485.632
9484.984
9484.786
9484.872
9485.033
9485.151
9485.201
9485.183
9485.094
9484.925
9484.672
9484.335
9483.915
9483.417
9482.842
9482.192
9481.472
9480.683
9479.828
9478.909
9477.928
9476.888
9475.791
9474.638
9473.432
9472.176
9470.87
9469.516
9468.117
9466.672
9465.183
9463.645
9462.059
9460.406
9458.685
9456.931
9455.119
9453.193
9451.111
9448.993
9446.962
9445.03
9443.113
9441.193
9439.261
9437.32
9435.378
9433.44
9431.508
9429.582
9427.663
9425.754
9423.855
9421.971
9420.103
9418.255
9416.429
9414.629
9412.858
9411.119
9409.418
9407.756
9406.138
9404.568
9403.05
9401.589
9400.188
9398.852
9397.585
9396.393
9395.278
9394.245
9393.298
9392.439
9391.668
9390.985
9390.386
9389.862
9389.403
9388.996
9388.624
9388.276
9387.953
9387.678
9387.489
9387.417
9387.468
9387.63
9387.869
9388.184
9388.657
9389.305
9390.097
9391.007
9392.043
9393.225
9394.574
9396.091
9397.774
9399.62
9401.627
9403.79
9406.109
9408.58
9411.199
9413.964
9416.872
9419.919
9423.101
9426.417
9429.861
9433.432
9437.125
9440.938
9444.867
9448.908
9453.057
9457.311
9461.665
9466.115
9470.658
9475.287
9479.999
9484.789
9489.652
9494.583
9499.576
9504.626
9509.727
9514.872
9520.055
9525.27
9530.508
9535.764
9541.028
9546.292
9551.548
9556.786
9561.998
9567.172
9572.3
9577.369
9582.368
9587.285
9592.108
9596.824
9601.419
9605.879
9610.189
9614.335
9618.299
9622.067
9625.62
9628.941
9632.013
9634.816
9637.331
9639.539
9641.419
9642.953
9644.119
9644.9
9645.282
9645.256
9644.824
9644.001
9642.827
9641.362
9639.709
9637.966
9636.337
9634.885
9633.753
9632.335
6711.601
6665.071
6622.107
6579.671
6542.468
6499.201
6461.115
6422.608
6383.529
6343.125
6302.294
6260.808
6217.419
6173.424
6126.685
6074.115
6027.337
5981.382
5936.744
5893.712
5852.771
5814.68
5779.814
5748.325
5721.317
5701.163
5688.983
5688.031
5697.588
5718.264
5750.984
5798.362
5862.308
5945.813
6050.405
6177.671
6328.349
6502.47
6699.972
6920.117
7161.129
7420.132
7692.481
7972.291
8252.961
8522.608
8773.862
8998.004
9189.012
9343.304
9459.744
9539.693
9585.838
9602.2
9593.372
9562.639
9513.656
9450.607
9377.195
9296.194
9209.79
9119.758
9027.47
8933.99
8840.239
8747.071
8655.041
8564.601
8476.418
8390.966
8308.412
8228.78
8152.207
8079.022
8009.489
7943.736
7881.824
7823.818
7769.792
7719.834
7673.971
7632.26
7594.852
7561.838
7533.249
7509.106
7489.453
7474.304
7463.665
7457.428
7455.473
7457.786
7464.397
7475.302
7490.45
7509.716
7532.945
7559.98
7590.292
7624.378
7661.938
7702.621
7746.169
7792.322
7840.846
7891.466
7943.846
7997.625
8052.438
8107.941
8163.789
8219.68
8275.373
8330.638
8385.205
8438.812
8491.236
8542.311
8591.89
8639.877
8686.188
8730.829
8773.78
8815.083
8854.689
8892.64
8928.926
8963.652
8996.848
9028.398
9058.326
9086.875
9114.285
9140.65
9165.959
9190.207
9213.436
9235.711
9257.099
9277.645
9297.377
9316.305
9334.43
9351.723
9368.139
9383.608
9398.045
9411.37
9423.534
9434.592
9444.679
9453.893
9462.269
9469.855
9476.769
9483.158
9489.143
9494.799
9500.179
9505.333
9510.317
9515.19
9520.01
9524.831
9529.707
9534.677
9539.758
9544.915
9550.057
9555.03
9559.638
9563.646
9566.847
9569.167
9570.724
9571.811
9572.75
9573.886
9575.421
9577.287
9579.286
9581.28
9583.217
9585.082
9586.871
9588.566
9590.15
9591.619
9592.968
9594.198
9595.31
9596.305
9597.188
9597.962
9598.631
9599.2
9599.672
9600.051
9600.343
9600.55
9600.678
9600.73
9600.709
9600.619
9600.463
9600.243
9599.963
9599.625
9599.231
9598.784
9598.286
9597.739
9597.144
9596.503
9595.819
9595.093
9594.327
9593.524
9592.688
9591.821
9590.928
9590.014
9589.083
9588.139
9587.185
9586.216
9585.226
9584.203
9583.14
9582.038
9580.903
9579.743
9578.563
9577.364
9576.148
9574.916
9573.671
9572.415
9571.15
9569.877
9568.597
9567.313
9566.026
9564.736
9563.445
9562.155
9560.867
9559.581
9558.299
9557.021
9555.749
9554.483
9553.225
9551.974
9550.732
9549.499
9548.276
9547.063
9545.86
9544.669
9543.49
9542.323
9541.169
9540.028
9538.9
9537.787
9536.689
9535.607
9534.545
9533.506
9532.492
9531.512
9530.566
9529.66
9528.787
9527.943
9527.111
9526.268
9525.405
9524.525
9523.638
9522.747
9521.851
9520.948
9520.035
9519.107
9518.167
9517.228
9516.275
9515.302
9514.307
9513.289
9512.244
9511.167
9510.054
9508.9
9507.702
9506.454
9505.153
9503.793
9502.373
9500.89
9499.345
9497.743
9496.094
9494.42
9492.756
9491.154
9489.679
9488.405
9487.403
9486.715
9486.329
9486.158
9486.086
9486.027
9485.939
9485.809
9485.627
9485.383
9485.071
9484.688
9484.233
9483.706
9483.109
9482.443
9481.71
9480.91
9480.047
9479.121
9478.135
9477.09
9475.988
9474.83
9473.62
9472.357
9471.044
9469.682
9468.272
9466.813
9465.308
9463.752
9462.144
9460.481
9458.766
9456.994
9455.127
9453.177
9451.185
9449.202
9447.247
9445.31
9443.37
9441.423
9439.468
9437.508
9435.548
9433.59
9431.636
9429.689
9427.748
9425.818
9423.898
9421.993
9420.105
9418.235
9416.389
9414.568
9412.776
9411.016
9409.292
9407.608
9405.967
9404.373
9402.831
9401.344
9399.916
9398.551
9397.254
9396.028
9394.878
9393.806
9392.815
9391.907
9391.082
9390.341
9389.678
9389.09
9388.569
9388.107
9387.695
9387.33
9387.015
9386.764
9386.598
9386.534
9386.579
9386.732
9386.994
9387.381
9387.908
9388.558
9389.321
9390.216
9391.264
9392.469
9393.836
9395.366
9397.056
9398.905
9400.914
9403.079
9405.398
9407.869
9410.488
9413.254
9416.163
9419.213
9422.399
9425.72
9429.172
9432.751
9436.455
9440.279
9444.221
9448.277
9452.442
9456.714
9461.087
9465.558
9470.123
9474.776
9479.514
9484.331
9489.223
9494.184
9499.209
9504.292
9509.428
9514.611
9519.833
9525.089
9530.371
9535.672
9540.983
9546.298
9551.606
9556.9
9562.17
9567.405
9572.597
9577.732
9582.802
9587.792
9592.692
9597.489
9602.168
9606.716
9611.118
9615.36
9619.426
9623.299
9626.965
9630.404
9633.601
9636.538
9639.197
9641.56
9643.61
9645.33
9646.704
9647.721
9648.37
9648.651
9648.569
9648.143
9647.409
9646.411
9645.236
9643.945
9642.684
9641.423
9640.295
9638.719
6990.721
6953.784
6888.437
6819.803
6757.635
6705.202
6658.917
6616.78
6577.866
6538.753
6495.458
6457.812
6419.917
6381.262
6341.465
6300.62
6258.612
6215.156
6170.433
6125.172
6079.884
6033.678
5987.552
5942.275
5898.273
5855.552
5814.296
5775.376
5739.695
5708.282
5682.8
5665.697
5658.256
5661.278
5676.177
5704.668
5749.126
5811.11
5891.935
5993.057
6115.654
6260.535
6428.276
6619.014
6832.478
7067.279
7321.575
7589.325
7865.772
8142.842
8410.283
8659.027
8880.754
9069.4
9221.744
9337.055
9416.714
9463.74
9481.998
9475.942
9449.454
9405.991
9349.009
9281.752
9206.86
9126.434
9042.091
8955.286
8866.991
8777.928
8688.939
8600.599
8513.513
8428.361
8345.573
8265.342
8187.807
8113.156
8041.644
7973.501
7908.892
7847.936
7790.739
7737.403
7688.023
7642.679
7601.46
7564.465
7531.771
7503.44
7479.519
7460.051
7445.047
7434.49
7428.326
7426.506
7429.033
7435.88
7446.958
7462.179
7481.452
7504.707
7531.47
7562.579
7597.198
7635.189
7676.372
7720.56
7767.523
7816.99
7868.66
7922.197
7977.242
8033.421
8090.365
8147.723
8205.178
8262.44
8319.239
8375.297
8430.35
8484.165
8536.556
8587.373
8636.519
8683.917
8729.537
8773.355
8815.388
8855.634
8894.135
8930.923
8966.024
8999.475
9031.303
9061.572
9090.426
9118.023
9144.464
9169.787
9194.018
9217.203
9239.401
9260.671
9281.056
9300.583
9319.264
9337.101
9354.077
9370.164
9385.32
9399.496
9412.649
9424.758
9435.854
9446.017
9455.331
9463.854
9471.641
9478.779
9485.376
9491.536
9497.335
9502.833
9508.083
9513.139
9518.055
9522.882
9527.665
9532.442
9537.237
9542.05
9546.85
9551.565
9556.085
9560.274
9563.988
9567.11
9569.599
9571.527
9573.067
9574.436
9575.852
9577.455
9579.242
9581.119
9582.995
9584.824
9586.594
9588.29
9589.896
9591.393
9592.782
9594.058
9595.221
9596.27
9597.204
9598.03
9598.752
9599.373
9599.896
9600.324
9600.662
9600.914
9601.084
9601.177
9601.196
9601.145
9601.025
9600.842
9600.596
9600.292
9599.932
9599.518
9599.053
9598.538
9597.975
9597.366
9596.714
9596.019
9595.285
9594.512
9593.704
9592.863
9591.993
9591.096
9590.176
9589.237
9588.281
9587.308
9586.316
9585.302
9584.259
9583.184
9582.075
9580.936
9579.773
9578.588
9577.384
9576.163
9574.926
9573.676
9572.413
9571.142
9569.861
9568.575
9567.282
9565.987
9564.688
9563.389
9562.09
9560.791
9559.496
9558.203
9556.915
9555.633
9554.357
9553.088
9551.826
9550.574
9549.331
9548.097
9546.874
9545.663
9544.463
9543.275
9542.101
9540.94
9539.792
9538.66
9537.543
9536.443
9535.361
9534.299
9533.26
9532.246
9531.26
9530.304
9529.38
9528.485
9527.613
9526.752
9525.887
9525.013
9524.131
9523.246
9522.358
9521.468
9520.571
9519.667
9518.751
9517.807
9516.867
9515.932
9514.978
9514.003
9513.005
9511.983
9510.932
9509.846
9508.723
9507.561
9506.357
9505.108
9503.812
9502.468
9501.076
9499.642
9498.175
9496.682
9495.184
9493.712
9492.305
9491.01
9489.875
9488.942
9488.231
9487.733
9487.399
9487.163
9486.96
9486.753
9486.522
9486.254
9485.939
9485.568
9485.137
9484.643
9484.085
9483.462
9482.775
9482.025
9481.212
9480.336
9479.401
9478.406
9477.353
9476.243
9475.078
9473.86
9472.589
9471.267
9469.894
9468.472
9467.001
9465.48
9463.909
9462.288
9460.613
9458.884
9457.093
9455.237
9453.335
9451.407
9449.463
9447.51
9445.551
9443.587
9441.618
9439.645
9437.667
9435.689
9433.711
9431.737
9429.768
9427.806
9425.852
9423.91
9421.982
9420.07
9418.177
9416.306
9414.461
9412.643
9410.858
9409.108
9407.397
9405.729
9404.107
9402.536
9401.018
9399.559
9398.162
9396.83
9395.567
9394.377
9393.263
9392.227
9391.27
9390.393
9389.596
9388.877
9388.232
9387.657
9387.148
9386.701
9386.315
9385.994
9385.748
9385.588
9385.528
9385.575
9385.735
9386.013
9386.413
9386.935
9387.579
9388.351
9389.268
9390.338
9391.562
9392.942
9394.481
9396.177
9398.032
9400.044
9402.212
9404.533
9407.006
9409.629
9412.399
9415.313
9418.369
9421.563
9424.894
9428.356
9431.948
9435.666
9439.507
9443.466
9447.541
9451.727
9456.021
9460.418
9464.914
9469.506
9474.188
9478.956
9483.806
9488.731
9493.728
9498.791
9503.914
9509.092
9514.318
9519.587
9524.891
9530.224
9535.578
9540.945
9546.319
9551.689
9557.048
9562.386
9567.693
9572.959
9578.173
9583.324
9588.401
9593.39
9598.28
9603.057
9607.708
9612.217
9616.571
9620.754
9624.751
9628.545
9632.12
9635.46
9638.549
9641.369
9643.905
9646.141
9648.063
9649.659
9650.919
9651.837
9652.415
9652.662
9652.593
9652.241
9651.64
9650.855
9649.924
9648.946
9647.868
9646.815
9645.236
6954.595
6908.133
6826.491
6773.43
6724.334
6680.48
6640.493
6602.977
6566.764
6531.258
6496.221
6460.202
6423.363
6385.357
6346.187
6305.609
6263.59
6220.081
6175.003
6128.748
6082.645
6036.229
5989.545
5943.216
5897.306
5852.022
5807.911
5765.781
5727.112
5693.292
5665.465
5645.115
5633.859
5632.988
5644.224
5669.824
5711.312
5769.92
5846.882
5943.45
6060.652
6199.36
6360.964
6544.907
6751.793
6980.56
7228.618
7491.114
7762.209
8033.624
8295.36
8537.929
8753.488
8936.516
9084.286
9196.521
9274.973
9322.78
9343.72
9341.774
9320.66
9283.658
9233.742
9173.662
9105.816
9032.15
8954.294
8873.502
8790.618
8706.446
8621.977
8537.881
8454.674
8372.902
8293.005
8215.289
8139.992
8067.346
7997.588
7930.941
7867.597
7807.717
7751.445
7698.905
7650.213
7605.475
7564.787
7528.241
7495.924
7467.912
7444.267
7425.035
7410.235
7399.864
7393.901
7392.318