/*--------------------------------*- C++ -*----------------------------------*\
| =========                 |                                                 |
| \\      /  F ield         | foam-extend: Open Source CFD                    |
|  \\    /   O peration     | Version:     3.1                                |
|   \\  /    A nd           | Web:         http://www.extend-project.de       |
|    \\/     M anipulation  |                                                 |
\*---------------------------------------------------------------------------*/
FoamFile
{
    version     2.0;
    format      ascii;
    class       volScalarField;
    location    "10.5";
    object      p;
}
// * * * * * * * * * * * * * * * * * * * * * * * * * * * * * * * * * * * * * //

dimensions      [1 -1 -2 0 0 0 0];

internalField   nonuniform List<scalar> 
119952
(
6927.149
6871.916
6999.81
6992.925
7057.469
7068.532
7102.877
7126.363
7154.594
7192.795
7213.157
7238.843
7264.124
7289.878
7328.046
7396.419
7399.627
7469.163
7488.455
7567.216
7560.168
7557.088
7595.86
7622.302
7620.417
7641.323
7677.737
7734.26
7814.974
7823.626
6151.383
6097.619
6087.129
6144.522
6146.321
6163.735
6170.378
6193.311
6209.292
6221.665
6193.776
6178.563
6143.967
6069.084
5940.562
5761.332
5559.907
5388.533
5396.213
5205.337
5087.022
5068.347
5096.474
5155.206
5244.998
5396.225
5477.327
5623.298
5744.832
5920.305
6065.142
6172.205
6258.941
6334.206
6407.124
6469.259
6531.441
6586.011
6623.27
6666.055
6696.612
6739.496
6773.197
6801.181
6830.101
6863.508
6896.175
6928.946
6949.765
6974.391
7000.351
7030.125
7065.832
7103.586
7141.17
7180.455
7214.216
7249.008
7276.697
7294.538
7313.186
7334.63
7344.286
7348.745
7363.096
7426.301
7464.316
7420.944
7390.863
7335.523
7229.092
7106.462
6976.75
6825.14
6664.141
6510.415
6371.515
6234.818
6099.473
5971.165
5856.479
5761.411
5685.079
5601.693
5524.514
5460.88
5412.186
5382.596
5381.297
5397.313
5428.319
5478.254
5547.568
5635.083
5740.28
5857.127
5982.696
6113.211
6247.899
6387.72
6529.015
6656.863
6768.052
6871.962
6965.732
7044.941
7108.999
7151.275
7194.403
7227.306
7244.189
7262.848
7273.494
7274.875
7260.688
7248.964
7247.852
7233.046
7226.462
7204.216
7182.191
7158.186
7141.443
7137.621
7143.163
7147.018
7156.387
7161.747
7173.163
7181.993
7198.465
7220.227
7233.453
7256.132
7278.339
7298.04
7308.541
7305.805
7295.292
7324.044
7350.582
7371.556
7388.27
7400.216
7404.47
7405.844
7407.265
7419.256
7431.053
7449.105
7466.425
7479.232
7489.053
7496.745
7504.97
7511.644
7507.598
7505.427
7490.903
7469.149
7438.209
7397.722
7365.677
7333.023
7325.88
7326.4
7316.733
7347.088
7382.375
7386.811
7391.695
7395.305
7395.588
7418.422
7428.11
7433.397
7436.619
7442.44
7447.619
7448.5
7453.317
7453.077
7452.07
7457.281
7457.807
7456.833
7458.274
7451.137
7448.922
7443.414
7445.543
7443.676
7442.89
7443.954
7445.034
7446.288
7444.036
7441.819
7439.823
7438.33
7439.633
7441.547
7437.708
7444.087
7447.11
7444.955
7447.008
7446.291
7448.003
7454.262
7457.632
7460.465
7464.586
7468.72
7473.054
7480.588
7484.647
7491.786
7504.498
7519.499
7519.811
7522.108
7530.467
7537.246
7543.913
7554.193
7562.579
7565.028
7578.526
7586.353
7595.085
7600.755
7607.599
7619.906
7620.422
7665.522
7656.397
7593.574
7618.312
7622.65
7630.073
7636.348
7640.097
7642.69
7641.332
7641.547
7645.47
7648.814
7647.584
7647.351
7647.145
7648.617
7650.59
7647.319
7629.84
7603.382
7580.397
7568.782
7556.901
7562.924
7575.931
7589.348
7596.884
7600.968
7606.058
7609.04
7611.079
7612.079
7612.446
7613.516
7613.63
7606.14
7601.8
7595.946
7591.816
7587.329
7581.461
7576.409
7572.02
7567.601
7563.815
7559.525
7554.271
7545.874
7538.424
7528.745
7518.687
7519.859
7525.871
7531.095
7533.602
7520.926
7526.926
7528.985
7536.138
7538.709
7534.784
7537.959
7534.453
7532.667
7530.557
7520.37
7492.808
7458.239
7453.382
7469.798
7496.088
7514.179
7535.604
7549.555
7555.321
7560.353
7564.354
7566.724
7568.419
7565.841
7560.433
7533.316
7506.422
7508.941
7532.258
7545.451
7556.442
7562.994
7567.377
7568.041
7567.944
7568.788
7567.031
7561.883
7560.311
7558.07
7553.757
7547.274
7532.044
7490.656
7465.867
7505.954
7543.145
7557.521
7567.154
7565.801
7558.134
7558.74
7557.002
7554.971
7553.117
7552.016
7551.415
7553.193
7544.312
7545.467
7539.649
7529.674
7516.827
7513.222
7530.325
7545.923
7557.198
7561.439
7561.668
7567.226
7568.524
7568.058
7569.154
7570.521
7572.983
7575.952
7579.511
7584.043
7588.673
7593.615
7597.78
7588.425
7567.988
7552.76
5159.48
5099.757
4967.325
4939.983
4965.092
5026.545
5083.166
5163.448
5216.99
5290.441
5398.152
5435.641
5475.434
5491.198
5502.005
5508.606
5507.033
5536.957
5544.674
5523.145
5506.947
5497.418
5493.436
5486.887
5486.696
5490.213
5497.002
5520.911
5514.75
5532.658
5572.59
5618.219
5646.345
5652.495
5682.593
5723.315
5756.904
5811.437
5825.396
5846.662
5863.493
5882.371
5880.329
5889.54
5910.629
5926.139
5926.169
5914.853
5899.466
5847.996
5760.851
5582.862
5361.402
5157.423
4989.728
4868.539
4724.825
4703.333
4718.86
4768.51
4838.595
4933.172
5048.907
5177.874
5321.29
5484.285
5642.15
5775.658
5884.719
5971.269
6049.77
6122.295
6179.933
6235.267
6279.421
6312.321
6351.809
6392.041
6430.054
6465.039
6494.103
6523.415
6555.332
6588.253
6617.399
6642.046
6664.103
6688.811
6721.964
6763.039
6805.15
6848.331
6890.103
6927.219
6958.077
6982.831
7002.305
7014.231
7023.41
7021.029
6998.11
6980.37
7004.855
7053.711
7089.675
7070.099
6978.115
6854.65
6710.348
6559.851
6409.07
6260.547
6116.344
5978.842
5851.788
5732.507
5619.777
5511.082
5403.512
5308.561
5227.963
5158.931
5101.785
5059.705
5036.374
5033.714
5051.148
5090.296
5149.736
5226.367
5319.978
5429.998
5551.137
5681.671
5819.731
5959.158
6099.121
6236.288
6364.366
6482.815
6587.568
6678.883
6757.15
6823.15
6878.329
6916.712
6942.706
6962.197
6972.88
6979.094
6980.226
6975.7
6967.42
6952.583
6930.679
6909.783
6886.313
6860.215
6832.83
6816.084
6819.769
6829.109
6835.115
6841.153
6848.251
6859.332
6873.355
6888.576
6904.459
6920.907
6939.279
6957.727
6975.268
6989.741
6997.414
7012.696
7031.918
7052.677
7071.719
7092.353
7102.127
7098.254
7100.856
7100.249
7108.571
7125.941
7148.223
7168.051
7181.932
7189.394
7194.139
7199.82
7203.254
7205.518
7201.397
7187.029
7158.144
7108.209
7048.024
7005.161
6967.714
6996.94
7058.696
7007.031
7078.8
7084.49
7101.169
7120.195
7124.864
7131.063
7143.118
7153.708
7160.474
7164.983
7169.816
7172.725
7175.124
7178.46
7179.486
7181.348
7182.467
7183.075
7181.511
7174.873
7171.751
7165.262
7165.99
7165.656
7167.495
7169.963
7169.407
7168.605
7169.709
7167.438
7164.974
7163.482
7162.847
7163.675
7164.89
7165.505
7169.024
7171.061
7169.937
7168.366
7169.848
7173.839
7178.673
7182.956
7185.443
7189.419
7195.424
7201.339
7206.484
7212.569
7219.897
7227.884
7236.492
7238.364
7246.689
7255.288
7262.962
7270.762
7279.407
7288.053
7296.181
7303.9
7311.78
7319.21
7326.288
7334.521
7348.804
7365.296
7372.124
7371.698
7296.426
7309.668
7321.651
7327.396
7331.42
7334.192
7336.377
7337.999
7339.075
7339.832
7341.257
7341.963
7340.251
7339.466
7343.655
7347.437
7339.089
7317.479
7287.81
7258.368
7241.999
7242.733
7258.658
7274.661
7286.328
7292.614
7296.44
7299.817
7303.099
7305.655
7305.814
7304.842
7303.61
7299.847
7295.854
7292.812
7287.946
7282.616
7277.753
7272.787
7267.622
7262.652
7258.326
7254.751
7251.173
7246.008
7237.824
7227.254
7216.823
7210.163
7213.479
7219.305
7222.09
7222.242
7221.779
7220.926
7222.117
7225.933
7228.593
7230.054
7230.274
7228.882
7229.449
7222.525
7203.612
7172.499
7147.065
7143.716
7162.382
7186.462
7207.862
7221.724
7230.772
7242.567
7255.314
7262.201
7263.157
7260.768
7253.803
7247.345
7233.347
7217.922
7213.863
7223.799
7236.001
7244.264
7246.763
7253.356
7257.095
7256.679
7257.133
7258.738
7257.389
7253.465
7249.645
7244.549
7237.692
7224.778
7200.755
7188.487
7211.14
7234.432
7244.791
7249.681
7251.457
7250.921
7248.89
7245.711
7246.484
7247.666
7245.831
7243.454
7241.806
7239.935
7236.461
7230.645
7222.087
7216.489
7218.186
7229.416
7239.604
7246.384
7250.929
7253.988
7256.741
7259.178
7261.174
7262.613
7264.147
7266.162
7268.601
7271.5
7274.403
7276.921
7278.522
7278.106
7275.567
7270.6
7267.871
4089.859
4113.546
4083.258
4012.413
4051.703
4008.956
4033.585
4035.737
4031.21
3913.462
4175.288
4183.9
4236.955
4293.148
4344.795
4457.415
4583.966
4739.763
4854.331
5032.117
5213.848
5379.404
5538.281
5702.565
5856.791
6008.656
6105.178
6189.508
6264.563
6267.921
6222.545
6135.148
5987.319
5813.879
5606.884
5370.877
5133.706
4926.423
4779.089
4667.012
4612.706
4614.309
4654.907
4722.203
4797.829
4884.138
4986.27
5073.997
5136.901
5185.64
5216.423
5227.877
5232.088
5233.932
5236.562
5260.378
5210.123
5209.127
5198.839
5184.919
5173.712
5168.3
5164.76
5165.27
5173.905
5160.133
5151.599
5190.644
5253.035
5293.843
5301.043
5312.265
5340.174
5382.791
5435.052
5488.941
5530.639
5556.239
5571.919
5575.966
5564.929
5569.491
5603.966
5634.587
5646.023
5630.102
5578.196
5461.261
5270.061
5021.875
4802.036
4612.947
4486.527
4424.493
4402.088
4396.399
4414.707
4461.912
4531.533
4629.728
4763.454
4910.44
5065.586
5226.264
5386.655
5520.171
5631.329
5719.766
5793.53
5856.053
5909.25
5959.421
6005.832
6047.016
6091.781
6134.882
6173.514
6209.098
6239.862
6266.808
6296.057
6326.56
6357.255
6386.399
6413.527
6441.021
6474.967
6516.028
6560.065
6604.792
6649.681
6690.539
6717.704
6748.643
6768.742
6778.956
6787.689
6778.674
6742.819
6692.506
6701.31
6748.708
6777.514
6737.65
6639.47
6511.378
6371.588
6225.257
6076.876
5933.533
5796.782
5668.301
5549.073
5435.27
5326.112
5221.444
5118.826
5022.915
4936.505
4862.82
4804.227
4762.862
4740.825
4739.17
4757.689
4798.105
4858.244
4936.638
5032.731
5144.981
5268.651
5401.113
5543.178
5689.48
5834.585
5977.052
6109.582
6231.694
6341.588
6435.224
6516.515
6586.585
6645.455
6689.84
6719.977
6740.227
6752.064
6756.266
6755.53
6746.843
6728.729
6711.241
6693.021
6672.361
6649.874
6623.555
6597.715
6578.39
6573.197
6578.172
6580.696
6582.963
6590.051
6601.328
6618.463
6633.849
6648.477
6664.176
6680.824
6697.972
6716.441
6735.274
6753.61
6774.458
6796.017
6814.907
6835.36
6854.482
6867.09
6874.7
6875.84
6868.783
6872.213
6881.735
6896.779
6911.873
6920.441
6930.357
6940.003
6951.167
6969.074
6973.088
6969.024
6950.397
6918.421
6856.098
6759.549
6727.674
6755.209
6772.994
6779.512
6777.029
6766.747
6769.94
6797.64
6825.365
6819.225
6824.99
6839.581
6848.656
6854.036
6858.373
6862.776
6866.24
6868.945
6872.127
6873.925
6874.942
6875.177
6875.181
6873.196
6868.965
6865.333
6862.043
6860.113
6860.014
6861.367
6861.711
6861.883
6861.623
6860.813
6859.451
6857.796
6856.993
6857.043
6857.378
6858.011
6859.633
6859.452
6862.022
6864.623
6864.183
6865.252
6868.379
6872.134
6875.993
6879.403
6883.658
6889.278
6894.833
6900.713
6906.703
6913.188
6920.039
6926.963
6934.07
6941.13
6948.607
6956.778
6965.159
6973.693
6982.497
6991.124
6999.413
7007.397
7015.57
7023.684
7032.874
7043.173
7053.93
7062.986
7068.695
7072.422
7073.473
7075.972
7079.497
7081.97
7084.767
7087.312
7089.369
7090.71
7093.038
7095.979
7097.412
7097.111
7095.416
7095.285
7097.461
7091.012
7074.02
7049.945
7020.995
7002.565
7004.095
7016.063
7028.469
7038.452
7045.728
7050.585
7053.661
7055.315
7055.984
7055.932
7055.218
7054.083
7052.58
7049.534
7045.236
7040.912
7036.692
7032.269
7027.723
7023.235
7018.647
7014.052
7009.397
7004.156
6998.097
6991.234
6983.516
6975.24
6970.459
6970.453
6973.594
6974.498
6974.017
6974.964
6977.626
6980.857
6984.33
6986.069
6986.085
6983.65
6978.335
6972.22
6965.21
6953.079
6937.411
6925.895
6925.651
6938.883
6957.313
6974.408
6986.211
6995.588
7004.006
7008.007
7008.289
7009.149
7005.895
6999.694
6996.054
6988.404
6979.504
6981.445
6991.046
6998.971
7006.489
7010.792
7011.876
7011.967
7012.775
7011.167
7008.418
7007.428
7005.274
7001.14
6995.986
6989.007
6976.626
6967.314
6965.475
6981.582
6996.588
7003.939
7006.716
7006.002
7004.091
7002.383
7001.65
7000.326
6998.34
6996.357
6994.68
6993.647
6992.823
6991.334
6986.757
6980.692
6979.607
6982.091
6989.377
6996.72
7002.583
7007.102
7009.974
7011.686
7012.949
7014.393
7016.014
7017.817
7019.936
7022.214
7024.47
7026.543
7028.049
7028.865
7028.471
7026.679
7023.113
7020.234
2878.6
2881.315
2759.7
3167.684
3247.975
3388.041
3402.872
3502.816
3582.949
3610.204
3626.003
3643.88
3646.053
3673.611
3693.396
3703.428
3705.705
3696.585
3693.726
3732.497
3794.779
3828.171
3856.531
3888.329
3966.131
3982.973
4044.345
4148.574
4285.88
4424.182
4593.574
4698.152
4891.005
5078.356
5261.293
5431.225
5592.644
5738.213
5845.055
5912.776
5967.77
5957.456
5891.968
5771.286
5628.282
5467.87
5231.352
4946.108
4654.486
4423.23
4261.441
4169.704
4146.545
4190.159
4277.506
4392.99
4519.11
4626.217
4726.31
4814.801
4879.407
4922.568
4943.492
4938.486
4924.345
4926.631
4936.078
4953.94
4963.628
4959.592
4948.382
4931.779
4913.764
4895.323
4884.358
4881.229
4876.282
4858.291
4838.993
4892.372
4976.523
5006.643
5012.096
5031.107
5070.084
5123.572
5189.04
5252.007
5293.732
5311.859
5327.802
5344.042
5348.7
5355.173
5394.114
5435.594
5441.626
5420.535
5330.021
5157.334
4895.892
4610.655
4388.268
4227.485
4125.247
4077.959
4070.858
4079.45
4103.216
4153.079
4225.003
4317.897
4439.488
4600.965
4772.511
4946.397
5123.036
5262.042
5373.374
5460.369
5526.684
5579.525
5624.51
5666.507
5711.607
5761.697
5813.484
5862.157
5904.664
5941.379
5970.033
5991.429
6015.368
6047.809
6082.16
6116.025
6150.366
6184.754
6219.609
6258.386
6306.538
6358.553
6408.978
6456.567
6489.065
6517.83
6541.373
6554.001
6558.025
6546.834
6509.994
6450.645
6433.68
6444.833
6433.845
6372.268
6269.196
6146.706
6014.171
5874.705
5734.875
5599.688
5470.792
5349.276
5236.803
5127.45
5020.849
4918.828
4817.997
4721.841
4633.553
4556.348
4495.163
4451.394
4427.323
4424.667
4444.196
4487.687
4553.406
4637.319
4737.587
4853.671
4982.125
5118.767
5264.584
5416.877
5568.695
5717.402
5857.54
5985.072
6098.339
6193.93
6276.316
6347.348
6407.069
6453.234
6487.326
6512.011
6527.617
6534.606
6535.661
6530.603
6519.632
6499.463
6474.349
6442.768
6409.458
6383.81
6366.597
6351.586
6338.562
6333.482
6329.849
6329.263
6331.869
6341.667
6365.763
6384.631
6394.329
6407.572
6424.234
6441.472
6460.283
6481.505
6503.863
6527.458
6552.206
6578.664
6601.181
6627.53
6635.058
6648.394
6652.777
6644.216
6647.066
6654.94
6662.353
6670.76
6679.627
6686.323
6694.597
6701.451
6711.626
6724.124
6713.128
6694.986
6668.284
6614.155
6553.767
6528.545
6539.623
6512.942
6503.574
6532.112
6512.434
6507.896
6540.262
6556.748
6572.21
6586.327
6598.03
6604.594
6608.739
6611.693
6614.091
6617.581
6621.473
6624.687
6626.854
6628.024
6628.508
6628.766
6627.943
6624.21
6619.921
6615.159
6609.37
6612.955
6619.326
6616.397
6615.242
6614.757
6613.719
6612.344
6611.425
6610.703
6610.272
6610.824
6613.233
6614.911
6615.044
6614.466
6613.599
6613.64
6615.592
6619.415
6623.974
6628.526
6632.614
6636.424
6640.599
6646.132
6652.471
6658.995
6665.54
6672.044
6678.805
6685.94
6693.13
6700.737
6708.962
6717.611
6726.592
6735.665
6744.633
6753.235
6761.695
6770.283
6778.624
6787.176
6796.16
6805.12
6812.494
6817.845
6821.149
6824.377
6828.533
6833.935
6838.531
6842.141
6844.719
6846.143
6847.384
6848.842
6849.353
6849.141
6849.418
6847.949
6844.198
6838.716
6835.081
6826
6809.47
6790.823
6778.873
6778.999
6785.027
6792.488
6798.946
6804.005
6807.719
6810.238
6811.774
6812.577
6812.531
6811.262
6808.72
6805.7
6802.288
6798.321
6793.877
6788.991
6784.222
6779.644
6774.847
6769.912
6765.225
6760.236
6755.31
6750.028
6744.095
6737.891
6732.143
6728.236
6727.441
6728.855
6729.09
6729.242
6731.038
6732.15
6731.403
6731.68
6733.198
6734.395
6734.844
6732.181
6728.608
6723.994
6716.564
6706.961
6698.841
6696.986
6703.545
6714.299
6725.563
6738.18
6751.331
6756.745
6755.736
6752.588
6753.873
6758.353
6762.132
6759.07
6752.231
6745.898
6745.179
6750.729
6753.074
6756.043
6758.179
6758.18
6759.532
6762.605
6760.895
6758.227
6756.802
6755.815
6753.345
6749.855
6746.405
6741.665
6735.491
6732.127
6737.018
6744.571
6748.964
6750.948
6752.286
6753.349
6754.075
6755.447
6753.553
6749.789
6748.593
6748.549
6748.466
6747.594
6745.64
6742.804
6740.101
6739.339
6740.907
6745.001
6749.817
6754.033
6757.561
6760.435
6762.888
6765.08
6767.106
6768.997
6770.878
6772.702
6774.584
6776.455
6778.245
6779.763
6780.623
6780.871
6780.497
6779.427
6779.359
2688.174
2690.886
2700.245
2604.49
2570.65
2483.731
2469.606
2459.104
2455.337
2478.274
2464.044
2546.473
2632.306
2714.658
2858.417
2977.656
3072.041
3121.493
3186.192
3247.641
3285.621
3318.625
3343.075
3365.176
3388.474
3383.646
3377.146
3367.939
3370.394
3374.652
3404.429
3459.151
3485.841
3513.845
3551.28
3577.521
3605.822
3668.438
3770.678
3907.989
4063.442
4219.149
4375.05
4550.063
4739.621
4936.505
5134.832
5313.462
5459.079
5590.153
5710.02
5799.415
5764.287
5657.048
5509.813
5361.837
5162.098
4885.802
4547.676
4214.927
3948.04
3779.916
3699.025
3708.19
3800.892
3939.987
4096.743
4256.764
4390.764
4505.163
4602.701
4677.722
4724.994
4737.169
4713.338
4669.754
4655.378
4675.724
4709.277
4734.739
4730.318
4709.329
4684.476
4657.871
4632.854
4610.889
4598.982
4578.205
4559.142
4547.31
4584.82
4671.33
4703.216
4717.131
4753.53
4808.372
4872.998
4951.821
5024.273
5063.257
5073.124
5089.367
5113.266
5131.596
5150.579
5190.855
5223.422
5228.092
5194.022
5067.798
4847.147
4549.747
4240.544
4014.683
3866.039
3779.825
3744.191
3746.307
3767.052
3795.255
3839.489
3906.059
3996.032
4121.433
4282.341
4481.688
4664.34
4855.142
5007.15
5120.482
5200.694
5257.014
5297.354
5329.329
5360.116
5400.326
5455.955
5517.039
5575.325
5623.256
5661.76
5692.074
5717.476
5740.378
5764.713
5797.474
5833.596
5875.074
5915.809
5957.939
6007.041
6057.379
6113.444
6171.472
6218.985
6257.498
6285.716
6310.456
6334.911
6348.496
6338.887
6300.478
6242.615
6195.411
6159.72
6100.241
6013.598
5905.805
5786.493
5658.147
5522.539
5385.687
5254.961
5132.149
5016.996
4912.487
4814.36
4714.889
4614.573
4513.42
4415.483
4324.383
4245.186
4181.774
4135.21
4109.65
4108.703
4132.99
4183.541
4256.865
4347.195
4451.698
4570.436
4701.141
4839.171
4987.247
5143.789
5303.012
5459.341
5607.681
5741.41
5857.234
5954.843
6038.022
6108.615
6167.941
6215.636
6251.976
6278.794
6295.997
6304.004
6306.313
6302.844
6291.831
6272.537
6240.878
6192.879
6156.121
6136.417
6120.866
6101.044
6089.43
6082.895
6072.826
6067.257
6073.929
6087.532
6109.021
6128
6135.227
6148.102
6164.641
6182.774
6202.753
6226.128
6252.912
6277.325
6304.522
6329.301
6351.957
6375.342
6387.659
6406.481
6420.499
6418.331
6417.975
6422.395
6422.528
6424.425
6428.298
6431.767
6430.676
6436.979
6454.589
6462.128
6462.706
6451.231
6419.968
6373.619
6338.051
6302.669
6281.572
6269.124
6265.475
6277.047
6274.847
6281.037
6286.485
6287.203
6305.102
6325.687
6346.382
6363.086
6371.246
6370.155
6371.02
6374.438
6377.756
6380.266
6381.667
6381.874
6381.453
6381.23
6380.181
6377.427
6375.398
6373.642
6371.871
6369.103
6366.946
6366.824
6368.229
6368.215
6366.731
6365.808
6365.285
6364.833
6364.982
6365.527
6366.817
6368.676
6370.525
6368.837
6366.839
6370.739
6373.697
6375.668
6378.828
6382.463
6386.076
6389.455
6392.941
6398.383
6404.642
6411.124
6417.35
6423.628
6430.336
6437.485
6444.897
6452.459
6460.717
6469.577
6478.79
6488.118
6497.377
6506.373
6515.018
6523.582
6532.21
6540.879
6549.692
6558.241
6566.319
6573.36
6578.999
6583.489
6587.371
6591.399
6595.363
6597.852
6600.37
6602.755
6603.973
6604.801
6605.761
6606.039
6605.274
6603.149
6599.907
6595.553
6588.119
6577.343
6564.381
6551.856
6543.899
6543.635
6548.38
6552.747
6556.352
6559.438
6562.107
6564.098
6565.106
6565.137
6564.217
6562.502
6560.124
6557.297
6554.046
6550.193
6545.962
6541.6
6536.976
6532.203
6527.405
6522.724
6518.071
6513.226
6508.326
6503.255
6498.255
6493.189
6488.57
6485.23
6483.854
6483.818
6483.23
6482.75
6483.102
6484.742
6485.233
6484.421
6485.88
6486.098
6485.929
6484.857
6481.761
6477.892
6473.438
6468.44
6464.214
6464.819
6469.977
6478.241
6486.152
6495.396
6504.711
6505.431
6503.943
6507.117
6510.846
6512.842
6513.632
6511.412
6506.736
6503.85
6502.777
6505.884
6507.969
6512.163
6515.485
6514.933
6514.871
6515.402
6514.139
6512.119
6509.254
6506.72
6505.526
6503.593
6500.267
6496.027
6492.414
6491.233
6495.149
6501.412
6505.36
6507.338
6508.734
6509.166
6508.813
6507.8
6505.874
6503.737
6502.778
6502.999
6502.855
6501.998
6500.634
6498.83
6497.237
6496.949
6498.384
6501.438
6505.18
6508.62
6511.94
6514.921
6517.311
6519.223
6520.956
6522.759
6524.63
6526.524
6528.329
6529.987
6531.437
6532.609
6533.617
6534.358
6534.692
6534.521
6534.992
2365.228
2363.577
2367.239
2404.446
2423.987
2427.357
2456.765
2468.029
2466.527
2464.444
2448.061
2423.78
2386.523
2338.343
2298.147
2155.438
2125.041
2088.958
2058.471
2036.921
2069.935
2154.315
2251.502
2372.708
2555.87
2793.402
2853.71
2812.49
2975.473
3058.629
3101.36
3125.002
3141.888
3152.074
3160.821
3162.636
3135.894
3087.728
3083.118
3097.314
3114.172
3135.207
3154.974
3188.178
3227.038
3245.44
3256.577
3304.723
3397.754
3534.701
3689.655
3845.099
4006.264
4179.213
4364.054
4548.946
4740.015
4939.272
5100.63
5228.395
5330.248
5405.813
5452.725
5401.945
5209.769
5013.741
4785.817
4457.722
4082.095
3680.074
3369.784
3221.424
3192.574
3273.419
3429.39
3603.541
3796.668
3994.463
4163.416
4299.947
4414.352
4503.132
4548.209
4545.58
4502.258
4437.486
4411.922
4436.78
4472.737
4490.73
4479.551
4462.2
4431.163
4396.497
4361.011
4331.424
4310.164
4291.128
4274.399
4281.176
4302.127
4350.764
4393.67
4425.399
4480.407
4550.49
4628.148
4711.993
4786.591
4823.955
4832.067
4849.473
4879.905
4908.228
4929.419
4952.416
4983.688
4999.812
4953.29
4799.144
4546.688
4244.945
3909.521
3682.809
3533.64
3446.554
3416.405
3426.806
3455.236
3484.49
3521.888
3578.745
3665.831
3793.685
3958.915
4164.907
4366.428
4563.07
4734.751
4864.014
4947.566
4990.706
5014.012
5030.663
5042.781
5070.48
5131.006
5203.767
5269.681
5322.263
5360.856
5389.916
5411.904
5433.263
5455.888
5487.757
5528.952
5577.047
5624.073
5674.091
5730.17
5788.463
5855.473
5927.058
5979.223
6020.176
6050.949
6081.262
6110.263
6124.432
6118.591
6089.267
6036.184
5966.528
5885.895
5785.06
5677.386
5563.497
5440.872
5307.45
5165.389
5024.096
4895.576
4782.358
4683.17
4591.545
4503.326
4410.087
4310.941
4209.25
4109.88
4017.174
3936.739
3873.256
3826.553
3804.225
3809.357
3838.601
3892.446
3969.732
4063.658
4171.63
4290.652
4419.216
4556.467
4704.521
4864.317
5030.86
5196.843
5354.118
5495.975
5616.052
5714.411
5798.2
5869.816
5929.613
5978.533
6016.659
6045.425
6064.495
6071.311
6074.502
6068.332
6052.299
6029.443
6001.235
5964.465
5915.983
5875.513
5871.625
5867.114
5839.059
5837.136
5832.044
5816.269
5821.945
5833.579
5842.886
5861.852
5876.145
5889.801
5905.966
5924.057
5945.663
5969.371
5995.84
6021.746
6046.933
6073.009
6096.803
6115.931
6123.519
6137.435
6154.908
6161.083
6165.426
6170.118
6169.909
6171.607
6175.373
6172.27
6173.769
6194.38
6196.544
6191.762
6201.618
6194.066
6161.06
6121.36
6086.827
6053.441
6027.342
6020.245
6029.453
6055.635
6078.816
6075.764
6063.234
6059.639
6060.252
6066.82
6084.95
6099.035
6109.686
6121.614
6130.33
6131.582
6131.605
6132.583
6133.449
6133.73
6133.807
6134.139
6133.67
6132.902
6131.108
6129.446
6130.083
6124.036
6116.19
6116.863
6117.4
6116.274
6117.598
6120.648
6119.959
6117.045
6113.567
6119.284
6127.754
6125.752
6122.266
6120.698
6119.411
6116.331
6119.531
6129.254
6136.681
6139.205
6140.809
6143.189
6146.786
6151.754
6157.311
6162.691
6168.074
6174.177
6180.724
6187.957
6195.369
6203.086
6211.803
6220.789
6230.125
6239.763
6249.308
6258.4
6267.193
6276.079
6285.134
6294.108
6302.858
6311.221
6318.886
6325.552
6331.363
6336.286
6340.449
6344.421
6348.261
6351.634
6354.165
6356.622
6358.277
6359.598
6360.729
6361.445
6360.475
6358.719
6357.361
6355.451
6348.132
6335.379
6321.59
6312.654
6309.612
6309.602
6311.272
6313.721
6316.41
6318.616
6320.198
6321.206
6321.744
6321.53
6320.436
6318.541
6315.732
6312.263
6308.303
6303.875
6299.281
6294.548
6289.561
6284.611
6279.834
6275.07
6270.198
6265.235
6260.521
6255.827
6251.107
6246.761
6243.062
6240.432
6238.894
6238.773
6238.393
6237.113
6236.698
6238.385
6238.99
6236.562
6236.463
6237.572
6236.686
6235.685
6233.565
6231.693
6230.517
6230.058
6229.822
6229.294
6231.008
6236.772
6245.005
6251.544
6256.187
6257.144
6257.977
6262.247
6264.933
6265.827
6266.66
6265.48
6263.215
6261.67
6261.058
6263.157
6265.15
6268.735
6270.826
6269.821
6268.991
6268.5
6267.238
6265.153
6262.104
6259.737
6258.526
6256.497
6254.267
6252.42
6250.586
6249.741
6251.019
6253.96
6255.849
6256.441
6256.656
6257.73
6259.244
6259.546
6258.474
6257.391
6256.702
6255.496
6254.916
6254.602
6254.31
6254.02
6253.465
6253.313
6254.328
6256.613
6259.181
6261.834
6265.073
6267.799
6269.912
6271.719
6273.473
6275.29
6277.079
6278.854
6280.498
6282.019
6283.498
6284.856
6285.979
6286.834
6287.538
6288.221
6289.596
2186.524
2150.361
2129.653
2108.147
2086.455
2078.583
2080.715
2101.143
2125.073
2148.829
2119.996
2146.097
2158.259
2165.517
2161.871
2149.395
2131.386
2108.804
1996.676
1927.696
1864.341
1802.983
1747.33
1687.403
1640.321
1685.977
1799.579
1929.006
2081.458
2223.5
2372.414
2531.552
2640.225
2737.285
2830.258
2892.638
2930.115
2947.422
2953.285
2946.749
2941.984
2908.175
2832.29
2790.436
2797.407
2816.421
2826.087
2841.317
2867.828
2896.44
2911.83
2917.007
2943.198
3017.891
3140.693
3280.629
3418.786
3573.444
3737.193
3918.127
4093.064
4259.917
4422.951
4614.13
4777.337
4903.673
4961.116
4973.156
4965.603
4845.525
4638.5
4357.065
3990.562
3581.96
3152.948
2861.695
2751.634
2776.079
2893.903
3075.136
3301.771
3541.997
3762.842
3933.349
4086.667
4222.575
4326.241
4380.628
4369.046
4313.697
4232.379
4199.054
4214.782
4251.025
4263.631
4239.296
4216.113
4180.828
4134.393
4089.042
4049.234
4012.908
3989.115
3984.146
4005.069
4010.425
4019.21
4069.643
4121.457
4186.874
4272.012
4365.434
4458.806
4540.399
4581.158
4600.426
4628.544
4658.038
4685.122
4703.378
4716.155
4729.881
4735.262
4687.804
4528.615
4270.45
3958.229
3629.732
3393.712
3232.514
3141.738
3111.126
3127.43
3165.035
3202.699
3237.862
3281.111
3350.441
3466.23
3635.084
3837.807
4049.616
4257.08
4445.573
4599.989
4704.977
4753.491
4760.253
4744.395
4718.255
4726.6
4787.556
4873.411
4951.696
5005.034
5036.206
5059.496
5081.825
5104.092
5125.482
5155.63
5202.654
5255.662
5311.839
5374.919
5447.015
5525.596
5600.636
5669.243
5728.975
5779.703
5810.604
5838.767
5870.08
5886.66
5884.115
5861.739
5809.932
5723.607
5611.396
5482.802
5357.502
5232.97
5099.357
4951.98
4802.309
4663.827
4545.306
4446.095
4360.786
4279.751
4199.002
4112.174
4015.953
3913.99
3813.11
3718.418
3633.422
3564.978
3515.274
3490.862
3496.539
3531.251
3592.682
3676.666
3777.418
3888.397
4008.188
4134.162
4266.853
4412.613
4574.375
4748.19
4924.374
5094.038
5246.682
5374.666
5473.995
5554.395
5621.535
5677.308
5724.989
5766.859
5800.389
5826.9
5843.279
5844.51
5827.369
5801.043
5776.027
5752.621
5726.769
5676.494
5622.671
5603.355
5596.81
5578.556
5572.106
5570.102
5558.021
5579.189
5570.932
5573.188
5608.359
5618.088
5630.499
5644.872
5663.302
5686.414
5711.04
5733.431
5759.25
5779.113
5807.47
5833.572
5854.935
5869.3
5884.141
5898.859
5906.164
5912.022
5915.132
5914.357
5912.43
5915.766
5916.135
5915.716
5923.805
5926.19
5924.105
5925.892
5919.078
5898.608
5873.117
5847.867
5826.319
5810.635
5803.217
5809.706
5819.713
5831.172
5833.787
5827.021
5827.425
5832.03
5837.652
5844.58
5847.424
5853.712
5863.951
5877.341
5888.947
5890.747
5888.427
5886.619
5885.96
5886.621
5888.077
5887.379
5884.886
5882.316
5880.491
5879.055
5877.123
5874.915
5873.422
5872.413
5870.352
5869.831
5872.187
5873.359
5871.67
5870.309
5870.69
5871.553
5875.455
5878.662
5878.026
5878.906
5882.98
5884.412
5884.791
5889.255
5893.051
5894.839
5896.891
5900.008
5904.818
5910.429
5915.641
5920.444
5925.682
5931.661
5937.937
5944.892
5953.003
5962.204
5971.886
5981.807
5991.396
6000.765
6009.905
6018.835
6027.884
6037.2
6046.592
6055.554
6064.007
6071.746
6079.067
6085.699
6091.657
6096.562
6100.839
6104.616
6107.885
6110.963
6113.664
6115.023
6116.195
6117.474
6117.22
6116.262
6114.878
6113.312
6111.02
6106.754
6097.379
6083.935
6074.606
6071.404
6072.147
6073.799
6075.017
6075.755
6076.241
6076.457
6076.441
6076.106
6075.065
6073.297
6071.021
6067.94
6064.304
6060.243
6055.907
6051.332
6046.623
6041.743
6036.845
6031.961
6027.023
6022.108
6017.342
6012.875
6008.414
6004.178
6000.428
5997.274
5994.984
5993.541
5993.097
5992.7
5991.715
5991.107
5990.711
5990.468
5989.44
5988.608
5990.35
5990.594
5989.454
5987.261
5985.985
5985.78
5986.343
5986.517
5988.158
5991.306
5995.892
6001.701
6006.311
6010.006
6012.401
6014.365
6016.934
6018.851
6019.838
6020.588
6020.287
6019.381
6018.722
6018.696
6020.036
6021.448
6023.079
6023.858
6023.435
6022.794
6022.09
6020.919
6019.284
6017.358
6015.501
6013.471
6010.902
6009.042
6007.697
6006.643
6006.121
6006.841
6008.51
6010.2
6011.737
6013.462
6014.687
6014.769
6014.248
6013.384
6012.766
6011.594
6009.869
6008.862
6008.932
6009.329
6009.473
6009.407
6009.343
6010.163
6012.111
6013.982
6016.228
6019.175
6021.724
6023.606
6025.391
6027.307
6029.353
6031.292
6032.916
6034.303
6035.664
6036.962
6038.117
6039.23
6040.384
6041.657
6043.003
6044.095
1950.332
1906.725
1804.911
1773.763
1748.474
1749.105
1763.73
1789.315
1817.438
1848.165
1870.547
1890.128
1903.768
1918.398
1943.954
1975.023
1947.476
1867.93
1754.629
1634.976
1514.768
1415.596
1343.732
1270.348
1237.115
1305.01
1445.006
1593.578
1767.087
1924.359
2065.025
2203.068
2462.737
2548.859
2601.514
2687.102
2755.66
2784.908
2769.754
2736.637
2708.27
2662.979
2585.306
2522.231
2510.585
2515.642
2514.082
2514.344
2525.294
2539.53
2548.778
2551.287
2563.714
2612.639
2709.539
2826.159
2931.872
3052.9
3197.795
3349.096
3498.182
3654.93
3792.519
3938.721
4090.374
4240.8
4391.708
4447.189
4450.34
4352.349
4170.408
3879.34
3457.938
3030.613
2687.186
2459.977
2382.784
2451.776
2614.589
2842.209
3075.571
3284.722
3492.362
3692.174
3872.149
4024.598
4143.775
4211.567
4204.799
4143.99
4064.388
4022.057
4027.239
4048.701
4051.211
4027.389
3976.74
3932.87
3868.593
3807.585