/*--------------------------------*- C++ -*----------------------------------*\
| =========                 |                                                 |
| \\      /  F ield         | foam-extend: Open Source CFD                    |
|  \\    /   O peration     | Version:     3.1                                |
|   \\  /    A nd           | Web:         http://www.extend-project.de       |
|    \\/     M anipulation  |                                                 |
\*---------------------------------------------------------------------------*/
FoamFile
{
    version     2.0;
    format      ascii;
    class       volScalarField;
    location    "10.5";
    object      pd;
}
// * * * * * * * * * * * * * * * * * * * * * * * * * * * * * * * * * * * * * //

dimensions      [1 -1 -2 0 0 0 0];

internalField   nonuniform List<scalar> 
119952
(
6957.809
6909.321
7036.595
7026.45
7088.181
7099.883
7134.839
7158.808
7187.694
7226.591
7247.475
7273.86
7299.766
7326.135
7364.916
7433.902
7437.722
7507.871
7527.777
7607.151
7595.456
7592.638
7631.668
7652.964
7651.079
7671.985
7708.399
7764.922
7845.669
7854.321
6441.868
6384.563
6370.806
6424.932
6423.462
6437.602
6440.982
6460.651
6473.362
6483.578
6469.676
6454.37
6419.856
6344.657
6216.36
6037.133
5814.884
5664.433
5671.779
5508.23
5393.219
5374.828
5395.112
5440.176
5530.277
5681.195
5779.839
5927.28
6049.759
6218.458
6359.658
6475.862
6546.911
6618.884
6692.862
6765.107
6824.717
6886.981
6927.84
6972
7002.358
7040.354
7077.62
7107.296
7136.213
7170.005
7202.691
7234.505
7254.696
7280.788
7306.818
7336.635
7371.335
7406.103
7447.281
7486.961
7520.779
7555.57
7583.256
7601.1
7619.749
7641.193
7650.847
7655.306
7669.643
7732.853
7770.876
7727.505
7697.403
7642.012
7535.618
7412.432
7278.37
7131.676
6970.697
6813.496
6667.686
6541.283
6406.031
6275.627
6151.093
6064.499
5991.626
5908.254
5831.076
5767.377
5718.025
5688.933
5687.857
5703.858
5734.789
5784.801
5854.123
5941.637
6046.843
6163.689
6289.259
6419.747
6553.408
6693.682
6835.573
6963.426
7074.615
7178.524
7272.295
7351.502
7415.321
7452.836
7492.325
7532.032
7550.049
7569.141
7580.042
7581.437
7567.251
7555.526
7554.414
7539.608
7533.024
7510.778
7488.617
7464.133
7447.919
7444.16
7449.189
7453.449
7462.946
7468.309
7479.723
7488.364
7504.721
7526.661
7539.97
7562.227
7584.394
7603.343
7611.389
7605.749
7594.511
7625.192
7656.791
7678.058
7694.812
7706.778
7711.032
7712.406
7713.827
7725.816
7737.612
7755.665
7772.986
7785.792
7795.614
7803.307
7811.532
7818.206
7814.16
7811.99
7797.466
7775.712
7744.771
7704.284
7672.239
7639.586
7632.442
7632.963
7623.295
7622.995
7658.282
7662.717
7667.601
7671.212
7671.494
7694.328
7704.016
7709.303
7712.525
7718.347
7723.525
7724.406
7729.223
7728.983
7727.976
7733.187
7733.713
7732.739
7734.18
7727.043
7724.828
7719.32
7721.449
7719.582
7718.797
7719.86
7720.94
7722.194
7719.942
7717.725
7715.729
7714.236
7715.539
7717.453
7713.614
7719.993
7723.016
7720.861
7722.915
7722.197
7723.909
7730.169
7733.538
7736.371
7740.492
7744.626
7748.96
7756.494
7760.554
7767.692
7780.404
7795.405
7795.717
7798.015
7806.373
7813.153
7819.82
7830.099
7838.485
7840.934
7854.433
7862.259
7870.991
7876.662
7883.505
7895.813
7896.328
7941.428
7932.303
7900.136
7924.875
7929.213
7936.636
7942.911
7946.66
7949.253
7947.895
7948.11
7952.033
7955.376
7954.147
7953.914
7953.708
7955.18
7957.153
7953.882
7936.402
7909.944
7886.959
7875.344
7863.463
7869.487
7882.493
7895.91
7903.446
7907.531
7912.621
7915.602
7917.641
7918.642
7919.009
7920.079
7920.192
7912.702
7908.362
7902.509
7898.379
7893.891
7888.023
7882.971
7878.582
7874.164
7870.378
7866.087
7860.833
7852.437
7844.986
7835.307
7825.25
7826.421
7832.433
7837.657
7840.164
7827.489
7833.489
7835.548
7842.701
7845.272
7841.346
7844.522
7841.015
7839.229
7837.12
7826.932
7799.37
7764.802
7759.944
7776.36
7802.651
7820.741
7842.166
7856.118
7861.883
7866.916
7870.917
7873.287
7874.982
7872.403
7866.995
7839.878
7812.985
7815.504
7838.821
7852.014
7863.004
7869.557
7873.94
7874.604
7874.506
7875.351
7873.594
7868.446
7866.874
7864.633
7860.319
7853.837
7838.606
7797.218
7772.43
7812.517
7849.707
7864.084
7873.716
7872.363
7864.697
7865.303
7863.564
7861.534
7859.68
7858.578
7857.977
7859.755
7850.874
7852.03
7846.212
7836.237
7823.39
7819.785
7836.888
7852.485
7863.761
7868.002
7868.231
7873.788
7875.086
7874.621
7875.716
7877.083
7879.545
7882.514
7886.073
7890.605
7895.235
7900.177
7904.343
7894.987
7874.55
7859.323
5693.323
5630.318
5494.618
5464.01
5485.851
5544.037
5597.39
5674.405
5724.842
5811.597
5919.308
5956.797
5996.59
6012.354
6023.161
6029.759
6028.172
6057.907
6096.451
6074.799
6058.222
6049.138
6044.838
6038.041
6037.861
6041.943
6048.755
6072.701
6066.562
6084.47
6124.402
6170.028
6198.134
6204.296
6234.401
6274.867
6308.327
6363.227
6377.203
6398.47
6415.305
6434.183
6432.137
6441.35
6462.428
6477.944
6477.951
6466.007
6451.029
6399.234
6310.803
6133.546
5866.187
5654.887
5535.366
5416.449
5292.868
5265.368
5283.119
5369.955
5448.876
5543.452
5658.399
5785.57
5927.496
6090.614
6251.536
6385.321
6491.813
6571.544
6656.743
6732.188
6788.358
6836.963
6866.004
6907.36
6958.235
7001.669
7041.279
7077.438
7107.034
7136.521
7168.449
7201.275
7228.828
7247.127
7268.357
7295.839
7333.483
7375.93
7417.947
7460.235
7502.332
7540.019
7571.143
7595.952
7615.43
7627.348
7636.492
7634.134
7611.225
7593.473
7617.908
7666.801
7702.774
7682.68
7590.83
7467.154
7319.967
7168.793
7021.689
6873.169
6727.949
6590.775
6464.1
6343.832
6229.806
6118.898
6011.085
5920.342
5841.012
5772.052
5714.909
5672.83
5649.499
5646.837
5664.24
5703.244
5762.506
5839.136
5932.751
6043.002
6164.246
6294.795
6432.855
6572.283
6712.246
6849.413
6977.491
7095.94
7200.692
7291.979
7369.497
7428.781
7462.821
7485.412
7511.444
7530.989
7549.174
7578.555
7586.343
7585.921
7579.237
7564.695
7542.082
7511.949
7462.34
7422.66
7424.763
7424.061
7429.866
7441.517
7448.145
7454.222
7461.292
7472.384
7486.441
7501.621
7517.443
7533.753
7552.033
7570.455
7587.106
7595.868
7584.444
7583.888
7618.436
7659.504
7684.216
7705.456
7715.249
7711.369
7713.837
7712.474
7719.165
7736.294
7759.172
7780.306
7794.849
7802.417
7807.165
7812.866
7816.354
7818.641
7814.522
7800.154
7771.269
7721.334
7661.149
7618.286
7580.839
7610.065
7671.821
7620.156
7630.613
7636.302
7652.981
7672.007
7676.676
7682.875
7694.93
7705.52
7712.286
7716.795
7721.628
7724.537
7726.937
7730.273
7731.299
7733.16
7734.274
7734.886
7733.323
7726.686
7723.564
7717.075
7717.801
7717.466
7719.293
7721.764
7721.217
7720.417
7721.521
7719.25
7716.787
7715.294
7714.66
7715.488
7716.703
7717.317
7720.837
7722.873
7721.75
7720.178
7721.661
7725.652
7730.485
7734.768
7737.254
7741.231
7747.236
7753.151
7758.295
7764.375
7771.701
7779.693
7788.304
7790.177
7798.501
7807.1
7814.774
7822.575
7831.219
7839.866
7847.993
7855.712
7863.592
7871.022
7878.1
7886.333
7900.617
7917.109
7923.937
7923.511
7909.551
7922.793
7934.776
7940.521
7944.545
7947.317
7949.502
7951.124
7952.2
7952.957
7954.382
7955.088
7953.376
7952.591
7956.78
7960.562
7952.214
7930.604
7900.935
7871.493
7855.124
7855.858
7871.783
7887.786
7899.453
7905.739
7909.565
7912.942
7916.224
7918.78
7918.939
7917.967
7916.735
7912.972
7908.979
7905.937
7901.071
7895.741
7890.878
7885.912
7880.747
7875.777
7871.451
7867.876
7864.299
7859.133
7850.949
7840.379
7829.948
7823.288
7826.604
7832.43
7835.215
7835.367
7834.904
7834.052
7835.242
7839.058
7841.718
7843.179
7843.399
7842.007
7842.574
7835.65
7816.737
7785.624
7760.19
7756.841
7775.507
7799.587
7820.987
7834.849
7843.897
7855.692
7868.439
7875.326
7876.282
7873.893
7866.928
7860.47
7846.472
7831.047
7826.988
7836.924
7849.126
7857.389
7859.888
7866.481
7870.22
7869.804
7870.258
7871.863
7870.514
7866.59
7862.77
7857.674
7850.817
7837.903
7813.88
7801.613
7824.265
7847.557
7857.916
7862.806
7864.582
7864.046
7862.016
7858.836
7859.609
7860.791
7858.956
7856.579
7854.931
7853.06
7849.586
7843.77
7835.212
7829.614
7831.311
7842.541
7852.729
7859.509
7864.054
7867.113
7869.866
7872.303
7874.299
7875.738
7877.272
7879.287
7881.726
7884.625
7887.528
7890.046
7891.647
7891.231
7888.692
7883.725
7880.996
4870.845
4890.99
4857.435
4783.322
4819.345
4773.327
4794.693
4793.577
4785.783
4665.887
4941.694
4950.307
5003.361
5059.554
5111.201
5223.821
5350.372
5506.169
5620.737
5829.179
6010.91
6176.467
6335.342
6499.627
6653.851
6805.717
6902.24
6986.571
7061.624
7064.983
7019.607
6932.21
6784.382
6610.941
6403.947
6167.94
5930.769
5723.485
5576.152
5464.074
5409.725
5411.27
5451.938
5519.256
5594.892
5681.201
5783.333
5871.059
5933.964
5982.643
6009.025
6018.828
6028.95
6030.757
6033.506
6057.124
6067.361
6066.398
6056.843
6043.235
6032.054
6026.642
6022.997
6021.904
6025.539
6008.064
6001.016
6044.431
6109.173
6147.477
6157.424
6170.146
6198.485
6241.157
6293.417
6347.31
6389.006
6414.607
6430.29
6434.34
6423.304
6427.865
6462.341
6492.95
6504.195
6487.045
6435.132
6318.667
6126.264
5878.244
5656.377
5468.894
5344.321
5281.278
5257.604
5252.849
5270.832
5317.543
5385.32
5477.724
5610.63
5760.159
5915.821
6073.664
6229.557
6358.613
6470.231
6560.792
6641.692
6711.415
6766.879
6817.01
6862.853
6903.161
6942.5
6974.45
7011.225
7050.831
7088.266
7121.41
7153.807
7184.891
7215.592
7244.396
7266.796
7289.641
7325.63
7372.328
7418.075
7460.587
7501.822
7544.956
7574.986
7606.933
7627.115
7637.327
7646.027
7637.034
7601.179
7550.826
7559.521
7606.971
7635.689
7595.23
7497.652
7369.202
7228.725
7082.383
6933.781
6789.928
6653.482
6526.04
6406.818
6293.007
6183.523
6078.809
5976.399
5880.657
5794.663
5721.125
5662.543
5621.126
5599.147
5597.533
5616.054
5656.47
5716.58
5794.829
5890.711
6002.918
6126.916
6259.46
6401.532
6547.846
6692.955
6835.424
6967.955
7090.068
7199.962
7293.597
7374.866
7444.716
7502.282
7540.945
7556.311
7556.399
7551.555
7555.219
7582.308
7595.887
7581.329
7558.18
7512.171
7449.467
7418.657
7392.337
7366.497
7349.987
7405.544
7433.731
7438.282
7440.525
7446.655
7458.06
7476.459
7492.091
7506.739
7522.369
7538.999
7556.124
7574.452
7592.77
7609.133
7614.925
7613.363
7638.294
7680.538
7710.73
7725.268
7732.914
7722.128
7695.028
7674.455
7686.147
7722.737
7761.52
7777.728
7788.635
7798.294
7809.269
7827.274
7831.428
7827.398
7808.772
7776.796
7714.472
7617.923
7586.049
7613.583
7631.367
7637.887
7635.404
7625.122
7628.315
7656.015
7683.74
7677.599
7683.362
7697.95
7707.025
7712.405
7716.741
7721.143
7724.606
7727.311
7730.495
7732.295
7733.314
7733.551
7733.555
7731.57
7727.339
7723.707
7720.416
7718.484
7718.38
7719.717
7719.96
7720.054
7719.794
7719.03
7717.771
7716.165
7715.367
7715.418
7715.753
7716.386
7718.008
7717.827
7720.397
7722.998
7722.558
7723.627
7726.754
7730.508
7734.367
7737.776
7742.03
7747.648
7753.2
7759.074
7765.041
7771.391
7777.729
7784.492
7791.8
7799.219
7806.919
7815.146
7823.534
7832.068
7840.872
7849.499
7857.788
7865.772
7873.945
7882.059
7891.249
7901.548
7912.305
7921.361
7927.07
7930.797
7931.848
7934.347
7937.872
7940.345
7943.142
7945.687
7947.744
7949.085
7951.413
7954.354
7955.787
7955.486
7953.791
7953.66
7955.836
7949.387
7932.395
7908.32
7879.37
7860.94
7862.47
7874.438
7886.844
7896.827
7904.103
7908.96
7912.036
7913.69
7914.359
7914.307
7913.593
7912.458
7910.955
7907.909
7903.611
7899.287
7895.067
7890.644
7886.098
7881.61
7877.022
7872.427
7867.772
7862.531
7856.472
7849.609
7841.891
7833.615
7828.834
7828.828
7831.969
7832.873
7832.392
7833.339
7836.001
7839.232
7842.705
7844.444
7844.46
7842.025
7836.71
7830.595
7823.586
7811.454
7795.786
7784.27
7784.026
7797.258
7815.688
7832.783
7844.586
7853.963
7862.381
7866.382
7866.664
7867.524
7864.27
7858.069
7854.429
7846.779
7837.879
7839.82
7849.421
7857.346
7864.864
7869.167
7870.251
7870.342
7871.15
7869.542
7866.793
7865.803
7863.649
7859.515
7854.361
7847.382
7835.001
7825.689
7823.85
7839.957
7854.963
7862.314
7865.091
7864.377
7862.466
7860.758
7860.025
7858.701
7856.715
7854.732
7853.055
7852.022
7851.198
7849.709
7845.132
7839.067
7837.982
7840.466
7847.752
7855.095
7860.958
7865.477
7868.349
7870.061
7871.324
7872.768
7874.389
7876.192
7878.311
7880.589
7882.845
7884.918
7886.424
7887.24
7886.846
7885.054
7881.488
7878.609
3895.804
3886.965
3761.876
4179.34
4259.631
4430.353
4445.183
4545.129
4625.262
4652.516
4668.315
4686.193
4688.365
4715.923
4735.708
4745.741
4748.018
4738.897
4736.039
4774.809
4837.092
4870.483
4898.844
4930.641
5008.443
5025.285
5086.657
5190.886
5328.193
5466.494
5635.886
5801.775
5994.628
6181.98
6364.918
6534.85
6696.269
6841.838
6948.68
7016.399
7071.393
7061.081
6995.593
6874.91
6731.904
6571.494
6334.976
6049.732
5758.111
5526.855
5365.064
5273.317
5250.066
5293.327
5380.324
5495.836
5622.45
5729.826
5829.933
5918.389
5982.239
6021.331
6038.114
6036.617
6027.591
6030.136
6039.386
6057.273
6067.091
6063.071
6051.836
6035.316
6017.336
5998.905
5987.8
5982.986
5965.601
5905.821
5856.958
5934.27
6059.798
6101.448
6114.211
6134.019
6173.301
6226.793
6292.345
6355.417
6397.019
6415.057
6431.14
6447.563
6452.308
6458.797
6497.738
6539.212
6544.935
6520.766
6419.125
6245.028
5995.056
5713.297
5491.796
5331.056
5228.831
5181.514
5174.346
5182.821
5206.388
5255.846
5326.33
5415.348
5529.742
5683.154
5848.408
6017.098
6187.975
6326.981
6440.185
6550.006
6625.768
6681.588
6727.811
6770.053
6815.141
6865.161
6916.543
6962.299
6986.092
7004.858
7033.512
7058.674
7101.907
7147.977
7185.588
7219.627
7253.937
7287.938
7321.611
7360.519
7409.735
7461.512
7505.028
7540.529
7580.644
7618.44
7644.799
7657.609
7661.613
7650.431
7613.607
7554.217
7537.199
7548.325
7537.081
7475.488
7372.758
7250.186
7117.621
6978.113
6837.369
6701.126
6572.65
6452.016
6338.098
6228.528
6122.435
6022.051
5921.56
5825.426
5737.132
5659.941
5598.642
5554.569
5530.416
5527.87
5547.753
5591.3
5657.02
5740.934
5841.198
5957.267
6085.692
6222.24
6367.983
6520.322
6672.171
6820.912
6961.1
7088.669
7201.952
7297.551
7379.939
7450.964
7510.668
7556.79
7590.811
7615.414
7630.926
7637.739
7637.509
7611.701
7541.554
7499.646
7474.533
7463.573
7477.259
7455.328
7441.962
7431.04
7420.567
7428.775
7430.488
7428.369
7425.924
7435.722
7465.278
7486.283
7496.361
7509.6
7525.936
7542.649
7561.969
7583.832
7606.392
7629.291
7653.799
7677.153
7693.03
7715.339
7719.398
7719.379
7653.836
7582.132
7584.983
7592.856
7684.491
7757.73
7781.573
7789.851
7798.179
7805.033
7815.103
7827.663
7816.727
7798.608
7771.908
7717.779
7657.391
7632.17
7643.248
7616.567
7607.199
7635.737
7616.059
7611.521
7643.887
7660.373
7675.835
7689.951
7701.654
7708.219
7712.364
7715.317
7717.714
7721.2
7725.08
7728.28
7730.445
7731.614
7732.105
7732.378
7731.566
7727.835
7723.546
7718.784
7712.994
7716.579
7722.95
7720.02
7718.851
7718.203
7716.273
7714.961
7714.589
7714.241
7713.892
7714.449
7716.858
7718.536
7718.669
7718.091
7717.224
7717.265
7719.217
7723.039
7727.599
7732.15
7736.237
7740.044
7744.219
7749.754
7756.094
7762.613
7769.114
7775.134
7780.355
7787.365
7794.732
7803.27
7812.148
7821.118
7830.203
7839.289
7848.258
7856.86
7865.32
7873.908
7882.249
7890.8
7899.784
7908.745
7916.118
7921.469
7924.774
7928.002
7932.158
7937.56
7942.156
7945.766
7948.344
7949.768
7951.009
7952.467
7952.978
7952.766
7953.043
7951.574
7947.823
7942.341
7938.706
7929.625
7913.095
7894.448
7882.498
7882.624
7888.652
7896.113
7902.571
7907.63
7911.344
7913.863
7915.399
7916.202
7916.156
7914.887
7912.345
7909.325
7905.913
7901.946
7897.502
7892.616
7887.847
7883.269
7878.472
7873.537
7868.85
7863.861
7858.935
7853.653
7847.72
7841.516
7835.768
7831.861
7831.066
7832.48
7832.715
7832.867
7834.663
7835.775
7835.028
7835.305
7836.823
7838.02
7838.469
7835.806
7832.233
7827.619
7820.189
7810.586
7802.466
7800.611
7807.17
7817.924
7829.188
7841.805
7854.956
7860.37
7859.361
7856.213
7857.498
7861.978
7865.757
7862.695
7855.856
7849.523
7848.804
7854.354
7856.699
7859.668
7861.804
7861.805
7863.157
7866.23
7864.52
7861.852
7860.427
7859.44
7856.97
7853.48
7850.03
7845.29
7839.116
7835.752
7840.643
7848.196
7852.589
7854.573
7855.911
7856.974
7857.7
7859.072
7857.178
7853.414
7852.218
7852.174
7852.091
7851.219
7849.265
7846.429
7843.726
7842.964
7844.532
7848.626
7853.442
7857.658
7861.186
7864.06
7866.513
7868.706
7870.731
7872.622
7874.503
7876.327
7878.209
7880.08
7881.87
7883.388
7884.248
7884.496
7884.122
7883.052
7882.984
3956.519
3947.513
3945.848
3861.396
3827.556
3771.293
3757.168
3746.667
3742.899
3765.837
3751.606
3834.035
3919.869
4002.22
4145.979
4265.218
4420.915
4470.368
4535.067
4596.516
4634.496
4667.5
4691.95
4714.051
4737.349
4732.521
4726.021
4716.814
4719.269
4723.527
4753.304
4808.026
4834.716
4862.72
4900.155
4926.396
4954.697
5017.313
5119.553
5256.864
5412.317
5568.024
5723.925
5898.938
6088.494
6285.378
6483.706
6662.337
6807.954
6939.028
7058.894
7148.289
7113.161
7005.922
6858.686
6710.702
6510.968
6234.676
5896.55
5563.802
5296.915
5128.79
5047.899
5057.061
5149.724
5288.534
5444.453
5603.63
5739.097
5853.998
5951.456
6024.479
6065.631
6075.04
6057.945
6018.075
6003.041
6019.026
6050.031
6080.593
6078.861
6057.941
6032.182
6005.087
5980.702
5959.304
5946.804
5909.693
5760.042
5558.568
5687.383
5983.073
6050.165
6065.696
6102.065
6155.903
6220.02
6298.251
6370.643
6409.626
6419.494
6436.047
6461.21
6480.317
6499.447
6539.729
6572.291
6575.573
6539.034
6369.296
6114.511
5862.448
5586.413
5363.409
5214.891
5128.686
5093.046
5095.129
5115.818
5143.922
5187.919
5253.776
5343.064
5468.562
5629.894
5828.498
6008.887
6183.731
6309.432
6435.225
6536.736
6602.92
6645.656
6678.134
6708.976
6749.186
6804.815
6865.887
6924.13
6971.887
7008.951
7024.892
7012.506
7036.628
7091.232
7142.185
7182.185
7223.941
7264.676
7306.757
7355.783
7406.186
7462.247
7519.312
7539.703
7552.588
7607.091
7655.27
7683.66
7697.334
7687.737
7649.346
7591.474
7544.245
7508.38
7448.703
7362.402
7254.673
7135.358
7007.014
6871.369
6734.142
6602.96
6480.197
6365.277
6259.645
6160.122
6060.652
5962.613
5862.247
5764.324
5673.224
5594.027
5530.612
5484.025
5458.424
5457.275
5481.404
5532.178
5605.689
5696.047
5800.556
5919.298
6050
6187.95
6335.797
6492.021
6650.978
6807.138
6955.429
7089.486
7205.773
7303.578
7386.844
7457.473
7516.813
7564.509
7600.849
7627.667
7644.869
7652.874
7655.182
7651.463
7634.145
7586.305
7534.789
7505.905
7499.991
7484.514
7469.339
7449.158
7437.038
7430.307
7417.564
7404.038
7409.155
7422.758
7444.247
7467.918
7475.853
7489.345
7506.704
7521.369
7540.296
7562.941
7591.498
7621.91
7650.25
7676.219
7697.755
7719.93
7732.46
7752.076
7766.58
7762.643
7750.602
7735.915
7729.777
7749.201
7772.314
7780.077
7779.051
7785.447
7803.245
7810.814
7811.392
7800.009
7768.827
7722.492
7686.925
7651.543
7630.447
7617.999
7614.35
7625.922
7623.722
7629.912
7635.36
7636.078
7653.977
7674.562
7695.257
7711.961
7720.121
7719.03
7719.895
7723.313
7726.631
7729.14
7730.538
7730.714
7730.205
7729.966
7728.966
7726.273
7724.27
7722.517
7720.746
7717.978
7715.821
7715.699
7717.104
7717.073
7715.213
7712.369
7711.532
7711.872
7713.339
7714.354
7715.691
7717.551
7719.4
7717.712
7715.714
7719.614
7722.572
7724.543
7727.703
7731.338
7734.95
7738.33
7741.815
7747.258
7753.517
7759.998
7766.219
7772.466
7778.962
7784.845
7790.888
7798.45
7806.708
7816.962
7827.351
7836.971
7846.252
7855.248
7863.893
7872.457
7881.085
7889.754
7898.563
7907.104
7915.181
7922.227
7927.871
7932.364
7936.245
7940.274
7944.238
7946.727
7949.245
7951.63
7952.848
7953.676
7954.636
7954.914
7954.15
7952.024
7948.782
7944.428
7936.994
7926.218
7913.256
7900.731
7892.774
7892.51
7897.255
7901.622
7905.227
7908.313
7910.982
7912.973
7913.981
7914.012
7913.092
7911.377
7908.999
7906.172
7902.921
7899.068
7894.837
7890.475
7885.851
7881.078
7876.28
7871.599
7866.946
7862.101
7857.201
7852.13
7847.13
7842.064
7837.445
7834.105
7832.729
7832.693
7832.105
7831.625
7831.977
7833.617
7834.108
7833.296
7834.755
7834.973
7834.804
7833.732
7830.636
7826.767
7822.313
7817.315
7813.089
7813.694
7818.852
7827.116
7835.027
7844.271
7853.586
7854.306
7852.818
7855.992
7859.721
7861.717
7862.507
7860.287
7855.611
7852.725
7851.652
7854.759
7856.844
7861.038
7864.36
7863.808
7863.746
7864.277
7863.014
7860.994
7858.129
7855.595
7854.401
7852.468
7849.142
7844.903
7841.289
7840.108
7844.024
7850.287
7854.235
7856.213
7857.609
7858.041
7857.688
7856.675
7854.749
7852.612
7851.653
7851.874
7851.73
7850.873
7849.509
7847.705
7846.112
7845.824
7847.259
7850.313
7854.055
7857.495
7860.815
7863.796
7866.186
7868.098
7869.831
7871.634
7873.505
7875.399
7877.204
7878.862
7880.312
7881.484
7882.492
7883.233
7883.567
7883.396
7883.868
3872.863
3859.663
3859.877
3906.602
3926.143
3960.169
3989.578
4000.841
3999.339
3997.257
3980.874
3956.592
3919.336
3871.156
3830.96
3749.563
3719.166
3683.083
3652.596
3631.045
3664.059
3748.44
3845.627
3966.833
4149.995
4387.527
4447.835
4406.615
4569.598
4652.754
4695.485
4719.127
4736.013
4746.199
4754.946
4756.761
4730.019
4681.853
4677.243
4691.439
4708.297
4729.332
4749.099
4782.303
4821.163
4839.565
4850.702
4898.848
4991.879
5128.826
5283.78
5439.224
5600.389
5773.338
5958.179
6143.071
6334.14
6533.397
6694.754
6822.52
6924.372
6999.938
7046.85
6996.07
6803.892
6607.858
6379.932
6051.84
5676.214
5274.197
4963.908
4815.549
4786.699
4867.544
5023.515
5197.666
5390.759
5587.75
5754.556
5893.294
6008.421
6096.206
6135.629
6127.842
6093.225
6031.32
6005.295
6022.584
6029.109
6021.778
6055.801
6055.394
6024.401
5985.437
5947.388
5923.785
5903.04
5859.046
5633.242
5424.252
5479.879
5890.987
5987.211
6019.469
6074.379
6143.848
6221.086
6305.214
6379.887
6417.585
6425.589
6442.325
6472.965
6502.008
6523.512
6546.541
6577.809
6592.623
6544.253
6349.332
6042.18
5740.436
5493.011
5276.472
5127.726
5040.662
5010.509
5020.887
5049.287
5078.532
5115.946
5172.818
5259.922
5387.774
5552.999
5758.962
5960.374
6156.376
6322.308
6401.925
6433.262
6500.449
6573.491
6617.108
6635.775
6664.427
6725.105
6797.886
6863.8
6916.382
6954.969
6983.989
7005.681
7024.603
7035.155
7065.263
7114.522
7169.935
7218.152
7268.214
7324.294
7382.587
7449.591
7520.644
7545.049
7494.118
7565.3
7658.594
7703.598
7718.487
7712.685
7683.387
7630.299
7560.596
7479.74
7378.974
7271.504
7157.621
7034.995
6901.574
6759.508
6618.161
6489.561
6376.328
6277.155
6185.32
6096.097
6001.798
5903.21
5803.188
5703.936
5611.25
5530.819
5467.329
5420.568
5398.035
5402.725
5431.35
5484.605
5561.653
5656.626
5765.151
5884.545
6013.237
6150.48
6298.281
6457.73
6623.62
6788.347
6943.79
7082.735
7203.212
7305.089
7390.902
7463.457
7523.606
7572.638
7610.782
7639.548
7658.618
7665.431
7668.623
7662.455
7646.409
7623.051
7591.913
7554.507
7509.271
7469.538
7465.708
7461.197
7433.065
7430.85
7424.147
7404.962
7407.407
7419.375
7430.395
7441.866
7453.162
7468.942
7488.075
7503.894
7518.662
7540.176
7566.645
7593.758
7619.733
7652.564
7686.786
7709.473
7717.519
7731.533
7749.027
7755.205
7759.548
7764.24
7764.031
7765.729
7769.488
7766.262
7765.259
7780.876
7785.133
7783.966
7795.371
7788.077
7755.122
7715.435
7680.918
7647.55
7621.462
7614.369
7623.578
7649.758
7672.936
7669.882
7657.353
7653.762
7654.376
7660.945
7679.075
7693.16
7703.811
7715.739
7724.455
7725.707
7725.73
7726.708
7727.574
7727.855
7727.92
7728.114
7727.51
7726.766
7725.099
7723.539
7724.205
7718.161
7710.315
7710.988
7711.525
7710.398
7711.717
7714.702
7712.975
7706.43
7702.691
7710.502
7721.312
7719.824
7716.385
7714.818
7713.531
7710.452
7713.655
7723.379
7730.806
7733.33
7734.934
7737.313
7740.911
7745.879
7751.436
7756.816
7762.199
7768.3
7774.837
7782.028
7789.15
7795.197
7802.519
7812.003
7823.184
7833.726
7843.422
7852.525
7861.317
7870.204
7879.259
7888.232
7896.98
7905.32
7912.87
7919.47
7925.333
7930.355
7934.567
7938.546
7942.386
7945.759
7948.29
7950.747
7952.402
7953.723
7954.854
7955.57
7954.6
7952.844
7951.486
7949.576
7942.257
7929.504
7915.715
7906.779
7903.737
7903.727
7905.397
7907.846
7910.535
7912.741
7914.323
7915.331
7915.869
7915.655
7914.561
7912.666
7909.857
7906.388
7902.428
7898
7893.406
7888.673
7883.686
7878.736
7873.959
7869.195
7864.323
7859.36
7854.646
7849.952
7845.232
7840.886
7837.187
7834.557
7833.019
7832.898
7832.518
7831.238
7830.823
7832.51
7833.115
7830.687
7830.588
7831.697
7830.811
7829.81
7827.69
7825.818
7824.642
7824.184
7823.947
7823.419
7825.133
7830.897
7839.13
7845.669
7850.312
7851.269
7852.102
7856.372
7859.058
7859.952
7860.785
7859.605
7857.34
7855.795
7855.183
7857.282
7859.275
7862.86
7864.951
7863.946
7863.116
7862.625
7861.363
7859.278
7856.229
7853.862
7852.651
7850.622
7848.393
7846.545
7844.711
7843.866
7845.144
7848.085
7849.974
7850.566
7850.781
7851.855
7853.369
7853.671
7852.599
7851.516
7850.827
7849.621
7849.041
7848.727
7848.435
7848.145
7847.59
7847.438
7848.453
7850.738
7853.306
7855.959
7859.198
7861.924
7864.037
7865.844
7867.598
7869.415
7871.204
7872.979
7874.623
7876.144
7877.623
7878.981
7880.104
7880.959
7881.663
7882.346
7883.721
3934.773
3928.423
3907.716
3886.21
3864.517
3856.645
3858.778
3879.205
3903.136
3926.891
3959.371
3985.472
3997.634
4004.892
4001.246
3988.77
3970.761
3948.179
3836.051
3767.071
3703.716
3642.358
3586.705
3526.778
3479.696
3525.351
3638.954
3768.381
3920.833
4062.875
4211.789
4370.927
4479.6
4576.66
4669.633
4732.013
4769.49
4786.797
4792.66
4786.124
4781.359
4747.55
4671.665
4629.811
4636.782
4655.796
4665.462
4680.692
4707.203
4735.815
4751.205
4756.382
4782.573
4857.266
4980.068
5120.004
5258.161
5412.819
5576.568
5757.502
5932.439
6099.292
6262.326
6453.504
6616.712
6743.048
6800.491
6812.531
6804.978
6684.9
6477.873
6196.431
5829.927
5421.325
4992.319
4701.068
4591.009
4615.454
4733.278
4914.511
5141.146
5381.372
5602.216
5772.375
5922.161
6060.207
6165.415
6218.34
6202.513
6149.929
6071.425
6038.357
6052.133
6044.568
5901.038
5865.615
6041.397
6018.138
5970.073
5918.229
5880.346
5851.063
5818.856
5716.647
5474.726
5438.333
5815.484
5908.257
5960.769
6026.193
6111.337
6204.759
6298.119
6379.72
6420.513
6439.78
6467.831
6497.119
6524.279
6542.701
6555.528
6569.254
6574.118
6525.731
6350.005
6029.004
5723.563
5451.486
5232.065
5071.858
4981.105
4950.483
4966.71
5004.025
5041.559
5076.929
5120.411
5189.802
5305.597
5474.45
5677.173
5888.97
6096.316
6283.597
6423.007
6354.401
6129.969
6211.415
6365.163
6474.203
6541.922
6622.201
6712.489
6791.063
6844.403
6875.575
6898.865
6921.194
6943.458
6964.822
6994.639
7038.863
7090.216
7147.743
7213.47
7286.344
7364.971
7440.009
7508.449
7556.982
7502.647
7521.768
7625.932
7704.363
7725.839
7723.439
7701.105
7649.289
7562.852
7450.447
7322.128
7196.876
7072.344
6938.73
6791.354
6641.682
6503.199
6384.674
6285.46
6200.148
6119.102
6038.271
5950.98
5853.5
5748.96
5647.374
5556.414
5472.409
5403.589
5352.265
5325.378
5328.374
5359.593
5415.406
5495.743
5604.303
5722.421
5845.883
5973.158
6106.094
6251.765
6413.478
6587.07
6762.474
6929.069
7071.569
7178.018
7272.153
7370.27
7453.129
7514.754
7563.907
7606.166
7639.76
7666.273
7682.642
7683.864
7666.732
7640.417
7615.4
7591.973
7566.038
7515.726
7461.956
7442.707
7436.179
7417.924
7411.47
7409.253
7396.478
7418.049
7410.012
7412.29
7447.439
7456.496
7468.625
7482.62
7501.596
7523.553
7541.381
7556.361
7570.98
7585.7
7622.695
7662.946
7691.889
7708.28
7723.449
7738.225
7745.535
7751.393
7754.503
7753.729
7751.801
7755.135
7755.415
7752.866
7744.816
7746.292
7754.734
7763.94
7758.36
7737.93
7712.358
7686.719
7665.238
7649.814
7642.555
7649.072
7659.045
7670.39
7673
7666.3
7666.73
7671.332
7676.972
7683.936
7686.797
7693.087
7703.326
7716.716
7728.322
7730.122
7727.802
7725.994
7725.335
7725.996
7727.449
7726.711
7723.901
7721.186
7719.431
7718.252
7716.47
7714.288
7712.797
7711.788
7709.727
7709.206
7711.562
7712.732
7711.039
7709.63
7709.824
7708.132
7709.51
7712.791
7714.878
7717.691
7722.277
7723.783
7724.166
7728.63
7732.426
7734.214
7736.266
7739.383
7744.193
7749.804
7755.016
7759.819
7765.057
7771.035
7777.309
7784.256
7792.322
7801.301
7810.538
7820.373
7830.383
7840.065
7849.257
7858.179
7867.237
7876.564
7885.964
7894.927
7903.36
7910.867
7917.244
7923.958
7930.557
7935.863
7940.211
7943.991
7947.26
7950.338
7953.039
7954.398
7955.57
7956.849
7956.595
7955.637
7954.253
7952.687
7950.395
7946.129
7936.754
7923.31
7913.981
7910.779
7911.522
7913.174
7914.392
7915.13
7915.616
7915.832
7915.816
7915.481
7914.44
7912.672
7910.396
7907.315
7903.679
7899.618
7895.282
7890.707
7885.998
7881.118
7876.22
7871.336
7866.398
7861.483
7856.717
7852.25
7847.789
7843.553
7839.803
7836.649
7834.359
7832.916
7832.472
7832.075
7831.09
7830.482
7830.086
7829.843
7828.815
7827.983
7829.725
7829.969
7828.829
7826.636
7825.36
7825.155
7825.718
7825.892
7827.533
7830.681
7835.267
7841.076
7845.686
7849.381
7851.776
7853.74
7856.309
7858.226
7859.213
7859.963
7859.662
7858.756
7858.097
7858.071
7859.411
7860.823
7862.454
7863.233
7862.81
7862.169
7861.465
7860.294
7858.659
7856.733
7854.876
7852.846
7850.277
7848.417
7847.072
7846.018
7845.496
7846.216
7847.885
7849.575
7851.112
7852.837
7854.062
7854.144
7853.623
7852.759
7852.141
7850.969
7849.244
7848.237
7848.307
7848.704
7848.848
7848.782
7848.718
7849.538
7851.486
7853.357
7855.603
7858.55
7861.099
7862.981
7864.766
7866.682
7868.728
7870.667
7872.291
7873.678
7875.039
7876.337
7877.492
7878.605
7879.759
7881.032
7882.378
7883.47
3942.986
3930.038
3889.535
3858.387
3833.099
3833.73
3848.355
3873.94
3902.063
3932.79
3955.172
3974.753
3988.393
4003.023
4028.579
4059.648
4032.101
3952.555
3839.254
3719.601
3599.393
3500.221
3428.357
3354.973
3321.74
3389.635
3529.631
3678.203
3851.711
4008.984
4149.65
4287.693
4547.362
4633.484
4686.139
4771.727
4840.285
4869.533
4854.379
4821.262
4792.895
4747.604
4669.931
4606.856
4595.21
4600.267
4598.707
4598.969
4609.919
4624.155
4633.403
4635.912
4648.339
4697.264
4794.164
4910.784
5016.497
5137.525
5282.42
5433.721
5582.807
5739.555
5877.144
6023.343
6174.993
6325.42
6476.33
6531.812
6534.965
6436.974
6255.033
5963.963
5542.556
5115.232
4771.808
4544.601
4467.409
4536.401
4699.214
4926.834
5160.196
5369.347
5576.987
5776.799
5956.751
6106.733
6226.626
6295.7
6288.451
6227.335
6148.49
6106.613
6111.633
6117.518
5913.414
5550.371
5975.69
6013.064
5950.603