/*--------------------------------*- C++ -*----------------------------------*\
| =========                 |                                                 |
| \\      /  F ield         | foam-extend: Open Source CFD                    |
|  \\    /   O peration     | Version:     3.1                                |
|   \\  /    A nd           | Web:         http://www.extend-project.de       |
|    \\/     M anipulation  |                                                 |
\*---------------------------------------------------------------------------*/
FoamFile
{
    version     2.0;
    format      ascii;
    class       volScalarField;
    location    "14.5";
    object      p;
}
// * * * * * * * * * * * * * * * * * * * * * * * * * * * * * * * * * * * * * //

dimensions      [1 -1 -2 0 0 0 0];

internalField   nonuniform List<scalar> 
119952
(
5239.981
3688.879
3471.504
3691.77
3927.323
3736.074
3682.187
3641.64
3622.796
3609.971
3603.944
3603.234
3608.103
3617.293
3630.339
3646.684
3665.313
3683.551
3688.706
3634.572
3999.742
3866.754
3835.142
4300.277
4326.032
4417.526
4507.377
4662.344
5021.003
8222.095
3129.433
3077.365
3079.735
3076.207
3073.503
3070.032
3069.967
3070.287
3068.036
3045.888
3019.99
3032.524
3023.917
3018.218
3012.843
3009.893
3007.866
3006.715
3008.163
3004.012
3001.081
2985.046
2986.463
2992.847
2999.567
3007.666
3017.203
3027.665
3045.446
3048.603
3058.35
3077.754
3096.691
3116.455
3138.302
3161.456
3195.864
3287.315
3467.991
3339.095
3294.423
3388.589
3434.759
3417.693
3377.711
3353.273
3338.476
3329.257
3325.98
3328.084
3334.99
3346.145
3361.187
3379.599
3400.623
3423.576
3449.857
3486.191
3553.737
3628.995
3680.086
3830.306
4028.703
4117.298
4184.811
4253.594
4248.752
4074.693
4108.575
4233.383
4323.521
4412.446
4500.683
4584.055
4664.612
4742.804
4818.635
4892.31
4963.835
5033.149
5100.312
5165.383
5228.408
5288.732
5345.615
5398.864
5448.453
5495.659
5542.443
5589.931
5637.806
5684.995
5730.509
5773.825
5814.821
5853.727
5891.035
5927.095
5962.031
5996.068
6029.345
6062.201
6095.043
6128.221
6161.905
6195.019
6224.832
6244.783
6258.373
6282.856
6322.453
6360.725
6395.829
6427.698
6457.494
6486.415
6516.218
6548.462
6577.172
6606.982
6639.611
6674.977
6712.706
6751.94
6792.289
6833.362
6875.007
6916.946
6958.913
7000.639
7041.771
7081.857
7120.638
7158.397
7195.651
7232.45
7268.482
7303.686
7338.068
7371.689
7404.32
7435.528
7462.895
7481.238
7481.177
7490.221
7511.526
7534.678
7553.952
7568.413
7578.952
7585.58
7588.952
7590.864
7593.206
7596.241
7599.382
7601.444
7602.103
7601.168
7598.367
7593.288
7585.25
7573.495
7557.421
7536.448
7510.5
7516.492
7478.476
7437.718
7391.925
7342.765
7292.459
7243.649
7199.055
7161.282
7132.529
7114.45
7108.075
7113.838
7131.195
7159.043
7196.141
7240.452
7289.886
7342.362
7395.981
7449.146
7500.611
7549.497
7595.247
7637.494
7676.007
7710.648
7741.391
7768.306
7791.565
7811.085
7827.071
7839.516
7848.283
7852.432
7850.899
7860.004
7865.264
7867.538
7867.808
7866.276
7863.239
7858.92
7853.528
7847.256
7840.298
7832.83
7825.012
7816.993
7808.901
7800.849
7792.936
7785.243
7777.842
7770.786
7764.122
7757.885
7752.097
7746.774
7741.923
7737.545
7733.634
7730.181
7727.177
7724.593
7722.413
7720.634
7719.253
7718.123
7716.964
7702.666
7694.997
7684.956
7685.118
7685.181
7684.777
7685.023
7685.627
7686.359
7687.257
7688.351
7689.603
7690.989
7692.474
7694.018
7695.57
7697.075
7698.522
7699.89
7701.152
7702.321
7703.435
7704.553
7705.608
7706.631
7707.496
7708.163
7708.481
7708.29
7707.488
7706.077
7704.153
7701.861
7699.36
7696.602
7693.551
7690.083
7686.026
7681.176
7675.333
7668.338
7660.167
7650.569
7639.809
7627.96
7614.879
7600.231
7584.899
7569.584
7554.607
7540.391
7527.368
7515.945
7505.047
7494.877
7490.676
7487.098
7484.491
7483.081
7483.363
7486.539
7492.105
7500.273
7511.011
7523.871
7538.424
7553.992
7569.607
7584.248
7597.069
7607.411
7614.804
7619.211
7620.78
7619.611
7615.693
7609.059
7600.176
7590.02
7579.747
7570.296
7561.793
7553.916
7546.398
7539.539
7533.026
7525.172
7518.845
7515.25
7513.917
7513.26
7513.247
7514.23
7515.997
7518.471
7521.608
7525.29
7529.363
7533.686
7538.098
7542.501
7546.775
7550.921
7554.891
7558.668
7562.27
7565.683
7568.911
7571.968
7574.842
7577.546
7580.083
7582.456
7584.654
7586.673
7588.503
7590.134
7591.557
7592.76
7593.728
7594.446
7594.896
7595.058
7594.909
7594.422
7593.566
7592.304
7590.586
7588.353
7585.518
7581.975
7577.567
7572.084
7564.951
7555.476
7543.208
7531.55
7541.577
7612.697
5937.901
5792.386
5619.72
5452.052
5286.436
5124.623
4967.582
4815.551
4668.804
4501.938
4363.484
4238.236
4113.337
3998.547
3891.313
3791.879
3700.966
3615.104
3487.734
3438.906
3365.249
3294.963
3237.289
3185.317
3137.988
3095.523
3056.74
3023.759
2997.871
2958.116
2933.138
2912.397
2892.622
2875.877
2860.828
2847.483
2837.744
2836.586
2812.383
2797.94
2793.829
2789.938
2785.227
2781.052
2776.859
2772.539
2768.084
2757.249
2753.844
2750.307
2744.731
2739.044
2734.556
2731.548
2730.847
2738.745
2660.323
2664.634
2673.106
2680.654
2686.839
2693.07
2700.509
2709.544
2719.82
2730.682
2744.635
2760.837
2776.593
2793.424
2813.017
2836.954
2868.347
2908.824
2955.112
2997.03
3011.919
3010.091
3021.237
3035.378
3038.824
3030.205
3017.183
3006.733
3002.017
3002.895
3008.497
3018.362
3032.358
3050.42
3072.492
3098.749
3130.113
3168.494
3216.652
3276.595
3349.651
3435.909
3536.659
3643.824
3735.456
3801.734
3844.694
3863.16
3871.351
3907.248
3976.482
4060.677
4148.149
4233.527
4315.147
4393.628
4469.677
4543.369
4614.52
4683.117
4749.252
4812.997
4874.794
4935.344
4992.535
5047.1
5100.685
5152.202
5202.529
5252.538
5302.419
5351.769
5399.854
5445.987
5489.656
5530.704
5569.263
5605.616
5640.131
5673.085
5704.717
5735.313
5765.368
5795.047
5824.512
5853.886
5881.968
5907.212
5929.898
5954.378
5982.49
6017.118
6052.971
6087.963
6121.763
6154.546
6186.441
6218.397
6250.984
6283.914
6317.393
6352.081
6388.116
6425.006
6462.449
6500.74
6540.168
6580.598
6621.584
6662.64
6703.527
6743.95
6783.65
6822.58
6860.78
6898.327
6935.316
6971.535
7006.673
7041.036
7073.95
7104.582
7133.581
7157.517
7175.468
7186.04
7198.68
7218.858
7238.141
7254.792
7268.177
7278.317
7285.273
7289.932
7293.734
7297.028
7299.256
7299.499
7298.73
7297.859
7296.506
7294.254
7290.066
7282.475
7270.692
7254.334
7233.503
7207.935
7243.295
7208.718
7165.153
7118.118
7067.756
7015.903
6965.308
6919.057
6879.818
6849.775
6830.526
6823.164
6828.152
6844.804
6872.285
6909.083
6953.247
7002.632
7055.107
7108.726
7161.861
7213.23
7261.968
7307.61
7349.797
7388.28
7422.936
7453.741
7480.762
7504.098
7523.797
7540.009
7552.847
7562.352
7568.769
7573.344
7578.407
7582.781
7584.835
7585.168
7583.832
7581.053
7577.022
7571.925
7565.949
7559.274
7552.072
7544.5
7536.703
7528.811
7520.938
7513.186
7505.639
7498.37
7491.439
7484.893
7478.769
7473.095
7467.888
7463.157
7458.906
7455.128
7451.816
7448.954
7446.527
7444.512
7442.899
7441.668
7440.895
7441.634
7379.527
7381.37
7380.551
7378.619
7377.552
7377.566
7378.122
7378.852
7379.679
7380.629
7381.707
7382.894
7384.159
7385.478
7386.823
7388.16
7389.461
7390.716
7391.915
7393.051
7394.142
7395.225
7396.232
7397.406
7398.507
7399.498
7400.374
7401.051
7401.425
7401.394
7400.865
7399.769
7398.089
7395.833
7393.029
7389.725
7385.931
7381.575
7376.468
7370.375
7363.129
7354.616
7344.759
7333.581
7321.123
7307.461
7292.752
7277.415
7261.951
7246.798
7232.371
7219.077
7207.268
7197.085
7188.207
7182.098
7178.029
7175.997
7176.252
7176.758
7178.783
7183.269
7189.532
7197.778
7208.166
7220.811
7234.72
7248.607
7261.486
7272.612
7281.506
7287.832
7291.408
7292.297
7290.637
7286.592
7280.557
7272.587
7263.767
7255.252
7247.289
7240.049
7233.168
7226.431
7220.064
7214.508
7209.373
7205.765
7204.079
7204.218
7205.287
7206.82
7208.787
7211.141
7214.04
7217.435
7221.228
7225.335
7229.648
7234.048
7238.438
7242.721
7246.867
7250.847
7254.613
7258.158
7261.507
7264.651
7267.616
7270.338
7272.905
7275.311
7277.548
7279.597
7281.488
7283.191
7284.696
7285.993
7287.072
7287.918
7288.52
7288.855
7288.91
7288.657
7288.08
7287.141
7285.818
7284.061
7281.833
7279.062
7275.7
7271.642
7266.887
7261.499
7256.146
7252.254
7252.356
7258.05
7269.704
2985.51
3023.813
3081.209
3154.569
3245.131
3351.881
3474.522
3612.493
3765.302
3930.273
4089.303
4275.246
4467.753
4666.251
4868.945
5073.285
5275.546
5472.999
5666.951
5841.587
6012.255
6170.222
6312.915
6436.244
6537.385
6614.375
6665.993
6691.029
6695.388
6670.127
6619.103
6545.991
6452.713
6341.404
6214.426
6074.223
5923.665
5765.764
5590.96
5425.238
5255.641
5086.89
4920.649
4758.205
4600.854
4449.41
4304.886
4166.642
4031.78
3907.095
3787.79
3675.595
3571.258
3474.534
3386.159
3313.696
3132.983
3064.394
3007.511
2952.095
2898.271
2848.111
2802.709
2762.011
2725.641
2692.587
2662.667
2637.191
2614.436
2593.336
2574.3
2557.704
2543.318
2530.849
2519.826
2509.773
2501.58
2494.521
2488.039
2482.321
2477.359
2472.716
2467.888
2462.505
2456.516
2450.927
2445.305
2439.041
2432.752
2427.092
2422.272
2418.574
2415.864
2414.941
2416.08
2420.471
2426.078
2431.088
2436.336
2442.607
2450.165
2459.023
2469.107
2480.685
2493.78
2508.017
2523.566
2540.929
2560.738
2584.073
2611.365
2641.44
2673.178
2704.818
2725.393
2731.052
2735.675
2745.301
2751.453
2749.249
2742.328
2736.653
2734.994
2738.011
2745.478
2757.208
2773.206
2793.526
2818.294
2847.821
2882.753
2924.076
2973.068
3031.47
3100.611
3177.363
3260.114
3348.164
3430.905
3499.07
3552.49
3597.628
3637.946
3683.819
3749.423
3832.471
3920.614
4006.61
4088.591
4166.877
4242.103
4314.397
4383.55
4449.533
4512.638
4573.219
4632.761
4690.659
4744.406
4797.95
4851.704
4904.313
4956.485
5008.731
5060.951
5112.601
5162.862
5210.939
5256.252
5298.499
5337.644
5373.865
5407.48
5438.847
5468.332
5496.344
5523.306
5549.667
5575.733
5601.348
5626.35
5650.605
5673.836
5698.223
5725.972
5758.382
5792.794
5827.621
5862.699
5897.979
5933.323
5968.68
6004.36
6040.354
6076.192
6112.017
6148.368
6185.596
6223.542
6261.94
6300.674
6339.937
6379.809
6419.971
6460.144
6500.076
6539.522
6578.406
6616.724
6654.423
6691.463
6727.679
6762.739
6796.529
6828.806
6858.997
6886.674
6911.056
6930.782
6945.722
6960.509
6977.673
6994.887
7009.904
7022.428
7032.587
7040.121
7045.083
7048.226
7050.824
7053.858
7057.491
7060.02
7060.052
7057.883
7054.835
7050.349
7042.97
7031.722
7015.936
6994.84
6967.206
6930.988
6891.708
6846.228
6795.313
6741.067
6685.632
6631.895
6583.569
6543.758
6514.281
6496.477
6491.451
6499.352
6519.835
6551.45
6592.383
6640.438
6693.209
6748.411
6803.833
6857.946
6909.907
6959.052
7004.831
7046.807
7084.785
7118.72
7148.666
7174.741
7197.087
7215.898
7231.403
7243.808
7253.369
7260.546
7266.021
7270.364
7273.478
7274.965
7274.796
7273.127
7270.075
7265.812
7260.538
7254.435
7247.676
7240.425
7232.836
7225.049
7217.188
7209.365
7201.679
7194.213
7187.037
7180.21
7173.781
7167.784
7162.247
7157.187
7152.614
7148.529
7144.928
7141.8
7139.131
7136.898
7135.087
7133.66
7132.618
7131.886
7131.567
7131.104
7130.004
7129.214
7129.226
7129.848
7130.758
7131.762
7132.793
7133.844
7134.93
7136.059
7137.221
7138.397
7139.572
7140.728
7141.852
7142.929
7143.961
7144.946
7145.891
7146.807
7147.707
7148.573
7149.472
7150.429
7151.418
7152.434
7153.415
7154.26
7154.807
7154.913
7154.472
7153.438
7151.804
7149.574
7146.74
7143.288
7139.133
7134.093
7128.047
7120.853
7112.332
7102.389
7091.079
7078.458
7064.655
7049.87
7034.41
7018.71
7003.224
6988.368
6974.525
6962.016
6951.157
6942.232
6935.504
6930.966
6928.97
6929.438
6930.523
6932.65
6936.085
6940.629
6946.638
6954.704
6964.904
6977.085
6989.788
7001.857
7012.594
7021.527
7028.193
7032.149
7033.117
7031.185
7026.949
7020.781
7013.011
7004.986
6997.186
6989.877
6983.098
6976.792
6970.797
6965.298
6960.56
6956.623
6953.94
6953.263
6954.639
6957.247
6960.156
6963.132
6965.907
6969.216
6973.02
6977.039
6981.239
6985.589
6990.009
6994.408
6998.668
7002.872
7007.003
7010.861
7014.441
7017.812
7020.965
7023.903
7026.641
7029.203
7031.592
7033.779
7035.786
7037.618
7039.231
7040.653
7041.88
7042.892
7043.678
7044.222
7044.513
7044.531
7044.26
7043.678
7042.766
7041.494
7039.844
7037.776
7035.279
7032.321
7028.95
7025.253
7021.542
7018.228
7016.016
7015.441
7017.738
7023.133
2885.102
2857.643
2826.729
2782.828
2754.124
2701.729
2692.862
2700.294
2721.11
2721.72
2705.18
2702.405
2720.642
2756.229
2808.828
2877.186
2961.564
3061.2
3176.258
3306.274
3449.694
3607.028
3775.469
3954.136
4141.197
4334.539
4532.011
4731.205
4929.606
5124.974
5316.763
5477.544
5653.556
5808.888
5946.037
6063.629
6159.189
6231.145
6278.46
6300.875
6298.876
6270.702
6216.795
6139.861
6042.793
5928.193
5798.526
5656.205
5503.71
5343.559
5178.208
5010.477
4841.997
4674.817
4510.818
4351.463
4197.701
4050.062
3908.948
3774.634
3646.571
3524.639
3409.343
3301.213
3200.58
3107.406
3021.395
2941.367
2863.728
2796.479
2739.049
2684.356
2631.541
2582.493
2538.131
2498.35
2462.625
2430.872
2403.164
2378.477
2356.203
2336.393
2318.82
2303.235
2289.417
2277.13
2266.413
2257.844
2250.709
2244.01
2238.375
2233.918
2229.971
2225.845
2221.091
2215.644
2209.756
2203.523
2197.039
2190.484
2183.871
2177.447
2171.606
2166.921
2164.011
2163.555
2165.292
2168.832
2173.65
2179.401
2185.855
2192.838
2200.507
2209.162
2219.112
2230.443
2242.789
2256.063
2270.825
2287.355
2305.642
2326.056
2348.472
2372.271
2396.726
2420.484
2438.494
2447.707
2453.318
2459.938
2465.237
2466.357
2464.46
2462.771
2463.498
2468.031
2476.962
2490.444
2508.469
2530.949
2557.937
2589.609
2626.309
2668.668
2717.594
2773.846
2837.298
2906.54
2980.184
3057.09
3132.573
3202.011
3264.578
3323.464
3380.681
3442.057
3515.25
3600.16
3689.641
3777.573
3861.53
3941.231
4016.877
4088.466
4155.922
4219.465
4279.668
4337.179
4392.826
4446.849
4498.406
4550.484
4603.203
4656.093
4709.507
4763.55
4817.832
4871.609
4923.98
4974.09
5021.249
5065.007
5105.163
5141.743
5174.962
5205.167
5232.793
5258.333
5282.301
5305.228
5327.547
5349.579
5371.571
5393.068
5415.175
5439.407
5466.533
5496.454
5529.042
5563.233
5598.664
5635.022
5672.041
5709.6
5747.708
5786.291
5825.127
5863.977
5902.785
5941.771
5980.846
6019.814
6058.774
6097.854
6137.216
6176.893
6216.715
6256.469
6295.947
6335.041
6373.656
6411.643
6448.886
6485.171
6520.149
6553.648
6585.461
6615.002
6641.976
6666.364
6686.631
6702.886
6718.191
6733.644
6748.694
6761.927
6772.864
6781.452
6787.642
6791.773
6794.971
6798.697
6802.771
6805.928
6808.375
6811.057
6813.528
6813.301
6808.957
6801.03
6789.229
6772.634
6750.396
6721.423
6685.853
6645.541
6598.746
6545.432
6487.819
6428.625
6370.752
6318.149
6274.999
6243.367
6224.025
6218.281
6226.496
6248.05
6281.584
6325.05
6375.97
6431.55
6488.963
6546.172
6602.067
6655.783
6706.429
6753.326
6796.111
6834.651
6868.965
6899.17
6925.443
6947.979
6966.989
6982.702
6995.316
7005.137
7012.629
7018.218
7022.255
7024.862
7025.975
7025.638
7024.007
7021.065
7016.859
7011.624
7005.561
6998.842
6991.629
6984.075
6976.316
6968.48
6960.676
6953.004
6945.549
6938.383
6931.566
6925.149
6919.169
6913.656
6908.629
6904.1
6900.071
6896.54
6893.495
6890.922
6888.799
6887.107
6885.806
6884.88
6884.243
6883.844
6883.541
6883.472
6883.773
6884.291
6884.914
6885.66
6886.545
6887.535
6888.588
6889.677
6890.785
6891.895
6892.988
6894.047
6895.056
6896.005
6896.887
6897.703
6898.454
6899.145
6899.785
6900.385
6900.956
6901.529
6902.155
6902.832
6903.705
6904.502
6905.212
6905.778
6906.099
6906.07
6905.615
6904.686
6903.211
6901.086
6898.214
6894.534
6889.926
6884.091
6876.839
6868.216
6858.208
6846.815
6834.057
6820.082
6805.118
6789.478
6773.565
6757.81
6742.635
6728.44
6715.588
6704.408
6695.14
6687.976
6683.077
6680.542
6680.383
6681.953
6684.499
6688.426
6693.3
6698.771
6705.815
6714.319
6724.362
6735.291
6745.915
6755.834
6764.558
6771.256
6775.472
6776.973
6775.834
6772.299
6766.042
6757.652
6749.459
6741.9
6735.17
6729.043
6723.454
6718.163
6713.13
6708.572
6704.641
6701.354
6700.679
6703.043
6707.344
6711.724
6715.735
6719.284
6723.032
6727.651
6732.167
6736.625
6741.109
6745.606
6750.089
6754.506
6758.629
6762.798
6766.845
6770.489
6773.952
6777.205
6780.232
6783.034
6785.626
6788.016
6790.202
6792.202
6793.985
6795.635
6796.982
6798.16
6799.135
6799.888
6800.406
6800.678
6800.689
6800.427
6799.874
6799.017
6797.839
6796.33
6794.48
6792.292
6789.798
6787.053
6784.217
6781.446
6779.102
6777.352
6776.783
6777.461
6780.075
3124.46
3095.804
3069.662
3017.31
2972.845
2893.596
2848.015
2801.829
2755.919
2710.37
2665.657
2623.33
2582.045
2543.442
2509.055
2478.384
2390.231
2374.391
2366.838
2363.146
2359.11
2359.627
2370.426
2394.872
2434.302
2488.974
2558.036
2642.439
2743.201
2859.458
2990.617
3135.76
3293.903
3464.026
3644.453
3833.002
4027.544
4225.906
4425.629
4624.325
4819.348
5006.679
5175.84
5345.043
5498.668
5635.393
5752.663
5848.144
5920.247
5967.352
5988.606
5984.321
5954.452
5899.56
5821.791
5724.027
5609.057
5479.436
5337.498
5185.609
5026
4860.832
4693.038
4525.116
4359.105
4196.588
4038.749
3886.704
3741.124
3602.512
3470.638
3344.707
3225.031
3112.18
3006.492
2908.094
2817.194
2733.164
2656.113
2585.656
2522.209
2465.223
2412.203
2362.063
2315.284
2272.409
2233.611
2198.887
2168.329
2141.724
2118.386
2097.852
2079.756
2063.549
2048.789
2035.35
2023.355
2013.09
2005.246
1999.12
1993.889
1990.181
1987.429
1984.557
1980.963
1976.528
1971.168
1964.59
1957.487
1950.455
1943.15
1935.329
1927.367
1919.921
1913.898
1910.17
1909.268
1911.121
1915.241
1921.085
1928.454
1936.027
1943.094
1950.28
1958.299
1967.679
1978.513
1990.325
2002.724
2016.405
2031.285
2046.996
2064.081
2082.647
2102.092
2121.518
2139.873
2154.574
2164.025
2170.303
2175.812
2180.536
2183.314
2184.4
2185.148
2186.997
2192.261
2202.284
2217.447
2237.536
2262.036
2290.816
2323.99
2361.648
2404.322
2452.524
2506.249
2565.113
2628.501
2695.43
2764.929
2835.277
2904.898
2973.277
3041.489
3111.811
3187.398
3270.868
3361.633
3455.575
3548.082
3636.344
3719.279
3796.567
3868.107
3934.018
3994.772
4051.141
4104.082
4154.755
4204.166
4252.966
4302.526
4353.52
4406.12
4460.42
4516.215
4572.858
4629.363
4684.613
4737.542
4787.253
4833.095
4874.683
4911.902
4944.888
4973.962
4999.605
5022.423
5043.068
5062.273
5080.686
5098.701
5116.747
5135.159
5155.553
5177.264
5201.651
5229.38
5260.409
5293.71
5329.046
5366.181
5404.839
5444.717
5485.541
5527.046
5568.856
5610.582
5652.063
5693.265
5733.989
5774.147
5813.879
5853.436
5893.084
5932.91
5972.881
6012.894
6052.797
6092.448
6131.686
6170.299
6208.075
6244.749
6279.974
6313.472
6344.935
6373.753
6400.091
6424.273
6443.944
6460.222
6475.139
6488.91
6501.313
6511.724
6519.961
6526.24
6530.854
6534.207
6536.951
6539.53
6542.022
6545.071
6548.878
6552.251
6554.861
6557.162
6557.956
6553.838
6542.797
6525.334
6501.949
6472.467
6436.703
6394.591
6345.369
6289.265
6228.246
6165.188
6103.383
6046.687
5999.853
5965.89
5945.614
5940.234
5950.227
5974.024
6010.745
6057.994
6112.672
6171.32
6231.248
6291.061
6349.578
6405.359
6457.492
6505.427
6548.9
6587.866
6622.424
6652.759
6679.109
6701.731
6720.877
6736.797
6749.739
6759.97
6767.803
6773.506
6777.299
6779.396
6779.998
6779.235
6777.17
6773.873
6769.435
6764.019
6757.804
6750.956
6743.631
6735.978
6728.132
6720.218
6712.347
6704.616
6697.11
6689.902
6683.054
6676.614
6670.623
6665.111
6660.098
6655.597
6651.611
6648.138
6645.167
6642.682
6640.662
6639.081
6637.905
6637.101
6636.613
6636.411
6636.477
6636.8
6637.318
6637.939
6638.688
6639.611
6640.69
6641.865
6643.078
6644.289
6645.476
6646.621
6647.706
6648.71
6649.621
6650.429
6651.13
6651.728
6652.227
6652.634
6652.96
6653.224
6653.438
6653.637
6653.887
6654.294
6654.673
6655.153
6655.622
6656.035
6656.313
6656.34
6656.071
6655.533
6654.649
6653.218
6650.989
6647.782
6643.562
6638.185
6631.355
6622.882
6612.831
6601.384
6588.614
6574.58
6559.511
6543.746
6527.676
6511.718
6496.292
6481.826
6468.695
6457.211
6447.625
6440.115
6434.796
6431.659
6430.688
6431.594
6434.212
6438.753
6444.304
6450.395
6457.146
6464.559
6472.717
6481.763
6490.867
6499.51
6507.158
6513.192
6517.234
6519.028
6518.571
6515.693
6509.654
6500.922
6492.21
6484.999
6479.497
6475.194
6471.076
6466.87
6462.576
6458.233
6453.962
6449.562
6448.083
6451.572
6457.682
6462.641
6467.065
6471.781
6476.507
6482.058
6487.253
6492.019
6496.658
6501.243
6505.78
6510.292
6514.483
6518.619
6522.74
6526.569
6530.168
6533.542
6536.676
6539.559
6542.223
6544.66
6546.884
6548.897
6550.687
6552.232
6553.654
6554.821
6555.776
6556.511
6557.013
6557.277
6557.29
6557.045
6556.53
6555.738
6554.662
6553.302
6551.666
6549.77
6547.667
6545.411
6543.14
6540.954
6539.107
6537.678
6537.067
6537.136
6538.5
3267.659
3235.655
3199.349
3150.601
3115.647
3045.235
3009.945
2974.76
2938.67
2901.476
2863.897
2825.828
2785.529
2744.339
2700.091
2587.906
2542.117
2496.365
2450.576
2405.021
2359.918
2316.103
2273.783
2233.406
2196.136
2163.277
2135.07
2112.495
2095.838
2084.338
2078.195
2079.99
2091.931
2115.793
2153.212
2205.19
2272.894
2356.047
2454.714
2568.874
2698.094
2841.521
2998.026
3166.268
3344.638
3531.13
3723.68
3920.138
4117.986
4314.463
4507.003
4692.331
4866.818
5032.91
5184.998
5320.302
5435.698
5528.587
5597.246
5640.337
5657.078
5647.63
5612.797
5553.82
5472.865
5372.764
5256.412
5126.394
4984.816
4833.846
4675.371
4511.612
4345.536
4179.253
4015.177
3855.444
3701.163
3553.337
3412.594
3278.676
3150.553
3027.914
2911.643
2802.181
2699.727
2604.531
2516.984
2437.032
2364.688
2299.147
2239.381
2184.786
2134.374
2087.109
2042.66
2001.295
1963.502
1929.767
1900.45
1875.591
1854.583
1836.45
1820.384
1805.677
1791.817
1778.832
1767.077
1756.891
1749.271
1745.584
1743.347
1741.842
1741.101
1739.563
1736.756
1731.954
1725.662
1719.672
1712.659
1704.489
1695.686
1685.742
1675.443
1665.784
1657.977
1653.083
1651.809
1654.406
1660.016
1667.068
1676.926
1686.143
1692.56
1698.736
1705.9
1714.763
1725.401
1736.661
1747.21
1759.81
1773.543
1786.336
1800.228
1815.661
1831.205
1846.068
1861.266
1873.551
1880.672
1886.326
1891.732
1896.584
1899.956
1902.319
1904.242
1905.18
1910.064
1920.931
1938.052
1960.654
1987.227
2017.431
2051.655
2089.593
2132.074
2179.512
2231.175
2286.211
2344.192
2404.953
2468.582
2534.884
2603.782
2675.688
2751.064
2832.169
2920.449
3015.748
3116.416
3219.035
3319.505
3414.616
3502.574
3582.627
3654.627
3718.895
3776.171
3827.613
3874.742
3919.307
3962.934
4006.945
4052.739
4101.35
4153.214
4208.333
4266.265
4326.044
4386.265
4445.406
4502.062
4555.056
4603.503
4646.851
4684.867
4717.627
4745.463
4768.939
4788.782
4805.809
4820.895
4834.834
4848.321
4862.035
4876.673
4893.595
4911.694
4932.076
4957.503
4986.692
5018.938
5054.245
5092.453
5133.14
5175.657
5219.348
5263.674
5308.226
5352.681
5396.761
5440.234
5482.905
5524.724
5565.822
5606.457
5646.913
5687.398
5728.024
5768.793
5809.601
5850.286
5890.629
5930.348
5969.135
6006.656
6042.523
6076.367
6107.876
6136.681
6162.594
6185.715
6204.835
6220.109
6233.155
6244.432
6253.519
6260.399
6265.245
6268.43
6270.321
6271.286
6271.86
6272.558
6273.967
6276.507
6279.674
6283.055
6286.927
6290.561
6292.424
6291.328
6285.56
6272.299
6250.421
6220.773
6183.744
6139.368
6087.722
6029.252
5965.524
5899.27
5834.039
5773.888
5723.525
5686.97
5665.982
5661.503
5673.757
5700.506
5741.086
5792.308
5850.191
5911.781
5975.106
6038.224
6099.264
6156.888
6210.288
6259.02
6302.93
6342.077
6376.652
6406.911
6433.146
6455.669
6474.775
6490.73
6503.79
6514.202
6522.226
6528.068
6531.915
6533.967
6534.411
6533.403
6530.896
6527.041
6522.192
6516.486
6510.041
6502.998
6495.505
6487.705
6479.732
6471.706
6463.738
6455.924
6448.346
6441.079
6434.182
6427.706
6421.692
6416.171
6411.164
6406.686
6402.741
6399.326
6396.431
6394.039
6392.13
6390.675
6389.643
6389.001
6388.712
6388.743
6389.06
6389.608
6390.336
6391.224
6392.281
6393.497
6394.831
6396.224
6397.624
6398.992
6400.303
6401.53
6402.649
6403.639
6404.484
6405.174
6405.709
6406.09
6406.325
6406.421
6406.395
6406.274
6406.069
6405.826
6405.653
6405.614
6405.67
6405.785
6405.914
6406.008
6406.006
6405.769
6405.299
6404.828
6404.313
6403.429
6401.81
6399.2
6395.388
6390.334
6383.951
6376.001
6366.312
6355.003
6342.286
6328.295
6313.245
6297.461
6281.339
6265.293
6249.738
6235.092
6221.739
6210.006
6200.157
6192.354
6186.668
6183.056
6181.519
6181.888
6184.054
6187.955
6193.221
6199.754
6206.479
6213.265
6220.709
6228.865
6237.09
6244.818
6251.527
6256.761
6260.228
6261.665
6260.923
6257.758
6251.446
6242.22
6232.542
6225.308
6222.056
6221.105
6218.773
6215.892
6213.169
6209.942
6206.819
6204.104
6203.478
6206.068
6210.132
6213.24
6217.249
6223.402
6230.232
6236.589
6242.503
6247.599
6252.373
6257.011
6261.557
6266.051
6270.407
6274.669
6278.815
6282.748
6286.464
6289.96
6293.211
6296.172
6298.951
6301.473
6303.768
6305.822
6307.646
6309.246
6310.635
6311.809
6312.758
6313.485
6313.983
6314.246
6314.27
6314.047
6313.574
6312.848
6311.871
6310.651
6309.205
6307.557
6305.761
6303.867
6301.983
6300.189
6298.656
6297.452
6296.8
6296.633
6297.314
3214.387
3172.046
3134.981
3086.037
3036.017
2990.344
2948.07
2909.167
2872.959
2836.63
2735.065
2700.421
2665.82
2630.481
2594.111
2556.66
2517.976
2477.695
2435.846
2393.043
2350.14
2305.129
2259.496
2213.481
2167.505
2121.674
2076.347
2031.696
1987.871
1945.745
1906.815
1873.093
1844.712
1822.016
1806.258
1798.521
1800.085
1812.396
1836.748
1873.96
1925.291
1991.423
2072.784
2169.564
2281.749
2408.966
2550.444
2705.116
2871.501
3047.974
3232.388
3422.617
3615.746
3809.449
4001.782
4190.042
4371.867
4544.856
4706.982
4854.886
4985.129
5094.756
5181.381
5243.233
5279.197
5288.737
5272.057
5230.319
5165.368
5079.783
4976.495
4858.384
4728.204
4587.73
4438.784
4283.156
4122.417
3959.561
3796.937
3636.178
3479.748
3330.06
3188.426
3054.704
2927.573
2805.878
2689.685
2579.407
2475.159
2377.218
2286.251
2203.094
2128.207
2061.199
2000.792
1945.869
1895.577
1848.99
1805.08
1763.237
1723.598
1686.944
1654.336
1626.551
1604.084
1586.308
1571.352
1557.826
1544.93
1532.044
1519.53
1508.03
1498.198
1491.201
1489.694
1492.101
1494.373
1495.345
1495.175
1493.156
1488.737
1482.193
1475.749
1468.937
1459.77
1448.306
1435.057
1421.168
1408.171
1397.975
1391.908
1390.755
1395.102
1403.487
1412.729
1423.743
1435.537
1441.282
1446.088
1452.459
1461.237
1472.341
1483.604
1491.624
1501.058
1513.801
1524.527
1535.759
1549.055
1561.659
1571.885
1582.376
1592.885
1597.314
1601.95
1607.69
1613.025
1616.934
1618.9
1619.553
1617.79
1620.829
1632.203
1651.83
1677.886
1706.974
1738.681
1774.152
1811.685
1853.599
1900.37
1950.369
2002.115
2054.98
2109.219
2166.205
2227.482
2294.668
2369.129
2449.275
2539.491
2640.288
2749.587
2864.337
2980.207
3092.509
3197.463
3292.665
3376.858
3449.695
3511.921
3564.826
3610.001
3649.509
3685.838
3721.639
3758.903
3799.585
3845.079
3895.875
3951.915
4012.553
4076.505
4141.746
4206.125
4267.739
4325.046
4376.868
4422.476
4461.554
4494.147
4520.61
4541.59
4557.971
4570.827
4581.232
4590.126
4598.384
4606.872
4616.454
4628.168
4642.125
4658.928
4680.762
4707.213
4738.047
4773.353
4813.022
4856.362
4902.135
4949.142
4996.587
5043.988
5091.107
5137.684
5183.459
5228.224
5271.898
5314.582
5356.553
5398.17
5439.755
5481.528
5523.583
5565.865
5608.189
5650.256
5691.7
5732.106
5771.043
5808.058
5842.71
5874.666
5903.547
5928.995
5950.939
5968.992
5982.757
5993.431
6001.376
6006.544
6009.186
6009.679
6008.495
6006.147
6003.235
6000.509
5998.699
5998.307
5999.353
6001.826
6005.658
6010.061
6014.116
6017.17
6018.087
6015.001
6005.962
5989.417
5963.654
5927.677
5882.313
5828.816
5768.234
5702.138
5633.28
5565.403
5502.774
5449.844
5411.364
5390.217
5387.402
5403.102
5432.296
5475.972
5530.206
5591.346
5656.703
5723.615
5789.518
5852.556
5911.523
5965.715
6014.807
6058.752
6097.706
6131.959
6161.843
6187.707
6209.916
6228.749
6244.459
6257.336
6267.648
6275.659
6281.549
6285.432
6287.468
6287.816
6286.562
6283.746
6279.586
6274.442
6268.483
6261.81
6254.563
6246.892
6238.935
6230.825
6222.681
6214.609
6206.704
6199.049
6191.715
6184.762
6178.242
6172.197
6166.66
6161.655
6157.197
6153.292
6149.94
6147.129
6144.844
6143.062
6141.756
6140.897
6140.453
6140.389
6140.666
6141.243
6142.071
6143.117
6144.357
6145.761
6147.296
6148.916
6150.57
6152.211
6153.795
6155.285
6156.647
6157.85
6158.868
6159.682
6160.281
6160.657
6160.815
6160.759
6160.501
6160.069
6159.513
6158.826
6158.063
6157.436
6157.027
6156.748
6156.496
6156.242
6155.94
6155.548
6154.866
6153.864
6153.243
6152.944
6152.432
6151.179
6148.936
6145.561
6140.984
6135.045
6127.587
6118.435
6107.573
6095.15
6081.38
6066.513
6050.872
6034.851
6018.874
6003.361
5988.687
5975.241
5963.37
5953.334
5945.293
5939.283
5935.348
5933.39
5933.296
5934.924
5938.156
5942.851
5948.732
5955.202
5962.034
5969.256
5976.769
5984.313
5991.478
5997.702
6002.457
6005.491
6006.341
6004.55
6000.343
5993.298
5982.833
5970.894
5962.647
5962.024
5965.477
5966.103
5964.828
5964.482
5962.937
5961.865
5963.54
5965.199
5965.379
5963.806
5962.098
5964.828
5973.38
5984.196
5991.858
5998.362
6003.611
6008.384
6013.001
6017.507
6022.051
6026.485
6030.809
6035.011
6039.042
6042.884
6046.536
6049.892
6053.003
6055.842
6058.419
6060.837
6062.968
6064.849
6066.494
6067.909
6069.093
6070.048
6070.778
6071.281
6071.553
6071.592
6071.395
6070.962
6070.297
6069.408
6068.306
6067.016
6065.566
6064.003
6062.375
6060.766
6059.243
6057.917
6056.85
6056.155
6055.835
6056.024
2959.655
2902.566
2784.509
2741.618
2699.652
2660.471
2623.769
2588.979
2555.421
2522.748
2490.864
2458.081
2424.601
2390.095
2354.52
2317.583
2279.145
2239.035
2197.071
2153.591
2109.773
2064.754
2018.829
1972.448
1925.81
1878.434
1830.208
1781.89
1734.353
1688.44
1645.867
1608.471
1576.99
1551.959
1534.491
1525.682
1526.645
1538.495
1562.075
1598.741
1649.074
1713.82
1793.542
1888.55
1998.837
2124.055
2263.437
2416.025
2580.101
2753.939
2934.832
3119.992
3307.407
3495.564
3683.191
3867.701
4045.599
4213.734
4369.263
4509.376
4630.909
4731.186
4808.107
4860.1
4886.291
4886.428
4860.849
4811.007
4739.094
4647.999
4541.156
4421.245
4291.197
4153.211
4008.206
3857.692
3702.965
3544.824
3385.898
3229.175
3077.292
2933.345
2799.129
2673.918
2555.864
2443.379
2335.739
2232.813
2134.751
2042.04
1955.671
1877.004
1807.42
1746.616