/*--------------------------------*- C++ -*----------------------------------*\
| =========                 |                                                 |
| \\      /  F ield         | foam-extend: Open Source CFD                    |
|  \\    /   O peration     | Version:     3.1                                |
|   \\  /    A nd           | Web:         http://www.extend-project.de       |
|    \\/     M anipulation  |                                                 |
\*---------------------------------------------------------------------------*/
FoamFile
{
    version     2.0;
    format      ascii;
    class       volScalarField;
    location    "14.5";
    object      pd;
}
// * * * * * * * * * * * * * * * * * * * * * * * * * * * * * * * * * * * * * //

dimensions      [1 -1 -2 0 0 0 0];

internalField   nonuniform List<scalar> 
119952
(
5270.676
3726.294
3508.298
3725.296
3958.035
3767.425
3714.152
3674.218
3655.987
3643.775
3638.361
3638.265
3643.746
3653.549
3667.208
3684.166
3703.409
3722.259
3728.028
3674.507
4035.03
3902.304
3870.95
4330.939
4356.693
4448.187
4538.039
4693.006
5051.697
8252.79
3419.919
3364.31
3363.413
3356.617
3350.646
3343.903
3340.575
3337.628
3332.11
3307.813
3295.896
3308.431
3299.823
3294.124
3288.75
3285.799
3283.773
3282.622
3284.069
3310.575
3307.643
3291.609
3293.025
3299.41
3306.13
3314.229
3323.765
3334.228
3352.008
3355.165
3364.912
3384.316
3403.254
3423.017
3444.865
3468.018
3502.427
3593.877
3774.554
3645.658
3600.985
3695.151
3741.321
3724.256
3684.274
3659.836
3645.039
3635.82
3632.543
3634.646
3641.552
3652.707
3667.75
3686.161
3707.185
3730.138
3756.419
3792.754
3860.299
3935.558
3986.649
4136.868
4335.265
4423.86
4491.373
4560.156
4555.315
4381.256
4415.137
4539.946
4630.084
4719.008
4807.245
4890.618
4971.174
5049.367
5125.198
5198.872
5270.397
5339.712
5406.875
5471.946
5534.97
5595.294
5652.178
5705.426
5755.016
5802.222
5849.006
5896.493
5944.368
5991.557
6037.071
6080.387
6121.383
6160.289
6197.597
6233.658
6268.593
6302.63
6335.908
6368.764
6401.605
6434.783
6468.468
6501.582
6531.395
6551.346
6564.936
6589.418
6629.016
6667.287
6702.392
6734.261
6764.056
6792.978
6822.781
6855.024
6883.735
6913.544
6946.174
6981.54
7019.269
7058.502
7098.852
7139.925
7181.569
7223.509
7265.476
7307.202
7348.333
7388.419
7427.2
7464.959
7502.214
7539.012
7575.045
7610.248
7644.631
7678.252
7710.882
7742.091
7769.457
7787.801
7787.74
7796.784
7818.088
7841.241
7860.515
7874.975
7885.514
7892.143
7895.514
7897.427
7899.769
7902.803
7905.944
7908.006
7908.666
7907.73
7904.929
7899.851
7891.813
7880.057
7863.984
7843.011
7817.062
7792.398
7754.383
7713.624
7667.831
7618.671
7568.366
7519.555
7474.961
7437.188
7408.435
7390.356
7383.981
7389.744
7407.101
7434.949
7472.048
7516.359
7565.793
7618.268
7671.888
7725.052
7776.517
7825.403
7871.153
7913.4
7951.914
7986.554
8017.297
8044.213
8067.471
8086.991
8102.978
8115.423
8124.19
8128.338
8126.805
8135.911
8141.17
8143.444
8143.714
8142.182
8139.146
8134.826
8129.434
8123.163
8116.204
8108.736
8100.919
8092.899
8084.807
8076.755
8068.842
8061.15
8053.748
8046.692
8040.028
8033.792
8028.003
8022.68
8017.829
8013.451
8009.54
8006.087
8003.083
8000.5
7998.319
7996.54
7995.159
7994.029
7992.87
8009.228
8001.559
7991.518
7991.681
7991.744
7991.339
7991.586
7992.19
7992.922
7993.819
7994.914
7996.165
7997.552
7999.036
8000.581
8002.133
8003.637
8005.084
8006.452
8007.714
8008.884
8009.997
8011.115
8012.171
8013.193
8014.058
8014.725
8015.044
8014.853
8014.051
8012.639
8010.715
8008.423
8005.923
8003.165
8000.113
7996.646
7992.588
7987.739
7981.895
7974.9
7966.73
7957.132
7946.371
7934.522
7921.441
7906.794
7891.461
7876.147
7861.17
7846.954
7833.93
7822.508
7811.61
7801.439
7797.238
7793.66
7791.016
7788.873
7789.127
7793.008
7798.639
7806.827
7817.574
7830.433
7844.987
7860.555
7876.169
7890.81
7903.631
7913.974
7921.366
7925.773
7927.342
7926.174
7922.255
7915.621
7906.733
7896.563
7886.286
7876.846
7868.353
7860.478
7852.96
7846.094
7839.584
7831.735
7825.407
7821.812
7820.48
7819.822
7819.81
7820.792
7822.559
7825.033
7828.17
7831.853
7835.926
7840.248
7844.661
7849.063
7853.338
7857.483
7861.453
7865.231
7868.832
7872.246
7875.474
7878.53
7881.404
7884.108
7886.646
7889.019
7891.217
7893.235
7895.065
7896.697
7898.12
7899.322
7900.291
7901.009
7901.459
7901.621
7901.471
7900.985
7900.128
7898.867
7897.148
7894.916
7892.08
7888.538
7884.129
7878.646
7871.513
7862.038
7849.771
7838.113
7848.14
7919.259
6471.744
6322.947
6147.013
5976.079
5807.195
5642.114
5481.807
5326.508
5176.657
5023.094
4884.641
4759.393
4634.493
4519.703
4412.469
4313.035
4222.122
4136.26
4039.546
3990.719
3917.062
3846.776
3789.102
3737.13
3689.801
3647.335
3608.552
3575.571
3549.683
3509.929
3484.951
3464.209
3444.434
3427.69
3412.64
3399.295
3389.556
3388.398
3364.196
3349.752
3345.642
3341.751
3337.04
3332.864
3328.671
3324.352
3319.897
3309.062
3305.657
3302.119
3296.544
3290.856
3286.369
3283.361
3282.66
3290.557
3273.448
3277.759
3286.231
3293.779
3299.964
3306.195
3313.634
3322.669
3332.945
3343.807
3357.76
3373.962
3389.718
3406.549
3426.142
3450.079
3481.472
3521.949
3568.237
3610.155
3625.044
3623.216
3634.362
3648.503
3651.949
3643.33
3630.308
3619.858
3615.142
3616.02
3621.622
3631.487
3645.483
3663.545
3685.617
3711.874
3743.238
3781.619
3829.777
3889.72
3962.776
4049.034
4149.784
4256.949
4348.581
4414.859
4457.819
4476.285
4484.476
4520.373
4589.607
4673.802
4761.274
4846.652
4928.272
5006.753
5082.802
5156.494
5227.645
5296.242
5362.377
5426.122
5487.919
5548.469
5605.66
5660.225
5713.81
5765.327
5815.654
5865.663
5915.544
5964.894
6012.979
6059.112
6102.781
6143.829
6182.388
6218.741
6253.256
6286.21
6317.842
6348.438
6378.493
6408.172
6437.637
6467.011
6495.093
6520.337
6543.023
6567.503
6595.615
6630.243
6666.096
6701.088
6734.888
6767.671
6799.566
6831.522
6864.109
6897.039
6930.518
6965.206
7001.241
7038.131
7075.574
7113.865
7153.293
7193.723
7234.709
7275.765
7316.652
7357.075
7396.775
7435.705
7473.905
7511.452
7548.441
7584.66
7619.798
7654.161
7687.075
7717.707
7746.706
7770.642
7788.593
7799.165
7811.805
7831.983
7851.266
7867.917
7881.302
7891.442
7898.398
7903.057
7906.859
7910.153
7912.381
7912.624
7911.855
7910.984
7909.631
7907.379
7903.191
7895.6
7883.817
7867.459
7846.628
7821.06
7795.108
7760.53
7716.966
7669.931
7619.569
7567.715
7517.121
7470.869
7431.631
7401.588
7382.339
7374.976
7379.964
7396.617
7424.097
7460.896
7505.059
7554.444
7606.919
7660.539
7713.674
7765.042
7813.781
7859.422
7901.609
7940.093
7974.748
8005.554
8032.575
8055.911
8075.61
8091.822
8104.66
8114.164
8120.582
8125.157
8130.219
8134.593
8136.647
8136.98
8135.645
8132.866
8128.834
8123.737
8117.762
8111.087
8103.884
8096.312
8088.515
8080.623
8072.751
8064.998
8057.451
8050.182
8043.251
8036.705
8030.582
8024.908
8019.701
8014.97
8010.718
8006.94
8003.628
8000.767
7998.339
7996.324
7994.712
7993.48
7992.707
7993.447
7992.652
7994.495
7993.676
7991.744
7990.677
7990.691
7991.247
7991.977
7992.804
7993.754
7994.832
7996.019
7997.284
7998.603
7999.948
8001.285
8002.586
8003.841
8005.039
8006.176
8007.267
8008.35
8009.357
8010.531
8011.632
8012.623
8013.499
8014.176
8014.55
8014.519
8013.99
8012.894
8011.214
8008.958
8006.154
8002.85
7999.056
7994.7
7989.593
7983.5
7976.254
7967.741
7957.884
7946.706
7934.248
7920.586
7905.877
7890.54
7875.076
7859.923
7845.496
7832.202
7820.393
7810.21
7801.331
7795.207
7790.893
7785.003
7774.178
7774.406
7776.431
7780.916
7791.556
7806.827
7819.926
7833.61
7847.814
7861.732
7874.611
7885.737
7894.631
7900.957
7904.533
7905.422
7903.762
7899.713
7893.628
7885.056
7872.261
7861.402
7856.309
7852.224
7846.232
7839.555
7833.188
7827.631
7822.48
7818.822
7817.139
7817.306
7818.404
7819.944
7821.912
7824.266
7827.165
7830.56
7834.353
7838.46
7842.773
7847.173
7851.563
7855.846
7859.992
7863.972
7867.738
7871.283
7874.632
7877.776
7880.741
7883.463
7886.03
7888.436
7890.673
7892.722
7894.613
7896.316
7897.821
7899.118
7900.197
7901.043
7901.645
7901.98
7902.035
7901.782
7901.205
7900.266
7898.943
7897.186
7894.958
7892.187
7888.825
7884.767
7880.012
7874.624
7869.271
7865.379
7865.481
7871.175
7882.828
3766.496
3801.257
3855.386
3925.479
4012.774
4116.252
4235.63
4370.334
4519.875
4682.698
4855.709
5041.652
5234.159
5432.657
5635.351
5839.691
6041.952
6239.406
6433.357
6638.649
6809.317
6967.285
7109.977
7233.306
7334.448
7411.438
7463.055
7488.092
7492.45
7467.189
7416.166
7343.054
7249.775
7138.466
7011.488
6871.285
6720.728
6562.827
6388.022
6222.301
6052.704
5883.953
5717.711
5555.267
5397.917
5246.473
5101.948
4963.705
4828.842
4704.158
4584.852
4472.657
4368.32
4271.597
4183.221
4110.759
3991.358
3922.769
3865.886
3810.47
3756.646
3706.485
3661.084
3620.386
3584.016
3550.962
3521.042
3495.566
3472.811
3451.711
3432.675
3416.079
3401.693
3389.224
3378.201
3368.148
3359.955
3352.896
3346.414
3340.696
3335.734
3331.091
3326.263
3320.88
3314.891
3309.302
3303.68
3297.416
3291.127
3285.467
3280.647
3276.949
3274.239
3273.316
3274.455
3278.846
3284.453
3289.463
3294.711
3300.982
3308.54
3317.398
3327.482
3339.06
3352.155
3366.392
3381.941
3399.304
3419.113
3442.448
3469.74
3499.815
3531.553
3563.193
3583.768
3589.427
3594.05
3603.676
3609.827
3607.624
3600.702
3595.028
3593.369
3596.386
3603.853
3615.583
3631.581
3651.901
3676.669
3706.196
3741.128
3782.451
3831.443
3889.845
3958.986
4035.738
4118.489
4206.539
4289.28
4357.445
4410.865
4456.003
4496.321
4542.194
4607.798
4690.846
4778.989
4864.985
4946.966
5025.252
5100.478
5172.772
5241.925
5307.908
5371.013
5431.594
5491.136
5549.034
5602.781
5656.325
5710.079
5762.688
5814.86
5867.106
5919.326
5970.976
6021.236
6069.314
6114.627
6156.874
6196.019
6232.24
6265.855
6297.222
6326.707
6354.719
6381.681
6408.042
6434.108
6459.723
6484.725
6508.98
6532.211
6556.598
6584.347
6616.757
6651.169
6685.996
6721.074
6756.354
6791.698
6827.055
6862.735
6898.729
6934.567
6970.392
7006.743
7043.971
7081.917
7120.315
7159.049
7198.312
7238.184
7278.346
7318.519
7358.451
7397.897
7436.781
7475.099
7512.798
7549.838
7586.054
7621.114
7654.904
7687.181
7717.371
7745.049
7769.431
7789.157
7804.097
7818.884
7836.048
7853.262
7868.279
7880.803
7890.962
7898.496
7903.458
7906.601
7909.199
7912.233
7915.866
7918.395
7918.427
7916.258
7913.21
7908.724
7901.345
7890.097
7874.311
7853.215
7825.581
7789.363
7750.083
7704.603
7653.688
7599.442
7544.007
7490.27
7441.944
7402.133
7372.656
7354.852
7349.826
7357.727
7378.21
7409.825
7450.758
7498.813
7551.584
7606.786
7662.208
7716.321
7768.282
7817.427
7863.206
7905.182
7943.16
7977.095
8007.041
8033.116
8055.462
8074.273
8089.778
8102.183
8111.744
8118.921
8124.396
8128.739
8131.853
8133.34
8133.171
8131.502
8128.45
8124.187
8118.913
8112.81
8106.051
8098.8
8091.211
8083.424
8075.563
8067.74
8060.054
8052.588
8045.412
8038.585
8032.156
8026.159
8020.622
8015.562
8010.989
8006.904
8003.303
8000.175
7997.506
7995.273
7993.462
7992.035
7990.993
7990.261
7989.942
7989.479
7988.378
7987.589
7987.601
7988.223
7989.133
7990.137
7991.168
7992.219
7993.305
7994.434
7995.596
7996.772
7997.947
7999.103
8000.227
8001.304
8002.335
8003.321
8004.266
8005.182
8006.081
8006.948
8007.847
8008.804
8009.793
8010.809
8011.79
8012.635
8013.182
8013.288
8012.847
8011.813
8010.179
8007.949
8005.115
8001.663
7997.508
7992.468
7986.422
7979.228
7970.707
7960.764
7949.454
7936.833
7923.03
7908.245
7892.785
7877.085
7861.599
7846.743
7832.9
7820.391
7809.532
7800.606
7793.871
7789.246
7786.424
7780.429
7767.848
7769.356
7772.792
7777.336
7783.345
7792.267
7814.432
7834.231
7848.122
7860.232
7870.969
7879.902
7886.568
7890.524
7891.492
7889.56
7885.319
7879.054
7869.299
7851.966
7843.204
7837.091
7837.889
7834.859
7829.167
7823.672
7818.933
7814.984
7812.193
7811.32
7812.74
7815.486
7818.501
7821.505
7824.282
7827.591
7831.395
7835.414
7839.614
7843.964
7848.384
7852.783
7857.043
7861.247
7865.378
7869.236
7872.816
7876.187
7879.34
7882.278
7885.016
7887.578
7889.967
7892.154
7894.161
7895.993
7897.606
7899.028
7900.255
7901.267
7902.052
7902.597
7902.888
7902.906
7902.635
7902.053
7901.141
7899.869
7898.219
7896.151
7893.654
7890.696
7887.325
7883.628
7879.917
7876.603
7874.391
7873.816
7876.113
7881.508
3902.306
3863.294
3828.906
3794.484
3765.78
3744.041
3735.175
3742.606
3763.423
3764.032
3747.492
3744.718
3762.955
3798.541
3851.14
3919.499
4003.876
4103.513
4218.57
4348.587
4492.006
4649.341
4817.781
4996.449
5183.509
5376.851
5574.324
5773.517
5971.919
6167.286
6359.075
6581.169
6757.181
6912.513
7049.662
7167.254
7262.814
7334.77
7382.085
7404.5
7402.501
7374.327
7320.42
7243.486
7146.418
7031.818
6902.151
6759.83
6607.335
6447.184
6281.833
6114.102
5945.622
5778.442
5614.443
5455.088
5301.326
5153.687
5012.573
4878.259
4750.196
4628.264
4512.968
4404.838
4304.205
4211.031
4125.02
4044.992
3967.353
3900.104
3842.674
3787.981
3735.166
3686.118
3641.756
3601.975
3566.25
3534.496
3506.789
3482.102
3459.828
3440.018
3422.445
3406.86
3393.042
3380.755
3370.038
3361.469
3354.334
3347.635
3342
3337.543
3333.596
3329.47
3324.716
3319.269
3313.381
3307.148
3300.664
3294.109
3287.496
3281.072
3275.231
3270.546
3267.636
3267.18
3268.917
3272.457
3277.275
3283.026
3289.48
3296.463
3304.132
3312.787
3322.737
3334.068
3346.414
3359.688
3374.45
3390.98
3409.267
3429.681
3452.097
3475.896
3500.351
3524.109
3542.119
3551.332
3556.943
3563.563
3568.862
3569.982
3568.085
3566.396
3567.122
3571.656
3580.587
3594.069
3612.094
3634.574
3661.562
3693.234
3729.934
3772.293
3821.219
3877.471
3940.923
4010.165
4083.809
4160.715
4236.198
4305.636
4368.203
4427.089
4484.306
4545.682
4618.875
4703.785
4793.266
4881.198
4965.155
5044.856
5120.502
5192.091
5259.547
5323.09
5383.293
5440.803
5496.451
5550.474
5602.031
5654.109
5706.828
5759.718
5813.132
5867.175
5921.457
5975.234
6027.605
6077.715
6124.874
6168.632
6208.788
6245.368
6278.587
6308.792
6336.418
6361.958
6385.926
6408.853
6431.172
6453.204
6475.196
6496.693
6518.8
6543.032
6570.158
6600.079
6632.667
6666.858
6702.289
6738.647
6775.666
6813.225
6851.333
6889.916
6928.752
6967.602
7006.41
7045.396
7084.471
7123.439
7162.399
7201.479
7240.841
7280.517
7320.339
7360.094
7399.572
7438.666
7477.281
7515.268
7552.511
7588.796
7623.774
7657.273
7689.086
7718.627
7745.601
7769.989
7790.256
7806.511
7821.815
7837.269
7852.319
7865.552
7876.489
7885.077
7891.267
7895.398
7898.596
7902.322
7906.396
7909.553
7912
7914.682
7917.153
7916.926
7912.582
7904.655
7892.854
7876.259
7854.021
7825.048
7789.478
7749.166
7702.371
7649.057
7591.444
7532.25
7474.377
7421.774
7378.624
7346.992
7327.65
7321.906
7330.121
7351.675
7385.209
7428.675
7479.595
7535.175
7592.588
7649.797
7705.692
7759.408
7810.054
7856.951
7899.736
7938.276
7972.59
8002.795
8029.068
8051.604
8070.614
8086.327
8098.941
8108.762
8116.254
8121.843
8125.88
8128.487
8129.6
8129.263
8127.632
8124.69
8120.484
8115.249
8109.186
8102.467
8095.254
8087.7
8079.941
8072.105
8064.301
8056.629
8049.174
8042.008
8035.191
8028.774
8022.794
8017.281
8012.254
8007.725
8003.696
8000.165
7997.119
7994.547
7992.424
7990.732
7989.431
7988.505
7987.868
7987.469
7987.166
7987.096
7987.398
7987.916
7988.539
7989.285
7990.17
7991.16
7992.213
7993.302
7994.41
7995.52
7996.613
7997.672
7998.681
7999.63
8000.512
8001.328
8002.079
8002.769
8003.409
8004.01
8004.581
8005.154
8005.78
8006.457
8007.329
8008.126
8008.837
8009.403
8009.724
8009.695
8009.24
8008.311
8006.836
8004.711
8001.839
7998.158
7993.551
7987.716
7980.464
7971.841
7961.833
7950.44
7937.682
7923.707
7908.741
7893.095
7877.182
7861.429
7846.257
7832.064
7819.213
7808.033
7798.764
7791.596
7786.677
7784.088
7783.804
7784.947
7784.819
7773.769
7769.066
7774.537
7781.581
7796.159
7822.715
7838.62
7849.537
7859.459
7868.183
7874.881
7879.097
7880.598
7879.459
7875.923
7869.645
7860.918
7849.044
7835.199
7831.674
7830.741
7826.931
7821.784
7816.748
7812.141
7808.05
7804.451
7803.375
7805.471
7809.755
7814.484
7819.148
7822.896
7826.657
7831.276
7835.792
7840.25
7844.734
7849.231
7853.714
7858.131
7862.254
7866.423
7870.47
7874.114
7877.577
7880.83
7883.857
7886.659
7889.251
7891.641
7893.827
7895.827
7897.61
7899.26
7900.607
7901.785
7902.76
7903.513
7904.031
7904.303
7904.314
7904.052
7903.499
7902.642
7901.464
7899.955
7898.105
7895.917
7893.423
7890.678
7887.842
7885.071
7882.727
7880.977
7880.408
7881.086
7883.7
4392.805
4352.431
4315.265
4274.217
4229.751
4181.159
4135.578
4089.392
4043.481
3997.933
3953.22
3910.892
3869.607
3831.005
3796.617
3765.946
3739.106
3723.266
3715.713
3712.021
3707.985
3708.502
3719.301
3743.747
3783.177
3837.849
3906.911
3991.314
4092.076
4208.333
4339.492
4484.635
4642.778
4812.901
4993.328
5181.877
5376.419
5574.781
5774.504
5973.2
6168.223
6355.554
6524.715
6693.918
6847.543
6984.268
7101.538
7197.019
7269.122
7316.227
7337.481
7333.196
7303.327
7248.434
7170.666
7072.902
6957.932
6828.311
6686.373
6534.484
6374.875
6209.707
6041.913
5873.991
5707.98
5545.463
5387.624
5235.579
5089.999
4951.387
4819.513
4693.582
4573.906
4461.054
4355.367
4256.969
4166.069
4082.039
4004.988
3934.531
3871.084
3814.098
3761.078
3710.938
3664.159
3621.284
3582.486
3547.762
3517.204
3490.599
3467.261
3446.727
3428.631
3412.424
3397.664
3384.225
3372.23
3361.965
3354.121
3347.995
3342.764
3339.056
3336.304
3333.432
3329.838
3325.403
3320.043
3313.465
3306.362
3299.33
3292.025
3284.204
3276.242
3268.796
3262.773
3259.045
3258.143
3259.996
3264.116
3269.96
3277.329
3284.902
3291.969
3299.155
3307.174
3316.554
3327.388
3339.2
3351.599
3365.28
3380.16
3395.871
3412.956
3431.522
3450.967
3470.393
3488.748
3503.449
3512.9
3519.178
3524.687
3529.411
3532.188
3533.275
3534.023
3535.872
3541.136
3551.159
3566.322
3586.411
3610.911
3639.691
3672.865
3710.523
3753.197
3801.399
3855.124
3913.988
3977.376
4044.305
4113.804
4184.152
4253.773
4322.152
4390.364
4460.686
4536.273
4619.743
4710.508
4804.45
4896.957
4985.219
5068.154
5145.442
5216.982
5282.893
5343.647
5400.016
5452.957
5503.63
5553.041
5601.84
5651.401
5702.395
5754.995
5809.295
5865.09
5921.733
5978.238
6033.488
6086.417
6136.128
6181.97
6223.558
6260.777
6293.763
6322.837
6348.48
6371.298
6391.943
6411.148
6429.561
6447.576
6465.622
6484.034
6504.428
6526.139
6550.526
6578.255
6609.284
6642.585
6677.921
6715.056
6753.714
6793.592
6834.416
6875.921
6917.731
6959.457
7000.938
7042.14
7082.864
7123.022
7162.754
7202.311
7241.959
7281.785
7321.756
7361.769
7401.672
7441.323
7480.561
7519.174
7556.95
7593.624
7628.849
7662.347
7693.81
7722.628
7748.966
7773.148
7792.819
7809.097
7824.014
7837.784
7850.188
7860.599
7868.836
7875.115
7879.729
7883.082
7885.826
7888.405
7890.897
7893.946
7897.753
7901.126
7903.736
7906.037
7906.83
7902.713
7891.672
7874.209
7850.824
7821.342
7785.578
7743.466
7694.244
7638.14
7577.121
7514.063
7452.258
7395.562
7348.728
7314.765
7294.489
7289.109
7299.102
7322.899
7359.62
7406.869
7461.546
7520.194
7580.123
7639.936
7698.453
7754.234
7806.367
7854.302
7897.775
7936.741
7971.299
8001.634
8027.984
8050.606
8069.752
8085.672
8098.614
8108.845
8116.678
8122.381
8126.174
8128.271
8128.873
8128.11
8126.045
8122.748
8118.31
8112.894
8106.679
8099.831
8092.506
8084.853
8077.007
8069.093
8061.222
8053.491
8045.985
8038.777
8031.929
8025.489
8019.498
8013.986
8008.973
8004.472
8000.486
7997.013
7994.042
7991.557
7989.537
7987.956
7986.78
7985.976
7985.488
7985.285
7985.351
7985.675
7986.193
7986.814
7987.563
7988.486
7989.565
7990.74
7991.953
7993.164
7994.351
7995.496
7996.581
7997.585
7998.496
7999.304
8000.005
8000.603
8001.102
8001.509
8001.835
8002.099
8002.313
8002.512
8002.762
8003.169
8003.548
8004.028
8004.496
8004.907
8005.185
8005.212
8004.945
8004.407
8003.523
8002.092
7999.862
7996.656
7992.436
7987.06
7980.23
7971.757
7961.706
7950.259
7937.489
7923.455
7908.386
7892.615
7876.464
7860.401
7845.019
7830.64
7817.56
7806.085
7796.499
7788.99
7783.67
7780.53
7779.552
7780.438
7782.992
7787.166
7788.824
7773.091
7779.732
7802.412
7819.826
7830.512
7839.738
7848.385
7856.033
7862.067
7866.109
7867.903
7867.446
7864.567
7858.52
7849.761
7840.976
7833.567
7827.732
7823.383
7819.604
7815.71
7811.416
7806.79
7799.841
7783.568
7765.761
7772.12
7793.94
7809.824
7815.889
7820.656
7825.382
7830.933
7836.128
7840.894
7845.533
7850.118
7854.655
7859.167
7863.358
7867.494
7871.615
7875.444
7879.043
7882.417
7885.551
7888.434
7891.098
7893.535
7895.759
7897.772
7899.562
7901.107
7902.529
7903.696
7904.651
7905.385
7905.888
7906.152
7906.165
7905.92
7905.405
7904.613
7903.537
7902.177
7900.541
7898.645
7896.542
7894.286
7892.015
7889.828
7887.982
7886.553
7885.942
7886.011
7887.375
4775.294
4731.741
4691.986
4652.757
4617.803
4578.047
4542.757
4507.572
4471.482
4434.289
4396.709
4358.64
4318.342
4277.151
4232.903
4182.031
4136.242
4090.49
4044.701
3999.146
3954.043
3910.228
3867.908
3827.531
3790.261
3757.402
3729.195
3706.62
3689.963
3678.463
3672.32
3674.115
3686.056
3709.918
3747.337
3799.315
3867.019
3950.172
4048.839
4162.999
4292.219
4435.646
4592.151
4760.393
4938.763
5125.255
5317.805
5514.263
5712.111
5908.588
6101.128
6286.456
6460.943
6627.035
6779.123
6914.427
7029.823
7122.712
7191.371
7234.462
7251.203
7241.755
7206.922
7147.945
7066.99
6966.889
6850.537
6720.519
6578.941
6427.971
6269.496
6105.737
5939.661
5773.378
5609.302
5449.569
5295.288
5147.462
5006.719
4872.801
4744.678
4622.039
4505.768
4396.306
4293.852
4198.656
4111.109
4031.157
3958.813
3893.272
3833.506
3778.911
3728.499
3681.234
3636.785
3595.42
3557.627
3523.892
3494.575
3469.716
3448.708
3430.575
3414.509
3399.802
3385.942
3372.957
3361.202
3351.016
3343.396
3339.709
3337.472
3335.967
3335.226
3333.688
3330.881
3326.079
3319.787
3313.797
3306.784
3298.614
3289.811
3279.867
3269.568
3259.909
3252.102
3247.208
3245.934
3248.531
3254.141
3261.193
3271.051
3280.268
3286.685
3292.861
3300.025
3308.888
3319.526
3330.786
3341.335
3353.935
3367.668
3380.461
3394.353
3409.786
3425.33
3440.193
3455.391
3467.676
3474.797
3480.451
3485.857
3490.709
3494.081
3496.444
3498.367
3499.305
3504.189
3515.056
3532.177
3554.779
3581.352
3611.556
3645.78
3683.718
3726.199
3773.637
3825.3
3880.336
3938.317
3999.078
4062.707
4129.009
4197.907
4269.813
4345.189
4426.294
4514.574
4609.873
4710.541
4813.16
4913.63
5008.741
5096.699
5176.752
5248.752
5313.02
5370.296
5421.737
5468.867
5513.432
5557.059
5601.07
5646.864
5695.475
5747.339
5802.458
5860.39
5920.169
5980.39
6039.531
6096.187
6149.181
6197.628
6240.976
6278.992
6311.752
6339.588
6363.064
6382.907
6399.934
6415.02
6428.959
6442.446
6456.16
6470.798
6487.72
6505.819
6526.201
6551.628
6580.817
6613.063
6648.37
6686.578
6727.265
6769.782
6813.473
6857.798
6902.351
6946.806
6990.886
7034.359
7077.03
7118.849
7159.947
7200.582
7241.038
7281.523
7322.149
7362.918
7403.726
7444.411
7484.754
7524.473
7563.26
7600.781
7636.648
7670.492
7702.001
7730.806
7756.719
7779.84
7798.96
7814.234
7827.28
7838.557
7847.644
7854.524
7859.37
7862.555
7864.446
7865.411
7865.985
7866.683
7868.092
7870.632
7873.799
7877.18
7881.052
7884.686
7886.549
7885.453
7879.685
7866.424
7844.546
7814.898
7777.869
7733.493
7681.847
7623.377
7559.649
7493.395
7428.164
7368.013
7317.65
7281.095
7260.107
7255.628
7267.882
7294.631
7335.211
7386.433
7444.316
7505.906
7569.231
7632.349
7693.389
7751.013
7804.413
7853.145
7897.055
7936.202
7970.777
8001.036
8027.271
8049.794
8068.9
8084.855
8097.915
8108.327
8116.351
8122.193
8126.04
8128.092
8128.536
8127.528
8125.021
8121.166
8116.317
8110.611
8104.166
8097.123
8089.63
8081.83
8073.857
8065.831
8057.863
8050.048
8042.471
8035.204
8028.307
8021.831
8015.817
8010.296
8005.289
8000.811
7996.866
7993.451
7990.555
7988.164
7986.254
7984.8
7983.768
7983.126
7982.837
7982.868
7983.185
7983.733
7984.461
7985.349
7986.406
7987.622
7988.956
7990.349
7991.749
7993.117
7994.428
7995.655
7996.774
7997.764
7998.609
7999.299
7999.833
8000.215
8000.45
8000.546
8000.52
8000.399
8000.194
7999.951
7999.778
7999.739
7999.795
7999.91
8000.037
8000.113
8000.067
7999.821
7999.356
7998.896
7998.397
7997.531
7995.928
7993.324
7989.513
7984.459
7978.075
7970.125
7960.437
7949.128
7936.411
7922.42
7907.37
7891.584
7875.437
7859.071
7842.971
7828.413
7815.51
7804.07
7794.279
7786.479
7780.793
7777.181
7775.644
7776.012
7778.172
7782.04
7787.197
7793.458
7799.416
7804.547
7812.18
7822.065
7831.105
7838.938
7845.652
7850.886
7854.353
7855.789
7855.045
7851.856
7845.538
7836.323
7826.654
7819.42
7816.168
7815.213
7812.866
7809.993
7807.249
7803.44
7786.037
7675.117
7649.197
7687.754
7778.088
7805.966
7811.362
7817.527
7824.357
7830.714
7836.628
7841.724
7846.498
7851.136
7855.682
7860.176
7864.532
7868.794
7872.94
7876.873
7880.589
7884.084
7887.336
7890.297
7893.076
7895.598
7897.893
7899.947
7901.771
7903.371
7904.76
7905.934
7906.883
7907.61
7908.108
7908.371
7908.395
7908.172
7907.699
7906.973
7905.996
7904.776
7903.33
7901.682
7899.886
7897.992
7896.108
7894.313
7892.781
7891.577
7890.925
7890.758
7891.439
4962.636
4950.108
4913.044
4864.099
4814.08
4768.406
4726.133
4687.23
4651.022
4614.693
4574.44
4539.796
4505.195
4469.856
4433.486
4396.035
4357.351
4317.07
4275.221
4232.418
4189.515
4144.504
4098.871
4052.856
4006.88
3961.049
3915.722
3871.071
3827.246
3785.12
3746.19
3712.468
3684.087
3661.391
3645.633
3637.896
3639.46
3651.771
3676.123
3713.335
3764.666
3830.798
3912.159
4008.939
4121.124
4248.341
4389.819
4544.491
4710.876
4887.349
5071.763
5261.992
5455.121
5648.824
5841.157
6029.417
6211.242
6384.231
6546.357
6694.261
6824.504
6934.131
7020.756
7082.608
7118.572
7128.112
7111.432
7069.694
7004.743
6919.158
6815.87
6697.759
6567.579
6427.105
6278.159
6122.531
5961.792
5798.936
5636.312
5475.553
5319.123
5169.435
5027.801
4894.079
4766.948
4645.253
4529.06
4418.782
4314.534
4216.593
4125.626
4042.469
3967.582
3900.574
3840.167
3785.243
3734.952
3688.365
3644.455
3602.612
3562.973
3526.319
3493.711
3465.926
3443.459
3425.683
3410.727
3397.201
3384.305
3371.419
3358.905
3347.405
3337.573
3330.576
3329.069
3331.476
3333.748
3334.72
3334.55
3332.531
3328.112
3321.568
3315.124
3308.312
3299.145
3287.681
3274.432
3260.543
3247.546
3237.35
3231.283
3230.13
3234.477
3242.862
3252.104
3263.118
3274.912
3280.657
3285.463
3291.834
3300.612
3311.716
3322.979
3330.999
3340.433
3353.176
3363.902
3375.134
3388.43
3401.034
3411.26
3421.751
3432.26
3436.689
3441.325
3447.065
3452.4
3456.309
3458.275
3458.928
3457.165
3460.204
3471.578
3491.204
3517.261
3546.349
3578.056
3613.527
3651.06
3692.974
3739.745
3789.744
3841.49
3894.355
3948.594
4005.58
4066.857
4134.043
4208.504
4288.65
4378.866
4479.663
4588.962
4703.712
4819.582
4931.884
5036.838
5132.04
5216.233
5289.07
5351.296
5404.201
5449.376
5488.884
5525.213
5561.014
5598.278
5638.96
5684.454
5735.25
5791.29
5851.928
5915.88
5981.121
6045.5
6107.114
6164.421
6216.243
6261.851
6300.929
6333.521
6359.983
6380.963
6397.344
6410.202
6420.607
6429.501
6437.759
6446.247
6455.829
6467.543
6481.5
6498.303
6520.137
6546.588
6577.422
6612.728
6652.397
6695.736
6741.51
6788.517
6835.962
6883.363
6930.482
6977.059
7022.834
7067.599
7111.273
7153.957
7195.928
7237.545
7279.13
7320.903
7362.958
7405.24
7447.563
7489.631
7531.075
7571.481
7610.418
7647.433
7682.085
7714.041
7742.922
7768.37
7790.314
7808.367
7822.132
7832.806
7840.751
7845.919
7848.561
7849.053
7847.87
7845.522
7842.61
7839.884
7838.074
7837.682
7838.728
7841.201
7845.033
7849.436
7853.491
7856.545
7857.462
7854.376
7845.336
7828.792
7803.029
7767.052
7721.688
7668.191
7607.609
7541.513
7472.655
7404.778
7342.149
7289.219
7250.739
7229.592
7226.777
7242.477
7271.671
7315.347
7369.581
7430.721
7496.078
7562.99
7628.893
7691.931
7750.898
7805.09
7854.182
7898.127
7937.081
7971.334
8001.218
8027.082
8049.291
8068.124
8083.834
8096.711
8107.023
8115.034
8120.923
8124.807
8126.843
8127.191
8125.937
8123.121
8118.961
8113.817
8107.858
8101.185
8093.938
8086.267
8078.31
8070.2
8062.055
8053.983
8046.079
8038.424
8031.09
8024.137
8017.617
8011.572
8006.035
8001.03
7996.572
7992.667
7989.315
7986.504
7984.219
7982.437
7981.131
7980.272
7979.828
7979.764
7980.041
7980.618
7981.446
7982.492
7983.732
7985.136
7986.671
7988.291
7989.945
7991.586
7993.17
7994.66
7996.022
7997.225
7998.243
7999.057
7999.656
8000.032
8000.19
8000.134
7999.876
7999.444
7998.888
7998.201
7997.438
7996.811
7996.402
7996.123
7995.871
7995.616
7995.292
7994.627
7993.103
7991.595
7991.054
7991.269
7991.512
7990.533
7988.31
7984.936
7980.357
7974.416
7966.958
7957.806
7946.946
7934.525
7920.755
7905.888
7890.247
7874.218
7858.134
7841.941
7827.033
7813.587
7801.79
7792.312
7784.615
7778.656
7774.723
7772.764
7772.671
7774.299
7777.531
7782.225
7788.104
7794.569
7801.368
7808.335
7815.601
7823.335
7830.729
7837.054
7841.83
7844.866
7845.716
7843.923
7839.675
7832.364
7821.671
7809.748
7801.592
7801.037
7804.498
7804.94
7803.348
7803.183
7801.306
7791.379
7690.32
7633.336
7675.546
7771.774
7799.317
7804.166
7812.755
7823.571
7831.233
7837.737
7842.986
7847.759
7852.376
7856.882
7861.426
7865.86
7870.184
7874.386
7878.417
7882.258
7885.911
7889.267
7892.378
7895.217
7897.794
7900.212
7902.342
7904.224
7905.869
7907.284
7908.468
7909.423
7910.153
7910.656
7910.928
7910.967
7910.77
7910.337
7909.672
7908.783
7907.681
7906.391
7904.941
7903.378
7901.75
7900.141
7898.618
7897.292
7896.225
7895.529
7895.21
7895.399
4952.308
4925.879
4869.134
4826.243
4784.277
4745.096
4708.394
4673.604
4640.046
4607.373
4575.489
4542.706
4509.226
4474.72
4439.145
4402.208
4363.77
4323.66
4281.696
4238.216
4194.398
4149.379
4103.454
4057.073
4010.435
3963.059
3914.833
3866.515
3818.978
3773.065
3730.492
3693.096
3661.615
3636.584
3619.116
3610.307
3611.27
3623.12
3646.7
3683.366
3733.699
3798.445
3878.167
3973.175
4083.462
4208.68
4348.062
4500.65
4664.726
4838.564
5019.457
5204.617
5392.032
5580.189
5767.816
5952.326
6130.224
6298.359
6453.888
6594.001
6715.534
6815.811
6892.732
6944.725
6970.916
6971.053
6945.474
6895.632
6823.719
6732.624
6625.781
6505.87
6375.822
6237.836
6092.831
5942.317
5787.59
5629.448
5470.523
5313.8
5161.917
5017.97
4883.754
4758.543
4640.489
4528.004
4420.364
4317.438
4219.376
4126.665
4040.296
3961.629
3892.045
3831.241
3777.083