/*--------------------------------*- C++ -*----------------------------------*\
| =========                 |                                                 |
| \\      /  F ield         | foam-extend: Open Source CFD                    |
|  \\    /   O peration     | Version:     3.1                                |
|   \\  /    A nd           | Web:         http://www.extend-project.de       |
|    \\/     M anipulation  |                                                 |
\*---------------------------------------------------------------------------*/
FoamFile
{
    version     2.0;
    format      ascii;
    class       surfaceScalarField;
    location    "14.5";
    object      phi;
}
// * * * * * * * * * * * * * * * * * * * * * * * * * * * * * * * * * * * * * //

dimensions      [0 3 -1 0 0 0 0];

internalField   nonuniform List<scalar> 
275122
(
-0.0003858636
0.0003911997
-3.81509e-07
-4.954588e-06
-0.000345157
0.0003290774
1.323502e-06
1.475609e-05
-0.0003422363
0.0003510121
-3.694663e-07
-8.406353e-06
-0.0003804978
0.0003906561
-4.506157e-07
-9.707696e-06
-0.0004159656
0.0004189143
-5.170286e-07
-2.431585e-06
-0.0004185319
0.0004177819
-4.543661e-07
1.204304e-06
-0.0004137905
0.0004122404
-4.198101e-07
1.969882e-06
-0.0004069676
0.0004050367
-4.053556e-07
2.336203e-06
-0.0003986912
0.0003965511
-3.869477e-07
2.527056e-06
-0.0003899727
0.0003877181
-3.777545e-07
2.632332e-06
-0.0003807393
0.0003783742
-3.638955e-07
2.728993e-06
-0.0003711312
0.000368658
-2.802375e-07
2.7535e-06
-0.0003611617
0.0003586215
-2.495315e-07
2.789706e-06
-0.0003509853
0.0003483806
-2.224502e-07
2.827194e-06
-0.0003406422
0.0003380022
-1.979549e-07
2.838036e-06
-0.0003301969
0.0003275474
-1.751362e-07
2.824681e-06
-0.0003197054
0.0003170689
-1.531306e-07
2.789687e-06
-0.0003092333
0.0003066462
-1.366903e-07
2.723765e-06
-0.0002993649
0.0002971976
-1.845246e-07
2.351898e-06
-0.0002925003
0.0002925327
-5.408984e-07
5.085367e-07
-0.00032226
0.0003344215
-1.161944e-06
-1.099956e-05
-0.0003358178
0.0003347948
-2.042864e-07
1.227273e-06
-0.0003352614
0.0003364858
-1.281722e-07
-1.096215e-06
-0.0003703977
0.0003827882
3.394032e-07
-1.272992e-05
-0.0003813273
0.000379362
5.437852e-07
1.421458e-06
-0.0003782014
0.0003776387
-1.929344e-07
7.556932e-07
-0.0003749208
0.000372818
-2.080851e-07
2.310941e-06
-0.0003662471
0.0003620087
-1.892064e-07
4.427652e-06
-0.0003383082
0.0003154942
-2.629617e-07
2.307697e-05
-0.0002158516
0.0002216346
3.66749e-09
-5.786682e-06
-0.0002601696
0.0002734322
-6.980712e-08
-1.319286e-05
-0.0003113397
0.0003238936
7.105267e-09
-1.256103e-05
-0.0003622285
0.0003752099
8.12283e-09
-1.298952e-05
-0.00041454
0.0004278118
9.228083e-09
-1.328105e-05
-0.0004683407
0.0004819898
1.174068e-08
-1.366087e-05
-0.0005236898
0.0005377827
7.69773e-09
-1.410054e-05
-0.000580429
0.000594783
9.188181e-09
-1.436323e-05
-0.0006380571
0.0006525696
1.029795e-08
-1.452278e-05
-0.0006962848
0.0007109438
3.844001e-09
-1.466278e-05
-0.0007545271
0.0007703904
2.276013e-07
-1.609085e-05
1.268123e-05
-0.0005229849
0.000524999
7.375575e-10
-1.469599e-05
1.293344e-05
-0.0005311148
0.0005330077
-5.099495e-10
-1.482577e-05
1.321544e-05
-0.0005383112
0.0005399603
-1.589563e-09
-1.486298e-05
1.350919e-05
-0.0005446326
0.0005460429
-1.572195e-09
-1.491794e-05
1.385847e-05
-0.0005498261
0.0005509279
-2.021277e-09
-1.495833e-05
1.411618e-05
-0.0005539396
0.0005548378
-1.049588e-09
-1.501333e-05
1.42917e-05
-0.0005573132
0.0005580566
-9.940606e-10
-1.503412e-05
1.441258e-05
-0.0005601273
0.0005607846
-1.466637e-09
-1.506849e-05
1.483966e-05
-0.0005624919
0.0005621364
-6.288448e-10
-1.448359e-05
1.298278e-05
-0.002288463
0.002296968
8.270526e-10
-6.078854e-05
1.321909e-05
1.292894e-05
1.315167e-05
1.391377e-05
-0.002302465
0.002306924
1.754262e-10
-6.109747e-05
1.443648e-05
1.388648e-05
1.440173e-05
1.423822e-05
-0.002310491
0.002313677
1.542735e-11
-6.063012e-05
1.451271e-05
1.420757e-05
1.448575e-05
1.43157e-05
-0.002316975
0.002320156
-4.467428e-11
-6.064498e-05
1.444644e-05
1.428537e-05
1.441653e-05
1.443206e-05
-0.002323186
0.002325817
-2.09553e-11
-6.053997e-05
1.45483e-05
1.440425e-05
1.45244e-05
1.448825e-05
-0.002328308
0.002330619
4.46359e-10
-6.044192e-05
1.460274e-05
1.446669e-05
1.457252e-05
1.457282e-05
-0.002332889
0.002334911
2.433499e-10
-6.040055e-05
1.46382e-05
1.454817e-05
1.461866e-05
1.459461e-05
-0.002336973
0.002338865
9.0491e-11
-6.026021e-05
1.46172e-05
1.456421e-05
1.459278e-05
1.457256e-05
-0.002341261
0.00234331
-3.08546e-10
-6.041976e-05
1.464086e-05
1.454315e-05
1.461493e-05
1.418379e-05
-0.002342615
0.002345403
2.687083e-10
-5.96048e-05
1.424291e-05
1.415753e-05
1.423164e-05
1.484501e-05
-0.002348244
0.002349911
1.02675e-10
-6.121982e-05
1.493956e-05
1.483819e-05
1.493022e-05
1.4796e-05
-0.002351162
0.002352226
1.042007e-10
-5.998397e-05
1.466972e-05
1.479005e-05
1.466425e-05
1.470388e-05
-0.002353365
0.002354513
8.501808e-11
-5.976837e-05
1.461273e-05
1.469705e-05
1.460688e-05
1.469329e-05
-0.002355607
0.00235656
3.834013e-11
-5.958829e-05
1.462998e-05
1.468584e-05
1.462622e-05
1.469619e-05
-0.002357493
0.002358345
8.73539e-12
-5.951802e-05
1.464596e-05
1.468253e-05
1.464121e-05
1.47607e-05
-0.002359163
0.00236007
2.893309e-12
-5.979808e-05
1.471867e-05
1.471248e-05
1.469979e-05
1.501687e-05
-0.002361049
0.002361886
7.625264e-12
-6.049367e-05
1.498757e-05
1.481104e-05
1.484056e-05
1.626065e-05
-0.002362306
0.002360514
9.434635e-12
-6.191751e-05
1.65264e-05
1.533937e-05
1.558257e-05
2.063714e-05
-0.002354587
0.00234018
4.191074e-12
-6.384882e-05
2.195612e-05
1.808999e-05
1.757227e-05
2.652356e-05
-0.002321537
0.002342467
-5.814013e-12
-4.745374e-05
1.932243e-05
-0.002362156
0.002364752
-1.825409e-11
-2.19184e-05
3.862475e-05
-0.002358247
0.002354384
-3.71755e-11
-3.476144e-05
3.277943e-05
-0.002351711
0.002349506
5.082729e-12
-3.057446e-05
1.721135e-05
-0.002346759
0.002347689
3.939596e-11
-1.814163e-05
2.681878e-06
-0.002351508
0.00235502
5.804393e-11
-6.194479e-06
-2.585676e-06
-0.002357373
0.002359704
7.356634e-11
2.539902e-07
-5.538709e-06
-0.002361679
0.002363159
7.397282e-11
4.059168e-06
-7.836885e-06
-0.002364337
0.002365041
4.530947e-11
7.132681e-06
-9.785874e-06
-0.002365411
0.002365318
1.256475e-11
9.878494e-06
-1.150208e-05
-0.00236494
0.002364152
-1.776477e-11
1.229058e-05
-1.293217e-05
-0.002363086
0.002361676
-8.488598e-11
1.434171e-05
-1.414148e-05
-0.002360022
0.002358085
-1.079519e-10
1.607877e-05
-1.514552e-05
-0.002355908
0.002353504
-1.149976e-10
1.755019e-05
-1.597899e-05
-0.002350859
0.002348031
-1.115328e-10
1.880723e-05
-1.663464e-05
-0.002344959
0.002341755
-1.014236e-10
1.983853e-05
-1.700831e-05
-0.002338313
0.00233481
-8.733166e-11
2.051197e-05
-1.674881e-05
-0.002331104
0.002327387
-7.295721e-11
2.046627e-05
-1.489981e-05
-0.002323309
0.002318957
-6.036088e-11
1.925212e-05
-1.110387e-05
-0.002314448
0.002309163
-4.810104e-11
1.638868e-05
-2.689221e-06
-0.002298378
0.002288982
-3.600958e-11
1.208551e-05
-9.746361e-06
-0.00228437
0.002280941
-2.21236e-11
1.317513e-05
1.762935e-06
-0.002275826
0.002265544
-8.672766e-12
8.519005e-06
2.012238e-05
-0.002243644
0.002223017
4.11884e-13
5.048819e-07
-5.111865e-06
-0.00220948
0.002200573
1.197642e-11
1.401839e-05
-2.065141e-05
-0.002192926
0.002182583
1.458146e-11
3.099413e-05
-3.213804e-05
-0.002171049
0.002159678
8.672146e-12
4.350896e-05
-5.156428e-05
-0.002149613
0.002142241
-3.418e-12
5.893634e-05
-9.149558e-05
-0.00213537
0.002145093
-1.370225e-11
8.177241e-05
-2.018233e-05
-0.00216074
0.002151393
-1.685876e-11
7.928309e-05
-1.498044e-05
-2.006977e-05
-1.47035e-05
-1.044157e-05
-0.002133101
0.002121453
-1.923302e-11
5.318513e-05
-1.068607e-05
-1.010301e-05
-1.030647e-05
-9.304151e-06
-0.002110817
0.002098312
-2.238027e-11
4.8422e-05
-8.930068e-06
-9.020999e-06
-8.661416e-06
-7.643428e-06
-0.00208455
0.002071131
-1.891781e-11
4.306398e-05
-7.388358e-06
-7.42445e-06
-7.189066e-06
-6.705218e-06
-0.002058272
0.002046221
-1.488646e-11
3.833412e-05
-6.595303e-06
-6.540935e-06
-6.441254e-06
-5.997782e-06
-0.002034711
0.002023897
-1.310182e-11
3.431378e-05
-5.871609e-06
-5.873705e-06
-5.756789e-06
-5.241987e-06
-0.002013503
0.002003907
-1.213406e-11
3.012129e-05
-5.11119e-06
-5.14754e-06
-5.02504e-06
-4.57087e-06
-0.001994862
0.001986726
-1.050519e-11
2.607251e-05
-4.468059e-06
-4.497579e-06
-4.400453e-06
-3.985339e-06
-0.001979142
0.001972454
-8.857318e-12
2.232999e-05
-3.891531e-06
-3.927165e-06
-3.837512e-06
-3.483817e-06
-0.001966308
0.001961019
-6.381552e-12
1.897628e-05
-3.407542e-06
-3.434674e-06
-3.36142e-06
-3.090714e-06
-0.001956246
0.00195226
-2.448704e-12
1.615494e-05
-3.037777e-06
-3.046458e-06
-2.994292e-06
-2.833501e-06
-0.001948755
0.001945962
1.925189e-12
1.398146e-05
-2.806059e-06
-2.788473e-06
-2.759572e-06
-2.736354e-06
-0.001943607
0.00194183
7.657661e-12
1.263537e-05
-2.746834e-06
-2.684526e-06
-2.690328e-06
-2.864164e-06
-0.001940379
0.001939218
1.509504e-11
1.258381e-05
-2.91784e-06
-2.797187e-06
-2.843942e-06
-3.236088e-06
-0.001938209
0.001937308
2.45445e-11
1.38296e-05
-3.327295e-06
-3.142024e-06
-3.223723e-06
-3.775611e-06
-0.00193652
0.001935823
3.386347e-11
1.575089e-05
-3.895254e-06
-3.638648e-06
-3.744659e-06
-4.486808e-06
-0.001935206
0.001934497
4.065805e-11
1.858348e-05
-4.646761e-06
-4.299184e-06
-4.441622e-06
-5.382831e-06
-0.001933705
0.001932577
4.28137e-11
2.25735e-05
-5.563366e-06
-5.167729e-06
-5.331638e-06
-6.254557e-06
-0.001931237
0.001929421
3.92735e-11
2.671037e-05
-6.381919e-06
-6.058279e-06
-6.199569e-06
-6.762114e-06
-0.001927209
0.001924238
3.091766e-11
2.999666e-05
-6.782812e-06
-6.708072e-06
-6.773088e-06
-6.754137e-06
-0.001920547
0.001915768
2.03415e-11
3.189713e-05
-6.674615e-06
-6.868186e-06
-6.82064e-06
-6.327181e-06
-0.00190999
0.00190296
7.876646e-12
3.245473e-05
-6.195521e-06
-6.51479e-06
-6.387325e-06
-5.709016e-06
-0.001894881
0.001885639
-5.129285e-12
3.213232e-05
-5.572281e-06
-5.878281e-06
-5.73099e-06
-5.078419e-06
-0.001875522
0.00186452
-2.109349e-11
3.130998e-05
-4.960279e-06
-5.200248e-06
-5.069694e-06
-4.508803e-06
-0.001852955
0.001840902
-3.771738e-11
3.00113e-05
-4.405689e-06
-4.576325e-06
-4.468214e-06
-3.966858e-06
0.00181631
-5.425182e-11
2.812366e-05
-3.877666e-06
-4.020742e-06
-3.921601e-06
-0.001828647
-3.470428e-06
-0.001804113
0.001792246
-6.428147e-11
2.563019e-05
-3.393782e-06
-3.49036e-06
-3.408042e-06
-2.988722e-06
-0.00178083
0.001770085
-6.887719e-11
2.256106e-05
-2.915948e-06
-2.99294e-06
-2.918285e-06
-2.500297e-06
-0.001760002
0.001750814
-6.88932e-11
1.904198e-05
-2.428958e-06
-2.49822e-06
-2.42619e-06
-2.027192e-06
-0.001742386
0.001734963
-6.598007e-11
1.539243e-05
-1.96293e-06
-2.021869e-06
-1.957439e-06
-1.630094e-06
-0.001728322
0.001722706
-6.123031e-11
1.202237e-05
-1.5773e-06
-1.624868e-06
-1.574194e-06
-1.320813e-06
-0.001717798
0.001713806
-5.558684e-11
9.201764e-06
-1.28837e-06
-1.316767e-06
-1.28443e-06
-1.143825e-06
-0.001710426
0.001707848
-5.008513e-11
7.122637e-06
-1.131826e-06
-1.1396e-06
-1.129076e-06
-1.085059e-06
-0.001705763
0.001704303
-4.453333e-11
5.797702e-06
-1.088418e-06
-1.080424e-06
-1.084686e-06
-1.155243e-06
-0.001703199
0.001702556
-3.780699e-11
5.292234e-06
-1.177091e-06
-1.146306e-06
-1.170681e-06
-1.351235e-06
-0.001702129
0.001701936
-3.096746e-11
5.647235e-06
-1.393948e-06
-1.329736e-06
-1.379341e-06
-1.821582e-06
-0.001701783
0.00170167
-2.458339e-11
7.495396e-06
-1.932385e-06
-1.756919e-06
-1.871583e-06
-2.659201e-06
-0.001701466
0.00170117
-1.403254e-11
1.096541e-05
-2.852039e-06
-2.489736e-06
-2.668208e-06
-4.072925e-06
-0.001700831
0.001700621
1.615373e-12
1.639138e-05
-4.416177e-06
-3.691129e-06
-4.000509e-06
-6.22281e-06
-0.00170069
0.001700952
2.090984e-11
2.479426e-05
-6.903412e-06
-5.715352e-06
-6.21434e-06
-9.173651e-06
-0.001702152
0.001704028
3.014568e-11
3.490929e-05
-9.398332e-06
-8.774692e-06
-9.438557e-06
-8.542473e-06
-0.001705151
0.001704219
1.829451e-11
3.577206e-05
-8.076963e-06
-9.324278e-06
-8.897309e-06
-6.878277e-06
-0.00170035
0.00169283
2.731172e-11
3.500705e-05
-6.610875e-06
-7.218281e-06
-6.779971e-06
-6.250133e-06
-0.001682778
0.00167083
4.133739e-11
3.691218e-05
-6.247605e-06
-6.254918e-06
-6.212181e-06
-6.487922e-06
-0.001657218
0.001641775
4.622578e-11
4.128166e-05
-6.524317e-06
-6.391787e-06
-6.434168e-06
-6.687194e-06
-0.00162474
0.001605931
3.677326e-11
4.554375e-05
-6.67595e-06
-6.682161e-06
-6.68963e-06
-6.597239e-06
-0.001585597
0.001563725
2.201583e-11
4.827532e-05
-6.542438e-06
-6.655417e-06
-6.607535e-06
-6.23904e-06
-0.001540681
0.001516646
5.840905e-12
4.890427e-05
-6.129078e-06
-6.305344e-06
-6.196551e-06
-5.726059e-06
-0.001492114
0.001467377
-8.106498e-12
4.730768e-05
-5.509507e-06
-5.778461e-06
-5.556573e-06
-5.073785e-06
-0.001442475
0.001417829
-2.148091e-11
4.394136e-05
-4.5433e-06
-5.104724e-06
-4.573576e-06
-4.597645e-06
-0.001395174
0.00137402
-3.024501e-11
3.933267e-05
-4.484931e-06
-4.602961e-06
-4.493454e-06
-4.152153e-06
-0.001354452
0.001336601
-4.274134e-11
3.430961e-05
-4.086407e-06
-4.143556e-06
-4.077292e-06
-3.534771e-06
-0.001320309
0.001305698
-6.18899e-11
2.8592e-05
-3.464668e-06
-3.526116e-06
-3.455926e-06
-2.952188e-06
-0.001292547
0.001280975
-7.951128e-11
2.319314e-05
-2.865765e-06
-2.944398e-06
-2.858666e-06
-2.389743e-06
-0.001270642
0.001261717
-8.789543e-11
1.832999e-05
-2.318188e-06
-2.384443e-06
-2.312872e-06
-1.973415e-06
-0.00125376
0.001246965
-8.483784e-11
1.459456e-05
-1.931096e-06
-1.968863e-06
-1.92642e-06
-1.724241e-06
-0.00124083
0.001235618
-7.397054e-11
1.205056e-05
-1.699081e-06
-1.720137e-06
-1.694986e-06
-1.592386e-06
-0.001230818
0.001226711
-5.872662e-11
1.045078e-05
-1.583632e-06
-1.588168e-06
-1.579729e-06
-1.553332e-06
-0.001222909
0.001219633
-4.381296e-11
9.489655e-06
-1.557128e-06
-1.549461e-06
-1.553367e-06
-1.595662e-06
-0.001216563
0.001213847
-3.103798e-11
9.116208e-06
-1.609169e-06
-1.591118e-06
-1.60442e-06
-1.729513e-06
-0.001211243
0.001208839
-1.977273e-11
9.360929e-06
-1.756547e-06
-1.72215e-06
-1.748965e-06
-1.952625e-06
-0.00120646
0.001204158
-7.672625e-12
1.017101e-05
-1.994058e-06
-1.940633e-06
-1.981459e-06
-2.271551e-06
-0.001201817
0.001199454
5.193485e-12
1.152921e-05
-2.329955e-06
-2.253699e-06
-2.311078e-06
-2.700147e-06
-0.001197006
0.001194449
1.994475e-11
1.347002e-05
-2.777424e-06
-2.679096e-06
-2.756054e-06
-3.186439e-06
-0.001191759
0.00118887
3.2328e-11
1.576135e-05
-3.261202e-06
-3.173326e-06
-3.25148e-06
-3.54552e-06
-0.001185762
0.001182323
3.547374e-11
1.770238e-05
-3.579988e-06
-3.549708e-06
-3.588294e-06
-3.65204e-06
-0.001178541
0.001174332
3.95898e-11
1.882294e-05
-3.646781e-06
-3.660363e-06
-3.654857e-06
-3.603876e-06
-0.001169739
0.001164744
5.352016e-11
1.937947e-05
-3.589918e-06
-3.602996e-06
-3.587391e-06
-3.548768e-06
-0.001159448
0.001153856
7.181485e-11
1.975963e-05
-3.539803e-06
-3.543567e-06
-3.535372e-06
-3.519935e-06
-0.001148012
0.001141867
9.730488e-11
2.021119e-05
-3.511789e-06
-3.51942e-06
-3.514379e-06
-3.452433e-06
-0.001135442
0.001128617
1.040864e-10
2.060148e-05
-3.428774e-06
-3.458139e-06
-3.437706e-06
-3.348825e-06
-0.001121402
0.001113866
1.187968e-10
2.086702e-05
-3.317107e-06
-3.348218e-06
-3.316994e-06
-3.229371e-06
-0.001105937
0.001097475
1.162131e-10
2.129982e-05
-3.22527e-06
-3.198995e-06
-3.184259e-06
-3.323941e-06
-0.001088594
0.001079383
9.793458e-11
2.220363e-05
-3.340477e-06
-3.170408e-06
-3.15709e-06
-3.768007e-06
-0.001069585
0.001059235
1.336569e-10
2.486256e-05
-3.89011e-06
-3.373408e-06
-3.481661e-06
-4.567465e-06
0.001038997
-3.504793e-12
2.726096e-05
-0.001048862
-4.783179e-06
-3.923812e-06
-4.121403e-06
-6.854936e-06
-0.001029453
0.001021206
2.401226e-10
3.648314e-05
-7.441828e-06
-6.472786e-06
-7.466224e-06
-7.282477e-06
-0.001014536
0.001006553
4.670465e-10
3.818254e-05
-6.628844e-06
-8.266839e-06
-8.022476e-06
-3.302464e-06
-0.0009948128
0.000980098
4.11518e-10
2.892242e-05
-2.86757e-06
-4.354663e-06
-3.683317e-06
-1.357159e-06
-0.0009639958
0.000947157
1.812713e-10
2.190644e-05
-1.111138e-06
-1.506332e-06
-1.093179e-06
-4.272995e-07
-0.0009304363
0.0009145467
-2.226799e-10
1.752945e-05
-3.818302e-07
-4.341959e-07
-3.963372e-07
-8.361059e-07
-0.0008999624
0.0008867715
-8.358556e-10
1.67892e-05
-9.561785e-07
-8.456267e-07
-9.596349e-07
-1.3683e-06
-0.0008744856
0.0008627672
-1.463095e-09
1.736455e-05
-1.45734e-06
-1.364331e-06
-1.454762e-06
-1.802455e-06
-0.0008514641
0.0008402548
-1.646828e-09
1.853065e-05
-1.861698e-06
-1.798676e-06
-1.856911e-06
-2.038081e-06
-0.0008290852
0.0008177538
-1.104543e-09
1.950616e-05
-2.054823e-06
-2.03217e-06
-2.048643e-06
-1.983247e-06
-0.000806596
0.0007956593
-1.451024e-10
1.880742e-05
-1.956318e-06
-1.978906e-06
-1.952045e-06
-1.627514e-06
-0.0007855089
0.0007762633
7.089264e-10
1.564393e-05
-1.574474e-06
-1.624985e-06
-1.572087e-06
-1.173794e-06
-0.0007682605
0.0007614781
1.123846e-09
1.13914e-05
-1.132548e-06
-1.172448e-06
-1.131261e-06
-8.808349e-07
-0.0007557804
0.0007511465
1.109094e-09
8.124216e-06
-8.654714e-07
-8.802452e-07
-8.648735e-07
-7.762276e-07
-0.0007470886
0.0007437022
8.703784e-10
6.494041e-06
-7.784414e-07
-7.758233e-07
-7.780188e-07
-8.467388e-07
-0.0007405214
0.0007376782
5.802615e-10
6.260132e-06
-8.624162e-07
-8.463347e-07
-8.620085e-07
-9.6623e-07
-0.000734851
0.000732086
3.333106e-10
6.659078e-06
-9.813669e-07
-9.658101e-07
-9.809823e-07
-1.104785e-06
-0.0007291699
0.0007260377
1.655418e-10
7.581091e-06
-1.120063e-06
-1.104428e-06
-1.119749e-06
-1.260908e-06
-0.0007226365
0.0007187549
5.972896e-11
8.958164e-06
-1.277722e-06
-1.260568e-06
-1.277406e-06
-1.454408e-06
-0.0007144943
0.0007094561
-4.548784e-12
1.089833e-05
-1.476039e-06
-1.454002e-06
-1.475678e-06
-1.700428e-06
-0.0007038805
0.0006972813
-4.235001e-11
1.344815e-05
-1.724417e-06
-1.700026e-06
-1.724028e-06
-1.976141e-06
-0.0006900264
0.0006816394
-6.597321e-11
1.633732e-05
-1.999386e-06
-1.975782e-06
-1.998976e-06
-2.248122e-06
-0.0006725505
0.0006623818
-8.01846e-11
1.920153e-05
-2.268591e-06
-2.247825e-06
-2.268201e-06
-2.491678e-06
-0.0006515513
0.000639909
-8.594888e-11
2.167489e-05
-2.524715e-06
-2.491575e-06
-2.52454e-06
-2.375357e-06
-0.0006276291
0.0006121433
-8.453427e-11
2.435034e-05
-2.054547e-06
-2.376903e-06
-2.057596e-06
-2.725849e-06
-0.0001475662
0.0001454273
-1.034913e-10
4.864866e-06
-3.262395e-06
-0.0001393464
0.0001372344
-6.384145e-10
5.374989e-06
-3.55994e-06
-0.0001309373
0.0001288147
-5.472524e-10
5.683039e-06
-3.611362e-06
-0.0001223738
0.00012021
-2.608513e-10
5.77535e-06
-3.428911e-06
-0.0001137632
0.0001116375
-1.757754e-10
5.554765e-06
-3.132244e-06
-0.000105409
0.000103399
-3.321971e-10
5.14261e-06
-2.801432e-06
-9.762028e-05
9.579702e-05
-3.27753e-10
4.625026e-06
-2.418745e-06
-9.066106e-05
8.908351e-05
-2.342522e-10
3.996527e-06
-1.98838e-06
-8.475101e-05
8.346692e-05
-1.901089e-10
3.272659e-06
-1.529275e-06
-8.006228e-05
7.91057e-05
-1.460764e-10
2.486004e-06
-1.061233e-06
-7.67127e-05
7.610516e-05
-7.133875e-11
1.668842e-06
-6.005328e-07
-7.477013e-05
7.452061e-05
1.20764e-11
8.500425e-07
-1.805451e-07
-7.4258e-05
7.436662e-05
9.293832e-11
7.183995e-08
2.364433e-07
-7.516554e-05
7.560471e-05
1.724611e-10
-6.757768e-07
5.790171e-07
-7.735944e-05
7.811208e-05
2.372121e-10
-1.331887e-06
8.607884e-07
-8.07647e-05
8.179459e-05
2.915834e-10
-1.890962e-06
1.080958e-06
-8.522083e-05
8.64858e-05
3.36875e-10
-2.346269e-06
1.236596e-06
-9.055611e-05
9.201143e-05
3.754026e-10
-2.692297e-06
1.331393e-06
-9.659074e-05
9.819164e-05
4.038048e-10
-2.932695e-06
1.372402e-06
-0.0001031492
0.000104854
4.264975e-10
-3.077631e-06
1.368008e-06
-0.0001100714
0.0001118433
4.446374e-10
-3.140302e-06
1.327942e-06
-0.000117218
0.0001190262
4.528068e-10
-3.136533e-06
1.263704e-06
-0.0001244768
0.000126299
4.529429e-10
-3.086335e-06
1.18279e-06
-0.0001317694
0.0001335906
4.702621e-10
-3.004382e-06
1.092663e-06
-0.0001390377
0.0001408427
4.371494e-10
-2.898135e-06
9.908648e-07
-0.0001462279
0.0001480077
4.675366e-10
-2.771111e-06
8.874491e-07
-0.0001533027
0.0001550462
4.360778e-10
-2.631407e-06
7.797135e-07
-0.0001602259
0.0001619261
4.122971e-10
-2.480379e-06
6.598506e-07
-0.0001669558
0.0001686057
4.347437e-10
-2.310202e-06
5.258278e-07
-0.0001735028
0.0001751047
4.151061e-10
-2.128166e-06
4.155222e-07
-0.0001798355
0.0001813793
4.167581e-10
-1.959766e-06
2.960884e-07
-0.0001859458
0.0001874374
3.907463e-10
-1.788105e-06
1.839515e-07
-0.0001918406
0.0001932779
3.696306e-10
-1.621609e-06
6.832021e-08
-0.0001975409
0.0001989442
3.780651e-10
-1.471906e-06
5.3787e-08
-0.0002031508
0.0002045711
3.77117e-10
-1.474535e-06
8.622841e-07
-0.0002089475
0.0002100851
3.790735e-10
-2.000264e-06
1.78634e-06
-0.000212973
0.000213988
3.322308e-10
-2.801725e-06
1.706921e-06
-0.0002171064
0.0002181293
3.321418e-10
-2.730172e-06
1.768471e-06
-0.0002210997
0.0002220656
3.004885e-10
-2.734689e-06
1.75518e-06
-0.0002249056
0.0002258229
2.787899e-10
-2.672759e-06
1.748286e-06
-0.0002285014
0.0002293649
2.519755e-10
-2.612051e-06
1.734731e-06
-0.000231878
0.0002326856
2.365079e-10
-2.542615e-06
1.716805e-06
-0.0002350292
0.0002357794
2.241078e-10
-2.467288e-06
1.695979e-06
-0.0002379518
0.0002386456
2.011441e-10
-2.390019e-06
1.674738e-06
-0.0002406503
0.0002412897
1.669533e-10
-2.314234e-06
1.654199e-06
-0.0002431354
0.0002437239
1.441339e-10
-2.242765e-06
1.635148e-06
-0.0002454229
0.000245965
1.362481e-10
-2.177349e-06
1.618257e-06
-0.0002475318
0.0002480324
1.24805e-10
-2.119036e-06
1.603824e-06
-0.0002494819
0.0002499462
1.172616e-10
-2.068229e-06
1.59183e-06
-0.0002512933
0.0002517261
1.068598e-10
-2.024708e-06
1.582048e-06
-0.000252985
0.0002533907
1.000414e-10
-1.987922e-06
1.574129e-06
-0.000254574
0.0002549569
9.675524e-11
-1.957071e-06
1.567507e-06
-0.0002560756
0.0002564392
9.128935e-11
-1.931144e-06
1.562015e-06
-0.0002575025
0.0002578496
8.633554e-11
-1.909141e-06
1.558037e-06
-0.0002588655
0.0002591975
8.600072e-11
-1.890068e-06
1.554334e-06
-0.0002601723
0.0002604904
8.350114e-11
-1.872534e-06
1.548835e-06
-0.0002614276
0.0002617339
7.884226e-11
-1.855211e-06
1.542856e-06
-0.0002626351
0.0002629298
7.890452e-11
-1.837567e-06
1.535401e-06
-0.0002637961
0.000264079
8.252478e-11
-1.818381e-06
1.52616e-06
-0.0002649096
0.0002651804
8.038567e-11
-1.797019e-06
1.514839e-06
-0.0002659736
0.0002662316
6.86805e-11
-1.772863e-06
1.501353e-06
-0.000266985
0.0002672292
5.941056e-11
-1.745614e-06
1.486038e-06
-0.0002679396
0.0002681689
6.040225e-11
-1.715378e-06
1.468439e-06
-0.0002688327
0.0002690461
5.732837e-11
-1.681951e-06
1.448458e-06
-0.0002696611
0.0002698582
6.021066e-11
-1.645609e-06
1.428795e-06
-0.0002704213
0.0002706008
5.185877e-11
-1.608396e-06
1.408909e-06
-0.0002711096
0.0002712714
4.249983e-11
-1.570739e-06
1.389992e-06
-0.0002717229
0.0002718661
4.936722e-11
-1.533247e-06
1.369509e-06
-0.0002722727
0.0002724066
4.758216e-11
-1.503457e-06
1.398659e-06
-0.0002728188
0.0002729058
1.823785e-10
-1.485826e-06
1.707363e-06
-0.0002713069
0.001108507
-1.405347e-11
-6.095382e-06
9.475652e-08
1.710132e-06
7.960976e-08
-0.0002713108
-0.000281692
-0.0002816938
7.639943e-07
-0.001112862
0.001114286
-6.306486e-12
-5.322241e-06
1.203787e-06
7.451114e-07
1.18631e-06
1.006747e-06
-0.001115154
0.001116175
-5.577716e-12
-5.197445e-06
1.095601e-06
9.918309e-07
1.081531e-06
1.08669e-06
-0.001117476
0.001118614
-5.80753e-12
-5.593545e-06
1.154186e-06
1.073615e-06
1.141456e-06
1.173573e-06
-0.001119628
0.001120419
-7.794054e-12
-5.562672e-06
1.224334e-06
1.161572e-06
1.212547e-06
1.227288e-06
-0.001121158
0.001121836
-9.68476e-12
-5.624612e-06
1.256891e-06
1.216156e-06
1.245991e-06
1.272393e-06
-0.001122534
0.001123205
-9.446033e-12
-5.782633e-06
1.293843e-06
1.261954e-06
1.283726e-06
1.321024e-06
-0.001123889
0.001124564
-6.462876e-12
-5.974921e-06
1.338513e-06
1.310884e-06
1.329383e-06
1.366395e-06
-0.001125269
0.001125966
-4.544215e-12
-6.172424e-06
1.380714e-06
1.357216e-06
1.371972e-06
1.408968e-06
-0.001126685
0.001127415
-5.138363e-12
-6.371366e-06
1.41957e-06
1.401086e-06
1.411747e-06
1.444656e-06
-0.001128168
0.001128942
-6.676613e-12
-6.554721e-06
1.452745e-06
1.4376e-06
1.446045e-06
1.467992e-06
-0.001129741
0.001130567
-7.279048e-12
-6.697051e-06
1.473247e-06
1.461834e-06
1.467212e-06
1.47086e-06
-0.001131423
0.001132309
-6.053325e-12
-6.761192e-06
1.472041e-06
1.46527e-06
1.466618e-06
1.442838e-06
-0.001133229
0.001134179
-3.116223e-12
-6.701159e-06
1.437954e-06
1.43768e-06
1.432492e-06
1.372985e-06
-0.001135166
0.001136184
9.051505e-13
-6.475633e-06
1.360909e-06
1.36804e-06
1.355864e-06
1.267044e-06
-0.001137241
0.001138311
4.799932e-12
-6.095653e-06
1.250731e-06
1.262444e-06
1.246092e-06
1.142291e-06
-0.001139395
0.001140455
6.713221e-12
-5.580493e-06
1.122427e-06
1.138085e-06
1.117922e-06
9.873702e-07
-0.001141517
0.001142523
6.499421e-12
-4.895404e-06
9.614631e-07
9.831985e-07
9.571723e-07
8.068231e-07
-0.001143508
0.001144388
4.575141e-12
-4.041809e-06
7.77672e-07
8.032624e-07
7.740476e-07
6.175082e-07
-0.001145204
0.001145845
-4.58044e-13
-3.048999e-06
5.896279e-07
6.144483e-07
5.865279e-07
4.405771e-07
-0.001146355
0.0011466
-2.896398e-12
-1.956318e-06
4.178787e-07
4.378858e-07
4.151514e-07
2.875201e-07
-0.001146629
0.001146299
7.348476e-12
-7.82737e-07
2.715294e-07
2.851994e-07
2.692154e-07
1.583426e-07
-0.001145672
0.001144553
3.002884e-11
5.136496e-07
1.459246e-07
1.563555e-07
1.439732e-07
4.226198e-08
-0.001143038
0.001140976
5.306352e-11
1.912569e-06
3.426667e-08
4.062213e-08
3.2648e-08
-4.893484e-08
-0.001138461
0.001135321
7.259822e-11
3.34994e-06
-5.515273e-08
-4.990666e-08
-5.603203e-08
-1.344117e-07
-0.00113167
0.001127356
9.300512e-11
4.86525e-06
-1.406947e-07
-1.352235e-07
-1.414344e-07
-2.202442e-07
-0.00112248
0.001116904
1.190122e-10
6.470762e-06
-2.265808e-07
-2.206629e-07
-2.269663e-07
-2.972123e-07
-0.001110744
0.001103886
1.360526e-10
8.056558e-06
-3.019074e-07
-2.973968e-07
-3.020321e-07
-3.449983e-07
-0.001096503
0.001088517
1.169962e-10
9.367719e-06
-3.456796e-07
-3.449847e-07
-3.456076e-07
-3.445508e-07
-0.001080168
0.001071424
5.359931e-11
1.011178e-05
-3.398084e-07
-3.444221e-07
-3.396673e-07
-2.890987e-07
-0.001062561
0.001053584
-2.998768e-11
1.010978e-05
-2.777109e-07
-2.890089e-07
-2.776566e-07
-1.801058e-07
-0.00104473
0.001036035
-9.355461e-11
9.385482e-06
-1.650641e-07
-1.800655e-07
-1.650254e-07
-3.816977e-08
-0.001027644
0.001019615
-1.169223e-10
8.152517e-06
-2.339737e-08
-3.822343e-08
-2.345386e-08
1.315197e-07
-0.001011943
0.001004703
-1.055695e-10
6.678158e-06
1.494892e-07
1.314488e-07
1.494411e-07
2.849078e-07
-0.0009978465
0.0009914513
-7.745385e-11
5.222537e-06
3.014594e-07
2.84865e-07
3.014398e-07
4.057905e-07
-0.000985402
0.0009797645
-4.864541e-11
3.990041e-06
4.179586e-07
4.057805e-07
4.179471e-07
4.775498e-07
-0.0009743942
0.000969323
-2.832749e-11
3.150046e-06
4.830492e-07
4.775278e-07
4.830056e-07
4.891101e-07
-0.0009644115
0.0009596445
-1.56371e-11
2.815205e-06
4.868166e-07
4.891236e-07
4.868107e-07
4.381111e-07
-0.0009549158
0.0009501667
-8.851361e-12
3.016354e-06
4.282511e-07
4.381669e-07
4.282847e-07
3.319318e-07
-0.0009453436
0.0009403589
-6.720304e-12
3.688859e-06
3.158886e-07
3.320422e-07
3.160279e-07
1.835359e-07
-0.0009352187
0.0009298247
-7.817073e-12
4.700989e-06
1.630016e-07
1.835214e-07
1.629938e-07
-9.371719e-10
-0.0009242431
0.0009183735
-1.122402e-11
5.905719e-06
-1.697195e-08
-1.04141e-09
-1.709339e-08
-1.727536e-07
-0.0009122798
0.0009058838
-1.376535e-11
7.130284e-06
-1.944218e-07
-1.727364e-07
-1.944076e-07
-3.511927e-07
-0.0008993114
0.0008924802
-1.544007e-11
8.273487e-06
-3.70017e-07
-3.51115e-07
-3.699238e-07
-5.279271e-07
-0.0008855127
0.0008783815
-1.667509e-11
9.278168e-06
-5.457283e-07
-5.277813e-07
-5.455543e-07
-7.285921e-07
-0.000871258
0.0008641832
-2.24834e-11
1.012547e-05
-7.968231e-07
-7.284744e-07
-7.967283e-07
-9.238271e-07
-0.0008571978
0.0008502296
-1.871563e-11
1.067267e-05
-9.285603e-07
-9.236576e-07
-9.283925e-07
-9.702447e-07
-0.0008433589
0.0008366624
-1.783218e-11
1.057495e-05
-9.692584e-07
-9.700106e-07
-9.689931e-07
-9.267113e-07
-0.0008301062
0.0008238287
-1.538857e-11
9.954735e-06
-9.12139e-07
-9.264643e-07
-9.118726e-07
-7.818696e-07
-0.0008177301
0.0008119994
-1.251804e-11
8.79769e-06
-7.518431e-07
-7.81642e-07
-7.515929e-07
-5.644061e-07
-0.0008064962
0.0008014761
-9.32635e-12
7.211824e-06
-5.316592e-07
-5.641995e-07
-5.3147e-07
-3.2544e-07
-0.0007967746
0.0007926874
-6.435435e-12
5.324168e-06
-2.931265e-07
-3.253552e-07
-2.930422e-07
-5.180847e-08
-0.0007889875
0.0007859639
-3.927025e-12
3.135231e-06
-4.093274e-09
-5.178357e-08
-3.959949e-09
1.763718e-07
-0.0007835248
0.0007821353
-2.815001e-12
4.075259e-07
3.144618e-07
1.763111e-07
3.148373e-07
6.278606e-07
-0.0007807316
0.0007795576
-1.396486e-12
-1.327147e-06
6.215742e-07
6.291519e-07
6.225474e-07
8.998402e-07
-0.0007790178
0.0007795581
1.182965e-12
-4.062468e-06
8.58459e-07
9.027664e-07
8.611627e-07
1.084964e-06
-0.0007805772
0.0007821172
1.844449e-12
-5.876572e-06
1.081766e-06
1.086697e-06
1.083145e-06
1.111802e-06
-0.0007838488
0.0007857459
6.008016e-12
-6.285304e-06
1.081704e-06
1.112545e-06
1.082194e-06
9.30028e-07
-0.0007874927
0.0007892837
8.380698e-12
-5.492926e-06
9.209371e-07
9.301309e-07
9.208344e-07
1.185762e-06
-0.0007911816
0.0007936879
8.835634e-12
-7.418366e-06
1.270878e-06
1.185243e-06
1.270212e-06
1.707676e-06
-0.0007965702
0.0008000819
1.017149e-11
-1.048374e-05
1.779396e-06
1.706722e-06
1.778316e-06
2.145495e-06
-0.0008039057
0.0008084791
1.182981e-11
-1.330133e-05
2.219795e-06
2.144207e-06
2.218416e-06
2.664515e-06
-0.0008134987
0.0008194734
1.349713e-11
-1.680466e-05
2.752085e-06
2.662937e-06
2.750424e-06
3.240833e-06
-0.0008259867
0.0008335375
1.496874e-11
-2.069278e-05
3.332069e-06
3.238957e-06
3.330108e-06
3.845435e-06
-0.0008416501
0.0008508972
1.60483e-11
-2.481929e-05
3.942897e-06
3.843238e-06
3.940616e-06
4.482724e-06
-0.0008607586
0.0008718202
1.701895e-11
-2.918338e-05
4.580702e-06
4.480189e-06
4.578093e-06
5.090235e-06
-0.0008835078
0.0008963018
1.735703e-11
-3.332118e-05
5.176236e-06
5.087388e-06
5.173331e-06
5.601857e-06
-0.0009096473
0.0009239096