/*--------------------------------*- C++ -*----------------------------------*\
| =========                 |                                                 |
| \\      /  F ield         | foam-extend: Open Source CFD                    |
|  \\    /   O peration     | Version:     3.1                                |
|   \\  /    A nd           | Web:         http://www.extend-project.de       |
|    \\/     M anipulation  |                                                 |
\*---------------------------------------------------------------------------*/
FoamFile
{
    version     2.0;
    format      ascii;
    class       volScalarField;
    location    "8";
    object      alpha;
}
// * * * * * * * * * * * * * * * * * * * * * * * * * * * * * * * * * * * * * //

dimensions      [0 0 -1 0 0 0 0];

internalField   nonuniform List<scalar> 
2539
(
0.00516123
0.00517068
0.00518485
0.0051988
0.00521282
0.00522689
0.00524101
0.00525519
0.00526942
0.00528371
0.00529805
0.00531245
0.00532691
0.00534142
0.00535599
0.00537061
0.00538529
0.00540003
0.00541483
0.00542968
0.00544459
0.00545957
0.0054746
0.00548969
0.00550484
0.00552004
0.00553531
0.00555064
0.00556604
0.00558149
0.005597
0.00561258
0.00562821
0.00564392
0.00565968
0.00567551
0.0056914
0.00570735
0.00572337
0.00573945
0.0057556
0.00577181
0.00578809
0.00580444
0.00582085
0.00583733
0.00585388
0.00587049
0.00588717
0.00590392
0.00592074
0.00593763
0.00595459
0.00597162
0.00598872
0.00600589
0.00602313
0.00604044
0.00605782
0.00607528
0.00609281
0.00611041
0.00612809
0.00614584
0.00616367
0.00618157
0.00619954
0.0062176
0.00623573
0.00625393
0.00627221
0.00629057
0.00630901
0.00632753
0.00634613
0.0063648
0.00638356
0.0064024
0.00642132
0.00644032
0.0064594
0.00647856
0.00649781
0.00651714
0.00653656
0.00655606
0.00657564
0.00659531
0.00661507
0.00663492
0.00665485
0.00667487
0.00669497
0.00671517
0.00673546
0.00675583
0.0067763
0.00679686
0.00681751
0.00683825
0.00685908
0.00688001
0.00690103
0.00692215
0.00694337
0.00696467
0.00698608
0.00700758
0.00702918
0.00705088
0.00707268
0.00709458
0.00711658
0.00713868
0.00716088
0.00718318
0.00720559
0.0072281
0.00725071
0.00727343
0.00729626
0.00731919
0.00734223
0.00736538
0.00738864
0.00741201
0.00743548
0.00745907
0.00748277
0.00750658
0.00753051
0.00755455
0.0075787
0.00760297
0.00762736
0.00765186
0.00767648
0.00770122
0.00772608
0.00775107
0.00777617
0.00780139
0.00782674
0.00785221
0.00787781
0.00790353
0.00792938
0.00795536
0.00798147
0.0080077
0.00803407
0.00806056
0.00808719
0.00811395
0.00814085
0.00816788
0.00819505
0.00822236
0.0082498
0.00827738
0.00830511
0.00833297
0.00836098
0.00838913
0.00841743
0.00844587
0.00847446
0.00850319
0.00853208
0.00856111
0.0085903
0.00861964
0.00864913
0.00867878
0.00870858
0.00873854
0.00876866
0.00879894
0.00882938
0.00885998
0.00889075
0.00892168
0.00895278
0.00898404
0.00901948
0.00402823
0.00404252
0.00404776
0.00405255
0.00405733
0.00406211
0.0040669
0.00407169
0.00407649
0.0040813
0.00408611
0.00409093
0.00409575
0.00410058
0.00410541
0.00411026
0.0041151
0.00411996
0.00412482
0.00412968
0.00413456
0.00413944
0.00414432
0.00414921
0.00415411
0.00415901
0.00416393
0.00416884
0.00417376
0.00417869
0.00418363
0.00418857
0.00419352
0.00419847
0.00420344
0.0042084
0.00421338
0.00421836
0.00422335
0.00422834
0.00423334
0.00423835
0.00424336
0.00424838
0.0042534
0.00425844
0.00426348
0.00426852
0.00427358
0.00427863
0.0042837
0.00428877
0.00429385
0.00429894
0.00430403
0.00430913
0.00431424
0.00431935
0.00432447
0.0043296
0.00433474
0.00433988
0.00434503
0.00435018
0.00435534
0.00436051
0.00436569
0.00437087
0.00437606
0.00438126
0.00438646
0.00439168
0.0043969
0.00440212
0.00440735
0.0044126
0.00441784
0.0044231
0.00442836
0.00443363
0.00443891
0.00444419
0.00444949
0.00445479
0.00446009
0.00446541
0.00447073
0.00447606
0.0044814
0.00448674
0.0044921
0.00449746
0.00450283
0.0045082
0.00451359
0.00451898
0.00452438
0.00452979
0.0045352
0.00454062
0.00454606
0.0045515
0.00455694
0.0045624
0.00456786
0.00457333
0.00457881
0.0045843
0.0045898
0.0045953
0.00460082
0.00460634
0.00461187
0.0046174
0.00462295
0.00462851
0.00463407
0.00463964
0.00464522
0.00465081
0.00465641
0.00466201
0.00466763
0.00467325
0.00467888
0.00468453
0.00469018
0.00469584
0.0047015
0.00470718
0.00471287
0.00471856
0.00472426
0.00472998
0.0047357
0.00474143
0.00474717
0.00475292
0.00475868
0.00476445
0.00477022
0.00477601
0.00478181
0.00478761
0.00479343
0.00479925
0.00480509
0.00481093
0.00481678
0.00482265
0.00482852
0.0048344
0.00484029
0.00484619
0.00485211
0.00485803
0.00486396
0.0048699
0.00487585
0.00488181
0.00488778
0.00489376
0.00489975
0.00490575
0.00491177
0.00491779
0.00492382
0.00492986
0.00493591
0.00494197
0.00494805
0.00495413
0.00496022
0.00496633
0.00497244
0.00497857
0.0049847
0.00499085
0.004997
0.00500317
0.00500935
0.00501554
0.00502173
0.00502794
0.00503416
0.0050404
0.00504664
0.00505289
0.00505915
0.00506543
0.00507171
0.00507801
0.00508432
0.00509064
0.00509697
0.00510331
0.00510966
0.005116
0.00512308
0.00510942
0.00266991
0.00297973
0.00338592
0.00366133
0.00384928
0.00398936
0.00410253
0.00419986
0.00428736
0.0043684
0.00444496
0.00451825
0.00458903
0.00465783
0.00472502
0.00479088
0.00485561
0.00491938
0.00498232
0.00504455
0.00510615
0.00516721
0.00522779
0.00528796
0.00534777
0.00540726
0.00546648
0.00552547
0.00558426
0.00564288
0.00570136
0.00575973
0.00581801
0.00587623
0.0059344
0.00599255
0.0060507
0.00610885
0.00616704
0.00622527
0.00628356
0.00634193
0.00640039
0.00645895
0.00651763
0.00657644
0.00663539
0.0066945
0.00675378
0.00681324
0.00687289
0.00693275
0.00699283
0.00705313
0.00711368
0.00717449
0.00723556
0.00729692
0.00735857
0.00742054
0.00748283
0.00754547
0.00760846
0.00767184
0.0077356
0.00779978
0.0078644
0.00792948
0.00799503
0.0080611
0.00812771
0.00819489
0.00826267
0.0083311
0.00840021
0.00847006
0.0085407
0.00861219
0.0086846
0.00875801
0.00883253
0.00890826
0.00898533
0.0090639
0.00914417
0.00922637
0.00931081
0.00939784
0.00948793
0.00958168
0.00967985
0.00978339
0.00989355
0.0100119
0.0101403
0.010281
0.0104368
0.0106103
0.0108042
0.0110199
0.0116113
0.0118836
0.0121419
0.0123882
0.0126242
0.0128511
0.0130699
0.0132817
0.0134872
0.0136869
0.0138815
0.0140714
0.0142569
0.0144386
0.0146165
0.0147912
0.0149627
0.0151313
0.0152972
0.0154605
0.0156215
0.0157803
0.0159369
0.0160915
0.0162443
0.0163953
0.0165445
0.0166922
0.0168383
0.016983
0.0171263
0.0172682
0.0174089
0.0175483
0.0176865
0.0178237
0.0179597
0.0180947
0.0182287
0.0183617
0.0184937
0.0186249
0.0187552
0.0188847
0.0190133
0.0191411
0.0192682
0.0193945
0.0195201
0.019645
0.0197692
0.0198928
0.0200157
0.020138
0.0202597
0.0203808
0.0205013
0.0206212
0.0207406
0.0208594
0.0209778
0.0210956
0.0212129
0.0213297
0.0214461
0.0215619
0.0216774
0.0217923
0.0219069
0.022021
0.0221347
0.0222479
0.0223608
0.0224733
0.0225854
0.0226971
0.0228084
0.0229194
0.02303
0.0231402
0.0232501
0.0233597
0.0234689
0.0235778
0.0236863
0.0237946
0.0239025
0.0240101
0.0241175
0.0242245
0.0243312
0.0244376
0.0245436
0.0246495
0.0247553
0.0248615
0.0249682
0.0250741
0.0251749
0.0252638
0.0253373
0.0254036
0.0254697
0.0255358
0.0256016
0.0256674
0.025733
0.0257985
0.0258639
0.0259292
0.0259943
0.0260593
0.0261242
0.026189
0.0262536
0.0263181
0.0263825
0.0264468
0.026511
0.0265751
0.026639
0.0267029
0.0267666
0.0268302
0.0268937
0.0269571
0.0270204
0.0270835
0.0271466
0.0272095
0.0272724
0.0273351
0.0273977
0.0274602
0.0275226
0.027585
0.0276472
0.0277093
0.0277713
0.0278332
0.0278949
0.0279566
0.0280182
0.0280797
0.0281411
0.0282024
0.0282636
0.0283247
0.0283857
0.0284466
0.0285074
0.0285681
0.0286287
0.0286892
0.0287496
0.02881
0.0288702
0.0289303
0.0289904
0.0290503
0.0291102
0.02917
0.0292296
0.0292892
0.0293487
0.0294081
0.0294674
0.0295267
0.0295858
0.0296448
0.0297038
0.0297627
0.0298215
0.0298802
0.0299388
0.0299973
0.0300557
0.0301141
0.0301724
0.0302305
0.0302886
0.0303467
0.0304046
0.0304624
0.0305202
0.0305779
0.0306355
0.030693
0.0307504
0.0308078
0.0308651
0.0309223
0.0309794
0.0310364
0.0310933
0.0311502
0.031207
0.0312637
0.0313204
0.0313769
0.0314334
0.0314898
0.0315461
0.0316024
0.0316585
0.0317146
0.0317706
0.0318266
0.0318824
0.0319382
0.0319939
0.0320496
0.0321051
0.0321606
0.032216
0.0322714
0.0323266
0.0323818
0.0324369
0.032492
0.032547
0.0326019
0.0326567
0.0327114
0.0327661
0.0328207
0.0328753
0.0329297
0.0329841
0.0330385
0.0330927
0.0331469
0.033201
0.0332551
0.033309
0.0333629
0.0334168
0.0334705
0.0335242
0.0335779
0.0336314
0.0336849
0.0337383
0.0337917
0.033845
0.0338982
0.0339514
0.0340045
0.0340575
0.0341104
0.0341633
0.0342161
0.0342689
0.0343216
0.0343742
0.0344268
0.0344793
0.0345317
0.0345841
0.0346364
0.0346886
0.0347408
0.0347929
0.0348449
0.0348969
0.0349488
0.0350007
0.0350525
0.0351042
0.0351559
0.0352075
0.035259
0.0353105
0.0353619
0.0354132
0.0354645
0.0355158
0.0355669
0.035618
0.0356691
0.0357201
0.035771
0.0358219
0.0358727
0.0359234
0.0359741
0.0360247
0.0360753
0.0361258
0.0361762
0.0362266
0.0362769
0.0363272
0.0363774
0.0364276
0.0364776
0.0365277
0.0365776
0.0366276
0.0366774
0.0367272
0.036777
0.0368266
0.0368763
0.0369258
0.0369754
0.0370248
0.0370742
0.0371235
0.0371728
0.0372221
0.0372712
0.0373204
0.0373694
0.0374184
0.0374674
0.0375163
0.0375651
0.0376139
0.0376626
0.0377113
0.0377599
0.0378084
0.0378569
0.0379054
0.0379538
0.0380021
0.0380504
0.0380987
0.0381468
0.038195
0.038243
0.038291
0.038339
0.0383869
0.0384348
0.0384826
0.0385303
0.038578
0.0386256
0.0386732
0.0387208
0.0387682
0.0388157
0.038863
0.0389104
0.0389576
0.0390048
0.039052
0.0390991
0.0391462
0.0391932
0.0392401
0.039287
0.0393339
0.0393807
0.0394274
0.0394741
0.0395208
0.0395674
0.0396139
0.0396604
0.0397068
0.0397532
0.0397995
0.0398458
0.039892
0.0399382
0.0399843
0.0400304
0.0400764
0.0401224
0.0401683
0.0402142
0.04026
0.0403058
0.0403515
0.0403972
0.0404428
0.0404883
0.0405338
0.0405793
0.0406247
0.0406701
0.0407154
0.0407606
0.0408058
0.040851
0.0408961
0.0409412
0.0409862
0.0410311
0.041076
0.0411209
0.0411657
0.0412104
0.0412551
0.0412998
0.0413444
0.0413889
0.0414334
0.0414779
0.0415223
0.0415666
0.0416109
0.0416551
0.0416993
0.0417435
0.0417876
0.0418316
0.0418756
0.0419195
0.0419634
0.0420073
0.0420511
0.0420948
0.0421385
0.0421821
0.0422257
0.0422692
0.0423127
0.0423562
0.0423995
0.0424429
0.0424862
0.0425294
0.0425726
0.0426157
0.0426588
0.0427018
0.0427448
0.0427877
0.0428306
0.0428734
0.0429162
0.0429589
0.0430016
0.0430442
0.0430868
0.0431293
0.0431717
0.0432141
0.0432565
0.0432989
0.0433413
0.0433835
0.0434252
0.0434658
0.0435065
0.0435514
0.043605
0.0436635
0.043722
0.0437804
0.0438387
0.043897
0.0439552
0.0440133
0.0440713
0.0441293
0.0441873
0.0442451
0.0443029
0.0443606
0.0444183
0.0444759
0.0445334
0.0445908
0.0446482
0.0447055
0.0447628
0.04482
0.0448771
0.0449341
0.0449911
0.045048
0.0451048
0.0451616
0.0452183
0.045275
0.0453315
0.045388
0.0454445
0.0455008
0.0455571
0.0456134
0.0456695
0.0457256
0.0457816
0.0458376
0.0458935
0.0459493
0.046005
0.0460607
0.0461163
0.0461718
0.0462273
0.0462827
0.046338
0.0463933
0.0464484
0.0465035
0.0465586
0.0466135
0.0466684
0.0467233
0.046778
0.0468327
0.0468873
0.0469419
0.0469963
0.0470507
0.0471051
0.0471593
0.0472135
0.0472676
0.0473217
0.0473756
0.0474295
0.0474833
0.047537
0.0475907
0.0476442
0.0476977
0.0477511
0.0478044
0.0478576
0.0479107
0.0479637
0.0480167
0.0480696
0.0481224
0.0481751
0.0482279
0.0482805
0.0483332
0.0483858
0.0484384
0.048491
0.0485436
0.0485961
0.0486487
0.0487011
0.0487535
0.0488058
0.0488579
0.0489098
0.0489615
0.0490129
0.0490639
0.0491146
0.0491649
0.0492148
0.0492642
0.0493133
0.0493621
0.0494106
0.049459
0.0495074
0.049556
0.049605
0.0496546
0.0497053
0.0497572
0.0498101
0.0498628
0.0499142
0.0499655
0.0500253
0.0501085
0.0502182
0.0503049
0.0502391
0.0498992
0.049479
0.0498861
0.0526792
0.0582777
0.0603174
0.0456107
0.0213142
0.00819889
0.00445925
0.00357014
0.00335935
0.00330211
0.00327897
0.00326341
0.00324958
0.00323621
0.00322302
0.00320995
0.00319698
0.00318411
0.00317134
0.00315867
0.00314609
0.00313361
0.00312122
0.00310892
0.00309672
0.00308461
0.00307259
0.00306066
0.00304881
0.00303705
0.00302538
0.00301378
0.00300227
0.00299084
0.00297948
0.0029682
0.002957
0.00294589
0.00293486
0.00292393
0.00291309
0.00290237
0.00289176
0.00288128
0.00287093
0.00286072
0.00285065
0.00284071
0.00283091
0.00282123
0.00281166
0.00280221
0.00279279
0.00410329
0.00409823
0.00410525
0.00411228
0.00411106
0.00410779
0.00410415
0.00410044
0.00409701
0.00409446
0.00409308
0.00409247
0.00409218
0.00409229
0.00409328
0.0040953
0.00409793
0.00410133
0.00410541
0.00411016
0.00411586
0.00412215
0.00412922
0.00413696
0.00414521
0.00415426
0.0041642
0.00417509
0.0041869
0.00419948
0.00421265
0.00422668
0.00424168
0.00425767
0.0042745
0.00429198
0.00431036
0.00432959
0.00434955
0.00437069
0.00439314
0.00441634
0.00444048
0.00446609
0.00449288
0.00452061
0.00454954
0.00457959
0.00461065
0.00464302
0.00467684
0.00471201
0.00474836
0.00478626
0.00482587
0.00486725
0.0049103
0.00495484
0.00500119
0.00504936
0.00509924
0.00515124
0.0052056
0.00526243
0.00532165
0.00538308
0.00544692
0.00551322
0.00558249
0.0056551
0.00573125
0.00581096
0.00589418
0.00598144
0.0060729
0.00616868
0.0062694
0.00637538
0.00648687
0.00660478
0.00672987
0.00686284
0.00700412
0.00715399
0.00731349
0.00748432
0.00766801
0.00786628
0.00808204
0.00831868
0.00858048
0.00887362
0.00920857
0.00960213
0.0100836
0.0107068
0.0115703
0.012854
0.0148687
0.0180856
0.022939
0.0194886
0.0239018
0.023909
0.0239158
0.0239229
0.0239312
0.0239413
0.0239535
0.023968
0.0239849
0.0240042
0.0240258
0.0240495
0.0240751
0.0241025
0.0241315
0.0241618
0.0241933
0.0242258
0.0242592
0.0242935
0.0243284
0.0243639
0.0243999
0.0244364
0.0244734
0.0245108
0.0245485
0.0245866
0.024625
0.0246637
0.0247027
0.024742
0.0247816
0.0248214
0.0248615
0.0249019
0.0249425
0.0249833
0.0250243
0.0250655
0.025107
0.0251486
0.0251904
0.0252324
0.0252746
0.0253169
0.0253594
0.025402
0.0254447
0.0254876
0.0255305
0.0255736
0.0256168
0.02566
0.0257033
0.0257467
0.0257902
0.0258337
0.0258773
0.0259209
0.0259645
0.0260082
0.0260519
0.0260956
0.0261393
0.026183
0.0262268
0.0262705
0.0263142
0.0263579
0.0264016
0.0264453
0.026489
0.0265326
0.0265762
0.0266197
0.0266633
0.0267068
0.0267503
0.0267937
0.0268368
0.0268798
0.0269231
0.0269673
0.0270132
0.0270599
0.0271022
0.0271302
0.0271385
0.0271371
0.0271357
0.0271343
0.0271329
0.0271315
0.0271302
0.0271288
0.0271275
0.0271261
0.0271247
0.0271234
0.027122
0.0271207
0.0271194
0.027118
0.0271167
0.0271153
0.027114
0.0271127
0.0271113
0.02711
0.0271086
0.0271073
0.0271059
0.0271046
0.0271032
0.0271019
0.0271005
0.0270992
0.0270978
0.0270965
0.0270951
0.0270938
0.0270924
0.027091
0.0270897
0.0270883
0.0270869
0.0270856
0.0270842
0.0270828
0.0270814
0.02708
0.0270787
0.0270773
0.0270759
0.0270745
0.0270731
0.0270717
0.0270703
0.0270689
0.0270675
0.0270661
0.0270647
0.0270632
0.0270618
0.0270604
0.027059
0.0270576
0.0270561
0.0270547
0.0270533
0.0270518
0.0270504
0.027049
0.0270475
0.0270461
0.0270447
0.0270432
0.0270418
0.0270403
0.0270389
0.0270374
0.027036
0.0270345
0.0270331
0.0270316
0.0270302
0.0270287
0.0270272
0.0270258
0.0270243
0.0270229
0.0270214
0.0270199
0.0270185
0.027017
0.0270156
0.0270141
0.0270126
0.0270112
0.0270097
0.0270083
0.0270068
0.0270053
0.0270039
0.0270024
0.027001
0.0269995
0.0269981
0.0269966
0.0269952
0.0269937
0.0269923
0.0269908
0.0269894
0.026988
0.0269865
0.0269851
0.0269837
0.0269823
0.0269808
0.0269794
0.026978
0.0269766
0.0269752
0.0269738
0.0269724
0.026971
0.0269697
0.0269683
0.0269669
0.0269656
0.0269642
0.0269629
0.0269615
0.0269602
0.0269589
0.0269576
0.0269563
0.026955
0.0269537
0.0269524
0.0269511
0.0269499
0.0269486
0.0269474
0.0269462
0.0269449
0.0269437
0.0269425
0.0269413
0.0269402
0.026939
0.0269379
0.0269367
0.0269356
0.0269345
0.0269334
0.0269323
0.0269312
0.0269301
0.0269291
0.0269281
0.026927
0.026926
0.026925
0.026924
0.0269231
0.0269221
0.0269212
0.0269202
0.0269193
0.0269184
0.0269175
0.0269166
0.0269158
0.0269149
0.0269141
0.0269132
0.0269124
0.0269117
0.0269111
0.0269103
0.0269091
0.0269073
0.0269053
0.0269049
0.0269093
0.0269204
0.026932
0.0269217
0.0268553
0.0267227
0.0266137
0.0267886
0.0276174
0.029148
0.0300407
0.0270196
0.0188262
0.0103299
0.00561051
0.00380609
0.00322241
0.00304474
0.00299036
0.00297211
0.00296435
0.00295961
0.00295576
0.00295218
0.00294867
0.0029452
0.00294175
0.00293831
0.00293488
0.00293146
0.00292805
0.00292465
0.00292127
0.00291789
0.00291453
0.00291118
0.00290784
0.0029045
0.00290118
0.00289787
0.00289457
0.00289128
0.002888
0.00288473
0.00288147
0.00287823
0.00287499
0.00287176
0.00286854
0.00286533
0.00286213
0.00285894
0.00285576
0.00285259
0.00284943
0.00284628
0.00284314
0.00284001
0.00283689
0.00283378
0.00283067
0.00282758
0.0028245
0.00282142
0.00281836
0.0028153
0.00281225
0.00280921
0.00280618
0.00280316
0.00280015
0.00279715
0.00279415
0.00279117
0.00278819
0.00278522
0.00278226
0.00277931
0.00277637
0.00277344
0.00277051
0.0027676
0.00276469
0.00276179
0.0027589
0.00275601
0.00275314
0.00275027
0.00274741
0.00274456
0.00274172
0.00273888
0.00273606
0.00273324
0.00273043
0.00272762
0.00272483
0.00272204
0.00271926
0.00271649
0.00271372
0.00271097
0.00270822
0.00270548
0.00270274
0.00270002
0.0026973
0.00269458
0.00269188
0.00268918
0.00268649
0.00268381
0.00268113
0.00267847
0.00267581
0.00267315
0.0026705
0.00266786
0.00266523
0.00266261
0.00265999
0.00265746
0.00265545
0.00265456
0.00265451
0.00265469
0.00265492
0.00265518
0.00265543
0.00265569
0.00265595
0.0026562
0.00265646
0.00265672
0.00265697
0.00265723
0.00265749
0.00265774
0.002658
0.00265825
0.00265851
0.00265876
0.00265902
0.00265927
0.00265953
0.00265978
0.00266004
0.00266029
0.00266055
0.0026608
0.00266105
0.00266131
0.00266156
0.00266181
0.00266207
0.00266232
0.00266257
0.00266283
0.00266308
0.00266333
0.00266358
0.00266384
0.00266409
0.00266434
0.00266459
0.00266484
0.00266509
0.00266535
0.0026656
0.00266585
0.0026661
0.00266635
0.0026666
0.00266685
0.0026671
0.00266735
0.0026676
0.00266785
0.0026681
0.00266835
0.0026686
0.00266884
0.00266909
0.00266934
0.00266959
0.00266984
0.00267009
0.00267033
0.00267058
0.00267083
0.00267108
0.00267132
0.00267157
0.00267182
0.00267206
0.00267231
0.00267256
0.0026728
0.00267305
0.00267329
0.00267354
0.00267378
0.00267403
0.00267427
0.00267452
0.00267476
0.00267501
0.00267525
0.0026755
0.00267574
0.00267598
0.00267623
0.00267647
0.00267671
0.00267696
0.0026772
0.00267744
0.00267768
0.00267793
0.00267817
0.00267841
0.00267865
0.00267889
0.00267914
0.00267938
0.00267962
0.00267986
0.0026801
0.00268034
0.00268058
0.00268082
0.00268106
0.0026813
0.00268154
0.00268178
0.00268202
0.00268225
0.00268249
0.00268273
0.00268297
0.00268321
0.00268345
0.00268368
0.00268392
0.00268416
0.00268439
0.00268463
0.00268487
0.0026851
0.00268534
0.00268558
0.00268581
0.00268605
0.00268628
0.00268652
0.00268675
0.00268699
0.00268722
0.00268745
0.00268769
0.00268792
0.00268816
0.00268839
0.00268862
0.00268885
0.00268909
0.00268932
0.00268955
0.00268978
0.00269002
0.00269025
0.00269048
0.00269071
0.00269094
0.00269117
0.0026914
0.00269163
0.00269186
0.00269209
0.00269232
0.00269255
0.00269278
0.00269301
0.00269324
0.00269346
0.00269369
0.00269392
0.00269415
0.00269437
0.0026946
0.00269483
0.00269506
0.00269528
0.00269551
0.00269573
0.00269596
0.00269619
0.00269641
0.00269664
0.00269686
0.00269709
0.00269731
0.00269753
0.00269776
0.00269798
0.00269821
0.00269843
0.00269865
0.00269888
0.0026991
0.00269932
0.00269954
0.00269977
0.00269999
0.00270021
0.00270043
0.00270065
0.00270088
0.0027011
0.00270132
0.00270154
0.00270176
0.00270198
0.0027022
0.00270242
0.00270264
0.00270287
0.00270309
0.00270331
0.00270353
0.00270375
0.00270397
0.00270419
0.00270441
0.00270463
0.00270485
0.00270507
0.00270529
0.00270551
0.00270574
0.00270596
0.00270618
0.0027064
0.00270662
0.00270685
0.00270707
0.00270729
0.00270752
0.00270774
0.00270796
0.00270819
0.00270841
0.00270864
0.00270887
0.00270909
0.00270932
0.00270955
0.00270978
0.00271001
0.00271024
0.00271047
0.0027107
0.00271094
0.00271117
0.00271141
0.00271165
0.00271188
0.00271212
0.00271236
0.00271261
0.00271285
0.0027131
0.00271334
0.00271359
0.00271384
0.00271409
0.00271435
0.0027146
0.00271486
0.00271512
0.00271538
0.00271565
0.00271591
0.00271618
0.00271645
0.00271673
0.002717
0.00271728
0.00271756
0.00271785
0.00271814
0.00271843
0.00271872
0.00271902
0.00271932
0.00271963
0.00271994
0.00272025
0.00272056
0.00272088
0.00272121
0.00272153
0.00272187
0.0027222
0.00272254
0.00272289
0.00272324
0.00272359
0.00272395
0.00272431
0.00272468
0.00272505
0.00272543
0.00272581
0.0027262
0.0027266
0.002727
0.0027274
0.00272781
0.00272823
0.00272865
0.00272908
0.00272952
0.00272996
0.0027304
0.00273086
0.00273131
0.00273178
0.00273225
0.00273273
0.00273322
0.00273371
0.00273421
0.00273471
0.00273523
0.00273575
0.00273627
0.00273681
0.00273735
0.0027379
0.00273845
0.00273902
0.00273959
0.00274017
0.00274075
0.00274135
0.00274195
0.00274256
0.00274317
0.0027438
0.00274443
0.00274507
0.00274572
0.00274638
0.00274704
0.00274772
0.0027484
0.00274909
0.00274979
0.00275049
0.00275121
0.00275193
0.00275267
0.00275341
0.00275416
0.00275492
0.00275569
0.00275646
0.00275725
0.00275804
0.00275885
0.00275966
0.00276048
0.00276132
0.00276216
0.00276301
0.00276387
0.00276474
0.00276562
0.00276651
0.00276741
0.00276832
0.00276924
0.00277017
0.00277111
0.00277206
0.00277302
0.00277399
0.00277498
0.00277597
0.00277698
0.00277799
0.00277902
0.00278006
0.00278111
0.00278217
0.00278325
0.00278433
0.00278543
0.00278654
0.00278767
0.0027888
0.00278995
0.00279111
0.00279228
0.00279347
0.00279467
0.00279589
0.00279711
0.00279835
0.00279961
0.00280088
0.00280216
0.00280346
0.00280478
0.0028061
0.00280745
0.00280881
0.00281018
0.00281157
0.00281297
0.0028144
0.00281583
0.00281729
0.00281876
0.00282024
0.00282174
0.00282326
0.0028248
0.00282636
0.00282793
0.00282952
0.00283112
0.00283275
0.00283439
0.00283605
0.00283773
0.00283943
0.00284114
0.00284288
0.00284463
0.00284641
0.0028482
0.00285001
0.00285184
0.00285369
0.00285556
0.00285745
0.00285935
0.00286128
0.00286323
0.0028652
0.00286718
0.00286919
0.00287122
0.00287327
0.00287534
0.00287743
0.00287953
0.00288166
0.00288381
0.00288598
0.00288817
0.00289038
0.00289262
0.00289487
0.00289714
0.00289943
0.00290175
0.00290408
0.00290644
0.00290881
0.00291121
0.00291362
0.00291606
0.00291851
0.00292099
0.00292349
0.002926
0.00292854
0.0029311
0.00293368
0.00293627
0.00293889
0.00294153
0.00294418
0.00294686
0.00294955
0.00295227
0.002955
0.00295776
0.00296053
0.00296332
0.00296614
0.00296897
0.00297181
0.00297468
0.00297757
0.00298047
0.0029834
0.00298634
0.0029893
0.00299227
0.00299527
0.00299828
0.00300131
0.00300436
0.00300743
0.00301051
0.00301361
0.00301673
0.00301986
0.00302301
0.00302618
0.00302937
0.00303257
0.00303578
0.00303902
0.00304227
0.00304553
0.00304881
0.00305211
0.00305542
0.00305874
0.00306209
0.00306544
0.00306881
0.0030722
0.0030756
0.00307902
0.00308245
0.00308589
0.00308935
0.00309282
0.0030963
0.0030998
0.00310331
0.00310684
0.00311038
0.00311393
0.00311749
0.00312107
0.00312466
0.00312826
0.00313188
0.0031355
0.00313914
0.00314279
0.00314646
0.00315013
0.00315381
0.00315751
0.00316122
0.00316494
0.00316867
0.00317241
0.00317616
0.00317992
0.00318369
0.00318747
0.00319126
0.00319506
0.00319888
0.0032027
0.00320653
0.00321037
0.00321421
0.00321807
0.00322194
0.00322581
0.00322969
0.00323359
0.00323749
0.00324139
0.00324531
0.00324923
0.00325316
0.0032571
0.00326105
0.003265
0.00326896
0.00327292
0.0032769
0.00328087
0.00328486
0.00328885
0.00329285
0.00329685
0.00330086
0.00330487
0.00330889
0.00331292
0.00331694
0.00332098
0.00332501
0.00332906
0.0033331
0.00333715
0.00334121
0.00334526
0.00334932
0.00335339
0.00335745
0.00336152
0.00336559
0.00336966
0.00337374
0.00337781
0.00338189
0.00338597
0.00339005
0.00339413
0.00339821
0.00340229
0.00340637
0.00341045
0.00341453
0.00341861
0.00342269
0.00342677
0.00343084
0.00343491
0.00343898
0.00344305
0.00344711
0.00345117
0.00345523
0.00345928
0.00346333
0.00346737
0.00347141
0.00347544
0.00347947
0.00348349
0.0034875
0.0034915
0.0034955
0.00349949
0.00350347
0.00350744
0.0035114
0.00351535
0.00351929
0.00352322
0.00352714
0.00353105
0.00353494
0.00353882
0.00354268
0.00354653
0.00355036
0.00355418
0.00355798
0.00356177
0.00356554
0.00356928
0.00357301
0.00357672
0.0035804
0.00358407
0.00358771
0.00359133
0.00359492
0.00359849
0.00360204
0.00360555
0.00360904
0.0036125
0.00361593
0.00361932
0.00362269
0.00362602
0.00362932
0.00363258
0.00363581
0.003639
0.00364215
0.00364526
0.00364833
0.00365136
0.00365435
0.00365729
0.00366018
0.00366303
0.00366583
0.00366858
0.00367127
0.00367392
0.00367651
0.00367905
0.00368153
0.00368395
0.00368632
0.00368862
0.00369087
0.00369305
0.00369517
0.00369722
0.00369921
0.00370113
0.00370298
0.00370477
0.00370648
0.00370813
0.0037097
0.0037112
0.00371263
0.00371399
0.00371527
0.00371648
0.00371761
0.00371867
0.00371966
0.00372057
0.00372141
0.00372218
0.00372287
0.0037235
0.00372405
0.00372453
0.00372495
0.0037253
0.00372558
0.00372581
0.00372597
0.00372607
0.00372611
0.00372611
0.00372605
0.00372594
0.00372578
0.00372559
0.00372535
0.00372508
0.00372477
0.00372444
0.00372408
0.0037237
0.0037233
0.00372289
0.00372247
0.00372204
0.00372161
0.00372118
0.00372075
0.00372034
0.00371994
0.00371955
0.00371919
0.00371885
0.00371854
0.00371826
0.00371801
0.0037178
0.00371763
0.0037175
0.00371741
0.00371737
0.00371739
0.00371745
0.00371757
0.00371774
0.00371797
0.00371825
0.00371859
0.00371899
0.00371946
0.00371998
0.00372056
0.0037212
0.0037219
0.00372266
0.00372348
0.00372436
0.00372529
0.00372628
0.00372733
0.00372843
0.00372958
0.00373078
0.00373204
0.00373333
0.00373467
0.00373606
0.00373748
0.00373894
0.00374044
0.00374197
0.00374353
0.00374511
0.00374672
0.00374834
0.00374999
0.00375165
0.00375332
0.003755
0.00375668
0.00375836
0.00376003
0.0037617
0.00376336
0.00376501
0.00376663
0.00376824
0.00376981
0.00377136
0.00377287
0.00377434
0.00377577
0.00377716
0.00377849
0.00377977
0.00378099
0.00378215
0.00378324
0.00378427
0.00378521
0.00378608
0.00378687
0.00378758
0.00378819
0.00378871
0.00378914
0.00378947
0.0037897
0.00378983
0.00378985
0.00378976
0.00378956
0.00378925
0.00378883
0.00378829
0.00378764
0.00378687
0.00378598
0.00378497
0.00378385
0.00378261
0.00378126
0.00377979
0.00377821
0.00377651
0.00377471
0.00377279
0.00377078
0.00376866
0.00376644
0.00376412
0.00376171
0.00375921
0.00375663
0.00375396
0.00375122
0.0037484
0.00374552
0.00374257
0.00373956
0.00373649
0.00373337
0.0037302
0.00372699
0.00372374
0.00372046
0.00371714
0.0037138
0.00371043
0.00370705
0.00370364
0.00370023
0.0036968
0.00369337
0.00368993
0.00368649
0.00368305
0.00367962
0.00367619
0.00367276
0.00366935
0.00366595
0.00366255
0.00365918
0.00365581
0.00365246
0.00364913
0.00364582
0.00364252
0.00363925
0.00363599
0.00363275
0.00362954
0.00362634
0.00362317
0.00362002
0.00361689
0.00361378
0.00361069
0.00360763
0.00360459
0.00360157
0.00359857
0.0035956
0.00359265
0.00358972
0.00358682
0.00358393
0.00358107
0.00357823
0.00357542
0.00357262
0.00356985
0.0035671
0.00356437
0.00356167
0.00355898
0.00355632
0.00355367
0.00355105
0.00354845
0.00354587
0.00354331
0.00354077
0.00353825
0.00353575
0.00353326
0.0035308
0.00352836
0.00352594
0.00352353
0.00352114
0.00351877
0.00351642
0.00351409
0.00351177
0.00350947
0.00350719
0.00350492
0.00350268
0.00350044
0.00349822
0.00349602
0.00349383
0.00349166
0.0034895
0.00348736
0.00348523
0.00348312
0.00348102
0.00347893
0.00347685
0.00347479
0.00347274
0.00347071
0.00346868
0.00346668
0.00346475
0.00346314
)
;

boundaryField
{
    inlet
    {
        type            calculated;
        value           uniform 0.00516201;
    }
    outlet
    {
        type            calculated;
        value           uniform 0.00346314;
    }
    right
    {
        type            empty;
    }
    left
    {
        type            empty;
    }
    atmosphere
    {
        type            empty;
    }
    bottomWall
    {
        type            empty;
    }
}


// ************************************************************************* //
