/*--------------------------------*- C++ -*----------------------------------*\
| =========                 |                                                 |
| \\      /  F ield         | foam-extend: Open Source CFD                    |
|  \\    /   O peration     | Version:     3.1                                |
|   \\  /    A nd           | Web:         http://www.extend-project.de       |
|    \\/     M anipulation  |                                                 |
\*---------------------------------------------------------------------------*/
FoamFile
{
    version     2.0;
    format      ascii;
    class       volVectorField;
    location    "8";
    object      U;
}
// * * * * * * * * * * * * * * * * * * * * * * * * * * * * * * * * * * * * * //

dimensions      [0 1 -1 0 0 0 0];

internalField   nonuniform List<vector> 
2539
(
(0.710008 0 0)
(0.710531 0 0)
(0.711451 0 0)
(0.712349 0 0)
(0.71325 0 0)
(0.714154 0 0)
(0.715059 0 0)
(0.715967 0 0)
(0.716877 0 0)
(0.717788 0 0)
(0.718702 0 0)
(0.719618 0 0)
(0.720536 0 0)
(0.721455 0 0)
(0.722378 0 0)
(0.723302 0 0)
(0.724228 0 0)
(0.725156 0 0)
(0.726087 0 0)
(0.727019 0 0)
(0.727954 0 0)
(0.728891 0 0)
(0.72983 0 0)
(0.730772 0 0)
(0.731715 0 0)
(0.732661 0 0)
(0.733608 0 0)
(0.734558 0 0)
(0.735511 0 0)
(0.736465 0 0)
(0.737422 0 0)
(0.738381 0 0)
(0.739342 0 0)
(0.740305 0 0)
(0.741271 0 0)
(0.742239 0 0)
(0.743209 0 0)
(0.744181 0 0)
(0.745156 0 0)
(0.746133 0 0)
(0.747113 0 0)
(0.748095 0 0)
(0.749079 0 0)
(0.750065 0 0)
(0.751054 0 0)
(0.752045 0 0)
(0.753038 0 0)
(0.754034 0 0)
(0.755033 0 0)
(0.756033 0 0)
(0.757036 0 0)
(0.758042 0 0)
(0.75905 0 0)
(0.76006 0 0)
(0.761073 0 0)
(0.762088 0 0)
(0.763106 0 0)
(0.764127 0 0)
(0.765149 0 0)
(0.766175 0 0)
(0.767202 0 0)
(0.768233 0 0)
(0.769266 0 0)
(0.770301 0 0)
(0.771339 0 0)
(0.772379 0 0)
(0.773423 0 0)
(0.774468 0 0)
(0.775517 0 0)
(0.776567 0 0)
(0.777621 0 0)
(0.778677 0 0)
(0.779736 0 0)
(0.780798 0 0)
(0.781862 0 0)
(0.782929 0 0)
(0.783998 0 0)
(0.78507 0 0)
(0.786145 0 0)
(0.787223 0 0)
(0.788304 0 0)
(0.789387 0 0)
(0.790473 0 0)
(0.791561 0 0)
(0.792653 0 0)
(0.793747 0 0)
(0.794845 0 0)
(0.795945 0 0)
(0.797048 0 0)
(0.798153 0 0)
(0.799262 0 0)
(0.800373 0 0)
(0.801488 0 0)
(0.802605 0 0)
(0.803725 0 0)
(0.804849 0 0)
(0.805975 0 0)
(0.807104 0 0)
(0.808236 0 0)
(0.809371 0 0)
(0.810509 0 0)
(0.81165 0 0)
(0.812794 0 0)
(0.813942 0 0)
(0.815092 0 0)
(0.816245 0 0)
(0.817402 0 0)
(0.818561 0 0)
(0.819724 0 0)
(0.82089 0 0)
(0.822059 0 0)
(0.823231 0 0)
(0.824407 0 0)
(0.825585 0 0)
(0.826767 0 0)
(0.827952 0 0)
(0.829141 0 0)
(0.830332 0 0)
(0.831527 0 0)
(0.832725 0 0)
(0.833927 0 0)
(0.835132 0 0)
(0.83634 0 0)
(0.837551 0 0)
(0.838766 0 0)
(0.839985 0 0)
(0.841207 0 0)
(0.842432 0 0)
(0.843661 0 0)
(0.844893 0 0)
(0.846129 0 0)
(0.847368 0 0)
(0.848611 0 0)
(0.849857 0 0)
(0.851107 0 0)
(0.85236 0 0)
(0.853617 0 0)
(0.854878 0 0)
(0.856142 0 0)
(0.85741 0 0)
(0.858682 0 0)
(0.859958 0 0)
(0.861237 0 0)
(0.86252 0 0)
(0.863806 0 0)
(0.865097 0 0)
(0.866391 0 0)
(0.867689 0 0)
(0.868991 0 0)
(0.870297 0 0)
(0.871607 0 0)
(0.87292 0 0)
(0.874238 0 0)
(0.875559 0 0)
(0.876885 0 0)
(0.878215 0 0)
(0.879548 0 0)
(0.880886 0 0)
(0.882227 0 0)
(0.883573 0 0)
(0.884923 0 0)
(0.886277 0 0)
(0.887636 0 0)
(0.888998 0 0)
(0.890365 0 0)
(0.891736 0 0)
(0.893111 0 0)
(0.89449 0 0)
(0.895874 0 0)
(0.897262 0 0)
(0.898655 0 0)
(0.900052 0 0)
(0.901453 0 0)
(0.902859 0 0)
(0.904269 0 0)
(0.905684 0 0)
(0.907103 0 0)
(0.908527 0 0)
(0.909956 0 0)
(0.911389 0 0)
(0.912826 0 0)
(0.914269 0 0)
(0.915716 0 0)
(0.917168 0 0)
(0.918625 0 0)
(0.920698 0 0)
(0.922528 0 0)
(0.923142 0 0)
(0.923694 0 0)
(0.924244 0 0)
(0.924794 0 0)
(0.925344 0 0)
(0.925894 0 0)
(0.926444 0 0)
(0.926995 0 0)
(0.927545 0 0)
(0.928096 0 0)
(0.928647 0 0)
(0.929199 0 0)
(0.929751 0 0)
(0.930302 0 0)
(0.930854 0 0)
(0.931407 0 0)
(0.931959 0 0)
(0.932512 0 0)
(0.933065 0 0)
(0.933618 0 0)
(0.934171 0 0)
(0.934725 0 0)
(0.935279 0 0)
(0.935833 0 0)
(0.936387 0 0)
(0.936941 0 0)
(0.937496 0 0)
(0.938051 0 0)
(0.938606 0 0)
(0.939162 0 0)
(0.939717 0 0)
(0.940273 0 0)
(0.940829 0 0)
(0.941386 0 0)
(0.941942 0 0)
(0.942499 0 0)
(0.943056 0 0)
(0.943613 0 0)
(0.944171 0 0)
(0.944729 0 0)
(0.945287 0 0)
(0.945845 0 0)
(0.946403 0 0)
(0.946962 0 0)
(0.947521 0 0)
(0.94808 0 0)
(0.94864 0 0)
(0.949199 0 0)
(0.949759 0 0)
(0.95032 0 0)
(0.95088 0 0)
(0.951441 0 0)
(0.952002 0 0)
(0.952563 0 0)
(0.953125 0 0)
(0.953686 0 0)
(0.954248 0 0)
(0.954811 0 0)
(0.955373 0 0)
(0.955936 0 0)
(0.956499 0 0)
(0.957063 0 0)
(0.957627 0 0)
(0.958191 0 0)
(0.958755 0 0)
(0.959319 0 0)
(0.959884 0 0)
(0.960449 0 0)
(0.961015 0 0)
(0.961581 0 0)
(0.962147 0 0)
(0.962713 0 0)
(0.963279 0 0)
(0.963846 0 0)
(0.964414 0 0)
(0.964981 0 0)
(0.965549 0 0)
(0.966117 0 0)
(0.966686 0 0)
(0.967254 0 0)
(0.967824 0 0)
(0.968393 0 0)
(0.968963 0 0)
(0.969533 0 0)
(0.970103 0 0)
(0.970674 0 0)
(0.971245 0 0)
(0.971817 0 0)
(0.972388 0 0)
(0.97296 0 0)
(0.973533 0 0)
(0.974106 0 0)
(0.974679 0 0)
(0.975252 0 0)
(0.975826 0 0)
(0.976401 0 0)
(0.976975 0 0)
(0.97755 0 0)
(0.978126 0 0)
(0.978701 0 0)
(0.979277 0 0)
(0.979854 0 0)
(0.980431 0 0)
(0.981008 0 0)
(0.981586 0 0)
(0.982164 0 0)
(0.982742 0 0)
(0.983321 0 0)
(0.9839 0 0)
(0.98448 0 0)
(0.98506 0 0)
(0.985641 0 0)
(0.986222 0 0)
(0.986803 0 0)
(0.987385 0 0)
(0.987967 0 0)
(0.98855 0 0)
(0.989133 0 0)
(0.989716 0 0)
(0.9903 0 0)
(0.990884 0 0)
(0.991469 0 0)
(0.992054 0 0)
(0.99264 0 0)
(0.993226 0 0)
(0.993813 0 0)
(0.9944 0 0)
(0.994988 0 0)
(0.995576 0 0)
(0.996164 0 0)
(0.996753 0 0)
(0.997343 0 0)
(0.997933 0 0)
(0.998523 0 0)
(0.999114 0 0)
(0.999706 0 0)
(1.0003 0 0)
(1.00089 0 0)
(1.00148 0 0)
(1.00208 0 0)
(1.00267 0 0)
(1.00326 0 0)
(1.00386 0 0)
(1.00446 0 0)
(1.00505 0 0)
(1.00565 0 0)
(1.00624 0 0)
(1.00684 0 0)
(1.00744 0 0)
(1.00804 0 0)
(1.00864 0 0)
(1.00924 0 0)
(1.00984 0 0)
(1.01044 0 0)
(1.01104 0 0)
(1.01164 0 0)
(1.01225 0 0)
(1.01285 0 0)
(1.01345 0 0)
(1.01406 0 0)
(1.01466 0 0)
(1.01527 0 0)
(1.01587 0 0)
(1.01648 0 0)
(1.01709 0 0)
(1.01769 0 0)
(1.0183 0 0)
(1.01891 0 0)
(1.01952 0 0)
(1.02013 0 0)
(1.02074 0 0)
(1.02135 0 0)
(1.02196 0 0)
(1.02258 0 0)
(1.02319 0 0)
(1.0238 0 0)
(1.02442 0 0)
(1.02503 0 0)
(1.02565 0 0)
(1.02626 0 0)
(1.02688 0 0)
(1.0275 0 0)
(1.02812 0 0)
(1.02873 0 0)
(1.02935 0 0)
(1.02997 0 0)
(1.03059 0 0)
(1.03121 0 0)
(1.03184 0 0)
(1.03246 0 0)
(1.03308 0 0)
(1.0337 0 0)
(1.03433 0 0)
(1.03495 0 0)
(1.03558 0 0)
(1.03621 0 0)
(1.03682 0 0)
(1.03769 0 0)
(1.03163 0 0)
(1.08861 0 0)
(1.15811 0 0)
(1.20252 0 0)
(1.23113 0 0)
(1.25152 0 0)
(1.26743 0 0)
(1.28075 0 0)
(1.29247 0 0)
(1.30314 0 0)
(1.31308 0 0)
(1.32247 0 0)
(1.33145 0 0)
(1.34009 0 0)
(1.34844 0 0)
(1.35656 0 0)
(1.36447 0 0)
(1.37221 0 0)
(1.37978 0 0)
(1.38721 0 0)
(1.39451 0 0)
(1.4017 0 0)
(1.40878 0 0)
(1.41576 0 0)
(1.42266 0 0)
(1.42948 0 0)
(1.43622 0 0)
(1.44289 0 0)
(1.4495 0 0)
(1.45605 0 0)
(1.46254 0 0)
(1.46899 0 0)
(1.47539 0 0)
(1.48174 0 0)
(1.48805 0 0)
(1.49432 0 0)
(1.50056 0 0)
(1.50677 0 0)
(1.51294 0 0)
(1.51909 0 0)
(1.52521 0 0)
(1.5313 0 0)
(1.53737 0 0)
(1.54342 0 0)
(1.54945 0 0)
(1.55547 0 0)
(1.56146 0 0)
(1.56744 0 0)
(1.57341 0 0)
(1.57937 0 0)
(1.58531 0 0)
(1.59125 0 0)
(1.59718 0 0)
(1.6031 0 0)
(1.60902 0 0)
(1.61493 0 0)
(1.62084 0 0)
(1.62675 0 0)
(1.63266 0 0)
(1.63857 0 0)
(1.64448 0 0)
(1.6504 0 0)
(1.65632 0 0)
(1.66225 0 0)
(1.66818 0 0)
(1.67413 0 0)
(1.68009 0 0)
(1.68606 0 0)
(1.69205 0 0)
(1.69805 0 0)
(1.70408 0 0)
(1.71012 0 0)
(1.7162 0 0)
(1.7223 0 0)
(1.72843 0 0)
(1.7346 0 0)
(1.7408 0 0)
(1.74705 0 0)
(1.75335 0 0)
(1.7597 0 0)
(1.76612 0 0)
(1.7726 0 0)
(1.77917 0 0)
(1.78582 0 0)
(1.79258 0 0)
(1.79947 0 0)
(1.80649 0 0)
(1.81369 0 0)
(1.82109 0 0)
(1.82873 0 0)
(1.83667 0 0)
(1.84497 0 0)
(1.85373 0 0)
(1.86304 0 0)
(1.87304 0 0)
(1.88389 0 0)
(1.89577 0 0)
(1.90887 0 0)
(1.92338 0 0)
(1.93939 0 0)
(1.98274 0 0)
(2.00308 0 0)
(2.02211 0 0)
(2.04003 0 0)
(2.05699 0 0)
(2.07311 0 0)
(2.08851 0 0)
(2.10326 0 0)
(2.11743 0 0)
(2.1311 0 0)
(2.14429 0 0)
(2.15707 0 0)
(2.16946 0 0)
(2.1815 0 0)
(2.19321 0 0)
(2.20463 0 0)
(2.21576 0 0)
(2.22664 0 0)
(2.23728 0 0)
(2.24769 0 0)
(2.25789 0 0)
(2.26789 0 0)
(2.2777 0 0)
(2.28734 0 0)
(2.29681 0 0)
(2.30612 0 0)
(2.31528 0 0)
(2.32429 0 0)
(2.33317 0 0)
(2.34192 0 0)
(2.35055 0 0)
(2.35905 0 0)
(2.36744 0 0)
(2.37573 0 0)
(2.3839 0 0)
(2.39198 0 0)
(2.39996 0 0)
(2.40785 0 0)
(2.41564 0 0)
(2.42335 0 0)
(2.43098 0 0)
(2.43852 0 0)
(2.44599 0 0)
(2.45338 0 0)
(2.4607 0 0)
(2.46794 0 0)
(2.47512 0 0)
(2.48223 0 0)
(2.48927 0 0)
(2.49626 0 0)
(2.50318 0 0)
(2.51004 0 0)
(2.51684 0 0)
(2.52359 0 0)
(2.53028 0 0)
(2.53692 0 0)
(2.5435 0 0)
(2.55004 0 0)
(2.55652 0 0)
(2.56296 0 0)
(2.56934 0 0)
(2.57569 0 0)
(2.58198 0 0)
(2.58824 0 0)
(2.59445 0 0)
(2.60062 0 0)
(2.60674 0 0)
(2.61283 0 0)
(2.61887 0 0)
(2.62488 0 0)
(2.63085 0 0)
(2.63678 0 0)
(2.64267 0 0)
(2.64853 0 0)
(2.65436 0 0)
(2.66015 0 0)
(2.6659 0 0)
(2.67162 0 0)
(2.67731 0 0)
(2.68297 0 0)
(2.68859 0 0)
(2.69419 0 0)
(2.69975 0 0)
(2.70529 0 0)
(2.71079 0 0)
(2.71627 0 0)
(2.72171 0 0)
(2.72713 0 0)
(2.73253 0 0)
(2.73789 0 0)
(2.74323 0 0)
(2.74854 0 0)
(2.75382 0 0)
(2.75907 0 0)
(2.76431 0 0)
(2.76956 0 0)
(2.77481 0 0)
(2.78007 0 0)
(2.78516 0 0)
(2.78977 0 0)
(2.79356 0 0)
(2.79686 0 0)
(2.80016 0 0)
(2.80344 0 0)
(2.80671 0 0)
(2.80997 0 0)
(2.81322 0 0)
(2.81647 0 0)
(2.8197 0 0)
(2.82292 0 0)
(2.82614 0 0)
(2.82934 0 0)
(2.83254 0 0)
(2.83572 0 0)
(2.8389 0 0)
(2.84206 0 0)
(2.84522 0 0)
(2.84837 0 0)
(2.85151 0 0)
(2.85464 0 0)
(2.85777 0 0)
(2.86088 0 0)
(2.86399 0 0)
(2.86708 0 0)
(2.87017 0 0)
(2.87325 0 0)
(2.87632 0 0)
(2.87939 0 0)
(2.88244 0 0)
(2.88549 0 0)
(2.88853 0 0)
(2.89156 0 0)
(2.89458 0 0)
(2.8976 0 0)
(2.90061 0 0)
(2.90361 0 0)
(2.9066 0 0)
(2.90958 0 0)
(2.91256 0 0)
(2.91553 0 0)
(2.91849 0 0)
(2.92144 0 0)
(2.92439 0 0)
(2.92733 0 0)
(2.93026 0 0)
(2.93319 0 0)
(2.9361 0 0)
(2.93901 0 0)
(2.94192 0 0)
(2.94481 0 0)
(2.9477 0 0)
(2.95058 0 0)
(2.95346 0 0)
(2.95633 0 0)
(2.95919 0 0)
(2.96204 0 0)
(2.96489 0 0)
(2.96773 0 0)
(2.97057 0 0)
(2.9734 0 0)
(2.97622 0 0)
(2.97903 0 0)
(2.98184 0 0)
(2.98465 0 0)
(2.98744 0 0)
(2.99023 0 0)
(2.99301 0 0)
(2.99579 0 0)
(2.99856 0 0)
(3.00133 0 0)
(3.00408 0 0)
(3.00684 0 0)
(3.00958 0 0)
(3.01232 0 0)
(3.01506 0 0)
(3.01779 0 0)
(3.02051 0 0)
(3.02322 0 0)
(3.02594 0 0)
(3.02864 0 0)
(3.03134 0 0)
(3.03403 0 0)
(3.03672 0 0)
(3.0394 0 0)
(3.04208 0 0)
(3.04475 0 0)
(3.04741 0 0)
(3.05007 0 0)
(3.05273 0 0)
(3.05538 0 0)
(3.05802 0 0)
(3.06066 0 0)
(3.06329 0 0)
(3.06592 0 0)
(3.06854 0 0)
(3.07115 0 0)
(3.07376 0 0)
(3.07637 0 0)
(3.07897 0 0)
(3.08157 0 0)
(3.08416 0 0)
(3.08674 0 0)
(3.08932 0 0)
(3.0919 0 0)
(3.09446 0 0)
(3.09703 0 0)
(3.09959 0 0)
(3.10214 0 0)
(3.10469 0 0)
(3.10724 0 0)
(3.10978 0 0)
(3.11231 0 0)
(3.11484 0 0)
(3.11737 0 0)
(3.11989 0 0)
(3.12241 0 0)
(3.12492 0 0)
(3.12742 0 0)
(3.12993 0 0)
(3.13242 0 0)
(3.13492 0 0)
(3.1374 0 0)
(3.13989 0 0)
(3.14237 0 0)
(3.14484 0 0)
(3.14731 0 0)
(3.14978 0 0)
(3.15224 0 0)
(3.15469 0 0)
(3.15715 0 0)
(3.15959 0 0)
(3.16204 0 0)
(3.16448 0 0)
(3.16691 0 0)
(3.16934 0 0)
(3.17177 0 0)
(3.17419 0 0)
(3.1766 0 0)
(3.17902 0 0)
(3.18143 0 0)
(3.18383 0 0)
(3.18623 0 0)
(3.18863 0 0)
(3.19102 0 0)
(3.19341 0 0)
(3.19579 0 0)
(3.19817 0 0)
(3.20055 0 0)
(3.20292 0 0)
(3.20529 0 0)
(3.20765 0 0)
(3.21001 0 0)
(3.21237 0 0)
(3.21472 0 0)
(3.21707 0 0)
(3.21941 0 0)
(3.22175 0 0)
(3.22409 0 0)
(3.22642 0 0)
(3.22875 0 0)
(3.23107 0 0)
(3.2334 0 0)
(3.23571 0 0)
(3.23803 0 0)
(3.24034 0 0)
(3.24264 0 0)
(3.24494 0 0)
(3.24724 0 0)
(3.24954 0 0)
(3.25183 0 0)
(3.25412 0 0)
(3.2564 0 0)
(3.25868 0 0)
(3.26096 0 0)
(3.26323 0 0)
(3.2655 0 0)
(3.26777 0 0)
(3.27003 0 0)
(3.27229 0 0)
(3.27455 0 0)
(3.2768 0 0)
(3.27905 0 0)
(3.28129 0 0)
(3.28353 0 0)
(3.28577 0 0)
(3.28801 0 0)
(3.29024 0 0)
(3.29247 0 0)
(3.29469 0 0)
(3.29691 0 0)
(3.29913 0 0)
(3.30134 0 0)
(3.30356 0 0)
(3.30576 0 0)
(3.30797 0 0)
(3.31017 0 0)
(3.31237 0 0)
(3.31456 0 0)
(3.31676 0 0)
(3.31894 0 0)
(3.32113 0 0)
(3.32331 0 0)
(3.32549 0 0)
(3.32767 0 0)
(3.32984 0 0)
(3.33201 0 0)
(3.33418 0 0)
(3.33634 0 0)
(3.3385 0 0)
(3.34066 0 0)
(3.34281 0 0)
(3.34496 0 0)
(3.34711 0 0)
(3.34925 0 0)
(3.3514 0 0)
(3.35354 0 0)
(3.35567 0 0)
(3.3578 0 0)
(3.35993 0 0)
(3.36206 0 0)
(3.36419 0 0)
(3.36631 0 0)
(3.36842 0 0)
(3.37054 0 0)
(3.37265 0 0)
(3.37476 0 0)
(3.37687 0 0)
(3.37897 0 0)
(3.38107 0 0)
(3.38317 0 0)
(3.38526 0 0)
(3.38736 0 0)
(3.38945 0 0)
(3.39153 0 0)
(3.39362 0 0)
(3.3957 0 0)
(3.39778 0 0)
(3.39985 0 0)
(3.40192 0 0)
(3.40399 0 0)
(3.40606 0 0)
(3.40812 0 0)
(3.41019 0 0)
(3.41225 0 0)
(3.4143 0 0)
(3.41635 0 0)
(3.41841 0 0)
(3.42045 0 0)
(3.4225 0 0)
(3.42454 0 0)
(3.42658 0 0)
(3.42862 0 0)
(3.43065 0 0)
(3.43269 0 0)
(3.43472 0 0)
(3.43674 0 0)
(3.43877 0 0)
(3.44079 0 0)
(3.44281 0 0)
(3.44483 0 0)
(3.44684 0 0)
(3.44885 0 0)
(3.45086 0 0)
(3.45287 0 0)
(3.45487 0 0)
(3.45687 0 0)
(3.45887 0 0)
(3.46087 0 0)
(3.46286 0 0)
(3.46485 0 0)
(3.46684 0 0)
(3.46883 0 0)
(3.47081 0 0)
(3.47279 0 0)
(3.47477 0 0)
(3.47675 0 0)
(3.47872 0 0)
(3.48069 0 0)
(3.48266 0 0)
(3.48463 0 0)
(3.48659 0 0)
(3.48856 0 0)
(3.49052 0 0)
(3.49247 0 0)
(3.49443 0 0)
(3.49638 0 0)
(3.49833 0 0)
(3.50028 0 0)
(3.50222 0 0)
(3.50417 0 0)
(3.50611 0 0)
(3.50805 0 0)
(3.50998 0 0)
(3.51192 0 0)
(3.51385 0 0)
(3.51578 0 0)
(3.5177 0 0)
(3.51963 0 0)
(3.52155 0 0)
(3.52347 0 0)
(3.52539 0 0)
(3.5273 0 0)
(3.52922 0 0)
(3.53113 0 0)
(3.53303 0 0)
(3.53494 0 0)
(3.53684 0 0)
(3.53875 0 0)
(3.54065 0 0)
(3.54254 0 0)
(3.54444 0 0)
(3.54633 0 0)
(3.54822 0 0)
(3.55011 0 0)
(3.552 0 0)
(3.55388 0 0)
(3.55576 0 0)
(3.55764 0 0)
(3.55952 0 0)
(3.5614 0 0)
(3.56327 0 0)
(3.56514 0 0)
(3.56701 0 0)
(3.56888 0 0)
(3.57074 0 0)
(3.5726 0 0)
(3.57446 0 0)
(3.57632 0 0)
(3.57818 0 0)
(3.58003 0 0)
(3.58188 0 0)
(3.58373 0 0)
(3.58558 0 0)
(3.58742 0 0)
(3.58927 0 0)
(3.59111 0 0)
(3.59295 0 0)
(3.59479 0 0)
(3.59662 0 0)
(3.59845 0 0)
(3.60028 0 0)
(3.60211 0 0)
(3.60394 0 0)
(3.60577 0 0)
(3.60759 0 0)
(3.60942 0 0)
(3.61123 0 0)
(3.613 0 0)
(3.61474 0 0)
(3.61656 0 0)
(3.61872 0 0)
(3.62112 0 0)
(3.62351 0 0)
(3.62591 0 0)
(3.6283 0 0)
(3.63068 0 0)
(3.63307 0 0)
(3.63545 0 0)
(3.63782 0 0)
(3.6402 0 0)
(3.64257 0 0)
(3.64493 0 0)
(3.6473 0 0)
(3.64966 0 0)
(3.65202 0 0)
(3.65437 0 0)
(3.65672 0 0)
(3.65907 0 0)
(3.66142 0 0)
(3.66376 0 0)
(3.6661 0 0)
(3.66843 0 0)
(3.67076 0 0)
(3.67309 0 0)
(3.67542 0 0)
(3.67774 0 0)
(3.68006 0 0)
(3.68238 0 0)
(3.68469 0 0)
(3.68701 0 0)
(3.68931 0 0)
(3.69162 0 0)
(3.69392 0 0)
(3.69622 0 0)
(3.69852 0 0)
(3.70081 0 0)
(3.7031 0 0)
(3.70538 0 0)
(3.70767 0 0)
(3.70995 0 0)
(3.71223 0 0)
(3.7145 0 0)
(3.71677 0 0)
(3.71904 0 0)
(3.72131 0 0)
(3.72357 0 0)
(3.72583 0 0)
(3.72809 0 0)
(3.73034 0 0)
(3.7326 0 0)
(3.73484 0 0)
(3.73709 0 0)
(3.73933 0 0)
(3.74157 0 0)
(3.74381 0 0)
(3.74604 0 0)
(3.74827 0 0)
(3.7505 0 0)
(3.75273 0 0)
(3.75495 0 0)
(3.75717 0 0)
(3.75939 0 0)
(3.7616 0 0)
(3.76381 0 0)
(3.76602 0 0)
(3.76823 0 0)
(3.77043 0 0)
(3.77263 0 0)
(3.77483 0 0)
(3.77702 0 0)
(3.77921 0 0)
(3.7814 0 0)
(3.78359 0 0)
(3.78577 0 0)
(3.78795 0 0)
(3.79012 0 0)
(3.7923 0 0)
(3.79447 0 0)
(3.79663 0 0)
(3.7988 0 0)
(3.80096 0 0)
(3.80312 0 0)
(3.80527 0 0)
(3.80743 0 0)
(3.80958 0 0)
(3.81173 0 0)
(3.81387 0 0)
(3.81602 0 0)
(3.81816 0 0)
(3.82031 0 0)
(3.82245 0 0)
(3.82459 0 0)
(3.82673 0 0)
(3.82886 0 0)
(3.831 0 0)
(3.83313 0 0)
(3.83525 0 0)
(3.83738 0 0)
(3.83949 0 0)
(3.8416 0 0)
(3.84371 0 0)
(3.8458 0 0)
(3.84789 0 0)
(3.84996 0 0)
(3.85203 0 0)
(3.85409 0 0)
(3.85614 0 0)
(3.85818 0 0)
(3.86022 0 0)
(3.86226 0 0)
(3.86429 0 0)
(3.86634 0 0)
(3.86839 0 0)
(3.87047 0 0)
(3.87257 0 0)
(3.87467 0 0)
(3.87671 0 0)
(3.87866 0 0)
(3.88072 0 0)
(3.88337 0 0)
(3.88709 0 0)
(3.89121 0 0)
(3.89229 0 0)
(3.88471 0 0)
(3.86797 0 0)
(3.86182 0 0)
(3.91568 0 0)
(4.07885 0 0)
(4.26826 0 0)
(4.06298 0 0)
(3.11568 0 0)
(2.06629 0 0)
(1.53505 0 0)
(1.36676 0 0)
(1.32362 0 0)
(1.31231 0 0)
(1.3083 0 0)
(1.30591 0 0)
(1.30388 0 0)
(1.30193 0 0)
(1.30001 0 0)
(1.29809 0 0)
(1.29618 0 0)
(1.29427 0 0)
(1.29236 0 0)
(1.29045 0 0)
(1.28855 0 0)
(1.28664 0 0)
(1.28474 0 0)
(1.28284 0 0)
(1.28095 0 0)
(1.27905 0 0)
(1.27717 0 0)
(1.27528 0 0)
(1.27341 0 0)
(1.27154 0 0)
(1.26968 0 0)
(1.26783 0 0)
(1.26599 0 0)
(1.26417 0 0)
(1.26236 0 0)
(1.26057 0 0)
(1.2588 0 0)
(1.25706 0 0)
(1.25534 0 0)
(1.25365 0 0)
(1.25199 0 0)
(1.25037 0 0)
(1.24879 0 0)
(1.24726 0 0)
(1.24576 0 0)
(1.24431 0 0)
(1.24291 0 0)
(1.24155 0 0)
(1.24023 0 0)
(1.23895 0 0)
(1.2377 0 0)
(1.23648 0 0)
(1.23528 0 0)
(1.23406 0 0)
(1.23296 0 0)
(1.23399 0 0)
(1.23555 0 0)
(1.23577 0 0)
(1.23564 0 0)
(1.23544 0 0)
(1.23523 0 0)
(1.23503 0 0)
(1.23491 0 0)
(1.23496 0 0)
(1.23512 0 0)
(1.23533 0 0)
(1.23557 0 0)
(1.23589 0 0)
(1.23637 0 0)
(1.23692 0 0)
(1.23756 0 0)
(1.23829 0 0)
(1.23908 0 0)
(1.24 0 0)
(1.24099 0 0)
(1.24207 0 0)
(1.24324 0 0)
(1.24446 0 0)
(1.24576 0 0)
(1.24717 0 0)
(1.24869 0 0)
(1.25032 0 0)
(1.25206 0 0)
(1.25384 0 0)
(1.25573 0 0)
(1.25772 0 0)
(1.25983 0 0)
(1.26204 0 0)
(1.26432 0 0)
(1.26669 0 0)
(1.26917 0 0)
(1.27172 0 0)
(1.27438 0 0)
(1.27722 0 0)
(1.28014 0 0)
(1.28314 0 0)
(1.28631 0 0)
(1.28963 0 0)
(1.29304 0 0)
(1.29657 0 0)
(1.30025 0 0)
(1.30401 0 0)
(1.30792 0 0)
(1.31198 0 0)
(1.3162 0 0)
(1.32054 0 0)
(1.32503 0 0)
(1.32971 0 0)
(1.33458 0 0)
(1.33964 0 0)
(1.34484 0 0)
(1.35022 0 0)
(1.35581 0 0)
(1.36156 0 0)
(1.36752 0 0)
(1.37372 0 0)
(1.38018 0 0)
(1.38689 0 0)
(1.39381 0 0)
(1.40097 0 0)
(1.40835 0 0)
(1.41602 0 0)
(1.424 0 0)
(1.43233 0 0)
(1.441 0 0)
(1.44999 0 0)
(1.45934 0 0)
(1.46909 0 0)
(1.4792 0 0)
(1.48975 0 0)
(1.50077 0 0)
(1.51224 0 0)
(1.52425 0 0)
(1.53686 0 0)
(1.55012 0 0)
(1.56408 0 0)
(1.57872 0 0)
(1.59408 0 0)
(1.61031 0 0)
(1.62752 0 0)
(1.64579 0 0)
(1.66533 0 0)
(1.68636 0 0)
(1.70916 0 0)
(1.73406 0 0)
(1.76171 0 0)
(1.79308 0 0)
(1.82981 0 0)
(1.87485 0 0)
(1.93336 0 0)
(2.01422 0 0)
(2.13148 0 0)
(2.30388 0 0)
(2.54592 0 0)
(2.83619 0 0)
(3.16229 0 0)
(3.16569 0 0)
(3.16911 0 0)
(3.17257 0 0)
(3.1761 0 0)
(3.17973 0 0)
(3.18345 0 0)
(3.18729 0 0)
(3.19122 0 0)
(3.19527 0 0)
(3.1994 0 0)
(3.20362 0 0)
(3.20791 0 0)
(3.21226 0 0)
(3.21666 0 0)
(3.2211 0 0)
(3.22556 0 0)
(3.23004 0 0)
(3.23453 0 0)
(3.23902 0 0)
(3.2435 0 0)
(3.24797 0 0)
(3.25243 0 0)
(3.25686 0 0)
(3.26126 0 0)
(3.26564 0 0)
(3.26999 0 0)
(3.27431 0 0)
(3.2786 0 0)
(3.28285 0 0)
(3.28707 0 0)
(3.29125 0 0)
(3.29539 0 0)
(3.2995 0 0)
(3.30357 0 0)
(3.30761 0 0)
(3.31161 0 0)
(3.31558 0 0)
(3.31951 0 0)
(3.32341 0 0)
(3.32728 0 0)
(3.33111 0 0)
(3.33492 0 0)
(3.33869 0 0)
(3.34243 0 0)
(3.34614 0 0)
(3.34982 0 0)
(3.35348 0 0)
(3.35711 0 0)
(3.36071 0 0)
(3.36429 0 0)
(3.36785 0 0)
(3.37138 0 0)
(3.37489 0 0)
(3.37838 0 0)
(3.38185 0 0)
(3.38529 0 0)
(3.38872 0 0)
(3.39214 0 0)
(3.39553 0 0)
(3.39891 0 0)
(3.40227 0 0)
(3.40561 0 0)
(3.40895 0 0)
(3.41226 0 0)
(3.41557 0 0)
(3.41886 0 0)
(3.42213 0 0)
(3.4254 0 0)
(3.42865 0 0)
(3.43189 0 0)
(3.43512 0 0)
(3.43835 0 0)
(3.44156 0 0)
(3.44476 0 0)
(3.44795 0 0)
(3.45113 0 0)
(3.45431 0 0)
(3.45747 0 0)
(3.46063 0 0)
(3.46377 0 0)
(3.46689 0 0)
(3.47001 0 0)
(3.47316 0 0)
(3.4764 0 0)
(3.47974 0 0)
(3.48297 0 0)
(3.48559 0 0)
(3.48698 0 0)
(3.48763 0 0)
(3.48828 0 0)
(3.48892 0 0)
(3.48957 0 0)
(3.49021 0 0)
(3.49085 0 0)
(3.4915 0 0)
(3.49214 0 0)
(3.49278 0 0)
(3.49341 0 0)
(3.49405 0 0)
(3.49469 0 0)
(3.49533 0 0)
(3.49596 0 0)
(3.4966 0 0)
(3.49723 0 0)
(3.49787 0 0)
(3.4985 0 0)
(3.49913 0 0)
(3.49977 0 0)
(3.5004 0 0)
(3.50103 0 0)
(3.50166 0 0)
(3.5023 0 0)
(3.50293 0 0)
(3.50356 0 0)
(3.50419 0 0)
(3.50482 0 0)
(3.50545 0 0)
(3.50608 0 0)
(3.50671 0 0)
(3.50734 0 0)
(3.50797 0 0)
(3.50859 0 0)
(3.50922 0 0)
(3.50985 0 0)
(3.51048 0 0)
(3.51111 0 0)
(3.51173 0 0)
(3.51236 0 0)
(3.51299 0 0)
(3.51361 0 0)
(3.51424 0 0)
(3.51487 0 0)
(3.51549 0 0)
(3.51612 0 0)
(3.51675 0 0)
(3.51737 0 0)
(3.518 0 0)
(3.51862 0 0)
(3.51925 0 0)
(3.51987 0 0)
(3.5205 0 0)
(3.52112 0 0)
(3.52175 0 0)
(3.52237 0 0)
(3.52299 0 0)
(3.52362 0 0)
(3.52424 0 0)
(3.52487 0 0)
(3.52549 0 0)
(3.52611 0 0)
(3.52674 0 0)
(3.52736 0 0)
(3.52798 0 0)
(3.5286 0 0)
(3.52923 0 0)
(3.52985 0 0)
(3.53047 0 0)
(3.53109 0 0)
(3.53171 0 0)
(3.53234 0 0)
(3.53296 0 0)
(3.53358 0 0)
(3.5342 0 0)
(3.53482 0 0)
(3.53544 0 0)
(3.53606 0 0)
(3.53668 0 0)
(3.5373 0 0)
(3.53792 0 0)
(3.53854 0 0)
(3.53916 0 0)
(3.53978 0 0)
(3.5404 0 0)
(3.54102 0 0)
(3.54164 0 0)
(3.54226 0 0)
(3.54288 0 0)
(3.5435 0 0)
(3.54412 0 0)
(3.54474 0 0)
(3.54536 0 0)
(3.54598 0 0)
(3.5466 0 0)
(3.54722 0 0)
(3.54784 0 0)
(3.54845 0 0)
(3.54907 0 0)
(3.54969 0 0)
(3.55031 0 0)
(3.55093 0 0)
(3.55155 0 0)
(3.55217 0 0)
(3.55278 0 0)
(3.5534 0 0)
(3.55402 0 0)
(3.55464 0 0)
(3.55526 0 0)
(3.55588 0 0)
(3.5565 0 0)
(3.55712 0 0)
(3.55773 0 0)
(3.55835 0 0)
(3.55897 0 0)
(3.55959 0 0)
(3.56021 0 0)
(3.56083 0 0)
(3.56145 0 0)
(3.56207 0 0)
(3.56269 0 0)
(3.56331 0 0)
(3.56393 0 0)
(3.56455 0 0)
(3.56517 0 0)
(3.56579 0 0)
(3.56641 0 0)
(3.56703 0 0)
(3.56765 0 0)
(3.56827 0 0)
(3.56889 0 0)
(3.56952 0 0)
(3.57014 0 0)
(3.57076 0 0)
(3.57138 0 0)
(3.57201 0 0)
(3.57263 0 0)
(3.57325 0 0)
(3.57388 0 0)
(3.5745 0 0)
(3.57512 0 0)
(3.57575 0 0)
(3.57637 0 0)
(3.577 0 0)
(3.57762 0 0)
(3.57825 0 0)
(3.57888 0 0)
(3.5795 0 0)
(3.58013 0 0)
(3.58076 0 0)
(3.58139 0 0)
(3.58201 0 0)
(3.58264 0 0)
(3.58327 0 0)
(3.5839 0 0)
(3.58453 0 0)
(3.58516 0 0)
(3.58579 0 0)
(3.58642 0 0)
(3.58706 0 0)
(3.58769 0 0)
(3.58832 0 0)
(3.58895 0 0)
(3.58959 0 0)
(3.59022 0 0)
(3.59085 0 0)
(3.59149 0 0)
(3.59212 0 0)
(3.59276 0 0)
(3.59339 0 0)
(3.59403 0 0)
(3.59467 0 0)
(3.59531 0 0)
(3.59596 0 0)
(3.59658 0 0)
(3.59717 0 0)
(3.59773 0 0)
(3.59832 0 0)
(3.59913 0 0)
(3.60035 0 0)
(3.60188 0 0)
(3.60276 0 0)
(3.60097 0 0)
(3.59473 0 0)
(3.58631 0 0)
(3.58759 0 0)
(3.62088 0 0)
(3.70304 0 0)
(3.79607 0 0)
(3.73876 0 0)
(3.31692 0 0)
(2.59693 0 0)
(1.96132 0 0)
(1.61666 0 0)
(1.48268 0 0)
(1.43918 0 0)
(1.42589 0 0)
(1.42174 0 0)
(1.42027 0 0)
(1.41957 0 0)
(1.4191 0 0)
(1.41869 0 0)
(1.41831 0 0)
(1.41793 0 0)
(1.41755 0 0)
(1.41718 0 0)
(1.41681 0 0)
(1.41644 0 0)
(1.41608 0 0)
(1.41571 0 0)
(1.41535 0 0)
(1.41499 0 0)
(1.41463 0 0)
(1.41427 0 0)
(1.41391 0 0)
(1.41356 0 0)
(1.4132 0 0)
(1.41285 0 0)
(1.4125 0 0)
(1.41215 0 0)
(1.4118 0 0)
(1.41146 0 0)
(1.41112 0 0)
(1.41077 0 0)
(1.41043 0 0)
(1.41009 0 0)
(1.40976 0 0)
(1.40942 0 0)
(1.40909 0 0)
(1.40876 0 0)
(1.40842 0 0)
(1.40809 0 0)
(1.40777 0 0)
(1.40744 0 0)
(1.40712 0 0)
(1.40679 0 0)
(1.40647 0 0)
(1.40615 0 0)
(1.40583 0 0)
(1.40551 0 0)
(1.4052 0 0)
(1.40488 0 0)
(1.40457 0 0)
(1.40426 0 0)
(1.40395 0 0)
(1.40364 0 0)
(1.40333 0 0)
(1.40303 0 0)
(1.40272 0 0)
(1.40242 0 0)
(1.40212 0 0)
(1.40182 0 0)
(1.40152 0 0)
(1.40122 0 0)
(1.40093 0 0)
(1.40063 0 0)
(1.40034 0 0)
(1.40005 0 0)
(1.39976 0 0)
(1.39947 0 0)
(1.39918 0 0)
(1.39889 0 0)
(1.39861 0 0)
(1.39832 0 0)
(1.39804 0 0)
(1.39776 0 0)
(1.39748 0 0)
(1.3972 0 0)
(1.39693 0 0)
(1.39665 0 0)
(1.39637 0 0)
(1.3961 0 0)
(1.39583 0 0)
(1.39556 0 0)
(1.39529 0 0)
(1.39502 0 0)
(1.39475 0 0)
(1.39449 0 0)
(1.39422 0 0)
(1.39396 0 0)
(1.3937 0 0)
(1.39344 0 0)
(1.39318 0 0)
(1.39292 0 0)
(1.39266 0 0)
(1.3924 0 0)
(1.39215 0 0)
(1.39189 0 0)
(1.39164 0 0)
(1.39139 0 0)
(1.39114 0 0)
(1.39089 0 0)
(1.39064 0 0)
(1.39039 0 0)
(1.39015 0 0)
(1.3899 0 0)
(1.38966 0 0)
(1.38942 0 0)
(1.38918 0 0)
(1.38894 0 0)
(1.38876 0 0)
(1.38883 0 0)
(1.38915 0 0)
(1.38953 0 0)
(1.38993 0 0)
(1.39033 0 0)
(1.39073 0 0)
(1.39113 0 0)
(1.39154 0 0)
(1.39194 0 0)
(1.39234 0 0)
(1.39275 0 0)
(1.39315 0 0)
(1.39355 0 0)
(1.39395 0 0)
(1.39436 0 0)
(1.39476 0 0)
(1.39516 0 0)
(1.39557 0 0)
(1.39597 0 0)
(1.39637 0 0)
(1.39677 0 0)
(1.39718 0 0)
(1.39758 0 0)
(1.39798 0 0)
(1.39839 0 0)
(1.39879 0 0)
(1.39919 0 0)
(1.39959 0 0)
(1.4 0 0)
(1.4004 0 0)
(1.4008 0 0)
(1.4012 0 0)
(1.40161 0 0)
(1.40201 0 0)
(1.40241 0 0)
(1.40281 0 0)
(1.40322 0 0)
(1.40362 0 0)
(1.40402 0 0)
(1.40442 0 0)
(1.40483 0 0)
(1.40523 0 0)
(1.40563 0 0)
(1.40603 0 0)
(1.40644 0 0)
(1.40684 0 0)
(1.40724 0 0)
(1.40764 0 0)
(1.40805 0 0)
(1.40845 0 0)
(1.40885 0 0)
(1.40925 0 0)
(1.40966 0 0)
(1.41006 0 0)
(1.41046 0 0)
(1.41086 0 0)
(1.41126 0 0)
(1.41167 0 0)
(1.41207 0 0)
(1.41247 0 0)
(1.41287 0 0)
(1.41327 0 0)
(1.41368 0 0)
(1.41408 0 0)
(1.41448 0 0)
(1.41488 0 0)
(1.41528 0 0)
(1.41568 0 0)
(1.41609 0 0)
(1.41649 0 0)
(1.41689 0 0)
(1.41729 0 0)
(1.41769 0 0)
(1.41809 0 0)
(1.41849 0 0)
(1.4189 0 0)
(1.4193 0 0)
(1.4197 0 0)
(1.4201 0 0)
(1.4205 0 0)
(1.4209 0 0)
(1.4213 0 0)
(1.4217 0 0)
(1.4221 0 0)
(1.4225 0 0)
(1.42291 0 0)
(1.42331 0 0)
(1.42371 0 0)
(1.42411 0 0)
(1.42451 0 0)
(1.42491 0 0)
(1.42531 0 0)
(1.42571 0 0)
(1.42611 0 0)
(1.42651 0 0)
(1.42691 0 0)
(1.42731 0 0)
(1.42771 0 0)
(1.42811 0 0)
(1.42851 0 0)
(1.42891 0 0)
(1.42931 0 0)
(1.42971 0 0)
(1.4301 0 0)
(1.4305 0 0)
(1.4309 0 0)
(1.4313 0 0)
(1.4317 0 0)
(1.4321 0 0)
(1.4325 0 0)
(1.4329 0 0)
(1.4333 0 0)
(1.43369 0 0)
(1.43409 0 0)
(1.43449 0 0)
(1.43489 0 0)
(1.43529 0 0)
(1.43568 0 0)
(1.43608 0 0)
(1.43648 0 0)
(1.43688 0 0)
(1.43727 0 0)
(1.43767 0 0)
(1.43807 0 0)
(1.43847 0 0)
(1.43886 0 0)
(1.43926 0 0)
(1.43966 0 0)
(1.44005 0 0)
(1.44045 0 0)
(1.44085 0 0)
(1.44124 0 0)
(1.44164 0 0)
(1.44203 0 0)
(1.44243 0 0)
(1.44283 0 0)
(1.44322 0 0)
(1.44362 0 0)
(1.44401 0 0)
(1.44441 0 0)
(1.4448 0 0)
(1.4452 0 0)
(1.44559 0 0)
(1.44598 0 0)
(1.44638 0 0)
(1.44677 0 0)
(1.44717 0 0)
(1.44756 0 0)
(1.44795 0 0)
(1.44835 0 0)
(1.44874 0 0)
(1.44913 0 0)
(1.44953 0 0)
(1.44992 0 0)
(1.45031 0 0)
(1.4507 0 0)
(1.45109 0 0)
(1.45149 0 0)
(1.45188 0 0)
(1.45227 0 0)
(1.45266 0 0)
(1.45305 0 0)
(1.45344 0 0)
(1.45383 0 0)
(1.45422 0 0)
(1.45461 0 0)
(1.455 0 0)
(1.45539 0 0)
(1.45578 0 0)
(1.45617 0 0)
(1.45656 0 0)
(1.45695 0 0)
(1.45734 0 0)
(1.45773 0 0)
(1.45812 0 0)
(1.45851 0 0)
(1.45889 0 0)
(1.45928 0 0)
(1.45967 0 0)
(1.46006 0 0)
(1.46044 0 0)
(1.46083 0 0)
(1.46122 0 0)
(1.4616 0 0)
(1.46199 0 0)
(1.46238 0 0)
(1.46276 0 0)
(1.46315 0 0)
(1.46353 0 0)
(1.46392 0 0)
(1.4643 0 0)
(1.46469 0 0)
(1.46507 0 0)
(1.46546 0 0)
(1.46584 0 0)
(1.46622 0 0)
(1.46661 0 0)
(1.46699 0 0)
(1.46737 0 0)
(1.46776 0 0)
(1.46814 0 0)
(1.46852 0 0)
(1.4689 0 0)
(1.46929 0 0)
(1.46967 0 0)
(1.47005 0 0)
(1.47043 0 0)
(1.47081 0 0)
(1.47119 0 0)
(1.47157 0 0)
(1.47195 0 0)
(1.47233 0 0)
(1.47271 0 0)
(1.47309 0 0)
(1.47347 0 0)
(1.47385 0 0)
(1.47423 0 0)
(1.47461 0 0)
(1.47499 0 0)
(1.47537 0 0)
(1.47575 0 0)
(1.47613 0 0)
(1.47651 0 0)
(1.47689 0 0)
(1.47726 0 0)
(1.47764 0 0)
(1.47802 0 0)
(1.4784 0 0)
(1.47878 0 0)
(1.47916 0 0)
(1.47953 0 0)
(1.47991 0 0)
(1.48029 0 0)
(1.48067 0 0)
(1.48105 0 0)
(1.48142 0 0)
(1.4818 0 0)
(1.48218 0 0)
(1.48256 0 0)
(1.48294 0 0)
(1.48332 0 0)
(1.4837 0 0)
(1.48407 0 0)
(1.48445 0 0)
(1.48483 0 0)
(1.48521 0 0)
(1.48559 0 0)
(1.48597 0 0)
(1.48635 0 0)
(1.48673 0 0)
(1.48711 0 0)
(1.48749 0 0)
(1.48788 0 0)
(1.48826 0 0)
(1.48864 0 0)
(1.48902 0 0)
(1.48941 0 0)
(1.48979 0 0)
(1.49017 0 0)
(1.49056 0 0)
(1.49094 0 0)
(1.49133 0 0)
(1.49171 0 0)
(1.4921 0 0)
(1.49249 0 0)
(1.49288 0 0)
(1.49327 0 0)
(1.49366 0 0)
(1.49405 0 0)
(1.49444 0 0)
(1.49483 0 0)
(1.49522 0 0)
(1.49562 0 0)
(1.49601 0 0)
(1.49641 0 0)
(1.49681 0 0)
(1.49721 0 0)
(1.4976 0 0)
(1.49801 0 0)
(1.49841 0 0)
(1.49881 0 0)
(1.49921 0 0)
(1.49962 0 0)
(1.50002 0 0)
(1.50043 0 0)
(1.50084 0 0)
(1.50125 0 0)
(1.50166 0 0)
(1.50208 0 0)
(1.50249 0 0)
(1.50291 0 0)
(1.50333 0 0)
(1.50375 0 0)
(1.50417 0 0)
(1.50459 0 0)
(1.50501 0 0)
(1.50544 0 0)
(1.50587 0 0)
(1.5063 0 0)
(1.50673 0 0)
(1.50716 0 0)
(1.5076 0 0)
(1.50803 0 0)
(1.50847 0 0)
(1.50891 0 0)
(1.50936 0 0)
(1.5098 0 0)
(1.51025 0 0)
(1.5107 0 0)
(1.51115 0 0)
(1.5116 0 0)
(1.51206 0 0)
(1.51251 0 0)
(1.51297 0 0)
(1.51343 0 0)
(1.5139 0 0)
(1.51436 0 0)
(1.51483 0 0)
(1.5153 0 0)
(1.51578 0 0)
(1.51625 0 0)
(1.51673 0 0)
(1.51721 0 0)
(1.51769 0 0)
(1.51818 0 0)
(1.51867 0 0)
(1.51916 0 0)
(1.51965 0 0)
(1.52014 0 0)
(1.52064 0 0)
(1.52114 0 0)
(1.52165 0 0)
(1.52215 0 0)
(1.52266 0 0)
(1.52317 0 0)
(1.52368 0 0)
(1.5242 0 0)
(1.52472 0 0)
(1.52524 0 0)
(1.52576 0 0)
(1.52629 0 0)
(1.52682 0 0)
(1.52735 0 0)
(1.52789 0 0)
(1.52843 0 0)
(1.52897 0 0)
(1.52951 0 0)
(1.53006 0 0)
(1.53061 0 0)
(1.53117 0 0)
(1.53172 0 0)
(1.53228 0 0)
(1.53284 0 0)
(1.53341 0 0)
(1.53398 0 0)
(1.53455 0 0)
(1.53513 0 0)
(1.5357 0 0)
(1.53629 0 0)
(1.53687 0 0)
(1.53746 0 0)
(1.53805 0 0)
(1.53865 0 0)
(1.53925 0 0)
(1.53985 0 0)
(1.54045 0 0)
(1.54106 0 0)
(1.54168 0 0)
(1.54229 0 0)
(1.54291 0 0)
(1.54354 0 0)
(1.54416 0 0)
(1.5448 0 0)
(1.54543 0 0)
(1.54607 0 0)
(1.54672 0 0)
(1.54736 0 0)
(1.54801 0 0)
(1.54867 0 0)
(1.54933 0 0)
(1.54999 0 0)
(1.55066 0 0)
(1.55134 0 0)
(1.55201 0 0)
(1.55269 0 0)
(1.55338 0 0)
(1.55407 0 0)
(1.55477 0 0)
(1.55547 0 0)
(1.55617 0 0)
(1.55688 0 0)
(1.55759 0 0)
(1.55831 0 0)
(1.55904 0 0)
(1.55976 0 0)
(1.5605 0 0)
(1.56124 0 0)
(1.56198 0 0)
(1.56273 0 0)
(1.56348 0 0)
(1.56424 0 0)
(1.56501 0 0)
(1.56578 0 0)
(1.56656 0 0)
(1.56734 0 0)
(1.56812 0 0)
(1.56892 0 0)
(1.56971 0 0)
(1.57052 0 0)
(1.57133 0 0)
(1.57214 0 0)
(1.57296 0 0)
(1.57379 0 0)
(1.57462 0 0)
(1.57546 0 0)
(1.57631 0 0)
(1.57716 0 0)
(1.57802 0 0)
(1.57888 0 0)
(1.57975 0 0)
(1.58062 0 0)
(1.58151 0 0)
(1.58239 0 0)
(1.58329 0 0)
(1.58419 0 0)
(1.58509 0 0)
(1.58601 0 0)
(1.58693 0 0)
(1.58785 0 0)
(1.58878 0 0)
(1.58972 0 0)
(1.59067 0 0)
(1.59162 0 0)
(1.59257 0 0)
(1.59354 0 0)
(1.59451 0 0)
(1.59548 0 0)
(1.59647 0 0)
(1.59746 0 0)
(1.59845 0 0)
(1.59945 0 0)
(1.60046 0 0)
(1.60148 0 0)
(1.6025 0 0)
(1.60353 0 0)
(1.60456 0 0)
(1.6056 0 0)
(1.60665 0 0)
(1.6077 0 0)
(1.60876 0 0)
(1.60983 0 0)
(1.6109 0 0)
(1.61198 0 0)
(1.61306 0 0)
(1.61416 0 0)
(1.61525 0 0)
(1.61636 0 0)
(1.61747 0 0)
(1.61858 0 0)
(1.6197 0 0)
(1.62083 0 0)
(1.62196 0 0)
(1.6231 0 0)
(1.62425 0 0)
(1.6254 0 0)
(1.62656 0 0)
(1.62772 0 0)