/*--------------------------------*- C++ -*----------------------------------*\
| =========                 |                                                 |
| \\      /  F ield         | foam-extend: Open Source CFD                    |
|  \\    /   O peration     | Version:     3.1                                |
|   \\  /    A nd           | Web:         http://www.extend-project.de       |
|    \\/     M anipulation  |                                                 |
\*---------------------------------------------------------------------------*/
FoamFile
{
    version     2.0;
    format      ascii;
    class       volScalarField;
    location    "11.5";
    object      k;
}
// * * * * * * * * * * * * * * * * * * * * * * * * * * * * * * * * * * * * * //

dimensions      [0 2 -2 0 0 0 0];

internalField   nonuniform List<scalar> 
119952
(
0.08911741
0.08327898
0.08068762
0.07743476
0.07379847
0.0701247
0.06687925
0.06338811
0.05948376
0.05497821
0.04974851
0.04414249
0.03903338
0.0354095
0.03363587
0.03325609
0.03359484
0.03405699
0.03443882
0.03489416
0.03796403
0.03610123
0.03580105
0.03757438
0.03562411
0.03476096
0.03409757
0.03355259
0.03244013
0.01151453
0.09075485
0.08396818
0.07808988
0.07288734
0.06810763
0.06364419
0.05957293
0.05609195
0.05341266
0.0518448
0.05111784
0.05334688
0.05670307
0.06026372
0.06369357
0.06700183
0.07031529
0.07390787
0.07799142
0.09308678
0.09931503
0.1064503
0.114488
0.1234279
0.132892
0.1423706
0.1513611
0.1594506
0.1664241
0.172025
0.1762828
0.179315
0.181273
0.1822762
0.1824311
0.1818423
0.1806526
0.1794196
0.1793056
0.1762362
0.1725923
0.168853
0.164465
0.1588903
0.1523606
0.1452458
0.1377173
0.1300041
0.1223634
0.1151565
0.1088153
0.1037077
0.09993109
0.09731868
0.09555357
0.09418174
0.09277587
0.09104829
0.08906268
0.0868141
0.08412014
0.08163929
0.07988297
0.07806216
0.07634234
0.07500877
0.07386269
0.07141786
0.06946147
0.06802379
0.06692081
0.0660213
0.06525699
0.06458737
0.06398149
0.06341773
0.06288183
0.06236487
0.06186171
0.06136968
0.06088762
0.06041517
0.0599519
0.05949657
0.05904649
0.05859864
0.05814751
0.05768298
0.05719935
0.05669037
0.05615029
0.0555759
0.0549681
0.0543325
0.05367903
0.05302065
0.05237082
0.05174069
0.05113663
0.05055919
0.05000369
0.04946221
0.048926
0.04838759
0.04784239
0.04728892
0.04672861
0.0461654
0.04560514
0.04505488
0.04452277
0.04401812
0.04355084
0.04313148
0.04276958
0.04246937
0.04224009
0.04219539
0.04229972
0.04241827
0.04257969
0.04263847
0.04251906
0.04205313
0.04082396
0.0409629
0.04354483
0.04684027
0.0482062
0.04543664
0.04040777
0.03561958
0.0329426
0.0315858
0.02992147
0.02765909
0.02527314
0.02324373
0.02176435
0.02083047
0.02031097
0.02003281
0.01985921
0.01971782
0.01958852
0.01947982
0.0194057
0.01937051
0.01936248
0.01935598
0.01932443
0.01924654
0.01909444
0.01889462
0.01868477
0.01850811
0.01840895
0.01842545
0.01858308
0.01889291
0.01936515
0.01998518
0.02071114
0.02152554
0.02241361
0.02335702
0.02430636
0.02304878
0.02117061
0.02045784
0.02039999
0.02096916
0.02183049
0.02278274
0.02377549
0.02478532
0.02580215
0.02682022
0.02783544
0.02884355
0.02984102
0.03082411
0.03174861
0.03261246
0.03340553
0.034113
0.03472028
0.03521427
0.03558495
0.0358287
0.0359497
0.03591895
0.03573295
0.03539771
0.03492379
0.03432417
0.03361408
0.03280998
0.03192862
0.03098469
0.02999212
0.0289885
0.02801705
0.027234
0.02648034
0.02572438
0.02497216
0.02422546
0.02349162
0.02277915
0.02209544
0.02144585
0.02083376
0.02026077
0.01972703
0.01923168
0.01877307
0.01834901
0.01795703
0.0175947
0.01725962
0.01694957
0.01666256
0.01639683
0.01615079
0.01592304
0.01571238
0.01551777
0.01533821
0.01517283
0.01502079
0.01488132
0.01475358
0.01463681
0.0145307
0.01443374
0.01434352
0.01565789
0.01556947
0.01543878
0.01528708
0.01514514
0.01502529
0.01493285
0.01486697
0.01482425
0.01479925
0.01478616
0.01477972
0.01477557
0.01477032
0.01476152
0.01474747
0.01472714
0.0147
0.01466586
0.01462482
0.01457715
0.0145233
0.01446378
0.01439919
0.01433018
0.0142574
0.0141815
0.01410306
0.01402267
0.01394087
0.01385821
0.01377525
0.01369254
0.01361059
0.01352991
0.01345098
0.01337424
0.01330009
0.01322887
0.01316089
0.01309643
0.0130357
0.01297893
0.01292657
0.01287974
0.01283835
0.01279647
0.01275555
0.01271862
0.01268532
0.0126556
0.01263002
0.0126086
0.01260418
0.01262702
0.01258093
0.01253679
0.01249216
0.01244774
0.012405
0.01236543
0.01233055
0.01230166
0.01227964
0.0122649
0.01225756
0.01225731
0.01226358
0.01227569
0.01229284
0.0123142
0.01233893
0.01236619
0.01239519
0.01242521
0.01245561
0.0124858
0.01251523
0.01254345
0.01257007
0.0125948
0.01261737
0.01263761
0.01265536
0.01267054
0.01268305
0.01269288
0.0127
0.01270441
0.01270612
0.01270518
0.01270161
0.01269547
0.01268683
0.01267575
0.0126623
0.01264655
0.0126286
0.01260852
0.0125864
0.01256233
0.0125364
0.0125087
0.01247933
0.01244836
0.0124159
0.01238205
0.0123469
0.01231055
0.0122731
0.01223466
0.01219534
0.01215523
0.01211447
0.01207315
0.0120314
0.01198933
0.01194706
0.01190471
0.0118624
0.01182023
0.01177831
0.01173673
0.01169559
0.01165495
0.01161491
0.01157547
0.01153666
0.01149847
0.01146091
0.0114238
0.01138701
0.01134995
0.0113117
0.01126903
0.01121537
0.01113278
0.01101623
0.0111302
0.09729603
0.091122
0.09576215
0.1021365
0.107475
0.1113667
0.114039
0.1158019
0.1169839
0.1186961
0.126702
0.1355072
0.1436413
0.1505747
0.1562417
0.1608591
0.1647014
0.16803
0.193617
0.1950706
0.1968889
0.1989714
0.2015689
0.2047433
0.2083815
0.2123064
0.2163063
0.2201795
0.2237201
0.2265691
0.228631
0.2297976
0.2299604
0.2290555
0.2271018
0.2241963
0.2204182
0.2160024
0.2107504
0.2048608
0.1989991
0.1927575
0.1860159
0.1790791
0.1722064
0.1656366
0.1595643
0.1539377
0.1488719
0.1442692
0.1402229
0.1374218
0.1360866
0.1362697
0.1380393
0.1415054
0.161311
0.1688982
0.1781428
0.1886948
0.199955
0.2111876
0.2217438
0.2310397
0.238716
0.2446681
0.2489668
0.2517992
0.2533634
0.2538222
0.2533063
0.2519384
0.2499002
0.2474083
0.2447165
0.2415989
0.2379976
0.2341646
0.2300177
0.2251883
0.219593
0.2132993
0.2063688
0.1988146
0.1907321
0.1822777
0.1736649
0.1651461
0.1569674
0.1493225
0.1423353
0.1360604
0.1304928
0.125585
0.1212601
0.1174256
0.1139473
0.1108143
0.1080394
0.1054787
0.1030216
0.1007564
0.09863529
0.09655241
0.09460985
0.09303889
0.09178175
0.0907377
0.0898597
0.08911122
0.08846178
0.08788662
0.08736634
0.08688679
0.08643826
0.08601386
0.08561015
0.08522332
0.08484926
0.08448455
0.08412538
0.08376765
0.08340488
0.08302681
0.08262236
0.08218026
0.08168968
0.08114116
0.0805275
0.0798445
0.0790913
0.07827043
0.0773873
0.07644959
0.07546649
0.07444784
0.07340339
0.07234217
0.07127225
0.07020012
0.06913096
0.06806802
0.06701293
0.06596548
0.06492384
0.06388491
0.06284547
0.06180267
0.06075459
0.0597016
0.05864711
0.057596
0.05656342
0.05557456
0.05465117
0.05379586
0.05303664
0.05238218
0.05182601
0.0512913
0.0505755
0.04965206
0.04900241
0.04909967
0.04983972
0.05118623
0.05312205
0.0553429
0.05761623
0.06001865
0.06187303
0.06190259
0.05956053
0.05546275
0.05070352
0.04653968
0.04347551
0.04138851
0.03995
0.03889038
0.03801243
0.03721827
0.0364986
0.03589664
0.03546586
0.0352302
0.03516534
0.03521301
0.0353021
0.03532267
0.03524667
0.03509837
0.03493237
0.03482396
0.03485436
0.03509149
0.03557744
0.03632675
0.03733608
0.03855046
0.03992198
0.0414109
0.04295748
0.04449469
0.043214
0.04354891
0.04448054
0.04556487
0.04679443
0.04815858
0.0496026
0.05108118
0.05257181
0.05406718
0.05556697
0.05707314
0.0585873
0.06010891
0.06163151
0.06313528
0.06459384
0.06598629
0.067289
0.06847543
0.06951686
0.07038382
0.07104837
0.07148612
0.07167838
0.07161429
0.07129215
0.07071924
0.06990826
0.06887602
0.06764552
0.06624231
0.06469149
0.06301646
0.06123246
0.05935757
0.05745453
0.05556707
0.05370055
0.05186085
0.05005258
0.04828433
0.04656793
0.04491561
0.04333755
0.04184081
0.0404293
0.03910417
0.03786439
0.03670723
0.03562882
0.03462457
0.03368957
0.03281886
0.03200761
0.03125128
0.03054569
0.02988702
0.02927181
0.02869695
0.02815966
0.02765739
0.02718782
0.02674879
0.0263383
0.02595444
0.02559537
0.02525939
0.0249446
0.02464685
0.02584331
0.02559981
0.02537018
0.02514452
0.02492011
0.02469779
0.02447879
0.02426381
0.02405317
0.02384687
0.02364467
0.02344619
0.02325088
0.02305814
0.02286729
0.02267768
0.02248866
0.02229966
0.02211019
0.02191985
0.02172835
0.02153551
0.02134127
0.0211457
0.02094896
0.02075136
0.02055325
0.0203551
0.02015742
0.01996077
0.01976578
0.01957308
0.01938332
0.01919717
0.01901527
0.01883825
0.01866673
0.01850125
0.01834233
0.01819043
0.01804599
0.01790938
0.017781
0.01766116
0.01754987
0.01744635
0.01734947
0.01725931
0.01717662
0.01710146
0.01703379
0.01697328
0.01692085
0.01688141
0.01684669
0.01680808
0.01677152
0.01674062
0.01671558
0.01669565
0.01668003
0.01666794
0.01665871
0.01665184
0.0166469
0.01664355
0.01664151
0.01664053
0.01664037
0.0166408
0.01664163
0.01664264
0.01664365
0.01664444
0.01664482
0.01664459
0.01664353
0.01664145
0.01663813
0.01663337
0.01662698
0.01661878
0.01660859
0.01659626
0.01658164
0.01656461
0.01654506
0.01652287
0.01649799
0.01647032
0.01643982
0.01640645
0.01637018
0.016331
0.0162889
0.0162439
0.01619601
0.01614528
0.01609173
0.01603543
0.01597642
0.01591476
0.01585052
0.01578378
0.01571459
0.01564305
0.01556924
0.01549323
0.01541513
0.01533503
0.01525304
0.01516925
0.01508378
0.01499676
0.0149083
0.01481853
0.01472759
0.01463563
0.01454278
0.01444919
0.01435503
0.01426041
0.01416551
0.01407043
0.01397535
0.01388031
0.01378552
0.0136909
0.01359675
0.01350279
0.0134094
0.01331584
0.01322246
0.01312737
0.01303047
0.0129295
0.01283269
0.01275701
0.01270905
0.05078838
0.05415231
0.05817834
0.0626645
0.0676512
0.07323911
0.07959097
0.08693829
0.09561641
0.1054929
0.1532463
0.1684834
0.183849
0.1996029
0.2153412
0.2307519
0.2455803
0.2632288
0.2918238
0.3493749
0.363205
0.376602
0.3892741
0.4014957
0.4123577
0.4220397
0.4308658
0.4387808
0.4459211
0.4526464
0.4594206
0.4646017
0.4671251
0.4668998
0.4643279
0.4599306
0.4541756
0.447681
0.4381292
0.4289857
0.4201307
0.4115141
0.4031075
0.3948754
0.3868016
0.3788885
0.3711595
0.3636624
0.356318
0.3492083
0.3424143
0.3360268
0.3301398
0.3248177
0.320103
0.3159994
0.3304052
0.3275632
0.3253148
0.3237286
0.3228227
0.3225714
0.3229035
0.3236873
0.3247521
0.3259271
0.3270389
0.3278948
0.3282377
0.3277528
0.3262209
0.3235777
0.3199124
0.3154011
0.3102674
0.3048476
0.2993962
0.2935999
0.2873565
0.2805372
0.2730932
0.2650609
0.2565197
0.2476895
0.2388056
0.2300706
0.2216721
0.2137875
0.2065894
0.2002551
0.1955756
0.1930525
0.1929644
0.1955645
0.2008489
0.2087242
0.2189152
0.2308546
0.2437299
0.2565752
0.268462
0.2785515
0.2863982
0.2920061
0.2956303
0.2976248
0.2983161
0.2979406
0.2966427
0.2945446
0.2918155
0.288649
0.2852133
0.2814559
0.2773948
0.2731105
0.2682625
0.2626858
0.2563331
0.2492714
0.2416138
0.2334675
0.2249462
0.2161835
0.2073207
0.1984681
0.1897619
0.1813427
0.1733156
0.1657551
0.158718
0.152242
0.1463402
0.1409932
0.1361507
0.131793
0.1278822
0.1243333
0.1210956
0.1181797
0.1155539
0.1132015
0.1111324
0.1094116
0.1080025
0.1068417
0.1058771
0.1050679
0.1043836
0.1038006
0.1032998
0.102866
0.1024874
0.1021547
0.1018604
0.1015994
0.1013635
0.1011444
0.100933
0.1007182
0.1004876
0.1002323
0.09993768
0.09958864
0.0991724
0.09867871
0.09810027
0.09743286
0.09667535
0.09582929
0.0948982
0.09388729
0.09280377
0.09165635
0.09045459
0.08920851
0.08792804
0.08662246
0.08529997
0.08396654
0.08262643
0.08128147
0.07993153
0.07857396
0.07720438
0.0758176
0.07440967
0.07297789
0.07152156
0.07004249
0.06854929
0.06705123
0.06555973
0.06408485
0.06263843
0.06122241
0.05984395
0.05848191
0.05705168
0.05556632
0.05421334
0.05316788
0.0525121
0.05229557
0.0525255
0.05325631
0.05469189
0.05685858
0.05964345
0.06270324
0.06561915
0.06761689
0.06773557
0.06568796
0.06229146
0.05861589
0.05540818
0.05301374
0.05132469
0.05009735
0.04913466
0.04833998
0.04772106
0.04729757
0.04705662
0.04694967
0.04692861
0.0468795
0.04671472
0.04643019
0.04606782
0.04570562
0.04544522
0.04538702
0.0456055
0.04613957
0.04700163
0.04815837
0.04954981
0.05111806
0.0528041
0.05453759
0.05633441
0.05811575
0.05978488
0.06136961
0.06290698
0.06442
0.06591449
0.0673907
0.06885122
0.07030277
0.07175464
0.07321642
0.07469614
0.07619802
0.07772804
0.07927541
0.08081414
0.0823216
0.08377246
0.08513708
0.08638145
0.08746868
0.08836189
0.08902679
0.08943414
0.08956227
0.08940067
0.08895421
0.08822961
0.08723063
0.08598223
0.08451392
0.08284898
0.08100935
0.07901514
0.07688496
0.07466788
0.07240528
0.07012069
0.06783087
0.06555401
0.06331009
0.06111953
0.05900057
0.05696761
0.05503076
0.0531961
0.05146634
0.04984139
0.04831895
0.04689509
0.04556476
0.04432227
0.04316165
0.0420769
0.04106217
0.04011199
0.03922127
0.03838538
0.03760011
0.03686169
0.03616674
0.03551222
0.03489538
0.03431375
0.03376502
0.03324725
0.03275829
0.03229756
0.03186662
0.03143923
0.03103641
0.03065339
0.03028924
0.02994373
0.02961526
0.02930158
0.02900054
0.02871039
0.02842966
0.02815708
0.0278915
0.02763186
0.02737718
0.02712656
0.02687914
0.02663417
0.02639095
0.02614887
0.02590742
0.02566618
0.02542483
0.02518317
0.0249411
0.02469865
0.02445596
0.02421327
0.02397091
0.02372931
0.02348896
0.02325044
0.02301434
0.02278132
0.02255205
0.02232722
0.02210751
0.0218936
0.02168614
0.02148574
0.02129298
0.02110839
0.02093245
0.02076557
0.02060802
0.0204599
0.02032095
0.02019078
0.02006915
0.01995625
0.0198521
0.01975671
0.01966963
0.01959054
0.01951841
0.01945368
0.01939641
0.01934681
0.01930384
0.01926621
0.01923316
0.01920435
0.01917951
0.0191583
0.0191403
0.01912507
0.01911216
0.01910119
0.01909175
0.01908347
0.01907599
0.01906896
0.01906207
0.01905501
0.01904752
0.01903935
0.01903025
0.01902001
0.01900842
0.01899528
0.01898043
0.01896367
0.01894486
0.01892386
0.01890053
0.01887476
0.01884644
0.01881548
0.01878181
0.01874535
0.01870607
0.0186639
0.01861881
0.01857079
0.01851982
0.01846589
0.01840902
0.01834922
0.01828651
0.01822094
0.01815254
0.01808136
0.01800745
0.01793086
0.01785165
0.01776988
0.01768563
0.01759894
0.0175099
0.01741858
0.01732507
0.01722944
0.01713178
0.0170322
0.01693079
0.01682767
0.01672293
0.01661672
0.01650915
0.01640036
0.0162905
0.01617969
0.0160681
0.01595584
0.01584306
0.01572986
0.01561639
0.01550268
0.01538892
0.01527502
0.01516121
0.01504722
0.01493331
0.01481884
0.01470419
0.0145886
0.01447343
0.01435971
0.01425255
0.01416015
0.04161814
0.04593853
0.04978167
0.07399621
0.09854682
0.1283649
0.1482248
0.1679165
0.1862349
0.2030375
0.2175512
0.2300281
0.2421915
0.2544903
0.2668161
0.2792798
0.2919225
0.3047842
0.3176744
0.330378
0.3429248
0.355375
0.3677394
0.3800918
0.392461
0.4048065
0.4171151
0.4293637
0.4416548
0.4542127
0.4677027
0.4990604
0.508872
0.5196753
0.5295075
0.5388878
0.5479988
0.5567872
0.5650589
0.5726176
0.5795264
0.5853268
0.5895212
0.591208
0.5903191
0.5873818
0.5828316
0.5770396
0.5702912
0.5627736
0.5546095
0.5459613
0.5368803
0.5274544
0.5177663
0.5078938
0.4979103
0.4878823
0.4778703
0.4679306
0.4581328
0.4485408
0.4392244
0.4302763
0.4217697
0.4137767
0.4064029
0.3997592
0.3936111
0.3883274
0.3839557
0.3805363
0.3780974
0.3766214
0.3760364
0.3761864
0.3768488
0.3778206
0.3789416
0.3799995
0.3806241
0.3803432
0.3787907
0.3758656
0.3717379
0.3667025
0.3611052
0.3553961
0.3493338
0.3428959
0.3360098
0.3285403
0.3203749
0.3115086
0.3020034
0.2920776
0.2819813
0.2719529
0.2622494
0.2531221
0.2448322
0.2376674
0.2319736
0.2286655
0.2282142
0.2309868
0.2371565
0.2466053
0.2589411
0.2734039
0.2889428
0.3042902
0.3179967
0.3289149
0.336607
0.3413399
0.3437161
0.3443733
0.3438246
0.3423769
0.3401596
0.337262
0.3338243
0.330029
0.3260315
0.321837
0.3174915
0.3126396
0.3070904
0.3006538
0.2932511
0.2849551
0.275952
0.2665199
0.2568917
0.2472428
0.2377021
0.2283282
0.2191566
0.2102362
0.2016087
0.1932938
0.1853582
0.1778708
0.1708812
0.164412
0.1584617
0.1530233
0.1480838
0.1436146
0.139596
0.1360279
0.1328951
0.1301756
0.1278505
0.1259084
0.1243078
0.1229909
0.1219064
0.1210156
0.1202891
0.1197027
0.1192361
0.1188722
0.1185964
0.1183954
0.1182557
0.1181632
0.1181088
0.1180744
0.1180455
0.1180069
0.1179393
0.117824
0.1176454
0.1173871
0.1170362
0.1165837
0.1160239
0.1153547
0.1145764
0.1136912
0.1127011
0.1116051
0.1104126
0.1091341
0.1077808
0.1063637
0.1048944
0.1033835
0.1018405
0.1002728
0.09868525
0.09707988
0.09545597
0.09381017
0.09213818
0.09043533
0.08869769
0.08692196
0.08510623
0.08325103
0.08135959
0.07943507
0.07748452
0.07551441
0.07352995
0.07153444
0.06953482
0.06753198
0.06549999
0.0634468
0.06146511
0.05965885
0.05806332
0.05668058
0.05556721
0.0548343
0.05461908
0.05501653
0.05613898
0.05822444
0.06118004
0.06476113
0.06850568
0.07174281
0.07355495
0.07336465
0.0715433
0.06903802
0.06665369
0.06477064
0.06341258
0.06242114
0.06169841
0.06113899
0.06063442
0.06015881
0.05971021
0.05930477
0.05879283
0.05813601
0.05736816
0.05656753
0.0558451
0.05531539
0.05507749
0.05519628
0.05570503
0.05659481
0.05780647
0.05927251
0.06092019
0.06266735
0.06449281
0.06632801
0.06810844
0.069819
0.07146544
0.07305707
0.07460009
0.07609841
0.0775565
0.07898126
0.08038378
0.08177661
0.08317085
0.0845745
0.08599086
0.0874295
0.08887745
0.09032019
0.09173847
0.09310722
0.09439487
0.09556422
0.09657605
0.09739112
0.09797342
0.09829305
0.09832584
0.09807283
0.09754306
0.09673207
0.09564665
0.09430598
0.0927304
0.09094215
0.08897027
0.08683959
0.08458711
0.0822483
0.0798441
0.07738609
0.07490534
0.07243332
0.06999964
0.06762935
0.06534194
0.06315139
0.06106689
0.05909369
0.05723375
0.0554862
0.05384802
0.05231459
0.05088027
0.04953877
0.04828354
0.04710801
0.04600586
0.04497113
0.04399831
0.04308237
0.0422188
0.04140355
0.04063304
0.03990407
0.03921383
0.03855972
0.03793962
0.03735115
0.03679314
0.03626243
0.03575636
0.0352733
0.03481248
0.03437287
0.03395304
0.03355142
0.03316646
0.03279668
0.03244072
0.0320973
0.03176513
0.031443
0.03112973
0.0308242
0.03052537
0.03023226
0.02994395
0.02965959
0.02937843
0.02909978
0.02882305
0.02854775
0.02827348
0.02799998
0.02772709
0.02745475
0.02718303
0.02691212
0.02664228
0.02637388
0.02610737
0.02584325
0.0255821
0.02532454
0.02507123
0.02482283
0.02458003
0.02434351
0.02411392
0.0238919
0.02367803
0.02347286
0.02327682
0.02309027
0.0229134
0.02274625
0.02258868
0.02244053
0.02230183
0.02217258
0.02205277
0.02194213
0.02184049
0.02174784
0.02166393
0.02158747
0.02151765
0.02145431
0.02139731
0.02134636
0.02130102
0.0212608
0.02122517
0.0211936
0.02116556
0.02114055
0.02111808
0.02109771
0.02107899
0.02106152
0.02104488
0.02102871
0.02101266
0.0209964
0.02097965
0.02096212
0.02094357
0.02092376
0.02090249
0.02087956
0.02085477
0.02082798
0.02079903
0.02076779
0.02073413
0.02069797
0.02065921
0.02061778
0.02057362
0.02052668
0.02047692
0.02042431
0.02036882
0.02031046
0.0202492
0.02018507
0.02011808
0.02004824
0.01997561
0.0199002
0.01982207
0.01974125
0.0196578
0.01957176
0.01948318
0.01939212
0.01929863
0.01920277
0.01910461
0.0190042
0.01890162
0.01879694
0.01869024
0.0185816
0.01847112
0.0183589
0.01824504
0.01812967
0.01801289
0.01789486
0.0177757
0.01765555
0.01753454
0.01741279
0.0172904
0.0171675
0.01704413
0.01692041
0.01679633
0.016672
0.01654733
0.01642241
0.01629708
0.01617149
0.01604562
0.01591988
0.01579519
0.01567312
0.01556493
0.02202054
0.02421355
0.02626549
0.03401525
0.04462895
0.06219639
0.07466779
0.08783572
0.1018815
0.1160405
0.1305315
0.1463247
0.162994
0.1798729
0.1973555
0.2169427
0.2467186
0.2602173
0.273846
0.2875128
0.3014684
0.315126
0.3280967
0.3404744
0.3524245
0.3640252
0.3751764
0.3860111
0.3966697
0.4071466
0.4174359
0.4275369
0.4374179
0.4470531
0.4564339
0.4655899
0.4744751
0.4831606
0.4916179
0.4994705
0.5073566
0.5143539
0.5188412
0.5246245
0.5313413
0.5386172
0.5464941
0.554972
0.563854
0.5729168
0.5818003
0.590246
0.5977923
0.6039334
0.6079409
0.6095511
0.6094342
0.6079612
0.6053716
0.6018277
0.5974309
0.5922401
0.5863307
0.5797423
0.5725195
0.5647094
0.5563708
0.5475728
0.5383836
0.5288743
0.5191195
0.509214
0.4992509
0.4893384
0.479607
0.4701713
0.4611413
0.4526628
0.4448488
0.4377797
0.4315842
0.4264081
0.4223874
0.4196389
0.4182033
0.4180275
0.4188948
0.4204929
0.4225788
0.4249994
0.4274309
0.4292055
0.4295284
0.4279233
0.4244301
0.4194139
0.4133468
0.4067411
0.3999462
0.3928805
0.3855795
0.3779516
0.3698003
0.3609302
0.3512663
0.3409144
0.3300596
0.3189622
0.3079091
0.2972073
0.2871747
0.2781615
0.270573
0.2648379
0.2618333
0.2623117
0.2667323
0.2753237
0.2879834
0.3040664
0.322488
0.3417284
0.3598908
0.3750095
0.3857669
0.3920645
0.3947048
0.3948088
0.3934197
0.391249
0.3885768
0.3853938
0.3817099
0.3776193
0.3732629
0.3688274
0.3645328
0.360009
0.3548884
0.348882
0.3416801
0.333085
0.3231645
0.3122379
0.3007826
0.2892629
0.277991
0.2671037
0.2566424
0.2465772
0.2368681
0.2275084
0.2184823
0.2098253
0.201596
0.1938445
0.1865994
0.1798668
0.1736618
0.1679925
0.1628596
0.1582612
0.1541997
0.1506637
0.1476278
0.1450582
0.1429194
0.1411621
0.1397265
0.1385668
0.1376475
0.1369393
0.1364167
0.1360571
0.1358398
0.1357454
0.1357551
0.1358507
0.1360134
0.1362203
0.1364498
0.1366783
0.1368766
0.1370135
0.1370608
0.136994
0.1367971
0.1364591
0.1359748
0.1353433
0.1345666
0.1336492
0.1325978
0.1314209
0.130127
0.1287269
0.127232
0.125654
0.1240048
0.1222962
0.1205399
0.1187457
0.1169208
0.1150689
0.1131903
0.1112811
0.1093306
0.1073384
0.1053035
0.1032243
0.1010984
0.09892417
0.09670092
0.09442887
0.09210905
0.08974629
0.08734582
0.08491269
0.08245216
0.07997135
0.07747643
0.07496343
0.07244541
0.06997609
0.06760363
0.06533474
0.06317946
0.06117843
0.05938172
0.05786744
0.05678048
0.05632925
0.05670255
0.05793444
0.0600896
0.06322129
0.06713851
0.07141303
0.07537513
0.07834438
0.0799173
0.08019357
0.07966884
0.07887001
0.07813122
0.0775676
0.07708314
0.07645831
0.0756501
0.07460973
0.07349804
0.0722996
0.07092726
0.06943957
0.06794539
0.06654894
0.06534863
0.06446156
0.06396755
0.06391861
0.064332
0.06516393
0.06634807
0.06780444
0.06944537
0.07121032
0.07303359
0.07485021
0.07662088
0.07832959
0.07997233
0.08154958
0.08306239
0.084511
0.0858948
0.08722053
0.08850377
0.08975741
0.09099361
0.09222042
0.09345708
0.09470582
0.09596379
0.09722252
0.09846672
0.09967262
0.1008073
0.101834
0.1027118
0.1034021
0.1038693
0.104084
0.1040335
0.1037174
0.103134
0.1022782
0.1011502
0.0997602
0.09812482
0.09626856
0.09422767
0.09203269
0.08971587
0.08730487
0.08480881
0.08225202
0.07967208
0.07710661
0.07458735
0.07213866
0.06977834
0.06751913
0.06536976
0.06333513
0.0614167
0.05961316
0.05792111
0.05633563
0.05485073
0.05345981
0.05215601
0.05093246
0.04978258
0.04870014
0.04767942
0.04671521
0.04580289
0.04493834
0.04411794
0.04333853
0.04259729
0.04189184
0.0412198
0.04057934
0.03996824
0.03938456
0.03882662
0.03829311
0.0377827
0.03729401
0.0368257
0.03637643
0.03594487
0.0355297
0.03512967
0.03474355
0.03437013
0.03400825
0.03365678
0.03331465
0.03298083
0.03265432
0.03233419
0.03201957
0.03170963
0.03140366
0.03110098
0.03080105
0.0305034
0.03020768
0.02991367
0.02962123
0.02933036
0.02904113
0.02875376
0.02846851
0.02818575
0.02790594
0.02762957
0.02735721
0.02708946
0.02682695
0.02657034
0.02632026
0.02607735
0.02584223
0.02561545
0.02539749
0.02518878
0.02498959
0.02480009
0.02462032
0.02445028
0.02429
0.02413949
0.02399877
0.02386771
0.02374617
0.0236339
0.02353044
0.02343508
0.0233474
0.02326711
0.02319387
0.02312719
0.02306657
0.02301152
0.02296154
0.02291615
0.02287483
0.02283709
0.02280245
0.02277044
0.02274059
0.02271247
0.02268565
0.02265973
0.02263434
0.02260914
0.02258379
0.02255799
0.02253148
0.02250401
0.02247534
0.02244526
0.02241357
0.0223801
0.02234468
0.02230717
0.02226745
0.02222541
0.02218095
0.02213399
0.02208448
0.02203235
0.02197758
0.02192012
0.02185995
0.02179706
0.02173143
0.02166308
0.02159201
0.02151825
0.02144183
0.02136277
0.02128111
0.02119689
0.02111015
0.02102093
0.02092927
0.0208352
0.02073878
0.02064004
0.02053903
0.02043581
0.02033043
0.02022294
0.02011342
0.02000193
0.01988854
0.01977334
0.01965643
0.0195379
0.01941788
0.01929648
0.01917385
0.01905011
0.01892539
0.0187998
0.01867344
0.01854641
0.01841876
0.01829056
0.01816183
0.01803263
0.01790295
0.01777282
0.01764219
0.01751118
0.01737982
0.01724837
0.01711737
0.01698821
0.01687365
0.00851634
0.01019211
0.01141368
0.01695011
0.02331081
0.03158685
0.03851186
0.04638398
0.05489541
0.06396691
0.07392441
0.08556518
0.09825155
0.1123057
0.1289547
0.1541724
0.1668788
0.1800558
0.1932393
0.206392
0.2194644
0.2323746
0.2450374
0.257368
0.2692743
0.2807544
0.2920286
0.3041922
0.3164841
0.3289475
0.3416542
0.3542058
0.3662443
0.3776792
0.3884598
0.3985528
0.4082029
0.4174345
0.4262756
0.4347239
0.4427605
0.4503642
0.4574974
0.4641236
0.4702288
0.475777
0.4803564
0.4841803
0.4873846
0.4900252
0.4924543
0.4946057
0.4966396
0.4998683
0.5044164
0.510501
0.5181998
0.5274245
0.5378705
0.5491413
0.5606902
0.5720519
0.5826792
0.5920021
0.5992213
0.6048001
0.6089567
0.6118227
0.6134389
0.613856
0.613105
0.6112116
0.6082242
0.6041994
0.5991967
0.5932658
0.5864837
0.5789479
0.570753
0.5619922
0.5527661
0.5431909
0.5333886
0.5235008
0.5136774
0.5040634
0.4948201
0.4861363
0.4781789
0.4711005
0.4650938
0.4603937
0.4572391
0.45583
0.4562435
0.4582979
0.4615784
0.4656298
0.4701703
0.4749976
0.4795069
0.4825513
0.4830071
0.4804591
0.4752806
0.4682081
0.4599394
0.4511425
0.442037
0.4328674
0.4238073
0.4148334
0.4057181
0.3961464
0.385883
0.3748815
0.3633028
0.3514527
0.3397005
0.3284395
0.3180778
0.3090586
0.3018859
0.2971391
0.295665
0.2985272
0.3062558
0.3190465
0.3365705
0.3578299
0.3812725
0.4046771
0.4253019
0.4406903
0.4497536
0.4532666
0.4528263
0.4501097
0.4465573
0.4429689
0.4394296
0.4356326
0.4315025
0.4270872
0.4223087
0.4174367
0.4129318
0.4083382
0.4031975
0.3968421
0.3885485
0.3780093
0.3654938
0.3516344
0.3372538
0.3231222
0.3097055
0.297101
0.2851648
0.273742
0.2627761
0.2522779
0.2422885
0.2328189
0.2238847
0.2155032
0.2076886
0.2004363
0.1937526
0.1876437
0.1821123
0.1771585
0.1727834
0.1689816
0.1657356
0.1630158
0.1607862
0.1590019
0.1576091
0.1565584
0.1558091
0.1553264
0.1550791
0.1550382
0.1551757
0.1554627
0.15587
0.1563715
0.156942
0.1575545
0.1581758
0.158758
0.1592509
0.1596102
0.1597974
0.1597869
0.1595635
0.1591219
0.1584662
0.1576052
0.1565492
0.1553095
0.1539
0.15234
0.1506542
0.1488569
0.1469623
0.1449837
0.1429343
0.1408277
0.1386771
0.136493
0.1342814
0.1320432
0.129776
0.1274779
0.1251442
0.1227727
0.1203618
0.1179093
0.1154123
0.1128682
0.1102747
0.107627
0.1049185
0.1021581
0.09935439
0.09651537
0.09364772
0.09075827
0.08785502
0.08494287
0.08203536
0.07916177
0.07634183
0.0735778
0.07087906
0.06826255
0.06575012
0.06340264
0.06133286
0.05967245
0.05854356
0.058076
0.05844616
0.0597971
0.06217011
0.06551995
0.06954647
0.07395134
0.07826027
0.08204048
0.08505267
0.08728605
0.08886578
0.08995671
0.09067067
0.09101754
0.09089103
0.09015203
0.08870401
0.08684222
0.08467639
0.08235301
0.07999536
0.07773324
0.07569928
0.07399719
0.07272157
0.07194113
0.07169359
0.07196358
0.07269652
0.07381168
0.07521514
0.07681989
0.07854641
0.08032248
0.08209225
0.0838195
0.08548352
0.08707345
0.08858334
0.09000885
0.09134408
0.09258922
0.09375616
0.09485088
0.09588267
0.09686589
0.09782267
0.09877159
0.09972334
0.1006846
0.101654
0.1026205
0.1035613
0.1044484
0.1052442
0.1059108
0.1064014
0.106702
0.1067985
0.1066737
0.1063142
0.1057089
0.1048502
0.1037363
0.1023713
0.1007662
0.09893946
0.09691623
0.09472687
0.09240559
0.08998273
0.0874786
0.08492572
0.08236054
0.07981677
0.07732203
0.07489683
0.07255638
0.07031418
0.0681791
0.06615576
0.06424563
0.06244757
0.06075832
0.059173
0.05768566
0.0562897
0.05497824
0.05374442
0.05258163
0.05148367
0.05044483
0.04945997
0.04852455
0.04763456
0.04678654
0.04597749
0.04520483
0.04446621
0.04375964
0.04308325
0.04243531
0.04181419
0.04121849
0.04064696
0.04009843
0.03957175
0.03906574
0.03857922
0.03811102
0.03765999
0.03722502
0.03680499
0.03639883
0.03600547
0.03562389
0.03525306
0.03489199
0.03453973
0.03419534
0.03385793
0.03352665
0.03320074
0.0328795
0.03256229
0.03224862
0.03193805
0.03163027
0.03132508
0.03102237
0.03072215
0.03042452
0.03012967
0.02983788
0.02954951
0.02926498
0.02898478
0.02870946
0.02843957
0.02817572
0.0279185
0.0276685
0.02742627
0.02719233
0.02696711
0.02675097
0.02654417
0.02634687
0.02615918
0.02598121
0.02581302
0.02565463
0.025506
0.02536698
0.02523733
0.02511671
0.02500472
0.02490098
0.0248051
0.02471667
0.02463524
0.02456033
0.02449145
0.02442811
0.02436981
0.02431606
0.02426637
0.02422025
0.02417722
0.02413683
0.02409863
0.02406219
0.0240271
0.02399298
0.02395947
0.02392622
0.02389292
0.0238593
0.02382508
0.02379002
0.0237539
0.02371651
0.02367767
0.0236372
0.02359495
0.02355078
0.02350457
0.02345622
0.02340565
0.02335278
0.02329755
0.02323992
0.02317984
0.02311728
0.02305222
0.02298465
0.02291455
0.02284195
0.02276685
0.02268928
0.02260925
0.0225268
0.02244195
0.02235473
0.02226518
0.02217331
0.02207915
0.02198274
0.0218841
0.02178326
0.02168027
0.02157515
0.02146796
0.02135875
0.02124755
0.02113445
0.02101949
0.02090276
0.02078435
0.02066437
0.02054294
0.0204202
0.02029628
0.02017129
0.02004536
0.01991857
0.01979099
0.01966268
0.01953369
0.01940404
0.01927376
0.01914285
0.01901132
0.01887916
0.01874642
0.01861313
0.01847946
0.01834579
0.01821388
0.01809757
0.001765331
0.007802093
0.01171849
0.01645358
0.02190801
0.02829758
0.03572042
0.04405571
0.05346426
0.06487896
0.08212785
0.09205255
0.1026542
0.1136422
0.1249713
0.1365348
0.1482498
0.1600116
0.1716613
0.1831165
0.1944202
0.2070191
0.2195732
0.2319197
0.2440452
0.2559113
0.2674737
0.278787
0.2898365
0.3005738
0.3110614
0.3215024
0.3321221
0.3427535
0.3534718
0.364134
0.3744605
0.3841809
0.3931554
0.4014547
0.4092473
0.4166333
0.4236614
0.430333
0.4366252
0.4424948
0.44787
0.4526403
0.4567157
0.4596815
0.4616692
0.462634
0.4626205
0.4618628
0.4606268
0.4594218
0.4587097
0.4591156
0.4614
0.4660708
0.4734132
0.4834435
0.4959254
0.5103604
0.5261454
0.5424792
0.5587238
0.5734676
0.5871795
0.599549
0.6103321
0.6194272
0.6267396
0.63223
0.6359459
0.6378976