/*--------------------------------*- C++ -*----------------------------------*\
| =========                 |                                                 |
| \\      /  F ield         | foam-extend: Open Source CFD                    |
|  \\    /   O peration     | Version:     3.1                                |
|   \\  /    A nd           | Web:         http://www.extend-project.de       |
|    \\/     M anipulation  |                                                 |
\*---------------------------------------------------------------------------*/
FoamFile
{
    version     2.0;
    format      ascii;
    class       volScalarField;
    location    "0.5";
    object      k;
}
// * * * * * * * * * * * * * * * * * * * * * * * * * * * * * * * * * * * * * //

dimensions      [0 2 -2 0 0 0 0];

internalField   nonuniform List<scalar> 
119952
(
0.02608615
0.02064637
0.02141476
0.02410541
0.02565509
0.02558967
0.02574072
0.02587977
0.02595908
0.02597524
0.02593643
0.02585341
0.02573645
0.02559395
0.02543182
0.02525368
0.02506221
0.02486312
0.02467948
0.0246443
0.02784357
0.02689798
0.02679389
0.03020676
0.02919862
0.02874149
0.02831778
0.02788356
0.02650665
0.02827613
0.02765431
0.02241189
0.02322784
0.02560824
0.02807664
0.03022363
0.03205439
0.03365056
0.03508516
0.03671562
0.0425654
0.04966166
0.05592724
0.06114611
0.06540894
0.06894281
0.07196056
0.0746261
0.07702516
0.09149218
0.09349062
0.09575786
0.0982599
0.1008545
0.1034085
0.1058437
0.1081311
0.110267
0.1122058
0.113856
0.1154901
0.1172629
0.1191892
0.1211972
0.1232004
0.1251423
0.1270198
0.128905
0.1297005
0.1298167
0.1303073
0.1310276
0.131737
0.1322983
0.1327849
0.1332144
0.1335809
0.1339058
0.1341875
0.1344251
0.1346199
0.1347741
0.1348888
0.1349648
0.1350041
0.1350177
0.1350405
0.1351557
0.1353869
0.1356248
0.1360327
0.1367348
0.137225
0.1373055
0.1370827
0.1363738
0.1346072
0.1323331
0.1312698
0.1303718
0.1295485
0.1288247
0.1282117
0.1276981
0.1272612
0.1268748
0.1265148
0.1261631
0.1258099
0.1254549
0.1251056
0.1247738
0.1244702
0.124201
0.1239632
0.1237482
0.1235472
0.1233528
0.1231601
0.1229663
0.1227708
0.122575
0.1223807
0.1221891
0.1220006
0.1218151
0.1216321
0.1214508
0.1212709
0.1210917
0.120913
0.1207343
0.1205555
0.1203763
0.1201966
0.1200163
0.1198353
0.1196536
0.1194711
0.1192878
0.1191035
0.1189186
0.118733
0.1185471
0.1183625
0.1181844
0.1180298
0.1178991
0.1174556
0.1167178
0.1158454
0.1149513
0.1140952
0.1133014
0.1125751
0.1119124
0.1113042
0.1107411
0.1102145
0.1097176
0.1092446
0.1087909
0.1083523
0.1079253
0.1075077
0.1070992
0.1067034
0.1063264
0.1059725
0.1056439
0.1053395
0.1050563
0.1047904
0.1045376
0.1042944
0.1040579
0.1038256
0.1035957
0.103367
0.1031386
0.1029099
0.1026805
0.1024499
0.1022182
0.1019849
0.1017502
0.1015137
0.1012756
0.1010356
0.1007939
0.1005503
0.1003051
0.1000582
0.09980981
0.09956054
0.09931596
0.09908274
0.09214666
0.08477744
0.08184623
0.07983465
0.07825289
0.07696884
0.075899
0.07498113
0.07417452
0.07344772
0.07277987
0.07215797
0.07157232
0.07101574
0.07048353
0.06997239
0.06947925
0.06900107
0.0685356
0.06808378
0.06765042
0.0672396
0.06685123
0.06648417
0.06613341
0.0657948
0.06546469
0.06514007
0.06481933
0.06450174
0.06418769
0.06387903
0.06358157
0.06330199
0.0630861
0.06323328
0.06406807
0.06490114
0.06564372
0.06629662
0.06688066
0.06741428
0.06791031
0.06837862
0.06882607
0.06925719
0.06967549
0.07008334
0.07048274
0.070875
0.07126068
0.07163957
0.07201075
0.07237302
0.07272529
0.0730671
0.07339883
0.07372159
0.074037
0.07434673
0.07465233
0.07495481
0.07525508
0.07555328
0.07584972
0.07614448
0.07643753
0.07672885
0.07701984
0.0773109
0.08991093
0.09020963
0.09072206
0.09161605
0.09283022
0.09420974
0.09561183
0.09694584
0.09817019
0.09927521
0.100268
0.1011624
0.1019735
0.1027152
0.1033985
0.1040323
0.1046232
0.1051767
0.1056964
0.1061849
0.1066431
0.1070718
0.1074713
0.1078424
0.1081868
0.1085067
0.1088046
0.1090837
0.109347
0.1095973
0.1098372
0.110069
0.1102944
0.1105147
0.1107311
0.1109441
0.1111543
0.111362
0.1115672
0.1117697
0.1119694
0.1121654
0.1123564
0.1125392
0.1127073
0.1128454
0.1129499
0.1130441
0.1131357
0.1132278
0.1133215
0.1134171
0.1135154
0.113609
0.1135147
0.1133741
0.1134236
0.1137512
0.1143354
0.1150885
0.1159098
0.1167226
0.1174832
0.1181747
0.1187961
0.1193544
0.1198592
0.12032
0.1207445
0.1211394
0.1215097
0.1218589
0.1221886
0.1224986
0.1227877
0.1230543
0.1232971
0.1235164
0.1237133
0.1238901
0.1240495
0.1241947
0.1243283
0.1244532
0.1245714
0.1246847
0.1247944
0.1249016
0.1250069
0.1251109
0.125214
0.1253163
0.125418
0.1255193
0.1256202
0.1257207
0.1258209
0.1259208
0.1260204
0.1261198
0.126219
0.1263179
0.1264167
0.1265153
0.1266137
0.1267121
0.1268104
0.1269086
0.1270069
0.1271051
0.1272035
0.127302
0.1274008
0.1274998
0.1275992
0.1276991
0.1277996
0.1279009
0.1280029
0.128106
0.1282102
0.1283157
0.1284228
0.1285318
0.128643
0.128757
0.1288744
0.1289963
0.1291238
0.1292587
0.1294037
0.1295632
0.1297445
0.1299609
0.1302397
0.130642
0.1313139
0.1325537
0.1332934
0.02337132
0.02227345
0.02437662
0.02700888
0.0293615
0.03134578
0.03305125
0.03456343
0.03598948
0.03930311
0.04684884
0.05373842
0.05953185
0.06423326
0.0680705
0.07129121
0.07409213
0.07661096
0.0913114
0.09322457
0.09538851
0.09783991
0.1004563
0.1030815
0.1056101
0.1079944
0.1102238
0.1122976
0.1140837
0.1157156
0.1174339
0.1193172
0.1213226
0.1233586
0.125341
0.1272129
0.1289455
0.1301184
0.1310093
0.1320985
0.133375
0.1348113
0.1363524
0.1379377
0.1395177
0.141059
0.1425342
0.14389
0.1451412
0.1463592
0.1476097
0.1489206
0.1502855
0.1516809
0.1530786
0.1544089
0.166731
0.1678418
0.1688936
0.169929
0.1709787
0.1720573
0.1731652
0.1742946
0.1754321
0.176557
0.1776478
0.1786991
0.1797218
0.1807344
0.1817528
0.1827846
0.1838289
0.1848744
0.1858742
0.1867007
0.1873709
0.1879494
0.1884276
0.1887941
0.1890718
0.1892981
0.1894994
0.1896901
0.1898733
0.1900531
0.1902349
0.1904194
0.1905991
0.1907672
0.1909181
0.1910498
0.191167
0.1912858
0.1914119
0.1915424
0.1916835
0.1918629
0.192044
0.1921316
0.192099
0.1918868
0.1914524
0.1908375
0.1903017
0.1898728
0.1894873
0.1891127
0.188737
0.1883589
0.1879802
0.1876022
0.1872247
0.1868467
0.1864683
0.1860922
0.1857244
0.1853731
0.1850469
0.1847525
0.1844927
0.1842662
0.1840682
0.1838929
0.1837341
0.1835869
0.1834473
0.1833131
0.1831831
0.1830567
0.1829335
0.1828133
0.1826958
0.1825806
0.1824672
0.1823553
0.1822446
0.1821347
0.1820254
0.1819165
0.1818078
0.1816993
0.1815908
0.1814823
0.1813736
0.1812647
0.1811557
0.1810466
0.1809374
0.1808284
0.1807202
0.180614
0.1805124
0.1804206
0.1803496
0.1802851
0.1801934
0.1800536
0.1798607
0.1796191
0.1793376
0.1790257
0.1786918
0.1783421
0.1779819
0.1776148
0.177244
0.1768719
0.1765005
0.176132
0.1757687
0.1754137
0.175071
0.1747453
0.1744413
0.1741621
0.1739098
0.1736836
0.1734816
0.1733006
0.1731369
0.172987
0.1728476
0.1727158
0.1725894
0.1724665
0.1723462
0.1722271
0.1721087
0.1719904
0.1718721
0.1717534
0.1716343
0.1715147
0.1713944
0.1712736
0.1711522
0.1710302
0.1709078
0.1707851
0.1706622
0.1705396
0.1704177
0.1703018
0.1627969
0.1599881
0.1592527
0.158839
0.1584099
0.157924
0.1573962
0.1568473
0.1562934
0.1557448
0.1552078
0.1546852
0.1541789
0.15369
0.1532195
0.1527689
0.1523394
0.1519325
0.1515504
0.1511963
0.1508735
0.1505845
0.1503292
0.1501066
0.1499116
0.1497398
0.1495861
0.1494465
0.149318
0.1491989
0.1490889
0.14899
0.1489075
0.1488543
0.1488594
0.1489651
0.1491573
0.1494052
0.1496876
0.1499893
0.1502995
0.1506109
0.1509185
0.1512196
0.1515128
0.1517977
0.1520747
0.1523441
0.1526062
0.1528611
0.1531082
0.1533468
0.1535754
0.1537927
0.1539976
0.1541897
0.1543695
0.154538
0.154697
0.1548483
0.1549936
0.1551346
0.1552723
0.1554076
0.155541
0.1556727
0.1558031
0.1559322
0.1560588
0.156143
0.1670128
0.1671993
0.1673086
0.167396
0.1675081
0.1676758
0.1679129
0.168219
0.1685856
0.1690005
0.1694515
0.1699275
0.1704191
0.1709185
0.1714191
0.1719149
0.1724005
0.1728713
0.1733227
0.1737507
0.1741516
0.174523
0.1748631
0.1751717
0.1754499
0.1756995
0.1759234
0.176125
0.1763077
0.1764748
0.1766296
0.1767746
0.176912
0.1770435
0.1771706
0.1772941
0.1774147
0.1775327
0.1776484
0.1777616
0.1778721
0.1779794
0.1780823
0.1781792
0.1782676
0.1783449
0.1784125
0.1784736
0.1785305
0.1785846
0.1786369
0.1786878
0.1787362
0.1787766
0.1787964
0.1787928
0.178777
0.1787704
0.1787963
0.1788715
0.1790033
0.17919
0.1794245
0.1796976
0.1800001
0.1803237
0.1806614
0.1810074
0.1813567
0.181705
0.1820482
0.1823822
0.1827029
0.1830064
0.1832888
0.1835472
0.1837801
0.1839871
0.1841691
0.1843283
0.1844674
0.1845895
0.1846977
0.1847949
0.1848838
0.1849663
0.1850442
0.1851187
0.1851909
0.1852615
0.1853308
0.1853993
0.1854671
0.1855345
0.1856016
0.1856683
0.1857348
0.1858011
0.1858672
0.1859331
0.1859989
0.1860646
0.1861301
0.1861956
0.1862609
0.1863263
0.1863916
0.1864569
0.1865223
0.1865878
0.1866534
0.1867193
0.1867854
0.186852
0.186919
0.1869867
0.1870551
0.1871244
0.1871947
0.1872662
0.187339
0.1874135
0.1874898
0.1875684
0.1876497
0.1877344
0.1878231
0.1879171
0.1880177
0.1881269
0.1882477
0.1883845
0.1885442
0.1887374
0.1889816
0.1893031
0.1897319
0.1902521
0.1906616
0.02445459
0.02027804
0.02214117
0.02513305
0.0278429
0.03008974
0.0319921
0.03366196
0.03517391
0.03692177
0.04380646
0.05166674
0.05827814
0.0635513
0.06774233
0.07117774
0.07411813
0.07674028
0.07911974
0.09403845
0.09616867
0.0986004
0.1012581
0.1039564
0.1065561
0.1089925
0.111251
0.1133395
0.1152119
0.1167965
0.1184039
0.1201846
0.1221239
0.1241241
0.1260839
0.1279332
0.1296494
0.1312418
0.1319352
0.1328926
0.1340694
0.1354378
0.1369416
0.1385126
0.1400918
0.1416388
0.1431281
0.1445207
0.1457849
0.1469826
0.1481921
0.1494599
0.1507912
0.1521656
0.1535544
0.1548964
0.1673359
0.1684629
0.1695163
0.1705409
0.1715736
0.1726356
0.1737325
0.1748587
0.1760028
0.1771478
0.1782705
0.1793568
0.180411
0.1814502
0.1824919
0.1835473
0.1846177
0.1856946
0.1867613
0.1877975
0.1887886
0.1897323
0.1906395
0.1915281
0.1924142
0.1933078
0.1942117
0.1951231
0.1960338
0.1969316
0.1978069
0.1986584
0.1994937
0.2003247
0.2011632
0.2020197
0.2029104
0.2039106
0.2049024
0.205877
0.2068308
0.2077664
0.2086901
0.2096086
0.2105267
0.2114464
0.2123663
0.2132819
0.2141861
0.2150741
0.2159452
0.2168036
0.2176562
0.2185105
0.2193722
0.220242
0.2211066
0.2219171
0.2226465
0.2233002
0.2238694
0.2243456
0.2247377
0.225066
0.2253502
0.2256053
0.2258413
0.2260646
0.2262769
0.2264771
0.2266673
0.2268458
0.2270096
0.2271572
0.2272908
0.2274129
0.2275235
0.2276255
0.2277233
0.2278244
0.2279096
0.2279386
0.2278705
0.2276565
0.2272785
0.2267712
0.2262863
0.2258716
0.2255046
0.2251629
0.2248317
0.2245019
0.2241692
0.2238297
0.2234803
0.2231199
0.2227503
0.2223765
0.2220065
0.22165
0.2213164
0.2210132
0.2207438
0.2205082
0.2203029
0.2201228
0.2199623
0.2198161
0.2196802
0.2195516
0.2194286
0.2193099
0.2191949
0.2190831
0.2189741
0.2188676
0.218763
0.2186601
0.2185585
0.218458
0.2183584
0.2182594
0.2181609
0.2180627
0.2179648
0.2178671
0.2177695
0.2176719
0.2175744
0.217477
0.2173797
0.2172828
0.2171868
0.2170923
0.2170005
0.2169133
0.2168344
0.2167636
0.2166923
0.2166087
0.216503
0.2163695
0.2162047
0.2160086
0.2157829
0.2155303
0.2152538
0.214957
0.2146434
0.2143168
0.2139809
0.2136396
0.2132972
0.2129588
0.2126297
0.2123153
0.2120207
0.2117501
0.2115053
0.2112866
0.2110925
0.2109204
0.2107669
0.2106284
0.2105021
0.2103843
0.2102727
0.2101658
0.2100616
0.2099593
0.209858
0.2097572
0.2096565
0.2095556
0.2094545
0.209353
0.2092511
0.2091487
0.2090458
0.2089426
0.2088391
0.2087353
0.2086314
0.2085251
0.2084051
0.2082083
0.2075899
0.2073683
0.2072299
0.2070915
0.2069267
0.2067259
0.2064866
0.206211
0.2059027
0.2055667
0.2052082
0.204833
0.2044467
0.2040551
0.2036641
0.2032793
0.2029063
0.2025504
0.2022165
0.2019092
0.2016319
0.2013866
0.2011735
0.2009904
0.2008344
0.2007015
0.2005878
0.2004898
0.2004047
0.2003311
0.2002684
0.2002189
0.2001865
0.200179
0.2002075
0.2002771
0.2003835
0.2005187
0.2006757
0.2008493
0.2010355
0.2012309
0.2014328
0.201639
0.2018476
0.2020576
0.2022674
0.2024759
0.202682
0.2028845
0.203082
0.2032728
0.2034555
0.2036286
0.2037911
0.2039427
0.2040835
0.2042144
0.2043366
0.2044515
0.2045604
0.2046646
0.2047652
0.204863
0.2049585
0.2050522
0.2051447
0.2052391
0.205349
0.205555
0.2057556
0.205932
0.2060829
0.2062133
0.2063348
0.2064614
0.2066064
0.2067801
0.206989
0.2072362
0.2075218
0.2078436
0.2081978
0.2085791
0.2089815
0.2093979
0.2098212
0.2102441
0.2106593
0.2110603
0.2114412
0.2117975
0.2121259
0.2124249
0.2126944
0.2129357
0.213151
0.2133434
0.213516
0.2136724
0.2138154
0.213948
0.2140723
0.2141903
0.2143034
0.2144126
0.2145186
0.2146219
0.2147228
0.2148212
0.214917
0.2150097
0.2150986
0.2151829
0.2152611
0.2153324
0.2153973
0.2154569
0.2155125
0.215565
0.2156148
0.2156624
0.2157073
0.2157474
0.2157793
0.215801
0.2158136
0.2158223
0.2158358
0.2158646
0.215918
0.2160034
0.2161248
0.2162836
0.2164786
0.216707
0.2169643
0.2172455
0.2175449
0.2178563
0.2181737
0.2184908
0.2188014
0.2190998
0.2193808
0.2196405
0.2198762
0.2200869
0.2202729
0.2204359
0.2205781
0.2207025
0.2208122
0.2209101
0.2209989
0.2210807
0.2211574
0.2212304
0.2213009
0.2213696
0.221437
0.2215036
0.2215696
0.2216353
0.2217007
0.221766
0.2218312
0.2218964
0.2219615
0.2220266
0.2220918
0.2221571
0.2222225
0.222288
0.2223537
0.2224197
0.2224858
0.2225523
0.2226191
0.2226863
0.222754
0.222822
0.2228905
0.2229594
0.2230288
0.223099
0.2231699
0.2232419
0.223315
0.2233894
0.2234653
0.2235431
0.2236231
0.2237056
0.2237911
0.2238805
0.2239744
0.224074
0.2241809
0.2242971
0.2244254
0.2245699
0.2247361
0.2249321
0.2251689
0.2254599
0.2258144
0.2262104
0.2265388
0.03170657
0.03703902
0.04389399
0.06180317
0.07513407
0.09824417
0.1046646
0.1106274
0.1156202
0.11955
0.1226211
0.1253547
0.1274637
0.1292165
0.1310903
0.1330959
0.1351995
0.1373319
0.1394254
0.1414325
0.1433247
0.1450778
0.1466405
0.1480503
0.1494081
0.1507899
0.1522194
0.1536832
0.1551545
0.1566051
0.1579571
0.1702886
0.1713797
0.1724137
0.1734385
0.1744828
0.1755556
0.1766523
0.1777612
0.1788676
0.1799512
0.1809926
0.1819927
0.1829699
0.1839469
0.1849395
0.1859512
0.186974
0.1879972
0.1890073
0.1899787
0.1909022
0.1917849
0.1926448
0.1935
0.1943626
0.1952373
0.1961223
0.1970107
0.197891
0.198751
0.1995861
0.2004013
0.2012084
0.2020208
0.2028511
0.2037184
0.2047019
0.2056889
0.2066622
0.2076162
0.2085511
0.2094722
0.2103872
0.2113023
0.2122212
0.2131449
0.2140703
0.2149916
0.215903
0.2168019
0.2176911
0.2185778
0.2194709
0.2203804
0.2213171
0.2222951
0.2232915
0.2242791
0.2252452
0.2261859
0.227104
0.2280049
0.2288942
0.2297763
0.2306527
0.2315227
0.2323833
0.2332319
0.2340672
0.2348912
0.2357082
0.2365242
0.2373462
0.2381833
0.2390508
0.2399389
0.2408386
0.2417418
0.2426423
0.2435366
0.2444226
0.2452997
0.2461676
0.2470262
0.2478747
0.2487122
0.2495379
0.2503524
0.2511573
0.2519553
0.2527491
0.2535401
0.2543254
0.2550928
0.2558173
0.2564869
0.2570997
0.2576503
0.2581334
0.2585513
0.2589132
0.2592304
0.2595137
0.2597717
0.2600112
0.2602362
0.2604484
0.2606477
0.2608326
0.2610003
0.2611484
0.2612761
0.2613845
0.2614754
0.2615503
0.2616116
0.2616614
0.2616918
0.2616873
0.2616011
0.2614177
0.2611304
0.2607607
0.2603816
0.2600329
0.259716
0.2594217
0.2591403
0.2588629
0.258582
0.2582916
0.2579875
0.257668
0.2573344
0.2569917
0.2566479
0.2563126
0.2559956
0.2557046
0.2554439
0.2552143
0.2550135
0.2548372
0.2546804
0.2545382
0.2544066
0.2542825
0.2541639
0.2540494
0.2539382
0.2538299
0.253724
0.2536202
0.2535182
0.2534177
0.2533184
0.2532201
0.2531226
0.2530257
0.2529293
0.2528333
0.2527376
0.252642
0.2525466
0.2524512
0.252356
0.2522608
0.2521658
0.2520711
0.2519771
0.2518841
0.2517927
0.2517032
0.2516159
0.2515305
0.2514442
0.251352
0.2512484
0.2511282
0.2509877
0.2508236
0.250635
0.250421
0.2501826
0.2499215
0.24964
0.2493409
0.2490278
0.248705
0.2483774
0.2480499
0.2477287
0.2474198
0.2471288
0.2468598
0.2466155
0.2463966
0.2462019
0.2460293
0.2458757
0.2457377
0.2456118
0.2454956
0.2453861
0.2452814
0.2451799
0.2450804
0.244982
0.2448843
0.2447868
0.2446892
0.2445913
0.2444932
0.2443946
0.2442957
0.2441964
0.2440967
0.2439968
0.2438967
0.2437961
0.2436942
0.2435845
0.2434443
0.2432195
0.2430055
0.242809
0.242621
0.2424308
0.2422292
0.2420101
0.2417685
0.2415024
0.2412112
0.2408965
0.2405611
0.2402092
0.2398459
0.2394776
0.2391097
0.2387489
0.2384011
0.2380723
0.2377676
0.2374912
0.2372453
0.2370305
0.2368458
0.236689
0.2365559
0.2364433
0.2363479
0.2362672
0.2361997
0.2361454
0.2361057
0.2360843
0.2360869
0.2361205
0.2361869
0.2362789
0.2363933
0.236527
0.236676
0.2368378
0.23701
0.2371907
0.2373779
0.2375705
0.2377669
0.2379658
0.2381658
0.238366
0.2385641
0.2387589
0.2389485
0.2391311
0.2393052
0.2394697
0.2396239
0.239768
0.2399024
0.2400282
0.2401464
0.2402584
0.2403652
0.2404683
0.2405681
0.2406652
0.2407601
0.2408537
0.2409474
0.2410469
0.241167
0.2413009
0.2414412
0.241582
0.2417205
0.2418568
0.2419941
0.2421379
0.2422945
0.2424703
0.2426706
0.2428996
0.2431593
0.2434501
0.2437701
0.2441156
0.2444814
0.2448611
0.2452475
0.2456331
0.2460107
0.2463738
0.2467168
0.2470358
0.2473283
0.2475935
0.247832
0.2480455
0.2482367
0.2484083
0.2485636
0.2487055
0.2488367
0.2489595
0.2490756
0.2491867
0.2492937
0.2493974
0.2494983
0.2495967
0.2496926
0.2497859
0.2498764
0.2499636
0.2500469
0.2501255
0.250199
0.2502674
0.2503313
0.2503915
0.2504483
0.2505022
0.2505535
0.2506021
0.2506473
0.2506883
0.2507249
0.2507581
0.2507898
0.250824
0.2508659
0.2509215
0.2509967
0.2510964
0.2512243
0.2513822
0.2515704
0.2517872
0.2520297
0.2522936
0.2525737
0.2528642
0.2531587
0.253451
0.2537347
0.2540043
0.2542555
0.254485
0.2546914
0.2548746
0.2550355
0.2551763
0.2552995
0.255408
0.2555046
0.2555918
0.2556718
0.2557464
0.2558171
0.2558851
0.255951
0.2560156
0.2560791
0.256142
0.2562044
0.2562663
0.256328
0.2563894
0.2564507
0.2565118
0.2565728
0.2566337
0.2566944
0.2567552
0.2568159
0.2568765
0.2569372
0.256998
0.2570588
0.2571197
0.2571808
0.2572421
0.2573037
0.2573657
0.2574281
0.2574911
0.2575547
0.2576191
0.2576845
0.257751
0.2578188
0.2578881
0.2579592
0.2580323
0.258108
0.2581866
0.2582688
0.2583553
0.2584473
0.2585459
0.2586529
0.2587706
0.2589019
0.2590509
0.2592226
0.2594232
0.259659
0.2599321
0.2602273
0.2604789
0.04349579
0.06072226
0.07044944
0.1038859
0.1242266
0.1522897
0.1559451
0.1585815
0.1600236
0.1608869
0.1616897
0.1614629
0.1620294
0.1630685
0.1643736
0.1658128
0.1790992
0.1802223
0.1814697
0.1827509
0.1839778
0.1851428
0.1862947
0.1874529
0.1886118
0.1897856
0.1909888
0.1922287
0.1935024
0.1947975
0.1960954
0.1973745
0.1986126
0.1997874
0.2008871
0.2019161
0.2028913
0.2038344
0.2047642
0.2056952
0.206647
0.2077027
0.2087681
0.2097769
0.2107374
0.2116611
0.2125605
0.2134459
0.214324
0.2151983
0.2160687
0.2169317
0.2177826
0.2186192
0.2194453
0.2202698
0.2211049
0.2219649
0.2228689
0.2238172
0.2247769
0.2257281
0.2266596
0.2275672
0.2284526
0.2293207
0.2301776
0.2310276
0.2318729
0.2327133
0.2335461
0.2343681
0.2351776
0.2359754
0.2367658
0.2375547
0.2383497
0.2391613
0.2400065
0.2408766
0.2417626
0.2426551
0.2435476
0.2444358
0.2453178
0.2461928
0.2470613
0.2479236
0.2487801
0.2496304
0.2504741
0.2513117
0.2521449
0.2529769
0.2538121
0.2546551
0.2555092
0.2563736
0.2572404
0.2581009
0.2589488
0.2597802
0.2605939
0.2613909
0.2621729
0.262942
0.2637
0.2644477
0.265185
0.2659119
0.2666287
0.2673368
0.2680385
0.2687373
0.2694372
0.2701429
0.2708597
0.271589
0.2723292
0.2730767
0.2738268
0.274575
0.2753172
0.2760504
0.2767728
0.2774834
0.2781819
0.2788686
0.2795441
0.2802093
0.2808652
0.281513
0.2821532
0.2827853
0.2834061
0.2840089
0.284583
0.2851217
0.2856224
0.286082
0.2864974
0.2868687
0.2871994
0.2874946
0.2877604
0.2880021
0.2882248
0.2884319
0.2886257
0.2888065
0.2889736
0.289125
0.2892583
0.2893721
0.2894657
0.2895398
0.2895955
0.2896344
0.2896573
0.2896611
0.2896352
0.2895575
0.2894208
0.2892235
0.288977
0.2887131
0.2884562
0.2882138
0.2879844
0.2877639
0.2875467
0.287327
0.2870994
0.2868597
0.2866059
0.2863386
0.2860616
0.2857813
0.2855055
0.2852425
0.2849989
0.2847789
0.284584
0.284413
0.284263
0.2841301
0.2840104
0.2839004
0.2837974
0.2836994
0.2836051
0.2835135
0.2834242
0.2833367
0.2832507
0.2831661
0.2830825
0.2829999
0.282918
0.2828367
0.2827559
0.2826755
0.2825954
0.2825155
0.2824357
0.2823561
0.2822765
0.2821969
0.2821174
0.2820381
0.2819589
0.2818802
0.2818021
0.2817248
0.2816484
0.2815727
0.2814974
0.2814211
0.2813416
0.2812558
0.2811605
0.2810522
0.280928
0.2807855
0.2806238
0.2804411
0.2802382
0.2800158
0.2797754
0.2795204
0.2792534
0.278979
0.2787022
0.2784285
0.2781635
0.2779123
0.277679
0.2774661
0.2772747
0.2771042
0.276953
0.2768186
0.2766982
0.276589
0.2764884
0.2763941
0.2763044
0.2762176
0.2761328
0.2760491
0.2759661
0.2758833
0.2758005
0.2757176
0.2756344
0.2755509
0.2754671
0.275383
0.2752986
0.2752141
0.2751294
0.2750445
0.2749589
0.2748701
0.2747711
0.2746502
0.2745154
0.2743737
0.2742267
0.2740739
0.2739127
0.2737397
0.2735516
0.2733455
0.2731194
0.2728729
0.272607
0.2723242
0.2720283
0.2717237
0.2714164
0.2711117
0.2708153
0.270533
0.2702698
0.2700297
0.2698153
0.2696275
0.2694659
0.2693285
0.2692131
0.2691166
0.2690362
0.2689698
0.2689162
0.2688752
0.2688477
0.2688361
0.2688439
0.2688749
0.26893
0.2690024
0.2690907
0.2691933
0.2693086
0.2694347
0.2695702
0.2697139
0.2698645
0.270021
0.2701824
0.2703476
0.2705155
0.2706844
0.2708534
0.271021
0.2711847
0.2713434
0.2714955
0.2716399
0.2717761
0.2719038
0.2720234
0.2721354
0.2722408
0.2723402
0.2724358
0.2725271
0.2726153
0.2727009
0.2727844
0.2728663
0.2729474
0.2730297
0.2731169
0.2732104
0.27331
0.2734141
0.273521
0.2736294
0.2737396
0.2738533
0.2739738
0.2741051
0.2742519
0.2744185
0.2746082
0.2748229
0.275063
0.2753269
0.2756114
0.2759116
0.276222
0.2765361
0.2768474
0.2771499
0.2774383
0.2777085
0.277958
0.2781853
0.2783906
0.278575
0.2787402
0.2788887
0.2790229
0.2791453
0.2792583
0.2793637
0.2794633
0.2795582
0.2796494
0.2797377
0.2798235
0.279907
0.2799884
0.2800675
0.2801444
0.2802187
0.2802901
0.2803582
0.2804227
0.2804837
0.2805412
0.2805957
0.2806473
0.2806964
0.2807431
0.2807875
0.2808293
0.2808686
0.2809054
0.2809405
0.2809748
0.2810104
0.2810501
0.2810976
0.2811566
0.2812313
0.281325
0.2814404
0.2815788
0.2817403
0.2819239
0.2821269
0.2823459
0.2825763
0.2828128
0.2830501
0.2832827
0.2835055
0.2837145
0.2839066
0.2840801
0.2842345
0.2843706
0.2844897
0.2845939
0.2846855
0.2847667
0.2848398
0.2849064
0.2849684
0.2850268
0.2850827
0.2851367
0.2851895
0.2852413
0.2852925
0.2853432
0.2853935
0.2854435
0.2854933
0.2855428
0.2855922
0.2856415
0.2856906
0.2857396
0.2857885
0.2858374
0.2858863
0.2859351
0.285984
0.2860329
0.2860819
0.286131
0.2861803
0.2862299
0.2862798
0.28633
0.2863807
0.286432
0.2864839
0.2865367
0.2865904
0.2866452
0.2867012
0.2867588
0.2868181
0.2868795
0.2869433
0.2870101
0.2870805
0.2871551
0.2872351
0.2873216
0.2874162
0.2875208
0.2876379
0.2877704
0.2879215
0.288094
0.288288
0.2884938
0.2886711
0.03535912
0.05162413
0.06903762
0.125462
0.1628094
0.2113782
0.2276191
0.2410368
0.2502174
0.2544539
0.254656
0.2532748
0.2503959
0.2463781
0.2417362
0.2484418
0.243526
0.2388212
0.2345141
0.2306994
0.2274384
0.2247403
0.2226083
0.2210295
0.219978
0.2194824
0.2193546
0.219529
0.2199385
0.2205104
0.2211781
0.2219106
0.2227157
0.2236168
0.2246545
0.2257912
0.2269903
0.2282296
0.2294923
0.2307628
0.2320257
0.2332654
0.2344668
0.2356176
0.23671
0.2377436
0.2387246
0.2396638
0.2405735
0.2414663
0.2423557
0.2432621
0.24418
0.2450932
0.2459916
0.24687
0.2477273
0.2485643
0.2493833
0.2501872
0.2509787
0.25176
0.2525326
0.2532987
0.2540614
0.2548254
0.2555965
0.2563802
0.2571802
0.2579928
0.2588098
0.2596232
0.2604272
0.2612178
0.2619931
0.2627532
0.2634996
0.2642341
0.2649583
0.265673
0.2663784
0.2670743
0.2677609
0.2684394
0.269112
0.2697822
0.2704541
0.271133
0.271825
0.2725318
0.2732523
0.2739833
0.2747197
0.2754575
0.2761918
0.2769199
0.2776401
0.2783516
0.2790545
0.2797494
0.2804371
0.2811188
0.2817961
0.2824706
0.2831444
0.2838187
0.2844943
0.2851699
0.2858427
0.2865099
0.2871685
0.2878166
0.2884528
0.2890766
0.2896882
0.2902881
0.290877
0.2914554
0.2920237
0.2925827
0.293133
0.2936761
0.2942136
0.2947477
0.2952809
0.2958159
0.2963549
0.2968997
0.2974503
0.2980053
0.2985624
0.2991185
0.2996704
0.3002152
0.300751
0.3012763
0.3017906
0.3022941
0.3027872
0.3032708
0.3037455
0.304212
0.3046704
0.3051201
0.3055595
0.3059853
0.3063934
0.3067804
0.3071443
0.3074835
0.3077965
0.3080826
0.3083428
0.3085792
0.3087943
0.3089909
0.3091717
0.3093391
0.3094947
0.3096391
0.3097721
0.3098925
0.3099988
0.3100895
0.3101637
0.3102211
0.3102625
0.3102884
0.3102997
0.3102951
0.3102664
0.3102077
0.310116
0.3099915
0.3098395
0.3096729
0.309504
0.3093389
0.3091788
0.3090226
0.3088675
0.30871
0.3085466
0.3083742
0.3081912
0.3079978
0.3077966
0.3075918
0.3073892
0.3071945
0.3070128
0.3068475
0.3067001
0.3065704
0.3064564
0.3063559
0.3062659
0.3061839
0.3061078
0.3060358
0.3059668
0.3058999
0.3058347
0.3057707
0.3057078
0.3056456
0.3055842
0.3055234
0.3054631
0.3054032
0.3053436
0.3052842
0.3052251
0.3051662
0.3051073
0.3050486
0.3049898
0.3049311
0.3048725
0.3048139
0.3047555
0.3046973
0.3046394
0.3045819
0.3045249
0.3044681
0.3044113
0.304354
0.3042948
0.3042323
0.3041645
0.3040891
0.3040039
0.3039068
0.3037959
0.303671
0.30353
0.3033735
0.3032023
0.3030179
0.3028229
0.3026204
0.3024143
0.3022089
0.3020087
0.3018178
0.3016396
0.3014762
0.3013287
0.3011971
0.3010802
0.3009764
0.3008835
0.3007996
0.3007225
0.3006506
0.3005823
0.3005166
0.3004525
0.3003893
0.3003267
0.3002644
0.3002021
0.3001397
0.3000771
0.3000143
0.2999513
0.2998881
0.2998247
0.2997611
0.2996975
0.2996337
0.2995697
0.2995046
0.2994361
0.299361
0.2992784
0.299189
0.2990932
0.2989909
0.2988814
0.2987631
0.2986338
0.2984917
0.2983351
0.2981631
0.2979758
0.2977745
0.2975616
0.2973402
0.2971143
0.2968884
0.2966669
0.2964545
0.2962554
0.2960728
0.2959091
0.2957654
0.2956416
0.2955366
0.2954487
0.2953759
0.2953162
0.2952681
0.2952306
0.2952033
0.2951867
0.295182
0.2951911
0.2952158
0.2952565
0.2953081
0.29537
0.2954416
0.295522
0.2956104
0.295706
0.2958082
0.2959162
0.2960294
0.296147
0.2962684
0.2963927
0.2965187
0.2966455
0.2967715
0.2968959
0.297017
0.2971336
0.297245
0.2973504
0.2974498
0.2975431
0.2976307
0.2977131
0.2977913
0.2978657
0.2979369
0.2980055
0.298072
0.2981367
0.2981999
0.2982621
0.298324
0.2983869
0.2984517
0.2985191
0.2985893
0.2986617
0.2987359
0.2988116
0.2988897
0.2989716
0.2990598
0.2991574
0.2992675
0.2993931
0.2995363
0.2996982
0.2998784
0.3000753
0.300286
0.3005066
0.3007324
0.3009587
0.3011806
0.301394
0.3015954
0.3017825
0.3019539
0.3021093
0.3022493
0.302375
0.3024881
0.3025903
0.3026834
0.3027692
0.3028491
0.3029244
0.302996
0.3030648
0.3031312
0.3031956
0.3032582
0.3033192
0.3033786
0.3034363
0.3034922
0.3035461
0.3035979
0.3036474
0.3036946
0.3037394
0.3037821
0.3038228
0.3038615
0.3038984
0.3039335
0.3039669
0.3039986
0.3040287
0.3040577
0.3040861
0.3041151
0.3041462
0.3041813
0.304223
0.3042737
0.3043362
0.3044125
0.3045042
0.3046123
0.3047364
0.3048755
0.3050274
0.3051892
0.3053572
0.3055274
0.3056956
0.305858
0.3060112
0.3061529
0.3062815
0.3063963
0.3064978
0.3065868
0.3066646
0.3067329
0.3067934
0.3068476
0.3068969
0.3069426
0.3069855
0.3070264
0.3070658
0.3071043
0.307142
0.3071792
0.3072159
0.3072524
0.3072886
0.3073246
0.3073605
0.3073962
0.3074318
0.3074673
0.3075028
0.3075381
0.3075734
0.3076087
0.3076439
0.3076792
0.3077145
0.3077499
0.3077854
0.307821
0.3078568
0.3078928
0.3079291
0.3079657
0.3080028
0.3080403
0.3080785
0.3081174
0.308157
0.3081976
0.3082394
0.3082824
0.3083269
0.3083732
0.3084216
0.3084726
0.3085266
0.3085843
0.3086465
0.308714
0.3087881
0.3088701
0.3089615
0.3090639
0.3091785
0.3093049
0.3094373
0.3095514
0.01195672
0.05902694
0.0922372
0.1215239
0.1465583
0.169059
0.1919529
0.2143158
0.235653
0.2558167
0.2815849
0.2936819
0.3025754
0.307627
0.3091947
0.3085574
0.3064524
0.303191
0.2991407
0.294498
0.2888623
0.2836103
0.2786789
0.2740926
0.2699235
0.26624
0.2630863
0.2604829
0.2584274
0.2568997
0.2558715
0.255276
0.2550446
0.2551077
0.2553976
0.255854
0.2564369
0.2571294
0.2579277
0.2588275
0.2598102
0.2608535
0.2619361
0.2630395
0.2641477
0.2652456
0.2663207
0.2673619
0.2683605
0.2693116
0.2702137
0.2710696
0.2718851
0.2726679
0.2734264
0.2741696
0.2749062
0.2756404
0.2763711
0.2770945
0.2778066
0.2785042
0.2791855
0.27985
0.280499
0.2811343
0.2817586
0.2823744
0.2829844
0.2835914
0.284198
0.2848069
0.2854199
0.2860374
0.286658
0.287279
0.2878976
0.2885111
0.2891171
0.2897139
0.2903005
0.2908767
0.2914426
0.2919985
0.2925449
0.2930822
0.2936109
0.2941319
0.2946464
0.295156
0.2956631
0.2961701
0.2966799
0.2971952
0.2977179
0.2982484
0.2987856
0.2993272
0.2998709
0.3004124
0.3009496
0.3014803
0.3020034
0.3025184
0.3030254
0.3035252
0.3040187
0.3045069
0.3049909
0.3054718
0.3059501
0.3064261
0.3068993
0.3073689
0.307834
0.3082935
0.3087463
0.3091919
0.3096295
0.310059
0.31048
0.3108926
0.3112969
0.3116932
0.3120819
0.3124637
0.3128397
0.313211
0.3135792
0.3139458
0.3143122
0.3146798
0.3150493
0.315421
0.3157944
0.3161683
0.316541
0.3169106
0.3172752
0.3176332
0.3179835
0.3183254
0.3186587
0.3189838
0.319301
0.3196108
0.3199137
0.32021
0.3204994
0.3207814
0.3210547
0.3213177
0.3215691
0.3218077
0.3220328
0.3222434
0.3224391
0.3226199
0.3227865
0.3229397
0.3230806
0.3232106
0.3233307
0.3234419
0.3235447
0.323639
0.3237244
0.3238
0.3238647
0.3239178
0.3239589
0.3239881
0.3240058
0.3240124
0.3240069
0.3239857
0.3239476
0.3238919
0.3238193
0.3237321
0.3236354
0.3235347
0.3234333
0.3233326
0.3232326
0.323132
0.3230292
0.3229221
0.322809
0.3226887
0.3225615
0.3224289
0.3222935
0.3221588
0.3220287
0.3219064
0.3217944
0.3216939
0.321605
0.3215269
0.321458
0.3213968
0.3213414
0.3212904
0.3212425
0.3211968
0.3211526
0.3211096
0.3210674
0.3210258
0.3209847
0.320944
0.3209036
0.3208635
0.3208236
0.3207839
0.3207444
0.3207051
0.3206658
0.3206266
0.3205875
0.3205484
0.3205093
0.3204703
0.3204313
0.3203924
0.3203536
0.3203149
0.3202765
0.3202382
0.3202001
0.3201619
0.3201234
0.3200839