/*--------------------------------*- C++ -*----------------------------------*\
| =========                 |                                                 |
| \\      /  F ield         | foam-extend: Open Source CFD                    |
|  \\    /   O peration     | Version:     3.1                                |
|   \\  /    A nd           | Web:         http://www.extend-project.de       |
|    \\/     M anipulation  |                                                 |
\*---------------------------------------------------------------------------*/
FoamFile
{
    version     2.0;
    format      ascii;
    class       volScalarField;
    location    "0.5";
    object      pd;
}
// * * * * * * * * * * * * * * * * * * * * * * * * * * * * * * * * * * * * * //

dimensions      [1 -1 -2 0 0 0 0];

internalField   nonuniform List<scalar> 
119952
(
7414.123
7310.791
7282.472
7296.503
7318.95
7305.99
7303.276
7301.548
7300.65
7300.231
7300.122
7300.229
7300.485
7300.839
7301.242
7301.633
7301.906
7301.769
7300.054
7290.658
7324.721
7303.718
7294.411
7336.19
7329.098
7333.035
7335.493
7348.323
7400.437
7398.319
7189.247
7189.32
7191.702
7194.509
7197.152
7199.831
7202.477
7205.094
7207.611
7208.917
7210.542
7213.778
7216.381
7218.701
7221.088
7223.538
7226.004
7228.44
7230.752
7236.486
7237.189
7239.172
7241.305
7243.663
7246.04
7248.439
7250.87
7253.361
7256.339
7258.256
7260.892
7263.429
7266.013
7268.627
7271.239
7273.792
7276.492
7282.497
7300.436
7289.039
7290.007
7296.21
7300.961
7300.795
7300.067
7299.585
7299.28
7299.203
7299.323
7299.594
7299.971
7300.416
7300.888
7301.342
7301.711
7301.897
7301.808
7301.644
7304.158
7305.798
7305.08
7312.883
7324.369
7327.328
7332.088
7336.979
7336.586
7311.717
7308.312
7311.089
7313.589
7315.848
7317.794
7319.518
7321.076
7322.509
7323.848
7325.117
7326.328
7327.494
7328.618
7329.705
7330.752
7331.761
7332.736
7333.689
7334.623
7335.538
7336.437
7337.318
7338.181
7339.023
7339.845
7340.646
7341.427
7342.19
7342.936
7343.662
7344.372
7345.064
7345.741
7346.4
7347.043
7347.669
7348.278
7348.87
7349.444
7350.009
7350.548
7351.069
7351.571
7352.06
7352.513
7352.943
7353.309
7353.617
7354.041
7354.587
7355
7355.5
7355.947
7356.373
7356.767
7357.137
7357.479
7357.82
7358.148
7358.448
7358.732
7359.002
7359.257
7359.498
7359.724
7359.936
7360.135
7360.324
7360.505
7360.669
7360.818
7360.952
7361.073
7361.181
7361.277
7361.362
7361.434
7361.496
7361.547
7361.585
7361.612
7361.625
7361.627
7361.615
7361.591
7361.554
7361.504
7361.44
7361.363
7361.272
7361.166
7361.045
7360.906
7360.748
7360.566
7360.349
7360.111
7359.794
7359.679
7360.649
7359.284
7359.353
7359.308
7359.181
7359.008
7358.804
7358.542
7358.27
7358.013
7357.728
7357.423
7357.102
7356.765
7356.412
7356.043
7355.657
7355.255
7354.837
7354.403
7353.952
7353.489
7352.978
7352.457
7351.912
7351.339
7350.734
7350.091
7349.402
7348.653
7347.82
7346.86
7345.755
7344.18
7341.627
7337.4
7339.484
7340.762
7341.585
7342.145
7342.559
7342.806
7342.97
7343.068
7343.112
7343.113
7343.078
7343.013
7342.924
7342.814
7342.687
7342.544
7342.387
7342.22
7342.043
7341.859
7341.667
7341.47
7341.268
7341.061
7340.852
7340.641
7340.429
7340.219
7340.011
7339.807
7339.608
7339.415
7339.171
7338.98
7344.844
7340.519
7338.821
7338.31
7337.879
7337.545
7337.291
7337.053
7336.823
7336.603
7336.392
7336.188
7335.99
7335.798
7335.612
7335.431
7335.256
7335.087
7334.922
7334.761
7334.606
7334.455
7334.309
7334.169
7334.034
7333.905
7333.78
7333.661
7333.547
7333.439
7333.336
7333.239
7333.148
7333.064
7332.987
7332.918
7332.857
7332.806
7332.767
7332.742
7332.736
7332.769
7332.823
7332.949
7333.211
7333.459
7333.138
7332.774
7332.487
7332.239
7332.023
7331.83
7331.645
7331.44
7330.114
7330.736
7330.729
7330.53
7330.329
7330.125
7329.937
7329.759
7329.588
7329.42
7329.257
7329.094
7328.931
7328.768
7328.605
7328.441
7328.276
7328.108
7327.936
7327.761
7327.582
7327.4
7327.215
7327.026
7326.833
7326.636
7326.433
7326.224
7326.009
7325.788
7325.561
7325.328
7325.088
7324.841
7324.588
7324.327
7324.059
7323.784
7323.501
7323.21
7322.911
7322.603
7322.287
7321.962
7321.628
7321.284
7320.932
7320.569
7320.196
7319.813
7319.419
7319.014
7318.598
7318.171
7317.732
7317.28
7316.815
7316.337
7315.845
7315.338
7314.815
7314.276
7313.72
7313.145
7312.551
7311.934
7311.294
7310.628
7309.933
7309.205
7308.441
7307.633
7306.776
7305.858
7304.867
7303.784
7302.58
7301.211
7299.602
7297.619
7295.007
7291.318
7286.352
7284.801
7306.45
7053.173
7058.197
7062.594
7067.088
7071.537
7075.953
7080.315
7084.591
7088.62
7090.806
7095.543
7099.898
7103.679
7107.514
7111.368
7115.201
7118.979
7122.633
7129.067
7132.225
7134.679
7137.805
7141.099
7144.382
7147.627
7150.837
7154.006
7157.349
7160.438
7163.26
7166.287
7169.208
7172.102
7174.972
7177.821
7180.651
7183.584
7186.675
7188.41
7191.284
7194.077
7196.754
7199.347
7201.915
7204.474
7207.046
7209.672
7212.146
7214.611
7217.007
7219.39
7221.803
7224.229
7226.669
7229.135
7231.714
7234.397
7236.85
7239.286
7241.699
7244.107
7246.538
7248.998
7251.491
7254.02
7256.607
7259.169
7261.684
7264.245
7266.884
7269.621
7272.499
7275.645
7279.35
7283.808
7288.523
7289.71
7290.888
7293.621
7296.089
7297.171
7297.424
7297.542
7297.733
7298.039
7298.442
7298.912
7299.43
7299.995
7300.588
7301.189
7301.793
7302.417
7303.156
7304.247
7306.038
7308.276
7310.921
7315.296
7320.457
7323.846
7325.753
7326.022
7323.436
7317.629
7314.613
7314.891
7316.217
7317.649
7319.053
7320.425
7321.753
7323.028
7324.258
7325.448
7326.604
7327.728
7328.821
7329.881
7330.908
7331.904
7332.87
7333.814
7334.739
7335.647
7336.539
7337.415
7338.275
7339.116
7339.938
7340.74
7341.523
7342.288
7343.033
7343.761
7344.472
7345.165
7345.84
7346.498
7347.139
7347.763
7348.37
7348.959
7349.531
7350.086
7350.622
7351.14
7351.64
7352.12
7352.577
7353.012
7353.431
7353.852
7354.303
7354.751
7355.131
7355.55
7355.98
7356.393
7356.782
7357.151
7357.501
7357.832
7358.149
7358.451
7358.738
7359.009
7359.266
7359.508
7359.736
7359.952
7360.158
7360.352
7360.534
7360.703
7360.857
7360.996
7361.121
7361.232
7361.331
7361.417
7361.491
7361.554
7361.605
7361.644
7361.672
7361.687
7361.689
7361.68
7361.657
7361.623
7361.575
7361.514
7361.44
7361.353
7361.251
7361.134
7361.002
7360.854
7360.691
7360.504
7360.295
7360.076
7359.919
7359.84
7359.554
7359.379
7359.216
7359.028
7358.824
7358.597
7358.351
7358.09
7357.815
7357.522
7357.212
7356.886
7356.545
7356.187
7355.814
7355.425
7355.022
7354.605
7354.171
7353.717
7353.239
7352.739
7352.212
7351.657
7351.072
7350.453
7349.794
7349.087
7348.319
7347.47
7346.512
7345.398
7344.069
7342.558
7341.311
7341.475
7342.042
7342.505
7342.855
7343.1
7343.262
7343.359
7343.402
7343.403
7343.367
7343.301
7343.209
7343.096
7342.965
7342.817
7342.656
7342.484
7342.303
7342.115
7341.922
7341.725
7341.524
7341.32
7341.113
7340.903
7340.693
7340.482
7340.271
7340.064
7339.859
7339.661
7339.474
7339.317
7339.252
7339.344
7339.089
7338.444
7338.004
7337.734
7337.485
7337.231
7336.986
7336.755
7336.535
7336.322
7336.116
7335.916
7335.723
7335.536
7335.355
7335.18
7335.011
7334.847
7334.687
7334.532
7334.383
7334.239
7334.1
7333.967
7333.839
7333.717
7333.6
7333.489
7333.384
7333.285
7333.191
7333.104
7333.024
7332.951
7332.886
7332.829
7332.782
7332.746
7332.724
7332.718
7332.729
7332.762
7332.814
7332.856
7332.834
7332.676
7332.458
7332.246
7332.051
7331.875
7331.721
7331.604
7331.532
7331.297
7330.986
7330.738
7330.527
7330.329
7330.139
7329.956
7329.78
7329.608
7329.437
7329.268
7329.099
7328.93
7328.762
7328.593
7328.422
7328.251
7328.076
7327.898
7327.717
7327.532
7327.344
7327.153
7326.959
7326.761
7326.559
7326.352
7326.139
7325.922
7325.698
7325.468
7325.232
7324.989
7324.74
7324.483
7324.22
7323.949
7323.671
7323.384
7323.09
7322.788
7322.477
7322.157
7321.828
7321.491
7321.143
7320.786
7320.42
7320.043
7319.655
7319.257
7318.848
7318.427
7317.995
7317.55
7317.093
7316.622
7316.138
7315.64
7315.127
7314.598
7314.052
7313.488
7312.905
7312.302
7311.676
7311.027
7310.35
7309.644
7308.904
7308.127
7307.305
7306.434
7305.502
7304.499
7303.409
7302.213
7300.885
7299.398
7297.736
7295.946
7294.263
7293.499
7294.136
7297.343
6940.87
6935.2
6932.973
6931.543
6930.909
6930.911
6931.446
6932.445
6933.791
6934.38
6935.807
6938.962
6941.54
6944.391
6947.529
6950.925
6954.523
6958.259
6962.053
6969.248
6971.86
6975.653
6979.823
6984.162
6988.585
6993.081
6997.631
7002.238
7007.378
7011.521
7016.242
7020.861
7025.495
7030.132
7034.773
7039.409
7044.061
7048.994
7052.941
7057.24
7061.914
7066.415
7070.794
7075.113
7079.392
7083.643
7087.897
7092.135
7096.149
7100.138
7104.019
7107.888
7111.725
7115.526
7119.3
7123.107
7127.371
7130.92
7134.488
7137.947
7141.325
7144.657
7147.952
7151.213
7154.443
7157.647
7160.813
7163.836
7166.78
7169.698
7172.605
7175.491
7178.352
7181.194
7184.024
7186.8
7189.422
7192.044
7194.684
7197.31
7199.912
7202.495
7205.065
7207.626
7210.179
7212.681
7215.124
7217.55
7219.974
7222.401
7224.83
7227.263
7229.694
7232.132
7234.509
7236.88
7239.257
7241.671
7244.098
7246.541
7249.004
7251.488
7253.995
7256.53
7259.06
7261.595
7264.177
7266.832
7269.579
7272.457
7275.521
7278.832
7282.327
7285.729
7287.763
7289.46
7291.608
7293.601
7294.849
7295.551
7296.091
7296.62
7297.166
7297.738
7298.346
7299
7299.685
7300.4
7301.148
7301.944
7302.823
7303.865
7305.194
7306.968
7309.143
7311.673
7314.905
7318.328
7320.734
7322.032
7322.137
7320.786
7318.019
7316.432
7316.582
7317.497
7318.582
7319.725
7320.908
7322.101
7323.283
7324.444
7325.584
7326.701
7327.795
7328.863
7329.905
7330.92
7331.909
7332.874
7333.816
7334.74
7335.647
7336.537
7337.41
7338.266
7339.105
7339.925
7340.728
7341.511
7342.277
7343.024
7343.753
7344.464
7345.158
7345.834
7346.494
7347.135
7347.76
7348.367
7348.958
7349.53
7350.086
7350.624
7351.144
7351.646
7352.131
7352.596
7353.046
7353.484
7353.916
7354.353
7354.787
7355.198
7355.609
7356.018
7356.413
7356.79
7357.151
7357.494
7357.823
7358.137
7358.437
7358.722
7358.992
7359.248
7359.491
7359.72
7359.937
7360.143
7360.337
7360.518
7360.686
7360.841
7360.981
7361.107
7361.22
7361.319
7361.406
7361.481
7361.544
7361.595
7361.633
7361.66
7361.674
7361.676
7361.666
7361.643
7361.607
7361.559
7361.498
7361.423
7361.335
7361.233
7361.117
7360.986
7360.841
7360.68
7360.505
7360.317
7360.121
7359.937
7359.748
7359.574
7359.386
7359.191
7358.984
7358.763
7358.524
7358.27
7358.001
7357.718
7357.418
7357.104
7356.773
7356.428
7356.067
7355.691
7355.3
7354.894
7354.471
7354.031
7353.572
7353.091
7352.588
7352.058
7351.502
7350.916
7350.298
7349.642
7348.943
7348.195
7347.389
7346.519
7345.593
7344.646
7343.783
7343.196
7343.054
7343.169
7343.337
7343.478
7343.578
7343.636
7343.655
7343.64
7343.594
7343.521
7343.425
7343.308
7343.174
7343.025
7342.863
7342.69
7342.507
7342.317
7342.122
7341.922
7341.718
7341.511
7341.302
7341.09
7340.877
7340.664
7340.45
7340.238
7340.027
7339.82
7339.617
7339.421
7339.229
7339.035
7338.784
7338.378
7338.05
7337.858
7337.671
7337.463
7337.241
7337.019
7336.8
7336.585
7336.374
7336.168
7335.967
7335.772
7335.583
7335.399
7335.221
7335.049
7334.882
7334.72
7334.563
7334.412
7334.265
7334.125
7333.99
7333.86
7333.736
7333.618
7333.506
7333.399
7333.299
7333.204
7333.116
7333.034
7332.96
7332.892
7332.833
7332.783
7332.742
7332.711
7332.692
7332.683
7332.682
7332.681
7332.664
7332.604
7332.475
7332.302
7332.124
7331.954
7331.794
7331.645
7331.507
7331.36
7331.184
7330.964
7330.736
7330.524
7330.328
7330.143
7329.965
7329.793
7329.623
7329.454
7329.286
7329.118
7328.95
7328.781
7328.611
7328.44
7328.267
7328.092
7327.913
7327.731
7327.546
7327.358
7327.166
7326.971
7326.772
7326.569
7326.361
7326.149
7325.93
7325.706
7325.476
7325.24
7324.998
7324.748
7324.492
7324.229
7323.958
7323.68
7323.393
7323.099
7322.797
7322.486
7322.166
7321.838
7321.5
7321.153
7320.796
7320.43
7320.053
7319.666
7319.268
7318.858
7318.438
7318.006
7317.561
7317.104
7316.634
7316.15
7315.653
7315.14
7314.612
7314.068
7313.506
7312.925
7312.324
7311.702
7311.057
7310.385
7309.686
7308.955
7308.189
7307.383
7306.532
7305.628
7304.665
7303.634
7302.526
7301.335
7300.067
7298.752
7297.482
7296.43
7295.935
7296.222
7297.204
6938.42
6936.047
6931.068
6929.125
6927.353
6928.737
6930.158
6933.774
6940.124
6946.154
6942.811
6938.13
6934.523
6931.11
6929.526
6928.613
6928.252
6928.428
6929.099
6930.222
6931.77
6933.73
6935.988
6938.452
6941.143
6944.099
6947.298
6950.709
6954.312
6958.111
6962.162
6966.571
6970.903
6975.288
6979.623
6984.025
6988.516
6993.079
6997.7
7002.376
7007.119
7011.819
7016.457
7021.092
7025.753
7030.425
7035.096
7039.762
7044.421
7049.077
7053.609
7058.056
7062.514
7066.956
7071.356
7075.71
7080.022
7084.294
7088.524
7092.705
7096.774
7100.769
7104.713
7108.613
7112.468
7116.276
7120.03
7123.729
7127.28
7130.831
7134.312
7137.748
7141.151
7144.515
7147.834
7151.109
7154.339
7157.527
7160.656
7163.696
7166.681
7169.634
7172.559
7175.455
7178.319
7181.15
7183.946
7186.695
7189.355
7191.995
7194.64
7197.271
7199.877
7202.462
7205.029
7207.578
7210.108
7212.604
7215.064
7217.505
7219.937
7222.365
7224.791
7227.214
7229.632
7232.047
7234.439
7236.808
7239.191
7241.598
7244.018
7246.449
7248.894
7251.355
7253.834
7256.331
7258.84
7261.369
7263.935
7266.556
7269.246
7272.021
7274.895
7277.87
7280.882
7283.756
7285.995
7287.93
7289.886
7291.681
7293.058
7294.077
7294.919
7295.692
7296.437
7297.177
7297.931
7298.709
7299.512
7300.348
7301.223
7302.157
7303.184
7304.358
7305.751
7307.417
7309.373
7311.582
7314.064
7316.536
7318.464
7319.643
7320.013
7319.53
7318.367
7317.646
7317.773
7318.427
7319.301
7320.289
7321.351
7322.452
7323.564
7324.674
7325.774
7326.859
7327.928
7328.976
7330.004
7331.009
7331.991
7332.952
7333.893
7334.815
7335.72
7336.608
7337.478
7338.332
7339.168
7339.986
7340.786
7341.568
7342.332
7343.078
7343.807
7344.518
7345.211
7345.887
7346.545
7347.187
7347.811
7348.419
7349.009
7349.582
7350.138
7350.677
7351.199
7351.704
7352.192
7352.664
7353.122
7353.567
7354.004
7354.438
7354.867
7355.282
7355.687
7356.086
7356.472
7356.844
7357.2
7357.541
7357.869
7358.181
7358.479
7358.762
7359.032
7359.287
7359.529
7359.759
7359.975
7360.179
7360.371
7360.551
7360.717
7360.87
7361.009
7361.135
7361.248
7361.348
7361.435
7361.51
7361.572
7361.623
7361.661
7361.688
7361.702
7361.704
7361.693
7361.67
7361.634
7361.586
7361.525
7361.451
7361.363
7361.263
7361.149
7361.021
7360.88
7360.725
7360.558
7360.381
7360.196
7360.011
7359.829
7359.639
7359.443
7359.239
7359.025
7358.796
7358.553
7358.296
7358.024
7357.737
7357.437
7357.121
7356.791
7356.445
7356.085
7355.711
7355.321
7354.915
7354.494
7354.055
7353.598
7353.12
7352.621
7352.099
7351.552
7350.978
7350.375
7349.741
7349.073
7348.37
7347.63
7346.86
7346.076
7345.317
7344.651
7344.17
7343.942
7343.892
7343.907
7343.928
7343.936
7343.926
7343.893
7343.837
7343.759
7343.661
7343.544
7343.411
7343.264
7343.103
7342.932
7342.75
7342.561
7342.365
7342.164
7341.959
7341.75
7341.539
7341.325
7341.11
7340.893
7340.676
7340.459
7340.243
7340.028
7339.815
7339.603
7339.392
7339.177
7338.95
7338.683
7338.387
7338.127
7337.901
7337.683
7337.461
7337.236
7337.014
7336.795
7336.58
7336.369
7336.164
7335.964
7335.769
7335.58
7335.397
7335.218
7335.046
7334.878
7334.716
7334.559
7334.407
7334.26
7334.119
7333.984
7333.854
7333.729
7333.611
7333.497
7333.39
7333.288
7333.192
7333.103
7333.019
7332.942
7332.872
7332.809
7332.753
7332.705
7332.665
7332.631
7332.604
7332.578
7332.548
7332.503
7332.429
7332.315
7332.172
7332.019
7331.866
7331.715
7331.567
7331.422
7331.274
7331.112
7330.917
7330.708
7330.509
7330.321
7330.141
7329.967
7329.796
7329.628
7329.461
7329.294
7329.128
7328.961
7328.794
7328.626
7328.456
7328.284
7328.109
7327.932
7327.752
7327.568
7327.381
7327.191
7326.997
7326.799
7326.596
7326.389
7326.177
7325.959
7325.736
7325.507
7325.272
7325.03
7324.781
7324.526
7324.263
7323.993
7323.716
7323.43
7323.137
7322.835
7322.525
7322.207
7321.879
7321.542
7321.196
7320.841
7320.475
7320.099
7319.713
7319.316
7318.908
7318.489
7318.059
7317.616
7317.161
7316.693
7316.212
7315.716
7315.207
7314.682
7314.142
7313.584
7313.009
7312.415
7311.8
7311.164
7310.504
7309.818
7309.103
7308.358
7307.578
7306.761
7305.901
7304.996
7304.043
7303.041
7301.996
7300.925
7299.863
7298.88
7298.077
7297.605
7297.57
7297.812
6891.714
6926.185
6945.114
6953.783
6957.387
6953.584
6953.428
6948.438
6943.852
6939.074
6934.754
6930.073
6927.266
6925.238
6924.148
6923.911
6923.335
6925.413
6928.076
6930.821
6932.371
6931.475
6929.506
6927.701
6926.312
6925.493
6925.222
6925.437
6926.097
6927.17
6928.629
6930.447
6932.595
6935.018
6937.668
6940.559
6943.685
6947.024
6950.555
6954.258
6958.109
6962.073
6965.986
6970.174
6974.484
6978.859
6983.319
6987.86
6992.463
6997.117
7001.811
7006.541
7011.254
7015.949
7020.649
7025.359
7030.07
7034.771
7039.455
7044.116
7048.75
7053.307
7057.8
7062.285
7066.748
7071.169
7075.543
7079.87
7084.151
7088.38
7092.551
7096.644
7100.669
7104.636
7108.552
7112.418
7116.23
7119.983
7123.675
7127.296
7130.857
7134.358
7137.816
7141.232
7144.6
7147.917
7151.186
7154.406
7157.578
7160.692
7163.745
7166.748
7169.709
7172.635
7175.525
7178.38
7181.198
7183.978
7186.713
7189.394
7192.05
7194.693
7197.315
7199.913
7202.489
7205.045
7207.58
7210.095
7212.584
7215.046
7217.489
7219.919
7222.343
7224.76
7227.172
7229.577
7231.976
7234.359
7236.735
7239.118
7241.513
7243.916
7246.329
7248.753
7251.191
7253.644
7256.112
7258.596
7261.099
7263.63
7266.199
7268.813
7271.476
7274.186
7276.925
7279.639
7282.228
7284.485
7286.485
7288.373
7290.103
7291.57
7292.784
7293.834
7294.793
7295.703
7296.591
7297.476
7298.369
7299.282
7300.223
7301.206
7302.247
7303.374
7304.618
7306.032
7307.612
7309.383
7311.315
7313.336
7315.293
7316.912
7318.034
7318.617
7318.689
7318.395
7318.225
7318.47
7319.062
7319.854
7320.764
7321.751
7322.786
7323.845
7324.911
7325.977
7327.035
7328.081
7329.111
7330.125
7331.12
7332.095
7333.051
7333.989
7334.909
7335.811
7336.696
7337.564
7338.415
7339.249
7340.065
7340.863
7341.644
7342.407
7343.152
7343.879
7344.59
7345.282
7345.958
7346.616
7347.257
7347.881
7348.489
7349.079
7349.653
7350.209
7350.749
7351.273
7351.78
7352.271
7352.747
7353.21
7353.66
7354.1
7354.532
7354.957
7355.37
7355.772
7356.165
7356.546
7356.914
7357.267
7357.606
7357.931
7358.242
7358.538
7358.821
7359.089
7359.344
7359.585
7359.814
7360.03
7360.233
7360.423
7360.601
7360.766
7360.918
7361.056
7361.182
7361.294
7361.394
7361.481
7361.556
7361.618
7361.669
7361.707
7361.733
7361.747
7361.749
7361.738
7361.715
7361.68
7361.632
7361.571
7361.498
7361.412
7361.313
7361.201
7361.076
7360.938
7360.789
7360.627
7360.457
7360.278
7360.094
7359.906
7359.712
7359.512
7359.303
7359.083
7358.851
7358.605
7358.346
7358.073
7357.786
7357.485
7357.17
7356.841
7356.497
7356.138
7355.765
7355.378
7354.974
7354.556
7354.12
7353.667
7353.195
7352.703
7352.19
7351.655
7351.097
7350.516
7349.909
7349.277
7348.622
7347.947
7347.261
7346.582
7345.938
7345.372
7344.931
7344.647
7344.488
7344.393
7344.324
7344.26
7344.192
7344.114
7344.022
7343.915
7343.794
7343.658
7343.509
7343.349
7343.178
7342.997
7342.808
7342.612
7342.41
7342.203
7341.993
7341.779
7341.563
7341.345
7341.125
7340.904
7340.683
7340.462
7340.241
7340.02
7339.801
7339.581
7339.361
7339.137
7338.907
7338.662
7338.405
7338.151
7337.909
7337.676
7337.448
7337.222
7336.999
7336.78
7336.566
7336.356
7336.151
7335.952
7335.757
7335.568
7335.384
7335.206
7335.033
7334.865
7334.702
7334.545
7334.393
7334.246
7334.105
7333.969
7333.838
7333.713
7333.594
7333.48
7333.371
7333.268
7333.171
7333.08
7332.994
7332.915
7332.841
7332.774
7332.713
7332.657
7332.608
7332.562
7332.52
7332.476
7332.428
7332.367
7332.287
7332.182
7332.056
7331.918
7331.777
7331.634
7331.49
7331.344
7331.196
7331.035
7330.857
7330.67
7330.487
7330.309
7330.136
7329.966
7329.798
7329.633
7329.468
7329.304
7329.14
7328.975
7328.809
7328.643
7328.474
7328.304
7328.131
7327.955
7327.776
7327.594
7327.409
7327.22
7327.027
7326.83
7326.629
7326.423
7326.211
7325.995
7325.772
7325.544
7325.31
7325.069
7324.821
7324.567
7324.305
7324.036
7323.76
7323.475
7323.183
7322.883
7322.574
7322.256
7321.93
7321.594
7321.249
7320.894
7320.53
7320.156
7319.771
7319.376
7318.969
7318.552
7318.123
7317.683
7317.23
7316.764
7316.286
7315.794
7315.288
7314.768
7314.232
7313.68
7313.112
7312.525
7311.92
7311.295
7310.648
7309.978
7309.283
7308.562
7307.812
7307.031
7306.219
7305.374
7304.499
7303.596
7302.676
7301.757
7300.871
7300.066
7299.402
7298.949
7298.744
7298.685
6141.434
6159.747
6205.92
6281.437
6371.21
6474.894
6568.688
6653.674
6728.499
6786.395
6829.79
6864.313
6887.734
6905.207
6916.862
6918.334
6925.031
6926.652
6925.732
6924.326
6922.76
6921.233
6920.002
6919.198
6918.881
6918.968
6919.27
6920.753
6922.575
6924.24
6925.215
6925.021
6924.143
6923.264
6922.639
6922.394
6922.555
6923.107
6924.034
6925.324
6926.957
6928.912
6931.165
6933.684
6936.442
6939.428
6942.635
6946.043
6949.635
6953.389
6957.282
6961.292
6965.382
6969.629
6973.989
6978.429
6982.941
6987.521
6992.157
6996.838
7001.555
7006.295
7011.038
7015.778
7020.518
7025.258
7029.992
7034.712
7039.41
7044.08
7048.714
7053.294
7057.828
7062.334
7066.807
7071.236
7075.617
7079.949
7084.231
7088.459
7092.628
7096.731
7100.769
7104.747
7108.669
7112.537
7116.349
7120.104
7123.8
7127.435
7131.005
7134.519
7137.982
7141.395
7144.757
7148.067
7151.328
7154.539
7157.7
7160.809
7163.864
7166.869
7169.829
7172.75
7175.634
7178.479
7181.288
7184.058
7186.788
7189.478
7192.137
7194.773
7197.386
7199.975
7202.541
7205.085
7207.608
7210.111
7212.59
7215.048
7217.487
7219.913
7222.329
7224.736
7227.136
7229.529
7231.915
7234.292
7236.664
7239.039
7241.42
7243.807
7246.202
7248.606
7251.02
7253.446
7255.885
7258.337
7260.805
7263.292
7265.803
7268.341
7270.902
7273.477
7276.045
7278.563
7280.971
7283.176
7285.181
7287.045
7288.762
7290.289
7291.628
7292.827
7293.934
7294.983
7295.999
7297
7298.001
7299.014
7300.049
7301.121
7302.244
7303.438
7304.724
7306.125
7307.639
7309.263
7310.979
7312.721
7314.382
7315.811
7316.906
7317.642
7318.055
7318.248
7318.461
7318.875
7319.502
7320.28
7321.156
7322.102
7323.094
7324.114
7325.147
7326.185
7327.219
7328.245
7329.26
7330.261
7331.246
7332.215
7333.165
7334.099
7335.016
7335.915
7336.798
7337.663
7338.512
7339.344
7340.158
7340.955
7341.734
7342.496
7343.24
7343.966
7344.676
7345.368
7346.043
7346.701
7347.342
7347.966
7348.573
7349.163
7349.737
7350.295
7350.836
7351.36
7351.869
7352.363
7352.842
7353.307
7353.76
7354.202
7354.634
7355.056
7355.467
7355.866
7356.255
7356.632
7356.996
7357.347
7357.683
7358.005
7358.314
7358.609
7358.89
7359.157
7359.411
7359.651
7359.879
7360.094
7360.295
7360.485
7360.661
7360.825
7360.976
7361.114
7361.239
7361.351
7361.45
7361.537
7361.612
7361.674
7361.725
7361.763
7361.789
7361.802
7361.804
7361.793
7361.771
7361.735
7361.688
7361.628
7361.555
7361.47
7361.373
7361.263
7361.14
7361.006
7360.86
7360.703
7360.536
7360.361
7360.179
7359.99
7359.795
7359.592
7359.379
7359.156
7358.921
7358.674
7358.413
7358.139
7357.852
7357.552
7357.237
7356.909
7356.566
7356.21
7355.839
7355.453
7355.053
7354.637
7354.206
7353.758
7353.292
7352.809
7352.307
7351.786
7351.245
7350.685
7350.106
7349.51
7348.898
7348.278
7347.658
7347.052
7346.481
7345.973
7345.551
7345.235
7345.008
7344.839
7344.703
7344.581
7344.464
7344.344
7344.218
7344.083
7343.938
7343.782
7343.617
7343.443
7343.26
7343.069
7342.871
7342.667
7342.459
7342.246
7342.029
7341.81
7341.588
7341.365
7341.14
7340.915
7340.689
7340.463
7340.237
7340.011
7339.785
7339.56
7339.333
7339.103
7338.87
7338.63
7338.381
7338.132
7337.892
7337.659
7337.43
7337.205
7336.983
7336.765
7336.551
7336.342
7336.137
7335.938
7335.743
7335.554
7335.37
7335.191
7335.017
7334.849
7334.686
7334.528
7334.376
7334.229
7334.087
7333.95
7333.819
7333.693
7333.573
7333.458
7333.349
7333.245
7333.146
7333.053
7332.965
7332.883
7332.806
7332.734
7332.668
7332.606
7332.548
7332.493
7332.439
7332.383
7332.322
7332.251
7332.167
7332.065
7331.949
7331.822
7331.689
7331.553
7331.414
7331.272
7331.124
7330.969
7330.804
7330.634
7330.463
7330.294
7330.127
7329.962
7329.799
7329.637
7329.475
7329.314
7329.152
7328.99
7328.827
7328.662
7328.495
7328.326
7328.155
7327.981
7327.804
7327.624
7327.44
7327.253
7327.061
7326.866
7326.665
7326.46
7326.25
7326.035
7325.813
7325.586
7325.353
7325.113
7324.867
7324.614
7324.353
7324.086
7323.81
7323.527
7323.236
7322.937
7322.629
7322.313
7321.988
7321.653
7321.31
7320.957
7320.594
7320.221
7319.838
7319.444
7319.04
7318.624
7318.198
7317.759
7317.309
7316.847
7316.372
7315.883
7315.382
7314.866
7314.336
7313.791
7313.229
7312.652
7312.057
7311.444
7310.811
7310.159
7309.485
7308.789
7308.07
7307.328
7306.563
7305.777
7304.972
7304.155
7303.339
7302.538
7301.779
7301.095
7300.523
7300.097
7299.834
7299.662
6325.014
6299.527
6245.332
6190.109
6149.855
6133.299
6140.899
6174.656
6233.318
6312.279
6419.539
6520.64
6611.818
6690.789
6756.117
6808.131
6847.18
6875.288
6894.701
6906.4
6909.996
6915.028
6917.698
6918.226
6917.872
6917.124
6916.227
6915.444
6914.934
6914.764
6914.928
6915.421
6916.495
6917.771
6918.947
6919.744
6919.949
6919.762
6919.527
6919.442
6919.618
6920.105
6920.919
6922.062
6923.53
6925.312
6927.392
6929.753
6932.371
6935.225
6938.302
6941.588
6945.068
6948.724
6952.54
6956.496
6960.582
6964.776
6969.085
6973.495
6977.985
6982.544
6987.164
6991.837
6996.553
7001.3
7006.068
7010.845
7015.623
7020.397
7025.166
7029.924
7034.665
7039.384
7044.072
7048.725
7053.333
7057.898
7062.425
7066.91
7071.351
7075.743
7080.084
7084.372
7088.605
7092.779
7096.89
7100.938
7104.926
7108.855
7112.727
7116.541
7120.296
7123.992
7127.627
7131.201
7134.717
7138.18
7141.589
7144.947
7148.253
7151.508
7154.712
7157.866
7160.968
7164.02
7167.023
7169.981
7172.897
7175.773
7178.611
7181.411
7184.173
7186.898
7189.586
7192.242
7194.871
7197.475
7200.055
7202.61
7205.144
7207.656
7210.146
7212.616
7215.066
7217.498
7219.916
7222.322
7224.719
7227.107
7229.488
7231.861
7234.229
7236.592
7238.955
7241.32
7243.691
7246.066
7248.448
7250.838
7253.236
7255.644
7258.061
7260.489
7262.929
7265.382
7267.847
7270.317
7272.781
7275.22
7277.602
7279.888
7282.032
7284.021
7285.876
7287.598
7289.171
7290.6
7291.91
7293.133
7294.297
7295.423
7296.526
7297.622
7298.723
7299.84
7300.984
7302.17
7303.409
7304.716
7306.099
7307.56
7309.085
7310.652
7312.212
7313.693
7315.01
7316.1
7316.948
7317.582
7318.074
7318.549
7319.117
7319.809
7320.604
7321.475
7322.403
7323.372
7324.367
7325.377
7326.394
7327.41
7328.421
7329.423
7330.413
7331.389
7332.351
7333.297
7334.226
7335.139
7336.036
7336.916
7337.78
7338.626
7339.456
7340.268
7341.063
7341.841
7342.601
7343.345
7344.07
7344.779
7345.47
7346.145
7346.802
7347.443
7348.067
7348.674
7349.264
7349.838
7350.396
7350.938
7351.463
7351.974
7352.469
7352.95
7353.417
7353.871
7354.314
7354.745
7355.166
7355.575
7355.972
7356.358
7356.731
7357.092
7357.439
7357.773
7358.093
7358.4
7358.693
7358.972
7359.238
7359.491
7359.73
7359.956
7360.17
7360.371
7360.559
7360.734
7360.897
7361.047
7361.184
7361.308
7361.42
7361.519
7361.605
7361.68
7361.742
7361.792
7361.83
7361.856
7361.869
7361.871
7361.861
7361.838
7361.803
7361.756
7361.697
7361.625
7361.541
7361.445
7361.337
7361.217
7361.085
7360.942
7360.788
7360.625
7360.452
7360.271
7360.082
7359.886
7359.68
7359.465
7359.24
7359.003
7358.754
7358.493
7358.218
7357.931
7357.631
7357.317
7356.989
7356.648
7356.294
7355.925
7355.542
7355.145
7354.733
7354.307
7353.864
7353.406
7352.932
7352.441
7351.934
7351.411
7350.872
7350.319
7349.753
7349.18
7348.603
7348.033
7347.479
7346.958
7346.486
7346.078
7345.744
7345.475
7345.256
7345.068
7344.899
7344.739
7344.582
7344.424
7344.262
7344.093
7343.918
7343.736
7343.547
7343.351
7343.149
7342.941
7342.729
7342.512
7342.292
7342.069
7341.843
7341.616
7341.387
7341.157
7340.926
7340.695
7340.464
7340.233
7340.002
7339.771
7339.54
7339.308
7339.074
7338.838
7338.597
7338.353
7338.11
7337.872
7337.639
7337.41
7337.185
7336.963
7336.746
7336.532
7336.323
7336.118
7335.919
7335.724
7335.535
7335.35
7335.171
7334.997
7334.828
7334.665
7334.507
7334.354
7334.206
7334.064
7333.927
7333.795
7333.668
7333.547
7333.431
7333.321
7333.215
7333.115
7333.02
7332.93
7332.845
7332.765
7332.69
7332.619
7332.551
7332.487
7332.424
7332.361
7332.296
7332.226
7332.149
7332.061
7331.962
7331.851
7331.732
7331.606
7331.476
7331.342
7331.204
7331.061
7330.913
7330.758
7330.598
7330.437
7330.276
7330.116
7329.957
7329.798
7329.64
7329.483
7329.324
7329.166
7329.006
7328.845
7328.682
7328.518
7328.351
7328.182
7328.01
7327.835
7327.657
7327.475
7327.289
7327.099
7326.905
7326.707
7326.503
7326.294
7326.08
7325.861
7325.635
7325.403
7325.165
7324.92
7324.668
7324.409
7324.142
7323.869
7323.587
7323.297
7323
7322.693
7322.378
7322.055
7321.722
7321.38
7321.028
7320.667
7320.296
7319.915
7319.523
7319.121
7318.708
7318.284
7317.848
7317.401
7316.942
7316.47
7315.986
7315.489
7314.979
7314.455
7313.917
7313.364
7312.796
7312.212
7311.612
7310.995
7310.361
7309.709
7309.039
7308.352
7307.647
7306.928
7306.195
7305.454
7304.713
7303.98
7303.273
7302.609
7302.011
7301.505
7301.108
7300.832
7300.621
6315.664
6274.34
6203.835
6151.823
6112.909
6092.846
6096.734
6129.073
6191.417
6277.909
6372.674
6475.161
6571.867
6657.56
6728.543
6784.493
6826.688
6857.474
6879.161
6893.503
6902.017
6908.142
6911.603
6912.946
6913.127
6912.729
6912.091
6911.466
6911.021
6910.843
6910.974
6911.409
6912.157
6913.073
6913.979
6914.71
6915.158
6915.403
6915.623
6915.959
6916.499
6917.297
6918.375
6919.746
6921.411
6923.363
6925.593
6928.086
6930.825
6933.793
6936.977
6940.361
6943.931
6947.672
6951.568
6955.603
6959.764
6964.034
6968.409
6972.877
6977.425
6982.041
6986.715
6991.438
6996.2
7000.99
7005.799
7010.617
7015.436
7020.25
7025.055
7029.846
7034.618
7039.363
7044.078
7048.756
7053.392
7057.985
7062.534
7067.038
7071.495
7075.901
7080.255
7084.553
7088.795
7092.976
7097.097
7101.155
7105.151
7109.087
7112.964
7116.781
7120.537
7124.234
7127.869
7131.445
7134.963