/*--------------------------------*- C++ -*----------------------------------*\
| =========                 |                                                 |
| \\      /  F ield         | foam-extend: Open Source CFD                    |
|  \\    /   O peration     | Version:     3.1                                |
|   \\  /    A nd           | Web:         http://www.extend-project.de       |
|    \\/     M anipulation  |                                                 |
\*---------------------------------------------------------------------------*/
FoamFile
{
    version     2.0;
    format      ascii;
    class       surfaceScalarField;
    location    "0.5";
    object      phi;
}
// * * * * * * * * * * * * * * * * * * * * * * * * * * * * * * * * * * * * * //

dimensions      [0 3 -1 0 0 0 0];

internalField   nonuniform List<scalar> 
275122
(
-0.0001105244
0.0001116064
-9.095468e-08
-9.910909e-07
-0.0001003284
9.616237e-05
3.36477e-07
3.829558e-06
-0.0001014217
0.0001047512
-3.753899e-08
-3.292021e-06
-0.0001153125
0.0001187474
-3.225833e-08
-3.402654e-06
-0.0001274057
0.0001285501
-2.180164e-08
-1.122546e-06
-0.0001291644
0.0001291565
-1.146648e-08
1.935834e-08
-0.0001284744
0.0001281407
-5.540986e-09
3.392457e-07
-0.0001269802
0.0001265446
-2.700712e-09
4.383021e-07
-0.0001251371
0.0001246359
-1.100833e-09
5.022753e-07
-0.0001230594
0.0001225106
-2.651856e-10
5.490893e-07
-0.0001208095
0.000120225
1.360966e-10
5.844328e-07
-0.0001184301
0.0001178185
3.022679e-10
6.112627e-07
-0.0001159529
0.0001153211
3.34495e-10
6.314553e-07
-0.0001134029
0.0001127562
2.820268e-10
6.463378e-07
-0.0001108002
0.0001101432
1.703054e-10
6.567864e-07
-0.0001081619
0.0001074988
-6.343649e-12
6.631063e-07
-0.0001055062
0.0001048432
-6.959674e-10
6.636972e-07
-0.0001028681
0.0001022236
-4.416221e-09
6.488521e-07
-0.0001003801
9.983878e-05
-2.361633e-08
5.649022e-07
-9.868964e-05
9.882914e-05
-1.248849e-07
-1.461113e-08
-0.0001094263
0.0001130153
-3.268654e-07
-3.262143e-06
-0.0001145729
0.0001148878
-1.508005e-07
-1.641945e-07
-0.0001155834
0.0001162827
-9.195611e-08
-6.073321e-07
-0.0001286096
0.0001331749
8.941493e-08
-4.654751e-06
-0.0001344607
0.000134665
2.125174e-07
-4.167437e-07
-0.0001358816
0.0001360304
1.232966e-07
-2.721313e-07
-0.0001360447
0.0001358712
7.731065e-08
9.617537e-08
-0.0001347707
0.0001337838
6.401414e-08
9.228567e-07
-0.0001264827
0.0001187849
5.642574e-08
7.64132e-06
-0.0001222912
0.0001258053
3.02446e-09
-3.517082e-06
-7.351208e-05
7.679142e-05
-2.160784e-08
-3.257733e-06
-8.723856e-05
9.076434e-05
1.380064e-10
-3.525917e-06
-0.0001016659
0.0001053486
1.166623e-10
-3.682754e-06
-0.0001165814
0.000120391
2.369369e-10
-3.809877e-06
-0.0001319138
0.0001357778
2.842683e-10
-3.864238e-06
-0.0001474164
0.0001513068
3.996344e-10
-3.89076e-06
-0.0001630019
0.0001669079
4.150706e-10
-3.906405e-06
-0.0001786398
0.0001825572
6.016959e-10
-3.917934e-06
-0.0001943186
0.000198251
7.457916e-10
-3.933127e-06
-0.0002102503
0.0002143731
6.112401e-08
-4.183891e-06
3.530277e-06
-0.0001434246
0.0001436913
-1.548083e-10
-3.796806e-06
3.651316e-06
-0.0001444129
0.0001445777
-2.845217e-11
-3.816084e-06
3.755786e-06
-0.0001449213
0.000145003
-4.722745e-11
-3.837437e-06
3.837574e-06
-0.0001451765
0.0001452192
-4.69419e-11
-3.88025e-06
3.876861e-06
-0.0001453273
0.0001453591
-6.042411e-11
-3.90861e-06
3.895268e-06
-0.0001454539
0.000145484
-4.076913e-11
-3.925352e-06
3.905397e-06
-0.0001455776
0.0001456069
-2.743663e-11
-3.934578e-06
3.915825e-06
-0.0001457007
0.0001457313
-7.677271e-12
-3.946392e-06
4.092774e-06
-0.0001458079
0.0001457343
-1.178135e-10
-4.019056e-06
3.443531e-06
-0.000585138
0.0005863697
1.026615e-11
-1.55389e-05
3.702817e-06
3.457618e-06
3.703189e-06
3.717853e-06
-0.0005870573
0.0005875217
1.429908e-11
-1.550564e-05
3.801712e-06
3.719328e-06
3.802354e-06
3.776042e-06
-0.0005878887
0.0005881647
3.883756e-11
-1.54778e-05
3.824844e-06
3.775959e-06
3.824912e-06
3.853532e-06
-0.0005882741
0.0005883262
1.217617e-11
-1.547985e-05
3.85953e-06
3.854403e-06
3.860328e-06
3.871224e-06
-0.0005883615
0.0005883694
7.508876e-12
-1.550471e-05
3.877033e-06
3.871373e-06
3.877132e-06
3.88627e-06
-0.0005883637
0.0005883458
5.0713e-12
-1.553771e-05
3.891547e-06
3.88628e-06
3.89145e-06
3.894211e-06
-0.0005883177
0.0005882789
3.127898e-12
-1.554678e-05
3.898869e-06
3.893959e-06
3.898581e-06
3.898549e-06
-0.000588235
0.0005881808
1.298025e-12
-1.554788e-05
3.902512e-06
3.89855e-06
3.902424e-06
3.919302e-06
-0.0005881124
0.0005879688
-3.09576e-13
-1.554949e-05
3.927175e-06
3.919473e-06
3.927176e-06
3.829243e-06
-0.000587692
0.0005878588
-8.236279e-14
-1.544997e-05
3.811906e-06
3.830547e-06
3.811438e-06
3.840261e-06
-0.0005878992
0.0005878284
3.117867e-12
-1.523852e-05
3.815023e-06
3.839409e-06
3.814575e-06
3.794845e-06
-0.0005878233
0.0005878206
8.227904e-12
-1.515565e-05
3.784701e-06
3.794544e-06
3.784269e-06
3.788183e-06
-0.0005878066
0.0005877478
8.272114e-12
-1.510282e-05
3.791597e-06
3.788294e-06
3.793506e-06
3.802201e-06
-0.0005876486
0.0005875233
5.304719e-12
-1.508745e-05
3.804988e-06
3.801315e-06
3.804217e-06
3.817549e-06
-0.0005873699
0.000587189
3.287492e-12
-1.509091e-05
3.820548e-06
3.815534e-06
3.81817e-06
3.842442e-06
-0.000586996
0.0005867838
-2.9444e-12
-1.514871e-05
3.84961e-06
3.831658e-06
3.837134e-06
3.924531e-06
-0.0005865583
0.0005862874
-2.176797e-12
-1.539428e-05
3.953211e-06
3.883444e-06
3.904023e-06
4.248743e-06
-0.0005859029
0.000585126
7.469176e-12
-1.613319e-05
4.375758e-06
4.094347e-06
4.19123e-06
5.282642e-06
-0.0005833628
0.0005797278
5.871761e-12
-1.711734e-05
5.651344e-06
4.830416e-06
4.988005e-06
5.571038e-06
-0.0005751438
0.0005796438
-3.261255e-12
-1.007105e-05
6.81879e-06
-0.000583453
0.0005842683
-6.624268e-13
-7.634122e-06
1.074086e-05
-0.0005836974
0.0005825943
9.570964e-13
-9.637733e-06
9.665285e-06
-0.000581448
0.0005803386
2.559023e-12
-8.555892e-06
5.068633e-06
-0.0005796856
0.0005800549
4.051332e-12
-5.437954e-06
2.027439e-06
-0.0005808145
0.0005815818
5.071354e-12
-2.794676e-06
6.051718e-07
-0.0005823826
0.0005831358
4.996252e-12
-1.358331e-06
-2.137258e-07
-0.0005838546
0.0005845177
4.146773e-12
-4.493248e-07
-7.366092e-07
-0.0005851443
0.0005857221
3.039063e-12
1.587545e-07
-1.106893e-06
-0.0005862797
0.0005867973
2.293262e-12
5.893145e-07
-1.386432e-06
-0.000587299
0.0005877709
1.86267e-12
9.144674e-07
-1.596499e-06
-0.0005882332
0.0005886753
1.240298e-12
1.154356e-06
-1.75139e-06
-0.0005891114
0.0005895344
3.916725e-13
1.328379e-06
-1.859202e-06
-0.0005899544
0.0005903674
-3.103637e-13
1.446163e-06
-1.923547e-06
-0.0005907805
0.000591193
-2.404674e-13
1.511078e-06
-1.941942e-06
-0.0005916095
0.0005920325
6.53575e-13
1.518961e-06
-1.893586e-06
-0.0005924649
0.0005929129
1.960036e-12
1.445562e-06
-1.701395e-06
-0.0005933767
0.000593862
3.035042e-12
1.216117e-06
-1.126598e-06
-0.0005943558
0.0005948344
3.428135e-12
6.479611e-07
6.201331e-07
-0.0005952404
0.0005952328
3.128933e-12
-6.125781e-07
2.203264e-06
-0.0005943139
0.0005939114
2.416951e-12
-1.800725e-06
1.607747e-06
-0.0005942896
0.0005946871
2.029565e-12
-2.005223e-06
5.400251e-06
-0.000594739
0.0005938479
1.546107e-12
-4.509113e-06
1.022119e-05
-0.0005903452
0.0005869668
1.254319e-12
-6.842699e-06
3.964378e-06
-0.0005850952
0.0005844443
1.142841e-12
-3.313504e-06
5.775236e-07
-0.000584033
0.0005834165
1.083967e-12
3.903266e-08
-2.77315e-06
-0.0005829248
0.0005823893
1.345601e-12
3.308714e-06
-8.952357e-06
-0.0005820442
0.0005823425
1.597017e-12
8.654025e-06
-2.422352e-05
-0.0005842601
0.0005912899
1.732208e-12
1.719369e-05
-4.588785e-06
-0.0005999631
0.0006013224
1.584336e-12
1.47443e-05
-3.415209e-06
-4.628183e-06
-3.471426e-06
-1.881526e-06
-0.0006007234
0.0005999525
1.190142e-12
8.037396e-06
-1.709805e-06
-1.925888e-06
-1.74922e-06
-1.172268e-06
-0.0005990725
0.0005982753
7.61631e-13
5.391031e-06
-1.098327e-06
-1.200531e-06
-1.12278e-06
-9.024767e-07
-0.0005976113
0.0005971171
5.29828e-13
4.082998e-06
-8.759526e-07
-9.193758e-07
-8.909886e-07
-7.821145e-07
-0.0005967259
0.0005964463
9.855672e-13
3.399432e-06
-7.675053e-07
-7.92785e-07
-7.774567e-07
-7.18885e-07
-0.0005962331
0.0005960972
6.605363e-13
3.008152e-06
-7.112454e-07
-7.252252e-07
-7.16869e-07
-6.830024e-07
-0.0005960048
0.0005959658
5.020853e-13
2.76932e-06
-6.78485e-07
-6.868632e-07
-6.819744e-07
-6.614575e-07
-0.0005959565
0.0005959844
6.919918e-13
2.617094e-06
-6.5881e-07
-6.638202e-07
-6.609409e-07
-6.491394e-07
-0.0005960328
0.0005961065
1.038977e-12
2.522956e-06
-6.478868e-07
-6.505294e-07
-6.491257e-07
-6.441795e-07
-0.0005961938
0.0005962966
1.309381e-12
2.475292e-06
-6.440952e-07
-6.449964e-07
-6.448816e-07
-6.457981e-07
-0.0005964073
0.0005965258
1.278637e-12
2.468108e-06
-6.468917e-07
-6.464537e-07
-6.475301e-07
-6.531009e-07
-0.0005966475
0.0005967707
9.105749e-13
2.493984e-06
-6.550028e-07
-6.536216e-07
-6.554589e-07
-6.64491e-07
-0.0005968938
0.0005970146
2.921937e-13
2.542437e-06
-6.668947e-07
-6.647547e-07
-6.671072e-07
-6.774264e-07
-0.0005971337
0.000597249
1.715317e-12
2.599062e-06
-6.797754e-07
-6.774346e-07
-6.797067e-07
-6.886351e-07
-0.0005973618
0.0005974711
7.969153e-12
2.648391e-06
-6.903697e-07
-6.88472e-07
-6.902079e-07
-6.972563e-07
-0.0005975799
0.0005976896
-1.418768e-12
2.679759e-06
-6.981941e-07
-6.964601e-07
-6.97466e-07
-6.983257e-07
-0.0005977993
0.0005979086
-3.734333e-12
2.682832e-06
-6.977756e-07
-6.98228e-07
-6.977438e-07
-6.948551e-07
-0.0005980174
0.0005981282
-8.796392e-12
2.667397e-06
-6.942184e-07
-6.948756e-07
-6.942392e-07
-6.915441e-07
-0.0005982409
0.000598357
-1.276289e-11
2.649171e-06
-6.911011e-07
-6.915562e-07
-6.91113e-07
-6.895735e-07
-0.0005984754
0.0005985968
-9.034796e-12
2.636775e-06
-6.89433e-07
-6.896021e-07
-6.894618e-07
-6.895925e-07
-0.0005987195
0.0005988434
-1.033357e-13
2.635154e-06
-6.898677e-07
-6.89654e-07
-6.89928e-07
-6.918889e-07
-0.0005989674
0.0005990904
3.494204e-12
2.646095e-06
-6.925989e-07
-6.919455e-07
-6.926528e-07
-6.9655e-07
-0.0005992126
0.0005993324
4.13698e-12
2.668691e-06
-6.976445e-07
-6.965931e-07
-6.976891e-07
-7.027536e-07
-0.0005994506
0.0005995649
4.159655e-12
2.699147e-06
-7.039524e-07
-7.027945e-07
-7.039929e-07
-7.09168e-07
-0.0005996767
0.0005997834
3.020567e-12
2.73215e-06
-7.102869e-07
-7.091729e-07
-7.102779e-07
-7.150327e-07
0.0005999852
1.252027e-12
2.763807e-06
-7.159738e-07
-7.150076e-07
-7.159757e-07
-0.000599887
-7.199966e-07
-0.0006000801
0.00060017
-4.558938e-14
2.792104e-06
-7.208361e-07
-7.201305e-07
-7.20996e-07
-7.241166e-07
-0.0006002569
0.0006003388
-4.621177e-13
2.816074e-06
-7.247558e-07
-7.242893e-07
-7.248956e-07
-7.274308e-07
-0.0006004181
0.0006004933
-8.002355e-13
2.835831e-06
-7.280243e-07
-7.274898e-07
-7.28088e-07
-7.302148e-07
-0.0006005663
0.0006006363
5.592079e-12
2.852289e-06
-7.308343e-07
-7.302758e-07
-7.3092e-07
-7.323351e-07
-0.0006007029
0.0006007678
-5.622199e-12
2.865742e-06
-7.329145e-07
-7.324341e-07
-7.329132e-07
-7.344718e-07
-0.0006008314
0.0006008919
5.085246e-14
2.878157e-06
-7.347785e-07
-7.345002e-07
-7.348284e-07
-7.361209e-07
-0.0006009509
0.0006010077
3.079544e-13
2.888362e-06
-7.364277e-07
-7.36176e-07
-7.364828e-07
-7.376218e-07
-0.0006010634
0.0006011171
1.493067e-13
2.89744e-06
-7.379055e-07
-7.376753e-07
-7.379592e-07
-7.389883e-07
-0.0006011698
0.0006012207
-1.424933e-13
2.905712e-06
-7.392562e-07
-7.390427e-07
-7.393111e-07
-7.402576e-07
-0.0006012706
0.0006013189
-3.264416e-13
2.913362e-06
-7.405119e-07
-7.403135e-07
-7.405685e-07
-7.414441e-07
-0.0006013663
0.0006014122
-2.398972e-13
2.920494e-06
-7.416869e-07
-7.41503e-07
-7.417464e-07
-7.425481e-07
-0.0006014572
0.0006015009
-4.23561e-14
2.927144e-06
-7.427819e-07
-7.426105e-07
-7.428451e-07
-7.435589e-07
-0.0006015436
0.0006015852
2.17919e-13
2.933313e-06
-7.438023e-07
-7.43628e-07
-7.438669e-07
-7.448186e-07
-0.0006016251
0.000601666
6.979209e-13
2.939429e-06
-7.454807e-07
-7.447312e-07
-7.452709e-07
-7.466644e-07
-0.0006017027
0.0006017452
7.909642e-13
2.946162e-06
-7.476756e-07
-7.466339e-07
-7.477231e-07
-7.475483e-07
-0.0006017792
0.0006018198
5.525686e-13
2.951366e-06
-7.484627e-07
-7.475341e-07
-7.484306e-07
-7.485674e-07
-0.0006018519
0.0006018915
3.545801e-13
2.956062e-06
-7.491207e-07
-7.486964e-07
-7.492806e-07
-7.492281e-07
-0.0006019221
0.0006019604
2.061462e-12
2.959413e-06
-7.494124e-07
-7.494646e-07
-7.495631e-07
-7.494756e-07
-0.00060199
0.0006020265
7.715067e-12
2.961129e-06
-7.493154e-07
-7.496301e-07
-7.49228e-07
-7.485334e-07
-0.0006020583
0.0006020927
-5.113769e-13
2.960126e-06
-7.4872e-07
-7.485317e-07
-7.487681e-07
-7.478435e-07
-0.0006021289
0.0006021675
-1.045333e-12
2.953367e-06
-7.479613e-07
-7.479991e-07
-7.481444e-07
-7.451158e-07
-0.0006022136
0.0006022604
-3.976503e-12
2.926713e-06
-7.415327e-07
-7.452068e-07
-7.416931e-07
-7.252777e-07
-0.0006023056
0.0006023427
-1.235502e-11
2.854402e-06
-7.203028e-07
-7.254755e-07
-7.20375e-07
-6.611123e-07
-0.0006023171
0.0006021922
7.655476e-14
2.729815e-06
-6.399506e-07
-6.622675e-07
-6.415928e-07
-6.825112e-07
-0.000602249
0.0006022033
4.498906e-13
2.836782e-06
-7.167488e-07
-6.78645e-07
-7.131478e-07
-6.619327e-07
-0.0006021436
0.0006020775
6.820213e-13
2.70782e-06
-6.60816e-07
-6.597522e-07
-6.591752e-07
-6.692767e-07
-0.0006020395
0.0006020389
9.390593e-13
2.676963e-06
-6.697042e-07
-6.683761e-07
-6.690659e-07
-6.799864e-07
-0.0006020494
0.0006020789
1.185691e-12
2.691407e-06
-6.811126e-07
-6.792598e-07
-6.805322e-07
-6.931975e-07
-0.0006021211
0.0006021732
1.582667e-12
2.721332e-06
-6.939486e-07
-6.927036e-07
-6.935165e-07
-7.031109e-07
-0.000602231
0.0006022932
2.209311e-12
2.750708e-06
-7.036903e-07
-7.027492e-07
-7.033704e-07
-7.110774e-07
-0.0006023581
0.0006024254
2.471041e-12
2.777808e-06
-7.117856e-07
-7.108085e-07
-7.115277e-07
-7.160055e-07
-0.000602495
0.0006025606
-1.516052e-11
2.800304e-06
-7.16907e-07
-7.160558e-07
-7.169181e-07
-7.195192e-07
-0.0006026247
0.0006026867
-8.10614e-12
2.81664e-06
-7.202017e-07
-7.189189e-07
-7.199503e-07
-7.247794e-07
-0.0006027518
0.0006028169
2.231068e-12
2.833673e-06
-7.247657e-07
-7.245786e-07
-7.245804e-07
-7.281239e-07
-0.0006028809
0.0006029439
2.250307e-12
2.849726e-06
-7.282619e-07
-7.280889e-07
-7.282625e-07
-7.31066e-07
-0.0006030059
0.0006030663
3.50867e-13
2.864091e-06
-7.31117e-07
-7.311076e-07
-7.31135e-07
-7.334516e-07
-0.0006031256
0.0006031836
-7.037425e-13
2.875827e-06
-7.335313e-07
-7.333823e-07
-7.334492e-07
-7.353519e-07
-0.0006032409
0.000603297
-6.963258e-13
2.88513e-06
-7.35363e-07
-7.352589e-07
-7.3527e-07
-7.366998e-07
-0.0006033524
0.0006034067
-3.501004e-13
2.892247e-06
-7.366585e-07
-7.366027e-07
-7.365598e-07
-7.378063e-07
-0.0006034602
0.0006035121
-4.086188e-14
2.899078e-06
-7.377569e-07
-7.377197e-07
-7.376774e-07
-7.394135e-07
-0.0006035629
0.0006036117
2.461569e-13
2.908738e-06
-7.394633e-07
-7.393259e-07
-7.39377e-07
-7.411186e-07
-0.0006036581
0.0006036998
5.897631e-13
2.924149e-06
-7.419328e-07
-7.410655e-07
-7.41797e-07
-7.452005e-07
-0.0006037361
0.0006037698
5.191828e-13
2.947203e-06
-7.453285e-07
-7.451249e-07
-7.452585e-07
-7.501063e-07
-0.0006038024
0.0006038292
1.448313e-13
2.974153e-06
-7.50435e-07
-7.500282e-07
-7.503534e-07
-7.539777e-07
-0.0006038523
0.0006038701
-3.699942e-14
2.998359e-06
-7.54201e-07
-7.538853e-07
-7.541068e-07
-7.5673e-07
-0.0006038847
0.0006038949
-1.152881e-13
3.016535e-06
-7.567418e-07
-7.566365e-07
-7.566547e-07
-7.580987e-07
-0.0006039026
0.0006039071
-2.432259e-13
3.027342e-06
-7.57918e-07
-7.580194e-07
-7.578382e-07
-7.584215e-07
-0.00060391
0.0006039109
-3.915651e-13
3.031939e-06
-7.581136e-07
-7.58316e-07
-7.580054e-07
-7.581988e-07
-0.0006039109
0.0006039101
-4.37788e-13
3.032609e-06
-7.578614e-07
-7.5803e-07
-7.576755e-07
-7.578072e-07
0.0006039076
-3.485711e-13
3.031491e-06
-0.000603909
-7.574006e-07
-7.576267e-07
-7.572511e-07
-7.573295e-07
-0.0006039062
0.000603905
-2.742376e-13
3.02991e-06
-7.570229e-07
-7.573486e-07
-7.570675e-07
-7.569416e-07
-0.0006039039
0.0006039025
-3.202925e-13
3.028423e-06
-7.565346e-07
-7.56993e-07
-7.565561e-07
-7.567182e-07
-0.000603901
0.0006038994
-4.124424e-13
3.027509e-06
-7.563759e-07
-7.566233e-07
-7.56272e-07
-7.567464e-07
-0.0006038979
0.0006038963
-4.246297e-13
3.027699e-06
-7.563926e-07
-7.566324e-07
-7.562781e-07
-7.568636e-07
-0.0006038945
0.0006038924
-3.746772e-13
3.028552e-06
-7.565103e-07
-7.567448e-07
-7.563897e-07
-7.570679e-07
-0.0006038902
0.0006038876
-3.28765e-13
3.029893e-06
-7.566877e-07
-7.56967e-07
-7.565961e-07
-7.572981e-07
-0.0006038848
0.0006038815
-2.944637e-13
3.031457e-06
-7.569079e-07
-7.572001e-07
-7.568041e-07
-7.575388e-07
-0.000603878
0.000603874
-2.986595e-13
3.033102e-06
-7.571265e-07
-7.574296e-07
-7.570119e-07
-7.577949e-07
-0.0006038697
0.000603865
-3.4414e-13
3.03478e-06
-7.573503e-07
-7.576932e-07
-7.572562e-07
-7.580213e-07
-0.00060386
0.0006038546
-4.113809e-13
3.036363e-06
-7.575559e-07
-7.579312e-07
-7.57459e-07
-7.582467e-07
-0.000603849
0.0006038429
-4.75961e-13
3.037843e-06
-7.57743e-07
-7.581375e-07
-7.576313e-07
-7.584716e-07
-0.0006038365
0.0006038299
-5.053724e-13
3.039265e-06
-7.579397e-07
-7.58361e-07
-7.578378e-07
-7.586653e-07
-0.000603823
0.0006038158
-4.941495e-13
3.040558e-06
-7.581028e-07
-7.585774e-07
-7.580117e-07
-7.588749e-07
-0.0006038084
0.0006038007
-4.982807e-13
3.041718e-06
-7.582704e-07
-7.58756e-07
-7.581493e-07
-7.591081e-07
-0.0006037929
0.000603785
-6.010524e-13
3.042781e-06
-7.585064e-07
-7.589241e-07
-7.583058e-07
-7.593533e-07
-0.0006037771
0.0006037691
-7.964629e-13
3.04367e-06
-7.586531e-07
-7.591472e-07
-7.584902e-07
-7.593939e-07
-0.000603761
0.0006037534
-9.77375e-13
3.044059e-06
-7.588006e-07
-7.594069e-07
-7.588309e-07
-7.592892e-07
-0.0006037458
0.0006037383
-1.037775e-12
3.043346e-06
-7.58592e-07
-7.59332e-07
-7.585921e-07
-7.590092e-07
-0.000603731
0.0006037245
-9.879176e-13
3.041136e-06
-7.584515e-07
-7.58889e-07
-7.583308e-07
-7.583058e-07
-0.0006037191
0.0006037156
-1.115213e-12
3.035491e-06
-7.578353e-07
-7.581627e-07
-7.577299e-07
-7.581724e-07
-0.0006037137
0.0006037128
-1.359704e-12
3.033108e-06
-7.580614e-07
-7.579783e-07
-7.579804e-07
-7.555861e-07
-0.0006037151
0.0006037255
-5.99546e-13
3.012299e-06
-7.559034e-07
-7.554052e-07
-7.557887e-07
-7.449118e-07
-0.0006037431
0.0006037525
8.113945e-12
2.953271e-06
-7.371667e-07
-7.441338e-07
-7.364813e-07
-5.188985e-07
-0.0006036245
0.0006027716
3.196962e-12
2.833276e-06
-4.738972e-07
-5.153194e-07
-4.722909e-07
-5.292003e-07
-0.0001502633
0.0001501335
1.441159e-10
6.588265e-07
-6.06557e-07
-0.0001498678
0.0001498323
-1.683881e-10
6.422137e-07
-6.688273e-07
-0.0001498043
0.0001498075
-2.138309e-11
6.656089e-07
-6.938519e-07
-0.000149835
0.0001498465
1.888229e-11
6.823493e-07
-7.094398e-07
-0.0001498828
0.0001498948
1.884053e-11
6.974459e-07
-7.190034e-07
-0.0001499295
0.0001499405
1.701096e-11
7.079972e-07
-7.257684e-07
-0.0001499718
0.0001499816
1.674694e-11
7.159372e-07
-7.298516e-07
-0.0001500125
0.0001500211
8.744547e-12
7.212134e-07
-7.321961e-07
-0.0001500448
0.0001500526
2.030739e-11
7.243733e-07
-7.349387e-07
-0.0001500718
0.0001500784
4.842173e-11
7.283177e-07
-7.376938e-07
-0.0001500977
0.0001501038
2.208122e-11
7.314881e-07
-7.394625e-07
-0.0001501219
0.0001501276
8.417842e-13
7.33782e-07
-7.406034e-07
-0.0001501439
0.0001501491
5.180586e-12
7.353577e-07
-7.415279e-07
-0.0001501644
0.0001501693
8.518289e-12
7.365752e-07
-7.42223e-07
-0.0001501838
0.0001501885
1.280844e-11
7.374874e-07
-7.427449e-07
-0.0001502024
0.0001502069
1.214112e-11
7.382262e-07
-7.43332e-07
-0.00015022
0.0001502242
1.211146e-11
7.391342e-07
-7.442104e-07
-0.0001502359
0.0001502395
1.086978e-11
7.406484e-07
-7.458777e-07
-0.0001502489
0.0001502514
8.434911e-12
7.432884e-07
-7.481888e-07
-0.0001502576
0.000150259
7.867657e-12
7.467778e-07
-7.503521e-07
-0.0001502614
0.0001502616
8.878162e-12
7.501282e-07
-7.492521e-07
-0.0001502613
0.0001502611
8.684519e-12
7.494592e-07
-7.511853e-07
-0.0001502586
0.0001502577
7.427049e-12
7.520363e-07
-7.502958e-07
-0.0001502553
0.0001502547
1.033928e-11
7.508911e-07
-7.492253e-07
-0.0001502537
0.0001502537
1.844056e-11
7.491679e-07
-7.480815e-07
-0.0001502553
0.0001502562
2.397568e-11
7.471137e-07
-7.46772e-07
-0.0001502606
0.0001502627
5.680056e-12
7.44645e-07
-7.454145e-07
-0.0001502712
0.0001502747
-6.881388e-12
7.418577e-07
-7.438396e-07
-0.0001502874
0.0001502928
4.64487e-12
7.385214e-07
-7.419618e-07
-0.0001503115
0.0001503191
9.095635e-12
7.342762e-07
-7.392295e-07
-0.0001503461
0.0001503573
1.292436e-11
7.280971e-07
-7.343851e-07
-0.0001503973
0.000150414
1.375431e-11
7.177014e-07
-7.24363e-07
-0.0001504694
0.0001504941
6.039758e-12
6.996421e-07
-7.061823e-07
-0.0001506034
0.000150653
2.113092e-11
6.565706e-07
-6.366176e-07
-0.0001508598
0.0001509686
1.924487e-11
5.277744e-07
1.978228e-07
-0.0001513538
0.0001512607
2.082231e-11
-1.047283e-07
6.394327e-07
-0.0001508548
0.0001507577
5.063148e-12
-5.423638e-07
6.943237e-07
-0.0001505188
0.0001504585
-3.962371e-12
-6.33941e-07
7.141147e-07
-0.000150308
0.0001502674
-9.123967e-12
-6.735111e-07
7.234887e-07
-0.0001501615
0.0001501332
-7.370709e-11
-6.951629e-07
7.291175e-07
-0.00015007
0.0001500521
-1.5127e-11
-7.111925e-07
7.351194e-07
-0.0001500063
0.0001499937
-1.644596e-11
-7.22561e-07
7.392729e-07
-0.0001499626
0.0001499543
-1.405074e-11
-7.310152e-07
7.423931e-07
-0.0001499347
0.0001499298
-1.811935e-11
-7.374461e-07
7.448424e-07
-0.000149919
0.0001499166
-1.17876e-11
-7.424768e-07
7.467509e-07
-0.0001499125
0.0001499123
-3.707025e-12
-7.465258e-07
7.487096e-07
-0.0001499137
0.000149915
-6.792268e-12
-7.500039e-07
7.503229e-07
-0.0001499209
0.0001499236
-7.010565e-12
-7.530252e-07
7.518871e-07
-0.0001499335
0.0001499375
-5.704683e-12
-7.558437e-07
7.534699e-07
-0.000149951
0.0001499562
-6.26561e-12
-7.586053e-07
7.550974e-07
-0.0001499732
0.0001499795
-5.783016e-12
-7.613747e-07
7.567765e-07
-0.0001499998
0.0001500071
-4.38963e-12
-7.641068e-07
7.583391e-07
-0.0001500305
0.0001500387
-4.347837e-12
-7.665885e-07
7.596329e-07
-0.0001500645
0.0001500734
-4.73512e-12
-7.68569e-07
7.605017e-07
-0.0001501008
0.0001501102
-3.341955e-12
-7.698154e-07
7.608461e-07
-0.0001501383
0.0001501476
-2.647007e-12
-7.702149e-07
7.607155e-07
-0.0001501755
0.0001501846
-3.392872e-12
-7.698287e-07
7.602044e-07
-0.0001502113
0.0001502199
-2.459289e-12
-7.688365e-07
7.594871e-07
-0.000150245
0.000150253
-2.421014e-12
-7.675019e-07
7.587343e-07
-0.0001502762
0.0001502835
-9.545025e-12
-7.66048e-07
7.579707e-07
-0.0001503046
0.0001503113
-2.725311e-12
-7.646473e-07
7.571686e-07
-0.0001503304
0.0001503366
6.113266e-12
-7.633669e-07
7.567575e-07
-0.0001503539
0.0001503595
1.137119e-12
-7.623244e-07
7.562257e-07
-0.0001503754
0.0001503805
-1.02919e-12
-7.613397e-07
7.557129e-07
-0.0001503949
0.0001503996
-1.231983e-12
-7.604128e-07
7.551628e-07
-0.0001504126
0.0001504169
-2.966956e-12
-7.594839e-07
7.544931e-07
-0.0001504284
0.0001504324
-5.018398e-12
-7.584694e-07
7.528374e-07
-0.0001504428
0.0001504472
5.730416e-11
-7.573716e-07
7.590111e-07
-0.0001504597
0.0001504618
-3.411754e-11
-7.611483e-07
8.064475e-07
-0.0001504666
0.0001504476
-8.935218e-11
-7.874273e-07
6.463234e-07
-0.0001498698
0.0006032872
9.467188e-13
-2.829676e-06
-1.912501e-08
6.508253e-07
-1.129914e-08
-0.0001498726
-0.0001509899
-0.000150992
4.341385e-07
-0.0006050324
0.0006055001
6.454829e-13
-2.558964e-06
6.072114e-07
4.396825e-07
6.102975e-07
5.84968e-07
-0.0006058401
0.000606004
3.241147e-13
-2.614189e-06
6.388467e-07
5.863581e-07
6.400445e-07
6.562018e-07
-0.0006060647
0.0006060339
2.013554e-13
-2.635494e-06
6.761867e-07
6.569602e-07
6.768928e-07
6.869828e-07
-0.000605978
0.0006059226
-3.039469e-12
-2.702882e-06
6.916826e-07
6.875327e-07
6.921267e-07
7.183414e-07
-0.0006058403
0.0006057411
-3.282038e-13
-2.77433e-06
7.180206e-07
7.187515e-07
7.184284e-07
7.323628e-07
-0.0006056452
0.0006055531
4.100466e-13
-2.837146e-06
7.320175e-07
7.326241e-07
7.322729e-07
7.414389e-07
-0.0006054663
0.0006053852
2.748077e-13
-2.885671e-06
7.417865e-07
7.41623e-07
7.419786e-07
7.472602e-07
-0.0006053095
0.0006052396
-2.14747e-14
-2.920732e-06
7.479213e-07
7.473795e-07
7.480318e-07
7.508876e-07
-0.000605175
0.0006051162
-3.339356e-13
-2.946263e-06
7.516275e-07
7.509251e-07
7.516334e-07
7.532044e-07
-0.0006050622
0.0006050139
-6.924029e-13
-2.965763e-06
7.538861e-07
7.531684e-07
7.538451e-07
7.548014e-07
-0.00060497
0.0006049313
-7.221805e-13
-2.981759e-06
7.554629e-07
7.547406e-07
7.554089e-07
7.561455e-07
-0.0006048966
0.0006048666
-4.929741e-13
-2.995746e-06
7.567763e-07
7.560894e-07
7.56724e-07
7.5733e-07
-0.00060484
0.0006048176
1.591793e-13
-3.007951e-06
7.579474e-07
7.572513e-07
7.578591e-07
7.582769e-07
-0.0006047979
0.0006047817
1.340005e-12
-3.017816e-06
7.588348e-07
7.581768e-07
7.587402e-07
7.588457e-07
-0.0006047677
0.0006047563
2.315753e-12
-3.024764e-06
7.593319e-07
7.58756e-07
7.592437e-07
7.590004e-07
-0.0006047465
0.0006047388
3.951803e-12
-3.028992e-06
7.594325e-07
7.589086e-07
7.593321e-07
7.589876e-07
-0.0006047324
0.0006047277
4.565753e-12
-3.031825e-06
7.593885e-07
7.588716e-07
7.592751e-07
7.590731e-07
-0.000604724
0.0006047219
2.491178e-12
-3.034746e-06
7.594878e-07
7.589742e-07
7.593922e-07
7.593493e-07
-0.0006047206
0.0006047209
-1.499897e-13
-3.038364e-06
7.597759e-07
7.592568e-07
7.5968e-07
7.598022e-07
-0.0006047222
0.0006047248
-1.450958e-12
-3.042491e-06
7.602178e-07
7.596873e-07
7.600984e-07
7.602502e-07
-0.0006047285
0.0006047336
-1.496913e-12
-3.046687e-06
7.606509e-07
7.601451e-07
7.605498e-07
7.606221e-07
-0.0006047395
0.0006047467
-1.084455e-12
-3.050199e-06
7.6098e-07
7.605216e-07
7.608814e-07
7.60823e-07
-0.0006047547
0.0006047636
-7.629729e-13
-3.05265e-06
7.611371e-07
7.606904e-07
7.61032e-07
7.609174e-07
-0.000604773
0.000604783
-6.231681e-13
-3.054066e-06
7.612067e-07
7.608422e-07
7.61136e-07
7.608293e-07
-0.0006047933
0.0006048041
-4.451103e-13
-3.05453e-06
7.611312e-07
7.607842e-07
7.610517e-07
7.60744e-07
-0.0006048149
0.0006048258
-9.083005e-14
-3.054201e-06
7.609903e-07
7.606253e-07
7.608664e-07
7.605328e-07
-0.0006048368
0.0006048477
2.774756e-13
-3.053278e-06
7.607651e-07
7.604171e-07
7.606565e-07
7.602939e-07
-0.0006048585
0.000604869
4.874235e-13
-3.051945e-06
7.605064e-07
7.601952e-07
7.604126e-07
7.600259e-07
-0.0006048793
0.0006048893
4.680218e-13
-3.050277e-06
7.602331e-07
7.599243e-07
7.601258e-07
7.597393e-07
-0.0006048989
0.0006049082
3.477137e-13
-3.048359e-06
7.599303e-07
7.596313e-07
7.598271e-07
7.594442e-07
-0.000604917
0.0006049253
2.910577e-13
-3.046247e-06
7.596242e-07
7.593524e-07
7.59535e-07
7.591161e-07
-0.0006049332
0.0006049404
3.630526e-13
-3.043853e-06
7.592868e-07
7.590256e-07
7.591912e-07
7.587579e-07
-0.0006049472
0.0006049532
5.237042e-13
-3.041141e-06
7.589077e-07
7.586539e-07
7.588052e-07
7.5835e-07
-0.0006049587
0.0006049632
6.691312e-13
-3.038055e-06
7.584877e-07
7.582611e-07
7.584017e-07
7.578667e-07
-0.0006049672
0.00060497
7.128862e-13
-3.034401e-06
7.579821e-07
7.577838e-07
7.578967e-07
7.572892e-07
-0.0006049722
0.000604973
6.543438e-13
-3.029989e-06
7.573757e-07
7.571923e-07
7.572749e-07
7.565614e-07
-0.000604973
0.0006049714
5.493428e-13
-3.02454e-06
7.56622e-07
7.564731e-07
7.565356e-07
7.556295e-07
-0.0006049686
0.0006049638
4.106915e-13
-3.017537e-06
7.556391e-07
7.555434e-07
7.555537e-07
7.54365e-07
-0.0006049575
0.0006049486
2.327721e-13
-3.008155e-06
7.543127e-07
7.542302e-07
7.542094e-07
7.528464e-07
-0.0006049374
0.0006049214
7.227698e-14
-2.995079e-06
7.527803e-07
7.527916e-07
7.527349e-07
7.534694e-07
-0.0006048986
0.0006048715
-1.995788e-13
-2.970994e-06
7.455897e-07
7.534379e-07
7.455546e-07
7.427386e-07
-0.0006048583
0.0006048186
-9.086781e-13
-2.938313e-06
7.46351e-07
7.426593e-07
7.462548e-07
7.315198e-07
-0.0006047736
0.0006047177
-4.386535e-12
-2.863828e-06
7.284924e-07
7.313906e-07
7.283659e-07
7.020812e-07
-0.0006046388
0.0006045639
-3.9586e-12
-2.712499e-06
6.919375e-07
7.017346e-07
6.916663e-07
5.896695e-07
-0.0006045388
0.0006046344
-1.163926e-12
-2.382958e-06
5.541873e-07
5.89494e-07
5.539983e-07
5.092638e-07
-0.0006047689
0.0006048815
-6.721962e-13
-2.14695e-06
5.080438e-07
5.091304e-07
5.07917e-07
4.921125e-07
-0.0006049811
0.0006050689
-5.083578e-13
-2.052467e-06
4.902902e-07
4.920125e-07
4.90194e-07
4.811686e-07
-0.0006051493
0.0006052189
-4.818914e-13
-1.99271e-06
4.804399e-07
4.810899e-07
4.803569e-07
4.748694e-07
-0.0006052829
0.0006053395
-4.109425e-13
-1.954862e-06
4.743124e-07
4.747995e-07
4.742425e-07
4.705942e-07
-0.0006053923
0.0006054396
-1.972705e-13
-1.92897e-06
4.702763e-07
4.705534e-07
4.702405e-07
4.685687e-07
-0.0006054846
0.0006055253
-5.055859e-13
-1.914238e-06
4.684389e-07
4.683322e-07
4.6823e-07
4.725818e-07
-0.0006055626
0.0006055969
6.336011e-12
-1.926673e-06
4.733946e-07
4.727707e-07
4.736648e-07
4.244735e-07
-0.0006056419
0.00060578
4.541875e-13
-1.917604e-06
4.646937e-07
4.252983e-07
4.65085e-07
4.185226e-07
-0.0006059227
0.000605763
-6.124787e-13
-1.404169e-06
3.652351e-07
4.158588e-07
3.642948e-07
3.377099e-07
-0.0006057684
0.0006059462
-7.713134e-13
-1.473296e-06
3.088121e-07
3.387173e-07
3.102824e-07
3.410282e-07
-0.0006061036
0.0006062285
-7.399674e-13
-1.49626e-06
3.43213e-07
3.426877e-07
3.444482e-07
3.672221e-07
-0.0006063155
0.000606367
-6.398265e-13
-1.531036e-06
3.721468e-07
3.678496e-07
3.723679e-07
3.915975e-07
-0.0006063877
0.0006063857
-7.653881e-13
-1.573751e-06
3.961573e-07
3.917112e-07
3.962845e-07
4.133521e-07
-0.0006063627
0.000606328
-5.977223e-13
-1.625385e-06
4.167129e-07
4.133045e-07
4.166467e-07
4.275467e-07
-0.0006062872
0.0006062434
-5.15603e-13
-1.670432e-06
4.297223e-07
4.274303e-07
4.296162e-07
4.363571e-07
-0.000606199
0.0006061564
-4.165252e-13
-1.705042e-06
4.375347e-07
4.363083e-07
4.375025e-07
4.414914e-07
-0.0006061159
0.0006060797
-3.258986e-13
-1.730826e-06
4.420174e-07
4.414966e-07
4.420317e-07
4.45279e-07
-0.0006060461
0.0006060158
-2.151922e-13
-1.751445e-06
4.455509e-07
4.453138e-07
4.455891e-07
4.477027e-07
-0.0006059894
0.0006059668
-1.052558e-13
-1.769078e-06
4.480801e-07
4.477432e-07
4.481223e-07